FOO
138240
    1MOL0     O    1   6.404   5.333   7.461  0.2530  0.3245  0.2673
    1MOL0     C    2   6.401   5.366   7.579 -0.1674  0.6173  1.3724
    1MOL0     O    3   6.509   5.366   7.667 -0.2286 -1.2053 -0.4329
    1MOL0     C    4   6.629   5.368   7.618 -0.9151 -0.8922 -0.0936
    1MOL0     C    5   6.710   5.260   7.638 -0.1638  0.4928 -0.2845
    1MOL0     C    6   6.841   5.253   7.596  0.3721 -0.2508 -0.1056
    1MOL0     C    7   6.896   5.356   7.517  0.1646 -0.0117 -0.0034
    1MOL0     O    8   7.024   5.344   7.481 -0.1162 -0.5830  0.4780
    1MOL0     C    9   7.053   5.401   7.350 -0.5610 -0.3223  0.1396
    1MOL0     C   10   7.169   5.311   7.285 -0.0014 -0.0174  0.4737
    1MOL0     C   11   7.299   5.307   7.364  1.1090 -0.4722 -0.6651
    1MOL0     C   12   7.415   5.265   7.276 -0.1438  0.0798 -0.0976
    1MOL0     C   13   7.543   5.246   7.358 -0.0633 -0.4541 -0.4601
    1MOL0     C   14   7.654   5.204   7.263 -0.5296  0.9533 -0.9053
    1MOL0     C   15   7.787   5.178   7.340 -0.5318 -0.1679  0.4244
    1MOL0     C   16   7.886   5.139   7.232  0.9065  0.5793  0.6163
    1MOL0     N   17   8.026   5.154   7.264 -0.9272  0.0621 -0.2286
    1MOL0     C   18   8.079   5.127   7.388 -0.0959 -0.6213 -0.1278
    1MOL0     C   19   8.201   5.184   7.382  0.0101  0.3472  0.2379
    1MOL0     C   20   8.292   5.192   7.502  0.6999  0.2589  0.4282
    1MOL0     C   21   8.410   5.290   7.493  0.2128 -0.4865 -0.2888
    1MOL0     C   22   8.535   5.239   7.567  0.3738 -0.2981  0.6637
    1MOL0     C   23   8.652   5.309   7.507 -0.5010  0.2299  0.0618
    1MOL0     O   24   8.699   5.246   7.388  0.7791  0.1350 -0.4739
    1MOL0     C   25   8.831   5.274   7.366  0.3899  0.7288 -0.0601
    1MOL0     C   26   8.913   5.368   7.435 -0.4543  0.3120 -0.1499
    1MOL0     C   27   9.050   5.379   7.395  0.3206 -0.4342  1.0180
    1MOL0     C   28   9.101   5.310   7.285 -0.8290  0.2302 -0.7053
    1MOL0     C   29   9.244   5.319   7.254  0.2569  0.1842 -0.0367
    1MOL0     O   30   9.283   5.228   7.161  0.7615 -0.1060 -0.1172
    1MOL0     C   31   9.414   5.232   7.113 -0.3182  0.4930  0.5727
    1MOL0     C   32   9.471   5.107   7.098  0.5991  0.3701  0.3448
    1MOL0     C   33   9.602   5.092   7.052 -0.6713 -0.3091 -0.5351
    1MOL0     C   34   9.676   5.214   7.027 -0.5533  0.6521 -0.7161
    1MOL0     O   35   9.816   5.219   6.996 -0.0652 -0.0879  0.0343
    1MOL0     C   36   9.878   5.110   6.938  0.3457  0.0392  0.4371
    1MOL0     C   37  10.014   5.146   6.884 -0.2674  0.6091 -0.1220
    1MOL0     C   38  10.103   5.200   7.000 -0.5681  0.1393  0.5145
    1MOL0     C   39  10.249   5.208   6.949 -0.6305 -0.4903 -0.1040
    1MOL0     C   40  10.348   5.299   7.038 -0.1694 -0.5128  0.6355
    1MOL0     C   41  10.321   5.447   7.016  0.0428  0.1087  0.3335
    1MOL0     C   42  10.391   5.555   7.105 -0.4123  1.5068  0.4094
    1MOL0     C   43  10.346   5.700   7.073 -0.2423 -0.7551  0.3735
    1MOL0    Cl   44  10.344   5.727   6.894 -0.2231  0.1029 -0.2904
    1MOL0     C   45   9.613   5.334   7.041  0.0731 -0.4801 -1.0477
    1MOL0     C   46   9.481   5.347   7.083  1.7157 -0.4239 -0.1668
    1MOL0     O   47   9.317   5.405   7.304  0.1531  0.0141  0.2093
    1MOL0     C   48   9.010   5.219   7.214 -0.7080 -0.8160 -0.6650
    1MOL0     C   49   8.884   5.203   7.257 -0.4231  0.3745 -0.9791
    1MOL0     N   50   8.214   5.266   7.268  0.2355 -0.0729 -0.4681
    1MOL0     N   51   8.111   5.238   7.199  0.2615  0.2108  0.4443
    1MOL0     C   52   6.812   5.470   7.493 -0.3575 -0.5469 -0.7643
    1MOL0     C   53   6.677   5.474   7.540  0.6002  0.0048  0.6909
    1MOL0     C   54   6.271   5.393   7.634 -0.7099 -0.2423 -0.2669
    1MOL0     C   55   6.253   5.348   7.775 -0.7296 -0.4983  0.1832
    1MOL0     C   56   6.130   5.367   7.838  0.1130  0.2680  0.3720
    1MOL0     C   57   6.025   5.414   7.761  0.3780 -0.3181  0.1806
    1MOL0     O   58   5.906   5.411   7.826 -0.3346  0.1214 -0.2159
    1MOL0     C   59   5.824   5.519   7.794 -0.0691  0.2532  0.7230
    1MOL0     C   60   5.733   5.550   7.907 -0.2698  0.2455  0.1233
    1MOL0     C   61   5.639   5.666   7.872 -0.7677  0.2136  0.2333
    1MOL0     C   62   5.706   5.792   7.808  0.0244  0.0108 -0.3607
    1MOL0     C   63   5.818   5.843   7.899  0.7212 -0.1914 -0.2899
    1MOL0     C   64   5.912   5.882   7.968  0.4287  0.0464  0.0135
    1MOL0     C   65   6.040   5.452   7.625  0.4279 -0.0458 -0.5653
    1MOL0     C   66   6.156   5.441   7.559 -0.1564  0.2470 -0.6375
    1MOL0     C   67   6.163   5.497   7.416 -0.6160 -0.5941  0.0325
    1MOL0     H   68   6.664   5.178   7.693  3.0292 -0.4627  1.2309
    1MOL0     H   69   6.906   5.171   7.626 -0.6775 -1.5262 -1.2404
    1MOL0     H   70   6.964   5.394   7.288 -0.1765 -3.9280 -0.2301
    1MOL0     H   71   7.083   5.506   7.360 -0.7695 -0.3353  0.9709
    1MOL0     H   72   7.183   5.342   7.181  0.5496 -0.2200  0.4835
    1MOL0     H   73   7.134   5.207   7.286  1.9041 -0.6963  2.0148
    1MOL0     H   74   7.297   5.241   7.451  1.6970 -2.4705 -2.0915
    1MOL0     H   75   7.314   5.410   7.397 -1.0288 -0.1715 -0.4949
    1MOL0     H   76   7.383   5.179   7.217  1.6634 -0.0942 -0.8725
    1MOL0     H   77   7.427   5.346   7.203  0.7086 -0.4074 -0.5087
    1MOL0     H   78   7.573   5.335   7.412 -1.7427  0.4176 -0.8915
    1MOL0     H   79   7.517   5.170   7.433 -0.5676  1.3166  1.2289
    1MOL0     H   80   7.631   5.109   7.215  0.4071 -0.6708  1.6955
    1MOL0     H   81   7.681   5.283   7.192 -1.9857  0.8914 -1.5662
    1MOL0     H   82   7.761   5.107   7.420 -2.1733 -0.6374 -0.4889
    1MOL0     H   83   7.824   5.269   7.389 -1.1920 -0.1646  0.9358
    1MOL0     H   84   7.864   5.034   7.209  2.9979  0.0108  0.9845
    1MOL0     H   85   7.885   5.203   7.143 -0.0161 -0.9468 -0.5309
    1MOL0     H   86   8.040   5.077   7.476  2.1623  0.3892  1.5686
    1MOL0     H   87   8.225   5.234   7.578 -0.5764  1.1731 -1.1513
    1MOL0     H   88   8.320   5.091   7.534  0.1428 -0.1593 -0.3733
    1MOL0     H   89   8.434   5.302   7.387  1.3863 -1.3015 -0.1241
    1MOL0     H   90   8.385   5.388   7.536  1.2053 -0.8257  1.1063
    1MOL0     H   91   8.551   5.132   7.553  0.5513 -0.1345 -0.5350
    1MOL0     H   92   8.519   5.274   7.669  1.0128  1.9105  0.0675
    1MOL0     H   93   8.731   5.302   7.583 -0.6788  3.3730  0.6692
    1MOL0     H   94   8.644   5.416   7.488 -0.4725 -0.1057 -2.0058
    1MOL0     H   95   8.884   5.428   7.521 -1.3415 -0.0347 -0.1977
    1MOL0     H   96   9.123   5.442   7.444  2.2120 -0.1022 -1.9446
    1MOL0     H   97   9.409   5.021   7.123  0.4053  0.3281 -0.2779
    1MOL0     H   98   9.639   4.991   7.034  1.7145  0.1306  1.3425
    1MOL0     H   99   9.898   5.034   7.015  3.0535  0.8155  0.6132
    1MOL0     H  100   9.819   5.072   6.854 -0.7097  3.0833 -0.2953
    1MOL0     H  101  10.052   5.053   6.841 -2.8000 -0.6004  0.1370
    1MOL0     H  102  10.012   5.219   6.802  0.5225  2.0001  1.0310
    1MOL0     H  103  10.062   5.297   7.031 -0.6040  1.0340 -2.0613
    1MOL0     H  104  10.107   5.132   7.086  1.4224 -0.4843 -0.0129
    1MOL0     H  105  10.245   5.240   6.845 -0.1615 -1.3569 -0.4003
    1MOL0     H  106  10.289   5.106   6.948 -1.4133 -0.8243  0.8370
    1MOL0     H  107  10.450   5.277   7.004 -0.1311 -1.7838  1.5129
    1MOL0     H  108  10.327   5.272   7.142 -0.6693 -5.0052 -0.4292
    1MOL0     H  109  10.353   5.461   6.913  0.7218  0.0860  0.5378
    1MOL0     H  110  10.214   5.470   7.020 -0.3218 -1.4367  0.1673
    1MOL0     H  111  10.496   5.531   7.086 -1.0076 -2.1929  0.9175
    1MOL0     H  112  10.380   5.532   7.212  1.3636 -1.0530  0.1471
    1MOL0     H  113  10.242   5.718   7.103  0.2970  1.9780  0.8011
    1MOL0     H  114  10.407   5.779   7.117 -3.9875  2.4662  0.3060
    1MOL0     H  115   9.665   5.429   7.034 -1.9690  0.7454 -0.6445
    1MOL0     H  116   9.441   5.447   7.096  1.4054 -0.6560  0.6939
    1MOL0     H  117   9.045   5.173   7.122  1.3695  0.7628 -0.7338
    1MOL0     H  118   8.816   5.141   7.199  0.3273 -1.4674  0.0235
    1MOL0     H  119   6.842   5.566   7.453  0.0682  1.9335  4.6085
    1MOL0     H  120   6.615   5.562   7.526  3.2843  2.1239  1.2604
    1MOL0     H  121   6.336   5.296   7.822 -1.3272 -1.9792 -0.3607
    1MOL0     H  122   6.122   5.327   7.939 -0.4297  1.0211  0.6348
    1MOL0     H  123   5.764   5.490   7.708  1.1691  2.3577 -0.9427
    1MOL0     H  124   5.879   5.609   7.764  0.9386 -0.6349 -0.1546
    1MOL0     H  125   5.787   5.581   7.996 -1.4878  1.4161  0.4932
    1MOL0     H  126   5.674   5.466   7.944 -3.3011  3.1457  2.4518
    1MOL0     H  127   5.577   5.700   7.955  2.9923 -0.0804  3.4342
    1MOL0     H  128   5.573   5.616   7.800 -0.2263 -0.4585  0.1984
    1MOL0     H  129   5.750   5.767   7.711  0.8594 -1.4758  0.3616
    1MOL0     H  130   5.637   5.876   7.798  0.0571  0.2373  1.0829
    1MOL0     H  131   5.995   5.904   8.032  0.1929  2.3189 -0.3779
    1MOL0     H  132   5.957   5.501   7.575 -1.0691  0.3145  2.1078
    1MOL0     H  133   6.140   5.423   7.339 -0.3364 -0.2165 -0.4248
    1MOL0     H  134   6.098   5.583   7.400 -1.0243 -0.7550  0.7777
    1MOL0     H  135   6.266   5.529   7.398 -0.3015 -1.9828 -0.7731
    2MOL0     O  136   9.126   8.375   9.886 -0.1177 -0.6045  0.0607
    2MOL0     C  137   9.017   8.431   9.893 -0.0933 -0.1341 -0.0400
    2MOL0     O  138   8.999   8.552   9.941  0.4832  0.3771  0.1128
    2MOL0     C  139   9.094   8.643   9.971 -0.4318  0.3778 -0.1481
    2MOL0     C  140   9.240   8.633   9.960  0.5044 -1.1371 -0.2284
    2MOL0     C  141   9.323   8.742   9.990 -0.0560 -0.1847  0.1738
    2MOL0     C  142   9.267   8.865  10.013  0.5364 -0.6226 -0.1577
    2MOL0     O  143   9.330   8.991  10.024  0.1195 -0.7642 -0.3409
    2MOL0     C  144   9.455   9.018   9.959  0.0522  0.5067  0.5127
    2MOL0     C  145   9.519   9.134  10.015  0.2319  0.7588 -0.1280
    2MOL0     C  146   9.654   9.146   9.952 -0.2340  0.4183 -0.9645
    2MOL0     C  147   9.771   9.100  10.046 -0.6360 -0.1475 -0.0061
    2MOL0     C  148   9.905   9.118   9.975 -0.8095 -0.6768 -0.2277
    2MOL0     C  149  10.013   9.051  10.062  0.1413  0.7482  0.2510
    2MOL0     C  150  10.159   9.082  10.028  0.0466  0.0624 -0.3256
    2MOL0     C  151  10.255   9.032  10.130  0.5981  0.8571 -0.3452
    2MOL0     N  152  10.395   9.049  10.090  0.0127 -0.2496  0.1679
    2MOL0     C  153  10.447   9.155  10.017  1.6193  0.5183 -0.1078
    2MOL0     C  154  10.580   9.142  10.022 -0.3924  0.0586  0.0069
    2MOL0     C  155  10.688   9.234   9.967 -0.1682 -0.5757 -0.4774
    2MOL0     C  156  10.782   9.262  10.085  0.5083  0.3096  0.0691
    2MOL0     C  157  10.826   9.410  10.089  0.4361  0.4781 -0.7533
    2MOL0     C  158  10.920   9.448  10.207 -0.1381 -0.6003  1.1062
    2MOL0     O  159  10.965   9.583  10.187  0.1780 -0.0166  0.4028
    2MOL0     C  160  11.050   9.635  10.283 -0.5426  0.6100  0.2808
    2MOL0     C  161  11.075   9.782  10.273  0.4369 -1.0139  0.1680
    2MOL0     C  162  11.155   9.847  10.373  0.0971  0.7350  1.1466
    2MOL0     C  163  11.221   9.765  10.466 -0.6756 -0.7382 -0.6249
    2MOL0     C  164  11.306   9.833  10.569  0.2318 -0.3405 -0.2567
    2MOL0     O  165  11.338   9.760  10.675 -0.6879  0.0004 -1.3274
    2MOL0     C  166  11.453   9.787  10.744 -0.6116 -0.3998  0.0394
    2MOL0     C  167  11.442   9.750  10.876  0.3299 -0.7268  0.7338
    2MOL0     C  168  11.554   9.772  10.964  0.0395  1.3933  0.6791
    2MOL0     C  169  11.673   9.822  10.915 -0.3155  0.3666  0.1556
    2MOL0     O  170  11.786   9.837  10.981  0.1819 -0.4951  0.4373
    2MOL0     C  171  11.780   9.877  11.116 -0.4182  1.2037  0.9051
    2MOL0     C  172  11.920   9.871  11.181  0.4951  0.7091 -0.8131
    2MOL0     C  173  11.917   9.904  11.334  0.1540 -0.1598 -0.8327
    2MOL0     C  174  12.056   9.928  11.388  1.1069  0.7282 -0.5164
    2MOL0     C  175  12.061   9.926  11.532 -0.1815 -0.6136 -0.9839
    2MOL0     C  176  12.017   9.796  11.593  1.5594  0.1184 -0.0005
    2MOL0     C  177  12.085   9.778  11.724  0.3872 -0.7717 -1.5094
    2MOL0     C  178  12.052   9.889  11.826  0.8597  0.1001  0.1400
    2MOL0    Cl  179  12.146   9.882  11.974  0.1726  0.3519  0.0040
    2MOL0     C  180  11.687   9.857  10.782 -0.1894  0.6873 -0.1888
    2MOL0     C  181  11.579   9.839  10.694  0.3463  0.2009  0.2873
    2MOL0     O  182  11.339   9.951  10.560 -0.0826  0.2744  0.0593
    2MOL0     C  183  11.215   9.625  10.461 -0.8400 -0.1653  0.5424
    2MOL0     C  184  11.135   9.560  10.371 -0.2477 -0.6354  0.3960
    2MOL0     N  185  10.606   9.020  10.073 -0.4352  0.5802 -0.7114
    2MOL0     N  186  10.494   8.967  10.118  0.5140  0.1862 -0.7197
    2MOL0     C  187   9.126   8.865  10.027  0.0742  0.6231  0.3615
    2MOL0     C  188   9.039   8.755  10.012  0.0924 -0.5759  0.3901
    2MOL0     C  189   8.891   8.359   9.867  0.2816 -0.1700  0.8436
    2MOL0     C  190   8.766   8.413   9.918 -0.2375  0.4195 -0.6734
    2MOL0     C  191   8.644   8.353   9.895 -0.3668 -0.1894  0.8384
    2MOL0     C  192   8.635   8.228   9.829  0.2342  0.3647 -0.3493
    2MOL0     O  193   8.513   8.162   9.829  0.0813 -0.0838 -0.1875
    2MOL0     C  194   8.486   8.062   9.734  1.0164  0.6196  0.5719
    2MOL0     C  195   8.479   8.095   9.581  0.4162 -0.2360 -0.0426
    2MOL0     C  196   8.384   8.203   9.543 -0.6630 -0.5400 -0.1465
    2MOL0     C  197   8.341   8.186   9.398 -0.3747  0.3202 -0.1425
    2MOL0     C  198   8.453   8.180   9.304 -0.6283  0.6208 -0.0157
    2MOL0     C  199   8.548   8.188   9.229 -0.1424 -0.7096  1.0790
    2MOL0     C  200   8.756   8.177   9.769 -0.1949  0.3789  0.1893
    2MOL0     C  201   8.885   8.239   9.793 -0.6459  0.6090  0.5055
    2MOL0     C  202   9.004   8.178   9.713 -0.6078  0.4229  1.0312
    2MOL0     H  203   9.284   8.540   9.925 -0.2013 -2.6594  2.6596
    2MOL0     H  204   9.430   8.736   9.973 -0.4188  1.0675 -3.6130
    2MOL0     H  205   9.521   8.939   9.995  0.1907  1.6555  3.0123
    2MOL0     H  206   9.458   9.024   9.850  2.2023  0.1835  0.5130
    2MOL0     H  207   9.526   9.127  10.123 -1.2624  0.3745 -0.0337
    2MOL0     H  208   9.468   9.229  10.004  1.4841  1.6435  1.2962
    2MOL0     H  209   9.674   9.253   9.942  1.3194  0.3922  1.1871
    2MOL0     H  210   9.655   9.097   9.854  2.0067 -1.0262 -0.2977
    2MOL0     H  211   9.771   9.158  10.138 -0.6676  1.1047 -0.7815
    2MOL0     H  212   9.759   8.992  10.060 -0.3257 -0.3641 -1.2559
    2MOL0     H  213   9.903   9.081   9.872 -1.8499 -2.3618  0.3611
    2MOL0     H  214   9.932   9.224   9.978  1.7806 -1.2870 -0.1543
    2MOL0     H  215  10.004   9.073  10.169  2.9647  0.8840  0.5333
    2MOL0     H  216   9.993   8.946  10.037  0.9763  0.9308 -1.2881
    2MOL0     H  217  10.176   9.190  10.028 -1.0379  0.2477 -0.6088
    2MOL0     H  218  10.179   9.047   9.927  2.4261  1.4209 -0.4023
    2MOL0     H  219  10.240   9.087  10.223 -0.2536  0.8201 -0.4521
    2MOL0     H  220  10.246   8.924  10.145 -0.3938  0.5463 -2.7901
    2MOL0     H  221  10.384   9.232   9.973  1.9642  0.1389 -1.2998
    2MOL0     H  222  10.734   9.194   9.876  0.7059  0.2295 -0.4034
    2MOL0     H  223  10.638   9.322   9.927  1.9713  1.2777  0.7045
    2MOL0     H  224  10.740   9.240  10.183 -1.6983 -1.7182 -1.2033
    2MOL0     H  225  10.878   9.212  10.067  0.7852  1.2251 -1.1305
    2MOL0     H  226  10.736   9.472  10.091 -1.1603 -1.7579  0.0413
    2MOL0     H  227  10.877   9.433   9.995 -2.9365 -2.5373 -3.6080
    2MOL0     H  228  11.004   9.378  10.201  1.1056  0.9368 -0.3830
    2MOL0     H  229  10.868   9.440  10.303 -0.5844 -0.8856  0.8480
    2MOL0     H  230  11.034   9.850  10.199  2.1074  0.0931  0.2183
    2MOL0     H  231  11.173   9.954  10.379 -3.4442  1.3964  4.9569
    2MOL0     H  232  11.344   9.730  10.918 -1.1203  1.3217 -1.4025
    2MOL0     H  233  11.537   9.750  11.069 -2.0214 -0.0858  0.0873
    2MOL0     H  234  11.728   9.974  11.118  0.9514  1.9656  0.7504
    2MOL0     H  235  11.715   9.799  11.156  0.7544 -2.6698 -3.7855
    2MOL0     H  236  11.947   9.765  11.181  0.3938  0.6588  0.8246
    2MOL0     H  237  11.990   9.935  11.126 -1.4572  3.2301 -0.5838
    2MOL0     H  238  11.852   9.991  11.338 -0.0662 -0.3174 -0.9758
    2MOL0     H  239  11.863   9.824  11.385 -1.0316  0.8387 -0.4782
    2MOL0     H  240  12.094  10.026  11.360  1.9096  0.5939  0.0699
    2MOL0     H  241  12.119   9.845  11.357 -0.7497 -3.2728  4.8848
    2MOL0     H  242  11.985   9.993  11.572 -1.4070 -1.5202 -1.7301
    2MOL0     H  243  12.164   9.960  11.549  0.0323 -2.1678  1.2818
    2MOL0     H  244  11.909   9.788  11.604  1.4968 -0.6818 -1.0557
    2MOL0     H  245  12.045   9.713  11.527  0.4991  0.0523 -0.3708
    2MOL0     H  246  12.193   9.768  11.709  0.6373 -0.2051 -0.2420
    2MOL0     H  247  12.043   9.689  11.771 -2.3961  0.6741 -1.0153
    2MOL0     H  248  12.059   9.991  11.789 -1.7660 -0.2772 -1.6698
    2MOL0     H  249  11.949   9.860  11.849  1.0249 -0.1847  0.5460
    2MOL0     H  250  11.779   9.898  10.742  0.4166  0.6174  1.1024
    2MOL0     H  251  11.593   9.860  10.589  1.0042  1.7927  0.6592
    2MOL0     H  252  11.289   9.570  10.518 -1.1731 -0.5400  0.6204
    2MOL0     H  253  11.151   9.457  10.343  1.5486 -0.1575 -0.4602
    2MOL0     H  254   9.076   8.952  10.068  0.1039  0.6808  0.2758
    2MOL0     H  255   8.932   8.764  10.027  0.0167 -0.0573 -0.4154
    2MOL0     H  256   8.761   8.506   9.973 -2.1380  0.7582 -1.3444
    2MOL0     H  257   8.560   8.415   9.922  0.1444  2.5758 -3.0559
    2MOL0     H  258   8.386   8.030   9.765  1.2501  1.2133  2.0148
    2MOL0     H  259   8.561   7.983   9.742  0.0272 -0.6234 -1.4194
    2MOL0     H  260   8.471   7.998   9.530  0.5992 -0.6654  0.7317
    2MOL0     H  261   8.577   8.139   9.563 -0.4725  1.9878  0.2167
    2MOL0     H  262   8.444   8.294   9.557  2.3999 -2.4748  0.1261
    2MOL0     H  263   8.301   8.204   9.614 -0.3689 -0.0330  0.2005
    2MOL0     H  264   8.275   8.102   9.376  1.0895 -0.3333 -2.2685
    2MOL0     H  265   8.291   8.279   9.369  1.5049  1.4080 -0.0914
    2MOL0     H  266   8.632   8.177   9.164 -0.0461 -1.9706  1.3902
    2MOL0     H  267   8.762   8.085   9.712 -0.6303 -0.6142  1.6698
    2MOL0     H  268   8.956   8.142   9.622  0.3227  1.1296  0.2511
    2MOL0     H  269   9.083   8.245   9.677  2.1012 -1.9935  2.0972
    2MOL0     H  270   9.042   8.088   9.763  0.6319  1.0666  1.2897
    3MOL0     O  271   0.914   6.898   1.410  0.1392 -0.6933  0.2418
    3MOL0     C  272   0.900   6.920   1.526 -0.2354  0.3990 -0.4397
    3MOL0     O  273   0.991   6.986   1.599 -0.3175 -0.0124 -0.4237
    3MOL0     C  274   1.100   7.059   1.541  0.9135 -0.2203 -0.6397
    3MOL0     C  275   1.141   7.166   1.631  0.4920  0.0893 -0.3222
    3MOL0     C  276   1.246   7.254   1.594 -0.5984  0.9124 -0.2973
    3MOL0     C  277   1.313   7.230   1.471 -0.4399 -0.5472  0.7577
    3MOL0     O  278   1.405   7.313   1.413  0.2444 -0.4415  0.5892
    3MOL0     C  279   1.444   7.433   1.485  0.0239 -0.0070 -0.1774
    3MOL0     C  280   1.542   7.402   1.600 -0.0692 -0.7763 -0.0823
    3MOL0     C  281   1.662   7.302   1.562  0.1327 -0.3972  0.1599
    3MOL0     C  282   1.767   7.286   1.669 -0.2956 -0.4254  0.0218
    3MOL0     C  283   1.899   7.210   1.627  0.3334  0.4160  0.2091
    3MOL0     C  284   1.996   7.205   1.747 -0.0725  0.4372  0.8912
    3MOL0     C  285   2.127   7.135   1.709 -0.3040 -0.3868  0.1941
    3MOL0     C  286   2.232   7.240   1.658 -0.0400  0.0512 -0.4178
    3MOL0     N  287   2.350   7.161   1.625  0.2327 -0.5344 -0.2857
    3MOL0     C  288   2.439   7.112   1.717 -0.2485  0.0877  0.6083
    3MOL0     C  289   2.542   7.064   1.640 -0.3315  0.6996 -0.1243
    3MOL0     C  290   2.663   7.004   1.700 -0.3995 -0.1303 -0.2697
    3MOL0     C  291   2.750   7.118   1.757 -0.4319  0.6429  0.5367
    3MOL0     C  292   2.789   7.233   1.655 -0.2042  0.1732 -0.5956
    3MOL0     C  293   2.931   7.284   1.683  0.4661 -0.0716 -0.1912
    3MOL0     O  294   3.029   7.184   1.638 -0.2307 -0.6032 -0.2177
    3MOL0     C  295   3.161   7.224   1.630 -1.4182 -0.6711  0.6207
    3MOL0     C  296   3.221   7.333   1.695  0.0260 -0.1123 -0.1416
    3MOL0     C  297   3.362   7.361   1.678  0.4428  0.3877  0.4073
    3MOL0     C  298   3.445   7.288   1.596  0.4887 -0.3018 -0.5813
    3MOL0     C  299   3.581   7.336   1.558 -0.2742  0.5548  0.4943
    3MOL0     O  300   3.645   7.258   1.471 -0.3314  0.4456 -0.2978
    3MOL0     C  301   3.778   7.268   1.447 -0.1038  0.2638 -0.2228
    3MOL0     C  302   3.833   7.254   1.317  0.5184  0.4916 -0.4578
    3MOL0     C  303   3.977   7.265   1.302  0.4345  0.2507  0.0676
    3MOL0     C  304   4.066   7.289   1.406  0.7351 -0.1515  0.8461
    3MOL0     O  305   4.204   7.311   1.382  0.0272 -0.3036 -0.1279
    3MOL0     C  306   4.298   7.218   1.448 -0.2586  0.6827  0.3559
    3MOL0     C  307   4.437   7.292   1.445  0.0030  0.6004 -0.7020
    3MOL0     C  308   4.519   7.279   1.568  0.5242  0.7282  0.7323
    3MOL0     C  309   4.661   7.339   1.543  0.2195  0.0422  0.2426
    3MOL0     C  310   4.765   7.306   1.656  0.2088  0.6632 -0.4250
    3MOL0     C  311   4.903   7.359   1.627  0.4277  0.4157 -1.0097
    3MOL0     C  312   4.999   7.358   1.745 -1.0000 -0.1385  0.8386
    3MOL0     C  313   5.036   7.223   1.805 -0.7588 -0.2221 -0.2344
    3MOL0    Cl  314   5.102   7.118   1.681  0.1066  0.2560  0.2425
    3MOL0     C  315   4.014   7.310   1.527 -0.4740 -0.2597 -0.1441
    3MOL0     C  316   3.873   7.305   1.546 -0.2377 -0.2226 -0.0379
    3MOL0     O  317   3.618   7.445   1.596  0.1736 -0.8886 -0.2211
    3MOL0     C  318   3.386   7.173   1.540  0.7421  0.1731 -0.3221
    3MOL0     C  319   3.251   7.139   1.559  0.8268 -0.9322 -0.0872
    3MOL0     N  320   2.510   7.086   1.511 -0.2099 -0.3995  0.4422
    3MOL0     N  321   2.397   7.143   1.496 -0.0181  0.4368 -0.3014
    3MOL0     C  322   1.274   7.120   1.390  0.2358 -0.6582 -0.1111
    3MOL0     C  323   1.164   7.039   1.425 -0.7284 -0.7239 -0.0191
    3MOL0     C  324   0.770   6.887   1.601 -0.5540  0.4421 -0.3899
    3MOL0     C  325   0.773   6.895   1.740  0.5156 -0.2405 -0.7367
    3MOL0     C  326   0.659   6.861   1.819  0.0597  0.0037 -0.0802
    3MOL0     C  327   0.545   6.801   1.760  0.1700 -0.3067 -0.6124
    3MOL0     O  328   0.457   6.766   1.855 -0.1061  0.5291 -0.0886
    3MOL0     C  329   0.347   6.679   1.837  0.6527 -0.3335  0.3434
    3MOL0     C  330   0.210   6.752   1.822  0.3352 -0.1088  0.4627
    3MOL0     C  331   0.161   6.820   1.954  0.4689 -0.1633 -0.2608
    3MOL0     C  332   0.097   6.732   2.064  0.0907  0.1934  1.3130
    3MOL0     C  333  -0.026   6.669   2.009 -0.4921  0.0605 -0.3265
    3MOL0     C  334  -0.130   6.621   1.966  0.6855 -0.1656  0.0913
    3MOL0     C  335   0.541   6.785   1.623 -0.4874  0.4367 -0.1754
    3MOL0     C  336   0.654   6.822   1.541 -0.4775  0.1652 -0.4822
    3MOL0     C  337   0.646   6.795   1.393 -0.8556  0.2198  0.0642
    3MOL0     H  338   1.097   7.178   1.730  3.0615 -0.3181  0.9649
    3MOL0     H  339   1.275   7.343   1.650  2.8719 -0.8600  1.0277
    3MOL0     H  340   1.495   7.501   1.415 -0.0455  1.0256  0.7347
    3MOL0     H  341   1.357   7.480   1.531 -2.0447 -2.3630 -1.4787
    3MOL0     H  342   1.482   7.354   1.678  0.6704  0.1295  1.0881
    3MOL0     H  343   1.594   7.488   1.642  1.0672 -1.2833 -0.4003
    3MOL0     H  344   1.708   7.338   1.470 -0.5082 -2.1740 -0.8970
    3MOL0     H  345   1.612   7.207   1.542  0.8694 -0.4610 -1.5831
    3MOL0     H  346   1.808   7.386   1.689  0.5902 -1.0907  1.6690
    3MOL0     H  347   1.724   7.245   1.761 -0.3871  0.1769  0.2577
    3MOL0     H  348   1.866   7.110   1.597 -1.4020  1.3464 -1.1701
    3MOL0     H  349   1.941   7.259   1.539  0.0979 -2.2529 -1.5017
    3MOL0     H  350   2.011   7.311   1.768  0.3878  0.8414 -1.2668
    3MOL0     H  351   1.949   7.151   1.830  0.3693 -1.2730  0.0701
    3MOL0     H  352   2.117   7.051   1.640  0.7212 -2.5652  2.5464
    3MOL0     H  353   2.154   7.091   1.805 -1.6290  0.5861  1.0599
    3MOL0     H  354   2.195   7.295   1.571 -1.8205 -0.4349 -0.0231
    3MOL0     H  355   2.247   7.308   1.743 -1.9584 -1.2773  1.0986
    3MOL0     H  356   2.420   7.116   1.823 -4.8604 -0.5683  0.0514
    3MOL0     H  357   2.621   6.939   1.778  0.0526  0.9213  0.8733
    3MOL0     H  358   2.722   6.945   1.629 -2.0201 -1.8283 -0.2839
    3MOL0     H  359   2.702   7.173   1.838  0.1494  3.5482 -0.9565
    3MOL0     H  360   2.837   7.069   1.802 -1.9995 -3.0471 -0.1120
    3MOL0     H  361   2.718   7.316   1.661  1.2380  1.3717  0.8774
    3MOL0     H  362   2.787   7.200   1.551  0.7230 -0.7114 -0.3394
    3MOL0     H  363   2.948   7.304   1.789 -1.6211 -0.2409  0.2213
    3MOL0     H  364   2.932   7.383   1.635 -2.2247 -0.6769 -1.6924
    3MOL0     H  365   3.163   7.397   1.760  2.0062  0.3525  1.2462
    3MOL0     H  366   3.412   7.447   1.722  1.8062 -1.0757  1.8912
    3MOL0     H  367   3.766   7.228   1.236  0.0926 -0.5334  0.1969
    3MOL0     H  368   4.015   7.236   1.205 -1.5438 -1.0343 -0.3603
    3MOL0     H  369   4.251   7.200   1.546  1.8864 -1.1627  1.1284
    3MOL0     H  370   4.311   7.119   1.405  0.8813  1.3137 -0.8085
    3MOL0     H  371   4.497   7.250   1.364  0.3308 -1.3841  0.5229
    3MOL0     H  372   4.408   7.398   1.441 -2.9871  0.3022  4.1961
    3MOL0     H  373   4.470   7.327   1.653  0.9518 -1.6466  2.4245
    3MOL0     H  374   4.532   7.177   1.604  0.5721  0.8915  1.1988
    3MOL0     H  375   4.640   7.446   1.543 -0.7867 -0.1025 -2.2048
    3MOL0     H  376   4.698   7.310   1.445  1.1935 -0.0921  0.6382
    3MOL0     H  377   4.774   7.197   1.651 -0.3459  0.6580 -1.5401
    3MOL0     H  378   4.732   7.349   1.752  1.5849  0.0809  0.3442
    3MOL0     H  379   4.960   7.316   1.544  0.2217  0.5726 -1.2358
    3MOL0     H  380   4.888   7.465   1.607  0.7157  0.7382  0.4030
    3MOL0     H  381   4.965   7.428   1.822  0.0918  0.2811  0.9562
    3MOL0     H  382   5.089   7.401   1.700 -0.5003 -3.0914 -1.3325
    3MOL0     H  383   5.114   7.235   1.881  0.4807 -0.0409 -1.4881
    3MOL0     H  384   4.952   7.177   1.858 -1.0829 -0.3639 -0.8581
    3MOL0     H  385   4.084   7.347   1.602 -0.8099  2.1485 -0.9532
    3MOL0     H  386   3.829   7.330   1.642 -2.2847  3.5101 -1.7390
    3MOL0     H  387   3.447   7.099   1.488  0.2936 -1.0844  0.8985
    3MOL0     H  388   3.212   7.051   1.509 -0.2340 -1.5489  1.7109
    3MOL0     H  389   1.329   7.097   1.300  1.0613 -0.7753  0.4153
    3MOL0     H  390   1.134   6.956   1.361  0.0442 -0.0278 -1.3203
    3MOL0     H  391   0.866   6.922   1.788  2.1247 -0.8562 -3.3498
    3MOL0     H  392   0.664   6.878   1.926 -0.9617 -0.7585  0.1107
    3MOL0     H  393   0.334   6.601   1.912  0.5195  0.7951  1.5254
    3MOL0     H  394   0.353   6.609   1.753 -4.7729 -1.5647  0.6456
    3MOL0     H  395   0.134   6.683   1.787 -2.4813  2.9522  0.0812
    3MOL0     H  396   0.233   6.833   1.752  3.8297 -1.2213  0.1380
    3MOL0     H  397   0.092   6.899   1.922  1.2179  1.7183  2.4059
    3MOL0     H  398   0.249   6.863   2.004  0.5888 -1.2782  0.5240
    3MOL0     H  399   0.171   6.659   2.098  1.6707  0.6374 -0.9243
    3MOL0     H  400   0.070   6.795   2.149 -0.2736 -0.3615  1.6119
    3MOL0     H  401  -0.219   6.571   1.935  1.0695 -0.5117 -0.4852
    3MOL0     H  402   0.455   6.729   1.588 -0.4033  0.2832 -0.1382
    3MOL0     H  403   0.670   6.877   1.325 -1.9392 -0.8103 -1.6575
    3MOL0     H  404   0.712   6.710   1.369  0.8308  1.2688  0.8340
    3MOL0     H  405   0.545   6.756   1.376  0.0354 -2.0862 -0.2953
    4MOL0     O  406   4.247  10.870  10.291  0.2177  0.2675 -1.0070
    4MOL0     C  407   4.167  10.776  10.314 -0.1188 -0.7193 -0.4947
    4MOL0     O  408   4.202  10.647  10.366 -0.4387 -0.0274  0.3845
    4MOL0     C  409   4.337  10.634  10.388 -0.2629  0.1512  0.0549
    4MOL0     C  410   4.430  10.590  10.292  0.1609 -0.2756  0.2742
    4MOL0     C  411   4.563  10.577  10.332  0.2834  0.0574 -0.5902
    4MOL0     C  412   4.611  10.618  10.457 -0.1068  0.2703  0.0704
    4MOL0     O  413   4.747  10.619  10.475  0.7994 -0.5225 -0.5058
    4MOL0     C  414   4.789  10.625  10.614 -0.5438 -0.6008 -0.0284
    4MOL0     C  415   4.945  10.598  10.632  0.5202 -0.9316 -0.0084
    4MOL0     C  416   5.023  10.715  10.570 -0.4187  0.3074 -0.7544
    4MOL0     C  417   5.166  10.683  10.595  0.2983 -0.7542  0.1194
    4MOL0     C  418   5.249  10.783  10.521 -0.5394 -0.0328 -0.2829
    4MOL0     C  419   5.393  10.729  10.542  0.0001 -1.0038  0.4833
    4MOL0     C  420   5.487  10.834  10.472  0.0748 -0.2433  0.3390
    4MOL0     C  421   5.620  10.768  10.437 -0.3887  0.4457  0.2770
    4MOL0     N  422   5.702  10.739  10.557  0.2334 -0.4643 -0.1237
    4MOL0     C  423   5.760  10.833  10.640  0.5358  0.2771 -0.0179
    4MOL0     C  424   5.829  10.766  10.727 -0.7319  0.5443  0.9413
    4MOL0     C  425   5.902  10.822  10.845 -0.2648 -0.5773  0.1156
    4MOL0     C  426   6.033  10.886  10.801  0.1293  0.3632 -0.3426
    4MOL0     C  427   6.148  10.778  10.799  0.4035 -0.0501 -0.9206
    4MOL0     C  428   6.269  10.850  10.729  0.1356  0.0044  0.2264
    4MOL0     O  429   6.346  10.740  10.685 -0.0084 -0.0777  0.3052
    4MOL0     C  430   6.475  10.787  10.653 -0.4683  0.0456  0.3663
    4MOL0     C  431   6.570  10.682  10.652 -0.7957 -0.3711  0.2850
    4MOL0     C  432   6.696  10.707  10.596  0.4004 -0.6506 -1.0014
    4MOL0     C  433   6.728  10.833  10.534  0.7585 -0.9248 -0.5000
    4MOL0     C  434   6.862  10.859  10.486  0.7231  0.2904 -0.7812
    4MOL0     O  435   6.888  10.988  10.456 -0.1701 -0.8256 -0.4283
    4MOL0     C  436   6.998  11.025  10.391  0.1434 -0.4422 -0.0870
    4MOL0     C  437   7.059  10.954  10.289 -0.7279 -0.2165 -0.1024
    4MOL0     C  438   7.177  11.006  10.225  0.6553 -0.3337  0.6150
    4MOL0     C  439   7.231  11.131  10.256 -0.4067  0.0842 -0.1269
    4MOL0     O  440   7.339  11.199  10.201  0.7087 -0.2685 -0.6929
    4MOL0     C  441   7.422  11.128  10.107 -0.2930  0.9131 -0.3018
    4MOL0     C  442   7.519  11.219  10.035  0.5467  0.9456 -0.3821
    4MOL0     C  443   7.633  11.272  10.124 -0.0948  0.4564 -0.6809
    4MOL0     C  444   7.743  11.352  10.051  0.7258 -0.1354 -0.0577
    4MOL0     C  445   7.880  11.353  10.125 -0.1514  0.4614 -0.3567
    4MOL0     C  446   7.985  11.451  10.059 -0.2231  0.5885  0.7149
    4MOL0     C  447   8.108  11.465  10.144 -0.4323  0.2228 -0.1711
    4MOL0     C  448   8.180  11.586  10.097 -0.3340 -0.3681 -0.1486
    4MOL0    Cl  449   8.350  11.569  10.158  0.2241 -0.0258  0.1768
    4MOL0     C  450   7.159  11.205  10.351 -0.6606  0.1247  0.6916
    4MOL0     C  451   7.048  11.149  10.413  0.1402 -0.4649  0.7230
    4MOL0     O  452   6.940  10.756  10.479  0.7717 -0.7006  0.1510
    4MOL0     C  453   6.632  10.940  10.545 -0.0294  0.5452  0.8275
    4MOL0     C  454   6.506  10.910  10.605  0.0147 -0.7361  0.6149
    4MOL0     N  455   5.812  10.632  10.708  0.1512  0.1818 -0.1183
    4MOL0     N  456   5.725  10.617  10.606 -0.6494  0.1069 -0.5725
    4MOL0     C  457   4.513  10.666  10.548  0.4849 -0.4979 -0.5347
    4MOL0     C  458   4.378  10.672  10.512 -0.4779 -0.1491  0.1701
    4MOL0     C  459   4.022  10.797  10.284  0.4450  0.5455  0.0942
    4MOL0     C  460   3.943  10.685  10.250  0.6847  0.2139  0.3647
    4MOL0     C  461   3.801  10.691  10.236  0.4889 -0.2323  0.0282
    4MOL0     C  462   3.738  10.819  10.258  0.4249  1.3070  0.5224
    4MOL0     O  463   3.605  10.823  10.227  0.0785  0.4919 -0.3825
    4MOL0     C  464   3.552  10.952  10.214 -0.2719  0.7277 -0.9166
    4MOL0     C  465   3.413  10.954  10.149  0.3984 -0.3302 -0.4709
    4MOL0     C  466   3.347  11.086  10.176  0.1755  0.1125 -0.2052
    4MOL0     C  467   3.216  11.099  10.107 -0.2290 -0.7926  0.8499
    4MOL0     C  468   3.171  11.238  10.095 -0.4004  0.3426 -0.3931
    4MOL0     C  469   3.136  11.353  10.084 -0.0869 -0.6323  0.0746
    4MOL0     C  470   3.817  10.927  10.299 -0.1644  0.2858 -0.6363
    4MOL0     C  471   3.949  10.913  10.320  0.1469  0.4694 -0.1746
    4MOL0     C  472   4.016  11.036  10.375  0.2416  0.7928 -0.8401
    4MOL0     H  473   4.399  10.554  10.195 -1.7531  1.5546  0.1323
    4MOL0     H  474   4.642  10.535  10.271  1.4266  0.0029  0.8705
    4MOL0     H  475   4.764  10.725  10.650 -0.7492  0.6351 -3.2908
    4MOL0     H  476   4.730  10.552  10.671 -1.7027 -0.3874 -0.9073
    4MOL0     H  477   4.966  10.497  10.595 -1.2801 -1.8791  1.3559
    4MOL0     H  478   4.951  10.600  10.742  0.5570  1.3526 -0.0102
    4MOL0     H  479   5.003  10.804  10.630 -1.1598 -0.0221 -0.5009
    4MOL0     H  480   5.006  10.725  10.462  0.3426 -0.5755 -0.9734
    4MOL0     H  481   5.186  10.686  10.703 -0.4792  0.0252  0.2563
    4MOL0     H  482   5.192  10.582  10.561  0.0026 -0.2043 -1.8643
    4MOL0     H  483   5.234  10.779  10.413  2.7652 -3.3135 -0.8488
    4MOL0     H  484   5.249  10.882  10.568  0.0340 -0.3162  0.3425
    4MOL0     H  485   5.430  10.721  10.645 -0.9420 -0.2554  0.8906
    4MOL0     H  486   5.412  10.642  10.478 -2.4233 -1.6136  0.5217
    4MOL0     H  487   5.502  10.916  10.542 -3.6169  1.3317 -0.4914
    4MOL0     H  488   5.448  10.871  10.377 -0.1053  2.0737  1.2650
    4MOL0     H  489   5.599  10.675  10.383 -1.6980  1.3103 -0.7754
    4MOL0     H  490   5.677  10.838  10.375 -2.7951  0.8636 -1.5950
    4MOL0     H  491   5.737  10.939  10.643 -2.1780 -0.2194 -0.7951
    4MOL0     H  492   5.839  10.895  10.896  0.5577 -0.7312  1.4040
    4MOL0     H  493   5.921  10.747  10.923  1.8417 -1.0960 -0.8262
    4MOL0     H  494   6.017  10.938  10.706 -2.1730 -1.0405 -0.7963
    4MOL0     H  495   6.060  10.955  10.881  0.6833  1.6177 -1.5789
    4MOL0     H  496   6.121  10.693  10.735 -1.1311  0.3895 -0.8698
    4MOL0     H  497   6.160  10.748  10.904 -1.7614  1.5776 -0.1447
    4MOL0     H  498   6.317  10.918  10.799 -0.8731 -1.1413  2.1243
    4MOL0     H  499   6.228  10.906  10.645 -0.1275 -0.5707 -0.0381
    4MOL0     H  500   6.545  10.581  10.685  1.5961 -1.0397  0.2775
    4MOL0     H  501   6.768  10.626  10.606 -0.4375 -1.3959 -0.9351
    4MOL0     H  502   7.013  10.857  10.272 -0.1069 -1.0808  2.6377
    4MOL0     H  503   7.216  10.953  10.139 -0.1864  2.0978 -1.3820
    4MOL0     H  504   7.468  11.042  10.156 -1.8085  0.6332  0.6939
    4MOL0     H  505   7.354  11.080  10.036 -0.7036  0.5968  0.2940
    4MOL0     H  506   7.557  11.167   9.947  0.8590 -0.4318  0.5365
    4MOL0     H  507   7.466  11.311  10.007 -1.4576 -0.0658 -0.1243
    4MOL0     H  508   7.584  11.323  10.207 -0.5897 -3.3475  1.5802
    4MOL0     H  509   7.689  11.189  10.166  0.9944  1.4067 -0.1953
    4MOL0     H  510   7.710  11.452  10.024  0.4553 -0.4453 -0.9003
    4MOL0     H  511   7.761  11.298   9.957  0.9306 -0.9974  0.4573
    4MOL0     H  512   7.921  11.251  10.129 -1.1345  0.0893  0.5861
    4MOL0     H  513   7.856  11.387  10.225  1.0606  2.0657 -0.5621
    4MOL0     H  514   8.021  11.406   9.966 -0.6447  1.2345  0.2353
    4MOL0     H  515   7.945  11.552  10.047  0.2776  0.6730 -0.3470
    4MOL0     H  516   8.166  11.373  10.138 -3.0139 -1.4272 -1.7136
    4MOL0     H  517   8.075  11.490  10.246  0.0312 -1.5941  0.4504
    4MOL0     H  518   8.180  11.586   9.987 -1.5380  1.2569 -0.1757
    4MOL0     H  519   8.123  11.673  10.128  0.4274  0.6732 -1.5198
    4MOL0     H  520   7.195  11.298  10.394  1.4797  0.9916 -2.6364
    4MOL0     H  521   6.990  11.207  10.484  0.6911  1.3119 -0.2088
    4MOL0     H  522   6.658  11.041  10.517  2.1480  0.3229  1.8363
    4MOL0     H  523   6.432  10.990  10.601 -0.7341 -1.2808  2.5396
    4MOL0     H  524   4.532  10.706  10.647 -1.8393  2.5357 -1.1959
    4MOL0     H  525   4.308  10.718  10.581  2.3943  1.6261  2.1204
    4MOL0     H  526   3.992  10.590  10.234 -0.7664 -0.5419  0.2623
    4MOL0     H  527   3.745  10.601  10.212  1.6614 -0.6422 -1.2941
    4MOL0     H  528   3.620  11.003  10.145  1.1115 -1.1419 -1.0109
    4MOL0     H  529   3.551  11.002  10.311  3.2027 -0.7768  0.0640
    4MOL0     H  530   3.357  10.876  10.202 -0.7865 -0.1090 -1.3538
    4MOL0     H  531   3.420  10.933  10.042  1.4485  0.5893 -0.6023
    4MOL0     H  532   3.408  11.168  10.135 -1.4661  0.6285 -1.7287
    4MOL0     H  533   3.335  11.100  10.283 -0.0851  3.8925 -0.5678
    4MOL0     H  534   3.227  11.058  10.006 -0.9454  3.9606 -1.4539
    4MOL0     H  535   3.139  11.044  10.162 -0.6880  0.9448  2.0222
    4MOL0     H  536   3.105  11.453  10.058  3.6708  0.6321 -0.1518
    4MOL0     H  537   3.759  11.015  10.322 -2.4738 -1.1408 -0.7197
    4MOL0     H  538   3.944  11.083  10.443  0.1658  1.9846 -1.6905
    4MOL0     H  539   4.104  11.008  10.433 -0.5912 -2.6199 -1.0173
    4MOL0     H  540   4.050  11.097  10.290  0.7457 -0.9565 -1.9362
    5MOL0     O  541   8.496  11.115   2.575 -0.1708 -0.4849  0.2362
    5MOL0     C  542   8.377  11.100   2.545  0.3222  0.5927 -0.0499
    5MOL0     O  543   8.331  11.046   2.429 -0.2122 -0.2287  0.0237
    5MOL0     C  544   8.416  10.983   2.335  0.0093  0.5141  0.3708
    5MOL0     C  545   8.388  10.989   2.198 -0.1236  0.3576  0.4685
    5MOL0     C  546   8.473  10.934   2.099  0.1877 -0.9031 -0.1408
    5MOL0     C  547   8.591  10.869   2.139  0.1302  0.1874  0.3703
    5MOL0     O  548   8.682  10.817   2.051  0.3301  0.4310 -0.2871
    5MOL0     C  549   8.631  10.743   1.935 -0.5314  0.9275  0.3821
    5MOL0     C  550   8.748  10.668   1.875 -0.7406  0.4757 -0.4935
    5MOL0     C  551   8.827  10.582   1.982  0.1908 -0.4919  0.0060
    5MOL0     C  552   8.952  10.523   1.922 -0.2189 -0.4045  0.0058
    5MOL0     C  553   9.029  10.474   2.048  0.1479 -0.3930  0.0509
    5MOL0     C  554   9.181  10.438   2.006  0.0035 -0.0686  0.4774
    5MOL0     C  555   9.261  10.388   2.131 -1.0563 -0.3397  0.0468
    5MOL0     C  556   9.391  10.305   2.095  0.3546 -0.4505  0.1171
    5MOL0     N  557   9.488  10.301   2.204 -0.0587 -0.1563 -0.4812
    5MOL0     C  558   9.571  10.409   2.241  0.1642 -0.0315 -0.4491
    5MOL0     C  559   9.655  10.358   2.337 -0.6288 -0.4501  0.5333
    5MOL0     C  560   9.763  10.425   2.417  0.9697 -0.9619  0.2867
    5MOL0     C  561   9.710  10.564   2.448 -0.7184  0.5319 -1.0248
    5MOL0     C  562   9.796  10.630   2.562  0.4648  0.3250  0.0838
    5MOL0     C  563   9.939  10.672   2.520 -0.1646 -0.2227  0.6007
    5MOL0     O  564   9.930  10.780   2.437  0.0127 -0.9053  0.7562
    5MOL0     C  565  10.025  10.772   2.335 -0.5451 -0.6188  0.0336
    5MOL0     C  566   9.988  10.703   2.214 -0.6858 -0.1862 -0.1836
    5MOL0     C  567  10.088  10.701   2.112 -0.6903  0.4229  0.3748
    5MOL0     C  568  10.217  10.769   2.125 -0.5976 -0.1183  0.3841
    5MOL0     C  569  10.305  10.773   2.006 -0.1528  0.7758 -0.0381
    5MOL0     O  570  10.413  10.852   2.023  0.1497  1.2705  0.1523
    5MOL0     C  571  10.513  10.856   1.927  0.0058 -0.0934  0.6659
    5MOL0     C  572  10.480  10.856   1.791 -0.1672 -0.5252  0.3589
    5MOL0     C  573  10.582  10.883   1.701  0.9377 -0.7474  0.4874
    5MOL0     C  574  10.717  10.887   1.734 -0.7020  0.3608  0.2316
    5MOL0     O  575  10.804  10.899   1.626 -0.0115  0.4289 -0.7022
    5MOL0     C  576  10.940  10.916   1.665  0.1944 -1.0604  0.2210
    5MOL0     C  577  11.031  10.903   1.536 -0.9267 -0.1337 -0.3238
    5MOL0     C  578  11.179  10.880   1.544  0.4628 -0.1480 -0.5824
    5MOL0     C  579  11.252  10.899   1.407 -0.0463 -0.7413  0.5373
    5MOL0     C  580  11.402  10.871   1.435 -0.2599 -0.2347 -0.2387
    5MOL0     C  581  11.492  10.916   1.317 -0.7773  0.1568  0.1779
    5MOL0     C  582  11.499  11.061   1.303 -0.2155  0.3067 -0.8795
    5MOL0     C  583  11.606  11.118   1.200 -0.4276  0.7392  0.6289
    5MOL0    Cl  584  11.569  11.296   1.186 -0.3120 -0.1180  0.1133
    5MOL0     C  585  10.749  10.884   1.875  0.2638  0.7179  0.3025
    5MOL0     C  586  10.646  10.872   1.966 -0.2824 -0.4257  0.2343
    5MOL0     O  587  10.294  10.689   1.915  0.1839  0.1144 -0.2830
    5MOL0     C  588  10.242  10.840   2.244  0.6547 -0.0095  0.3933
    5MOL0     C  589  10.142  10.852   2.340  1.0638  0.1177 -0.5444
    5MOL0     N  590   9.626  10.223   2.347  0.1256 -0.4261 -1.0200
    5MOL0     N  591   9.539  10.186   2.261  0.6898 -0.1941  0.1369
    5MOL0     C  592   8.621  10.858   2.273  0.0702  0.0914  0.2124
    5MOL0     C  593   8.532  10.913   2.374 -0.5758 -0.1766  0.5120
    5MOL0     C  594   8.274  11.141   2.643 -0.3102  0.3884  0.8405
    5MOL0     C  595   8.323  11.237   2.730 -0.3557 -0.0723  0.8828
    5MOL0     C  596   8.236  11.288   2.827  0.5382  0.4243  0.8385
    5MOL0     C  597   8.100  11.271   2.806  0.1142 -0.4700  0.5869
    5MOL0     O  598   7.997  11.330   2.877  0.0837  0.4535  0.5421
    5MOL0     C  599   8.030  11.433   2.965 -0.0361 -0.6176 -0.8301
    5MOL0     C  600   7.896  11.500   3.009 -0.3263  0.5754 -0.0249
    5MOL0     C  601   7.938  11.634   3.071  0.0220  0.5241  0.6211
    5MOL0     C  602   7.824  11.701   3.136  0.5827  0.0361  0.4985
    5MOL0     C  603   7.724  11.725   3.032  0.7428  0.7666 -0.1237
    5MOL0     C  604   7.640  11.736   2.950 -0.9888 -0.0721 -0.2684
    5MOL0     C  605   8.050  11.177   2.717 -0.5576 -0.6070  0.5960
    5MOL0     C  606   8.129  11.116   2.630  0.0484  0.2624 -0.3063
    5MOL0     C  607   8.067  11.004   2.545 -0.1554 -0.3436 -0.3712
    5MOL0     H  608   8.300  11.048   2.173  0.4907  1.0289 -0.1415
    5MOL0     H  609   8.448  10.952   1.995 -0.3486 -3.1326 -0.4452
    5MOL0     H  610   8.549  10.677   1.964 -0.5252 -0.6881 -2.8468
    5MOL0     H  611   8.609  10.825   1.865 -2.6298 -0.2862 -0.4419
    5MOL0     H  612   8.803  10.743   1.817 -0.0909 -1.0695 -1.9760
    5MOL0     H  613   8.706  10.597   1.804 -0.3734  0.2521 -0.4872
    5MOL0     H  614   8.773  10.501   2.031  1.2605 -0.5211  1.2046
    5MOL0     H  615   8.850  10.647   2.067 -2.0564 -0.3374  0.5599
    5MOL0     H  616   8.912  10.444   1.858  1.8189 -1.6041  0.1326
    5MOL0     H  617   9.011  10.591   1.861 -1.3420  1.9003  1.3446
    5MOL0     H  618   9.035  10.548   2.127 -1.9464  1.0238 -1.0295
    5MOL0     H  619   8.973  10.391   2.094 -1.7104 -1.8205 -4.2346
    5MOL0     H  620   9.175  10.360   1.930  0.2519 -2.4850  2.8086
    5MOL0     H  621   9.225  10.529   1.965 -2.9425  1.5836  0.6986
    5MOL0     H  622   9.214  10.320   2.202  0.3495 -2.1066 -0.6297
    5MOL0     H  623   9.295  10.484   2.171 -0.2360 -0.3732 -0.5418
    5MOL0     H  624   9.364  10.201   2.070  0.4423 -0.4026 -0.1746
    5MOL0     H  625   9.440  10.347   2.007  0.4108  0.9804  0.8037
    5MOL0     H  626   9.563  10.515   2.218  2.0674  0.3835  0.5315
    5MOL0     H  627   9.766  10.374   2.514 -2.5610  0.5806  1.3746
    5MOL0     H  628   9.861  10.431   2.368 -0.3439  0.9257 -2.3507
    5MOL0     H  629   9.717  10.634   2.365  0.1858  2.8784  0.9322
    5MOL0     H  630   9.606  10.564   2.483 -0.2844  0.8087  0.3194
    5MOL0     H  631   9.790  10.566   2.650 -0.7073  0.6113  0.2354
    5MOL0     H  632   9.737  10.719   2.584  0.6490  0.2903  0.7239
    5MOL0     H  633   9.974  10.582   2.468 -3.6996 -2.1501  1.2215
    5MOL0     H  634  10.011  10.690   2.600  1.5007  2.4778 -1.3437
    5MOL0     H  635   9.893  10.653   2.201 -0.8441 -0.0972  0.5836
    5MOL0     H  636  10.068  10.631   2.031 -1.5385 -2.8645  3.1820
    5MOL0     H  637  10.381  10.850   1.746 -0.7419  0.6372  1.3971
    5MOL0     H  638  10.566  10.900   1.595  0.7414  0.9566  0.7660
    5MOL0     H  639  10.967  11.017   1.697  3.1497 -1.3401 -1.0873
    5MOL0     H  640  10.968  10.838   1.737  0.3423 -1.7116 -0.5284
    5MOL0     H  641  10.993  10.817   1.480 -3.9237  0.9430 -0.1281
    5MOL0     H  642  11.013  10.989   1.471  0.3007  1.5746  1.4727
    5MOL0     H  643  11.223  10.949   1.616  0.8621  1.0666 -1.9332
    5MOL0     H  644  11.194  10.778   1.581  0.2364 -0.6782 -1.8890
    5MOL0     H  645  11.222  10.998   1.373 -0.7942 -1.2907 -0.4625
    5MOL0     H  646  11.220  10.825   1.332 -1.1771 -2.8991  2.9765
    5MOL0     H  647  11.420  10.766   1.456 -3.2378 -0.8226 -0.1722
    5MOL0     H  648  11.426  10.926   1.527 -2.9728  1.8211 -0.6052
    5MOL0     H  649  11.592  10.873   1.330 -1.1654 -1.3863 -1.4920
    5MOL0     H  650  11.443  10.883   1.225  0.7387 -1.5504 -0.0671
    5MOL0     H  651  11.525  11.104   1.400  1.7402 -0.9923 -0.7678
    5MOL0     H  652  11.403  11.105   1.276 -0.4943  1.1015  1.1885
    5MOL0     H  653  11.703  11.089   1.240 -0.4948  1.5131  1.3919
    5MOL0     H  654  11.599  11.072   1.101 -1.2504 -1.5590  1.6735
    5MOL0     H  655  10.850  10.884   1.914  0.1442 -1.3831  0.7359
    5MOL0     H  656  10.660  10.874   2.074 -3.9893  0.3096  0.8397
    5MOL0     H  657  10.329  10.905   2.254  1.8856 -1.4235 -0.6285
    5MOL0     H  658  10.160  10.903   2.434 -1.7631 -0.3165  0.3265
    5MOL0     H  659   8.715  10.814   2.305 -0.2184  0.7070  2.0099
    5MOL0     H  660   8.560  10.902   2.478 -1.3554  1.4315  0.9254
    5MOL0     H  661   8.429  11.260   2.733 -0.4195  0.4439 -0.2363
    5MOL0     H  662   8.279  11.353   2.903  1.0231  0.7707  0.2797
    5MOL0     H  663   8.092  11.502   2.908 -1.2944  0.6915 -0.6954
    5MOL0     H  664   8.083  11.395   3.053  2.3261  0.3827 -1.7739
    5MOL0     H  665   7.847  11.430   3.078 -2.1934 -0.5122 -2.2947
    5MOL0     H  666   7.825  11.509   2.925 -1.3456  1.8326  0.9337
    5MOL0     H  667   7.987  11.704   3.002  2.1519 -0.0563  1.4598
    5MOL0     H  668   8.018  11.618   3.144 -1.8647 -0.2054  2.6053
    5MOL0     H  669   7.784  11.637   3.215  3.2560 -1.2810  0.8626
    5MOL0     H  670   7.856  11.798   3.176  0.6929 -0.1829  0.9498
    5MOL0     H  671   7.553  11.745   2.889 -0.7065 -3.1610 -1.2774
    5MOL0     H  672   7.943  11.159   2.715 -0.6041 -0.2745 -0.0487
    5MOL0     H  673   8.123  10.912   2.523 -1.3812 -0.4344 -3.8312
    5MOL0     H  674   7.977  10.975   2.599 -1.3723 -0.7161 -2.4828
    5MOL0     H  675   8.056  11.052   2.447  3.0249  2.7370  0.5853
    6MOL0     O  676   3.117   9.755   8.342 -0.3614 -0.4127 -0.2644
    6MOL0     C  677   3.071   9.848   8.413 -0.0351  0.1591 -0.2964
    6MOL0     O  678   3.147   9.925   8.502  0.5918 -0.6662 -0.3405
    6MOL0     C  679   3.272   9.872   8.534  0.2498 -0.1010 -0.0079
    6MOL0     C  680   3.390   9.946   8.513  0.2614  0.7636 -0.0690
    6MOL0     C  681   3.512   9.893   8.564 -0.1778  0.8174 -0.1991
    6MOL0     C  682   3.520   9.762   8.616  0.0302 -0.4861  0.5822
    6MOL0     O  683   3.638   9.707   8.655  0.2208 -0.3074  0.6026
    6MOL0     C  684   3.766   9.780   8.645  0.2358  0.6414 -0.7590
    6MOL0     C  685   3.782   9.883   8.763  0.0975  0.4048  0.3794
    6MOL0     C  686   3.791   9.807   8.897  0.6025 -0.6586  0.7593
    6MOL0     C  687   3.785   9.890   9.024  0.4757 -0.1059  0.8343
    6MOL0     C  688   3.758   9.801   9.152  0.1375 -0.5148  0.7281
    6MOL0     C  689   3.880   9.709   9.181  0.0156 -0.5846 -0.7120
    6MOL0     C  690   3.838   9.634   9.313 -0.1691  0.0031 -0.1271
    6MOL0     C  691   3.957   9.550   9.358 -0.0567  0.4166 -0.2223
    6MOL0     N  692   3.998   9.446   9.265 -0.5165 -0.4932 -0.1973
    6MOL0     C  693   4.123   9.398   9.261 -0.0560 -0.4849  0.3252
    6MOL0     C  694   4.116   9.285   9.187  0.1208  0.5506 -0.0387
    6MOL0     C  695   4.215   9.186   9.149 -0.6479  0.7433 -0.2173
    6MOL0     C  696   4.232   9.072   9.247  0.7608  0.9454  0.3755
    6MOL0     C  697   4.355   8.992   9.213 -0.3888 -0.6089  0.5425
    6MOL0     C  698   4.417   8.916   9.335  0.4324 -0.2995  0.8612
    6MOL0     O  699   4.557   8.905   9.301 -0.5026  0.1694 -0.5118
    6MOL0     C  700   4.636   8.833   9.383 -0.2436  0.9493 -0.8102
    6MOL0     C  701   4.778   8.837   9.350 -0.1431 -0.6701 -0.1443
    6MOL0     C  702   4.872   8.792   9.443  0.2463 -0.4808 -0.8534
    6MOL0     C  703   4.830   8.715   9.550  0.3217 -0.1714  0.0258
    6MOL0     C  704   4.922   8.645   9.642 -0.7200 -0.0282 -0.5925
    6MOL0     O  705   5.050   8.683   9.634  0.2064 -0.5898 -0.2124
    6MOL0     C  706   5.135   8.645   9.738 -0.1316  0.2227  0.8476
    6MOL0     C  707   5.225   8.737   9.789  0.4747  0.1845 -0.1070
    6MOL0     C  708   5.315   8.698   9.887  0.0806  0.8020  0.0570
    6MOL0     C  709   5.318   8.570   9.930 -0.0848 -0.1058 -0.7368
    6MOL0     O  710   5.417   8.550  10.028  0.1485  0.2352  0.0081
    6MOL0     C  711   5.413   8.433  10.117 -0.3334 -0.4261  0.0327
    6MOL0     C  712   5.547   8.411  10.187 -0.1065 -0.3749 -0.1930
    6MOL0     C  713   5.658   8.363  10.099  0.9250  0.4285 -0.1890
    6MOL0     C  714   5.773   8.320  10.190 -0.3083  0.8231  1.2611
    6MOL0     C  715   5.891   8.281  10.099 -0.1853 -0.2214  0.0332
    6MOL0     C  716   6.006   8.273  10.197  0.2150  0.9237  0.2662
    6MOL0     C  717   6.141   8.288  10.128  0.3586  0.2662  0.1622
    6MOL0     C  718   6.242   8.273  10.239 -0.1015  0.8580  0.0698
    6MOL0    Cl  719   6.294   8.103  10.271 -0.0655 -0.3890  0.0572
    6MOL0     C  720   5.233   8.477   9.882 -0.6286 -0.4667 -0.5312
    6MOL0     C  721   5.148   8.511   9.783 -0.9160  0.2684  0.2224
    6MOL0     O  722   4.883   8.560   9.720  0.5508  0.9582 -0.3949
    6MOL0     C  723   4.688   8.693   9.571 -0.6455 -0.6377 -0.7746
    6MOL0     C  724   4.592   8.756   9.491  0.0970 -0.0682  0.6034
    6MOL0     N  725   3.980   9.262   9.160 -0.3429  0.4367 -0.4401
    6MOL0     N  726   3.911   9.365   9.198 -0.0283 -0.0924  0.0252
    6MOL0     C  727   3.405   9.689   8.645 -0.6976  0.0729  0.0245
    6MOL0     C  728   3.288   9.751   8.608  0.7114 -0.3510 -0.0207
    6MOL0     C  729   2.931   9.869   8.415 -0.4339 -0.6663  0.0198
    6MOL0     C  730   2.894  10.000   8.415 -0.0717  0.5712 -0.5310
    6MOL0     C  731   2.767  10.040   8.429  0.1553  0.0053 -0.2605
    6MOL0     C  732   2.664   9.937   8.452  0.4829 -0.7527  0.3462
    6MOL0     O  733   2.532   9.968   8.475  0.4837 -0.8913  0.1051
    6MOL0     C  734   2.478  10.104   8.466  0.4746 -0.3570 -0.1655
    6MOL0     C  735   2.357  10.107   8.560 -0.3762 -0.1120  0.0452
    6MOL0     C  736   2.260  10.230   8.558 -0.8117 -0.1585  0.1706
    6MOL0     C  737   2.189  10.243   8.422 -0.1179  0.3043  0.0171
    6MOL0     C  738   2.078  10.150   8.400 -0.3485 -0.6981  0.3082
    6MOL0     C  739   1.996  10.066   8.401  0.9732 -0.6892  0.0729
    6MOL0     C  740   2.699   9.803   8.438 -0.3639 -0.7146 -0.3759
    6MOL0     C  741   2.831   9.768   8.417 -0.6093 -0.2082  0.2597
    6MOL0     C  742   2.862   9.620   8.429 -1.1886 -0.3484  0.1019
    6MOL0     H  743   3.372  10.046   8.474  3.8751  0.8119 -2.0406
    6MOL0     H  744   3.597   9.960   8.566 -0.0489  0.6746 -0.6792
    6MOL0     H  745   3.849   9.711   8.663 -0.1318  0.1256 -1.0259
    6MOL0     H  746   3.774   9.821   8.544  4.8912 -0.3493 -0.9949
    6MOL0     H  747   3.708   9.963   8.762 -1.5622 -1.0645  0.6028
    6MOL0     H  748   3.874   9.942   8.761 -0.4759  1.5248  3.1005
    6MOL0     H  749   3.889   9.759   8.889  2.5046  2.9996  0.3181
    6MOL0     H  750   3.708   9.736   8.887  1.7468 -1.7570 -1.8715
    6MOL0     H  751   3.876   9.951   9.031  1.5707 -1.2452 -1.8280
    6MOL0     H  752   3.700   9.958   9.018 -1.3901 -2.4518 -1.4104
    6MOL0     H  753   3.731   9.862   9.238 -0.5968  1.3046 -0.7030
    6MOL0     H  754   3.669   9.739   9.136  0.2520 -0.1314 -2.0479
    6MOL0     H  755   3.900   9.641   9.097  4.1687  1.3564 -1.5158
    6MOL0     H  756   3.971   9.766   9.201 -1.9314  1.9352  1.6629
    6MOL0     H  757   3.749   9.574   9.291  0.3945 -0.6821 -0.5883
    6MOL0     H  758   3.826   9.703   9.397  3.7643 -0.3439  0.9115
    6MOL0     H  759   4.042   9.619   9.368  0.1093  0.2272 -0.3182
    6MOL0     H  760   3.941   9.506   9.457  2.8489 -1.4309 -0.4663
    6MOL0     H  761   4.204   9.427   9.327  1.1983 -0.6053 -1.1147
    6MOL0     H  762   4.196   9.142   9.051  0.7120  2.0805 -1.1440
    6MOL0     H  763   4.310   9.241   9.139  0.1675 -0.8628 -1.9772
    6MOL0     H  764   4.255   9.123   9.340  2.2298  1.2444 -0.1286
    6MOL0     H  765   4.146   9.006   9.267  1.1423  0.9115  1.9755
    6MOL0     H  766   4.429   9.062   9.175  0.0576 -1.1388  0.4235
    6MOL0     H  767   4.337   8.919   9.134  0.8664  1.0190 -1.3434
    6MOL0     H  768   4.367   8.818   9.338 -0.2751 -0.0017 -0.6371
    6MOL0     H  769   4.395   8.973   9.426 -2.9995  1.0776 -0.6240
    6MOL0     H  770   4.814   8.901   9.270 -1.4876  0.9438  0.4883
    6MOL0     H  771   4.980   8.794   9.429  0.6045 -5.1763 -0.4988
    6MOL0     H  772   5.220   8.845   9.776 -1.4810  0.1562  0.0266
    6MOL0     H  773   5.393   8.767   9.917  1.4583 -1.4842  2.1712
    6MOL0     H  774   5.328   8.455  10.182  0.0096  1.7819 -0.1883
    6MOL0     H  775   5.392   8.341  10.062  1.3572  0.1883 -1.7660
    6MOL0     H  776   5.580   8.498  10.245  1.2125 -0.9297 -0.0630
    6MOL0     H  777   5.521   8.328  10.254 -2.3144 -0.3375 -0.9114
    6MOL0     H  778   5.634   8.277  10.037  0.8633  0.7216 -0.5722
    6MOL0     H  779   5.687   8.438  10.025  1.9262 -0.3440 -0.6081
    6MOL0     H  780   5.751   8.239  10.261  0.4674  0.8590  1.5460
    6MOL0     H  781   5.803   8.405  10.251 -0.3420  1.2854  0.6394
    6MOL0     H  782   5.904   8.362  10.026  2.3742  2.2563  2.9579
    6MOL0     H  783   5.877   8.186  10.048  0.8477 -0.2847 -0.1530
    6MOL0     H  784   5.997   8.349  10.275 -1.1687  0.3468  0.7127
    6MOL0     H  785   5.999   8.174  10.244  0.7296  1.3814  1.3218
    6MOL0     H  786   6.151   8.385  10.077  0.0677  1.3841  2.1317
    6MOL0     H  787   6.159   8.203  10.061 -0.2058 -0.2351  0.6360
    6MOL0     H  788   6.328   8.334  10.211 -0.8557  1.5617 -0.7663
    6MOL0     H  789   6.200   8.308  10.333 -0.2799 -2.5212  1.3688
    6MOL0     H  790   5.233   8.372   9.911 -1.1623 -0.4243 -0.3639
    6MOL0     H  791   5.081   8.428   9.765 -0.4118 -0.1168  0.1045
    6MOL0     H  792   4.649   8.631   9.652  0.6137 -0.5174 -0.0419
    6MOL0     H  793   4.486   8.749   9.512  0.2885  1.6161  2.4821
    6MOL0     H  794   3.414   9.592   8.693  0.6363  0.6577  1.0118
    6MOL0     H  795   3.199   9.692   8.628  0.7698 -1.0563 -1.7413
    6MOL0     H  796   2.970  10.077   8.407 -0.1832  0.9701  1.6063
    6MOL0     H  797   2.738  10.144   8.426  1.3161  0.4390  1.8222
    6MOL0     H  798   2.444  10.128   8.365 -0.5292 -1.2768 -0.0627
    6MOL0     H  799   2.539  10.184   8.509 -3.8171  2.5565  1.1968
    6MOL0     H  800   2.408  10.092   8.655  2.4833 -0.3636 -1.4287
    6MOL0     H  801   2.301  10.013   8.555  1.1555 -1.0667  0.3502
    6MOL0     H  802   2.319  10.318   8.584 -0.2941 -0.3643 -0.2945
    6MOL0     H  803   2.181  10.221   8.633 -2.3730  1.8584 -1.1253
    6MOL0     H  804   2.141  10.342   8.421 -2.0065 -0.5185  1.8299
    6MOL0     H  805   2.266  10.242   8.345  1.7458  0.0733  1.7936
    6MOL0     H  806   1.907  10.007   8.407  0.4080  0.2280  1.0601
    6MOL0     H  807   2.624   9.726   8.453 -0.5414 -0.3005  1.1045
    6MOL0     H  808   2.927   9.599   8.343 -1.3918 -1.8663  0.3076
    6MOL0     H  809   2.901   9.587   8.526  0.0224 -1.8080 -0.8332
    6MOL0     H  810   2.772   9.562   8.411 -1.6835  0.5843 -0.5325
    7MOL0     O  811   4.333   4.167   5.033  0.2099  0.1744 -0.4061
    7MOL0     C  812   4.333   4.047   5.026  0.1102  1.1057 -0.7750
    7MOL0     O  813   4.441   3.974   5.004  0.2357 -1.0943  0.4199
    7MOL0     C  814   4.563   4.020   5.040  0.1208 -0.0246 -0.0303
    7MOL0     C  815   4.679   4.018   4.946 -0.6904 -0.6580  0.0815
    7MOL0     C  816   4.812   4.055   5.001 -0.2626 -0.8257  0.3515
    7MOL0     C  817   4.827   4.093   5.136  0.4686 -0.0352  0.0278
    7MOL0     O  818   4.950   4.136   5.189 -0.3395  0.0152 -0.3420
    7MOL0     C  819   4.953   4.281   5.169  0.2915  0.4017  0.3929
    7MOL0     C  820   5.019   4.357   5.291 -0.3425  0.1794 -0.0726
    7MOL0     C  821   5.166   4.309   5.310  0.1804  0.0524  0.0648
    7MOL0     C  822   5.232   4.381   5.427 -0.4040  0.2030 -1.3250
    7MOL0     C  823   5.376   4.335   5.443  0.2522 -0.6620  0.1395
    7MOL0     C  824   5.439   4.410   5.564  0.7098  1.1875  0.3182
    7MOL0     C  825   5.585   4.356   5.583 -0.1306 -0.6511  0.8213
    7MOL0     C  826   5.679   4.398   5.469 -0.3043  0.0950  0.4105
    7MOL0     N  827   5.820   4.402   5.510  0.1808 -0.0009  0.2792
    7MOL0     C  828   5.918   4.380   5.421 -0.7932  0.3237 -0.0845
    7MOL0     C  829   6.027   4.428   5.484 -0.2843 -0.0000 -0.3180
    7MOL0     C  830   6.176   4.441   5.445  1.0152  0.2042 -0.3659
    7MOL0     C  831   6.253   4.536   5.532 -0.1333  0.4157  0.2978
    7MOL0     C  832   6.395   4.528   5.496 -0.2981 -0.5097  0.5989
    7MOL0     C  833   6.490   4.598   5.588  0.5688 -0.3139 -0.5125
    7MOL0     O  834   6.620   4.540   5.590 -0.7946  0.2264 -0.1333
    7MOL0     C  835   6.704   4.612   5.508 -0.3888  0.3435 -0.5457
    7MOL0     C  836   6.736   4.562   5.384 -0.3175  0.5538 -0.0555
    7MOL0     C  837   6.833   4.633   5.297 -0.8689 -0.7749  0.9926
    7MOL0     C  838   6.884   4.759   5.336  0.6680 -0.1888 -0.1913
    7MOL0     C  839   6.996   4.826   5.261 -0.0156 -0.4850 -0.0777
    7MOL0     O  840   7.053   4.932   5.326 -0.0451 -0.1820 -0.6961
    7MOL0     C  841   7.153   5.000   5.271 -0.8144  0.0808  0.3215
    7MOL0     C  842   7.130   5.132   5.238 -0.7322  0.2074  0.0949
    7MOL0     C  843   7.233   5.216   5.197  0.6035 -0.6741  0.0692
    7MOL0     C  844   7.357   5.160   5.166  0.7745  0.3430 -0.6122
    7MOL0     O  845   7.460   5.217   5.094 -0.2433 -0.8584 -0.1106
    7MOL0     C  846   7.486   5.357   5.127 -0.2250 -0.4368  0.9227
    7MOL0     C  847   7.635   5.396   5.127  0.5388 -0.0237 -0.5678
    7MOL0     C  848   7.660   5.550   5.158  0.2357  0.6985 -0.9352
    7MOL0     C  849   7.805   5.584   5.183 -0.9374 -0.1722  0.1869
    7MOL0     C  850   7.821   5.737   5.193 -0.2533  0.2804 -0.5762
    7MOL0     C  851   7.962   5.792   5.229  0.7101  0.5273 -0.4984
    7MOL0     C  852   8.019   5.739   5.361 -0.3342  0.1130  0.2472
    7MOL0     C  853   8.147   5.820   5.406  0.8127 -0.3962  0.2053
    7MOL0    Cl  854   8.206   5.762   5.562  0.3082  0.1958 -0.1511
    7MOL0     C  855   7.379   5.028   5.210 -0.6365  0.1335 -0.6097
    7MOL0     C  856   7.277   4.944   5.262 -1.3046 -0.8672 -0.1462
    7MOL0     O  857   7.034   4.783   5.154 -0.3437  0.1652 -0.3796
    7MOL0     C  858   6.843   4.808   5.464 -0.0024 -0.4152  0.1568
    7MOL0     C  859   6.762   4.733   5.552  0.3325 -0.4834  0.4276
    7MOL0     N  860   5.984   4.477   5.605 -0.1632 -0.0111 -0.8579
    7MOL0     N  861   5.857   4.461   5.626  0.1873 -0.1291  0.9685
    7MOL0     C  862   4.710   4.081   5.218 -0.4624  0.5129 -0.2019
    7MOL0     C  863   4.580   4.045   5.170 -0.5110  0.2254 -0.5205
    7MOL0     C  864   4.209   3.976   5.052  0.6574 -0.3716 -0.1307
    7MOL0     C  865   4.102   4.050   5.104 -0.6996 -0.0540 -1.0905
    7MOL0     C  866   3.986   3.997   5.150 -0.3800  0.1364  0.2299
    7MOL0     C  867   3.954   3.861   5.147  0.3440 -0.4790 -0.0678
    7MOL0     O  868   3.855   3.789   5.212  0.1358  0.9075 -0.8835
    7MOL0     C  869   3.721   3.852   5.217 -0.5960  0.4065  0.3960
    7MOL0     C  870   3.652   3.875   5.075 -0.6455  0.4533 -0.4537
    7MOL0     C  871   3.655   3.755   4.978  0.7893 -0.9454 -0.0134
    7MOL0     C  872   3.594   3.626   5.028 -0.7129  0.0635 -1.2714
    7MOL0     C  873   3.450   3.646   5.062 -0.3168 -0.6303  0.2163
    7MOL0     C  874   3.330   3.646   5.088  0.0483 -0.1055  0.0923
    7MOL0     C  875   4.052   3.784   5.089 -0.9627  0.5993 -0.3094
    7MOL0     C  876   4.177   3.833   5.043  0.1633 -0.1659  0.1020
    7MOL0     C  877   4.275   3.727   5.000 -0.3384  0.1134 -0.0499
    7MOL0     H  878   4.655   3.992   4.843 -0.4987  4.2412 -1.4611
    7MOL0     H  879   4.898   4.052   4.934  0.3856  0.1289  1.1148
    7MOL0     H  880   5.012   4.304   5.080  1.1853  1.9595  1.3594
    7MOL0     H  881   4.853   4.322   5.155 -0.2675 -0.9158  0.3024
    7MOL0     H  882   4.956   4.340   5.379  0.4285 -1.6500  0.1576
    7MOL0     H  883   5.014   4.462   5.260  0.1394  0.6129  1.2567
    7MOL0     H  884   5.228   4.329   5.221  0.9252 -0.8166  0.3817
    7MOL0     H  885   5.170   4.201   5.326 -1.7227  0.1339  1.3305
    7MOL0     H  886   5.241   4.490   5.418  0.8930  0.9072  4.4919
    7MOL0     H  887   5.174   4.373   5.519  2.1008 -0.0626  0.3287
    7MOL0     H  888   5.379   4.226   5.450 -2.0265 -0.9524 -2.0621
    7MOL0     H  889   5.431   4.368   5.355 -1.1666 -1.3742 -1.0502
    7MOL0     H  890   5.447   4.517   5.540  1.5569  0.7189 -1.7476
    7MOL0     H  891   5.378   4.403   5.654  2.3982  0.8261  1.4755
    7MOL0     H  892   5.591   4.248   5.599  1.1365 -0.6954  0.1765
    7MOL0     H  893   5.617   4.401   5.678 -1.6227  2.5189 -0.0218
    7MOL0     H  894   5.656   4.338   5.381 -4.1429  1.0351  0.5812
    7MOL0     H  895   5.640   4.495   5.435 -0.3445 -0.5681 -1.5860
    7MOL0     H  896   5.916   4.344   5.319  1.7517 -1.2465  0.3395
    7MOL0     H  897   6.210   4.337   5.451 -0.9402 -0.3871  2.1426
    7MOL0     H  898   6.180   4.470   5.340  1.5901 -2.5179 -1.1715
    7MOL0     H  899   6.214   4.634   5.504  0.5691  0.6170 -0.0104
    7MOL0     H  900   6.233   4.528   5.639 -0.0380 -1.0418  0.2229
    7MOL0     H  901   6.421   4.556   5.393 -0.7122 -1.4421  0.2238
    7MOL0     H  902   6.432   4.425   5.507  0.3569 -0.5023 -1.1616
    7MOL0     H  903   6.462   4.588   5.694  3.4836  0.5933  0.4353
    7MOL0     H  904   6.496   4.705   5.563  3.3645 -0.4354 -0.6392
    7MOL0     H  905   6.677   4.479   5.344 -0.7447  1.0038 -0.3710
    7MOL0     H  906   6.856   4.596   5.197  0.3199  1.2127  0.4561
    7MOL0     H  907   7.032   5.173   5.258 -0.1382  1.5860  0.2936
    7MOL0     H  908   7.205   5.316   5.167 -1.2893 -1.4990 -1.1585
    7MOL0     H  909   7.417   5.421   5.070 -1.0209  0.2738  2.6354
    7MOL0     H  910   7.449   5.370   5.229  2.3075 -0.9630  1.9849
    7MOL0     H  911   7.682   5.337   5.206  0.5536  0.5207 -0.1591
    7MOL0     H  912   7.681   5.368   5.032  1.2096 -0.8447 -0.0187
    7MOL0     H  913   7.623   5.610   5.074 -1.8565 -0.2633 -0.7474
    7MOL0     H  914   7.605   5.573   5.250  0.1946  1.5211 -1.1566
    7MOL0     H  915   7.872   5.553   5.102  1.5758  2.0835  1.2257
    7MOL0     H  916   7.842   5.533   5.272 -0.4102 -0.5546 -0.2429
    7MOL0     H  917   7.751   5.781   5.265  2.2572  3.0289  0.4133
    7MOL0     H  918   7.789   5.788   5.102  0.4318  0.2431 -0.8478
    7MOL0     H  919   8.027   5.744   5.155  1.4728 -0.6469  0.8871
    7MOL0     H  920   7.965   5.901   5.223 -0.0638  0.6216  0.5009
    7MOL0     H  921   8.034   5.632   5.344 -0.8689  0.0694  0.0106
    7MOL0     H  922   7.929   5.747   5.423 -1.5012 -1.4618 -1.1706
    7MOL0     H  923   8.229   5.796   5.337 -0.5904 -1.6784 -1.1073
    7MOL0     H  924   8.125   5.924   5.430 -2.0795 -1.2644  1.7974
    7MOL0     H  925   7.482   5.003   5.188  0.1794  4.4352 -2.6790
    7MOL0     H  926   7.303   4.848   5.305  0.3908  0.0101  0.8782
    7MOL0     H  927   6.868   4.908   5.496  1.2832 -0.2995 -1.1350
    7MOL0     H  928   6.739   4.771   5.652 -2.0977 -0.0569 -0.2223
    7MOL0     H  929   4.734   4.098   5.323 -1.1080 -0.7951  0.1754
    7MOL0     H  930   4.492   4.041   5.234  0.0554 -0.1711  0.2613
    7MOL0     H  931   4.115   4.157   5.109  1.8959 -0.3690  0.1904
    7MOL0     H  932   3.931   4.072   5.207  1.4174  0.4888  1.6254
    7MOL0     H  933   3.719   3.954   5.257 -2.7952  2.2222 -3.7059
    7MOL0     H  934   3.656   3.788   5.277 -1.7409  0.8135 -0.3850
    7MOL0     H  935   3.713   3.949   5.024  0.2497  0.8782  1.1517
    7MOL0     H  936   3.556   3.923   5.096 -0.0507  0.5617  2.4395
    7MOL0     H  937   3.759   3.721   4.970  1.4910  1.1226 -0.3998
    7MOL0     H  938   3.614   3.788   4.882  1.6504  1.2460  0.3072
    7MOL0     H  939   3.611   3.551   4.950  2.3285 -0.2493 -0.4555
    7MOL0     H  940   3.645   3.596   5.121 -0.2797  4.8270  0.3012
    7MOL0     H  941   3.230   3.652   5.127  0.4273 -0.6364  1.2011
    7MOL0     H  942   4.038   3.676   5.088  0.0185  0.4639 -0.1917
    7MOL0     H  943   4.348   3.774   4.933 -0.2743  1.3392  0.8298
    7MOL0     H  944   4.318   3.677   5.088 -1.6808 -1.6057 -0.3279
    7MOL0     H  945   4.234   3.652   4.932 -0.5112  0.0627  0.1095
    8MOL0     O  946   6.564   7.015   3.121 -0.2492 -0.2623  0.1626
    8MOL0     C  947   6.530   6.899   3.114 -0.3313  0.1291  0.4755
    8MOL0     O  948   6.574   6.811   3.017  0.6207  0.8924  0.0514
    8MOL0     C  949   6.686   6.842   2.950  1.3825  0.3157  0.2204
    8MOL0     C  950   6.681   6.936   2.846 -0.0402  0.0004  0.7193
    8MOL0     C  951   6.794   6.959   2.774  0.8730 -0.5074  0.1917
    8MOL0     C  952   6.907   6.888   2.792  0.5743 -0.4401 -0.0266
    8MOL0     O  953   7.011   6.926   2.720 -0.2666 -0.4256 -0.1100
    8MOL0     C  954   7.124   6.834   2.697  0.0048  0.5760 -0.7383
    8MOL0     C  955   7.249   6.893   2.639 -0.3563 -0.0809  0.3383
    8MOL0     C  956   7.311   6.995   2.737 -1.1422 -0.4215  0.0122
    8MOL0     C  957   7.426   7.066   2.667  0.3327  1.0538  0.0130
    8MOL0     C  958   7.482   7.187   2.745  0.5790 -0.1541 -0.2358
    8MOL0     C  959   7.587   7.257   2.652  0.9696  0.1794 -1.2627
    8MOL0     C  960   7.656   7.370   2.732  0.5615 -0.4240 -0.7654
    8MOL0     C  961   7.799   7.340   2.794  0.4507  0.9988  0.2922
    8MOL0     N  962   7.906   7.312   2.689 -0.3723 -0.1284 -0.0482
    8MOL0     C  963   7.979   7.413   2.624  0.5096  0.2132 -0.5710
    8MOL0     C  964   8.074   7.347   2.557 -0.2553  0.3525 -0.7044
    8MOL0     C  965   8.164   7.403   2.456 -0.3903 -0.6185 -0.4638
    8MOL0     C  966   8.308   7.412   2.504  0.0608  0.8301  0.0833
    8MOL0     C  967   8.412   7.471   2.421 -0.2814 -0.3875 -0.1131
    8MOL0     C  968   8.552   7.449   2.469  0.1034 -0.0345 -0.1588
    8MOL0     O  969   8.639   7.481   2.363  0.1324  0.4180  0.0806
    8MOL0     C  970   8.775   7.488   2.392  0.7236  0.5333  0.1845
    8MOL0     C  971   8.830   7.473   2.518 -0.3677  0.0751 -0.1979
    8MOL0     C  972   8.972   7.477   2.523 -0.1569  0.3792 -0.4550
    8MOL0     C  973   9.060   7.481   2.411 -0.2856 -0.6504  0.2209
    8MOL0     C  974   9.205   7.502   2.423 -0.0085 -0.2770  0.0266
    8MOL0     O  975   9.284   7.478   2.322  0.0135 -0.2071 -0.2309
    8MOL0     C  976   9.425   7.507   2.343  1.2648 -0.5171  0.4252
    8MOL0     C  977   9.501   7.414   2.415 -0.5764  0.0026  0.7865
    8MOL0     C  978   9.637   7.418   2.420  0.4043 -0.1797  0.3536
    8MOL0     C  979   9.701   7.534   2.357 -0.1512  0.6852  0.1742
    8MOL0     O  980   9.839   7.539   2.347 -0.1910 -0.5486 -0.3727
    8MOL0     C  981   9.911   7.414   2.347  0.6586 -0.0192 -0.2033
    8MOL0     C  982  10.055   7.428   2.288  0.4280 -0.5595  0.3488
    8MOL0     C  983  10.128   7.307   2.348 -0.0866  0.7036  0.7336
    8MOL0     C  984  10.270   7.312   2.285 -0.1709 -0.5317 -0.9098
    8MOL0     C  985  10.363   7.214   2.369  0.1370  0.0192 -0.2612
    8MOL0     C  986  10.502   7.188   2.296  0.3326  0.5974 -0.3752
    8MOL0     C  987  10.599   7.301   2.323 -0.6783 -0.1152 -0.0735
    8MOL0     C  988  10.738   7.261   2.284  0.1763  0.5962  0.3466
    8MOL0    Cl  989  10.746   7.196   2.114  0.3964  0.0988  0.4151
    8MOL0     C  990   9.631   7.630   2.282  0.0408 -0.0419  0.2455
    8MOL0     C  991   9.491   7.615   2.278 -0.1947  0.2655 -0.2243
    8MOL0     O  992   9.239   7.546   2.537 -0.3750 -0.3422  0.3966
    8MOL0     C  993   8.997   7.499   2.291 -0.2873  0.1703  0.2016
    8MOL0     C  994   8.859   7.504   2.280  0.4039  0.4193  0.0673
    8MOL0     N  995   8.071   7.213   2.586 -0.2692  0.1945  0.2806
    8MOL0     N  996   7.976   7.198   2.666 -0.0075 -0.7050  0.1378
    8MOL0     C  997   6.914   6.789   2.887  1.6297 -0.5307 -0.0439
    8MOL0     C  998   6.796   6.769   2.965  0.0609 -0.2416 -0.0033
    8MOL0     C  999   6.412   6.855   3.191 -0.2811 -0.5976  0.5197
    8MOL0     C 1000   6.347   6.953   3.270 -0.6540  0.4812  0.8678
    8MOL0     C 1001   6.241   6.926   3.356  0.0246 -0.2768 -0.0357
    8MOL0     C 1002   6.207   6.792   3.370  0.2974 -0.6492  0.8847
    8MOL0     O 1003   6.117   6.747   3.463 -0.0784  0.7615 -0.0552
    8MOL0     C 1004   6.081   6.822   3.587  0.4746  0.3189  0.3701
    8MOL0     C 1005   6.196   6.792   3.678  0.6262  0.3604 -0.2118
    8MOL0     C 1006   6.239   6.643   3.689  0.1882  0.3966  0.2011
    8MOL0     C 1007   6.374   6.639   3.760  0.3603  0.9556 -0.3438
    8MOL0     C 1008   6.485   6.633   3.675  0.0560  1.1851  0.1019
    8MOL0     C 1009   6.563   6.627   3.587 -0.3535  0.4925  0.4996
    8MOL0     C 1010   6.267   6.692   3.298 -0.1270 -0.5414 -0.7450
    8MOL0     C 1011   6.372   6.718   3.212  0.4110 -0.5260 -0.2676
    8MOL0     C 1012   6.460   6.607   3.162  0.2752  0.0612  0.1496
    8MOL0     H 1013   6.592   6.977   2.799  1.7975  0.8534 -2.3007
    8MOL0     H 1014   6.795   7.038   2.699 -1.3488  0.9426  1.5939
    8MOL0     H 1015   7.163   6.781   2.784  0.0105  1.0087 -0.4753
    8MOL0     H 1016   7.096   6.756   2.626  3.1698  0.3021 -1.8222
    8MOL0     H 1017   7.233   6.938   2.541  0.6125 -0.7902 -0.1569
    8MOL0     H 1018   7.307   6.802   2.621  1.4049  0.6242  2.0686
    8MOL0     H 1019   7.344   6.941   2.826 -3.1933  0.0638  1.1383
    8MOL0     H 1020   7.240   7.068   2.776 -1.2630 -1.1000  1.1186
    8MOL0     H 1021   7.497   6.984   2.652 -0.7373 -0.2807  1.9394
    8MOL0     H 1022   7.387   7.101   2.571 -0.0533 -1.2214 -0.7077
    8MOL0     H 1023   7.408   7.267   2.754 -1.7866 -2.3961  1.7650
    8MOL0     H 1024   7.511   7.156   2.846  0.5025  1.4203  0.2960
    8MOL0     H 1025   7.664   7.186   2.621  0.9529 -0.7041  0.6096
    8MOL0     H 1026   7.533   7.308   2.572 -1.8460 -0.8293 -0.1607
    8MOL0     H 1027   7.584   7.421   2.798  1.4134 -1.0759  0.7101
    8MOL0     H 1028   7.662   7.455   2.663 -0.1367 -0.2121 -0.5848
    8MOL0     H 1029   7.824   7.431   2.849  1.1097  0.7921  0.3485
    8MOL0     H 1030   7.790   7.252   2.859 -0.8974  0.9281  0.0310
    8MOL0     H 1031   7.950   7.517   2.622 -0.5549  0.0465  2.1831
    8MOL0     H 1032   8.152   7.348   2.362 -3.3248 -0.6245 -0.1554
    8MOL0     H 1033   8.132   7.507   2.444 -0.7530 -0.5735  0.7999
    8MOL0     H 1034   8.298   7.461   2.601  0.4185  1.2284 -0.0725
    8MOL0     H 1035   8.344   7.310   2.518  1.2280  1.2972  0.6022
    8MOL0     H 1036   8.394   7.578   2.409 -0.0006 -0.2926  0.3322
    8MOL0     H 1037   8.404   7.430   2.319  1.5096  4.6171 -2.5723
    8MOL0     H 1038   8.574   7.349   2.508  0.2258  0.6846  1.7183
    8MOL0     H 1039   8.557   7.520   2.552 -2.7362  1.4999 -1.1651
    8MOL0     H 1040   8.776   7.471   2.612 -0.5173  2.0737 -0.1981
    8MOL0     H 1041   9.010   7.474   2.625 -1.6930  0.6210  0.1508
    8MOL0     H 1042   9.447   7.332   2.461 -0.5876  0.6839  2.0275
    8MOL0     H 1043   9.684   7.334   2.470 -0.2055 -0.5426  0.3211
    8MOL0     H 1044   9.911   7.383   2.452 -2.5068 -0.1094 -0.1160
    8MOL0     H 1045   9.854   7.344   2.285  0.3181 -0.1135  0.2099
    8MOL0     H 1046  10.046   7.425   2.179 -2.1452 -0.8580  0.5083
    8MOL0     H 1047  10.099   7.524   2.315  0.1560 -0.3134 -0.0714
    8MOL0     H 1048  10.133   7.311   2.457  0.7805  0.2861  0.7174
    8MOL0     H 1049  10.064   7.219   2.331  1.6642 -0.4981  0.0243
    8MOL0     H 1050  10.310   7.414   2.274 -0.8710 -0.1401  0.0478
    8MOL0     H 1051  10.271   7.269   2.184  1.7785 -0.6186 -0.8970
    8MOL0     H 1052  10.303   7.127   2.399  0.0176  0.2933  0.3076
    8MOL0     H 1053  10.373   7.264   2.466  0.0223 -0.4864  0.0178
    8MOL0     H 1054  10.527   7.085   2.325 -1.4332 -0.9933 -3.8354
    8MOL0     H 1055  10.488   7.173   2.189 -1.7206  0.5766 -0.1476
    8MOL0     H 1056  10.603   7.318   2.431  1.5109 -2.0484  0.2274
    8MOL0     H 1057  10.575   7.394   2.271  1.5036  0.6348  0.1459
    8MOL0     H 1058  10.816   7.337   2.296  0.5749  0.0877  1.0268
    8MOL0     H 1059  10.771   7.183   2.354 -2.4338  2.3943  3.8843
    8MOL0     H 1060   9.667   7.711   2.219 -0.3791  0.1851  0.2929
    8MOL0     H 1061   9.438   7.701   2.239  1.3948  0.0670 -3.0883
    8MOL0     H 1062   9.047   7.492   2.195  0.7048 -1.1773  0.7833
    8MOL0     H 1063   8.813   7.512   2.182  0.1269 -0.9891  0.0615
    8MOL0     H 1064   7.008   6.740   2.911  1.8774  0.2947  0.7440
    8MOL0     H 1065   6.803   6.704   3.052  2.3295 -2.5283 -1.7257
    8MOL0     H 1066   6.372   7.058   3.277  0.7280  0.1210  1.9030
    8MOL0     H 1067   6.182   6.998   3.411  0.8976 -0.1334  0.7374
    8MOL0     H 1068   5.998   6.766   3.633  0.2101 -0.2768 -0.7918
    8MOL0     H 1069   6.052   6.927   3.577 -0.6547  0.0220  0.3602
    8MOL0     H 1070   6.168   6.824   3.779 -1.2810  0.5430 -0.7519
    8MOL0     H 1071   6.286   6.848   3.653 -0.5186  0.9445 -3.5727
    8MOL0     H 1072   6.260   6.590   3.596  1.9322  0.8476  0.2845
    8MOL0     H 1073   6.167   6.582   3.743 -0.1721  1.5171  1.0297
    8MOL0     H 1074   6.385   6.724   3.828  0.6506  2.2857 -1.9942
    8MOL0     H 1075   6.379   6.553   3.828  3.1848  3.2830  2.7830
    8MOL0     H 1076   6.630   6.613   3.505 -0.1322 -0.0211  0.7663
    8MOL0     H 1077   6.249   6.587   3.317  1.1581 -0.8507 -1.1286
    8MOL0     H 1078   6.566   6.629   3.150  0.1219  2.6350  2.5640
    8MOL0     H 1079   6.460   6.537   3.246 -1.7197  1.2085  1.1843
    8MOL0     H 1080   6.417   6.574   3.067 -1.5439  2.5521  0.0126
    9MOL0     O 1081   8.159   5.992  10.106 -0.0516 -0.2714  0.7067
    9MOL0     C 1082   8.151   6.096  10.174 -0.2366 -0.1522  0.1052
    9MOL0     O 1083   8.257   6.185  10.208  0.0810  0.4784  0.2072
    9MOL0     C 1084   8.372   6.153  10.156 -0.1210 -0.5986 -0.1498
    9MOL0     C 1085   8.467   6.065  10.213  0.3737 -0.3075  0.2054
    9MOL0     C 1086   8.596   6.060  10.158 -0.1223 -0.1462 -0.4465
    9MOL0     C 1087   8.643   6.139  10.047  0.1020 -0.8501  0.0934
    9MOL0     O 1088   8.769   6.135   9.979  0.2447 -0.0542  0.5400
    9MOL0     C 1089   8.877   6.111  10.072 -0.2699 -0.6049 -0.2665
    9MOL0     C 1090   8.924   5.958  10.074  0.2200 -0.7845  0.0619
    9MOL0     C 1091   9.036   5.931  10.168 -0.9289  0.1553  0.5173
    9MOL0     C 1092   9.174   5.974  10.103 -0.2454  0.3213 -0.8740
    9MOL0     C 1093   9.281   5.975  10.207 -0.3752 -0.0733  0.0501
    9MOL0     C 1094   9.421   6.006  10.145  0.0028  0.1395 -0.2240
    9MOL0     C 1095   9.533   6.011  10.252 -0.2042 -0.5567  0.3392
    9MOL0     C 1096   9.662   5.941  10.190  0.5550 -0.2868  0.1352
    9MOL0     N 1097   9.770   5.955  10.286 -0.2430  0.3348  0.1329
    9MOL0     C 1098   9.778   5.886  10.410  0.5483  0.2716  0.0495
    9MOL0     C 1099   9.867   5.952  10.488  0.1049 -0.0285  0.3092
    9MOL0     C 1100   9.923   5.900  10.621 -0.0093 -0.1006  0.4251
    9MOL0     C 1101  10.024   5.783  10.603  0.1148  0.1343 -0.4693
    9MOL0     C 1102  10.062   5.720  10.738  0.5165  0.3495 -0.1941
    9MOL0     C 1103  10.109   5.811  10.844  0.2914  0.2975  1.0406
    9MOL0     O 1104  10.229   5.875  10.798  0.5623  0.1085  0.2493
    9MOL0     C 1105  10.299   5.967  10.879  0.1213  0.0456  0.6264
    9MOL0     C 1106  10.257   6.014  11.003  0.6493  0.3079  0.1586
    9MOL0     C 1107  10.330   6.098  11.077 -0.5015 -0.1838  1.0438
    9MOL0     C 1108  10.461   6.145  11.041  0.1173  0.1779 -0.4599
    9MOL0     C 1109  10.544   6.237  11.132  0.4055 -0.4587 -0.1334
    9MOL0     O 1110  10.669   6.284  11.092 -0.0467  0.0966 -0.5332
    9MOL0     C 1111  10.734   6.370  11.178 -0.1582  0.2328 -0.1504
    9MOL0     C 1112  10.786   6.329  11.298 -0.5715 -1.3766  0.2242
    9MOL0     C 1113  10.869   6.419  11.372  0.1715 -0.0629  0.0440
    9MOL0     C 1114  10.902   6.549  11.320 -0.3940 -0.1695 -0.7129
    9MOL0     O 1115  10.988   6.627  11.392 -0.8902  1.5212  0.0303
    9MOL0     C 1116  10.987   6.762  11.362 -0.1454  0.1664 -0.0701
    9MOL0     C 1117  11.063   6.840  11.474  0.5659  0.7680  0.5530
    9MOL0     C 1118  11.211   6.799  11.480  0.2641  0.0100  0.2534
    9MOL0     C 1119  11.278   6.886  11.584 -0.4071 -0.0258  0.6625
    9MOL0     C 1120  11.430   6.844  11.606 -1.0451 -0.3417 -1.0838
    9MOL0     C 1121  11.496   6.944  11.702 -0.1128  0.1114 -0.2076
    9MOL0     C 1122  11.648   6.933  11.685 -0.0787 -0.0464 -0.0582
    9MOL0     C 1123  11.698   7.027  11.568  0.2553 -0.0876  0.6836
    9MOL0    Cl 1124  11.865   7.072  11.612 -0.1734 -0.1757 -0.4737
    9MOL0     C 1125  10.862   6.585  11.191 -0.0562 -0.3842  0.2090
    9MOL0     C 1126  10.773   6.492  11.125  0.2262  0.8712  0.0768
    9MOL0     O 1127  10.498   6.263  11.241  0.2954 -0.0823 -0.1563
    9MOL0     C 1128  10.500   6.107  10.910  0.9268 -0.0545  0.3179
    9MOL0     C 1129  10.420   6.020  10.832  0.0799 -0.7720  0.3755
    9MOL0     N 1130   9.920   6.054  10.405  0.1882  0.1747  0.3528
    9MOL0     N 1131   9.871   6.050  10.287 -0.0764  0.3353  0.1592
    9MOL0     C 1132   8.546   6.224   9.993  0.3314 -0.4091  0.4791
    9MOL0     C 1133   8.417   6.227  10.046 -0.0701  0.7274 -0.6139
    9MOL0     C 1134   8.020   6.121  10.235  0.2705  0.2850 -0.3466
    9MOL0     C 1135   8.023   6.172  10.364  0.6776  0.2696  0.3230
    9MOL0     C 1136   7.901   6.203  10.427 -0.3142 -0.3373 -0.4036
    9MOL0     C 1137   7.781   6.178  10.368  0.2535  0.7611 -0.2894
    9MOL0     O 1138   7.670   6.207  10.437  0.4966 -0.9126  0.4534
    9MOL0     C 1139   7.579   6.306  10.387  0.1681 -0.3095  0.8905
    9MOL0     C 1140   7.452   6.306  10.467 -0.5529 -0.1739  0.2391
    9MOL0     C 1141   7.376   6.165  10.469 -0.0932  0.2724 -0.1681
    9MOL0     C 1142   7.245   6.175  10.539  0.4629 -0.5650 -0.4202
    9MOL0     C 1143   7.256   6.213  10.689  0.2237  0.4878  0.3295
    9MOL0     C 1144   7.260   6.234  10.806  0.2806  0.0271 -1.0534
    9MOL0     C 1145   7.776   6.120  10.243  0.2252  0.2271 -0.4694
    9MOL0     C 1146   7.899   6.092  10.172  0.8435 -0.6286  0.3559
    9MOL0     C 1147   7.884   6.050  10.025  0.9156  0.9803  0.2377
    9MOL0     H 1148   8.444   6.010  10.304  0.1296 -3.2988 -1.5343
    9MOL0     H 1149   8.672   6.003  10.209  2.7200  2.9215 -0.8958
    9MOL0     H 1150   8.960   6.173  10.036  1.1957 -2.3824 -0.0519
    9MOL0     H 1151   8.862   6.150  10.173  2.1809  1.2810 -0.5310
    9MOL0     H 1152   8.946   5.937   9.969 -1.1296  0.9598 -0.6154
    9MOL0     H 1153   8.838   5.900  10.107  0.2368 -0.2056  1.1499
    9MOL0     H 1154   9.047   5.823  10.177 -0.8121  0.1814  0.6766
    9MOL0     H 1155   9.024   5.982  10.264  1.7458 -3.2108  2.8742
    9MOL0     H 1156   9.180   5.893  10.031 -1.2249 -1.0333  0.5072
    9MOL0     H 1157   9.165   6.070  10.051 -0.4476  0.1531 -1.1500
    9MOL0     H 1158   9.259   6.054  10.279  0.6090  2.0367 -1.8473
    9MOL0     H 1159   9.287   5.883  10.266  2.1014  1.8465  3.1489
    9MOL0     H 1160   9.444   5.927  10.073  1.2453 -0.8800  1.2178
    9MOL0     H 1161   9.407   6.096  10.086  0.1843  1.1736  1.2550
    9MOL0     H 1162   9.503   5.959  10.343 -0.1740 -0.4082  0.4334
    9MOL0     H 1163   9.547   6.118  10.269 -0.8128  0.0185 -2.3048
    9MOL0     H 1164   9.631   5.838  10.170 -1.6349  0.8535 -3.1623
    9MOL0     H 1165   9.692   5.982  10.093  2.2701 -2.1983 -0.1984
    9MOL0     H 1166   9.725   5.797  10.442 -1.0080  0.6778 -1.2779
    9MOL0     H 1167   9.972   5.983  10.672  0.4248 -0.4949  0.6577
    9MOL0     H 1168   9.843   5.858  10.682  0.2366 -0.4721  0.4968
    9MOL0     H 1169   9.967   5.708  10.547 -0.0404 -0.1846  0.1089
    9MOL0     H 1170  10.111   5.810  10.542  0.0680 -1.7475 -1.4614
    9MOL0     H 1171  10.135   5.644  10.708 -0.8929 -1.2427  0.2338
    9MOL0     H 1172   9.977   5.663  10.776  0.2762  0.4785 -0.5331
    9MOL0     H 1173  10.126   5.755  10.936 -0.6784 -3.7011 -0.9713
    9MOL0     H 1174  10.028   5.883  10.858 -1.9335 -1.5498 -1.3094
    9MOL0     H 1175  10.163   5.980  11.044  0.4682  0.3812 -0.1987
    9MOL0     H 1176  10.288   6.133  11.171 -1.6329 -3.5361  1.9190
    9MOL0     H 1177  10.749   6.231  11.325  0.3324 -2.7386 -3.0790
    9MOL0     H 1178  10.906   6.384  11.468 -2.5355  0.4462  1.3669
    9MOL0     H 1179  11.025   6.776  11.260  2.4112 -0.4004  0.7128
    9MOL0     H 1180  10.885   6.800  11.370  0.4927  1.9407  0.1189
    9MOL0     H 1181  11.048   6.948  11.468 -2.4468  0.3974 -0.0878
    9MOL0     H 1182  11.016   6.811  11.568  0.4901 -0.0347  0.2709
    9MOL0     H 1183  11.233   6.695  11.507  3.1000  0.4532 -0.0713
    9MOL0     H 1184  11.251   6.823  11.381 -0.8753  0.8697 -0.0292
    9MOL0     H 1185  11.231   6.882  11.683  0.9086 -0.4151  1.2908
    9MOL0     H 1186  11.284   6.989  11.547 -2.4243 -0.1221 -0.0660
    9MOL0     H 1187  11.491   6.829  11.517 -1.3634  0.4684 -1.4488
    9MOL0     H 1188  11.433   6.749  11.660 -0.4978  0.0578 -0.3967
    9MOL0     H 1189  11.463   7.048  11.689 -0.4603 -0.1460 -1.4589
    9MOL0     H 1190  11.485   6.916  11.807  1.5741 -1.7911 -0.4780
    9MOL0     H 1191  11.681   6.832  11.660  0.1758 -0.4741  1.8743
    9MOL0     H 1192  11.695   6.977  11.773  0.8247 -1.5282  0.2237
    9MOL0     H 1193  11.691   6.961  11.481  1.4597 -1.3222  1.4720
    9MOL0     H 1194  11.632   7.114  11.561  3.4888  2.5594  1.0077
    9MOL0     H 1195  10.887   6.673  11.132 -0.2771  0.3186  1.1397
    9MOL0     H 1196  10.737   6.532  11.030 -0.3147 -0.5886 -0.3487
    9MOL0     H 1197  10.592   6.150  10.872 -1.0162  1.2713 -3.4279
    9MOL0     H 1198  10.454   5.990  10.733 -0.1567 -0.6152  0.2458
    9MOL0     H 1199   8.570   6.295   9.914 -3.5287  3.0108  2.0234
    9MOL0     H 1200   8.347   6.301  10.008  0.3635  1.7710  0.5772
    9MOL0     H 1201   8.118   6.197  10.410 -0.3616  2.5346  1.4485
    9MOL0     H 1202   7.918   6.232  10.530  1.9769 -0.5637 -0.6564
    9MOL0     H 1203   7.564   6.282  10.282 -2.6619 -0.3060  1.2264
    9MOL0     H 1204   7.623   6.406  10.389 -1.3569  0.4407 -0.8213
    9MOL0     H 1205   7.386   6.377  10.417  0.1207  0.4133  0.1727
    9MOL0     H 1206   7.476   6.340  10.568 -4.1623 -1.3452  1.6327
    9MOL0     H 1207   7.439   6.092  10.522 -1.8344 -0.2022  1.3253
    9MOL0     H 1208   7.350   6.129  10.369  0.1737 -4.5285  1.2277
    9MOL0     H 1209   7.188   6.245  10.477  1.2510 -0.9794 -1.6398
    9MOL0     H 1210   7.200   6.076  10.525 -0.3165 -0.0309 -1.8994
    9MOL0     H 1211   7.275   6.252  10.911 -0.6153 -0.9608 -0.7455
    9MOL0     H 1212   7.683   6.105  10.188  0.8284  0.7452 -1.6677
    9MOL0     H 1213   7.927   5.950  10.017  2.4905  1.6849 -0.3754
    9MOL0     H 1214   7.779   6.050   9.993  1.5270  1.2577 -1.8858
    9MOL0     H 1215   7.938   6.120   9.961 -1.6069  2.0782 -0.8389
   10MOL0     O 1216  11.086   9.446   5.258 -0.2515  0.1310  0.0419
   10MOL0     C 1217  11.002   9.532   5.240 -0.0534  0.2266  0.9833
   10MOL0     O 1218  11.010   9.619   5.142  0.1650 -0.7571 -0.8265
   10MOL0     C 1219  11.103   9.595   5.044  0.8213 -0.5713 -0.3210
   10MOL0     C 1220  11.071   9.498   4.956 -0.7448 -0.1095  0.4877
   10MOL0     C 1221  11.167   9.471   4.857  0.0666 -0.4729  0.1179
   10MOL0     C 1222  11.279   9.552   4.828  0.1559  0.1546 -0.4106
   10MOL0     O 1223  11.369   9.518   4.732  0.2293  0.7243  0.4989
   10MOL0     C 1224  11.492   9.591   4.715  0.3570 -0.3156 -0.5925
   10MOL0     C 1225  11.593   9.497   4.644 -0.9540  0.7159  0.0886
   10MOL0     C 1226  11.728   9.571   4.610 -0.0557  0.3192 -0.4943
   10MOL0     C 1227  11.832   9.549   4.720 -0.3517 -0.2922  0.3258
   10MOL0     C 1228  11.963   9.623   4.667  0.4570  0.6321  0.2499
   10MOL0     C 1229  12.060   9.604   4.783  1.0042 -0.0462 -0.2250
   10MOL0     C 1230  12.179   9.694   4.762  0.0408  0.0517  0.0822
   10MOL0     C 1231  12.285   9.640   4.866 -0.1041 -0.4680 -0.8156
   10MOL0     N 1232  12.422   9.685   4.834 -0.0404 -0.2075 -1.0026
   10MOL0     C 1233  12.449   9.814   4.838 -0.4951  0.2428 -0.4213
   10MOL0     C 1234  12.585   9.819   4.799  0.3581  0.2849 -0.2054
   10MOL0     C 1235  12.654   9.949   4.777 -0.7926 -0.8251  0.6911
   10MOL0     C 1236  12.727   9.956   4.638  0.2439 -0.7152  0.3313
   10MOL0     C 1237  12.650  10.005   4.520 -0.2952 -0.2445 -0.3368
   10MOL0     C 1238  12.571   9.892   4.447 -0.3974  0.2083 -0.3280
   10MOL0     O 1239  12.453   9.939   4.380  0.2675  0.0458  0.1169
   10MOL0     C 1240  12.362   9.843   4.343  0.9271  0.0905  0.3318
   10MOL0     C 1241  12.239   9.849   4.396  0.7263 -0.0556  0.6642
   10MOL0     C 1242  12.136   9.751   4.358 -0.5128 -0.3714 -0.8030
   10MOL0     C 1243  12.169   9.645   4.278 -0.0333 -0.5704 -0.6431
   10MOL0     C 1244  12.065   9.533   4.250  0.5775 -0.7711 -0.7922
   10MOL0     O 1245  12.103   9.420   4.188 -0.4450 -0.7483  0.5311
   10MOL0     C 1246  12.016   9.333   4.132  0.1077 -0.2144  0.0141
   10MOL0     C 1247  11.895   9.367   4.059  0.0490  0.1292 -0.6171
   10MOL0     C 1248  11.820   9.263   4.002  0.1252  0.7304  0.3075
   10MOL0     C 1249  11.858   9.129   4.006  1.2985  0.6290 -0.4378
   10MOL0     O 1250  11.778   9.045   3.935  0.5515 -0.7315 -0.4244
   10MOL0     C 1251  11.763   8.911   3.982 -0.1890 -0.4955  0.4498
   10MOL0     C 1252  11.654   8.841   3.904 -0.1522 -0.2552  0.4687
   10MOL0     C 1253  11.516   8.881   3.963 -0.1582  0.3146 -0.1051
   10MOL0     C 1254  11.491   8.805   4.094  0.2455  0.3859 -0.3305
   10MOL0     C 1255  11.341   8.807   4.122 -0.6130  1.1045  0.2647
   10MOL0     C 1256  11.299   8.722   4.250  0.0780 -0.5944 -0.7786
   10MOL0     C 1257  11.312   8.569   4.234 -0.5668 -0.8827 -1.0724
   10MOL0     C 1258  11.188   8.501   4.196  0.8347  0.0072 -0.0941
   10MOL0    Cl 1259  11.198   8.331   4.145  0.0967  0.2934  0.2252
   10MOL0     C 1260  11.981   9.090   4.060 -0.0302  0.1636 -0.0875
   10MOL0     C 1261  12.053   9.191   4.128 -0.1705 -0.0168  0.1966
   10MOL0     O 1262  11.958   9.551   4.303  0.8065  0.9586  0.9526
   10MOL0     C 1263  12.301   9.635   4.230 -0.2263 -0.0729  0.3115
   10MOL0     C 1264  12.395   9.740   4.259  0.2445 -0.4703 -1.0431
   10MOL0     N 1265  12.627   9.693   4.763  0.7028 -0.4620  0.3095
   10MOL0     N 1266  12.523   9.616   4.777  0.4427  0.3078  0.7194
   10MOL0     C 1267  11.292   9.659   4.919 -0.2229 -0.3972  0.2366
   10MOL0     C 1268  11.203   9.689   5.024 -0.5051  1.0030 -0.0531
   10MOL0     C 1269  10.896   9.542   5.334  0.3895 -1.1244  0.6825
   10MOL0     C 1270  10.917   9.496   5.467 -0.1082 -0.6355 -0.4552
   10MOL0     C 1271  10.818   9.493   5.553  0.2138  0.2167  0.0856
   10MOL0     C 1272  10.688   9.539   5.525 -0.2123  0.7918  0.6866
   10MOL0     O 1273  10.593   9.532   5.620 -0.3343  0.2028  0.0315
   10MOL0     C 1274  10.475   9.613   5.612 -0.4652  0.3691  0.2043
   10MOL0     C 1275  10.411   9.633   5.746  0.7067  0.3508 -0.8450
   10MOL0     C 1276  10.370   9.507   5.826  0.0565 -0.4436  0.4965
   10MOL0     C 1277  10.254   9.433   5.755  0.3550 -0.2477  0.5242
   10MOL0     C 1278  10.219   9.307   5.823 -0.2376  0.7224  0.5280
   10MOL0     C 1279  10.177   9.202   5.872  0.8103  0.5416  0.0125
   10MOL0     C 1280  10.667   9.595   5.400 -0.1825 -0.4669  0.1364
   10MOL0     C 1281  10.769   9.598   5.300  0.6461  0.2502 -0.7637
   10MOL0     C 1282  10.728   9.654   5.169  0.6826  0.4781 -0.2627
   10MOL0     H 1283  10.983   9.436   4.962 -0.1030 -1.0610  0.3132
   10MOL0     H 1284  11.165   9.378   4.802  2.7535 -0.3190 -0.4012
   10MOL0     H 1285  11.481   9.686   4.661 -1.8044 -0.1843 -0.0187
   10MOL0     H 1286  11.522   9.621   4.816 -0.3673 -1.6051  0.0298
   10MOL0     H 1287  11.541   9.468   4.552  0.2059  0.3573 -0.4704
   10MOL0     H 1288  11.621   9.406   4.699 -1.7764 -0.0664 -0.7407
   10MOL0     H 1289  11.711   9.679   4.613  3.5478  0.9815  0.2456
   10MOL0     H 1290  11.766   9.541   4.512 -0.9805  1.8334 -1.3734
   10MOL0     H 1291  11.796   9.595   4.812  0.4491 -0.0413  0.5212
   10MOL0     H 1292  11.855   9.442   4.729 -4.2801 -1.6892 -3.1097
   10MOL0     H 1293  11.987   9.578   4.571 -2.6369  1.5618 -1.1057
   10MOL0     H 1294  11.940   9.729   4.652 -2.0453  0.7357  3.5086
   10MOL0     H 1295  12.007   9.620   4.877 -1.7675  0.6186 -1.8012
   10MOL0     H 1296  12.089   9.498   4.786  0.3540 -0.2061  1.7739
   10MOL0     H 1297  12.160   9.797   4.794  0.9168  0.8907 -1.9250
   10MOL0     H 1298  12.205   9.686   4.656 -0.5662 -1.8713  0.0366
   10MOL0     H 1299  12.259   9.683   4.963  3.4343  0.2448 -0.0735
   10MOL0     H 1300  12.284   9.531   4.869  1.7916 -0.4780  0.6244
   10MOL0     H 1301  12.384   9.898   4.860  1.0291  2.2933 -3.1435
   10MOL0     H 1302  12.594  10.040   4.787 -0.9027 -0.4226 -2.4439
   10MOL0     H 1303  12.733   9.957   4.853  0.9775  0.0512 -1.1371
   10MOL0     H 1304  12.802  10.034   4.651  1.4504 -1.5837 -1.0887
   10MOL0     H 1305  12.779   9.862   4.615  0.3777 -0.1252 -2.0609
   10MOL0     H 1306  12.711  10.050   4.441 -0.7158 -2.3000 -1.9337
   10MOL0     H 1307  12.574  10.078   4.551 -0.7375  0.1226 -2.1664
   10MOL0     H 1308  12.541   9.815   4.518 -1.8439  1.7211  0.7623
   10MOL0     H 1309  12.643   9.847   4.378  0.1336  0.3118  0.1467
   10MOL0     H 1310  12.228   9.929   4.469  1.9605  0.7975 -0.0541
   10MOL0     H 1311  12.038   9.761   4.402 -1.6927 -1.1364 -3.0899
   10MOL0     H 1312  11.847   9.463   4.073  0.2290  0.2842 -1.0450
   10MOL0     H 1313  11.735   9.294   3.942 -0.8395 -0.7691  0.8505
   10MOL0     H 1314  11.860   8.864   3.965  0.0767  0.0003  0.5528
   10MOL0     H 1315  11.749   8.925   4.090  2.1122  2.3155  0.5123
   10MOL0     H 1316  11.660   8.869   3.798  3.8293  0.0227  0.5887
   10MOL0     H 1317  11.671   8.733   3.909  0.4157 -0.2269 -0.6526
   10MOL0     H 1318  11.508   8.989   3.983 -0.0040  0.4296 -0.6574
   10MOL0     H 1319  11.438   8.858   3.890  0.3481 -2.1942  0.0580
   10MOL0     H 1320  11.549   8.838   4.181  0.8649 -0.3497 -0.4518
   10MOL0     H 1321  11.535   8.708   4.068  1.0372  0.7771 -0.4710
   10MOL0     H 1322  11.294   8.781   4.027  2.3594 -1.6282 -0.6226
   10MOL0     H 1323  11.312   8.911   4.138  0.9818  1.7442 -0.7816
   10MOL0     H 1324  11.368   8.759   4.325 -1.7885  0.7595  0.3568
   10MOL0     H 1325  11.212   8.761   4.303 -0.0594  0.1123 -1.5078
   10MOL0     H 1326  11.350   8.532   4.330 -0.4300 -0.2144 -0.8631
   10MOL0     H 1327  11.394   8.549   4.165  0.6330 -0.8632  0.2891
   10MOL0     H 1328  11.106   8.499   4.269  0.1948 -2.8277 -0.7573
   10MOL0     H 1329  11.135   8.551   4.114  0.7669  1.8766  1.0420
   10MOL0     H 1330  12.021   8.989   4.055  0.3531  0.1087  2.7758
   10MOL0     H 1331  12.152   9.163   4.164 -0.5607 -0.2201  1.1475
   10MOL0     H 1332  12.345   9.548   4.183  1.4050  0.1716  1.3345
   10MOL0     H 1333  12.496   9.715   4.228 -0.0370  0.3129 -2.7159
   10MOL0     H 1334  11.372   9.731   4.907 -1.0027  0.4023 -0.3574
   10MOL0     H 1335  11.219   9.774   5.091 -0.5691  1.3816 -0.5122
   10MOL0     H 1336  11.018   9.468   5.498  0.3705  1.5421  0.1736
   10MOL0     H 1337  10.842   9.458   5.653 -0.5886  0.7387  0.4764
   10MOL0     H 1338  10.407   9.565   5.541 -1.3516  1.4337  0.3072
   10MOL0     H 1339  10.485   9.716   5.577 -1.0777  0.5992  0.6932
   10MOL0     H 1340  10.320   9.691   5.727  0.0099 -1.2304 -2.6103
   10MOL0     H 1341  10.480   9.694   5.805 -1.0079  2.2167 -0.6511
   10MOL0     H 1342  10.327   9.534   5.923 -3.6017  1.6089 -1.4791
   10MOL0     H 1343  10.460   9.445   5.835  0.7744  0.4112 -0.4814
   10MOL0     H 1344  10.167   9.500   5.749 -0.2247 -1.0868 -1.0768
   10MOL0     H 1345  10.276   9.411   5.651  2.4852 -3.6868  1.5391
   10MOL0     H 1346  10.157   9.103   5.906 -0.6866  1.4487  2.0522
   10MOL0     H 1347  10.568   9.632   5.375 -0.4579 -0.1435  1.6358
   10MOL0     H 1348  10.631   9.705   5.174  0.9693  0.9528  0.9061
   10MOL0     H 1349  10.799   9.728   5.132  0.2947  0.8284 -0.3278
   10MOL0     H 1350  10.731   9.575   5.093 -1.0551 -1.4671  1.5504
   11MOL0     O 1351   0.485   9.197   2.162  0.0365 -0.1733  0.5292
   11MOL0     C 1352   0.423   9.141   2.255 -0.1903  0.0886  0.2979
   11MOL0     O 1353   0.484   9.083   2.367  0.2405 -0.6157 -0.5977
   11MOL0     C 1354   0.619   9.069   2.368 -0.3836 -0.9147 -0.6164
   11MOL0     C 1355   0.688   8.985   2.286 -0.9179 -0.5816  0.0521
   11MOL0     C 1356   0.825   8.966   2.281  0.2600  0.1194 -0.0301
   11MOL0     C 1357   0.904   9.039   2.372 -1.2131  0.4124 -0.3031
   11MOL0     O 1358   1.043   9.030   2.379 -0.2230 -0.3248  0.1420
   11MOL0     C 1359   1.114   8.908   2.365 -0.4487 -0.1839  0.1076
   11MOL0     C 1360   1.245   8.927   2.447 -0.1456  0.1862 -0.6158
   11MOL0     C 1361   1.339   8.815   2.422 -0.4078  0.5290 -0.7492
   11MOL0     C 1362   1.472   8.838   2.501  0.5596 -1.0628 -0.1653
   11MOL0     C 1363   1.575   8.723   2.499  0.7710 -0.5561  0.8166
   11MOL0     C 1364   1.702   8.756   2.569 -0.2616  0.9042  1.0734
   11MOL0     C 1365   1.691   8.777   2.722 -0.3457  0.2111  0.2618
   11MOL0     C 1366   1.822   8.851   2.772  1.0794  0.5062 -0.5494
   11MOL0     N 1367   1.839   8.984   2.719  0.3298 -0.1138  0.0545
   11MOL0     C 1368   1.739   9.062   2.673  0.2497 -1.1230 -0.4152
   11MOL0     C 1369   1.800   9.172   2.621 -0.2876  0.8013  0.4983
   11MOL0     C 1370   1.717   9.290   2.556 -0.1415  0.2880  0.7761
   11MOL0     C 1371   1.652   9.250   2.418 -1.1538  0.6174 -0.4856
   11MOL0     C 1372   1.755   9.220   2.301  0.2065 -0.4033 -0.6706
   11MOL0     C 1373   1.830   9.338   2.258 -0.4950  0.8974 -0.4849
   11MOL0     O 1374   1.917   9.280   2.162 -0.3546  0.6591 -0.4423
   11MOL0     C 1375   2.049   9.261   2.186  0.7605  0.4005 -0.5050
   11MOL0     C 1376   2.104   9.248   2.318  0.4789 -0.7020 -0.0958
   11MOL0     C 1377   2.237   9.213   2.343 -0.1241 -0.2964  0.5482
   11MOL0     C 1378   2.326   9.191   2.231  0.0917  0.2762 -0.9973
   11MOL0     C 1379   2.466   9.150   2.261  0.0236  0.2251  0.1400
   11MOL0     O 1380   2.530   9.112   2.148 -0.2043  0.3348 -0.5286
   11MOL0     C 1381   2.648   9.033   2.171 -0.5123  0.4025  0.5291
   11MOL0     C 1382   2.656   8.916   2.251 -0.3968 -0.0892  0.7807
   11MOL0     C 1383   2.767   8.839   2.252 -0.4115 -0.1287 -0.6000
   11MOL0     C 1384   2.874   8.867   2.173  0.6250 -0.2237  0.0876
   11MOL0     O 1385   2.969   8.768   2.172 -0.5094 -0.4989 -0.3669
   11MOL0     C 1386   3.107   8.816   2.138  0.3951  0.1126  1.1946
   11MOL0     C 1387   3.203   8.703   2.178 -0.6604 -0.2265 -1.0835
   11MOL0     C 1388   3.342   8.769   2.217 -0.1623 -0.9820  0.7262
   11MOL0     C 1389   3.416   8.674   2.316 -0.8616  0.1666  0.2607
   11MOL0     C 1390   3.460   8.542   2.247  0.0302 -0.3030  0.0604
   11MOL0     C 1391   3.513   8.434   2.347  0.4995 -0.8485 -0.2119
   11MOL0     C 1392   3.646   8.483   2.391  0.3701  0.0956 -0.3025
   11MOL0     C 1393   3.716   8.384   2.480  0.1582  1.1406 -0.7252
   11MOL0    Cl 1394   3.889   8.446   2.503 -0.3697  0.3193  0.0370
   11MOL0     C 1395   2.866   8.977   2.090 -1.1115  0.1724  0.2996
   11MOL0     C 1396   2.755   9.058   2.084  0.8724 -0.1162  0.2955
   11MOL0     O 1397   2.515   9.150   2.372  0.2781 -0.8576  0.1654
   11MOL0     C 1398   2.270   9.216   2.099  1.0230  0.7990 -0.1659
   11MOL0     C 1399   2.136   9.238   2.077 -0.2716  0.6132 -0.4611
   11MOL0     N 1400   1.937   9.145   2.620  0.1457  0.2266  0.3456
   11MOL0     N 1401   1.959   9.032   2.680 -0.3213 -0.1636  0.2223
   11MOL0     C 1402   0.835   9.115   2.468  0.6256  0.5123 -0.1610
   11MOL0     C 1403   0.700   9.134   2.463  0.2021 -0.3319 -0.1403
   11MOL0     C 1404   0.276   9.136   2.250  0.2578 -0.3357  2.3367
   11MOL0     C 1405   0.207   9.036   2.304  0.8445 -0.0996  0.1154
   11MOL0     C 1406   0.068   9.019   2.301  0.4381 -0.3725 -0.4733
   11MOL0     C 1407  -0.003   9.118   2.237 -0.2107 -0.2155 -0.7566
   11MOL0     O 1408  -0.142   9.121   2.239  0.0953 -0.0631  0.7066
   11MOL0     C 1409  -0.228   9.010   2.282 -0.5545  0.6625 -0.6525
   11MOL0     C 1410  -0.366   9.078   2.310  0.1908 -0.0177  0.3628
   11MOL0     C 1411  -0.486   8.985   2.288  0.0742  0.4031  0.3978
   11MOL0     C 1412  -0.606   9.076   2.286  0.2556 -0.5756  0.1959
   11MOL0     C 1413  -0.730   9.004   2.254 -0.4009 -0.3138 -0.6402
   11MOL0     C 1414  -0.845   8.961   2.231 -0.8681  0.1086 -0.4766
   11MOL0     C 1415   0.059   9.219   2.174 -1.0138 -0.1840  0.4780
   11MOL0     C 1416   0.201   9.241   2.180 -1.0569 -0.4614 -0.1739
   11MOL0     C 1417   0.260   9.377   2.134 -0.4413 -0.2725 -0.7028
   11MOL0     H 1418   0.636   8.916   2.220 -1.2329  0.1623 -0.4807
   11MOL0     H 1419   0.861   8.889   2.213  0.3028 -1.7745  1.9973
   11MOL0     H 1420   1.056   8.827   2.411 -1.3734 -0.3210 -1.2329
   11MOL0     H 1421   1.136   8.870   2.265  1.4879 -2.7406  1.3870
   11MOL0     H 1422   1.224   8.944   2.553 -0.5235 -0.5449 -0.5656
   11MOL0     H 1423   1.290   9.017   2.404 -1.0383  1.6548  1.3623
   11MOL0     H 1424   1.365   8.797   2.318  0.2923  0.1477 -0.5154
   11MOL0     H 1425   1.294   8.722   2.460  0.4805  0.9157  1.4521
   11MOL0     H 1426   1.523   8.926   2.461 -2.2489 -0.1275 -2.0392
   11MOL0     H 1427   1.441   8.855   2.604 -0.4568 -1.5363 -0.3778
   11MOL0     H 1428   1.529   8.632   2.538 -0.1295 -0.4631  0.0262
   11MOL0     H 1429   1.600   8.698   2.395 -0.9193 -1.0308  0.5010
   11MOL0     H 1430   1.768   8.672   2.548 -0.1266  1.2355  0.1595
   11MOL0     H 1431   1.735   8.849   2.522 -0.1225 -0.5173 -1.8692
   11MOL0     H 1432   1.677   8.680   2.771 -0.6555  0.1659  0.0860
   11MOL0     H 1433   1.605   8.840   2.745 -0.5447  1.6135 -3.5488
   11MOL0     H 1434   1.826   8.845   2.882 -0.7414 -1.3011 -0.5243
   11MOL0     H 1435   1.913   8.796   2.747  1.0924  0.6567 -0.8333
   11MOL0     H 1436   1.633   9.045   2.682 -0.3320  2.1486  0.1911
   11MOL0     H 1437   1.638   9.324   2.622  0.6258  0.3948  1.6511
   11MOL0     H 1438   1.787   9.369   2.526 -0.6304  1.2527  2.1198
   11MOL0     H 1439   1.592   9.159   2.434  2.9430 -2.1887  0.5321
   11MOL0     H 1440   1.592   9.334   2.381  2.7889  3.6917 -0.5121
   11MOL0     H 1441   1.701   9.180   2.215 -0.9505  2.5739 -1.4556
   11MOL0     H 1442   1.831   9.148   2.333 -0.1195 -0.0662  0.9725
   11MOL0     H 1443   1.870   9.394   2.343 -0.0393 -1.3473  0.8437
   11MOL0     H 1444   1.766   9.408   2.203  0.5299  0.8122 -1.8244
   11MOL0     H 1445   2.034   9.255   2.401  1.0554  1.8956  0.2559
   11MOL0     H 1446   2.262   9.195   2.447  1.9244 -1.1598 -0.0280
   11MOL0     H 1447   2.578   8.896   2.324 -0.3623 -0.6345  0.6763
   11MOL0     H 1448   2.768   8.748   2.311 -0.5590 -1.2440 -2.2453
   11MOL0     H 1449   3.120   8.842   2.032  0.2096  0.2969  1.2161
   11MOL0     H 1450   3.119   8.905   2.200  2.9983 -0.4614  1.6268
   11MOL0     H 1451   3.161   8.654   2.267 -2.4159  1.5673 -0.8405
   11MOL0     H 1452   3.210   8.624   2.103  0.0015 -1.4635  0.2284
   11MOL0     H 1453   3.407   8.795   2.133  0.0454  1.2811  1.5467
   11MOL0     H 1454   3.317   8.866   2.261 -1.5004 -0.0542 -1.8481
   11MOL0     H 1455   3.358   8.645   2.404 -0.4373 -2.0596 -0.1332
   11MOL0     H 1456   3.506   8.725   2.352 -0.1808 -0.5188 -0.4403
   11MOL0     H 1457   3.536   8.560   2.170  0.7713  1.7341  1.2085
   11MOL0     H 1458   3.371   8.495   2.204 -0.2410  0.0146  0.2764
   11MOL0     H 1459   3.438   8.409   2.423  0.2118 -1.5951 -0.7237
   11MOL0     H 1460   3.515   8.340   2.290 -3.0652 -0.8567 -0.5684
   11MOL0     H 1461   3.634   8.572   2.452  2.4903  0.8183 -0.8647
   11MOL0     H 1462   3.717   8.497   2.310  1.0353 -2.4584 -0.2600
   11MOL0     H 1463   3.657   8.379   2.571  0.7693 -1.1403 -0.3843
   11MOL0     H 1464   3.716   8.285   2.433 -1.9112  0.0812  1.3036
   11MOL0     H 1465   2.951   9.003   2.029 -1.1135  0.2404  0.3261
   11MOL0     H 1466   2.751   9.139   2.011 -0.1543  1.8703  2.4159
   11MOL0     H 1467   2.325   9.184   2.010 -2.6651  2.1338 -3.2012
   11MOL0     H 1468   2.091   9.226   1.979 -1.6663  1.6356  0.0100
   11MOL0     H 1469   0.908   9.157   2.536  1.2214 -1.8135  0.7243
   11MOL0     H 1470   0.669   9.196   2.547  2.5044 -0.0300  0.5671
   11MOL0     H 1471   0.259   8.946   2.336  1.4510  0.0765 -0.3560
   11MOL0     H 1472   0.017   8.933   2.343  1.5907 -0.8461 -0.0261
   11MOL0     H 1473  -0.202   8.970   2.381 -1.9824 -0.4377 -0.6838
   11MOL0     H 1474  -0.227   8.926   2.213 -0.3287 -1.2818  1.5980
   11MOL0     H 1475  -0.379   9.156   2.234  0.2769  0.8202  1.1939
   11MOL0     H 1476  -0.360   9.131   2.405  1.8849  1.1034 -0.3267
   11MOL0     H 1477  -0.492   8.916   2.373  1.0911  0.1307  0.2618
   11MOL0     H 1478  -0.467   8.928   2.197 -1.6636 -0.5014  0.5682
   11MOL0     H 1479  -0.632   9.112   2.386  0.3848 -1.0293  0.3951
   11MOL0     H 1480  -0.580   9.164   2.226  2.1083 -1.3348 -0.1934
   11MOL0     H 1481  -0.946   8.933   2.208 -0.6817 -0.2821 -0.8293
   11MOL0     H 1482  -0.004   9.286   2.116 -0.2879  1.3134  1.3606
   11MOL0     H 1483   0.173   9.429   2.093 -1.0125 -0.0731  0.7221
   11MOL0     H 1484   0.301   9.434   2.217 -0.8283  1.2759 -1.5339
   11MOL0     H 1485   0.332   9.362   2.053  1.2714  4.6243 -0.3640
   12MOL0     O 1486   3.137   9.251   2.836  0.0839  1.4303 -0.4328
   12MOL0     C 1487   3.067   9.341   2.882  0.0779 -0.4470 -0.4167
   12MOL0     O 1488   3.088   9.408   3.002  0.0220 -0.1365 -0.0211
   12MOL0     C 1489   3.148   9.334   3.095  0.2408  0.5719  0.3665
   12MOL0     C 1490   3.080   9.304   3.213 -0.0947  0.9722 -0.4329
   12MOL0     C 1491   3.138   9.227   3.311  0.0176  0.0114 -0.6666
   12MOL0     C 1492   3.265   9.169   3.291 -0.0863 -0.1524 -0.0533
   12MOL0     O 1493   3.336   9.087   3.380 -0.3726  0.3171  0.1890
   12MOL0     C 1494   3.268   9.042   3.501  0.7440  1.1997 -0.6434
   12MOL0     C 1495   3.359   8.938   3.579  0.2182 -0.0225  0.8089
   12MOL0     C 1496   3.471   9.012   3.658  0.4176  0.0311 -0.4932
   12MOL0     C 1497   3.584   9.050   3.567 -0.4735 -0.8521 -0.5106
   12MOL0     C 1498   3.707   9.086   3.657 -0.5701 -0.9245 -0.1326
   12MOL0     C 1499   3.806   8.970   3.682  0.0045  0.1719 -0.2377
   12MOL0     C 1500   3.939   9.036   3.735 -0.2048  0.6997  0.1691
   12MOL0     C 1501   3.933   9.090   3.878 -0.1406 -0.5343  0.2504
   12MOL0     N 1502   4.058   9.148   3.913 -0.7508  0.9762  0.4902
   12MOL0     C 1503   4.113   9.265   3.870  0.1542  0.5390  0.2007
   12MOL0     C 1504   4.250   9.254   3.896  0.2898  0.7505 -0.1366
   12MOL0     C 1505   4.354   9.358   3.872 -0.2584 -0.0576 -0.2831
   12MOL0     C 1506   4.491   9.299   3.908  0.2758 -0.5349  0.1331
   12MOL0     C 1507   4.595   9.406   3.881  0.5774 -1.0121 -0.2789
   12MOL0     C 1508   4.717   9.395   3.968 -0.1686 -0.0138 -0.1936
   12MOL0     O 1509   4.791   9.285   3.917  0.0318  0.9738 -0.7707
   12MOL0     C 1510   4.897   9.235   3.998  0.4909 -0.1254  0.2851
   12MOL0     C 1511   4.977   9.154   3.928 -0.1163  0.7713 -0.0192
   12MOL0     C 1512   5.092   9.094   3.983 -0.7635 -0.5405 -0.2031
   12MOL0     C 1513   5.122   9.128   4.118  0.1484 -0.0269 -0.1096
   12MOL0     C 1514   5.238   9.073   4.186  0.4519 -0.4766  0.1458
   12MOL0     O 1515   5.313   8.979   4.123  0.1187  0.2428 -0.8084
   12MOL0     C 1516   5.427   8.939   4.191  0.2338 -0.1510 -0.3162
   12MOL0     C 1517   5.548   8.970   4.134  0.0215  0.1051  0.1860
   12MOL0     C 1518   5.673   8.943   4.198  0.1424 -0.2331  0.3067
   12MOL0     C 1519   5.674   8.874   4.322 -0.1817  0.5294  0.3924
   12MOL0     O 1520   5.799   8.833   4.379  0.2978 -0.4721 -0.9839
   12MOL0     C 1521   5.802   8.795   4.513  0.2824 -0.5254  0.0566
   12MOL0     C 1522   5.955   8.780   4.547  0.1644 -0.1448  0.1663
   12MOL0     C 1523   6.028   8.684   4.447  0.2998 -0.2062 -0.3908
   12MOL0     C 1524   6.178   8.655   4.484  1.2434 -0.4355 -0.2455
   12MOL0     C 1525   6.240   8.576   4.377  0.5514 -0.2912  0.9027
   12MOL0     C 1526   6.378   8.526   4.422 -0.1877 -0.1084 -0.0126
   12MOL0     C 1527   6.465   8.457   4.319  0.0227  0.2767  0.0501
   12MOL0     C 1528   6.537   8.350   4.399  0.3640  0.3931  0.3807
   12MOL0    Cl 1529   6.632   8.426   4.542 -0.0169  0.5182 -0.0244
   12MOL0     C 1530   5.552   8.849   4.379 -0.3437  0.4750  0.2670
   12MOL0     C 1531   5.431   8.884   4.320 -0.2366 -0.8385 -0.1735
   12MOL0     O 1532   5.268   9.127   4.290 -0.2918 -0.0875 -0.2438
   12MOL0     C 1533   5.036   9.218   4.196 -0.1970  0.1519 -0.4363
   12MOL0     C 1534   4.928   9.279   4.131 -0.6055  0.7062 -0.5249
   12MOL0     N 1535   4.274   9.131   3.959  0.4595  0.7937  0.0702
   12MOL0     N 1536   4.163   9.064   3.957 -0.1827 -1.3233  0.3481
   12MOL0     C 1537   3.329   9.198   3.174 -0.8743  0.2869  0.8741
   12MOL0     C 1538   3.277   9.283   3.083  0.3734 -0.1862  1.1941
   12MOL0     C 1539   2.953   9.386   2.802  0.7341  0.0167 -0.6015
   12MOL0     C 1540   2.887   9.509   2.835 -0.7710 -0.2829  0.4956
   12MOL0     C 1541   2.773   9.549   2.763  0.4117 -0.4125  0.1654
   12MOL0     C 1542   2.704   9.472   2.664  0.5130 -0.7684  0.4591
   12MOL0     O 1543   2.604   9.534   2.588 -0.2088 -0.0403 -0.4821
   12MOL0     C 1544   2.522   9.444   2.511  0.2153  1.0064 -0.4147
   12MOL0     C 1545   2.384   9.504   2.484  0.6082  0.0802  0.1050
   12MOL0     C 1546   2.282   9.498   2.594  0.1505  0.2448 -0.2894
   12MOL0     C 1547   2.139   9.549   2.555  0.2081 -0.4625 -0.0096
   12MOL0     C 1548   2.044   9.524   2.662  0.8153  0.5945  0.4528
   12MOL0     C 1549   1.958   9.524   2.740  0.7802  0.3406 -0.3951
   12MOL0     C 1550   2.770   9.352   2.641 -0.4545 -0.3214 -0.9654
   12MOL0     C 1551   2.890   9.305   2.704 -0.7563 -1.2551  0.3076
   12MOL0     C 1552   2.950   9.170   2.655 -0.4708 -0.2059 -0.4246
   12MOL0     H 1553   2.978   9.338   3.229 -0.1768 -0.1012  1.5278
   12MOL0     H 1554   3.088   9.214   3.406  0.4639  2.8304  0.0228
   12MOL0     H 1555   3.247   9.128   3.566 -0.0264 -0.2250  1.0916
   12MOL0     H 1556   3.170   9.000   3.478  1.5351 -2.3834  1.7821
   12MOL0     H 1557   3.413   8.867   3.516 -0.8362 -1.4833  1.5057
   12MOL0     H 1558   3.298   8.886   3.653 -0.2525 -0.0285  0.4197
   12MOL0     H 1559   3.507   8.941   3.733 -0.6843  0.8808  0.8798
   12MOL0     H 1560   3.430   9.101   3.706  1.0755  0.5623 -0.8982
   12MOL0     H 1561   3.605   8.974   3.491 -1.3769  0.3020 -1.9790
   12MOL0     H 1562   3.549   9.144   3.523  0.9243  1.0217  2.1023
   12MOL0     H 1563   3.754   9.173   3.609  0.9106  0.7739  3.9431
   12MOL0     H 1564   3.682   9.132   3.753  2.6361 -1.8125  1.2371
   12MOL0     H 1565   3.773   8.907   3.765  0.2689  0.3114 -0.0247
   12MOL0     H 1566   3.809   8.906   3.593 -1.3866  1.8046 -1.5332
   12MOL0     H 1567   3.972   9.113   3.665  2.9485 -2.0605 -1.6478
   12MOL0     H 1568   4.011   8.954   3.724 -0.7232  0.3160 -0.4642
   12MOL0     H 1569   3.855   9.168   3.881  1.8048  1.6413 -1.7013
   12MOL0     H 1570   3.918   9.003   3.943 -1.3130 -1.8598 -1.6889
   12MOL0     H 1571   4.068   9.356   3.832 -1.4567 -0.4428 -0.3709
   12MOL0     H 1572   4.349   9.398   3.771 -0.0182 -0.7096 -0.5617
   12MOL0     H 1573   4.341   9.442   3.941 -0.1251 -0.1845 -0.1005
   12MOL0     H 1574   4.501   9.259   4.009 -1.5087 -1.0561  0.1423
   12MOL0     H 1575   4.514   9.216   3.839 -2.8198 -1.0710 -0.4259
   12MOL0     H 1576   4.557   9.508   3.894 -0.0038 -0.6990 -3.5707
   12MOL0     H 1577   4.641   9.397   3.782  0.6268  0.8435 -0.4722
   12MOL0     H 1578   4.695   9.386   4.075 -0.8530  1.3753 -0.1947
   12MOL0     H 1579   4.776   9.486   3.952 -2.0543  1.2785 -0.0796
   12MOL0     H 1580   4.952   9.124   3.827  0.9103 -2.4555  0.5569
   12MOL0     H 1581   5.157   9.032   3.922  0.1612 -0.7651  0.9639
   12MOL0     H 1582   5.544   9.010   4.034 -3.8773  1.1485  0.6330
   12MOL0     H 1583   5.761   8.965   4.139 -0.7833  2.3279 -0.2559
   12MOL0     H 1584   5.763   8.869   4.583  4.1800  0.5993  1.3341
   12MOL0     H 1585   5.749   8.702   4.532  0.5950 -0.5922  0.6337
   12MOL0     H 1586   6.001   8.878   4.533  1.3307 -1.1182 -5.2879
   12MOL0     H 1587   5.967   8.751   4.652 -1.0016  0.6466  0.5394
   12MOL0     H 1588   5.977   8.590   4.424 -1.1193  0.8865 -1.9415
   12MOL0     H 1589   6.035   8.724   4.346 -1.4519 -0.2768 -0.5695
   12MOL0     H 1590   6.177   8.598   4.578 -1.9845 -1.5694 -0.8464
   12MOL0     H 1591   6.242   8.742   4.500  1.4462 -0.6489  0.1338
   12MOL0     H 1592   6.232   8.635   4.285 -0.1961 -1.0390  0.4762
   12MOL0     H 1593   6.176   8.487   4.369 -0.6045  0.5263  0.7932
   12MOL0     H 1594   6.431   8.609   4.469 -0.8806  0.9349 -1.0475
   12MOL0     H 1595   6.354   8.452   4.500  0.1901 -0.2408 -0.0202
   12MOL0     H 1596   6.546   8.511   4.268 -0.0259 -1.0153 -1.5064
   12MOL0     H 1597   6.404   8.408   4.242 -0.8792  0.0752  0.8827
   12MOL0     H 1598   6.463   8.282   4.442  0.6419 -0.6930 -0.7947
   12MOL0     H 1599   6.598   8.281   4.340  0.3192  0.8280 -0.1788
   12MOL0     H 1600   5.561   8.787   4.468 -1.6254 -2.3201 -1.4078
   12MOL0     H 1601   5.335   8.864   4.368 -1.7313  1.1077 -2.1564
   12MOL0     H 1602   5.045   9.262   4.294  1.8488  1.4685 -1.1335
   12MOL0     H 1603   4.875   9.356   4.187  1.2184  2.4931 -1.1133
   12MOL0     H 1604   3.419   9.144   3.146 -1.6156 -1.2665  1.3583
   12MOL0     H 1605   3.338   9.305   2.996  0.0887 -2.0393  0.4632
   12MOL0     H 1606   2.920   9.572   2.917 -1.8972  0.0818  0.6804
   12MOL0     H 1607   2.726   9.640   2.797 -1.4085 -0.4355 -2.0430
   12MOL0     H 1608   2.507   9.342   2.550 -1.3043  2.0140  1.8323
   12MOL0     H 1609   2.563   9.437   2.410  0.4387  1.7366 -0.3761
   12MOL0     H 1610   2.344   9.445   2.401  0.8093 -2.0841  1.4672
   12MOL0     H 1611   2.391   9.608   2.450 -1.1535  0.9840  2.2311
   12MOL0     H 1612   2.316   9.558   2.679 -1.6823  1.3956 -0.3113
   12MOL0     H 1613   2.283   9.394   2.627  2.6913  0.8828  2.0699
   12MOL0     H 1614   2.142   9.656   2.529  0.6557 -0.4021  0.2871
   12MOL0     H 1615   2.113   9.488   2.469 -0.7321 -1.0317  0.6647
   12MOL0     H 1616   1.882   9.512   2.816  0.6549  0.1784 -0.5451
   12MOL0     H 1617   2.731   9.292   2.560 -0.2799  0.8059 -1.9152
   12MOL0     H 1618   3.047   9.181   2.606  0.1955  1.0193  1.0863
   12MOL0     H 1619   2.960   9.108   2.745 -0.1516  0.3609 -0.0638
   12MOL0     H 1620   2.883   9.110   2.592 -1.3502  0.2024  0.1008
   13MOL0     O 1621   7.967   0.499   4.878 -0.5173 -0.0460 -0.0615
   13MOL0     C 1622   7.903   0.601   4.859 -0.0762  0.3016 -0.2452
   13MOL0     O 1623   7.943   0.717   4.915  0.0184  0.2713  0.6821
   13MOL0     C 1624   8.046   0.734   5.004 -0.3843 -0.6458  0.0613
   13MOL0     C 1625   8.038   0.689   5.139  0.1665  0.3130 -0.1602
   13MOL0     C 1626   8.155   0.677   5.216 -0.3298 -0.0669 -0.2306
   13MOL0     C 1627   8.275   0.734   5.169  0.0149  0.6898 -0.3876
   13MOL0     O 1628   8.383   0.726   5.251 -0.7276  0.0126 -0.3197
   13MOL0     C 1629   8.362   0.813   5.368  0.0712 -0.7939  0.5970
   13MOL0     C 1630   8.353   0.959   5.330  0.6532 -1.0241 -0.0821
   13MOL0     C 1631   8.473   1.012   5.253 -0.4864 -0.3807  0.3635
   13MOL0     C 1632   8.571   1.100   5.340 -0.0611  0.2716 -0.7933
   13MOL0     C 1633   8.683   1.162   5.254  0.6101  0.6002  0.9840
   13MOL0     C 1634   8.790   1.221   5.336  0.5002  0.2114  0.7162
   13MOL0     C 1635   8.912   1.270   5.255 -0.6029  0.1192  1.0298
   13MOL0     C 1636   9.000   1.151   5.215 -1.2568 -0.1236  0.2084
   13MOL0     N 1637   9.122   1.191   5.143  0.8272 -0.0760  0.1536
   13MOL0     C 1638   9.138   1.197   5.009 -0.3632  0.2010  0.2369
   13MOL0     C 1639   9.268   1.229   4.991 -0.2322 -0.0401 -0.1658
   13MOL0     C 1640   9.321   1.250   4.850  0.4407 -0.6894 -0.5869
   13MOL0     C 1641   9.449   1.166   4.827 -0.0034  0.0496  1.2959
   13MOL0     C 1642   9.492   1.189   4.683  0.3672 -0.4314 -0.0595
   13MOL0     C 1643   9.635   1.152   4.649  0.6579  1.0487  0.0074
   13MOL0     O 1644   9.716   1.200   4.751  0.1710 -0.3732  0.8325
   13MOL0     C 1645   9.849   1.187   4.753 -0.5213  0.2373  0.0293
   13MOL0     C 1646   9.925   1.121   4.656 -0.3872 -0.6390 -0.2666
   13MOL0     C 1647  10.060   1.093   4.685 -0.4118  0.1354  0.3665
   13MOL0     C 1648  10.129   1.122   4.802  1.1834  0.7772 -0.0019
   13MOL0     C 1649  10.273   1.087   4.812  0.5685 -0.4385 -0.3128
   13MOL0     O 1650  10.330   1.019   4.710 -0.5109  0.6361  0.4960
   13MOL0     C 1651  10.467   1.017   4.696  0.4700 -0.4856 -0.2777
   13MOL0     C 1652  10.502   1.061   4.575  0.1828  0.1650  0.2404
   13MOL0     C 1653  10.638   1.086   4.551 -0.0789 -0.2839 -0.1299
   13MOL0     C 1654  10.734   1.063   4.648  0.2586 -0.3442 -0.1441
   13MOL0     O 1655  10.860   1.111   4.623 -0.1583 -0.0678 -0.4877
   13MOL0     C 1656  10.964   1.078   4.709  0.0722  0.0823 -0.1396
   13MOL0     C 1657  11.101   1.136   4.667 -0.2492 -0.3108 -0.8655
   13MOL0     C 1658  11.160   1.065   4.546  0.0454 -0.0209  0.5306
   13MOL0     C 1659  11.302   1.108   4.518 -0.0269 -0.0707 -0.2209
   13MOL0     C 1660  11.365   1.022   4.405  0.4689 -0.2788 -0.8468
   13MOL0     C 1661  11.518   1.060   4.377 -0.2582 -0.4918  0.4598
   13MOL0     C 1662  11.578   0.994   4.243  0.9442 -0.1791  0.0217
   13MOL0     C 1663  11.715   1.022   4.238 -0.1976  0.3759  0.5767
   13MOL0    Cl 1664  11.788   0.975   4.079  0.0515 -0.0946  0.6714
   13MOL0     C 1665  10.699   0.999   4.766  0.6508 -0.0873 -0.2093
   13MOL0     C 1666  10.565   0.974   4.796 -0.2907 -1.3479  0.5994
   13MOL0     O 1667  10.332   1.145   4.907 -0.3339  0.1662 -0.3587
   13MOL0     C 1668  10.041   1.178   4.900  0.4015 -0.2830  0.1413
   13MOL0     C 1669   9.905   1.208   4.875  0.7571  0.1333  0.4239
   13MOL0     N 1670   9.332   1.256   5.110  0.3791  0.7877  0.8857
   13MOL0     N 1671   9.240   1.222   5.201 -1.2799  0.3888 -0.5583
   13MOL0     C 1672   8.285   0.788   5.040 -0.4775  0.1648  0.5987
   13MOL0     C 1673   8.172   0.778   4.956 -0.4174 -0.4702 -0.2068
   13MOL0     C 1674   7.769   0.586   4.804  0.3047  0.0392  1.0009
   13MOL0     C 1675   7.698   0.465   4.810  0.2239  0.1111 -0.2412
   13MOL0     C 1676   7.574   0.441   4.746 -0.2099  0.5815 -0.0075
   13MOL0     C 1677   7.513   0.540   4.667 -0.5125  0.5337  0.0227
   13MOL0     O 1678   7.395   0.517   4.604 -0.2960 -0.4017 -0.3128
   13MOL0     C 1679   7.289   0.458   4.677 -0.7658 -0.2641 -0.4455
   13MOL0     C 1680   7.172   0.547   4.664  1.0378  0.9038  0.3078
   13MOL0     C 1681   7.125   0.538   4.520  0.2154 -0.6929  0.7036
   13MOL0     C 1682   6.984   0.588   4.510 -0.0477  0.6135 -0.9242
   13MOL0     C 1683   6.941   0.594   4.374  0.1434 -0.1628 -0.1430
   13MOL0     C 1684   6.921   0.605   4.257  0.9961  0.3131  0.2861
   13MOL0     C 1685   7.585   0.662   4.658  0.4319  0.4580  0.4816
   13MOL0     C 1686   7.713   0.689   4.716  0.8743  0.2346 -0.9390
   13MOL0     C 1687   7.787   0.815   4.689  0.6816 -0.0385  0.1808
   13MOL0     H 1688   7.946   0.637   5.164  0.9670 -1.2077 -0.2999
   13MOL0     H 1689   8.146   0.626   5.311 -0.7727 -3.4739 -1.9348
   13MOL0     H 1690   8.275   0.780   5.424 -0.2726 -1.3848 -0.2732
   13MOL0     H 1691   8.449   0.811   5.434 -0.0483 -1.5068  0.7289
   13MOL0     H 1692   8.334   1.020   5.419 -1.1133  0.9724 -1.7151
   13MOL0     H 1693   8.266   0.962   5.264 -0.6013 -3.3493  1.3159
   13MOL0     H 1694   8.436   1.059   5.161  2.0253 -0.9804 -1.0267
   13MOL0     H 1695   8.541   0.935   5.218  2.8303  0.9866  3.2683
   13MOL0     H 1696   8.514   1.174   5.396 -0.1065  0.0226 -0.5030
   13MOL0     H 1697   8.609   1.027   5.412 -0.8664 -2.9393 -3.3641
   13MOL0     H 1698   8.725   1.090   5.184  0.8347  0.7559  0.9612
   13MOL0     H 1699   8.633   1.237   5.192  0.6087 -0.1677  0.0298
   13MOL0     H 1700   8.750   1.288   5.413 -0.6143  0.9059 -0.4307
   13MOL0     H 1701   8.818   1.139   5.403  1.2680  0.7086  1.0247
   13MOL0     H 1702   8.972   1.329   5.324  0.3163  0.0917  0.2779
   13MOL0     H 1703   8.882   1.328   5.166  2.7889  0.9916  0.3268
   13MOL0     H 1704   9.023   1.107   5.313 -0.5584  1.6865  0.9000
   13MOL0     H 1705   8.948   1.086   5.144 -1.2009  0.0647 -0.0037
   13MOL0     H 1706   9.060   1.180   4.936 -0.5948 -1.7174  0.8724
   13MOL0     H 1707   9.249   1.239   4.768 -1.5877  2.6943  0.5578
   13MOL0     H 1708   9.349   1.355   4.840  1.0669 -0.8455 -0.5296
   13MOL0     H 1709   9.524   1.190   4.903  2.6683 -0.7481 -0.9137
   13MOL0     H 1710   9.422   1.061   4.837 -0.2144 -0.0076  0.2838
   13MOL0     H 1711   9.488   1.297   4.663 -3.6682 -0.4558 -0.1458
   13MOL0     H 1712   9.428   1.122   4.625 -0.3656  0.1840  0.0268
   13MOL0     H 1713   9.665   1.182   4.548 -0.2740  1.7869 -0.0673
   13MOL0     H 1714   9.640   1.043   4.653  0.2532  1.0381  0.2435
   13MOL0     H 1715   9.877   1.106   4.560 -0.4917  1.0184 -0.5007
   13MOL0     H 1716  10.119   1.051   4.604 -0.5764 -0.5620  0.6016
   13MOL0     H 1717  10.446   1.083   4.485  1.6001 -1.8187 -1.2242
   13MOL0     H 1718  10.676   1.127   4.457  0.2928  0.3292  0.2796
   13MOL0     H 1719  10.955   1.124   4.808  3.0939 -1.4133  0.9777
   13MOL0     H 1720  10.963   0.970   4.724 -0.9061  0.1159  0.0809
   13MOL0     H 1721  11.090   1.239   4.630 -1.5762 -0.3188 -0.5470
   13MOL0     H 1722  11.167   1.138   4.754 -1.1193 -0.7869 -0.1851
   13MOL0     H 1723  11.159   0.958   4.569  0.6305 -0.4741 -1.3870
   13MOL0     H 1724  11.094   1.082   4.461  2.4535 -2.0256 -1.9307
   13MOL0     H 1725  11.369   1.096   4.604  3.1476 -1.2162 -2.6290
   13MOL0     H 1726  11.303   1.210   4.481 -2.9105  0.8514  1.8989
   13MOL0     H 1727  11.315   1.033   4.308  1.1340 -0.5537 -1.2276
   13MOL0     H 1728  11.355   0.918   4.437 -1.5429  0.3224  0.6884
   13MOL0     H 1729  11.524   1.167   4.356  3.4078 -0.2621  1.8902
   13MOL0     H 1730  11.575   1.046   4.469 -3.1606 -0.0150  2.4776
   13MOL0     H 1731  11.518   1.018   4.154  1.3122 -0.2802 -0.2528
   13MOL0     H 1732  11.568   0.886   4.257 -1.9950 -0.0929 -0.6588
   13MOL0     H 1733  11.737   1.127   4.254  3.2983 -0.1609  0.0730
   13MOL0     H 1734  11.770   0.959   4.308  2.1194  2.4633  0.7489
   13MOL0     H 1735  10.769   0.974   4.845  3.7389  0.8523 -2.4678
   13MOL0     H 1736  10.535   0.936   4.893  1.2196 -2.1104  0.7971
   13MOL0     H 1737  10.081   1.186   5.000  1.1656  0.0193 -0.1810
   13MOL0     H 1738   9.841   1.250   4.951 -0.8232  1.5958 -1.6061
   13MOL0     H 1739   8.384   0.822   5.009  0.3176 -0.3388  2.4222
   13MOL0     H 1740   8.190   0.807   4.853  1.1458 -0.3537  0.0812
   13MOL0     H 1741   7.740   0.384   4.868  2.4507  0.5287 -1.1561
   13MOL0     H 1742   7.528   0.343   4.748  0.6891  0.1451  2.3908
   13MOL0     H 1743   7.317   0.467   4.782 -0.3595 -0.0984 -0.5696
   13MOL0     H 1744   7.279   0.351   4.656 -2.9694  0.1826 -2.0074
   13MOL0     H 1745   7.189   0.650   4.698 -0.8826  1.4128 -0.0948
   13MOL0     H 1746   7.103   0.504   4.738  1.9598  0.5986  1.0070
   13MOL0     H 1747   7.134   0.438   4.478  0.9597 -1.0353  1.6411
   13MOL0     H 1748   7.177   0.609   4.454 -3.7714  2.5241  0.5755
   13MOL0     H 1749   6.922   0.523   4.573  0.6593  1.0940  0.3081
   13MOL0     H 1750   6.971   0.691   4.545  1.5799  1.0818 -1.5998
   13MOL0     H 1751   6.907   0.620   4.152 -0.9166 -2.1557  0.1028
   13MOL0     H 1752   7.542   0.737   4.594  3.4803  0.2498 -2.0766
   13MOL0     H 1753   7.889   0.786   4.662 -0.0700 -0.8827 -1.9266
   13MOL0     H 1754   7.738   0.870   4.608 -0.7319  1.1768  1.7842
   13MOL0     H 1755   7.785   0.875   4.781  0.7664  0.1990  0.0293
   14MOL0     O 1756   1.747   7.833   0.469  0.6046 -0.0201  0.1033
   14MOL0     C 1757   1.713   7.900   0.566 -0.3985 -0.4082 -0.1682
   14MOL0     O 1758   1.805   7.961   0.644  0.0680 -0.2147 -0.1524
   14MOL0     C 1759   1.939   7.944   0.638  0.6098  0.3178 -0.9700
   14MOL0     C 1760   2.017   7.836   0.572  0.2811  0.0438 -0.2382
   14MOL0     C 1761   2.155   7.839   0.571 -0.6339  0.3140 -0.9995
   14MOL0     C 1762   2.220   7.937   0.647  0.1359  0.1487  0.0940
   14MOL0     O 1763   2.356   7.949   0.667  0.2963 -0.7070  0.5012
   14MOL0     C 1764   2.445   7.874   0.584  0.6975  0.5160 -0.8958
   14MOL0     C 1765   2.577   7.944   0.599  0.5196 -0.2590 -0.9037
   14MOL0     C 1766   2.696   7.871   0.550  0.9744 -0.4510 -0.3562
   14MOL0     C 1767   2.822   7.932   0.610 -0.4282  0.6419 -0.0216
   14MOL0     C 1768   2.938   7.828   0.597  0.5924 -0.1238 -0.7501
   14MOL0     C 1769   3.077   7.875   0.664 -0.1022 -0.4593  0.9738
   14MOL0     C 1770   3.203   7.803   0.598 -0.7424  0.4716  0.1856
   14MOL0     C 1771   3.321   7.804   0.695 -0.0692  0.0365  0.1914
   14MOL0     N 1772   3.456   7.782   0.646 -0.2788 -0.4316 -0.0188
   14MOL0     C 1773   3.555   7.875   0.647  0.3669 -0.0796  1.1816
   14MOL0     C 1774   3.658   7.823   0.585 -0.2918 -0.2382  0.7393
   14MOL0     C 1775   3.793   7.890   0.573 -0.0077  0.5915 -0.5054
   14MOL0     C 1776   3.908   7.779   0.583 -0.4403  0.2369 -0.4871
   14MOL0     C 1777   4.035   7.832   0.515  0.1261  0.4475  0.3914
   14MOL0     C 1778   4.160   7.742   0.543 -0.9359 -0.1580  0.0060
   14MOL0     O 1779   4.270   7.787   0.467 -0.6163  0.5726 -0.2265
   14MOL0     C 1780   4.393   7.723   0.471  0.9254 -0.1763  0.2270
   14MOL0     C 1781   4.495   7.797   0.423 -0.8717 -0.5530  0.3493
   14MOL0     C 1782   4.622   7.756   0.431  0.3927 -0.3296  0.0542
   14MOL0     C 1783   4.648   7.627   0.478  0.1693  0.4397 -0.3722
   14MOL0     C 1784   4.784   7.576   0.483 -0.3105  0.5218  0.1204
   14MOL0     O 1785   4.881   7.665   0.503  0.3579  0.1014 -0.6387
   14MOL0     C 1786   5.021   7.638   0.487  0.4344  1.1279 -0.7960
   14MOL0     C 1787   5.085   7.513   0.470 -0.4444 -0.2964  0.3616
   14MOL0     C 1788   5.219   7.505   0.445 -0.2985 -0.0801 -0.6008
   14MOL0     C 1789   5.305   7.615   0.446  0.2282  0.2574 -0.4828
   14MOL0     O 1790   5.442   7.589   0.437  0.4617  0.2116 -0.3994
   14MOL0     C 1791   5.532   7.693   0.463 -0.7376 -0.9481  0.4300
   14MOL0     C 1792   5.562   7.692   0.610  0.8604 -0.2447  0.3870
   14MOL0     C 1793   5.627   7.563   0.665  0.0386 -0.5388 -0.2013
   14MOL0     C 1794   5.782   7.579   0.658 -0.5599  0.5655 -0.1298
   14MOL0     C 1795   5.852   7.445   0.700  0.2190 -0.1106 -0.1528
   14MOL0     C 1796   5.990   7.437   0.648 -0.7760 -0.0343 -0.3002
   14MOL0     C 1797   6.071   7.562   0.684  0.3250  0.9970 -0.3670
   14MOL0     C 1798   6.226   7.531   0.690  0.4646 -0.3632  0.8314
   14MOL0    Cl 1799   6.268   7.423   0.838 -0.0039  0.4191 -0.0834
   14MOL0     C 1800   5.240   7.733   0.471 -0.9693 -0.6312 -0.4628
   14MOL0     C 1801   5.101   7.751   0.486  0.4097  0.3459  0.2800
   14MOL0     O 1802   4.801   7.460   0.466  0.1235  0.4393 -0.4416
   14MOL0     C 1803   4.540   7.549   0.535 -0.1205 -0.8387 -0.5039
   14MOL0     C 1804   4.417   7.605   0.544  0.2684 -0.5522 -0.7239
   14MOL0     N 1805   3.622   7.698   0.532  0.5474  0.5026 -0.6195
   14MOL0     N 1806   3.503   7.670   0.578 -0.5079 -0.4981  0.1674
   14MOL0     C 1807   2.151   8.031   0.717  0.3973 -0.3236 -0.3190
   14MOL0     C 1808   2.014   8.039   0.704 -0.8683 -0.8792 -0.5266
   14MOL0     C 1809   1.575   7.939   0.585  0.7993 -0.3869 -0.4606
   14MOL0     C 1810   1.532   8.073   0.583 -0.1051 -0.7191  0.9029
   14MOL0     C 1811   1.399   8.110   0.561 -0.6695  0.9343  0.0116
   14MOL0     C 1812   1.302   8.009   0.553 -0.5312 -0.4272 -0.2087
   14MOL0     O 1813   1.171   8.034   0.530  0.8584  0.3585 -0.6348
   14MOL0     C 1814   1.126   8.168   0.501 -0.7199  0.1414 -0.7815
   14MOL0     C 1815   0.982   8.180   0.468 -0.1501  0.0510  0.1185
   14MOL0     C 1816   0.895   8.092   0.554  0.4843  0.2705  0.5042
   14MOL0     C 1817   0.745   8.121   0.545 -0.0859 -0.5895 -0.3159
   14MOL0     C 1818   0.659   8.054   0.450  0.8696 -0.0968  0.0089
   14MOL0     C 1819   0.583   8.003   0.369  0.3418 -0.1949 -0.4247
   14MOL0     C 1820   1.345   7.876   0.577  0.3292  0.7414  0.3639
   14MOL0     C 1821   1.477   7.838   0.591  0.0406 -0.4891 -0.7135
   14MOL0     C 1822   1.507   7.692   0.617  0.1460  0.1237 -0.2377
   14MOL0     H 1823   1.974   7.746   0.528  1.8594 -0.6302 -0.4844
   14MOL0     H 1824   2.200   7.752   0.525 -0.3612 -1.2232  1.9203
   14MOL0     H 1825   2.453   7.773   0.625 -1.1743  0.4235 -0.6828
   14MOL0     H 1826   2.408   7.883   0.481 -2.3102  0.3556  0.0746
   14MOL0     H 1827   2.578   7.974   0.704 -1.5563  0.2967 -0.9881
   14MOL0     H 1828   2.570   8.040   0.546 -4.8364  0.5614  0.6340
   14MOL0     H 1829   2.698   7.882   0.441  0.3421  3.5867 -0.0930
   14MOL0     H 1830   2.689   7.763   0.569  1.8613 -0.4913 -0.2119
   14MOL0     H 1831   2.848   8.018   0.548  2.8029 -0.8742 -0.9996
   14MOL0     H 1832   2.811   7.956   0.716 -0.1604 -0.4712  0.2709
   14MOL0     H 1833   2.904   7.733   0.639 -1.8958  0.7426 -0.6368
   14MOL0     H 1834   2.951   7.814   0.489  0.9744 -3.4066 -0.3962
   14MOL0     H 1835   3.084   7.983   0.645  0.4640 -0.9921 -2.6068
   14MOL0     H 1836   3.060   7.848   0.768 -0.1057 -0.3426  1.0034
   14MOL0     H 1837   3.237   7.849   0.505  0.5300 -0.4845  0.1561
   14MOL0     H 1838   3.186   7.696   0.579  0.7149 -0.0683  1.7408
   14MOL0     H 1839   3.333   7.902   0.743  1.7801 -0.4481  0.8467
   14MOL0     H 1840   3.301   7.733   0.776 -3.9258  0.1198 -0.5171
   14MOL0     H 1841   3.543   7.971   0.697 -0.1231 -0.6805  2.2722
   14MOL0     H 1842   3.802   7.934   0.473  0.8274  2.1253  0.2077
   14MOL0     H 1843   3.806   7.972   0.645 -0.3647  0.0884  0.1344
   14MOL0     H 1844   3.936   7.752   0.685 -0.4441 -1.5524 -0.9143
   14MOL0     H 1845   3.882   7.685   0.531  0.5403  0.0831 -0.7239
   14MOL0     H 1846   4.045   7.931   0.559  1.4834  0.9407 -0.9552
   14MOL0     H 1847   4.015   7.836   0.407  3.0707  0.8426 -0.2109
   14MOL0     H 1848   4.128   7.639   0.523 -5.0041  0.6746  1.2399
   14MOL0     H 1849   4.196   7.746   0.646  2.2432 -0.3982 -0.9927
   14MOL0     H 1850   4.481   7.892   0.372  0.4293 -0.5836 -0.1180
   14MOL0     H 1851   4.698   7.825   0.396 -0.4563  0.8536  0.4719
   14MOL0     H 1852   5.030   7.419   0.475 -1.6517  0.4197  1.0641
   14MOL0     H 1853   5.257   7.403   0.434 -1.8864 -0.7472 -0.1453
   14MOL0     H 1854   5.625   7.672   0.409 -0.6586  1.5685 -0.5437
   14MOL0     H 1855   5.499   7.790   0.424  0.1954 -0.4323  0.8911
   14MOL0     H 1856   5.617   7.785   0.630 -3.4298  2.5023  0.5816
   14MOL0     H 1857   5.473   7.697   0.673  0.7479 -0.7036  0.2656
   14MOL0     H 1858   5.586   7.546   0.765  0.3083  0.7981  0.1587
   14MOL0     H 1859   5.596   7.481   0.600  0.2594 -0.3982 -0.4849
   14MOL0     H 1860   5.814   7.670   0.711  1.3771 -0.4109  0.4555
   14MOL0     H 1861   5.793   7.599   0.551  0.9089 -1.6612 -0.4656
   14MOL0     H 1862   5.798   7.365   0.649 -0.3160  0.5355 -0.6203
   14MOL0     H 1863   5.848   7.431   0.808  1.2362  0.0827 -0.0792
   14MOL0     H 1864   6.036   7.344   0.683 -2.6898 -0.1360  2.1790
   14MOL0     H 1865   5.990   7.437   0.538  2.4814 -2.8465 -0.4583
   14MOL0     H 1866   6.033   7.604   0.778 -1.6495  1.3883 -1.2820
   14MOL0     H 1867   6.043   7.648   0.622  1.2518  1.1149 -0.6408
   14MOL0     H 1868   6.267   7.497   0.595  0.5562  1.3636  0.2159
   14MOL0     H 1869   6.261   7.632   0.715 -3.4510  1.1360  1.1537
   14MOL0     H 1870   5.299   7.824   0.475 -2.0484  0.0734 -0.1473
   14MOL0     H 1871   5.054   7.849   0.494 -3.5262 -1.1771 -1.7100
   14MOL0     H 1872   4.562   7.451   0.576  3.2421  0.7003  1.8461
   14MOL0     H 1873   4.340   7.543   0.589  0.1191 -0.1650 -0.4511
   14MOL0     H 1874   2.207   8.096   0.783 -0.9699 -2.5200  3.2989
   14MOL0     H 1875   1.966   8.124   0.752  0.6691 -0.7542  0.9109
   14MOL0     H 1876   1.597   8.157   0.607  0.6810 -1.7589  2.6226
   14MOL0     H 1877   1.382   8.214   0.535 -1.1445  0.0248 -3.9298
   14MOL0     H 1878   1.171   8.220   0.415  1.5947 -2.6395 -1.4114
   14MOL0     H 1879   1.141   8.230   0.590  0.5168 -0.8488 -0.2623
   14MOL0     H 1880   0.965   8.147   0.365  0.9127 -1.0309  0.2620
   14MOL0     H 1881   0.941   8.279   0.486 -0.8187 -0.2154  0.0913
   14MOL0     H 1882   0.919   8.115   0.659  1.1568  1.0810  0.1873
   14MOL0     H 1883   0.917   7.986   0.543  0.5727  0.2312  1.0221
   14MOL0     H 1884   0.701   8.119   0.645  0.5570  0.7454  0.0046
   14MOL0     H 1885   0.734   8.224   0.510 -0.4964 -1.6381 -3.6408
   14MOL0     H 1886   0.529   7.948   0.294  2.1498  1.5763 -3.1993
   14MOL0     H 1887   1.263   7.808   0.557 -1.2636  2.3106  1.3218
   14MOL0     H 1888   1.579   7.677   0.697 -1.1549 -1.3267  0.7185
   14MOL0     H 1889   1.420   7.635   0.651  0.2716  0.8096  1.2823
   14MOL0     H 1890   1.565   7.642   0.539  2.2088  0.0710  1.2749
   15MOL0     O 1891   1.325   1.143   5.562  0.7513  0.1019  0.0246
   15MOL0     C 1892   1.346   1.127   5.685 -0.5337  0.4831 -0.3409
   15MOL0     O 1893   1.481   1.138   5.743  0.6860 -0.0343 -0.4170
   15MOL0     C 1894   1.575   1.164   5.655 -0.3683  0.4417 -0.1851
   15MOL0     C 1895   1.639   1.284   5.666 -0.2703 -0.7679  0.2250
   15MOL0     C 1896   1.759   1.303   5.591 -0.3260  0.0046 -0.7957
   15MOL0     C 1897   1.805   1.213   5.490 -0.1682  0.4486  0.7104
   15MOL0     O 1898   1.903   1.241   5.398  0.9037 -0.2815 -0.0501
   15MOL0     C 1899   2.037   1.218   5.443 -0.6580  0.5626 -0.1691
   15MOL0     C 1900   2.134   1.268   5.344 -0.5524 -0.2826 -0.6752
   15MOL0     C 1901   2.270   1.207   5.371 -0.3197 -0.0767 -0.0001
   15MOL0     C 1902   2.353   1.266   5.489 -0.1417  0.3606 -0.3371
   15MOL0     C 1903   2.494   1.206   5.519  0.1293  0.2067  0.1798
   15MOL0     C 1904   2.601   1.257   5.428  0.5850  0.0930  0.2935
   15MOL0     C 1905   2.737   1.233   5.487 -0.9798 -0.5094  0.0765
   15MOL0     C 1906   2.854   1.307   5.404 -0.2964  0.1771 -0.9020
   15MOL0     N 1907   2.988   1.282   5.454  0.1546 -0.2695 -0.6038
   15MOL0     C 1908   3.027   1.250   5.578 -1.0816  0.8205  0.5460
   15MOL0     C 1909   3.162   1.236   5.566 -0.0755 -0.6628 -0.1584
   15MOL0     C 1910   3.250   1.197   5.678 -0.1024  0.7488 -0.5249
   15MOL0     C 1911   3.232   1.298   5.793  0.5342 -0.4462 -1.0406
   15MOL0     C 1912   3.297   1.244   5.926  0.8331  0.1587  1.3785
   15MOL0     C 1913   3.440   1.247   5.936 -0.6070  0.0920  0.0234
   15MOL0     O 1914   3.513   1.150   5.855  0.2510 -0.0637  0.4941
   15MOL0     C 1915   3.654   1.142   5.884  0.5943 -0.2367  0.7090
   15MOL0     C 1916   3.721   1.054   5.803  0.0650 -0.2139  0.2312
   15MOL0     C 1917   3.860   1.033   5.810  0.0823 -0.0797  0.1698
   15MOL0     C 1918   3.940   1.109   5.897  0.4249  0.8386  0.2537
   15MOL0     C 1919   4.084   1.084   5.913  1.0079  0.0035  0.2237
   15MOL0     O 1920   4.142   1.175   5.990 -0.0436 -0.0059  0.2404
   15MOL0     C 1921   4.276   1.189   5.998 -0.0585 -0.3322 -0.4939
   15MOL0     C 1922   4.371   1.162   5.894 -0.8909 -0.8600 -0.9520
   15MOL0     C 1923   4.510   1.179   5.923  0.1849 -0.5273 -0.4515
   15MOL0     C 1924   4.556   1.225   6.043 -0.0172 -0.4270 -0.0556
   15MOL0     O 1925   4.692   1.232   6.063 -0.0926 -0.4725 -0.5831
   15MOL0     C 1926   4.734   1.167   6.184 -0.8733  0.5492 -0.2453
   15MOL0     C 1927   4.878   1.117   6.167  0.0111 -0.6340 -0.0333
   15MOL0     C 1928   4.975   1.234   6.174  0.3513 -0.8400  0.1716
   15MOL0     C 1929   5.114   1.194   6.155  0.3005 -0.1654  0.1479
   15MOL0     C 1930   5.210   1.305   6.141 -0.8061  0.9928 -0.2949
   15MOL0     C 1931   5.356   1.260   6.118 -1.6576 -0.1395 -0.5010
   15MOL0     C 1932   5.458   1.370   6.123 -0.1371  0.5688  1.0105
   15MOL0     C 1933   5.413   1.494   6.060 -0.4350 -0.5483 -0.3762
   15MOL0    Cl 1934   5.549   1.609   6.051 -0.0511  0.1587 -0.1518
   15MOL0     C 1935   4.460   1.252   6.150 -0.3334  0.0012  0.8003
   15MOL0     C 1936   4.326   1.232   6.119  0.5538 -0.1368 -0.0339
   15MOL0     O 1937   4.139   0.990   5.852 -0.8799  0.2404  0.2651
   15MOL0     C 1938   3.873   1.209   5.973  0.7302  0.1055  0.1643
   15MOL0     C 1939   3.729   1.223   5.967 -0.5525  0.0856  0.1049
   15MOL0     N 1940   3.209   1.266   5.439  0.0102 -0.5725 -0.4111
   15MOL0     N 1941   3.095   1.283   5.372 -0.2359 -0.5171 -0.2414
   15MOL0     C 1942   1.737   1.091   5.481 -0.5999 -0.6433 -0.1983
   15MOL0     C 1943   1.632   1.065   5.567  0.5590 -0.5343 -0.7155
   15MOL0     C 1944   1.240   1.083   5.780  0.2086 -0.4179  0.1507
   15MOL0     C 1945   1.101   1.100   5.747  0.0738  0.0716  0.4846
   15MOL0     C 1946   0.996   1.083   5.832 -0.1480  0.5829  0.1557
   15MOL0     C 1947   1.019   1.036   5.960  1.0666 -0.0987 -0.3033
   15MOL0     O 1948   0.926   1.005   6.051  0.4930 -0.1138 -0.0866
   15MOL0     C 1949   0.798   0.962   6.009  0.3077 -0.5895 -0.4048
   15MOL0     C 1950   0.717   0.895   6.119 -0.6125  0.6069  0.8182
   15MOL0     C 1951   0.783   0.772   6.179 -0.7870  0.3467 -0.5866
   15MOL0     C 1952   0.703   0.698   6.279 -0.0141 -0.5038 -0.9926
   15MOL0     C 1953   0.599   0.627   6.205 -0.3929 -0.0084  0.6741
   15MOL0     C 1954   0.521   0.564   6.139  0.1671 -0.4122 -0.4277
   15MOL0     C 1955   1.153   1.013   5.998 -0.9325  0.5093 -0.7352
   15MOL0     C 1956   1.264   1.038   5.913  0.4268  0.6646 -0.1492
   15MOL0     C 1957   1.396   1.027   5.987 -0.2832  0.3948 -0.5252
   15MOL0     H 1958   1.603   1.362   5.732  1.9911  2.3990 -1.9975
   15MOL0     H 1959   1.815   1.395   5.605 -0.7703  0.1553  0.0861
   15MOL0     H 1960   2.046   1.273   5.538 -1.1202  0.8507 -0.2879
   15MOL0     H 1961   2.058   1.112   5.459 -0.0790  0.3413 -2.1787
   15MOL0     H 1962   2.133   1.377   5.361  1.7048 -0.4088  0.5913
   15MOL0     H 1963   2.106   1.256   5.239  4.2790  0.6263 -2.3029
   15MOL0     H 1964   2.325   1.236   5.281 -0.5221  2.9451  0.7611
   15MOL0     H 1965   2.265   1.098   5.368  0.1508 -0.1361  1.0163
   15MOL0     H 1966   2.376   1.371   5.466  1.0006 -0.0808 -1.2836
   15MOL0     H 1967   2.301   1.248   5.584  1.5594 -1.1669  0.3531
   15MOL0     H 1968   2.522   1.229   5.622 -0.8034 -1.7163  0.9019
   15MOL0     H 1969   2.487   1.097   5.510 -0.7302  0.2500  0.2376
   15MOL0     H 1970   2.594   1.209   5.330  1.8236  0.2442  0.1231
   15MOL0     H 1971   2.578   1.363   5.418 -0.1880  0.1004  1.8845
   15MOL0     H 1972   2.760   1.126   5.490  0.4182 -0.2374 -0.2240
   15MOL0     H 1973   2.733   1.270   5.590 -1.5908  0.5404 -0.3152
   15MOL0     H 1974   2.850   1.262   5.304 -0.8189 -1.7682 -0.0633
   15MOL0     H 1975   2.849   1.416   5.409  0.6009  0.1732  0.8707
   15MOL0     H 1976   2.967   1.240   5.667  1.2277  3.9286  2.6632
   15MOL0     H 1977   3.228   1.093   5.704 -1.1228  1.1973  0.4776
   15MOL0     H 1978   3.353   1.216   5.646  0.0565 -0.0962 -0.5333
   15MOL0     H 1979   3.254   1.402   5.766  1.9248 -0.6220 -0.6475
   15MOL0     H 1980   3.126   1.309   5.817  0.4473 -0.6642 -1.3178
   15MOL0     H 1981   3.253   1.145   5.938  1.4437 -0.1093  1.4287
   15MOL0     H 1982   3.264   1.307   6.009  0.8722  0.8920  0.8487
   15MOL0     H 1983   3.463   1.225   6.040 -3.7515 -2.3393  0.3564
   15MOL0     H 1984   3.471   1.352   5.925 -1.3552  0.3948  0.6817
   15MOL0     H 1985   3.673   0.992   5.727  0.2773 -1.6780  1.2591
   15MOL0     H 1986   3.896   0.961   5.738 -0.9881 -0.2793 -0.1884
   15MOL0     H 1987   4.342   1.124   5.797  1.9955 -1.7506 -1.5550
   15MOL0     H 1988   4.583   1.142   5.851  1.5581 -1.2637  1.2260
   15MOL0     H 1989   4.741   1.232   6.271  2.5086  0.2309 -0.1653
   15MOL0     H 1990   4.669   1.079   6.197  0.3754 -0.6211 -1.5941
   15MOL0     H 1991   4.899   1.041   6.243 -1.6450 -1.9620 -0.8446
   15MOL0     H 1992   4.891   1.061   6.073 -0.2341 -1.9839  0.7129
   15MOL0     H 1993   4.950   1.299   6.089  3.5198 -0.6886 -0.7561
   15MOL0     H 1994   4.964   1.287   6.269  1.8800 -3.3922  1.8715
   15MOL0     H 1995   5.127   1.125   6.072 -0.4814 -1.5401  1.1190
   15MOL0     H 1996   5.144   1.138   6.244  2.0830  0.3191 -0.1068
   15MOL0     H 1997   5.210   1.358   6.238 -3.5712  0.7497 -0.0817
   15MOL0     H 1998   5.175   1.376   6.065 -3.5827  0.1190  0.0644
   15MOL0     H 1999   5.378   1.182   6.192 -0.9023  0.2189 -0.3441
   15MOL0     H 2000   5.367   1.207   6.023  0.8242 -0.7426  0.0686
   15MOL0     H 2001   5.548   1.335   6.072 -0.1366 -0.3567  1.6182
   15MOL0     H 2002   5.483   1.381   6.229  1.3771  2.6491  0.5179
   15MOL0     H 2003   5.382   1.473   5.957  1.0965 -0.3988 -0.9052
   15MOL0     H 2004   5.337   1.543   6.121 -0.0678  1.3576 -1.3759
   15MOL0     H 2005   4.495   1.304   6.238  0.0545 -2.2935  2.0822
   15MOL0     H 2006   4.256   1.265   6.195  1.4722  1.8426  0.0249
   15MOL0     H 2007   3.927   1.272   6.043 -0.3890  0.4807  0.7145
   15MOL0     H 2008   3.681   1.292   6.036 -1.1621  0.7455 -0.9538
   15MOL0     H 2009   1.754   1.016   5.405  1.9264 -0.0750 -0.3050
   15MOL0     H 2010   1.589   0.965   5.558  0.5458 -0.6521  0.4453
   15MOL0     H 2011   1.068   1.143   5.653  0.0017 -1.7234 -0.3543
   15MOL0     H 2012   0.896   1.113   5.799 -0.5227  0.9646  1.5698
   15MOL0     H 2013   0.798   0.902   5.918  0.0142 -1.1956 -0.0141
   15MOL0     H 2014   0.738   1.051   5.988  0.4146 -0.1315  1.1073
   15MOL0     H 2015   0.619   0.865   6.080 -1.3385  1.2174  2.1020
   15MOL0     H 2016   0.702   0.974   6.194 -0.9056 -0.3312  1.7755
   15MOL0     H 2017   0.870   0.815   6.229 -0.1080  2.1396 -3.0822
   15MOL0     H 2018   0.839   0.713   6.106 -1.9308 -0.8635 -0.5215
   15MOL0     H 2019   0.772   0.620   6.316  0.3411 -1.0149 -2.6484
   15MOL0     H 2020   0.657   0.761   6.355  2.4933  0.7426 -0.4017
   15MOL0     H 2021   0.446   0.512   6.084  3.0588 -2.9707 -2.2652
   15MOL0     H 2022   1.171   0.984   6.101  0.7033  0.4922 -1.0033
   15MOL0     H 2023   1.401   0.954   6.068  0.6466 -2.3696 -2.8824
   15MOL0     H 2024   1.469   0.982   5.919 -0.5166 -2.9543  1.2902
   15MOL0     H 2025   1.438   1.124   6.017  1.2479  0.1462 -1.7227
   16MOL0     O 2026   2.835   1.668   6.184 -0.2655 -0.4475 -0.5619
   16MOL0     C 2027   2.898   1.772   6.168  0.6763 -0.6480  0.8317
   16MOL0     O 2028   2.839   1.891   6.169 -0.1557 -0.8654 -0.1972
   16MOL0     C 2029   2.704   1.898   6.162  0.7773 -0.3152  0.1786
   16MOL0     C 2030   2.629   1.952   6.263  0.5367  0.0471 -0.6050
   16MOL0     C 2031   2.486   1.954   6.253 -0.2228 -0.7508  0.2091
   16MOL0     C 2032   2.421   1.893   6.144  0.1806 -0.8360  1.0460
   16MOL0     O 2033   2.286   1.904   6.120  0.2195  0.2833 -0.0183
   16MOL0     C 2034   2.191   1.914   6.225 -0.9246  0.5995 -0.2507
   16MOL0     C 2035   2.197   1.810   6.339  0.2001  0.7247  0.5819
   16MOL0     C 2036   2.076   1.813   6.428  0.8111  0.3632  0.2320
   16MOL0     C 2037   2.084   1.753   6.568  0.5003 -0.1514 -0.3283
   16MOL0     C 2038   1.949   1.782   6.649 -0.6337  0.0286 -0.1365
   16MOL0     C 2039   1.873   1.919   6.639  0.5457  0.6350 -0.0209
   16MOL0     C 2040   1.739   1.906   6.714 -0.4606  0.1428  0.2477
   16MOL0     C 2041   1.657   2.031   6.727 -0.5284 -0.3109 -0.2313
   16MOL0     N 2042   1.577   2.047   6.607 -0.6402 -0.2549 -0.3660
   16MOL0     C 2043   1.625   2.074   6.485 -0.0169 -0.4863 -0.6421
   16MOL0     C 2044   1.515   2.070   6.402 -1.1131 -0.8117 -0.7955
   16MOL0     C 2045   1.523   2.092   6.258 -0.0420  0.4854  0.0410
   16MOL0     C 2046   1.582   1.962   6.200  0.0144 -0.0762  1.6123
   16MOL0     C 2047   1.592   1.956   6.046 -0.3205 -0.2884 -0.0709
   16MOL0     C 2048   1.454   1.981   5.979 -0.1299  0.0316  0.3470
   16MOL0     O 2049   1.450   1.932   5.844  0.3691  0.4447 -0.0543
   16MOL0     C 2050   1.333   1.956   5.778 -0.6090  0.3150  0.4082
   16MOL0     C 2051   1.332   1.936   5.634  0.7010  0.0304 -0.4529
   16MOL0     C 2052   1.214   1.942   5.559 -0.6988  0.2396  0.7765
   16MOL0     C 2053   1.092   1.964   5.629 -0.2226 -0.0076  0.1548
   16MOL0     C 2054   0.965   1.964   5.558  0.7865  0.0422 -0.2945
   16MOL0     O 2055   0.852   1.968   5.633 -0.2746  0.3274 -0.5305
   16MOL0     C 2056   0.728   1.984   5.578 -0.0607  0.3761 -0.2947
   16MOL0     C 2057   0.623   1.955   5.674 -0.2006 -0.9541 -0.3034
   16MOL0     C 2058   0.481   1.973   5.642 -0.1897 -0.6378  0.1845
   16MOL0     C 2059   0.452   2.037   5.519  0.3516 -0.0333  0.3720
   16MOL0     O 2060   0.324   2.089   5.487  0.0697 -0.6235 -0.3435
   16MOL0     C 2061   0.212   2.030   5.551  0.6065 -0.0035  0.9217
   16MOL0     C 2062   0.083   2.089   5.481  0.2863  0.0589  0.0678
   16MOL0     C 2063  -0.057   2.067   5.552 -0.8888  0.4266 -0.0034
   16MOL0     C 2064  -0.087   1.921   5.575  0.0765 -0.4247  0.1383
   16MOL0     C 2065  -0.227   1.916   5.639  0.3082  0.3925 -0.5296
   16MOL0     C 2066  -0.330   1.906   5.540  0.5521 -0.0239  0.5193
   16MOL0     C 2067  -0.464   1.868   5.608 -0.2541  0.0015  0.0638
   16MOL0     C 2068  -0.585   1.873   5.528 -0.0915 -0.0395 -0.4225
   16MOL0    Cl 2069  -0.596   2.014   5.418  0.1384  0.1298  0.3482
   16MOL0     C 2070   0.554   2.062   5.429  0.8023  0.4510 -0.0766
   16MOL0     C 2071   0.692   2.033   5.455  0.5289 -0.4596 -0.0109
   16MOL0     O 2072   0.969   1.959   5.430  0.1693 -0.3057 -0.3004
   16MOL0     C 2073   1.088   1.982   5.764 -0.5088  0.5515  0.0930
   16MOL0     C 2074   1.211   1.973   5.836 -0.4223  0.1627  0.2190
   16MOL0     N 2075   1.409   2.039   6.478 -0.3947  0.2390 -0.1134
   16MOL0     N 2076   1.445   2.030   6.596 -0.1609 -0.2056  0.3326
   16MOL0     C 2077   2.495   1.829   6.044  0.1274  0.6980  0.5241
   16MOL0     C 2078   2.632   1.843   6.046 -1.1243 -1.4785 -0.4208
   16MOL0     C 2079   3.043   1.766   6.162  0.5203  0.0080 -0.1600
   16MOL0     C 2080   3.100   1.870   6.234 -0.3536 -0.7667 -0.0218
   16MOL0     C 2081   3.233   1.893   6.235 -0.6262  0.1631 -0.5478
   16MOL0     C 2082   3.323   1.804   6.172  0.1491 -0.2809  0.1866
   16MOL0     O 2083   3.459   1.833   6.161  0.0586  0.3373  0.1182
   16MOL0     C 2084   3.523   1.910   6.058  0.3400  0.4484  0.3121
   16MOL0     C 2085   3.657   1.852   6.007 -0.0369  0.7058 -0.0427
   16MOL0     C 2086   3.767   1.881   6.106  0.4463  0.2920 -0.2387
   16MOL0     C 2087   3.903   1.824   6.078 -0.8101 -0.5870  0.1651
   16MOL0     C 2088   4.009   1.887   6.162 -0.2511 -0.7353  0.7476
   16MOL0     C 2089   4.096   1.946   6.224 -0.2032 -0.8034  1.0711
   16MOL0     C 2090   3.268   1.686   6.117  0.1858  0.3606 -0.4513
   16MOL0     C 2091   3.128   1.662   6.114 -0.6802 -0.0324 -0.6005
   16MOL0     C 2092   3.066   1.536   6.061  0.5050  0.2670  1.0571
   16MOL0     H 2093   2.673   2.010   6.343 -1.4621  1.1822 -0.2565
   16MOL0     H 2094   2.434   2.014   6.327 -0.2236  1.6878 -1.6513
   16MOL0     H 2095   2.173   2.017   6.256  1.4617  0.6131  1.3334
   16MOL0     H 2096   2.097   1.890   6.173 -0.6443  1.6999 -1.3290
   16MOL0     H 2097   2.288   1.831   6.396  1.0599 -0.8781 -0.1372
   16MOL0     H 2098   2.208   1.707   6.305 -1.3045  0.7817 -0.1687
   16MOL0     H 2099   1.994   1.756   6.383 -0.4374  0.1034  2.6615
   16MOL0     H 2100   2.049   1.919   6.430  3.1112  1.0218 -0.4039
   16MOL0     H 2101   2.105   1.646   6.563  0.6759 -0.0703 -2.4286
   16MOL0     H 2102   2.166   1.802   6.622  1.7149  0.2535 -2.4070
   16MOL0     H 2103   1.879   1.711   6.603 -0.4871  0.0001 -0.3198
   16MOL0     H 2104   1.954   1.761   6.756 -0.5407  0.1492 -0.1175
   16MOL0     H 2105   1.937   1.994   6.688  0.5810  1.3475 -1.1276
   16MOL0     H 2106   1.859   1.955   6.537  0.5745 -2.3556 -1.1684
   16MOL0     H 2107   1.766   1.876   6.816 -2.6101  0.6058  0.9952
   16MOL0     H 2108   1.674   1.837   6.660  0.0260  0.4668 -0.7719
   16MOL0     H 2109   1.596   2.044   6.817  2.6729  4.0717  1.6705
   16MOL0     H 2110   1.728   2.113   6.740  0.6035 -1.5659  2.1687
   16MOL0     H 2111   1.725   2.096   6.450 -0.1350 -1.2936 -1.5387
   16MOL0     H 2112   1.418   2.094   6.227 -1.2572  0.6956  3.6821
   16MOL0     H 2113   1.574   2.181   6.221 -1.1550  0.4616 -1.6843
   16MOL0     H 2114   1.683   1.941   6.238 -0.2868  0.0120  2.4662
   16MOL0     H 2115   1.519   1.881   6.237 -0.7785 -0.5720 -0.6194
   16MOL0     H 2116   1.640   1.863   6.016  4.5632  1.6359  0.9717
   16MOL0     H 2117   1.660   2.038   6.021  0.6152 -0.5752  1.4241
   16MOL0     H 2118   1.430   2.087   5.981  2.3501  0.6535  2.1897
   16MOL0     H 2119   1.379   1.934   6.044 -0.6349  0.3454 -0.0066
   16MOL0     H 2120   1.423   1.940   5.576 -0.6551  0.3413 -2.6569
   16MOL0     H 2121   1.222   1.932   5.451  0.9092 -0.7599  0.9513
   16MOL0     H 2122   0.655   1.937   5.776  1.2541  2.4523 -0.0155
   16MOL0     H 2123   0.402   1.955   5.714  1.1587  0.0574  1.8997
   16MOL0     H 2124   0.214   1.921   5.542  0.6042 -0.1250  2.2170
   16MOL0     H 2125   0.216   2.067   5.653  1.4452  0.8669  0.5935
   16MOL0     H 2126   0.095   2.197   5.469 -1.1046  0.4034  1.4710
   16MOL0     H 2127   0.072   2.046   5.381  2.9148  0.0822 -0.3096
   16MOL0     H 2128  -0.056   2.120   5.648 -0.1161  0.3910  0.0111
   16MOL0     H 2129  -0.136   2.112   5.490  0.1544  1.3363 -0.7037
   16MOL0     H 2130  -0.021   1.885   5.654  0.1670  0.5177  0.4975
   16MOL0     H 2131  -0.075   1.860   5.485  0.1280  0.4741 -0.4763
   16MOL0     H 2132  -0.253   1.993   5.712 -2.3095 -2.4082  1.7835
   16MOL0     H 2133  -0.230   1.822   5.696  1.2005  1.0449  0.6372
   16MOL0     H 2134  -0.321   1.999   5.484 -0.4659 -0.9447 -1.2546
   16MOL0     H 2135  -0.311   1.827   5.467 -0.8114 -0.8804  1.0462
   16MOL0     H 2136  -0.488   1.941   5.686  0.0259  1.3639 -1.0840
   16MOL0     H 2137  -0.449   1.769   5.652  3.5191 -0.2068 -1.3787
   16MOL0     H 2138  -0.593   1.787   5.461 -1.9494 -2.4209  2.5836
   16MOL0     H 2139  -0.667   1.878   5.601 -2.1262 -3.4218 -2.2625
   16MOL0     H 2140   0.526   2.089   5.328  2.7978  0.5510 -0.6517
   16MOL0     H 2141   0.764   2.055   5.377 -1.8336  2.6222 -1.5599
   16MOL0     H 2142   0.995   1.993   5.818 -1.6456 -2.2943 -1.0900
   16MOL0     H 2143   1.202   1.974   5.945 -0.1069  2.0984  0.2523
   16MOL0     H 2144   2.437   1.783   5.965 -1.3918  0.4873  1.7016
   16MOL0     H 2145   2.700   1.799   5.973  1.4802  0.8925  0.4043
   16MOL0     H 2146   3.042   1.938   6.295 -0.2209 -0.7576  0.0938
   16MOL0     H 2147   3.267   1.988   6.276  0.7586 -0.1854 -0.8299
   16MOL0     H 2148   3.530   2.014   6.094 -1.1302  0.1356  1.6345
   16MOL0     H 2149   3.443   1.905   5.983  1.1298 -0.0530 -0.5206
   16MOL0     H 2150   3.676   1.903   5.912  4.8510  1.9290  1.2970
   16MOL0     H 2151   3.648   1.746   5.984  2.6046  0.2770  0.6026
   16MOL0     H 2152   3.728   1.834   6.197  0.2666  1.6779  0.4208
   16MOL0     H 2153   3.768   1.987   6.130 -1.2102  0.7435 -1.9104
   16MOL0     H 2154   3.913   1.716   6.093  0.6145 -0.7736 -1.7639
   16MOL0     H 2155   3.909   1.845   5.971 -3.5444  4.3085  0.6607
   16MOL0     H 2156   4.172   1.985   6.289  0.5015 -0.2743 -0.0372
   16MOL0     H 2157   3.335   1.615   6.069  0.0479 -0.5318  0.6607
   16MOL0     H 2158   3.134   1.487   5.991 -2.5694 -0.6475 -1.5550
   16MOL0     H 2159   3.048   1.472   6.148  0.1441 -2.1312 -0.6639
   16MOL0     H 2160   2.970   1.545   6.009  2.2531 -1.1764 -2.7829
   17MOL0     O 2161   5.177   2.280  10.255  0.3379  0.1099  0.8393
   17MOL0     C 2162   5.118   2.355  10.168  0.0205  0.8850 -0.3037
   17MOL0     O 2163   5.186   2.432  10.077 -0.3049 -0.0124  0.7407
   17MOL0     C 2164   5.315   2.408  10.066 -0.0397 -0.2443  0.3359
   17MOL0     C 2165   5.410   2.510  10.072  0.4234 -0.1180 -0.1756
   17MOL0     C 2166   5.546   2.501  10.041 -0.5881  0.3029  0.1812
   17MOL0     C 2167   5.590   2.376   9.999 -0.8210  1.0289 -0.2124
   17MOL0     O 2168   5.724   2.366   9.975 -0.5149  0.0689 -0.4507
   17MOL0     C 2169   5.771   2.236   9.930  0.2946 -0.3813  0.4308
   17MOL0     C 2170   5.931   2.229   9.908  0.4657 -0.6148  0.2387
   17MOL0     C 2171   5.985   2.341   9.824 -0.0820 -0.0986  0.8751
   17MOL0     C 2172   6.132   2.311   9.791  0.3485  0.5991 -0.6129
   17MOL0     C 2173   6.202   2.438   9.738 -0.7551  0.0953 -0.9980
   17MOL0     C 2174   6.335   2.392   9.680  0.8364  0.3896  0.2521
   17MOL0     C 2175   6.424   2.510   9.655 -0.7532  0.1205  0.1056
   17MOL0     C 2176   6.543   2.476   9.555 -0.6947 -0.1254 -1.1038
   17MOL0     N 2177   6.511   2.454   9.417  0.0788  0.6018  0.5301
   17MOL0     C 2178   6.542   2.542   9.316  0.1137  0.3085 -0.2947
   17MOL0     C 2179   6.524   2.472   9.199  0.8508  0.2986  0.1087
   17MOL0     C 2180   6.569   2.511   9.062 -0.5419  0.1483  0.4378
   17MOL0     C 2181   6.569   2.656   9.038  0.5968 -0.3970 -0.0979
   17MOL0     C 2182   6.638   2.701   8.911 -0.6520  0.5245  0.0913
   17MOL0     C 2183   6.787   2.659   8.896 -0.1559 -0.1731 -0.4648
   17MOL0     O 2184   6.860   2.733   8.995  0.7751  0.4216  0.0616
   17MOL0     C 2185   6.996   2.727   9.001  0.3560 -0.5365 -0.4806
   17MOL0     C 2186   7.065   2.843   9.038  0.3587  1.1153  1.0928
   17MOL0     C 2187   7.200   2.841   9.075  0.3684 -0.4299  0.4583
   17MOL0     C 2188   7.269   2.719   9.057 -0.2831  0.4065 -0.0852
   17MOL0     C 2189   7.412   2.717   9.093 -0.3465  0.1644  0.5159
   17MOL0     O 2190   7.469   2.598   9.088 -0.5076  0.7742 -0.1650
   17MOL0     C 2191   7.598   2.591   9.118 -0.2343  0.9510  0.0672
   17MOL0     C 2192   7.696   2.618   9.019  0.6348 -0.0467 -0.4751
   17MOL0     C 2193   7.834   2.623   9.056  0.0928  0.3813  0.3548
   17MOL0     C 2194   7.867   2.599   9.192 -0.0349  0.2967 -0.4579
   17MOL0     O 2195   7.988   2.580   9.234 -1.4867 -0.6246 -0.6921
   17MOL0     C 2196   8.074   2.681   9.187 -0.4231  0.4088 -0.2086
   17MOL0     C 2197   8.202   2.620   9.127  0.0561  0.1391 -0.5491
   17MOL0     C 2198   8.314   2.722   9.108 -0.0018 -0.3451 -1.0682
   17MOL0     C 2199   8.431   2.666   9.035 -0.4902  0.2065  0.0486
   17MOL0     C 2200   8.532   2.775   8.994  0.0723  0.3927  0.2286
   17MOL0     C 2201   8.614   2.830   9.111  0.2139 -0.2443 -0.3622
   17MOL0     C 2202   8.748   2.754   9.134  0.3753  0.4781  0.2594
   17MOL0     C 2203   8.865   2.855   9.139 -0.7161 -0.1850 -0.4071
   17MOL0    Cl 2204   8.839   2.973   9.285  0.5391 -0.2140  0.4375
   17MOL0     C 2205   7.767   2.580   9.281  0.1509 -0.7630 -0.3624
   17MOL0     C 2206   7.634   2.578   9.250 -0.3190  0.6158  0.2753
   17MOL0     O 2207   7.464   2.822   9.125  0.8613  0.1128  0.2416
   17MOL0     C 2208   7.205   2.603   9.010 -0.3134 -0.6006 -0.7985
   17MOL0     C 2209   7.070   2.608   8.991 -0.0283  0.0794  0.0608
   17MOL0     N 2210   6.464   2.346   9.231 -0.1826 -0.3536 -0.3492
   17MOL0     N 2211   6.447   2.347   9.360  0.1392 -0.3061 -0.2682
   17MOL0     C 2212   5.510   2.269  10.011 -0.0171 -0.3780 -0.2036
   17MOL0     C 2213   5.364   2.280  10.036 -0.3183  0.0288  0.3551
   17MOL0     C 2214   4.969   2.360  10.149 -0.1039 -0.0338 -0.1944
   17MOL0     C 2215   4.916   2.430  10.036 -0.1851 -0.1919 -0.8943
   17MOL0     C 2216   4.781   2.430  10.008  0.2222 -0.5460 -0.0749
   17MOL0     C 2217   4.690   2.366  10.088 -0.2182 -0.1233 -0.6285
   17MOL0     O 2218   4.558   2.388  10.047 -0.2897 -0.1139  0.4997
   17MOL0     C 2219   4.459   2.310  10.099  0.9833 -0.0760 -0.5559
   17MOL0     C 2220   4.440   2.173  10.030 -0.2508  0.2505 -0.3396
   17MOL0     C 2221   4.403   2.197   9.883 -0.1315 -0.0711  0.0970
   17MOL0     C 2222   4.386   2.059   9.814  0.3695  1.0349 -0.5251
   17MOL0     C 2223   4.254   2.003   9.832  0.8292 -0.7636 -1.3372
   17MOL0     C 2224   4.145   1.949   9.852 -0.3305 -0.4933  0.1353
   17MOL0     C 2225   4.734   2.311  10.210  0.0380  0.6351  0.6658
   17MOL0     C 2226   4.876   2.289  10.230  0.1233  0.5370  0.5371
   17MOL0     C 2227   4.914   2.182  10.333 -0.1273  0.1247 -0.2823
   17MOL0     H 2228   5.368   2.607  10.099  2.1761  0.5887  0.1524
   17MOL0     H 2229   5.619   2.581  10.045 -0.6179  0.2944  1.0292
   17MOL0     H 2230   5.744   2.164  10.007  1.3859 -0.0016  1.1923
   17MOL0     H 2231   5.724   2.226   9.832  0.4131  2.7506 -0.0777
   17MOL0     H 2232   5.960   2.134   9.862 -0.0268 -0.2950 -0.7742
   17MOL0     H 2233   5.974   2.232  10.008 -3.1996 -1.9047  1.9978
   17MOL0     H 2234   5.974   2.438   9.873 -1.1570 -0.8711  2.2333
   17MOL0     H 2235   5.934   2.365   9.730  0.6716  1.5131  0.8375
   17MOL0     H 2236   6.178   2.277   9.885 -0.2533 -0.9512 -0.8435
   17MOL0     H 2237   6.141   2.243   9.706 -0.5081  2.3612 -2.1720
   17MOL0     H 2238   6.145   2.494   9.664  0.1887  1.7540 -0.5284
   17MOL0     H 2239   6.207   2.501   9.828  1.4935 -1.7718  0.3267
   17MOL0     H 2240   6.382   2.319   9.745  2.0222  0.6153 -0.3239
   17MOL0     H 2241   6.317   2.346   9.582 -0.9767  2.2890 -0.3998
   17MOL0     H 2242   6.479   2.533   9.747  4.8490  0.5981 -2.9005
   17MOL0     H 2243   6.361   2.594   9.623 -0.5661  0.4958  0.7094
   17MOL0     H 2244   6.617   2.557   9.558  0.1778 -0.9016  1.0943
   17MOL0     H 2245   6.596   2.388   9.593 -0.9561 -1.0639 -2.8440
   17MOL0     H 2246   6.583   2.641   9.327  2.1033 -0.5835  0.8764
   17MOL0     H 2247   6.666   2.465   9.042 -0.7572 -0.0076 -0.2637
   17MOL0     H 2248   6.504   2.469   8.985  0.2365  2.2041 -1.4420
   17MOL0     H 2249   6.461   2.674   9.029  0.3501 -1.1521  1.1253
   17MOL0     H 2250   6.608   2.712   9.124 -3.0379 -0.7572  2.0092
   17MOL0     H 2251   6.630   2.810   8.918 -2.0533  0.4533 -0.0560
   17MOL0     H 2252   6.590   2.664   8.820 -0.7635  3.2180 -1.0565
   17MOL0     H 2253   6.823   2.697   8.800 -0.3836  0.1056 -0.4425
   17MOL0     H 2254   6.811   2.553   8.897 -0.1945 -0.1813 -0.4027
   17MOL0     H 2255   7.006   2.934   9.047  0.1761  1.1015  0.1396
   17MOL0     H 2256   7.238   2.934   9.117  1.6051 -1.3080  1.3581
   17MOL0     H 2257   7.674   2.625   8.913  2.2708 -2.3500 -1.0373
   17MOL0     H 2258   7.917   2.623   8.985  1.5704 -4.5197  1.6701
   17MOL0     H 2259   8.036   2.756   9.117 -1.4872 -0.6184 -0.7598
   17MOL0     H 2260   8.107   2.733   9.277  0.7856  1.1212 -1.0353
   17MOL0     H 2261   8.245   2.541   9.188  0.5815  2.1628  1.8715
   17MOL0     H 2262   8.187   2.561   9.037 -3.9785 -1.7189  1.0629
   17MOL0     H 2263   8.280   2.804   9.044  0.3545 -0.2007 -1.0716
   17MOL0     H 2264   8.353   2.764   9.201  0.0027 -1.4357 -0.5612
   17MOL0     H 2265   8.396   2.604   8.952  2.2524 -3.2666  1.2360
   17MOL0     H 2266   8.486   2.597   9.099 -0.0413 -0.4273 -0.9912
   17MOL0     H 2267   8.483   2.860   8.944  3.1555  1.3976 -1.3627
   17MOL0     H 2268   8.596   2.734   8.916 -0.2925  1.5689 -0.7250
   17MOL0     H 2269   8.636   2.933   9.081 -0.8270  0.7264  1.9671
   17MOL0     H 2270   8.562   2.837   9.207 -0.9496 -1.3831 -0.8812
   17MOL0     H 2271   8.771   2.677   9.060  0.8212  0.1892  0.6850
   17MOL0     H 2272   8.740   2.711   9.235  1.8267 -2.1422 -0.6371
   17MOL0     H 2273   8.949   2.791   9.168  0.2088  1.8989  1.8371
   17MOL0     H 2274   8.866   2.906   9.043 -2.7890 -0.6718 -0.7392
   17MOL0     H 2275   7.785   2.553   9.385 -2.8535 -1.0209  0.1926
   17MOL0     H 2276   7.558   2.563   9.326 -1.2046 -0.1224 -0.7178
   17MOL0     H 2277   7.246   2.503   9.010 -1.0401 -0.9790  1.8953
   17MOL0     H 2278   7.023   2.516   8.959 -0.5471  0.9395 -1.8039
   17MOL0     H 2279   5.551   2.171   9.991  0.8734 -0.9317  3.6036
   17MOL0     H 2280   5.307   2.189  10.017 -0.1788  0.2566 -1.2114
   17MOL0     H 2281   4.979   2.490   9.971 -0.4718  0.7847 -0.2834
   17MOL0     H 2282   4.745   2.474   9.915  0.7958 -0.3706 -0.2182
   17MOL0     H 2283   4.364   2.364  10.093 -0.7040 -2.3032  2.6337
   17MOL0     H 2284   4.472   2.305  10.208  0.9381  1.8314 -0.4370
   17MOL0     H 2285   4.365   2.113  10.082  1.1320 -2.4234 -1.2278
   17MOL0     H 2286   4.534   2.118  10.037 -1.8785 -2.4773  1.7368
   17MOL0     H 2287   4.480   2.246   9.823  0.4326 -3.6796 -2.4703
   17MOL0     H 2288   4.310   2.254   9.876 -0.3526 -0.3099  1.0282
   17MOL0     H 2289   4.404   2.069   9.706 -1.8676  3.6051 -0.7728
   17MOL0     H 2290   4.468   1.996   9.850 -2.2350 -3.3357 -1.5948
   17MOL0     H 2291   4.055   1.893   9.867 -1.2192  0.7074 -0.5996
   17MOL0     H 2292   4.662   2.257  10.271  1.0823 -0.1504  1.2320
   17MOL0     H 2293   4.829   2.123  10.366 -0.2942  0.9052  0.7544
   17MOL0     H 2294   4.986   2.117  10.283  0.4967  0.6150 -0.0446
   17MOL0     H 2295   4.946   2.228  10.427 -2.5405 -1.8789  1.6415
   18MOL0     O 2296   4.284   3.023   4.236  0.0351 -0.3216 -0.1585
   18MOL0     C 2297   4.215   2.995   4.142 -0.4173 -0.6279  1.2632
   18MOL0     O 2298   4.266   2.962   4.017  0.3632 -0.4102 -0.1779
   18MOL0     C 2299   4.404   2.943   4.018  0.2708  0.4021 -0.7848
   18MOL0     C 2300   4.460   2.822   4.070  0.4145 -0.1318 -0.3131
   18MOL0     C 2301   4.598   2.812   4.071 -0.6324  0.7238  0.5191
   18MOL0     C 2302   4.681   2.911   4.018 -0.6302  0.0844  0.2465
   18MOL0     O 2303   4.820   2.899   4.029 -0.0196 -0.0556 -0.2489
   18MOL0     C 2304   4.885   2.986   4.124  0.4842  0.1110  0.1975
   18MOL0     C 2305   4.987   2.902   4.196 -0.8925 -0.0953 -1.2116
   18MOL0     C 2306   5.081   2.992   4.291 -0.1032 -0.0146  0.4556
   18MOL0     C 2307   5.206   2.918   4.348  0.1605  0.3409  0.9963
   18MOL0     C 2308   5.287   3.009   4.429 -0.0793  0.0094 -0.5126
   18MOL0     C 2309   5.404   2.951   4.510  0.1071 -0.5327 -0.8050
   18MOL0     C 2310   5.504   3.062   4.565 -0.3808  0.6394  0.6929
   18MOL0     C 2311   5.641   3.012   4.579  0.3712 -0.0750  0.2953
   18MOL0     N 2312   5.729   3.119   4.629 -0.0997 -0.4362  0.7982
   18MOL0     C 2313   5.819   3.200   4.560  0.0545 -0.2032  0.2711
   18MOL0     C 2314   5.915   3.244   4.644  0.3164  0.2856 -0.1385
   18MOL0     C 2315   6.028   3.342   4.614 -0.0360 -0.5093 -0.7874
   18MOL0     C 2316   6.170   3.293   4.655 -0.4735 -0.4955  0.0551
   18MOL0     C 2317   6.285   3.385   4.602 -0.4065 -0.3074  0.1971
   18MOL0     C 2318   6.422   3.313   4.619 -0.1976  0.0138 -0.5170
   18MOL0     O 2319   6.424   3.197   4.546 -1.0627  0.3476  0.4685
   18MOL0     C 2320   6.525   3.116   4.561 -0.3870  0.8058 -0.0931
   18MOL0     C 2321   6.515   2.995   4.492 -0.2293 -0.1855  0.0034
   18MOL0     C 2322   6.617   2.899   4.490  0.1102  0.2648 -0.9573
   18MOL0     C 2323   6.746   2.927   4.536 -0.3375  0.9154  0.1686
   18MOL0     C 2324   6.858   2.834   4.526  0.4306 -0.3438 -0.6629
   18MOL0     O 2325   6.978   2.887   4.559  0.1823  0.1833  0.3455
   18MOL0     C 2326   7.096   2.816   4.549 -0.6084  0.3098  0.5453
   18MOL0     C 2327   7.148   2.777   4.418  0.2870  0.4036 -0.2391
   18MOL0     C 2328   7.262   2.696   4.396  0.9507 -0.4251 -0.0273
   18MOL0     C 2329   7.336   2.655   4.504  0.1592 -0.5972  0.8183
   18MOL0     O 2330   7.457   2.591   4.499 -0.8866  0.1249 -0.1896
   18MOL0     C 2331   7.514   2.525   4.381  0.6656  0.2275 -0.7620
   18MOL0     C 2332   7.618   2.418   4.429 -0.8135  0.1339  0.5627
   18MOL0     C 2333   7.650   2.322   4.308  0.9029  0.0714 -0.3614
   18MOL0     C 2334   7.785   2.257   4.318  0.3150  0.4304  0.4809
   18MOL0     C 2335   7.829   2.179   4.197  0.5236 -0.3645 -0.2004
   18MOL0     C 2336   7.946   2.094   4.221 -0.4638  0.0791 -1.1614
   18MOL0     C 2337   8.039   2.088   4.103  0.2740  0.3552  0.2690
   18MOL0     C 2338   8.150   1.986   4.144  0.1648  0.1666 -0.2487
   18MOL0    Cl 2339   8.297   1.993   4.041  0.1939  0.4862 -0.2474
   18MOL0     C 2340   7.301   2.709   4.627 -0.7754 -0.9430 -0.4259
   18MOL0     C 2341   7.179   2.785   4.651 -0.1251  0.4547 -0.3574
   18MOL0     O 2342   6.835   2.718   4.496  0.1164  0.3756 -0.1402
   18MOL0     C 2343   6.763   3.056   4.585 -0.4970 -0.4162  0.0564
   18MOL0     C 2344   6.656   3.146   4.609 -0.7568  0.6631  0.2100
   18MOL0     N 2345   5.879   3.200   4.771  0.1612  0.0050  0.2097
   18MOL0     N 2346   5.764   3.130   4.760 -0.1604  0.4300 -0.6306
   18MOL0     C 2347   4.621   3.025   3.961 -0.4906 -0.0704 -1.0453
   18MOL0     C 2348   4.481   3.042   3.966  0.2694  0.7250  0.4018
   18MOL0     C 2349   4.070   2.994   4.161 -0.5220  0.3137 -0.1850
   18MOL0     C 2350   4.014   3.052   4.275  0.1882 -0.2055 -0.0189
   18MOL0     C 2351   3.883   3.042   4.309  0.2158 -0.4476 -0.1831
   18MOL0     C 2352   3.789   3.003   4.211  0.3748 -0.4220  0.0304
   18MOL0     O 2353   3.646   3.014   4.226 -0.5670 -0.1996  0.1747
   18MOL0     C 2354   3.592   3.069   4.342  0.1819 -0.1636 -1.1363
   18MOL0     C 2355   3.566   3.217   4.334 -0.7160 -0.0313  0.7743
   18MOL0     C 2356   3.433   3.264   4.273 -0.1505 -0.1684  0.1684
   18MOL0     C 2357   3.439   3.414   4.290  0.4683  0.3576 -0.6352
   18MOL0     C 2358   3.305   3.470   4.266 -0.7600 -0.2019  0.1328
   18MOL0     C 2359   3.203   3.516   4.231  0.7451 -1.2013 -0.5465
   18MOL0     C 2360   3.835   2.948   4.095  0.7786  0.3677 -0.4878
   18MOL0     C 2361   3.976   2.931   4.079 -0.0178 -0.0340  0.5324
   18MOL0     C 2362   4.025   2.836   3.970  0.2947  0.6673 -0.1065
   18MOL0     H 2363   4.393   2.748   4.113  1.9402 -0.6833  1.2620
   18MOL0     H 2364   4.658   2.729   4.109  1.0493  1.9443  0.6673
   18MOL0     H 2365   4.929   3.077   4.082 -0.5606  1.6952  2.3296
   18MOL0     H 2366   4.820   3.030   4.201  2.2869 -0.2586  2.0231
   18MOL0     H 2367   5.048   2.853   4.119  0.1798  0.4095 -0.7137
   18MOL0     H 2368   4.932   2.834   4.261  1.0384  2.5661  3.7041
   18MOL0     H 2369   5.013   3.016   4.373 -1.2291  2.2906 -1.0615
   18MOL0     H 2370   5.105   3.080   4.231 -4.2729  0.6066 -0.5846
   18MOL0     H 2371   5.164   2.840   4.411 -0.4233 -1.3667 -1.3987
   18MOL0     H 2372   5.251   2.865   4.263 -3.3003 -2.1982  0.5600
   18MOL0     H 2373   5.332   3.073   4.352 -4.4228  1.6139 -1.9938
   18MOL0     H 2374   5.227   3.075   4.493 -0.5339  0.3261 -1.2581
   18MOL0     H 2375   5.357   2.895   4.592 -3.2475  1.2013 -1.3525
   18MOL0     H 2376   5.450   2.874   4.448  4.7121  0.0982  1.4053
   18MOL0     H 2377   5.466   3.105   4.658  0.4389 -0.4851  1.5772
   18MOL0     H 2378   5.511   3.138   4.486  0.8397  0.7823  0.9156
   18MOL0     H 2379   5.644   2.927   4.648  3.6259 -2.2224 -2.2114
   18MOL0     H 2380   5.676   2.978   4.481 -1.8692  0.5089 -0.7762
   18MOL0     H 2381   5.804   3.218   4.455 -0.7174 -4.0666 -0.4557
   18MOL0     H 2382   6.027   3.360   4.506 -0.1694 -0.5464 -0.7928
   18MOL0     H 2383   6.009   3.436   4.667 -3.0213 -2.3648  1.7717
   18MOL0     H 2384   6.174   3.280   4.764 -2.2066 -1.8355  0.0037
   18MOL0     H 2385   6.192   3.196   4.609  1.6542  0.8565 -2.0144
   18MOL0     H 2386   6.285   3.476   4.663 -1.7729  2.2471 -3.2672
   18MOL0     H 2387   6.272   3.413   4.497 -0.2134  1.5836  0.6471
   18MOL0     H 2388   6.433   3.286   4.724 -2.1632  0.7514 -0.0758
   18MOL0     H 2389   6.499   3.387   4.595 -0.8286  0.9402  0.2360
   18MOL0     H 2390   6.418   2.978   4.447  0.3173  1.1990 -1.8394
   18MOL0     H 2391   6.585   2.799   4.462  0.8853  0.0790 -1.1992
   18MOL0     H 2392   7.098   2.828   4.336 -0.1690  0.1577 -0.1145
   18MOL0     H 2393   7.294   2.682   4.293  0.4491  3.7200 -0.9538
   18MOL0     H 2394   7.437   2.478   4.319 -0.0678  0.6158 -0.1635
   18MOL0     H 2395   7.565   2.595   4.314  2.0698 -0.8455 -0.8596
   18MOL0     H 2396   7.708   2.458   4.476 -0.7199 -0.2740  0.7423
   18MOL0     H 2397   7.576   2.353   4.506 -0.8021 -1.0390 -0.3874
   18MOL0     H 2398   7.568   2.250   4.302  0.2577  0.4802  2.2602
   18MOL0     H 2399   7.649   2.375   4.212 -0.2260 -0.1845 -0.5023
   18MOL0     H 2400   7.765   2.184   4.397 -2.3582 -1.0894 -1.4557
   18MOL0     H 2401   7.864   2.322   4.359 -0.1333  1.0644  0.3592
   18MOL0     H 2402   7.848   2.251   4.117 -2.7809 -1.5642 -2.2504
   18MOL0     H 2403   7.748   2.116   4.162 -0.2936  1.3494 -1.5349
   18MOL0     H 2404   8.005   2.129   4.307 -2.9661  2.2662 -0.2119
   18MOL0     H 2405   7.903   1.996   4.245 -0.7713 -0.0986 -2.3759
   18MOL0     H 2406   8.080   2.187   4.084  0.4493  0.0913 -0.8038
   18MOL0     H 2407   7.991   2.045   4.014  1.3262  0.2290 -0.2625
   18MOL0     H 2408   8.190   1.992   4.246  2.6041 -1.3760 -1.0200
   18MOL0     H 2409   8.108   1.885   4.147  0.5811  0.0078  0.9951
   18MOL0     H 2410   7.375   2.689   4.703  1.7398 -1.5250 -2.8442
   18MOL0     H 2411   7.160   2.812   4.755  1.0480 -0.1405  0.0219
   18MOL0     H 2412   6.859   3.093   4.620  0.3608 -0.7650 -1.8019
   18MOL0     H 2413   6.689   3.244   4.643  1.1916 -0.7899  2.9163
   18MOL0     H 2414   4.674   3.099   3.901  1.2822 -0.7174 -0.3381
   18MOL0     H 2415   4.432   3.123   3.913  0.5663 -0.3228 -1.5845
   18MOL0     H 2416   4.089   3.095   4.342  0.9111  0.4247 -1.1939
   18MOL0     H 2417   3.851   3.081   4.405 -1.5141  0.2152 -0.9876
   18MOL0     H 2418   3.646   3.042   4.434 -0.2116  2.9787  0.1531
   18MOL0     H 2419   3.494   3.022   4.349  0.5649 -1.1068 -1.9628
   18MOL0     H 2420   3.645   3.269   4.279 -1.7550  0.0800 -0.6959
   18MOL0     H 2421   3.575   3.246   4.439  2.6678 -0.6825  0.7622
   18MOL0     H 2422   3.339   3.233   4.320 -1.1671  0.5878 -1.2996
   18MOL0     H 2423   3.434   3.239   4.167  2.9300  1.5528 -0.3114
   18MOL0     H 2424   3.471   3.435   4.392  1.2558 -3.3275  0.0182
   18MOL0     H 2425   3.510   3.460   4.220  0.0724 -0.5741 -1.6857
   18MOL0     H 2426   3.105   3.549   4.203  0.7926  0.3002  0.9497
   18MOL0     H 2427   3.770   2.915   4.014  0.0763 -0.2161  0.2910
   18MOL0     H 2428   3.938   2.785   3.928 -0.6983  2.1035  0.1608
   18MOL0     H 2429   4.064   2.884   3.880  1.8969 -1.3016 -0.5517
   18MOL0     H 2430   4.097   2.764   4.010  0.7433  0.2741 -1.5486
   19MOL0     O 2431   9.806   5.972   6.403  0.4016 -0.1007  0.2096
   19MOL0     C 2432   9.821   6.086   6.370 -0.2442  0.0808  0.5900
   19MOL0     O 2433   9.940   6.163   6.375  0.6250 -0.0705  0.6926
   19MOL0     C 2434  10.067   6.129   6.419 -0.3699 -0.2131 -0.8987
   19MOL0     C 2435  10.156   6.236   6.447 -0.7116  0.0506  0.2044
   19MOL0     C 2436  10.288   6.218   6.489  0.0819  0.2603  0.9199
   19MOL0     C 2437  10.343   6.090   6.499  0.0254 -0.1229  0.3166
   19MOL0     O 2438  10.473   6.092   6.540  0.4365  0.4518  0.0315
   19MOL0     C 2439  10.523   5.962   6.567  0.6652  0.7154 -0.2535
   19MOL0     C 2440  10.656   5.977   6.641 -0.2140 -0.3200  0.4789
   19MOL0     C 2441  10.711   5.834   6.669  0.0111 -1.1561 -0.2946
   19MOL0     C 2442  10.849   5.851   6.739 -0.6674  0.8513 -0.3745
   19MOL0     C 2443  10.960   5.869   6.635 -0.3386 -0.4072  0.5560
   19MOL0     C 2444  11.096   5.891   6.715 -0.3081  0.5431 -0.5683
   19MOL0     C 2445  11.167   5.761   6.765  0.0100 -0.0225 -0.0800
   19MOL0     C 2446  11.280   5.781   6.871 -0.5099  0.0323  1.0677
   19MOL0     N 2447  11.400   5.841   6.811 -0.0976 -0.4163 -0.1005
   19MOL0     C 2448  11.516   5.772   6.774 -0.0412 -0.6661 -0.4013
   19MOL0     C 2449  11.602   5.873   6.749 -0.5552  0.8452 -0.4007
   19MOL0     C 2450  11.757   5.856   6.735  0.6157 -0.2302  0.0129
   19MOL0     C 2451  11.825   5.950   6.817 -0.0079 -0.0589 -0.1927
   19MOL0     C 2452  11.973   5.917   6.816  0.0825 -0.7707  0.5508
   19MOL0     C 2453  12.060   6.032   6.877  0.6789 -0.3342 -0.1583
   19MOL0     O 2454  12.189   5.968   6.873  0.4549 -0.5352 -0.2898
   19MOL0     C 2455  12.302   6.044   6.851  0.7711 -0.0128 -0.0232
   19MOL0     C 2456  12.396   5.978   6.770 -0.0098 -0.5390 -0.2080
   19MOL0     C 2457  12.523   6.035   6.734 -0.1527 -0.0557  0.5273
   19MOL0     C 2458  12.565   6.157   6.789 -0.1997 -0.2805  0.3299
   19MOL0     C 2459  12.710   6.207   6.758  1.0485  0.6129  0.3915
   19MOL0     O 2460  12.748   6.322   6.823 -0.0215 -0.1254  0.4064
   19MOL0     C 2461  12.822   6.416   6.756 -1.3729 -0.2809 -0.3849
   19MOL0     C 2462  12.913   6.486   6.835  1.1274  0.3377 -0.0052
   19MOL0     C 2463  12.996   6.585   6.781  0.1689 -0.0521  0.1542
   19MOL0     C 2464  12.995   6.619   6.647 -0.5893 -0.6883  0.4392
   19MOL0     O 2465  13.089   6.719   6.607  0.0505  0.3576  0.0742
   19MOL0     C 2466  13.146   6.696   6.474 -0.5353 -0.3782 -0.0471
   19MOL0     C 2467  13.249   6.800   6.432  0.3350  0.4635  0.5945
   19MOL0     C 2468  13.389   6.769   6.477  0.1863  0.1935  0.3230
   19MOL0     C 2469  13.493   6.857   6.422 -0.1575  0.0205  1.1124
   19MOL0     C 2470  13.466   7.005   6.402  0.0792  0.1461 -0.3812
   19MOL0     C 2471  13.599   7.083   6.398  0.7878  0.4531  0.5012
   19MOL0     C 2472  13.585   7.224   6.346 -0.4479 -0.1237  0.3288
   19MOL0     C 2473  13.724   7.282   6.329  0.2737  0.1223 -0.2722
   19MOL0    Cl 2474  13.709   7.426   6.235  0.1302 -0.3096 -0.4805
   19MOL0     C 2475  12.914   6.546   6.565 -0.0789  0.2184 -0.4499
   19MOL0     C 2476  12.825   6.447   6.618  0.5023 -0.6898  0.3342
   19MOL0     O 2477  12.772   6.145   6.675  0.7438  0.7259  0.2607
   19MOL0     C 2478  12.467   6.227   6.876 -0.2675  0.1698  1.0810
   19MOL0     C 2479  12.336   6.177   6.890  0.4253  0.7752  0.2033
   19MOL0     N 2480  11.536   5.995   6.750 -0.3658  0.4080 -0.3251
   19MOL0     N 2481  11.418   5.976   6.788  0.4454  0.2598 -0.5617
   19MOL0     C 2482  10.256   5.984   6.468 -0.1678 -0.6637 -0.2615
   19MOL0     C 2483  10.123   5.999   6.423 -0.0073 -0.8432  0.1891
   19MOL0     C 2484   9.712   6.152   6.316  0.3617 -0.7512 -0.4074
   19MOL0     C 2485   9.735   6.211   6.192 -0.7696  0.2720  0.4313
   19MOL0     C 2486   9.632   6.257   6.121 -0.0369  0.2086 -0.3225
   19MOL0     C 2487   9.500   6.245   6.159 -0.2490  0.6580  0.1058
   19MOL0     O 2488   9.405   6.300   6.079  0.3611  0.4685 -0.2599
   19MOL0     C 2489   9.276   6.242   6.092  0.2483 -0.6351  0.2392
   19MOL0     C 2490   9.195   6.316   5.980  0.3988  0.0950  0.1491
   19MOL0     C 2491   9.241   6.284   5.832 -0.6366 -0.4142 -0.0148
   19MOL0     C 2492   9.302   6.406   5.761  0.8605 -0.1235 -0.1261
   19MOL0     C 2493   9.205   6.512   5.730  0.2833  0.5686  0.6057
   19MOL0     C 2494   9.130   6.595   5.691  0.3189 -0.0071  0.0022
   19MOL0     C 2495   9.470   6.190   6.290 -0.1311 -0.5217 -0.0890
   19MOL0     C 2496   9.579   6.146   6.368  0.1743  0.2468 -0.2405
   19MOL0     C 2497   9.549   6.113   6.502 -0.0762 -0.5163  0.8958
   19MOL0     H 2498  10.120   6.339   6.443 -0.6490  0.0354 -1.1095
   19MOL0     H 2499  10.344   6.305   6.520  3.3353 -0.3413 -2.5331
   19MOL0     H 2500  10.457   5.905   6.633  0.6694  0.5473 -0.3946
   19MOL0     H 2501  10.542   5.903   6.478  0.1569 -0.9284  0.6882
   19MOL0     H 2502  10.639   6.042   6.728 -2.9226  1.4156 -1.1871
   19MOL0     H 2503  10.728   6.023   6.572  0.4717  0.1217  1.4622
   19MOL0     H 2504  10.721   5.773   6.579 -0.0844 -2.3382  0.4681
   19MOL0     H 2505  10.637   5.780   6.728 -0.6776 -1.2028 -1.1893
   19MOL0     H 2506  10.841   5.922   6.822 -2.5989 -0.0796  0.3101
   19MOL0     H 2507  10.862   5.752   6.785 -3.1088  0.4912 -0.3388
   19MOL0     H 2508  10.955   5.786   6.565 -3.1493 -1.0220  1.3889
   19MOL0     H 2509  10.934   5.957   6.575  1.0107 -0.3617 -0.0150
   19MOL0     H 2510  11.160   5.943   6.643 -0.3425  1.2288 -0.1192
   19MOL0     H 2511  11.072   5.955   6.801 -0.8978 -0.8900  0.3858
   19MOL0     H 2512  11.209   5.704   6.681 -2.0542  1.8250 -2.5270
   19MOL0     H 2513  11.090   5.694   6.804 -0.9654  0.2233 -1.4955
   19MOL0     H 2514  11.245   5.840   6.957 -1.4763 -1.1667  1.5456
   19MOL0     H 2515  11.311   5.683   6.909  2.9244 -0.5648 -2.6299
   19MOL0     H 2516  11.546   5.668   6.771  1.1897 -0.3123 -0.7849
   19MOL0     H 2517  11.777   5.754   6.768  1.5108  0.2655  1.0518
   19MOL0     H 2518  11.781   5.873   6.629 -0.1425 -1.4643 -0.3723
   19MOL0     H 2519  11.804   6.049   6.775 -1.0911  0.6925  1.9342
   19MOL0     H 2520  11.783   5.945   6.918 -0.9040  0.5563 -0.5246
   19MOL0     H 2521  12.009   5.902   6.714 -0.7394 -0.2349  0.1697
   19MOL0     H 2522  11.983   5.822   6.869  0.7336 -1.8788 -1.4777
   19MOL0     H 2523  12.035   6.054   6.981 -0.5376  1.3473 -0.7483
   19MOL0     H 2524  12.046   6.125   6.821 -1.8669 -0.2683  0.4453
   19MOL0     H 2525  12.366   5.883   6.726 -1.4224  0.3454 -1.2363
   19MOL0     H 2526  12.587   5.981   6.666 -0.7561  1.3068 -1.1963
   19MOL0     H 2527  12.918   6.463   6.941 -1.0161 -1.3859 -0.2071
   19MOL0     H 2528  13.066   6.634   6.848  1.5859 -0.4434 -0.9825
   19MOL0     H 2529  13.202   6.602   6.463  0.7594  0.2962  0.5294
   19MOL0     H 2530  13.065   6.703   6.401 -0.4062 -1.5062 -0.3228
   19MOL0     H 2531  13.243   6.802   6.323  0.5708  0.2958  0.5779
   19MOL0     H 2532  13.216   6.895   6.474 -0.3666  0.3414  0.3491
   19MOL0     H 2533  13.390   6.759   6.586  2.3510  0.7905  0.3906
   19MOL0     H 2534  13.415   6.671   6.438 -0.4463  0.3644 -0.5533
   19MOL0     H 2535  13.530   6.814   6.328  2.0784  3.5188  0.2288
   19MOL0     H 2536  13.575   6.848   6.494  1.5433  0.3069 -0.7018
   19MOL0     H 2537  13.403   7.043   6.484  1.1340  0.5442  0.2610
   19MOL0     H 2538  13.406   7.020   6.311  0.7698 -0.3669 -0.9237
   19MOL0     H 2539  13.643   7.072   6.498 -2.2802  0.3578  1.9518
   19MOL0     H 2540  13.659   7.024   6.328  1.7764  0.4774  1.2971
   19MOL0     H 2541  13.527   7.288   6.413 -1.0109 -2.9543  2.8014
   19MOL0     H 2542  13.525   7.224   6.255  0.1818 -1.0362 -0.1153
   19MOL0     H 2543  13.765   7.305   6.428 -1.5499 -3.3661  1.4663
   19MOL0     H 2544  13.786   7.205   6.281 -1.4907 -1.8696  0.4870
   19MOL0     H 2545  12.924   6.556   6.457  0.1265  0.8784 -0.3763
   19MOL0     H 2546  12.772   6.385   6.547  1.3047 -0.8763 -0.1112
   19MOL0     H 2547  12.495   6.323   6.919 -3.1311  0.3545  2.8251
   19MOL0     H 2548  12.258   6.222   6.950 -2.3998 -2.5133 -0.7009
   19MOL0     H 2549  10.293   5.882   6.472 -1.0768 -0.9606  1.7063
   19MOL0     H 2550  10.068   5.910   6.396 -0.8645  0.4047 -2.5063
   19MOL0     H 2551   9.837   6.220   6.157 -1.8184  1.1048 -2.7245
   19MOL0     H 2552   9.636   6.294   6.019 -2.1601 -0.9256 -0.8808
   19MOL0     H 2553   9.233   6.269   6.188 -0.5164 -3.0808  0.6636
   19MOL0     H 2554   9.267   6.134   6.072 -0.1301 -0.1942 -2.4080
   19MOL0     H 2555   9.193   6.425   5.995  0.7304 -0.0299  1.1952
   19MOL0     H 2556   9.092   6.282   5.989  0.0225  1.4128  1.1849
   19MOL0     H 2557   9.163   6.226   5.781  0.1477 -2.3590  0.9033
   19MOL0     H 2558   9.325   6.216   5.842 -0.1915  0.1752  0.3203
   19MOL0     H 2559   9.375   6.455   5.826 -1.4277  3.1033  0.2734
   19MOL0     H 2560   9.343   6.388   5.662 -2.5028  1.0149 -1.9167
   19MOL0     H 2561   9.057   6.667   5.660 -0.3657  0.3911  2.3190
   19MOL0     H 2562   9.372   6.191   6.337  1.0226  2.5097  2.6315
   19MOL0     H 2563   9.607   6.027   6.537  0.9657  0.4043  1.5288
   19MOL0     H 2564   9.581   6.193   6.570 -1.2152  0.1046  0.7268
   19MOL0     H 2565   9.441   6.102   6.516  0.1790 -1.0289  2.7926
   20MOL0     O 2566   6.664   2.797   3.780 -0.0933 -0.2018  0.7507
   20MOL0     C 2567   6.662   2.902   3.847 -0.8401 -0.0860 -0.2084
   20MOL0     O 2568   6.749   3.005   3.847  0.9592  0.2552  0.0447
   20MOL0     C 2569   6.874   2.984   3.800  0.4539  0.5683  0.2696
   20MOL0     C 2570   6.951   2.863   3.818  0.5049 -0.8036 -0.0147
   20MOL0     C 2571   7.074   2.847   3.753  0.2894 -0.4353  0.8098
   20MOL0     C 2572   7.135   2.959   3.697  0.2881  0.0733 -0.0399
   20MOL0     O 2573   7.264   2.972   3.659 -0.2860 -0.4564  0.3202
   20MOL0     C 2574   7.351   2.859   3.659 -0.4415  0.2684  0.3179
   20MOL0     C 2575   7.433   2.842   3.782  0.0787  0.6734 -0.4968
   20MOL0     C 2576   7.517   2.973   3.807  0.3374 -0.2257 -0.7519
   20MOL0     C 2577   7.641   2.982   3.705  0.4894 -0.6025  0.6179
   20MOL0     C 2578   7.745   3.088   3.723  0.6351 -0.3023 -0.3589
   20MOL0     C 2579   7.840   3.057   3.841  0.7056  0.0221  0.3407
   20MOL0     C 2580   7.955   3.157   3.831  0.8882  0.0611 -0.3165
   20MOL0     C 2581   8.046   3.154   3.959 -0.1827 -0.3538  0.4364
   20MOL0     N 2582   8.157   3.061   3.945 -0.6522 -0.1243 -0.0446
   20MOL0     C 2583   8.277   3.091   3.883 -0.2974  0.1266 -0.4470
   20MOL0     C 2584   8.360   2.988   3.922 -0.1860  0.0277 -0.1603
   20MOL0     C 2585   8.502   2.962   3.881 -0.1016  0.2435  0.0084
   20MOL0     C 2586   8.603   3.061   3.938  0.7603  0.4192  0.4701
   20MOL0     C 2587   8.621   3.035   4.087 -0.3629  0.0016  0.3103
   20MOL0     C 2588   8.685   3.149   4.159 -0.7221  0.3921  0.4078
   20MOL0     O 2589   8.820   3.154   4.125 -0.8724 -0.1255  0.2248
   20MOL0     C 2590   8.907   3.199   4.226 -0.8585 -0.3942  0.6539
   20MOL0     C 2591   9.045   3.158   4.221  0.0950 -0.2733 -0.4691
   20MOL0     C 2592   9.137   3.183   4.323  0.5248  0.1376  0.2581
   20MOL0     C 2593   9.094   3.268   4.433 -0.8941  0.4862  0.3236
   20MOL0     C 2594   9.184   3.308   4.546 -0.1123  0.8792  1.3436
   20MOL0     O 2595   9.134   3.388   4.637  0.2366 -0.5476 -0.7297
   20MOL0     C 2596   9.207   3.464   4.730 -0.3252 -0.2783  0.2909
   20MOL0     C 2597   9.342   3.435   4.765 -0.5606 -0.4108 -0.3225
   20MOL0     C 2598   9.414   3.520   4.851 -0.6131  0.5640 -0.2282
   20MOL0     C 2599   9.354   3.629   4.912  0.5650  0.2574 -0.1061
   20MOL0     O 2600   9.432   3.694   5.015  0.0530  0.1503  0.7806
   20MOL0     C 2601   9.372   3.815   5.068 -1.1033 -1.0876  0.8892
   20MOL0     C 2602   9.492   3.912   5.104  0.3427  0.6810  0.3615
   20MOL0     C 2603   9.557   3.878   5.234  0.9051  0.0271  0.5750
   20MOL0     C 2604   9.665   3.968   5.275 -0.2064  0.1746  0.5522
   20MOL0     C 2605   9.692   3.945   5.427  0.5219  0.9044  0.0630
   20MOL0     C 2606   9.768   3.810   5.454 -0.0375 -0.8762 -0.5361
   20MOL0     C 2607   9.782   3.776   5.603 -0.9104  0.2708 -0.4452
   20MOL0     C 2608   9.854   3.877   5.684 -0.4626  0.5791 -0.1887
   20MOL0    Cl 2609  10.005   3.941   5.601  0.0015  0.3460  0.2964
   20MOL0     C 2610   9.222   3.656   4.883 -0.2623  0.0434  0.0759
   20MOL0     C 2611   9.148   3.577   4.791 -0.3501 -0.5316  0.2521
   20MOL0     O 2612   9.304   3.278   4.531  0.2435 -0.8177  0.1351
   20MOL0     C 2613   8.964   3.327   4.431  0.1014  0.5302  0.7414
   20MOL0     C 2614   8.869   3.283   4.332 -0.8394  0.3731  0.6162
   20MOL0     N 2615   8.287   2.902   4.005 -0.1989 -0.6387  0.7968
   20MOL0     N 2616   8.168   2.953   4.026 -0.3172 -0.1969 -0.0425
   20MOL0     C 2617   7.067   3.078   3.700 -0.2450  0.5435 -0.2483
   20MOL0     C 2618   6.939   3.090   3.740  0.3474 -0.0283  0.5698
   20MOL0     C 2619   6.531   2.924   3.914 -0.2472 -0.3977  0.7650
   20MOL0     C 2620   6.415   2.904   3.839  0.4928 -0.4161  0.1072
   20MOL0     C 2621   6.290   2.941   3.900 -0.4274  0.2721 -0.3041
   20MOL0     C 2622   6.284   2.997   4.026  0.3629  0.2349  0.3699
   20MOL0     O 2623   6.167   3.040   4.077  0.5002 -0.2765 -0.7774
   20MOL0     C 2624   6.150   3.098   4.209 -0.8489  0.5823 -0.1021
   20MOL0     C 2625   5.997   3.134   4.230 -0.0081 -0.2218 -0.8927
   20MOL0     C 2626   5.931   3.221   4.124  1.4312 -0.5772 -0.2655
   20MOL0     C 2627   5.792   3.276   4.173 -0.1038  0.4068  0.9342
   20MOL0     C 2628   5.705   3.163   4.189 -0.4486 -0.6987 -0.2099
   20MOL0     C 2629   5.634   3.072   4.194 -0.4215 -0.8556  1.5413
   20MOL0     C 2630   6.403   3.014   4.100 -0.5313 -0.1675 -0.4722
   20MOL0     C 2631   6.528   2.975   4.046  0.8091  0.5387 -0.5883
   20MOL0     C 2632   6.664   3.001   4.128  0.0092 -0.3649  0.3277
   20MOL0     H 2633   6.918   2.783   3.883 -4.0069  1.6737  1.2196
   20MOL0     H 2634   7.122   2.750   3.753  0.7913 -0.2578 -1.4732
   20MOL0     H 2635   7.301   2.766   3.633  1.6905 -0.7379 -0.3263
   20MOL0     H 2636   7.421   2.871   3.576 -1.3497 -2.4186 -0.9254
   20MOL0     H 2637   7.491   2.752   3.763  0.8988  1.6756 -3.1134
   20MOL0     H 2638   7.363   2.828   3.866  0.3766  2.1084  0.0147
   20MOL0     H 2639   7.554   2.970   3.910 -5.1732  2.2921  1.7134
   20MOL0     H 2640   7.456   3.063   3.800 -1.2429 -0.3764  5.3723
   20MOL0     H 2641   7.696   2.888   3.698  0.2844 -0.6706 -0.1875
   20MOL0     H 2642   7.584   2.997   3.613  1.2339 -2.2010 -0.1429
   20MOL0     H 2643   7.797   3.092   3.626 -0.8480 -0.7550 -1.2028
   20MOL0     H 2644   7.703   3.189   3.730 -0.0833 -0.5845 -0.5176
   20MOL0     H 2645   7.792   3.048   3.939  0.2281  1.8863  0.3160
   20MOL0     H 2646   7.878   2.955   3.828  1.0777  0.2259 -0.2485
   20MOL0     H 2647   7.913   3.257   3.817  1.3381  0.0934 -1.5435
   20MOL0     H 2648   8.011   3.134   3.740 -1.7725 -0.0252 -2.0057
   20MOL0     H 2649   8.086   3.254   3.982 -2.1245  0.2706  1.3421
   20MOL0     H 2650   7.985   3.127   4.046  0.7692  0.4327  1.3870
   20MOL0     H 2651   8.291   3.175   3.816 -2.2510  2.1439  1.4957
   20MOL0     H 2652   8.523   2.861   3.918  1.6108 -0.5863 -2.9197
   20MOL0     H 2653   8.518   2.958   3.773 -1.0303 -0.4691 -0.1136
   20MOL0     H 2654   8.696   3.056   3.879  0.2856 -0.1937 -0.2489
   20MOL0     H 2655   8.560   3.160   3.921  0.1232 -0.0845 -1.1057
   20MOL0     H 2656   8.682   2.945   4.096  0.0065  0.2475  0.3018
   20MOL0     H 2657   8.528   3.011   4.138 -0.7424 -2.9834 -1.5887
   20MOL0     H 2658   8.682   3.129   4.266 -0.5464 -2.3164 -0.0307
   20MOL0     H 2659   8.626   3.241   4.149 -2.0962 -0.6515 -2.0277
   20MOL0     H 2660   9.077   3.090   4.143 -1.2812 -1.2383 -0.2423
   20MOL0     H 2661   9.235   3.137   4.319 -0.3034 -2.0430  2.4418
   20MOL0     H 2662   9.390   3.348   4.723 -1.2920 -0.7726 -0.4184
   20MOL0     H 2663   9.520   3.503   4.868 -1.1501 -1.0844  2.1424
   20MOL0     H 2664   9.322   3.874   4.990  1.3608 -0.7032 -0.5042
   20MOL0     H 2665   9.309   3.796   5.155 -0.7639 -0.8987  1.1760
   20MOL0     H 2666   9.563   3.903   5.021 -0.8088  0.1922 -0.6068
   20MOL0     H 2667   9.462   4.017   5.102 -0.4029  0.4709 -0.0094
   20MOL0     H 2668   9.476   3.876   5.307 -1.7468  1.7248 -2.0697
   20MOL0     H 2669   9.593   3.776   5.225  0.7158  0.1412 -3.0559
   20MOL0     H 2670   9.627   4.070   5.262  3.3695  1.4713 -0.8297
   20MOL0     H 2671   9.762   3.962   5.226  0.4661  1.5579  1.6371
   20MOL0     H 2672   9.598   3.921   5.477  1.3479 -1.8693  0.4120
   20MOL0     H 2673   9.749   4.021   5.482  0.2698  1.2377 -0.1280
   20MOL0     H 2674   9.710   3.723   5.422  1.6368 -2.4323  0.4203
   20MOL0     H 2675   9.864   3.815   5.401 -0.1059  1.5024 -0.5193
   20MOL0     H 2676   9.831   3.678   5.607  0.1738  0.8139  0.0551
   20MOL0     H 2677   9.682   3.753   5.641  0.6443 -1.6555  2.9937
   20MOL0     H 2678   9.780   3.956   5.700 -0.4097  0.8530 -1.2094
   20MOL0     H 2679   9.886   3.843   5.783  0.7557  0.4071 -0.6272
   20MOL0     H 2680   9.171   3.736   4.937  1.6503 -0.7502  3.3396
   20MOL0     H 2681   9.053   3.598   4.745  1.0929  0.2745 -2.5596
   20MOL0     H 2682   8.932   3.405   4.499  0.4507  1.0713  0.2917
   20MOL0     H 2683   8.768   3.316   4.353 -0.4547  0.2702  2.8588
   20MOL0     H 2684   7.118   3.167   3.664 -2.2763  1.8564 -0.0968
   20MOL0     H 2685   6.884   3.184   3.745 -3.6270 -2.0847 -0.3273
   20MOL0     H 2686   6.414   2.879   3.733 -1.4232  0.4985 -0.1528
   20MOL0     H 2687   6.194   2.940   3.848 -0.7596  0.9138  0.2797
   20MOL0     H 2688   6.208   3.191   4.205 -0.1938  0.1801 -0.1199
   20MOL0     H 2689   6.178   3.032   4.292  0.9285 -0.9735 -1.8348
   20MOL0     H 2690   5.991   3.192   4.323  0.9884  0.0928 -1.0098
   20MOL0     H 2691   5.934   3.046   4.244 -0.4072  0.3333  1.1193
   20MOL0     H 2692   5.910   3.157   4.037 -1.2949  0.3071 -0.3587
   20MOL0     H 2693   5.999   3.300   4.092  1.1210  0.1203  0.7546
   20MOL0     H 2694   5.806   3.333   4.265 -0.2834  0.5399  0.8789
   20MOL0     H 2695   5.743   3.345   4.105 -2.2194 -1.2553  0.6736
   20MOL0     H 2696   5.571   2.985   4.190  0.8731 -1.7747 -0.0274
   20MOL0     H 2697   6.403   3.064   4.196  2.1671  0.9476 -0.9626
   20MOL0     H 2698   6.631   3.021   4.230  0.5830 -1.1736  0.6858
   20MOL0     H 2699   6.732   2.916   4.118  2.1350  1.5030 -2.8097
   20MOL0     H 2700   6.703   3.091   4.081  0.8853  0.2322  2.1121
   21MOL0     O 2701   9.177   2.798   0.351 -0.0965 -0.0523 -0.2582
   21MOL0     C 2702   9.211   2.872   0.256 -0.2634 -0.0939  0.7970
   21MOL0     O 2703   9.343   2.895   0.225 -0.0046 -0.4246  0.4661
   21MOL0     C 2704   9.445   2.824   0.281 -1.1450  0.3356 -0.4005
   21MOL0     C 2705   9.564   2.904   0.298 -0.5934 -0.2041  0.0225
   21MOL0     C 2706   9.686   2.851   0.341  0.3316  0.1394 -0.2698
   21MOL0     C 2707   9.693   2.718   0.372  0.3312 -0.4957 -0.0521
   21MOL0     O 2708   9.807   2.646   0.410 -0.3693 -0.5104 -0.5824
   21MOL0     C 2709   9.919   2.715   0.469 -0.2033  0.2654  0.3412
   21MOL0     C 2710  10.020   2.612   0.508 -0.8943 -0.0626  0.3637
   21MOL0     C 2711  10.132   2.679   0.589 -0.3078  0.4969  0.3544
   21MOL0     C 2712  10.240   2.569   0.619  0.2498 -0.6944 -0.3375
   21MOL0     C 2713  10.370   2.606   0.681  0.5584  1.2265 -1.3734
   21MOL0     C 2714  10.462   2.477   0.699 -0.2630 -0.0229 -0.3656
   21MOL0     C 2715  10.598   2.534   0.730 -0.7287  0.0235  0.6203
   21MOL0     C 2716  10.634   2.556   0.882  0.5000  0.0894  0.5654
   21MOL0     N 2717  10.778   2.574   0.902 -0.1924  0.6603 -0.5149
   21MOL0     C 2718  10.875   2.483   0.873 -0.6658  0.2263 -0.0729
   21MOL0     C 2719  10.999   2.541   0.875 -0.1277 -0.5355 -1.2407
   21MOL0     C 2720  11.128   2.471   0.855 -0.1126 -0.5059  0.9807
   21MOL0     C 2721  11.237   2.524   0.950  0.6325 -0.3919 -0.3342
   21MOL0     C 2722  11.382   2.494   0.909  0.3856  1.0400  0.9837
   21MOL0     C 2723  11.492   2.535   1.008  0.2519  0.2532 -0.1650
   21MOL0     O 2724  11.472   2.465   1.132  0.0901 -0.0505 -0.0556
   21MOL0     C 2725  11.578   2.407   1.205  0.0449  0.1090  0.3125
   21MOL0     C 2726  11.710   2.440   1.188  0.5962 -0.4380 -0.3908
   21MOL0     C 2727  11.804   2.379   1.264  0.0711  0.5023 -0.6243
   21MOL0     C 2728  11.769   2.281   1.359 -0.2518 -0.0441 -0.0036
   21MOL0     C 2729  11.870   2.219   1.449 -0.4369 -0.1862  0.1053
   21MOL0     O 2730  12.001   2.230   1.408  0.2466  0.7218  1.1018
   21MOL0     C 2731  12.111   2.157   1.454 -0.2365  0.1750 -0.7055
   21MOL0     C 2732  12.118   2.090   1.581 -0.1650 -0.7541 -0.2626
   21MOL0     C 2733  12.239   2.049   1.634  0.0253  0.9708  0.2355
   21MOL0     C 2734  12.357   2.063   1.565 -0.4020  0.3492 -1.6251
   21MOL0     O 2735  12.471   2.020   1.632 -0.0037  0.1391 -0.3897
   21MOL0     C 2736  12.586   2.105   1.609 -0.6757  0.5439 -0.2348
   21MOL0     C 2737  12.678   2.024   1.519 -0.7287 -0.1887  0.2076
   21MOL0     C 2738  12.830   2.055   1.510  0.0761 -0.0536 -0.3926
   21MOL0     C 2739  12.902   2.070   1.643  0.6851 -0.5432  0.5798
   21MOL0     C 2740  13.053   2.052   1.615  0.0450  0.2279 -0.1318
   21MOL0     C 2741  13.145   2.069   1.739 -0.2413 -0.2191 -0.0443
   21MOL0     C 2742  13.118   1.977   1.860 -0.1450  0.1490  0.3486
   21MOL0     C 2743  13.127   1.829   1.838 -0.3625  0.9490 -0.1244
   21MOL0    Cl 2744  13.100   1.745   1.994 -0.5290  0.1247 -0.3033
   21MOL0     C 2745  12.349   2.129   1.443  0.0176 -0.3102  0.4507
   21MOL0     C 2746  12.229   2.179   1.385  0.4823 -0.4403  0.7937
   21MOL0     O 2747  11.831   2.140   1.531 -0.3494  0.1554 -0.3757
   21MOL0     C 2748  11.638   2.241   1.372  0.0145  0.0334  0.5985
   21MOL0     C 2749  11.541   2.307   1.296 -0.4414  0.5874  0.2377
   21MOL0     N 2750  10.974   2.673   0.910  0.1344  0.0479  0.4056
   21MOL0     N 2751  10.846   2.692   0.923 -0.8100  0.6997  0.2427
   21MOL0     C 2752   9.577   2.640   0.356  0.2790 -0.2793  0.4025
   21MOL0     C 2753   9.451   2.694   0.318 -1.0220 -0.1349  0.1160
   21MOL0     C 2754   9.107   2.942   0.176  0.2686  0.0004 -0.8155
   21MOL0     C 2755   8.980   2.960   0.232  0.7175 -0.4089 -0.3101
   21MOL0     C 2756   8.881   3.027   0.161  0.5646  0.1441  0.5925
   21MOL0     C 2757   8.901   3.077   0.036 -0.3198  0.2890  0.2372
   21MOL0     O 2758   8.808   3.155  -0.030 -0.8689  0.1920  0.8274
   21MOL0     C 2759   8.694   3.077  -0.060 -0.4963 -0.2730 -0.3980
   21MOL0     C 2760   8.571   3.112   0.017  0.5822  0.3403  0.2473
   21MOL0     C 2761   8.448   3.075  -0.064 -0.4298  0.5659 -0.3005
   21MOL0     C 2762   8.322   3.138  -0.009 -0.1215 -0.3888  0.0850
   21MOL0     C 2763   8.202   3.139  -0.098  0.7070 -0.7699  0.0404
   21MOL0     C 2764   8.103   3.165  -0.173  0.4149 -0.0149  0.5591
   21MOL0     C 2765   9.036   3.070  -0.016  0.0855 -0.3080 -0.5529
   21MOL0     C 2766   9.137   2.998   0.049 -0.5212 -0.0239 -0.9412
   21MOL0     C 2767   9.278   3.009  -0.014 -0.1536  0.2503 -0.0896
   21MOL0     H 2768   9.551   3.007   0.267  0.4747 -0.5343 -1.6445
   21MOL0     H 2769   9.773   2.916   0.343  0.1717  0.4002 -1.3658
   21MOL0     H 2770   9.967   2.778   0.393  1.2878  0.6674  1.5472
   21MOL0     H 2771   9.896   2.779   0.556  1.2642 -1.1856  1.8850
   21MOL0     H 2772  10.064   2.567   0.419  0.4048  1.0224  0.4226
   21MOL0     H 2773   9.975   2.530   0.566 -0.5949  1.1021  2.3676
   21MOL0     H 2774  10.087   2.718   0.681 -0.3987 -0.1754  0.6046
   21MOL0     H 2775  10.175   2.757   0.526 -0.8837 -0.4753 -1.3007
   21MOL0     H 2776  10.190   2.499   0.688  0.0347 -1.0230 -0.8218
   21MOL0     H 2777  10.266   2.524   0.523 -1.3684  0.0519 -1.1558
   21MOL0     H 2778  10.413   2.681   0.613 -0.3295  1.8702 -1.2530
   21MOL0     H 2779  10.360   2.649   0.781  2.7011 -0.5051 -0.3412
   21MOL0     H 2780  10.421   2.414   0.779  2.9848 -0.1616  1.3767
   21MOL0     H 2781  10.460   2.414   0.610  3.0682  0.4486 -0.9177
   21MOL0     H 2782  10.609   2.630   0.679 -1.3299 -0.3375 -0.2128
   21MOL0     H 2783  10.671   2.470   0.680 -2.5782  0.4401 -2.9455
   21MOL0     H 2784  10.573   2.639   0.920  1.6763  0.4687  1.6936
   21MOL0     H 2785  10.609   2.466   0.939  0.8718  0.4331  1.2850
   21MOL0     H 2786  10.857   2.377   0.854  0.7434 -0.0105 -0.1750
   21MOL0     H 2787  11.119   2.363   0.872 -1.4645 -0.7412 -1.0042
   21MOL0     H 2788  11.160   2.490   0.752 -0.3029  1.8217  1.2971
   21MOL0     H 2789  11.217   2.632   0.954 -2.6330 -0.9406  1.7759
   21MOL0     H 2790  11.218   2.484   1.050 -2.3346  1.5143 -0.0291
   21MOL0     H 2791  11.396   2.553   0.818 -2.6576  1.0480  0.4117
   21MOL0     H 2792  11.402   2.392   0.875 -1.2262  1.2703 -0.8354
   21MOL0     H 2793  11.495   2.640   1.038 -0.6071  0.3045 -0.2281
   21MOL0     H 2794  11.593   2.513   0.973 -0.0783 -2.5867  0.4404
   21MOL0     H 2795  11.740   2.513   1.113 -0.4341 -1.7846 -2.1991
   21MOL0     H 2796  11.908   2.402   1.245 -0.2087  0.5157 -2.2715
   21MOL0     H 2797  12.040   2.072   1.653  0.2513 -0.3227  0.3041
   21MOL0     H 2798  12.252   2.004   1.732  2.3631  2.3140  0.6282
   21MOL0     H 2799  12.568   2.208   1.575 -2.7202  0.2195 -0.2588
   21MOL0     H 2800  12.644   2.124   1.700 -2.4175  2.1055  0.6336
   21MOL0     H 2801  12.667   1.919   1.546  1.1983  0.3220  3.4052
   21MOL0     H 2802  12.652   2.029   1.412  1.6213 -1.1609 -0.4846
   21MOL0     H 2803  12.871   1.972   1.452 -0.4196  0.3853 -1.4010
   21MOL0     H 2804  12.860   2.145   1.456  0.6201  2.2237  3.3877
   21MOL0     H 2805  12.867   1.994   1.713 -0.6551  0.2297  0.7972
   21MOL0     H 2806  12.894   2.171   1.686  1.5762 -0.5992  0.8962
   21MOL0     H 2807  13.090   2.121   1.538  1.7712 -1.8750 -1.3141
   21MOL0     H 2808  13.068   1.957   1.562 -2.0687 -2.3414  3.4045
   21MOL0     H 2809  13.246   2.048   1.704 -0.4458 -0.2259 -0.6408
   21MOL0     H 2810  13.141   2.171   1.776  1.0869  0.3262 -1.3213
   21MOL0     H 2811  13.017   2.005   1.892  0.1288  1.0074  0.4861
   21MOL0     H 2812  13.178   2.011   1.944  0.1775 -0.0743  0.2106
   21MOL0     H 2813  13.056   1.794   1.763  0.0323 -1.0241  0.3697
   21MOL0     H 2814  13.225   1.796   1.801 -1.6751  0.5954 -3.7160
   21MOL0     H 2815  12.441   2.136   1.386  0.0112 -3.6473 -0.1595
   21MOL0     H 2816  12.222   2.234   1.292  1.1910 -1.5664  0.0562
   21MOL0     H 2817  11.620   2.160   1.443  1.2656 -2.2789 -1.5751
   21MOL0     H 2818  11.440   2.268   1.296 -0.1508 -0.2486  1.9513
   21MOL0     H 2819   9.581   2.532   0.371 -0.7668 -0.3992 -0.0743
   21MOL0     H 2820   9.367   2.627   0.316 -0.9848 -0.1667 -0.4447
   21MOL0     H 2821   8.960   2.923   0.332  0.5211 -0.1229 -0.2436
   21MOL0     H 2822   8.790   3.030   0.219  2.5937 -0.9091  4.1626
   21MOL0     H 2823   8.707   2.970  -0.040 -3.0829 -1.1150 -2.5671
   21MOL0     H 2824   8.689   3.090  -0.169  1.1893 -0.4116 -0.5175
   21MOL0     H 2825   8.567   3.221   0.026  0.3891  0.3633 -0.0788
   21MOL0     H 2826   8.571   3.064   0.116 -0.5042 -1.5083 -0.5980
   21MOL0     H 2827   8.437   2.966  -0.073 -0.9875  0.2910  2.5909
   21MOL0     H 2828   8.466   3.118  -0.163  0.2644  1.5029  0.2172
   21MOL0     H 2829   8.291   3.071   0.071 -2.0282 -1.1939 -1.2418
   21MOL0     H 2830   8.342   3.243   0.015 -1.3566  0.0188 -0.5686
   21MOL0     H 2831   8.021   3.189  -0.238  2.2689  3.0314 -0.9101
   21MOL0     H 2832   9.047   3.122  -0.110  0.2431 -0.3782 -0.5740
   21MOL0     H 2833   9.339   3.084   0.037  2.1041  0.0883 -2.3858
   21MOL0     H 2834   9.342   2.921  -0.021 -0.3945  0.1522 -1.4215
   21MOL0     H 2835   9.269   3.057  -0.112 -1.4921  5.4417  2.2187
   22MOL0     O 2836   5.981   9.822   6.072  0.3184 -0.5276 -0.8922
   22MOL0     C 2837   5.991   9.880   5.966  0.2443  0.3757 -0.5263
   22MOL0     O 2838   6.111   9.930   5.917 -0.8279 -0.9292  0.5776
   22MOL0     C 2839   6.236   9.925   5.977  0.0430 -0.5525 -0.5979
   22MOL0     C 2840   6.288   9.829   6.072 -0.1360 -0.3378  0.5310
   22MOL0     C 2841   6.426   9.830   6.114 -0.1137  0.1794 -0.2222
   22MOL0     C 2842   6.497   9.942   6.069  0.0582 -0.2709 -0.1781
   22MOL0     O 2843   6.626   9.958   6.113  0.6659  0.7842 -0.0634
   22MOL0     C 2844   6.704   9.840   6.085  0.5556 -0.5086  1.1636
   22MOL0     C 2845   6.845   9.881   6.033  0.0923 -1.0608  0.6319
   22MOL0     C 2846   6.958   9.876   6.135 -0.0263  0.0883 -0.3928
   22MOL0     C 2847   7.092   9.925   6.085  0.3549 -0.0364 -0.6902
   22MOL0     C 2848   7.195   9.924   6.201  0.6461 -0.1377 -0.7843
   22MOL0     C 2849   7.331   9.942   6.150  0.2400 -1.3234 -0.7445
   22MOL0     C 2850   7.384   9.818   6.081  0.3402  0.2976  0.7873
   22MOL0     C 2851   7.508   9.855   5.990 -1.0245  0.1212 -0.0890
   22MOL0     N 2852   7.579   9.738   5.939 -0.2896  0.0237  0.2432
   22MOL0     C 2853   7.562   9.694   5.813 -0.1047  0.5398 -1.0804
   22MOL0     C 2854   7.612   9.571   5.810  0.4309 -0.1574 -0.1234
   22MOL0     C 2855   7.629   9.469   5.696  0.4922 -0.3405 -0.3543
   22MOL0     C 2856   7.749   9.490   5.603  0.1025 -0.4820 -0.0839
   22MOL0     C 2857   7.885   9.453   5.674 -0.0267  0.3393 -0.5211
   22MOL0     C 2858   7.913   9.299   5.673  1.2614 -0.6940  0.3580
   22MOL0     O 2859   7.926   9.242   5.538  1.0457 -0.9092 -0.3954
   22MOL0     C 2860   8.056   9.253   5.496 -1.0932  1.4625  0.1126
   22MOL0     C 2861   8.167   9.197   5.557  0.6175 -0.4865 -1.0221
   22MOL0     C 2862   8.299   9.209   5.521  0.0925  0.6527 -0.1959
   22MOL0     C 2863   8.332   9.291   5.414  0.6196  0.0976 -0.4129
   22MOL0     C 2864   8.468   9.290   5.353 -0.8619 -0.2784 -0.0889
   22MOL0     O 2865   8.563   9.216   5.414  0.3247 -0.2373 -0.1166
   22MOL0     C 2866   8.697   9.228   5.381 -0.3749  0.4410 -0.1042
   22MOL0     C 2867   8.760   9.337   5.313 -0.0236  0.6748 -0.1027
   22MOL0     C 2868   8.904   9.342   5.298  0.2891 -0.1803  0.6344
   22MOL0     C 2869   8.990   9.254   5.364  0.4421  0.5233 -0.1527
   22MOL0     O 2870   9.122   9.280   5.374 -0.1163  0.0160  0.2810
   22MOL0     C 2871   9.222   9.171   5.386  0.6101 -0.2113  0.2959
   22MOL0     C 2872   9.354   9.234   5.345  0.2589  1.7736  0.0192
   22MOL0     C 2873   9.375   9.270   5.198  0.5820  0.4601  0.6035
   22MOL0     C 2874   9.511   9.330   5.158  0.4814  0.2098 -0.8294
   22MOL0     C 2875   9.524   9.366   5.014  0.6533  0.6833  0.6260
   22MOL0     C 2876   9.438   9.492   4.974 -0.1693 -0.0937 -0.7150
   22MOL0     C 2877   9.474   9.623   5.046  0.8260  0.1938 -1.0619
   22MOL0     C 2878   9.385   9.727   4.990  0.4895  0.0047 -0.1599
   22MOL0    Cl 2879   9.205   9.697   5.014 -0.0578 -0.0219  0.0492
   22MOL0     C 2880   8.924   9.152   5.433  0.6403  1.0892 -0.0966
   22MOL0     C 2881   8.786   9.144   5.452 -0.5264 -0.7308  0.5727
   22MOL0     O 2882   8.482   9.344   5.245  0.2246  0.0490  0.8898
   22MOL0     C 2883   8.216   9.351   5.345 -0.7079  0.0805  0.7120
   22MOL0     C 2884   8.081   9.316   5.374  0.2667 -0.2436 -1.0691
   22MOL0     N 2885   7.663   9.543   5.932 -0.3915 -0.0207 -0.0900
   22MOL0     N 2886   7.641   9.641   6.013  0.2042  0.2356  0.5644
   22MOL0     C 2887   6.444  10.038   5.989  0.4758 -0.2360 -0.2316
   22MOL0     C 2888   6.318  10.034   5.939 -0.5110  0.2782 -0.6154
   22MOL0     C 2889   5.876   9.898   5.873  0.0144 -0.7678 -0.6475
   22MOL0     C 2890   5.910   9.923   5.738  0.1431  0.3102 -0.2341
   22MOL0     C 2891   5.811   9.918   5.640 -0.0904  1.0314  0.0907
   22MOL0     C 2892   5.677   9.910   5.678  0.3918  0.9857 -0.0635
   22MOL0     O 2893   5.574   9.897   5.590 -0.2331  0.5910  0.4524
   22MOL0     C 2894   5.599   9.875   5.455 -0.2910  0.4053 -0.1561
   22MOL0     C 2895   5.461   9.842   5.377 -0.0137 -0.8570 -0.4595
   22MOL0     C 2896   5.362   9.764   5.470  0.0085 -0.2448 -0.1544
   22MOL0     C 2897   5.418   9.628   5.524 -0.6743  1.3915 -0.2695
   22MOL0     C 2898   5.322   9.520   5.543 -0.1416 -1.4990  0.1116
   22MOL0     C 2899   5.249   9.433   5.559  0.3297  0.4652  0.7651
   22MOL0     C 2900   5.647   9.891   5.817  0.7417  0.9498 -0.3557
   22MOL0     C 2901   5.742   9.887   5.910 -0.0178  0.2453 -0.8193
   22MOL0     C 2902   5.695   9.887   6.051 -0.1697  0.0278 -0.0007
   22MOL0     H 2903   6.220   9.748   6.098 -1.9808  1.6180  2.1329
   22MOL0     H 2904   6.472   9.755   6.178  1.0218  0.6656 -0.4265
   22MOL0     H 2905   6.726   9.775   6.171  0.8614 -0.6145  1.0065
   22MOL0     H 2906   6.655   9.784   6.005  4.0883 -0.4835 -1.2610
   22MOL0     H 2907   6.843   9.987   6.004 -0.9894 -1.0316  0.8022
   22MOL0     H 2908   6.873   9.816   5.949  1.8066  0.0801  0.2439
   22MOL0     H 2909   6.969   9.778   6.183  1.6625  0.7588  0.7140
   22MOL0     H 2910   6.927   9.938   6.219  0.4937 -0.3878  0.1660
   22MOL0     H 2911   7.109   9.855   6.002  0.3034 -1.8292  0.7307
   22MOL0     H 2912   7.081  10.021   6.034  2.1380  0.1392 -0.7948
   22MOL0     H 2913   7.171  10.009   6.266  1.8300  2.0348 -3.0262
   22MOL0     H 2914   7.193   9.829   6.257  0.7900  1.0654  1.3974
   22MOL0     H 2915   7.319  10.020   6.074  0.1712 -2.1039 -1.5508
   22MOL0     H 2916   7.393   9.976   6.232 -1.5879 -0.2582  0.2482
   22MOL0     H 2917   7.302   9.769   6.029  0.3570  0.0475  0.9922
   22MOL0     H 2918   7.424   9.759   6.164  0.1508  1.7144  1.9192
   22MOL0     H 2919   7.477   9.922   5.909 -0.5293 -1.3272 -1.5537
   22MOL0     H 2920   7.577   9.904   6.059 -0.1517 -1.7559  0.4330
   22MOL0     H 2921   7.505   9.744   5.735  0.5550  2.4038 -0.4169
   22MOL0     H 2922   7.627   9.369   5.741  2.5290 -0.3522 -0.1790
   22MOL0     H 2923   7.539   9.483   5.635 -0.8120 -0.1443  1.5356
   22MOL0     H 2924   7.738   9.418   5.520 -2.9612 -1.5676  1.1285
   22MOL0     H 2925   7.748   9.595   5.574 -2.4069  0.4308  2.7903
   22MOL0     H 2926   7.882   9.490   5.777  1.9449  0.6705 -0.5481
   22MOL0     H 2927   7.968   9.502   5.621  1.3837  0.1206  1.3959
   22MOL0     H 2928   7.836   9.251   5.733  0.3765  1.2425  0.8663
   22MOL0     H 2929   8.008   9.278   5.723  1.8986 -0.7563 -0.8352
   22MOL0     H 2930   8.145   9.137   5.646 -1.2385  2.1112  0.4010
   22MOL0     H 2931   8.378   9.163   5.578 -1.7948  1.1416  3.0689
   22MOL0     H 2932   8.709   9.426   5.278 -2.4011 -0.3097  0.6329
   22MOL0     H 2933   8.954   9.428   5.255 -0.2669 -0.2909 -0.2495
   22MOL0     H 2934   9.228   9.140   5.491 -1.6120 -1.4724  0.1221
   22MOL0     H 2935   9.197   9.091   5.315 -0.2226  0.4620 -0.1902
   22MOL0     H 2936   9.377   9.321   5.407  0.0109  1.8699 -0.0249
   22MOL0     H 2937   9.425   9.155   5.371 -0.7642  0.9349  0.3720
   22MOL0     H 2938   9.365   9.180   5.135  2.0862  1.7794 -1.6714
   22MOL0     H 2939   9.296   9.336   5.161 -0.2934 -1.7604 -1.8637
   22MOL0     H 2940   9.571   9.245   5.189 -0.5071 -0.3620 -0.4256
   22MOL0     H 2941   9.542   9.414   5.221 -2.5608  1.1556 -0.3985
   22MOL0     H 2942   9.488   9.279   4.958 -0.8188  1.7215 -0.1079
   22MOL0     H 2943   9.629   9.391   4.992  0.5081  0.3673 -0.5220
   22MOL0     H 2944   9.468   9.518   4.872 -3.8496 -0.3852 -2.0164
   22MOL0     H 2945   9.331   9.473   4.981 -0.0048 -1.4107 -1.4726
   22MOL0     H 2946   9.578   9.646   5.024 -0.5313  4.3919 -4.4795
   22MOL0     H 2947   9.456   9.614   5.154  0.0997  1.3476 -1.0665
   22MOL0     H 2948   9.415   9.814   5.049  1.1550 -0.8281  0.7800
   22MOL0     H 2949   9.401   9.734   4.882  4.2164 -0.1312  0.2334
   22MOL0     H 2950   8.985   9.084   5.492  0.8033  2.5805  1.5399
   22MOL0     H 2951   8.746   9.069   5.518  1.3522 -1.1131  1.3446
   22MOL0     H 2952   8.238   9.410   5.257  1.3422 -0.9174  0.5068
   22MOL0     H 2953   7.996   9.351   5.317 -0.0122 -2.2540 -1.9579
   22MOL0     H 2954   6.509  10.122   5.967 -0.5037  0.5144 -0.3122
   22MOL0     H 2955   6.282  10.114   5.874  0.0269  1.2835  0.2903
   22MOL0     H 2956   6.014   9.923   5.705  0.4618  2.0772  0.6117
   22MOL0     H 2957   5.834   9.919   5.534  1.1196  2.4406  0.3205
   22MOL0     H 2958   5.664   9.787   5.451 -0.0199  0.4838  1.6847
   22MOL0     H 2959   5.649   9.962   5.410 -1.3762  0.2451 -1.7562
   22MOL0     H 2960   5.481   9.780   5.288 -0.6628 -0.6211 -0.7800
   22MOL0     H 2961   5.402   9.931   5.352  2.3678  1.0425  0.3357
   22MOL0     H 2962   5.270   9.729   5.421 -1.0564 -2.0094  2.8457
   22MOL0     H 2963   5.322   9.833   5.545 -0.0691  0.5203 -0.8847
   22MOL0     H 2964   5.478   9.586   5.443 -1.0520 -2.4742  1.2275
   22MOL0     H 2965   5.475   9.646   5.616 -1.0005 -1.4324  0.6006
   22MOL0     H 2966   5.180   9.354   5.581 -2.2539  1.2881 -3.3153
   22MOL0     H 2967   5.541   9.896   5.842  0.9062  1.8850  0.1949
   22MOL0     H 2968   5.691   9.789   6.100 -0.2933  0.1155  0.1601
   22MOL0     H 2969   5.766   9.945   6.110  1.5777 -1.8947 -0.0755
   22MOL0     H 2970   5.596   9.933   6.047  0.7690  2.1213 -3.3321
   23MOL0     O 2971   6.317  10.740   7.235 -0.0150  0.0964  0.5506
   23MOL0     C 2972   6.316  10.700   7.353 -0.4914  0.7343  0.3191
   23MOL0     O 2973   6.432  10.665   7.423  0.0698 -0.1870 -0.1470
   23MOL0     C 2974   6.552  10.723   7.383 -0.5410 -0.7097 -0.8839
   23MOL0     C 2975   6.669  10.668   7.439  0.1739 -0.6805 -0.5946
   23MOL0     C 2976   6.804  10.703   7.400 -0.0354  0.7891  0.7188
   23MOL0     C 2977   6.824  10.799   7.298  0.1770  0.7661  0.4965
   23MOL0     O 2978   6.948  10.825   7.240 -0.7911  0.2577  0.0487
   23MOL0     C 2979   6.977  10.823   7.101  1.0670  0.1821 -0.1806
   23MOL0     C 2980   7.113  10.787   7.074  0.3800 -0.9295 -0.2908
   23MOL0     C 2981   7.153  10.643   7.107 -0.8972 -0.5417  0.2786
   23MOL0     C 2982   7.315  10.632   7.093  0.3575 -0.4328  0.6378
   23MOL0     C 2983   7.382  10.673   6.957 -0.6146  0.1203 -0.1474
   23MOL0     C 2984   7.469  10.556   6.900 -0.2201 -0.0485  0.6111
   23MOL0     C 2985   7.551  10.600   6.778  0.8213 -0.2471  0.1048
   23MOL0     C 2986   7.633  10.473   6.739  0.2939  0.2523  0.0038
   23MOL0     N 2987   7.736  10.497   6.643 -0.2513 -0.2170  0.9406
   23MOL0     C 2988   7.752  10.608   6.555  0.3119 -0.3995 -0.5130
   23MOL0     C 2989   7.843  10.571   6.469 -0.1039 -0.4477 -0.2952
   23MOL0     C 2990   7.890  10.654   6.358 -1.3253 -0.4790  0.1875
   23MOL0     C 2991   7.871  10.599   6.222  0.0773  0.3064  0.0224
   23MOL0     C 2992   7.935  10.471   6.199 -0.7665  0.2860 -0.4219
   23MOL0     C 2993   7.925  10.431   6.055 -0.4595 -0.2763 -0.7709
   23MOL0     O 2994   8.014  10.499   5.968 -0.1662  0.4041  0.1574
   23MOL0     C 2995   8.138  10.449   5.940  0.4181  0.7479  0.5332
   23MOL0     C 2996   8.190  10.330   5.999  0.0433  0.6740  0.5324
   23MOL0     C 2997   8.310  10.278   5.954  0.4850  1.2850  0.6103
   23MOL0     C 2998   8.382  10.336   5.851 -0.3551 -0.7200 -0.8414
   23MOL0     C 2999   8.514  10.283   5.817 -1.2319  0.2796 -0.4330
   23MOL0     O 3000   8.587  10.365   5.732 -0.5746  0.2041  1.0534
   23MOL0     C 3001   8.696  10.311   5.668 -0.3595 -1.3617  0.7374
   23MOL0     C 3002   8.706  10.338   5.535  1.2072  0.3714  0.3563
   23MOL0     C 3003   8.806  10.288   5.459 -1.0891 -0.3723 -0.6344
   23MOL0     C 3004   8.901  10.209   5.526  0.7725  0.5594  0.1479
   23MOL0     O 3005   9.007  10.146   5.468 -0.5715 -0.4691 -0.9031
   23MOL0     C 3006   9.018  10.160   5.329 -0.1478 -0.0115  0.0880
   23MOL0     C 3007   9.135  10.096   5.264 -0.2709  0.6770 -0.0934
   23MOL0     C 3008   9.262  10.186   5.243 -0.0339  0.1036  0.1785
   23MOL0     C 3009   9.363  10.118   5.151  1.1513  0.6344  1.0536
   23MOL0     C 3010   9.490  10.194   5.137  0.4462  0.2885 -0.2964
   23MOL0     C 3011   9.586  10.118   5.043  0.7129  0.7125  0.5273
   23MOL0     C 3012   9.603  10.178   4.909  0.3037 -0.9291  0.6571
   23MOL0     C 3013   9.474  10.189   4.826  0.3020 -0.5609 -0.2984
   23MOL0    Cl 3014   9.391  10.030   4.800  0.2066  0.1032 -0.2197
   23MOL0     C 3015   8.893  10.177   5.661 -0.2652  0.8132  0.1084
   23MOL0     C 3016   8.795  10.236   5.733  0.7271  0.0141  0.1436
   23MOL0     O 3017   8.545  10.173   5.853 -0.8997 -0.7003  0.6608
   23MOL0     C 3018   8.336  10.457   5.799  0.0664 -0.0859 -0.0109
   23MOL0     C 3019   8.215  10.510   5.845  0.1629  0.5251 -0.4462
   23MOL0     N 3020   7.878  10.442   6.492 -0.5658 -0.1552  1.0011
   23MOL0     N 3021   7.819  10.397   6.599  0.5330  0.3933 -0.5820
   23MOL0     C 3022   6.704  10.859   7.251 -0.6463  0.1944  0.3223
   23MOL0     C 3023   6.580  10.827   7.299 -0.4922 -0.4654  0.0772
   23MOL0     C 3024   6.183  10.677   7.421 -0.4945 -0.5779 -0.3215
   23MOL0     C 3025   6.189  10.593   7.539  0.1335 -0.8125  0.0586
   23MOL0     C 3026   6.066  10.550   7.586  0.7606 -0.8074 -0.4178
   23MOL0     C 3027   5.941  10.603   7.547 -0.0671 -0.1192 -0.1911
   23MOL0     O 3028   5.834  10.559   7.612  0.4264  0.5400  0.4262
   23MOL0     C 3029   5.705  10.588   7.549 -0.0161 -0.5182 -0.4250
   23MOL0     C 3030   5.605  10.521   7.652 -0.3827 -1.0744  0.4003
   23MOL0     C 3031   5.465  10.532   7.611  0.3541  0.4852 -0.4632
   23MOL0     C 3032   5.374  10.460   7.710 -0.3347  0.1975 -0.6332
   23MOL0     C 3033   5.235  10.464   7.667 -0.6245 -0.2679 -0.3702
   23MOL0     C 3034   5.120  10.469   7.625  0.2207  0.4323  0.4468
   23MOL0     C 3035   5.938  10.692   7.434  0.5552  0.0022 -0.5514
   23MOL0     C 3036   6.056  10.727   7.372 -0.9637  0.1518 -0.0034
   23MOL0     C 3037   6.049  10.836   7.262 -0.2088 -0.1537  0.0984
   23MOL0     H 3038   6.654  10.575   7.494  1.3436 -0.3308  0.3672
   23MOL0     H 3039   6.891  10.649   7.438  1.3595 -0.5293 -3.7204
   23MOL0     H 3040   6.911  10.756   7.046 -1.8739  3.0169 -0.4282
   23MOL0     H 3041   6.960  10.925   7.065  2.6059  0.3070 -0.6015
   23MOL0     H 3042   7.180  10.853   7.131  0.4398 -0.2255 -1.1545
   23MOL0     H 3043   7.137  10.818   6.972 -0.2612  3.5142  0.6971
   23MOL0     H 3044   7.108  10.557   7.058 -0.4511  0.5956 -2.3132
   23MOL0     H 3045   7.129  10.630   7.213 -1.2712 -2.5433 -0.0108
   23MOL0     H 3046   7.364  10.683   7.177  1.2855  1.7700 -1.1594
   23MOL0     H 3047   7.333  10.525   7.108  3.2095 -0.3249 -1.3784
   23MOL0     H 3048   7.314  10.713   6.882  0.4511 -0.4592 -1.4547
   23MOL0     H 3049   7.453  10.751   6.987  2.2747 -0.7842 -3.9194
   23MOL0     H 3050   7.534  10.524   6.982 -2.4758 -0.9958  2.1524
   23MOL0     H 3051   7.405  10.469   6.883  0.7281 -0.7880  0.7626
   23MOL0     H 3052   7.614  10.687   6.802  0.0304  0.7032 -1.1041
   23MOL0     H 3053   7.490  10.625   6.691 -0.2591 -1.4505  0.4890
   23MOL0     H 3054   7.683  10.433   6.827 -1.9104 -0.5762  0.9653
   23MOL0     H 3055   7.569  10.389   6.710 -1.2519  0.7665  1.6943
   23MOL0     H 3056   7.696  10.701   6.557  1.2828  0.2023 -0.6105
   23MOL0     H 3057   7.844  10.753   6.360  1.4482  0.9131  1.3055
   23MOL0     H 3058   7.997  10.675   6.370 -1.7226  2.3446 -0.4964
   23MOL0     H 3059   7.766  10.567   6.212 -0.1579  0.5817  1.4593
   23MOL0     H 3060   7.897  10.669   6.142  1.0970 -1.4257 -1.2450
   23MOL0     H 3061   7.882  10.397   6.260 -0.1872 -0.3308 -0.6510
   23MOL0     H 3062   8.039  10.469   6.233 -1.7410 -0.8280  2.8957
   23MOL0     H 3063   7.822  10.449   6.023 -1.2884  3.6187  3.0901
   23MOL0     H 3064   7.942  10.323   6.044  1.4913 -0.1548  0.5327
   23MOL0     H 3065   8.139  10.280   6.082 -1.5553  3.0976  1.1228
   23MOL0     H 3066   8.337  10.190   6.011  0.8877  0.9945 -0.0066
   23MOL0     H 3067   8.616  10.377   5.488  1.2063 -1.5231 -1.3486
   23MOL0     H 3068   8.812  10.316   5.355  0.9308 -1.4883 -0.8791
   23MOL0     H 3069   8.927  10.113   5.290  0.1227 -0.2619 -0.2401
   23MOL0     H 3070   9.019  10.266   5.301 -0.6728  0.1021  0.4591
   23MOL0     H 3071   9.157  10.003   5.318 -0.1775 -0.8976 -2.6879
   23MOL0     H 3072   9.101  10.071   5.164 -1.9544  0.4265  0.5015
   23MOL0     H 3073   9.237  10.274   5.182  0.0109 -1.1550 -1.7104
   23MOL0     H 3074   9.306  10.213   5.340  1.3062 -1.7189  0.1060
   23MOL0     H 3075   9.321  10.113   5.050 -2.5341 -0.6153  2.4944
   23MOL0     H 3076   9.370  10.015   5.187 -0.6189 -0.2510 -0.9179
   23MOL0     H 3077   9.547  10.211   5.228  1.7936 -2.0313 -0.6206
   23MOL0     H 3078   9.463  10.290   5.092 -1.8642  1.0048  2.3606
   23MOL0     H 3079   9.682  10.110   5.095  1.0867 -2.7672 -0.4983
   23MOL0     H 3080   9.555  10.015   5.025 -2.0203  1.5715 -0.1707
   23MOL0     H 3081   9.683  10.123   4.859  1.9684  1.4538  0.5240
   23MOL0     H 3082   9.639  10.279   4.931 -0.4619 -0.1267 -1.4881
   23MOL0     H 3083   9.401  10.251   4.879  0.1537 -2.8455  2.3814
   23MOL0     H 3084   9.501  10.238   4.732 -1.7400  1.0504 -0.1193
   23MOL0     H 3085   8.968  10.108   5.699  0.2518  1.0592 -0.4570
   23MOL0     H 3086   8.788  10.216   5.839  1.0951 -2.2670 -0.2015
   23MOL0     H 3087   8.390  10.509   5.720 -0.0211  0.3589  0.2183
   23MOL0     H 3088   8.166  10.599   5.807 -3.2972  0.0778  2.4444
   23MOL0     H 3089   6.706  10.937   7.176  0.0271 -0.9174 -0.8485
   23MOL0     H 3090   6.499  10.886   7.259  1.8682  1.4626 -2.1387
   23MOL0     H 3091   6.282  10.550   7.576  1.8137  1.6951 -0.9546
   23MOL0     H 3092   6.076  10.469   7.658 -0.3804 -1.0182 -0.4861
   23MOL0     H 3093   5.698  10.553   7.446  0.9411  2.0894 -1.4671
   23MOL0     H 3094   5.694  10.697   7.547 -0.3216 -0.5080  0.9394
   23MOL0     H 3095   5.624  10.569   7.748 -0.0109  0.0073 -0.1969
   23MOL0     H 3096   5.637  10.418   7.669  0.5237 -0.5403  2.2265
   23MOL0     H 3097   5.442  10.481   7.518  0.7373  0.8023 -0.7332
   23MOL0     H 3098   5.423  10.633   7.608  1.0031  0.7406 -3.1086
   23MOL0     H 3099   5.402  10.355   7.726 -2.6430 -0.2155  1.2390
   23MOL0     H 3100   5.365  10.507   7.808 -1.8561 -2.5031  0.6460
   23MOL0     H 3101   5.016  10.470   7.598 -0.2923 -0.6775  2.1875
   23MOL0     H 3102   5.847  10.744   7.407  0.2099 -1.7561 -3.1614
   23MOL0     H 3103   6.068  10.792   7.163  0.7368  2.1604 -0.8316
   23MOL0     H 3104   5.959  10.896   7.255  0.0618  0.2093 -0.3708
   23MOL0     H 3105   6.121  10.917   7.280 -0.2805 -0.4209  1.7275
   24MOL0     O 3106   9.033   7.436  10.676  0.0853  0.2127 -0.5338
   24MOL0     C 3107   8.986   7.337  10.622 -0.4483 -0.0508  0.0021
   24MOL0     O 3108   9.066   7.250  10.556 -0.3705 -0.1674  0.0662
   24MOL0     C 3109   9.186   7.292  10.496 -0.3244  0.3397 -0.2062
   24MOL0     C 3110   9.294   7.210  10.482  0.7901  0.0327  0.7135
   24MOL0     C 3111   9.416   7.258  10.433 -0.1810  0.1312  0.0424
   24MOL0     C 3112   9.437   7.394  10.400  0.5349 -0.0021  0.3460
   24MOL0     O 3113   9.561   7.442  10.365  0.2251  0.0059 -0.0609
   24MOL0     C 3114   9.581   7.560  10.280 -0.4849 -0.7507 -0.2665
   24MOL0     C 3115   9.726   7.589  10.245  0.4602 -0.1144 -0.2802
   24MOL0     C 3116   9.731   7.738  10.199 -0.4616 -0.1938 -0.6675
   24MOL0     C 3117   9.873   7.804  10.176  0.2459  0.8564 -0.4411
   24MOL0     C 3118   9.884   7.950  10.151  0.2158 -0.2007  0.4227
   24MOL0     C 3119   9.844   8.022  10.278  0.3669 -1.0299  0.7343
   24MOL0     C 3120   9.819   8.175  10.254 -0.1830 -0.0375  0.0026
   24MOL0     C 3121   9.952   8.242  10.226  0.6940  0.5884 -0.1347
   24MOL0     N 3122   9.944   8.389  10.219  0.3372  0.3080  0.0231
   24MOL0     C 3123   9.920   8.462  10.329 -0.1566 -0.1216  0.1130
   24MOL0     C 3124   9.922   8.596  10.290 -0.6955  0.3400 -0.2626
   24MOL0     C 3125   9.878   8.710  10.378  0.3901  0.2222  0.2237
   24MOL0     C 3126   9.761   8.788  10.311  0.0887 -0.0530 -0.1207
   24MOL0     C 3127   9.702   8.895  10.413 -0.3279  0.0600  0.2785
   24MOL0     C 3128   9.556   8.938  10.382  0.3325 -0.8648 -0.1851
   24MOL0     O 3129   9.458   8.844  10.427  0.4831  0.7481  0.8130
   24MOL0     C 3130   9.324   8.858  10.412 -0.4890 -0.0225 -0.1785
   24MOL0     C 3131   9.243   8.757  10.458  0.2290  0.4298  0.1807
   24MOL0     C 3132   9.097   8.760  10.445 -0.1790  1.1241 -0.0586
   24MOL0     C 3133   9.040   8.870  10.386  0.1846  0.1429  0.3249
   24MOL0     C 3134   8.902   8.881  10.362 -0.2978  0.7995  0.6278
   24MOL0     O 3135   8.823   8.792  10.433  0.1663 -0.0280  0.7925
   24MOL0     C 3136   8.686   8.791  10.412 -1.3912 -0.3377  0.7180
   24MOL0     C 3137   8.627   8.810  10.287  0.3440  0.2088 -0.5909
   24MOL0     C 3138   8.486   8.796  10.267  0.0604  0.2939 -0.1777
   24MOL0     C 3139   8.407   8.757  10.375 -0.7917 -0.1402 -0.6173
   24MOL0     O 3140   8.269   8.745  10.351 -0.6179  0.0123  0.0794
   24MOL0     C 3141   8.194   8.703  10.466  0.7157 -0.4493  0.3250
   24MOL0     C 3142   8.043   8.688  10.424 -0.1128 -0.4322  0.2302
   24MOL0     C 3143   8.044   8.616  10.293  0.0439 -0.0335 -0.1056
   24MOL0     C 3144   7.912   8.560  10.282 -0.2694  0.1992  0.1471
   24MOL0     C 3145   7.889   8.493  10.150 -0.0172  0.4314 -0.0235
   24MOL0     C 3146   7.874   8.594  10.030  0.6815 -0.5916 -0.1105
   24MOL0     C 3147   7.822   8.534   9.896 -0.2407  0.5009  0.0855
   24MOL0     C 3148   7.785   8.648   9.794 -0.3579  0.4573  0.3647
   24MOL0    Cl 3149   7.636   8.731   9.849 -0.3314 -0.2760  0.0113
   24MOL0     C 3150   8.472   8.743  10.501 -0.3054  0.2532  0.0494
   24MOL0     C 3151   8.608   8.751  10.511  0.5742 -0.3727  0.2314
   24MOL0     O 3152   8.864   8.956  10.277 -0.2321  0.3482  0.6952
   24MOL0     C 3153   9.128   8.974  10.342  0.6487  0.1117 -0.5688
   24MOL0     C 3154   9.262   8.965  10.345  0.3258  0.0155 -0.2764
   24MOL0     N 3155   9.954   8.592  10.152 -0.4926 -0.2156 -0.1778
   24MOL0     N 3156   9.982   8.476  10.114 -0.4486  0.2558  0.7723
   24MOL0     C 3157   9.317   7.470  10.397 -0.2239 -1.1371 -0.4787
   24MOL0     C 3158   9.197   7.419  10.449  0.0041  0.6682 -0.3236
   24MOL0     C 3159   8.838   7.330  10.607 -0.2782  0.2072  0.5206
   24MOL0     C 3160   8.779   7.216  10.537  0.5375 -0.0872 -0.5803
   24MOL0     C 3161   8.641   7.210  10.504  0.2877 -0.2886 -0.2634
   24MOL0     C 3162   8.562   7.320  10.541  0.8750 -0.0497 -0.0089
   24MOL0     O 3163   8.421   7.315  10.520 -0.3509  0.2908  0.2826
   24MOL0     C 3164   8.379   7.269  10.390  0.2393 -0.7402  0.2749
   24MOL0     C 3165   8.257   7.346  10.349 -0.5882  0.0278 -0.1419
   24MOL0     C 3166   8.146   7.300  10.433  1.4053  0.1788  0.1140
   24MOL0     C 3167   8.022   7.347  10.362 -0.3157  0.1840 -0.6331
   24MOL0     C 3168   7.906   7.323  10.438  0.3451 -0.1614  0.4827
   24MOL0     C 3169   7.801   7.294  10.491 -0.0971  0.3234  0.0982
   24MOL0     C 3170   8.614   7.426  10.615  0.1918  0.0608  0.3963
   24MOL0     C 3171   8.749   7.437  10.648  0.1075  1.2412 -0.1623
   24MOL0     C 3172   8.788   7.571  10.728  0.6989  0.0360 -0.5858
   24MOL0     H 3173   9.287   7.106  10.513  1.4547  0.4323  2.2794
   24MOL0     H 3174   9.504   7.195  10.430  1.9561  2.8853  0.5499
   24MOL0     H 3175   9.524   7.540  10.189 -0.0097 -1.2642 -0.4556
   24MOL0     H 3176   9.543   7.645  10.338  0.9376  0.3991 -0.9332
   24MOL0     H 3177   9.756   7.519  10.166 -1.7936 -2.6867  0.9726
   24MOL0     H 3178   9.797   7.559  10.323  1.8807 -1.8267 -2.1143
   24MOL0     H 3179   9.688   7.793  10.283 -0.1197  0.2113 -0.7563
   24MOL0     H 3180   9.673   7.751  10.107 -0.9123  0.2182 -0.3347
   24MOL0     H 3181   9.936   7.777  10.261  2.3859  1.4823 -1.7454
   24MOL0     H 3182   9.919   7.761  10.086  1.6286  0.1268  0.5722
   24MOL0     H 3183   9.989   7.960  10.120 -0.0452 -3.6457 -2.1911
   24MOL0     H 3184   9.820   7.974  10.066  1.5899 -1.2435 -0.9613
   24MOL0     H 3185   9.749   7.992  10.322  1.0968 -1.0074  2.3964
   24MOL0     H 3186   9.921   8.010  10.354  0.7574 -0.7246  0.3935
   24MOL0     H 3187   9.778   8.221  10.345 -2.2589  1.0565 -1.3971
   24MOL0     H 3188   9.744   8.192  10.176 -1.6552  1.8797  1.7083
   24MOL0     H 3189  10.023   8.210  10.303 -0.0146  0.7033  0.5643
   24MOL0     H 3190   9.988   8.215  10.126 -0.6648  2.4709 -1.1813
   24MOL0     H 3191   9.912   8.424  10.430 -2.4446  0.7468  0.3250
   24MOL0     H 3192   9.833   8.671  10.470 -2.1697  0.2445 -0.9397
   24MOL0     H 3193   9.959   8.778  10.406  1.8875 -2.2786  2.5208
   24MOL0     H 3194   9.792   8.835  10.217 -0.7289 -0.8664 -0.8304
   24MOL0     H 3195   9.683   8.718  10.280  0.4325 -0.2210 -0.6154
   24MOL0     H 3196   9.763   8.984  10.430  1.7618 -1.0536 -0.8950
   24MOL0     H 3197   9.702   8.864  10.518  1.0452 -1.1966 -0.0638
   24MOL0     H 3198   9.559   8.949  10.273 -4.1658  2.6884 -0.2173
   24MOL0     H 3199   9.530   9.024  10.444  0.7640 -2.5059  2.3998
   24MOL0     H 3200   9.292   8.670  10.500 -2.8378 -2.2179 -1.2911
   24MOL0     H 3201   9.042   8.667  10.460 -1.3062  1.7599 -0.1074
   24MOL0     H 3202   8.681   8.817  10.193 -0.4807 -0.7276 -1.1684
   24MOL0     H 3203   8.432   8.814  10.175 -1.9430  5.2613  1.6003
   24MOL0     H 3204   8.227   8.607  10.506 -0.5411 -0.5985  1.0554
   24MOL0     H 3205   8.203   8.775  10.547  0.6709 -0.0824  0.0102
   24MOL0     H 3206   8.004   8.622  10.503 -1.8879  0.0868 -0.1569
   24MOL0     H 3207   8.000   8.789  10.429  0.3159 -0.2478  0.2360
   24MOL0     H 3208   8.062   8.683  10.209 -2.7733 -1.1096 -1.6948
   24MOL0     H 3209   8.117   8.534  10.292  1.0706  0.8598 -1.3040
   24MOL0     H 3210   7.832   8.635  10.283 -0.6359 -0.1865  0.0607
   24MOL0     H 3211   7.899   8.482  10.357 -0.3873 -1.2563 -1.3292
   24MOL0     H 3212   7.793   8.443  10.165  1.1527 -1.1447  3.1223
   24MOL0     H 3213   7.961   8.412  10.133 -1.9660 -1.0822 -1.6417
   24MOL0     H 3214   7.812   8.676  10.067 -0.4399 -0.6339 -1.7828
   24MOL0     H 3215   7.969   8.641  10.006  0.4810  0.5596  1.2222
   24MOL0     H 3216   7.735   8.474   9.924  0.4696 -0.2656  0.7187
   24MOL0     H 3217   7.897   8.470   9.850 -0.5378  1.3676 -1.7018
   24MOL0     H 3218   7.870   8.712   9.766 -0.9541  0.8103 -0.7094
   24MOL0     H 3219   7.752   8.611   9.696 -2.8290  0.5758  1.0969
   24MOL0     H 3220   8.432   8.706  10.596  0.6238 -3.6048 -0.8694
   24MOL0     H 3221   8.653   8.722  10.605  1.0271 -2.1687 -0.4875
   24MOL0     H 3222   9.078   9.064  10.308 -2.1804 -1.2207 -0.2470
   24MOL0     H 3223   9.327   9.048  10.318 -0.2449  0.9720  1.1776
   24MOL0     H 3224   9.324   7.576  10.376 -1.0646 -0.8721  0.5155
   24MOL0     H 3225   9.112   7.486  10.450  0.4140  1.2123  1.5215
   24MOL0     H 3226   8.837   7.132  10.501  1.8431  1.3588 -2.0053
   24MOL0     H 3227   8.596   7.126  10.453  0.9743  0.1415 -1.6388
   24MOL0     H 3228   8.346   7.165  10.398  1.7958 -1.1414  2.3242
   24MOL0     H 3229   8.459   7.285  10.316 -1.3212  1.1348 -1.1184
   24MOL0     H 3230   8.229   7.326  10.245 -0.0555 -0.2792 -0.2264
   24MOL0     H 3231   8.276   7.453  10.360  3.0576 -0.6625  1.5751
   24MOL0     H 3232   8.150   7.341  10.534 -3.2818  0.7128  0.3296
   24MOL0     H 3233   8.136   7.191  10.433  0.2080  0.2599  1.0271
   24MOL0     H 3234   8.029   7.452  10.332  0.0850  0.4217  0.2291
   24MOL0     H 3235   8.015   7.288  10.270 -0.9298 -1.2484  0.2933
   24MOL0     H 3236   7.715   7.254  10.541  0.8106  0.4419  1.8721
   24MOL0     H 3237   8.541   7.501  10.644 -1.1003 -1.2523  0.6538
   24MOL0     H 3238   8.705   7.641  10.729  1.0775  0.5618  2.1915
   24MOL0     H 3239   8.814   7.541  10.830  1.1630  1.3415 -0.2923
   24MOL0     H 3240   8.882   7.616  10.695  1.0695 -1.2061 -1.2997
   25MOL0     O 3241   0.575   1.618   2.097  0.0836  0.1784  0.6347
   25MOL0     C 3242   0.579   1.538   2.190  0.3246 -0.9622 -0.0206
   25MOL0     O 3243   0.687   1.530   2.273  0.6371 -0.3286  0.3330
   25MOL0     C 3244   0.804   1.586   2.228  0.1435 -0.4091 -0.2269
   25MOL0     C 3245   0.828   1.722   2.263  0.9606  0.5674 -0.2567
   25MOL0     C 3246   0.939   1.790   2.217 -0.1766 -0.7421 -0.0635
   25MOL0     C 3247   1.022   1.725   2.131 -0.3630 -0.1626 -0.0487
   25MOL0     O 3248   1.135   1.772   2.067  0.0839  0.0740 -0.4645
   25MOL0     C 3249   1.161   1.910   2.087  0.7362 -0.5437 -0.4572
   25MOL0     C 3250   1.274   1.960   1.984 -0.4385 -0.1540  0.2703
   25MOL0     C 3251   1.405   1.886   2.002  0.9527  0.4039 -0.1992
   25MOL0     C 3252   1.436   1.882   2.158 -0.9229 -0.1865  0.5536
   25MOL0     C 3253   1.577   1.835   2.211  0.8136  0.2001 -0.0715
   25MOL0     C 3254   1.598   1.846   2.357  0.0467  0.8664 -0.2546
   25MOL0     C 3255   1.537   1.736   2.445 -0.2774  0.0195 -0.0783
   25MOL0     C 3256   1.603   1.601   2.441  0.7403  0.0505 -0.6467
   25MOL0     N 3257   1.750   1.596   2.455 -0.2460 -0.9308 -0.2925
   25MOL0     C 3258   1.835   1.606   2.352 -0.3023  0.5959 -0.0787
   25MOL0     C 3259   1.961   1.586   2.401 -0.3706 -0.0850  0.1509
   25MOL0     C 3260   2.088   1.576   2.328  0.1402  0.5463  0.1101
   25MOL0     C 3261   2.208   1.638   2.384  0.4933 -0.0986 -1.2130
   25MOL0     C 3262   2.210   1.790   2.396 -0.5646  0.4194 -0.0364
   25MOL0     C 3263   2.329   1.845   2.478  0.9343 -0.3121 -0.1752
   25MOL0     O 3264   2.451   1.827   2.406  0.5563  0.5291 -0.5529
   25MOL0     C 3265   2.567   1.897   2.429  1.2880  0.0968  1.1130
   25MOL0     C 3266   2.672   1.875   2.341 -0.6761 -0.7450  0.0294
   25MOL0     C 3267   2.791   1.944   2.351 -0.3119 -0.2639 -0.2338
   25MOL0     C 3268   2.809   2.032   2.457 -0.4462 -0.9050  1.1743
   25MOL0     C 3269   2.945   2.089   2.472  0.5012 -0.2803 -0.4076
   25MOL0     O 3270   3.032   2.100   2.366  0.6147  0.1364  0.1490
   25MOL0     C 3271   3.161   2.144   2.390 -0.2808  0.6550 -0.4949
   25MOL0     C 3272   3.217   2.252   2.316  0.1484  1.1582 -0.1124
   25MOL0     C 3273   3.353   2.291   2.335  0.1261 -0.8493  0.2699
   25MOL0     C 3274   3.439   2.211   2.412  0.1893 -0.3037  0.5882
   25MOL0     O 3275   3.570   2.248   2.421  0.0978 -0.2416 -0.3521
   25MOL0     C 3276   3.655   2.172   2.342 -0.8268 -0.7476  0.3099
   25MOL0     C 3277   3.788   2.236   2.334 -1.3097  0.6842 -0.3533
   25MOL0     C 3278   3.865   2.228   2.469 -0.7573  0.9206 -0.2634
   25MOL0     C 3279   4.014   2.251   2.436 -0.2687 -0.4302  0.2225
   25MOL0     C 3280   4.087   2.133   2.371 -0.5384 -0.1959 -0.5863
   25MOL0     C 3281   4.217   2.161   2.305 -0.4774 -0.1977  0.2315
   25MOL0     C 3282   4.286   2.041   2.235 -0.0110  1.4364 -0.7030
   25MOL0     C 3283   4.414   2.085   2.174  0.2842 -0.0851 -0.3694
   25MOL0    Cl 3284   4.499   1.955   2.098  0.4290  0.0645 -0.2066
   25MOL0     C 3285   3.390   2.098   2.469 -0.1467  0.0712 -0.3235
   25MOL0     C 3286   3.253   2.062   2.465 -0.8655 -0.1434 -1.1124
   25MOL0     O 3287   2.956   2.154   2.580  0.3288 -0.1363 -0.2853
   25MOL0     C 3288   2.705   2.050   2.547 -0.1496  0.1666 -0.0643
   25MOL0     C 3289   2.585   1.982   2.531 -0.1708  0.3732  0.1654
   25MOL0     N 3290   1.942   1.561   2.538 -0.7579  0.3468 -1.1796
   25MOL0     N 3291   1.820   1.563   2.566  0.0697  0.5695  0.3380
   25MOL0     C 3292   0.997   1.589   2.103 -0.4939 -0.2775  1.0294
   25MOL0     C 3293   0.885   1.521   2.146 -0.5515  0.0032 -0.0890
   25MOL0     C 3294   0.464   1.451   2.209  0.4043 -0.3530  0.0768
   25MOL0     C 3295   0.481   1.323   2.270  0.2992  0.6615 -0.7293
   25MOL0     C 3296   0.374   1.240   2.298 -0.0354 -0.2129 -0.2505
   25MOL0     C 3297   0.240   1.280   2.260 -1.0150  1.2928  0.4101
   25MOL0     O 3298   0.134   1.203   2.279 -0.0007  0.2975  0.3280
   25MOL0     C 3299   0.004   1.262   2.322 -0.7130  0.0387  0.2981
   25MOL0     C 3300   0.020   1.343   2.450  0.6889 -0.5326  0.7865
   25MOL0     C 3301  -0.114   1.388   2.507 -0.5156 -0.3176 -0.4813
   25MOL0     C 3302  -0.178   1.510   2.434 -0.3210  0.3470 -0.0532
   25MOL0     C 3303  -0.105   1.633   2.443  0.3814  0.1358  0.8640
   25MOL0     C 3304  -0.058   1.741   2.456 -1.1637  0.1172 -0.3258
   25MOL0     C 3305   0.221   1.409   2.201 -0.6397 -0.4617  0.1979
   25MOL0     C 3306   0.333   1.496   2.177  0.2866 -0.4733 -0.0589
   25MOL0     C 3307   0.295   1.633   2.124 -0.7783  0.6032 -0.7333
   25MOL0     H 3308   0.757   1.776   2.326  0.6451  1.7480 -1.5753
   25MOL0     H 3309   0.969   1.889   2.248  2.6725 -1.3391 -0.6011
   25MOL0     H 3310   1.073   1.959   2.044  0.7964  0.3966  0.4367
   25MOL0     H 3311   1.175   1.935   2.193 -2.9330  1.4305 -0.2761
   25MOL0     H 3312   1.288   2.068   1.977 -0.3175 -0.2823 -2.8983
   25MOL0     H 3313   1.236   1.927   1.887 -0.9973 -0.3415  0.5466
   25MOL0     H 3314   1.488   1.937   1.952  1.6686 -0.0730  0.4757
   25MOL0     H 3315   1.399   1.786   1.958  2.3997 -0.3489  1.1842
   25MOL0     H 3316   1.419   1.983   2.195 -2.1703 -0.5639  1.0666
   25MOL0     H 3317   1.366   1.814   2.208 -1.5717  1.5792  2.1501
   25MOL0     H 3318   1.600   1.736   2.172  0.3038  1.5302 -4.2261
   25MOL0     H 3319   1.657   1.898   2.171  1.2119 -0.3734 -0.1926
   25MOL0     H 3320   1.702   1.850   2.388  0.0136 -1.7549  0.3558
   25MOL0     H 3321   1.549   1.938   2.393 -1.4032  0.7773 -1.8450
   25MOL0     H 3322   1.430   1.731   2.427 -0.3016 -0.7996  0.2301
   25MOL0     H 3323   1.562   1.754   2.550  3.0262 -3.1408 -0.1266
   25MOL0     H 3324   1.560   1.526   2.507  0.9899  0.1254 -0.3964
   25MOL0     H 3325   1.594   1.562   2.339 -2.8576 -0.4482 -0.2747
   25MOL0     H 3326   1.801   1.614   2.249 -2.2318 -0.4517  0.4257
   25MOL0     H 3327   2.112   1.471   2.308  1.6783  0.9231 -0.1947
   25MOL0     H 3328   2.083   1.620   2.228 -0.4937 -3.2738 -1.7222
   25MOL0     H 3329   2.212   1.588   2.481 -1.5045 -0.3615 -1.2266
   25MOL0     H 3330   2.295   1.600   2.330  2.2566  1.4277  0.4380
   25MOL0     H 3331   2.114   1.829   2.432 -0.2316 -1.1474  2.7691
   25MOL0     H 3332   2.226   1.832   2.296 -1.2225 -2.4511 -1.4591
   25MOL0     H 3333   2.318   1.789   2.571 -0.5657 -0.2090 -0.2614
   25MOL0     H 3334   2.312   1.951   2.498  1.3263 -0.3254  0.2600
   25MOL0     H 3335   2.668   1.801   2.261 -1.1394 -0.7080  0.0159
   25MOL0     H 3336   2.876   1.924   2.287  0.9527 -0.0396  1.3253
   25MOL0     H 3337   3.144   2.315   2.265  0.4227  2.3652  0.9489
   25MOL0     H 3338   3.388   2.386   2.296  0.6552 -1.5144 -0.9185
   25MOL0     H 3339   3.666   2.072   2.385 -0.7064 -1.1967 -0.7347
   25MOL0     H 3340   3.630   2.166   2.236 -0.0821 -1.8302  0.1751
   25MOL0     H 3341   3.842   2.191   2.250 -2.4367 -0.5127 -0.4699
   25MOL0     H 3342   3.774   2.339   2.301  2.7661  1.1398 -1.1939
   25MOL0     H 3343   3.830   2.318   2.520 -2.3706  2.1874 -3.3100
   25MOL0     H 3344   3.848   2.136   2.526  0.9510  0.5856 -0.2403
   25MOL0     H 3345   4.063   2.256   2.533 -0.2661  0.8752  0.1625
   25MOL0     H 3346   4.028   2.342   2.377 -3.2609 -0.9459 -1.5197
   25MOL0     H 3347   4.024   2.080   2.299  2.1613  0.2208 -3.4254
   25MOL0     H 3348   4.105   2.065   2.456 -1.3730  1.4992  1.0305
   25MOL0     H 3349   4.207   2.239   2.229  2.4619  1.0317  0.9596
   25MOL0     H 3350   4.276   2.211   2.383 -2.7933 -2.7562  3.9699
   25MOL0     H 3351   4.220   2.014   2.152  1.5840  1.0487 -1.8961
   25MOL0     H 3352   4.290   1.968   2.316  0.4084  1.4756 -0.6898
   25MOL0     H 3353   4.397   2.154   2.091 -0.7840 -1.8803 -1.7145
   25MOL0     H 3354   4.468   2.150   2.244 -1.0719  1.2162 -0.4861
   25MOL0     H 3355   3.465   2.056   2.535 -2.0689 -1.4620  1.0086
   25MOL0     H 3356   3.221   1.981   2.530  0.5727  0.5506  0.5375
   25MOL0     H 3357   2.712   2.116   2.633  5.6462  0.1102 -0.1122
   25MOL0     H 3358   2.507   2.002   2.603  0.8374 -2.1158  2.1173
   25MOL0     H 3359   1.068   1.538   2.039  0.2910  1.7807  0.1792
   25MOL0     H 3360   0.869   1.419   2.113 -0.1307 -0.8398  2.1265
   25MOL0     H 3361   0.582   1.302   2.303  1.7274  5.3623 -1.3721
   25MOL0     H 3362   0.382   1.150   2.358 -1.2560  2.0932  3.7722
   25MOL0     H 3363  -0.063   1.179   2.347  1.6516 -1.6358  1.4001
   25MOL0     H 3364  -0.042   1.323   2.244 -2.0359  0.0566  1.0662
   25MOL0     H 3365   0.068   1.433   2.411 -3.9530  1.3068 -1.4647
   25MOL0     H 3366   0.089   1.300   2.523  1.9806  2.1082  1.2474
   25MOL0     H 3367  -0.096   1.409   2.613 -0.0487 -0.1129 -0.5999
   25MOL0     H 3368  -0.186   1.306   2.507 -1.2022  0.0529  3.6307
   25MOL0     H 3369  -0.189   1.492   2.327  0.5980  0.7697 -0.2357
   25MOL0     H 3370  -0.274   1.531   2.480  0.1094  1.4741  0.3720
   25MOL0     H 3371  -0.020   1.838   2.484 -2.3028  0.1663  1.1591
   25MOL0     H 3372   0.123   1.430   2.159 -0.0432 -0.3224 -1.1736
   25MOL0     H 3373   0.197   1.668   2.159 -0.6741 -0.4080  0.6639
   25MOL0     H 3374   0.371   1.705   2.155 -0.3131 -0.2680  0.1804
   25MOL0     H 3375   0.286   1.629   2.015 -0.8244  0.7593 -0.7360
   26MOL0     O 3376   4.466   7.854  10.693  0.8963  0.1799  0.1870
   26MOL0     C 3377   4.432   7.787  10.790 -0.7175 -0.5232 -0.1014
   26MOL0     O 3378   4.504   7.769  10.903 -0.6511 -0.3552 -0.5409
   26MOL0     C 3379   4.609   7.847  10.921 -0.6245 -0.9000  0.1358
   26MOL0     C 3380   4.732   7.802  10.885  0.1181  0.0985  0.3616
   26MOL0     C 3381   4.837   7.892  10.900 -0.5901 -0.0192 -0.2426
   26MOL0     C 3382   4.826   8.026  10.952 -0.2345 -0.1849 -0.1613
   26MOL0     O 3383   4.934   8.103  10.971  1.0281 -0.5605 -0.4334
   26MOL0     C 3384   5.056   8.087  10.895  0.2323 -0.5494  0.1107
   26MOL0     C 3385   5.168   8.015  10.968 -0.0901 -0.1956  0.1483
   26MOL0     C 3386   5.292   7.960  10.893 -0.0811 -0.4535 -0.1941
   26MOL0     C 3387   5.260   7.834  10.819 -0.1962 -0.3316  0.6817
   26MOL0     C 3388   5.363   7.723  10.852  0.1886  0.4365  0.3258
   26MOL0     C 3389   5.506   7.753  10.802  0.1194 -0.2444 -0.3360
   26MOL0     C 3390   5.600   7.633  10.817 -0.5596 -0.1754  0.4480
   26MOL0     C 3391   5.735   7.660  10.750  0.0348  0.1413  0.5386
   26MOL0     N 3392   5.829   7.766  10.814  1.0744  0.2807 -0.0601
   26MOL0     C 3393   5.893   7.876  10.766 -0.9960  0.1179 -0.5555
   26MOL0     C 3394   5.976   7.910  10.862  0.1195  0.4907 -0.7115
   26MOL0     C 3395   6.063   8.037  10.860 -0.0027  0.7615 -0.5182
   26MOL0     C 3396   6.187   8.020  10.782 -0.0370 -0.0203 -0.0757
   26MOL0     C 3397   6.255   8.164  10.756 -0.9353  0.1725 -0.0640
   26MOL0     C 3398   6.306   8.240  10.882 -0.0556  1.3041 -0.1967
   26MOL0     O 3399   6.368   8.149  10.977 -0.4559  0.2270  0.2537
   26MOL0     C 3400   6.498   8.174  11.005 -0.0980  0.2663 -0.8712
   26MOL0     C 3401   6.549   8.160  11.131  0.5004 -0.0715 -0.6829
   26MOL0     C 3402   6.684   8.194  11.159  0.0383 -0.5047 -0.0144
   26MOL0     C 3403   6.772   8.227  11.057 -0.3619 -0.6428  0.4866
   26MOL0     C 3404   6.918   8.243  11.088 -0.3129 -0.4545 -0.1588
   26MOL0     O 3405   6.937   8.268  11.217 -0.3398 -0.2844  0.6530
   26MOL0     C 3406   7.060   8.297  11.267 -0.5992  0.6320 -0.2021
   26MOL0     C 3407   7.103   8.425  11.295  0.0287  0.0982  0.3069
   26MOL0     C 3408   7.233   8.452  11.329 -0.3493 -0.5263 -0.8340
   26MOL0     C 3409   7.325   8.349  11.351  0.1953 -0.0865 -0.3836
   26MOL0     O 3410   7.462   8.356  11.388  0.0184  0.1323 -0.1912
   26MOL0     C 3411   7.532   8.487  11.376  0.1957  0.1815 -0.9138
   26MOL0     C 3412   7.684   8.461  11.365 -0.3790 -0.0348 -0.6317
   26MOL0     C 3413   7.759   8.595  11.323 -0.0504  0.3018  0.2097
   26MOL0     C 3414   7.897   8.584  11.243 -1.0873 -0.2516  0.1564
   26MOL0     C 3415   7.964   8.720  11.199  0.0479  0.2130  1.0208
   26MOL0     C 3416   8.089   8.704  11.117 -0.3483  0.1700 -0.1216
   26MOL0     C 3417   8.049   8.617  10.990  0.0828  0.4564  0.0504
   26MOL0     C 3418   8.133   8.649  10.867 -0.0843 -0.7109  0.7094
   26MOL0    Cl 3419   8.054   8.790  10.783 -0.1855  0.4506  0.0030
   26MOL0     C 3420   7.271   8.222  11.337 -0.8356  0.0468 -0.6770
   26MOL0     C 3421   7.143   8.192  11.299  0.8185  0.2708  0.4795
   26MOL0     O 3422   7.004   8.236  11.000  0.2265  0.4791 -1.0516
   26MOL0     C 3423   6.722   8.219  10.926 -0.3938 -1.0402 -0.2179
   26MOL0     C 3424   6.581   8.207  10.906 -0.6695 -0.5116 -0.4106
   26MOL0     N 3425   5.958   7.828  10.971 -0.7708 -1.0380  0.7992
   26MOL0     N 3426   5.864   7.749  10.945  0.2882  0.1434  0.1539
   26MOL0     C 3427   4.699   8.067  11.007 -0.6819  0.4829  0.3516
   26MOL0     C 3428   4.586   7.974  10.990 -0.6808  0.3869 -0.3405
   26MOL0     C 3429   4.298   7.729  10.808  0.6404  0.6186  0.2525
   26MOL0     C 3430   4.254   7.695  10.936  0.0322  0.3510 -0.0431
   26MOL0     C 3431   4.131   7.644  10.963  0.4077  0.0255 -0.5035
   26MOL0     C 3432   4.042   7.634  10.858 -0.9854 -0.3543  0.1746
   26MOL0     O 3433   3.915   7.604  10.895  0.7107  0.0417  1.1221
   26MOL0     C 3434   3.820   7.561  10.795 -0.4754 -0.9570 -1.6441
   26MOL0     C 3435   3.697   7.497  10.864 -0.1910 -0.6372  0.8428
   26MOL0     C 3436   3.598   7.601  10.910  0.1654 -0.0058 -0.1969
   26MOL0     C 3437   3.460   7.543  10.942  0.9258 -0.3597  0.5682
   26MOL0     C 3438   3.464   7.468  11.065  0.2797 -0.0631 -0.3529
   26MOL0     C 3439   3.458   7.423  11.175 -0.3369  0.5079  0.4859
   26MOL0     C 3440   4.086   7.660  10.722 -0.6738  0.1816 -0.4543
   26MOL0     C 3441   4.208   7.708  10.694 -0.3886  0.0605 -0.5375
   26MOL0     C 3442   4.233   7.733  10.546 -0.0656  0.3286  0.2774
   26MOL0     H 3443   4.748   7.702  10.845 -0.6422 -0.6739  1.9165
   26MOL0     H 3444   4.935   7.862  10.865  0.0171  0.5561  0.8916
   26MOL0     H 3445   5.030   8.028  10.807 -0.1235  0.5717 -0.5588
   26MOL0     H 3446   5.091   8.187  10.870 -0.4006  1.1449  4.8998
   26MOL0     H 3447   5.118   7.928  11.011 -0.5999  0.2705  0.5170
   26MOL0     H 3448   5.192   8.078  11.054  2.6603 -0.4988 -0.3225
   26MOL0     H 3449   5.372   7.948  10.967  0.3169  1.8456 -0.1813
   26MOL0     H 3450   5.320   8.036  10.819 -1.7951  0.4575  0.0644
   26MOL0     H 3451   5.156   7.800  10.831 -0.7515  1.0858  0.1620
   26MOL0     H 3452   5.270   7.860  10.713 -1.2540  2.9574  1.2584
   26MOL0     H 3453   5.372   7.718  10.961 -2.4592  1.6825  0.6867
   26MOL0     H 3454   5.314   7.633  10.812 -2.3041  2.3718 -1.3009
   26MOL0     H 3455   5.507   7.777  10.695  2.0716  0.7462 -0.1460
   26MOL0     H 3456   5.552   7.834  10.860  0.0425 -1.3316  1.2963
   26MOL0     H 3457   5.548   7.546  10.775 -1.2065  0.3640  0.1181
   26MOL0     H 3458   5.618   7.609  10.922  0.4366  2.6818  1.0001
   26MOL0     H 3459   5.788   7.566  10.733 -1.1857 -0.6795  1.1402
   26MOL0     H 3460   5.719   7.696  10.648  1.5431  0.4677  0.3974
   26MOL0     H 3461   5.868   7.920  10.670 -0.7936 -0.0850 -0.7018
   26MOL0     H 3462   6.009   8.125  10.825 -1.3102  0.8629  1.5952
   26MOL0     H 3463   6.097   8.055  10.962  0.1554  1.0329 -0.6184
   26MOL0     H 3464   6.256   7.952  10.833  1.7956  0.3791 -1.8936
   26MOL0     H 3465   6.157   7.987  10.682 -1.4120  0.9938 -0.0243
   26MOL0     H 3466   6.193   8.233  10.699  1.9647 -0.1301 -4.0024
   26MOL0     H 3467   6.342   8.161  10.690 -1.9528  1.1879 -1.5047
   26MOL0     H 3468   6.218   8.290  10.923  0.2427  1.3979  0.3379
   26MOL0     H 3469   6.371   8.324  10.857  0.4142  0.7134 -0.9951
   26MOL0     H 3470   6.481   8.144  11.214 -2.2648  2.5584 -2.2658
   26MOL0     H 3471   6.713   8.181  11.263  0.5834  0.8054  0.0118
   26MOL0     H 3472   7.030   8.504  11.295 -2.6797 -2.2382 -0.4211
   26MOL0     H 3473   7.259   8.556  11.346 -2.8568 -0.1055  0.9541
   26MOL0     H 3474   7.504   8.533  11.281  1.5518 -0.3996 -1.6285
   26MOL0     H 3475   7.508   8.548  11.464 -0.9540 -0.9686 -0.3982
   26MOL0     H 3476   7.713   8.425  11.464 -1.2037  0.9794  0.0047
   26MOL0     H 3477   7.691   8.388  11.284 -1.1334 -0.6154 -0.1889
   26MOL0     H 3478   7.688   8.657  11.268  0.5463  2.3371  1.5824
   26MOL0     H 3479   7.786   8.643  11.418 -1.6075 -1.7532  1.7909
   26MOL0     H 3480   7.874   8.535  11.148  0.2334  0.1931 -0.4209
   26MOL0     H 3481   7.973   8.526  11.297  1.9774  1.6949 -1.7689
   26MOL0     H 3482   7.986   8.776  11.290 -0.8178  0.0078  1.3748
   26MOL0     H 3483   7.887   8.774  11.143 -0.5203 -1.0120  0.5789
   26MOL0     H 3484   8.130   8.797  11.076 -1.6295  0.4394 -0.8650
   26MOL0     H 3485   8.157   8.646  11.180 -2.4521 -2.4183 -0.0113
   26MOL0     H 3486   7.945   8.629  10.961  0.1746  3.0935  0.5998
   26MOL0     H 3487   8.057   8.512  11.020 -2.8692  0.2526  0.4035
   26MOL0     H 3488   8.228   8.674  10.915 -1.0911  0.4969  2.1462
   26MOL0     H 3489   8.134   8.566  10.795  0.6131 -0.1803  0.0847
   26MOL0     H 3490   7.349   8.149  11.357  0.1780  1.4489  0.7525
   26MOL0     H 3491   7.110   8.089  11.284 -2.0018  1.0803  0.4559
   26MOL0     H 3492   6.799   8.229  10.850 -0.3268  1.0626  0.0891
   26MOL0     H 3493   6.533   8.215  10.809 -3.3334 -0.9121  0.7900
   26MOL0     H 3494   4.695   8.164  11.055  0.2917 -0.8634  3.4116
   26MOL0     H 3495   4.488   8.000  11.028 -0.7526  0.1970 -0.3957
   26MOL0     H 3496   4.314   7.714  11.024  2.4822  2.0257 -1.9214
   26MOL0     H 3497   4.108   7.627  11.068  1.1197  1.0496 -0.1719
   26MOL0     H 3498   3.876   7.486  10.739  1.2456 -0.0577 -1.1810
   26MOL0     H 3499   3.791   7.637  10.721  1.9053 -0.2108 -1.8890
   26MOL0     H 3500   3.728   7.423  10.938  1.2645 -0.4020  0.4945
   26MOL0     H 3501   3.637   7.446  10.788 -3.3319  1.7807  1.4805
   26MOL0     H 3502   3.592   7.677  10.832 -0.8624 -0.7120 -0.8226
   26MOL0     H 3503   3.629   7.661  10.997 -1.5458  1.6958 -0.6934
   26MOL0     H 3504   3.390   7.627  10.952  2.5054  1.3182 -1.4288
   26MOL0     H 3505   3.417   7.475  10.868 -1.6322  1.9879 -0.2986
   26MOL0     H 3506   3.459   7.392  11.278 -1.3831 -1.0219  0.0735
   26MOL0     H 3507   4.017   7.647  10.639  0.1946 -1.9271 -0.9166
   26MOL0     H 3508   4.191   7.643  10.499  2.5608 -0.3083 -1.0517
   26MOL0     H 3509   4.195   7.831  10.515  1.9680  0.5135 -1.9239
   26MOL0     H 3510   4.341   7.731  10.526  0.3618 -0.0835  2.4105
   27MOL0     O 3511   7.427   5.838   5.164 -0.0097 -0.2953  0.1795
   27MOL0     C 3512   7.330   5.915   5.185 -0.8358  0.2129  0.0311
   27MOL0     O 3513   7.342   6.048   5.187  0.6492  0.0180 -0.3117
   27MOL0     C 3514   7.449   6.106   5.138  1.0595 -0.8574 -0.1589
   27MOL0     C 3515   7.473   6.089   5.001  0.6801  0.5607  0.1633
   27MOL0     C 3516   7.565   6.161   4.936  0.6139  0.2808 -0.2769
   27MOL0     C 3517   7.641   6.261   5.012  1.5130 -1.1216 -0.8055
   27MOL0     O 3518   7.730   6.336   4.950  0.1127 -0.4641 -0.7190
   27MOL0     C 3519   7.812   6.423   5.012 -0.1242 -0.3361  0.0406
   27MOL0     C 3520   7.915   6.477   4.913  0.2650  1.0012  0.4242
   27MOL0     C 3521   8.015   6.370   4.873 -0.1393 -0.3538  0.3022
   27MOL0     C 3522   8.077   6.406   4.741 -1.1391 -0.0772 -0.2638
   27MOL0     C 3523   8.208   6.315   4.713  1.5866  0.1251  0.6132
   27MOL0     C 3524   8.297   6.365   4.597  0.7203  0.1334  0.8245
   27MOL0     C 3525   8.387   6.251   4.553 -0.1813  0.4179 -0.3633
   27MOL0     C 3526   8.460   6.299   4.424  0.4015  0.3463 -0.5898
   27MOL0     N 3527   8.556   6.408   4.443  0.2009 -0.1007 -0.0844
   27MOL0     C 3528   8.689   6.398   4.488  0.2832  1.1878  0.0010
   27MOL0     C 3529   8.733   6.522   4.472  0.7718 -0.2803 -0.5408
   27MOL0     C 3530   8.875   6.567   4.466 -0.2310 -1.0851 -0.4053
   27MOL0     C 3531   8.957   6.525   4.591 -0.0821  0.0734 -0.0023
   27MOL0     C 3532   9.055   6.411   4.559 -0.0854 -0.2153 -0.3453
   27MOL0     C 3533   9.109   6.336   4.684  0.1397 -0.4576 -0.2510
   27MOL0     O 3534   9.155   6.442   4.772  0.0455 -0.4828 -0.4706
   27MOL0     C 3535   9.281   6.498   4.762  0.7257  0.4465  0.2135
   27MOL0     C 3536   9.292   6.634   4.758  0.7822  0.2862  0.2071
   27MOL0     C 3537   9.411   6.693   4.725  0.5404  0.3663 -0.1670
   27MOL0     C 3538   9.529   6.622   4.707 -0.5310  0.2777  0.2121
   27MOL0     C 3539   9.653   6.688   4.674  0.2738 -0.6806  0.0170
   27MOL0     O 3540   9.767   6.614   4.659 -0.8744 -0.2437 -0.9709
   27MOL0     C 3541   9.890   6.659   4.624 -0.3473  0.1746  0.0551
   27MOL0     C 3542   9.963   6.594   4.527  0.3922  0.2744 -0.1407
   27MOL0     C 3543  10.093   6.629   4.505 -0.6825  0.6457  0.0342
   27MOL0     C 3544  10.151   6.733   4.579 -0.0864 -0.4389  0.6167
   27MOL0     O 3545  10.285   6.782   4.560 -0.1320 -0.1176  0.4726
   27MOL0     C 3546  10.393   6.722   4.487  0.2217  0.2354  0.2831
   27MOL0     C 3547  10.395   6.789   4.356  0.0547 -0.1743  0.3175
   27MOL0     C 3548  10.493   6.904   4.344 -0.4425  0.3741 -0.4173
   27MOL0     C 3549  10.468   6.982   4.213 -0.2800  0.3127 -0.3257
   27MOL0     C 3550  10.559   7.108   4.216 -0.9515  0.0582  0.4539
   27MOL0     C 3551  10.690   7.056   4.161 -0.4325  0.7775 -0.2306
   27MOL0     C 3552  10.792   7.164   4.160 -0.6498  0.8414  0.1638
   27MOL0     C 3553  10.815   7.227   4.297  0.0398 -0.7735 -0.4994
   27MOL0    Cl 3554  10.964   7.347   4.302  0.0339  0.0419 -0.1526
   27MOL0     C 3555  10.070   6.806   4.667  0.3364  0.4063 -0.1312
   27MOL0     C 3556   9.943   6.764   4.697 -0.1939  0.7892 -0.0110
   27MOL0     O 3557   9.649   6.810   4.680  0.2504 -0.9889  0.5091
   27MOL0     C 3558   9.516   6.480   4.714 -0.7837 -0.2939 -0.6526
   27MOL0     C 3559   9.389   6.418   4.738 -0.5736 -0.1180  0.5083
   27MOL0     N 3560   8.629   6.608   4.444  0.0396  0.7879  0.3147
   27MOL0     N 3561   8.524   6.535   4.438  0.9749 -0.8112 -0.3657
   27MOL0     C 3562   7.616   6.278   5.151  0.4584 -0.4770 -0.1226
   27MOL0     C 3563   7.512   6.211   5.205  0.3850  0.7638 -0.1081
   27MOL0     C 3564   7.197   5.858   5.208  0.0925 -0.3992  1.1910
   27MOL0     C 3565   7.084   5.945   5.210  0.5959 -0.0673 -0.1337
   27MOL0     C 3566   6.952   5.894   5.234 -0.1521 -0.4164  0.3429
   27MOL0     C 3567   6.928   5.757   5.245 -0.1122 -0.6625  0.5241
   27MOL0     O 3568   6.799   5.712   5.276 -0.6362  0.1721  0.3042
   27MOL0     C 3569   6.755   5.755   5.405 -0.1433  0.8961  0.4353
   27MOL0     C 3570   6.660   5.649   5.457  0.2834  0.6629  0.3870
   27MOL0     C 3571   6.533   5.615   5.365 -0.0103  0.4866 -0.4484
   27MOL0     C 3572   6.480   5.464   5.399  0.2485  0.4231  0.2492
   27MOL0     C 3573   6.409   5.465   5.528  0.8690 -1.0288 -0.2718
   27MOL0     C 3574   6.352   5.463   5.629 -0.5054 -0.2178 -0.5740
   27MOL0     C 3575   7.036   5.675   5.242  0.7680  0.3138  0.7692
   27MOL0     C 3576   7.172   5.718   5.224 -0.3618 -1.2084  0.2960
   27MOL0     C 3577   7.278   5.614   5.229  0.0738  0.3150 -0.6151
   27MOL0     H 3578   7.416   6.014   4.947 -1.1922  1.7828  0.3451
   27MOL0     H 3579   7.601   6.132   4.838 -1.2166 -0.9991 -0.6228
   27MOL0     H 3580   7.759   6.514   5.042  1.2268 -0.1234  1.9871
   27MOL0     H 3581   7.862   6.381   5.100  1.4006  1.0887 -0.0932
   27MOL0     H 3582   7.974   6.555   4.962 -0.7725  0.5160  2.5588
   27MOL0     H 3583   7.873   6.530   4.827  1.0856  0.2025 -0.4986
   27MOL0     H 3584   7.966   6.272   4.875 -0.0317 -0.3963  1.5861
   27MOL0     H 3585   8.100   6.374   4.941  1.9701 -1.5359 -2.0824
   27MOL0     H 3586   8.010   6.388   4.657 -0.5189  1.1602 -1.0595
   27MOL0     H 3587   8.104   6.512   4.742  0.9919 -0.5182 -2.0697
   27MOL0     H 3588   8.273   6.297   4.799  0.7163 -3.1124  0.7081
   27MOL0     H 3589   8.161   6.222   4.681 -1.6153  1.7968  0.0351
   27MOL0     H 3590   8.226   6.382   4.515 -1.8596 -0.9160  2.7132
   27MOL0     H 3591   8.352   6.454   4.630  0.5918  1.2042 -1.5780
   27MOL0     H 3592   8.318   6.171   4.524  0.6389 -0.3249 -0.3151
   27MOL0     H 3593   8.450   6.202   4.628 -2.1984 -1.5338  0.2121
   27MOL0     H 3594   8.503   6.208   4.382 -0.7536  0.9947 -3.3764
   27MOL0     H 3595   8.385   6.333   4.352 -2.3664 -3.9306 -0.0227
   27MOL0     H 3596   8.746   6.309   4.511  1.0323  1.0676 -2.0620
   27MOL0     H 3597   8.925   6.529   4.376 -2.1417 -2.4208 -0.9655
   27MOL0     H 3598   8.872   6.675   4.455 -0.8291 -0.9137  1.1998
   27MOL0     H 3599   9.019   6.607   4.627  0.8976 -0.2416 -0.9323
   27MOL0     H 3600   8.880   6.500   4.665 -1.4719 -1.3352 -1.8045
   27MOL0     H 3601   9.137   6.448   4.496 -0.6181  0.0196 -0.9166
   27MOL0     H 3602   9.017   6.330   4.496  0.4453 -2.5658  2.1660
   27MOL0     H 3603   9.191   6.275   4.646  0.5048  0.8296 -1.6356
   27MOL0     H 3604   9.036   6.273   4.737 -1.3864  0.6646 -0.9430
   27MOL0     H 3605   9.206   6.696   4.779 -0.1250 -1.0919  0.7626
   27MOL0     H 3606   9.403   6.801   4.715  0.5134  0.5759  1.7996
   27MOL0     H 3607   9.937   6.510   4.464 -1.9195  2.2081 -1.9360
   27MOL0     H 3608  10.156   6.576   4.434 -1.2612  1.2192 -0.9149
   27MOL0     H 3609  10.491   6.740   4.532 -0.3294 -0.3011  1.7311
   27MOL0     H 3610  10.374   6.614   4.479  0.9978  0.2224 -2.6080
   27MOL0     H 3611  10.413   6.722   4.272  2.3002  2.9503 -1.9018
   27MOL0     H 3612  10.295   6.831   4.343  0.3827  0.9775  1.2678
   27MOL0     H 3613  10.475   6.977   4.423  2.4257  2.3096 -1.4049
   27MOL0     H 3614  10.600   6.879   4.349 -0.8356 -1.1686  2.0192
   27MOL0     H 3615  10.362   7.006   4.204 -1.2579 -2.9873  0.9192
   27MOL0     H 3616  10.483   6.924   4.122 -0.0299  0.4906 -0.4003
   27MOL0     H 3617  10.566   7.129   4.323 -3.0702 -1.2168  0.8888
   27MOL0     H 3618  10.519   7.185   4.149 -1.3678 -1.0119 -0.5585
   27MOL0     H 3619  10.729   6.980   4.230 -1.2543 -0.7477 -1.3945
   27MOL0     H 3620  10.677   7.010   4.062 -0.1880 -1.1585  0.5872
   27MOL0     H 3621  10.761   7.240   4.088 -1.2169  1.5020  1.0870
   27MOL0     H 3622  10.889   7.122   4.134 -0.6310 -0.0139  1.5040
   27MOL0     H 3623  10.725   7.285   4.317 -0.2112 -1.1614 -0.4873
   27MOL0     H 3624  10.829   7.158   4.380 -1.6374  0.6132  1.0090
   27MOL0     H 3625  10.120   6.887   4.719  0.2564  0.7188 -0.5371
   27MOL0     H 3626   9.886   6.824   4.767 -3.1609  0.2843 -1.8050
   27MOL0     H 3627   9.605   6.417   4.714  1.8646  3.0273 -3.3512
   27MOL0     H 3628   9.395   6.310   4.734  0.1238 -0.0655 -0.1418
   27MOL0     H 3629   7.669   6.344   5.219 -0.5927 -1.5658  1.8457
   27MOL0     H 3630   7.492   6.212   5.311 -0.0372 -1.0733 -0.1282
   27MOL0     H 3631   7.095   6.052   5.199  1.2185 -0.0876  0.1880
   27MOL0     H 3632   6.866   5.960   5.241 -0.0518 -0.3968  1.6010
   27MOL0     H 3633   6.693   5.846   5.403 -1.7488 -0.1477 -1.0967
   27MOL0     H 3634   6.840   5.772   5.471  1.2714 -0.3469 -0.9764
   27MOL0     H 3635   6.625   5.687   5.553 -1.3759 -0.5528  0.3124
   27MOL0     H 3636   6.723   5.560   5.471  1.6898  1.6008  0.2050
   27MOL0     H 3637   6.571   5.618   5.263  2.1317  3.0013  0.3203
   27MOL0     H 3638   6.448   5.682   5.383  0.6986  1.1182  0.6426
   27MOL0     H 3639   6.409   5.438   5.320  0.2052  1.0164  0.0917
   27MOL0     H 3640   6.565   5.395   5.406  1.5563  2.1035  1.8290
   27MOL0     H 3641   6.291   5.461   5.718 -2.3303 -1.6219 -1.7722
   27MOL0     H 3642   7.015   5.573   5.274 -2.7569  0.1198 -1.5774
   27MOL0     H 3643   7.236   5.514   5.248 -0.0227  0.6566  1.0698
   27MOL0     H 3644   7.335   5.610   5.135  1.2826 -2.1914  0.1349
   27MOL0     H 3645   7.342   5.648   5.311 -2.4601 -0.2945  1.7486
   28MOL0     O 3646   9.358   9.281  10.287  0.1297 -0.4222  0.5022
   28MOL0     C 3647   9.388   9.389  10.224  0.0653  0.2210 -0.3390
   28MOL0     O 3648   9.297   9.469  10.157 -0.3558  0.4306 -0.3220
   28MOL0     C 3649   9.164   9.452  10.164  0.4259  0.8474  0.8795
   28MOL0     C 3650   9.101   9.325  10.157  0.1306 -0.0375 -0.4040
   28MOL0     C 3651   8.968   9.303  10.144  1.3571  0.1913 -0.0079
   28MOL0     C 3652   8.879   9.410  10.155  0.0519 -0.4961 -0.2431
   28MOL0     O 3653   8.738   9.404  10.137  0.1777  0.2996 -0.7066
   28MOL0     C 3654   8.666   9.295  10.196  0.0254  0.5543  0.0364
   28MOL0     C 3655   8.516   9.314  10.182 -0.1524 -0.7825  0.4098
   28MOL0     C 3656   8.429   9.203  10.251  0.1789 -0.1452  0.4265
   28MOL0     C 3657   8.410   9.238  10.401  0.1633 -0.5728 -0.2421
   28MOL0     C 3658   8.349   9.119  10.481 -0.2717 -0.2280  0.2396
   28MOL0     C 3659   8.342   9.143  10.630 -0.5088 -0.0560 -0.3916
   28MOL0     C 3660   8.281   9.029  10.698 -0.3202  0.3697 -0.4711
   28MOL0     C 3661   8.258   9.073  10.841  0.5559 -0.6108  0.7427
   28MOL0     N 3662   8.391   9.096  10.905  0.5879  0.1328 -0.4547
   28MOL0     C 3663   8.446   9.222  10.923  0.5480 -0.3481  0.5567
   28MOL0     C 3664   8.536   9.204  11.023 -0.8438 -0.1742  0.3954
   28MOL0     C 3665   8.609   9.317  11.081  0.4883 -0.2627  0.3373
   28MOL0     C 3666   8.739   9.362  11.016  0.8855  0.0234 -0.2301
   28MOL0     C 3667   8.825   9.453  11.097  0.4591 -0.1447 -0.6538
   28MOL0     C 3668   8.970   9.465  11.062  0.2038  0.2926  0.0233
   28MOL0     O 3669   9.021   9.572  11.135  0.3025  0.4497  0.5600
   28MOL0     C 3670   9.160   9.576  11.152 -0.1791  0.0105 -0.4081
   28MOL0     C 3671   9.211   9.656  11.255 -0.5517 -0.5664  1.1369
   28MOL0     C 3672   9.348   9.661  11.289 -0.6485 -0.3960  0.0664
   28MOL0     C 3673   9.442   9.585  11.211  0.0887 -0.6584  0.0194
   28MOL0     C 3674   9.591   9.594  11.232  0.2075  0.3731  0.2576
   28MOL0     O 3675   9.676   9.547  11.142 -0.5743  0.5973 -0.0232
   28MOL0     C 3676   9.809   9.588  11.149 -0.4206 -0.1099  0.6962
   28MOL0     C 3677   9.916   9.502  11.135  0.7314 -0.1256  0.3375
   28MOL0     C 3678  10.049   9.544  11.141 -0.5177  0.4581  0.3960
   28MOL0     C 3679  10.086   9.677  11.155  0.9206  0.1576  0.3907
   28MOL0     O 3680  10.213   9.722  11.148 -0.6314 -0.3212 -0.2842
   28MOL0     C 3681  10.304   9.662  11.048 -0.2678 -0.7832 -0.2198
   28MOL0     C 3682  10.438   9.737  11.044 -0.2460 -0.2921 -0.2943
   28MOL0     C 3683  10.517   9.693  10.921  0.4989 -0.0575  0.1357
   28MOL0     C 3684  10.598   9.568  10.953 -0.2962 -0.1227  0.4345
   28MOL0     C 3685  10.662   9.528  10.815  0.2112  0.4845  0.3707
   28MOL0     C 3686  10.726   9.391  10.814 -0.0172  0.2230 -0.4033
   28MOL0     C 3687  10.839   9.390  10.920 -0.2850  0.1694 -0.0281
   28MOL0     C 3688  10.951   9.500  10.899 -0.6382 -0.8057  1.0517
   28MOL0    Cl 3689  11.103   9.462  10.985 -0.3678  0.2334 -0.1628
   28MOL0     C 3690   9.981   9.766  11.180 -0.2356 -0.4399 -0.0581
   28MOL0     C 3691   9.845   9.723  11.167 -0.2599 -0.9470  0.0061
   28MOL0     O 3692   9.622   9.643  11.337 -0.3160 -0.6845 -0.9894
   28MOL0     C 3693   9.389   9.513  11.099  0.6866 -0.2417  0.8242
   28MOL0     C 3694   9.254   9.518  11.070 -0.6799 -0.5541  0.0561
   28MOL0     N 3695   8.538   9.074  11.063 -0.5454 -0.1494 -1.0986
   28MOL0     N 3696   8.450   9.008  10.997 -0.8127  0.0233  0.0431
   28MOL0     C 3697   8.941   9.541  10.156 -0.2492 -0.2740 -0.6563
   28MOL0     C 3698   9.076   9.558  10.160  0.4491  0.3558 -0.5190
   28MOL0     C 3699   9.527   9.425  10.226 -0.4450 -0.2652  0.3608
   28MOL0     C 3700   9.613   9.358  10.322 -1.0790  0.1952  0.1526
   28MOL0     C 3701   9.750   9.376  10.310 -0.6317  0.5582  0.3128
   28MOL0     C 3702   9.804   9.463  10.209 -0.4418 -0.1701 -0.3570
   28MOL0     O 3703   9.938   9.495  10.183  0.0417  0.2550 -0.2919
   28MOL0     C 3704  10.036   9.430  10.264 -0.2560 -1.0513 -0.2191
   28MOL0     C 3705  10.167   9.468  10.185 -0.3338  0.5498 -0.5111
   28MOL0     C 3706  10.290   9.420  10.268  0.0925 -0.5847  0.6006
   28MOL0     C 3707  10.425   9.452  10.204 -0.1328  0.4550  0.1968
   28MOL0     C 3708  10.518   9.425  10.308 -0.3328  0.4055  0.3451
   28MOL0     C 3709  10.602   9.406  10.390  0.2980 -0.7150 -1.0906
   28MOL0     C 3710   9.716   9.539  10.134  0.7447 -0.0305 -0.5458
   28MOL0     C 3711   9.584   9.521  10.138 -0.5989  0.6266  0.2092
   28MOL0     C 3712   9.512   9.604  10.038 -0.0175  0.7539 -0.2254
   28MOL0     H 3713   9.167   9.240  10.144 -2.0436 -1.8972  0.2315
   28MOL0     H 3714   8.926   9.203  10.134 -0.2151  0.7794  0.4294
   28MOL0     H 3715   8.692   9.200  10.147 -1.1974  0.5497 -0.6387
   28MOL0     H 3716   8.706   9.281  10.296  2.0801  0.3056 -0.7640
   28MOL0     H 3717   8.477   9.311  10.080  0.7314 -0.0921  0.0418
   28MOL0     H 3718   8.489   9.413  10.220  0.7469  0.0945 -1.1439
   28MOL0     H 3719   8.485   9.109  10.243  1.7917  0.7924  0.1190
   28MOL0     H 3720   8.333   9.201  10.199  0.5339  4.2454 -0.9061
   28MOL0     H 3721   8.512   9.260  10.433 -0.2425  0.7420  0.2233
   28MOL0     H 3722   8.359   9.332  10.421 -2.1727 -1.8987  0.3415
   28MOL0     H 3723   8.245   9.100  10.454 -0.8509 -0.0766  2.2659
   28MOL0     H 3724   8.401   9.026  10.453 -1.4189 -0.9806  0.5503
   28MOL0     H 3725   8.448   9.155  10.652 -0.4214 -2.4851  0.7928
   28MOL0     H 3726   8.282   9.233  10.648 -0.9760 -0.4241 -0.0958
   28MOL0     H 3727   8.340   8.937  10.700  0.8636  1.1185  1.0042
   28MOL0     H 3728   8.184   9.008  10.652 -0.1759  0.9351 -1.0358
   28MOL0     H 3729   8.212   9.171  10.852  3.1724  0.5498  2.3780
   28MOL0     H 3730   8.214   8.987  10.893  0.9886 -1.4743 -0.3031
   28MOL0     H 3731   8.418   9.317  10.878 -0.2399 -0.5973  0.5086
   28MOL0     H 3732   8.538   9.399  11.071  1.1529  0.1528 -1.2123
   28MOL0     H 3733   8.637   9.292  11.184  1.0450 -1.3327 -0.0511
   28MOL0     H 3734   8.791   9.267  11.002 -0.3657 -0.3870 -2.7431
   28MOL0     H 3735   8.719   9.413  10.921  0.7283 -1.1867 -0.8707
   28MOL0     H 3736   8.815   9.423  11.201 -1.6180  1.1372 -0.4272
   28MOL0     H 3737   8.788   9.556  11.086 -0.7599 -0.3862  0.8933
   28MOL0     H 3738   8.984   9.489  10.956  1.5303 -1.3241 -0.2235
   28MOL0     H 3739   9.027   9.373  11.080 -2.1487 -1.0106  1.2975
   28MOL0     H 3740   9.132   9.706  11.312 -1.4475  0.0679 -0.5782
   28MOL0     H 3741   9.378   9.725  11.372  2.0385  0.4774 -1.4495
   28MOL0     H 3742   9.889   9.397  11.129  0.2628 -0.0679  1.3246
   28MOL0     H 3743  10.120   9.465  11.119 -0.4249  0.6978 -0.1939
   28MOL0     H 3744  10.326   9.556  11.062 -2.3325 -1.4187 -1.2692
   28MOL0     H 3745  10.249   9.669  10.954 -1.2591  2.4715  0.4501
   28MOL0     H 3746  10.424   9.845  11.044 -2.3670 -0.5258 -0.6585
   28MOL0     H 3747  10.497   9.707  11.131 -0.4859 -3.5346 -1.1217
   28MOL0     H 3748  10.448   9.673  10.839  1.9244  0.9449 -1.3847
   28MOL0     H 3749  10.576   9.783  10.898  2.3822 -1.5228 -1.0284
   28MOL0     H 3750  10.530   9.494  10.997  0.8980 -0.7783  1.2610
   28MOL0     H 3751  10.678   9.589  11.025  0.6322 -1.8408 -0.0336
   28MOL0     H 3752  10.730   9.605  10.778 -0.8831  0.3441 -2.1415
   28MOL0     H 3753  10.580   9.521  10.743 -0.8425 -0.1787  1.6043
   28MOL0     H 3754  10.654   9.316  10.848  3.2574 -2.0833  2.0115
   28MOL0     H 3755  10.756   9.360  10.714 -1.3680 -2.4588 -0.0772
   28MOL0     H 3756  10.884   9.291  10.909  2.0410  1.3357 -2.0694
   28MOL0     H 3757  10.803   9.405  11.022 -0.2178 -0.9193  0.1591
   28MOL0     H 3758  10.969   9.508  10.792  1.1267 -0.1398  1.3668
   28MOL0     H 3759  10.915   9.601  10.917  0.3887  0.2034 -1.9933
   28MOL0     H 3760   9.994   9.868  11.215 -2.9595 -0.6533  1.8699
   28MOL0     H 3761   9.774   9.802  11.190 -0.4863 -1.2064  0.2158
   28MOL0     H 3762   9.457   9.460  11.034  1.5995 -0.5875  2.0220
   28MOL0     H 3763   9.217   9.463  10.984 -0.5126  0.5492 -0.7579
   28MOL0     H 3764   8.871   9.623  10.138 -1.0447 -1.0854 -1.3804
   28MOL0     H 3765   9.119   9.651  10.124  2.8223 -1.5146 -2.9608
   28MOL0     H 3766   9.592   9.283  10.397  0.8330 -0.6725 -0.1039
   28MOL0     H 3767   9.822   9.318  10.367  0.5531  2.7421  1.1648
   28MOL0     H 3768  10.024   9.322  10.256  0.5470 -1.0819 -1.3295
   28MOL0     H 3769  10.030   9.463  10.368 -1.9404 -0.2588 -0.5233
   28MOL0     H 3770  10.181   9.575  10.169  1.8964  0.6539  1.6553
   28MOL0     H 3771  10.156   9.423  10.086 -1.9796 -2.4633  0.9131
   28MOL0     H 3772  10.286   9.310  10.266 -0.1135 -0.5667 -0.7009
   28MOL0     H 3773  10.284   9.464  10.368  1.4263 -1.1932  0.9826
   28MOL0     H 3774  10.448   9.402  10.110 -1.3479  1.1530 -0.5058
   28MOL0     H 3775  10.432   9.559  10.183  1.3986 -0.0924 -2.3481
   28MOL0     H 3776  10.682   9.402  10.460 -1.0468 -0.8550  0.4824
   28MOL0     H 3777   9.761   9.617  10.073 -0.3526 -0.3106 -1.7630
   28MOL0     H 3778   9.427   9.655  10.085  1.1610  1.4914  1.2212
   28MOL0     H 3779   9.568   9.690   9.997 -0.0888  1.1835  0.5638
   28MOL0     H 3780   9.477   9.549   9.951 -0.9809  1.1129 -0.0786
   29MOL0     O 3781   5.250   2.543   5.342 -0.2155  0.8120 -0.4201
   29MOL0     C 3782   5.210   2.650   5.391 -0.2610  0.5595  0.2731
   29MOL0     O 3783   5.290   2.742   5.450  0.0337 -0.7116  0.3979
   29MOL0     C 3784   5.423   2.710   5.455  0.2653 -0.1994 -1.1022
   29MOL0     C 3785   5.506   2.716   5.338  0.5489 -0.1080  0.3114
   29MOL0     C 3786   5.648   2.694   5.343  0.9072  0.2358  1.0343
   29MOL0     C 3787   5.706   2.669   5.470  0.8211 -0.9008  0.2776
   29MOL0     O 3788   5.841   2.658   5.496  0.4149  0.5308  0.0213
   29MOL0     C 3789   5.921   2.639   5.373 -0.7512 -0.1421  0.8854
   29MOL0     C 3790   6.077   2.613   5.394 -0.4384  0.5652 -0.2252
   29MOL0     C 3791   6.146   2.612   5.260  0.4263  0.6599  0.7708
   29MOL0     C 3792   6.297   2.611   5.255 -0.7321  0.0586  0.3562
   29MOL0     C 3793   6.338   2.561   5.110  0.1723  0.5083 -0.6399
   29MOL0     C 3794   6.494   2.558   5.098  0.0564  0.0792  0.3032
   29MOL0     C 3795   6.538   2.428   5.158 -0.5112  0.8811  0.7749
   29MOL0     C 3796   6.695   2.431   5.177  0.6018 -0.6960  0.2980
   29MOL0     N 3797   6.733   2.295   5.210  0.0040 -0.5209  0.0621
   29MOL0     C 3798   6.813   2.213   5.133  0.7695  0.3813 -0.7368
   29MOL0     C 3799   6.859   2.116   5.220  0.6532 -0.3226  0.1776
   29MOL0     C 3800   6.940   2.003   5.183  0.0884 -0.1342 -0.1845
   29MOL0     C 3801   7.095   2.013   5.180 -0.3112  0.4589 -0.1380
   29MOL0     C 3802   7.170   1.877   5.176 -0.1704  0.4923 -0.2150
   29MOL0     C 3803   7.328   1.889   5.157  0.4397  0.2011  0.1674
   29MOL0     O 3804   7.388   1.930   5.279 -0.4724  0.0255  0.2265
   29MOL0     C 3805   7.519   1.957   5.279 -0.7691  0.0938  0.6004
   29MOL0     C 3806   7.597   1.907   5.385  0.0537  0.2843  0.1829
   29MOL0     C 3807   7.739   1.922   5.386  0.9279 -0.4653 -0.6513
   29MOL0     C 3808   7.807   1.998   5.289 -0.1536  0.5861  0.6483
   29MOL0     C 3809   7.948   2.013   5.293 -0.6326  0.7148 -0.6379
   29MOL0     O 3810   8.006   1.977   5.418 -0.0595  0.5817 -0.2673
   29MOL0     C 3811   8.129   2.016   5.457  0.0651 -0.5991 -0.6010
   29MOL0     C 3812   8.192   2.133   5.424 -0.2165 -0.0454  0.0192
   29MOL0     C 3813   8.325   2.165   5.477 -0.5606 -0.2565  0.0852
   29MOL0     C 3814   8.397   2.070   5.558  0.0093 -0.1038  0.0928
   29MOL0     O 3815   8.521   2.093   5.614  0.0988  0.2257 -0.2273
   29MOL0     C 3816   8.631   2.142   5.529  1.0581 -0.2113 -0.1605
   29MOL0     C 3817   8.687   2.037   5.439  0.0002  0.4667  0.5663
   29MOL0     C 3818   8.801   2.086   5.350  1.2828  0.1418  0.1089
   29MOL0     C 3819   8.869   1.972   5.281 -0.0734  0.4768  0.4824
   29MOL0     C 3820   8.990   2.017   5.197  0.1361 -0.4283  0.4458
   29MOL0     C 3821   8.946   2.101   5.073  0.1903 -0.3168 -0.0795
   29MOL0     C 3822   8.884   2.020   4.956 -0.5413 -0.3947 -0.1032
   29MOL0     C 3823   8.732   2.049   4.954 -0.3956 -0.3328  0.0189
   29MOL0    Cl 3824   8.661   1.939   4.830  0.4917 -0.2351 -0.3756
   29MOL0     C 3825   8.325   1.951   5.586 -0.1197  0.1057  0.2811
   29MOL0     C 3826   8.192   1.922   5.541 -0.1345 -0.4639  0.1015
   29MOL0     O 3827   8.006   2.078   5.202 -0.4665 -0.7941  0.0879
   29MOL0     C 3828   7.724   2.060   5.188  0.4069 -0.0805  0.6135
   29MOL0     C 3829   7.581   2.038   5.177  0.1184  0.3111 -0.4394
   29MOL0     N 3830   6.795   2.140   5.343 -0.5288 -0.1872  0.0939
   29MOL0     N 3831   6.708   2.242   5.327 -0.0978  0.4171 -0.4017
   29MOL0     C 3832   5.626   2.676   5.583  0.0532 -0.1761  0.4115
   29MOL0     C 3833   5.491   2.690   5.574 -0.1088  0.2403 -0.3945
   29MOL0     C 3834   5.071   2.693   5.382  0.0911  0.5832 -0.1496
   29MOL0     C 3835   4.972   2.597   5.386  0.3942  0.4942 -0.6005
   29MOL0     C 3836   4.832   2.623   5.377  0.3897 -0.3414  0.4810
   29MOL0     C 3837   4.796   2.753   5.366 -0.0416 -0.6719 -0.0913
   29MOL0     O 3838   4.664   2.802   5.352 -0.1427  0.5543 -0.0392
   29MOL0     C 3839   4.549   2.716   5.352 -0.1380  0.5066  0.0547
   29MOL0     C 3840   4.432   2.801   5.398 -0.3286  0.7200 -0.1967
   29MOL0     C 3841   4.371   2.883   5.279  1.2197 -0.6442 -0.0440
   29MOL0     C 3842   4.219   2.858   5.271 -0.7226 -0.3450 -0.2779
   29MOL0     C 3843   4.157   2.914   5.152  0.3167  0.2804  0.0904
   29MOL0     C 3844   4.085   2.959   5.062 -0.0649 -0.0662 -0.3336
   29MOL0     C 3845   4.886   2.860   5.362  0.2364 -0.2328 -0.0214
   29MOL0     C 3846   5.029   2.832   5.374  0.1067 -0.2826  0.2617
   29MOL0     C 3847   5.114   2.951   5.351 -0.1192  0.3141  0.3854
   29MOL0     H 3848   5.452   2.729   5.245 -4.0080 -0.1591  2.6330
   29MOL0     H 3849   5.714   2.706   5.258 -0.4474  0.6501  0.0191
   29MOL0     H 3850   5.891   2.550   5.316  4.1631 -1.4962 -0.0808
   29MOL0     H 3851   5.917   2.734   5.319 -1.7347 -1.5618 -1.7457
   29MOL0     H 3852   6.089   2.516   5.442  1.2387  0.6822 -0.3724
   29MOL0     H 3853   6.120   2.691   5.458 -0.7191  1.7821 -1.4641
   29MOL0     H 3854   6.107   2.703   5.212  1.0133  2.8394  4.0437
   29MOL0     H 3855   6.117   2.531   5.193  1.3902 -0.4431  1.6657
   29MOL0     H 3856   6.344   2.708   5.269  0.7653 -0.3716 -1.2980
   29MOL0     H 3857   6.337   2.539   5.327  3.1126 -0.1320 -1.7251
   29MOL0     H 3858   6.286   2.471   5.077 -2.4260  1.8566 -0.5153
   29MOL0     H 3859   6.309   2.645   5.047  0.0709  0.5635 -0.5198
   29MOL0     H 3860   6.521   2.561   4.992  1.9893  0.7909  0.7709
   29MOL0     H 3861   6.532   2.646   5.150 -0.2469 -0.0850  0.8161
   29MOL0     H 3862   6.517   2.351   5.083  2.7037  0.7090 -0.1087
   29MOL0     H 3863   6.498   2.404   5.257 -0.2170 -1.4577  0.3894
   29MOL0     H 3864   6.744   2.472   5.088 -2.5483  4.2951  0.4859
   29MOL0     H 3865   6.714   2.497   5.263  1.0485 -2.3311  1.4963
   29MOL0     H 3866   6.840   2.226   5.028 -2.7058  1.7519 -1.5978
   29MOL0     H 3867   6.925   1.926   5.259 -1.4817  1.7099  1.4582
   29MOL0     H 3868   6.905   1.960   5.088 -0.7863 -2.6209  1.1606
   29MOL0     H 3869   7.123   2.073   5.092  1.6884 -1.2648 -0.7416
   29MOL0     H 3870   7.131   2.061   5.271 -0.1102 -0.7265  0.4247
   29MOL0     H 3871   7.133   1.832   5.084 -0.0700 -1.1784  0.5256
   29MOL0     H 3872   7.135   1.812   5.257 -2.3064 -0.1293 -1.5665
   29MOL0     H 3873   7.347   1.949   5.068 -2.5260 -1.7813 -1.9952
   29MOL0     H 3874   7.365   1.788   5.136  0.0738  0.3965 -1.5199
   29MOL0     H 3875   7.552   1.848   5.465  1.8494  0.3194  1.2636
   29MOL0     H 3876   7.798   1.868   5.459 -0.5864  0.3321  1.2410
   29MOL0     H 3877   8.138   2.208   5.366 -0.5293  1.1974  1.8188
   29MOL0     H 3878   8.366   2.265   5.465 -2.3013  0.3738 -1.0080
   29MOL0     H 3879   8.586   2.220   5.466  0.9417  0.0162  0.2035
   29MOL0     H 3880   8.711   2.194   5.584  0.1936  1.2132 -0.2016
   29MOL0     H 3881   8.723   1.950   5.494  0.0507  0.3334  0.3218
   29MOL0     H 3882   8.605   1.997   5.378  0.7655 -0.6297  0.2161
   29MOL0     H 3883   8.753   2.150   5.275  2.3982 -1.8493 -2.4784
   29MOL0     H 3884   8.868   2.147   5.411  1.4856  1.3586 -1.2657
   29MOL0     H 3885   8.795   1.914   5.225 -1.2987  2.3152  0.0660
   29MOL0     H 3886   8.912   1.911   5.360 -0.6985  0.7349  1.0280
   29MOL0     H 3887   9.042   1.926   5.163 -1.9953 -2.0393  1.3077
   29MOL0     H 3888   9.049   2.083   5.261  0.0086 -0.5200  0.6589
   29MOL0     H 3889   8.876   2.181   5.098 -1.1353 -1.5565  0.2973
   29MOL0     H 3890   9.035   2.151   5.033  1.7478 -1.6651  1.5982
   29MOL0     H 3891   8.908   1.913   4.965  1.0509  0.0783  2.4047
   29MOL0     H 3892   8.927   2.056   4.862 -0.0973  0.5352  0.4419
   29MOL0     H 3893   8.686   2.036   5.052 -1.3363 -0.9556 -0.4793
   29MOL0     H 3894   8.714   2.154   4.929 -2.3198 -0.6372 -0.0850
   29MOL0     H 3895   8.378   1.883   5.652  0.0325 -0.6011 -0.5589
   29MOL0     H 3896   8.144   1.826   5.555  0.9088 -0.8938  0.8703
   29MOL0     H 3897   7.778   2.103   5.105  1.0824  1.0644  1.6260
   29MOL0     H 3898   7.528   2.089   5.098 -1.3677  1.2952  1.1228
   29MOL0     H 3899   5.656   2.670   5.687 -2.0539  0.9093  1.1326
   29MOL0     H 3900   5.431   2.691   5.665 -0.4101  1.6224 -0.5840
   29MOL0     H 3901   5.005   2.494   5.400 -1.6968 -0.4613 -2.1738
   29MOL0     H 3902   4.765   2.539   5.393  1.7381 -1.5974 -0.2249
   29MOL0     H 3903   4.573   2.630   5.415  0.5973  0.6185 -0.0636
   29MOL0     H 3904   4.530   2.672   5.254  0.9189 -1.3038  0.6019
   29MOL0     H 3905   4.467   2.870   5.475  0.2018  1.0308 -0.7077
   29MOL0     H 3906   4.354   2.732   5.431  2.1612 -2.5973 -0.7878
   29MOL0     H 3907   4.414   2.867   5.179 -0.7060  1.1881 -1.2395
   29MOL0     H 3908   4.394   2.988   5.303  1.4403 -0.6454 -0.2461
   29MOL0     H 3909   4.213   2.751   5.252 -3.2256  0.0684 -2.3348
   29MOL0     H 3910   4.154   2.891   5.353 -3.2933  1.4838 -2.8614
   29MOL0     H 3911   4.030   3.009   4.986 -1.6738 -0.3606  0.5907
   29MOL0     H 3912   4.863   2.966   5.362  1.6767  0.1179  1.0767
   29MOL0     H 3913   5.167   2.958   5.255  0.0472 -1.8756  0.2647
   29MOL0     H 3914   5.052   3.040   5.362 -0.1322  0.0721  3.0130
   29MOL0     H 3915   5.185   2.963   5.434 -0.1340  0.5989  0.3587
   30MOL0     O 3916   7.612   6.876   4.144  0.5306 -0.4362 -0.0529
   30MOL0     C 3917   7.494   6.911   4.139  0.6885  0.6742 -0.2776
   30MOL0     O 3918   7.452   7.042   4.128  0.3738 -0.8334  0.6905
   30MOL0     C 3919   7.548   7.131   4.098 -0.4182 -0.6061  0.1024
   30MOL0     C 3920   7.596   7.136   3.962 -0.6689  0.8055 -0.3619
   30MOL0     C 3921   7.697   7.235   3.930  0.4393 -0.2844 -0.0476
   30MOL0     C 3922   7.746   7.326   4.025  0.3431 -0.0702  0.4487
   30MOL0     O 3923   7.838   7.414   3.970  0.5659 -0.2749 -0.1992
   30MOL0     C 3924   7.914   7.486   4.058 -0.4117 -0.9937  0.5835
   30MOL0     C 3925   8.035   7.396   4.102  0.5110  0.1000 -0.1254
   30MOL0     C 3926   8.147   7.471   4.167  0.6099  0.9557 -0.2641
   30MOL0     C 3927   8.255   7.368   4.205 -0.0877  0.0106  0.6664
   30MOL0     C 3928   8.386   7.431   4.254  0.5049  0.6418 -0.4342
   30MOL0     C 3929   8.475   7.481   4.135 -0.4529  0.8092  0.1281
   30MOL0     C 3930   8.595   7.560   4.186 -0.2451  0.0069 -0.3764
   30MOL0     C 3931   8.564   7.709   4.234 -0.0245 -0.3075  0.1811
   30MOL0     N 3932   8.690   7.782   4.229 -0.3403 -0.4896  0.2119
   30MOL0     C 3933   8.810   7.765   4.301  0.4551  0.2883  0.6541
   30MOL0     C 3934   8.902   7.841   4.241 -0.0801 -0.4719  0.5434
   30MOL0     C 3935   9.045   7.863   4.295 -0.1632 -1.0129 -0.1134
   30MOL0     C 3936   9.032   7.960   4.416 -0.5222  0.1402 -0.0742
   30MOL0     C 3937   9.029   8.108   4.365  0.2715  0.7008  0.9606
   30MOL0     C 3938   9.026   8.200   4.482 -0.0033 -0.6458 -0.3029
   30MOL0     O 3939   9.156   8.187   4.553 -0.3357  0.2901  0.1098
   30MOL0     C 3940   9.248   8.276   4.519  0.7421 -0.2180  0.3149
   30MOL0     C 3941   9.235   8.374   4.415 -0.3690 -0.1893 -0.8161
   30MOL0     C 3942   9.344   8.459   4.386 -0.0253 -0.0171 -0.7143
   30MOL0     C 3943   9.466   8.447   4.455  0.1392  0.4987 -0.4843
   30MOL0     C 3944   9.585   8.542   4.418  0.1316 -0.1314  0.1934
   30MOL0     O 3945   9.557   8.654   4.350  0.1784  0.4535 -0.4774
   30MOL0     C 3946   9.662   8.734   4.311 -1.4024 -0.4246  0.1490
   30MOL0     C 3947   9.656   8.869   4.321 -0.0768 -0.0182  0.3085
   30MOL0     C 3948   9.771   8.946   4.286 -0.0500  0.0318 -0.5171
   30MOL0     C 3949   9.887   8.878   4.235  0.5022  0.6203 -0.0972
   30MOL0     O 3950  10.000   8.937   4.183 -0.0558 -0.0807  0.7347
   30MOL0     C 3951  10.024   9.067   4.234  0.3247  0.9030  0.1488
   30MOL0     C 3952  10.167   9.111   4.209 -0.3599  0.2016 -0.3182
   30MOL0     C 3953  10.207   9.217   4.316 -0.2901  0.9144  0.2388
   30MOL0     C 3954  10.205   9.185   4.469 -1.1576  0.0151  0.5154
   30MOL0     C 3955  10.287   9.062   4.501  0.2439 -0.2687  0.6727
   30MOL0     C 3956  10.292   9.058   4.660 -0.2431 -1.4314  0.1725
   30MOL0     C 3957  10.349   8.930   4.696 -0.2220 -0.4543  0.4587
   30MOL0     C 3958  10.333   8.917   4.855  0.3185 -0.3950 -0.0979
   30MOL0    Cl 3959  10.458   9.003   4.936 -0.2632 -0.1187 -0.2448
   30MOL0     C 3960   9.877   8.739   4.205  0.3461  0.5481  0.3190
   30MOL0     C 3961   9.765   8.669   4.240 -0.6861 -0.3818  0.0393
   30MOL0     O 3962   9.696   8.504   4.450 -0.2910 -0.2221  0.4191
   30MOL0     C 3963   9.478   8.345   4.554 -0.4692  0.0037  0.6620
   30MOL0     C 3964   9.369   8.259   4.576 -0.2832  0.3392 -0.7245
   30MOL0     N 3965   8.847   7.900   4.127 -1.1191  0.2220 -0.3338
   30MOL0     N 3966   8.719   7.864   4.125 -0.3550  0.4588  0.4150
   30MOL0     C 3967   7.698   7.323   4.161 -0.3419 -0.7129 -0.2970
   30MOL0     C 3968   7.607   7.221   4.192  0.0672 -1.1021  0.2504
   30MOL0     C 3969   7.391   6.805   4.159 -0.5452 -1.4787  0.1642
   30MOL0     C 3970   7.270   6.809   4.080 -0.9813  0.1440 -0.0140
   30MOL0     C 3971   7.173   6.707   4.091  0.4622 -0.3428  0.4548
   30MOL0     C 3972   7.206   6.605   4.175  0.1766  0.0235 -1.1771
   30MOL0     O 3973   7.123   6.501   4.198  0.6008  0.3941  0.2363
   30MOL0     C 3974   6.998   6.503   4.127 -0.0939  0.0080  0.1414
   30MOL0     C 3975   6.900   6.388   4.171 -0.8343 -0.2627  0.0993
   30MOL0     C 3976   6.885   6.379   4.326 -0.1700  0.3743 -0.3302
   30MOL0     C 3977   6.750   6.297   4.357  0.2434  0.7865  0.1355
   30MOL0     C 3978   6.736   6.277   4.504  0.1013 -0.4880 -0.6238
   30MOL0     C 3979   6.745   6.265   4.624  0.6691  0.5950  0.4570
   30MOL0     C 3980   7.315   6.603   4.252 -0.2212  0.5239 -1.0891
   30MOL0     C 3981   7.410   6.703   4.258 -0.1625 -0.0750  0.8788
   30MOL0     C 3982   7.522   6.709   4.348  0.4912  0.7135 -0.3682
   30MOL0     H 3983   7.563   7.068   3.884 -0.4237 -0.6251  0.7294
   30MOL0     H 3984   7.725   7.249   3.827  1.0749  1.2342  0.3108
   30MOL0     H 3985   7.951   7.571   4.000  1.4224 -2.2092 -0.1060
   30MOL0     H 3986   7.877   7.521   4.155 -1.3254  1.6150 -0.5973
   30MOL0     H 3987   8.068   7.345   4.011 -1.0132  0.4078 -0.8900
   30MOL0     H 3988   7.987   7.331   4.176  0.0037  0.7215  0.1024
   30MOL0     H 3989   8.101   7.509   4.259 -0.0381  0.5817 -0.4285
   30MOL0     H 3990   8.192   7.549   4.105  0.5652  1.3194  0.1513
   30MOL0     H 3991   8.228   7.299   4.285  2.6253 -0.8297  0.9642
   30MOL0     H 3992   8.272   7.308   4.115  1.8564 -2.9117  2.7863
   30MOL0     H 3993   8.360   7.511   4.324 -2.0000 -2.3798  2.4345
   30MOL0     H 3994   8.442   7.361   4.317 -0.8930  0.8431  1.1149
   30MOL0     H 3995   8.514   7.393   4.083  1.2487 -0.3708  3.1389
   30MOL0     H 3996   8.412   7.538   4.067 -0.5398  1.8401  1.0422
   30MOL0     H 3997   8.661   7.559   4.099  0.4747  0.0986  0.1573
   30MOL0     H 3998   8.647   7.501   4.263 -0.4990 -0.7616 -0.7874
   30MOL0     H 3999   8.494   7.755   4.163  1.8838 -1.5570 -2.6852
   30MOL0     H 4000   8.526   7.700   4.336 -1.0287  2.1121  0.0791
   30MOL0     H 4001   8.819   7.712   4.396 -3.0825  0.0856  0.9994
   30MOL0     H 4002   9.097   7.773   4.329  1.7962 -0.6675 -1.9343
   30MOL0     H 4003   9.100   7.916   4.217  2.6253 -0.9282  1.7720
   30MOL0     H 4004   8.943   7.940   4.476  0.1126  1.7962  1.4895
   30MOL0     H 4005   9.113   7.934   4.485 -0.7636  0.5025  0.3538
   30MOL0     H 4006   8.947   8.128   4.295  0.6179  0.7061  0.5570
   30MOL0     H 4007   9.120   8.125   4.307 -0.9032  3.2916 -0.2885
   30MOL0     H 4008   8.953   8.168   4.557  0.3380  0.8103  0.7017
   30MOL0     H 4009   8.992   8.300   4.452  1.2436  1.0062  3.1665
   30MOL0     H 4010   9.149   8.390   4.351  0.5347  0.5441 -1.8862
   30MOL0     H 4011   9.328   8.541   4.317 -2.7142  1.6706  1.6662
   30MOL0     H 4012   9.563   8.907   4.360  0.5369  0.8254  0.9898
   30MOL0     H 4013   9.777   9.050   4.316  1.7314  0.4931 -2.3331
   30MOL0     H 4014   9.958   9.140   4.186 -1.1827 -0.0211  0.7543
   30MOL0     H 4015   9.993   9.077   4.339 -2.8307  0.9292 -0.6856
   30MOL0     H 4016  10.244   9.035   4.200  0.4891  1.2894 -3.3784
   30MOL0     H 4017  10.171   9.156   4.110 -0.3663  1.0078  0.0404
   30MOL0     H 4018  10.310   9.249   4.294  0.4364 -2.0842 -1.3158
   30MOL0     H 4019  10.138   9.300   4.300 -0.2610  0.4120 -3.5233
   30MOL0     H 4020  10.104   9.171   4.508 -1.4753 -0.3748 -0.4075
   30MOL0     H 4021  10.241   9.275   4.519 -0.2817 -0.1798  0.2475
   30MOL0     H 4022  10.385   9.060   4.454 -0.4946  3.9152 -1.5411
   30MOL0     H 4023  10.226   8.978   4.466  0.1907  0.8328 -2.1813
   30MOL0     H 4024  10.356   9.138   4.698 -0.5904 -1.9251  1.8743
   30MOL0     H 4025  10.192   9.080   4.699 -0.2758 -0.8058 -0.2446
   30MOL0     H 4026  10.453   8.914   4.664  0.0321  0.7306  0.6333
   30MOL0     H 4027  10.286   8.852   4.652 -0.4231  1.0835 -2.1963
   30MOL0     H 4028  10.237   8.960   4.883  1.2484  2.4358 -0.8883
   30MOL0     H 4029  10.340   8.815   4.895 -1.4363 -0.6343 -0.3208
   30MOL0     H 4030   9.957   8.687   4.154  1.6023  1.1517  1.6267
   30MOL0     H 4031   9.757   8.564   4.215  1.4605 -0.6170  0.0911
   30MOL0     H 4032   9.577   8.329   4.596 -0.2526  1.5742  0.7965
   30MOL0     H 4033   9.385   8.185   4.654  1.5254  0.7750 -0.6499
   30MOL0     H 4034   7.723   7.399   4.234 -0.4443  0.9334 -1.9082
   30MOL0     H 4035   7.559   7.225   4.290 -1.2358  0.8238 -0.4212
   30MOL0     H 4036   7.255   6.895   4.014 -2.8287  0.0462  0.2230
   30MOL0     H 4037   7.086   6.715   4.027  0.0474 -4.0808  0.3325
   30MOL0     H 4038   7.015   6.492   4.020  0.3677  0.2414  0.1928
   30MOL0     H 4039   6.944   6.595   4.151  0.8946  0.6331  0.0135
   30MOL0     H 4040   6.939   6.295   4.131  0.5301 -0.8780  2.6267
   30MOL0     H 4041   6.806   6.418   4.123  0.0826 -0.0756 -1.6431
   30MOL0     H 4042   6.884   6.484   4.358  0.9299 -0.2970  2.1230
   30MOL0     H 4043   6.968   6.319   4.363 -0.5669 -0.0379 -0.0990
   30MOL0     H 4044   6.662   6.344   4.311 -4.5488 -4.4968  2.6571
   30MOL0     H 4045   6.741   6.202   4.303  1.1047  2.0144 -2.3226
   30MOL0     H 4046   6.749   6.255   4.731  2.9338 -1.8585  0.2552
   30MOL0     H 4047   7.316   6.528   4.330  0.9016  0.3927 -1.1982
   30MOL0     H 4048   7.614   6.669   4.306  0.6535 -1.9680  2.2368
   30MOL0     H 4049   7.534   6.813   4.381 -1.8959  0.9306  0.0074
   30MOL0     H 4050   7.500   6.656   4.441 -1.4499 -0.4377 -1.4250
   31MOL0     O 4051   2.987   2.912   5.451 -0.6990  0.1247  0.6710
   31MOL0     C 4052   3.073   2.975   5.389 -0.1870 -0.3579 -0.4319
   31MOL0     O 4053   3.048   3.043   5.273  1.0089 -0.2836  0.2760
   31MOL0     C 4054   2.921   3.057   5.219 -0.2803  0.2086  0.6508
   31MOL0     C 4055   2.918   3.022   5.084 -0.4598  0.3387  0.4335
   31MOL0     C 4056   2.792   3.026   5.016  0.0633  0.5520  0.0484
   31MOL0     C 4057   2.675   3.055   5.083  0.6241  0.0724 -0.8052
   31MOL0     O 4058   2.570   3.045   4.995  0.5249 -0.2203 -0.2699
   31MOL0     C 4059   2.443   3.056   5.052 -0.4206  0.8096 -0.3282
   31MOL0     C 4060   2.390   2.928   5.116  0.6227  0.4661  0.4658
   31MOL0     C 4061   2.240   2.921   5.146 -0.7631  0.0532 -0.1845
   31MOL0     C 4062   2.206   2.771   5.193 -0.0399  0.5027 -0.2459
   31MOL0     C 4063   2.066   2.764   5.268 -0.7712 -0.4742 -0.0284
   31MOL0     C 4064   1.951   2.852   5.202 -0.1784  0.0560 -0.9928
   31MOL0     C 4065   1.913   2.816   5.052  0.1861  0.7419 -0.9600
   31MOL0     C 4066   1.854   2.676   5.037  0.1561 -0.3888 -0.1839
   31MOL0     N 4067   1.732   2.674   5.126  0.8459  0.3826  0.1665
   31MOL0     C 4068   1.615   2.747   5.121 -0.0016 -0.4538  0.5025
   31MOL0     C 4069   1.535   2.689   5.213 -0.2985  0.6691 -0.1799
   31MOL0     C 4070   1.402   2.743   5.249  0.8334 -1.0481 -1.1641
   31MOL0     C 4071   1.303   2.677   5.153  0.1260  0.9783 -0.1417
   31MOL0     C 4072   1.291   2.726   5.010  0.3109  0.3391 -0.9692
   31MOL0     C 4073   1.210   2.629   4.918 -0.0560 -0.9912  0.6039
   31MOL0     O 4074   1.186   2.685   4.788  0.0213  0.0640  0.0238
   31MOL0     C 4075   1.285   2.711   4.701 -0.5372  0.1701 -0.4713
   31MOL0     C 4076   1.253   2.777   4.585  0.4220 -0.5535 -0.4845
   31MOL0     C 4077   1.352   2.810   4.493  0.7314  0.0615 -0.7855
   31MOL0     C 4078   1.486   2.756   4.507 -0.5276  1.1924  0.7558
   31MOL0     C 4079   1.583   2.795   4.400  0.5842  0.1240 -0.3919
   31MOL0     O 4080   1.688   2.707   4.388 -0.0105 -0.3942 -0.4667
   31MOL0     C 4081   1.780   2.728   4.293  0.2130 -0.3876  0.6944
   31MOL0     C 4082   1.802   2.626   4.202 -0.3489 -0.6579 -0.1207
   31MOL0     C 4083   1.908   2.631   4.103 -0.5101 -0.7319  0.4659
   31MOL0     C 4084   1.957   2.759   4.068 -0.0219 -0.8900  0.8992
   31MOL0     O 4085   2.031   2.791   3.959 -0.0268 -0.4356  0.3708
   31MOL0     C 4086   2.023   2.704   3.848  0.2402  0.2261 -0.8436
   31MOL0     C 4087   2.106   2.734   3.721  0.3799 -0.2708 -0.3261
   31MOL0     C 4088   2.247   2.741   3.753  0.1530 -1.0592 -0.1849
   31MOL0     C 4089   2.332   2.768   3.640  0.4134  0.2955  0.2562
   31MOL0     C 4090   2.477   2.781   3.673 -0.4232  0.2758  0.1067
   31MOL0     C 4091   2.575   2.811   3.554  0.2506 -0.0862 -0.5258
   31MOL0     C 4092   2.578   2.694   3.457  0.2915  0.3133  0.1313
   31MOL0     C 4093   2.690   2.726   3.357 -0.2550  0.0093 -0.1949
   31MOL0    Cl 4094   2.708   2.590   3.249  0.1723 -0.5400  0.2715
   31MOL0     C 4095   1.936   2.856   4.163  0.4552  0.0127 -0.7109
   31MOL0     C 4096   1.853   2.851   4.277 -0.2670  0.2597  0.5589
   31MOL0     O 4097   1.556   2.888   4.327  0.7449 -0.3571  0.7089
   31MOL0     C 4098   1.513   2.669   4.618 -0.0687 -0.9934  0.6017
   31MOL0     C 4099   1.417   2.659   4.714  1.1463  0.4864 -0.8166
   31MOL0     N 4100   1.601   2.583   5.270  0.0487 -0.3019  0.7147
   31MOL0     N 4101   1.718   2.569   5.209 -0.0866 -0.5637  0.4414
   31MOL0     C 4102   2.679   3.085   5.222 -0.5958  0.3560  0.9872
   31MOL0     C 4103   2.806   3.077   5.290  0.2645 -0.0967 -0.1786
   31MOL0     C 4104   3.215   2.969   5.427  0.2012  0.0417 -0.3003
   31MOL0     C 4105   3.302   2.994   5.320 -0.5645 -0.0117  0.2709
   31MOL0     C 4106   3.436   3.009   5.347  0.4689 -0.3983 -0.0774
   31MOL0     C 4107   3.489   3.001   5.480 -0.6554  0.3736  0.0898
   31MOL0     O 4108   3.627   2.997   5.501 -0.4067 -0.2035  0.2256
   31MOL0     C 4109   3.714   2.937   5.401  0.4384  0.2484  0.3244
   31MOL0     C 4110   3.860   2.930   5.439  0.2133  0.0715  0.1594
   31MOL0     C 4111   3.884   2.858   5.580 -0.4901  1.3185  0.0205
   31MOL0     C 4112   3.873   2.958   5.693 -0.4424 -0.9552  0.4315
   31MOL0     C 4113   3.862   2.892   5.828 -0.1791 -0.2374 -0.3537
   31MOL0     C 4114   3.867   2.837   5.936 -0.1622  0.4742  0.5791
   31MOL0     C 4115   3.402   2.986   5.581 -0.1767  0.8376  0.2750
   31MOL0     C 4116   3.264   2.974   5.562  0.2222  0.0574 -0.3616
   31MOL0     C 4117   3.166   2.940   5.677 -0.2972 -0.5074  0.0592
   31MOL0     H 4118   3.003   2.995   5.022  0.8767  0.9783  1.9174
   31MOL0     H 4119   2.784   2.996   4.912 -1.8303 -0.8100  0.5477
   31MOL0     H 4120   2.440   3.136   5.126  2.4984 -0.3182  1.2001
   31MOL0     H 4121   2.367   3.077   4.976 -0.6114 -2.0097 -1.0170
   31MOL0     H 4122   2.441   2.918   5.212  0.8844 -1.2588  0.1931
   31MOL0     H 4123   2.415   2.845   5.049  2.7764  1.5995 -0.2185
   31MOL0     H 4124   2.182   2.957   5.061  0.0010 -0.2076 -0.8273
   31MOL0     H 4125   2.237   2.996   5.225  0.1905  0.3787 -0.4461
   31MOL0     H 4126   2.199   2.706   5.105 -3.2812  1.3481 -0.7717
   31MOL0     H 4127   2.280   2.729   5.260 -1.2166 -1.6421 -0.2244
   31MOL0     H 4128   2.032   2.660   5.274 -1.5213 -0.1665  1.9861
   31MOL0     H 4129   2.081   2.797   5.371 -0.3244  0.1708 -0.2983
   31MOL0     H 4130   1.862   2.851   5.266  1.1754 -0.5269  0.9421
   31MOL0     H 4131   1.984   2.955   5.186 -0.0456 -0.3864 -4.2616
   31MOL0     H 4132   2.010   2.822   5.001  1.3359 -0.9320  0.8334
   31MOL0     H 4133   1.850   2.890   5.003  1.4883  1.1381 -2.1040
   31MOL0     H 4134   1.815   2.675   4.935 -1.0212  1.4084  0.2171
   31MOL0     H 4135   1.927   2.594   5.041  1.2482  0.4048 -2.4823
   31MOL0     H 4136   1.595   2.832   5.056  0.2154  0.6552  1.8341
   31MOL0     H 4137   1.380   2.723   5.354  1.8616 -1.9426 -1.0998
   31MOL0     H 4138   1.389   2.851   5.239 -0.2727 -0.8000  1.9918
   31MOL0     H 4139   1.310   2.568   5.141 -2.5163  0.9655 -2.7908
   31MOL0     H 4140   1.202   2.688   5.193 -0.0915 -0.6922 -0.1501
   31MOL0     H 4141   1.386   2.747   4.960 -0.3563  3.0380 -1.2702
   31MOL0     H 4142   1.230   2.816   5.017 -1.2328 -0.7790  4.1894
   31MOL0     H 4143   1.112   2.616   4.966 -0.0163 -0.1128  0.9343
   31MOL0     H 4144   1.250   2.528   4.901 -0.6798 -0.8978 -1.7052
   31MOL0     H 4145   1.155   2.819   4.562  1.3775  1.8674 -0.4536
   31MOL0     H 4146   1.332   2.859   4.398 -2.1829  0.4130 -0.0933
   31MOL0     H 4147   1.751   2.533   4.225 -0.7137 -0.3560  0.3019
   31MOL0     H 4148   1.924   2.545   4.039  3.5455 -1.2049  1.8125
   31MOL0     H 4149   2.047   2.603   3.884  0.3533 -0.6480 -3.1822
   31MOL0     H 4150   1.918   2.698   3.818 -0.5714 -0.8777  1.9243
   31MOL0     H 4151   2.093   2.659   3.642  1.0782 -1.3727  0.5786
   31MOL0     H 4152   2.069   2.831   3.686  0.4178 -0.0248  0.3041
   31MOL0     H 4153   2.247   2.821   3.827  0.3826 -1.4476  0.2437
   31MOL0     H 4154   2.278   2.647   3.801  0.3393 -0.4140  0.9962
   31MOL0     H 4155   2.297   2.841   3.567 -0.1630 -1.3760 -1.2408
   31MOL0     H 4156   2.326   2.675   3.581  3.0733  0.0906  0.2031
   31MOL0     H 4157   2.522   2.701   3.733 -3.1995 -1.4819  0.0040
   31MOL0     H 4158   2.488   2.866   3.741 -0.8690  1.0359 -0.7482
   31MOL0     H 4159   2.542   2.905   3.509 -1.4043 -0.3172  0.1080
   31MOL0     H 4160   2.674   2.837   3.590  0.2531  0.1973 -0.7331
   31MOL0     H 4161   2.478   2.680   3.415 -0.8022 -0.5056  2.7951
   31MOL0     H 4162   2.602   2.596   3.500  1.6108  0.4153 -0.3233
   31MOL0     H 4163   2.694   2.817   3.296  1.1440  0.4506  0.5052
   31MOL0     H 4164   2.785   2.732   3.411 -0.5088  0.4008  0.2224
   31MOL0     H 4165   1.977   2.955   4.144 -1.0233  0.0438 -4.4846
   31MOL0     H 4166   1.843   2.943   4.333  0.9974 -0.3112  1.7879
   31MOL0     H 4167   1.604   2.610   4.628 -0.4829 -1.5714  1.0686
   31MOL0     H 4168   1.455   2.605   4.800  1.1145 -0.3677 -1.3303
   31MOL0     H 4169   2.585   3.113   5.269 -0.0178  0.7912  1.9125
   31MOL0     H 4170   2.810   3.093   5.397  0.5667 -0.8728 -0.0709
   31MOL0     H 4171   3.273   2.997   5.215  1.4895 -0.1732 -0.3480
   31MOL0     H 4172   3.498   3.030   5.261 -1.4803  0.8991 -1.2613
   31MOL0     H 4173   3.715   2.997   5.309  0.3870  1.6206  1.1897
   31MOL0     H 4174   3.675   2.839   5.373 -0.8349  1.2326 -1.5928
   31MOL0     H 4175   3.895   3.033   5.443 -2.0031  0.9345 -1.0225
   31MOL0     H 4176   3.918   2.879   5.361  0.0769 -1.3885  0.9614
   31MOL0     H 4177   3.984   2.815   5.572 -1.3485 -0.4894 -2.3224
   31MOL0     H 4178   3.815   2.774   5.594 -0.2529  0.9114 -1.1325
   31MOL0     H 4179   3.960   3.024   5.691 -0.2160 -1.2626 -0.7998
   31MOL0     H 4180   3.783   3.018   5.686 -0.5004 -1.0091  0.7118
   31MOL0     H 4181   3.867   2.797   6.035 -0.3522  1.0915  0.8298
   31MOL0     H 4182   3.432   2.965   5.684  0.9968  1.4836  0.0740
   31MOL0     H 4183   3.140   2.834   5.667  3.1568 -1.2620 -2.8162
   31MOL0     H 4184   3.212   2.968   5.773  0.0495  2.3613 -0.8755
   31MOL0     H 4185   3.076   3.001   5.678  1.2706  2.1332 -3.1645
   32MOL0     O 4186   1.278   6.141   5.823 -0.1890  0.2259 -0.2979
   32MOL0     C 4187   1.250   6.044   5.759  0.2779  0.2623 -0.0148
   32MOL0     O 4188   1.338   5.938   5.730  0.0095  0.2786 -0.2387
   32MOL0     C 4189   1.457   5.931   5.794 -0.1368  0.5278  0.2554
   32MOL0     C 4190   1.463   5.888   5.922  0.5344 -0.3217 -0.7679
   32MOL0     C 4191   1.588   5.899   5.994 -0.2222 -0.1493  0.3487
   32MOL0     C 4192   1.701   5.952   5.925  0.5274  0.0453  1.1395
   32MOL0     O 4193   1.827   5.973   5.983  0.6781  0.2346 -0.6209
   32MOL0     C 4194   1.863   5.934   6.115  0.6935 -0.4716 -0.2927
   32MOL0     C 4195   1.997   6.000   6.159 -0.0131 -1.1161  0.6886
   32MOL0     C 4196   2.119   5.961   6.076 -0.6108  0.4629 -0.6876
   32MOL0     C 4197   2.152   5.809   6.106  0.2425 -0.1778 -0.0789
   32MOL0     C 4198   2.276   5.755   6.032  0.0237 -0.7526  0.4291
   32MOL0     C 4199   2.309   5.616   6.079  0.2733  0.0915  0.3539
   32MOL0     C 4200   2.430   5.532   6.017  1.1676 -0.2499 -0.1857
   32MOL0     C 4201   2.402   5.492   5.872 -0.0596 -0.2242  0.8398
   32MOL0     N 4202   2.519   5.425   5.826 -1.4871  0.0958  0.9413
   32MOL0     C 4203   2.575   5.321   5.894  0.2148  0.7051  0.3704
   32MOL0     C 4204   2.678   5.276   5.821  0.4594 -0.2974 -0.1962
   32MOL0     C 4205   2.768   5.168   5.853 -0.9292 -0.1752 -0.3807
   32MOL0     C 4206   2.907   5.196   5.792  0.4647  1.0834 -0.6591
   32MOL0     C 4207   3.002   5.267   5.898  0.6863  0.0668  0.8064
   32MOL0     C 4208   2.967   5.417   5.907 -0.5244 -0.1678 -1.1055
   32MOL0     O 4209   2.983   5.471   5.769  0.3082 -0.2129  0.1087
   32MOL0     C 4210   3.112   5.510   5.719  0.5765  0.0407 -0.6260
   32MOL0     C 4211   3.233   5.503   5.794  0.1481  0.2690  0.1706
   32MOL0     C 4212   3.350   5.544   5.750 -0.3979 -1.1560 -0.2563
   32MOL0     C 4213   3.359   5.594   5.616 -0.7375  0.2396  1.0867
   32MOL0     C 4214   3.495   5.609   5.548  0.2545  0.1752 -0.7768
   32MOL0     O 4215   3.503   5.673   5.423  0.4390 -0.1472  0.2079
   32MOL0     C 4216   3.615   5.670   5.341  0.2496 -0.4051  0.0202
   32MOL0     C 4217   3.652   5.791   5.270 -0.1836 -0.2914 -1.1033
   32MOL0     C 4218   3.779   5.800   5.207  0.9667 -0.2709  0.2243
   32MOL0     C 4219   3.872   5.694   5.212  0.5950 -0.0711  0.0271
   32MOL0     O 4220   4.001   5.704   5.160 -0.3320 -0.1119  0.0814
   32MOL0     C 4221   4.056   5.829   5.143  0.2152  0.0513  0.2459
   32MOL0     C 4222   4.186   5.821   5.070 -1.2672  0.3817 -0.3763
   32MOL0     C 4223   4.295   5.755   5.153 -0.3878  0.1378 -0.2531
   32MOL0     C 4224   4.433   5.756   5.105  0.3639  0.9967  1.0118
   32MOL0     C 4225   4.540   5.667   5.186  0.0488 -0.2261 -0.1857
   32MOL0     C 4226   4.515   5.518   5.162  0.0676  0.3472 -0.6043
   32MOL0     C 4227   4.643   5.446   5.211  0.7669  0.2978  0.5237
   32MOL0     C 4228   4.612   5.300   5.205  0.2413 -0.8652  0.0895
   32MOL0    Cl 4229   4.766   5.220   5.244 -0.4604 -0.1171 -0.5590
   32MOL0     C 4230   3.824   5.575   5.264 -0.1588  0.4814  0.9811
   32MOL0     C 4231   3.700   5.564   5.333  0.1396 -0.1935 -0.3875
   32MOL0     O 4232   3.594   5.570   5.616 -0.4945  0.4540  0.1572
   32MOL0     C 4233   3.243   5.607   5.534 -0.1511  0.5349  0.0440
   32MOL0     C 4234   3.121   5.582   5.600  0.4144 -0.0287 -0.2253
   32MOL0     N 4235   2.666   5.344   5.704 -0.5745 -0.3761 -0.4124
   32MOL0     N 4236   2.577   5.435   5.707 -0.1553  0.1032  0.1913
   32MOL0     C 4237   1.685   5.995   5.795 -0.0538  0.2656 -0.1956
   32MOL0     C 4238   1.566   5.983   5.733 -0.5492 -0.1112 -0.0251
   32MOL0     C 4239   1.109   6.030   5.721 -0.3836 -0.1321 -0.3104
   32MOL0     C 4240   1.015   6.028   5.824 -0.0995 -0.2934 -0.2846
   32MOL0     C 4241   0.880   6.013   5.804  0.9265 -0.5060  0.6596
   32MOL0     C 4242   0.836   6.007   5.674  0.5909 -0.7707  0.4582
   32MOL0     O 4243   0.712   6.015   5.630 -0.1121 -0.4149 -0.8257
   32MOL0     C 4244   0.614   6.056   5.723  0.8870 -0.4698 -0.5417
   32MOL0     C 4245   0.494   6.094   5.641  0.5996  0.1301 -0.3430
   32MOL0     C 4246   0.380   6.135   5.722  0.1800  0.4734 -1.1016
   32MOL0     C 4247   0.310   6.020   5.803 -0.0387  0.3430  1.5110
   32MOL0     C 4248   0.361   6.004   5.936 -0.5921 -0.4796 -0.4950
   32MOL0     C 4249   0.409   6.005   6.044 -0.1137 -0.1188 -0.5908
   32MOL0     C 4250   0.922   5.998   5.566 -0.4925  0.2632  0.9672
   32MOL0     C 4251   1.065   6.008   5.589  0.9697  0.3104  0.0999
   32MOL0     C 4252   1.160   6.012   5.466 -0.6653 -0.2610 -0.5564
   32MOL0     H 4253   1.375   5.856   5.978  2.3003  0.7125  2.8905
   32MOL0     H 4254   1.595   5.868   6.098 -0.6237 -0.6663  0.2302
   32MOL0     H 4255   1.778   5.957   6.180  1.8721  1.0430  0.7972
   32MOL0     H 4256   1.877   5.826   6.111 -0.5609 -0.6656  0.0538
   32MOL0     H 4257   2.022   5.982   6.264  2.3368 -0.8494  0.2243
   32MOL0     H 4258   1.980   6.108   6.154  1.3772 -0.8933  0.2561
   32MOL0     H 4259   2.208   6.018   6.104 -0.5840 -0.3990  1.1566
   32MOL0     H 4260   2.095   5.973   5.970  0.1660  0.4327 -0.8729
   32MOL0     H 4261   2.163   5.799   6.214  2.7780 -0.1311 -0.2761
   32MOL0     H 4262   2.066   5.747   6.080 -1.6062  1.2912  2.1507
   32MOL0     H 4263   2.259   5.754   5.924  2.0115 -1.1012  0.0784
   32MOL0     H 4264   2.356   5.828   6.042 -1.8625  1.2929  1.4856
   32MOL0     H 4265   2.322   5.630   6.186 -0.6917 -1.1492  0.6474
   32MOL0     H 4266   2.217   5.558   6.073  1.4609 -2.0127  1.1956
   32MOL0     H 4267   2.445   5.448   6.084  0.8348 -0.2681 -0.1347
   32MOL0     H 4268   2.517   5.599   6.012 -0.6979  2.2867 -0.9998
   32MOL0     H 4269   2.315   5.425   5.867  0.2401 -0.5867  0.4396
   32MOL0     H 4270   2.379   5.580   5.811  0.2276 -1.1684 -0.6820
   32MOL0     H 4271   2.544   5.281   5.990  1.4228 -0.1728  0.4075
   32MOL0     H 4272   2.774   5.166   5.962  1.8539 -0.6808 -0.4629
   32MOL0     H 4273   2.726   5.074   5.818 -0.6169 -0.1013 -0.9616
   32MOL0     H 4274   2.944   5.095   5.771 -1.8062 -0.0275  0.3746
   32MOL0     H 4275   2.909   5.247   5.695 -1.2537 -0.5724 -1.6259
   32MOL0     H 4276   3.105   5.250   5.868  1.0991  2.1272  0.9303
   32MOL0     H 4277   2.993   5.228   6.000  1.2258  0.3809  0.9749
   32MOL0     H 4278   3.030   5.471   5.979  1.9929 -1.3800 -2.2737
   32MOL0     H 4279   2.864   5.429   5.941 -0.3812 -1.1852 -0.2970
   32MOL0     H 4280   3.231   5.462   5.895 -0.5425  1.9868  0.9064
   32MOL0     H 4281   3.440   5.533   5.811  0.3055 -0.6923 -1.1768
   32MOL0     H 4282   3.591   5.880   5.274  1.3694  0.7855 -0.1890
   32MOL0     H 4283   3.794   5.898   5.163 -1.1124  1.4843  3.0678
   32MOL0     H 4284   3.992   5.877   5.068  0.8878 -3.7119 -3.0563
   32MOL0     H 4285   4.082   5.881   5.236  0.7445 -2.4929  1.6276
   32MOL0     H 4286   4.171   5.778   4.971  0.0911  0.2756 -0.5593
   32MOL0     H 4287   4.210   5.926   5.051 -2.6633  0.7258 -0.3508
   32MOL0     H 4288   4.304   5.809   5.247  2.7639  0.3175 -0.5272
   32MOL0     H 4289   4.263   5.653   5.178 -1.5295  0.6433  0.4284
   32MOL0     H 4290   4.469   5.859   5.117 -0.2958  1.1779  1.4976
   32MOL0     H 4291   4.431   5.730   4.999 -1.0238  1.4796  0.8958
   32MOL0     H 4292   4.549   5.693   5.292  1.0257 -0.1404 -0.2743
   32MOL0     H 4293   4.637   5.684   5.138  0.2035 -0.1159  0.1673
   32MOL0     H 4294   4.431   5.492   5.227 -0.4307  1.7527 -0.6466
   32MOL0     H 4295   4.494   5.487   5.060 -1.1388 -1.7672  0.2094
   32MOL0     H 4296   4.663   5.464   5.317 -0.8660 -2.5054  1.3891
   32MOL0     H 4297   4.732   5.477   5.154  1.3407 -0.5043  0.9519
   32MOL0     H 4298   4.533   5.279   5.278  0.0172  1.2345  0.5376
   32MOL0     H 4299   4.580   5.281   5.102  0.6664  1.3129 -0.5049
   32MOL0     H 4300   3.891   5.492   5.246  0.3967  1.1619 -0.2418
   32MOL0     H 4301   3.664   5.468   5.370 -1.4872 -0.2720 -2.0007
   32MOL0     H 4302   3.257   5.648   5.434  0.5769 -0.0686 -0.1191
   32MOL0     H 4303   3.034   5.599   5.538  1.0614 -0.3301 -1.2467
   32MOL0     H 4304   1.773   6.034   5.745 -0.2790  2.0359  0.6877
   32MOL0     H 4305   1.566   6.009   5.627  0.5569 -1.7356 -0.4506
   32MOL0     H 4306   1.060   6.034   5.922 -1.5807  1.1236  0.3496
   32MOL0     H 4307   0.806   6.015   5.884 -0.0788 -2.7615 -0.1308
   32MOL0     H 4308   0.649   6.141   5.782  2.4952 -1.5570  0.1290
   32MOL0     H 4309   0.572   5.968   5.774 -1.0662 -0.6571 -2.3222
   32MOL0     H 4310   0.456   6.027   5.564  1.8701 -2.2698  1.0158
   32MOL0     H 4311   0.525   6.177   5.576  0.9235 -0.9167 -1.5740
   32MOL0     H 4312   0.315   6.190   5.654  1.4079  2.3594 -0.8544
   32MOL0     H 4313   0.415   6.214   5.790  2.6110 -1.1101 -0.3757
   32MOL0     H 4314   0.210   6.064   5.815 -1.1326 -0.4354 -2.9710
   32MOL0     H 4315   0.304   5.928   5.744  1.7105 -0.3029  2.2676
   32MOL0     H 4316   0.452   6.002   6.142  3.0413  0.0722 -1.8660
   32MOL0     H 4317   0.870   5.976   5.474 -0.5016 -1.9760  1.4286
   32MOL0     H 4318   1.266   6.024   5.489 -0.6395  3.5190 -1.9309
   32MOL0     H 4319   1.147   5.921   5.408  0.2928 -0.4827 -0.4312
   32MOL0     H 4320   1.133   6.097   5.402  1.4597  0.7372 -0.1940
   33MOL0     O 4321   3.068  10.436   2.692  0.4841  0.5048  0.2590
   33MOL0     C 4322   3.045  10.455   2.572 -0.6089  1.0205 -0.2235
   33MOL0     O 4323   3.138  10.496   2.483  0.0767  0.7086 -0.1373
   33MOL0     C 4324   3.269  10.515   2.516 -0.0132  0.4480  0.1446
   33MOL0     C 4325   3.310  10.638   2.469  0.3754 -0.5439  0.6164
   33MOL0     C 4326   3.446  10.670   2.493  0.0182 -0.0702  0.1138
   33MOL0     C 4327   3.533  10.581   2.557  0.5637  0.1840 -0.3904
   33MOL0     O 4328   3.664  10.619   2.583  0.1934 -0.1342  0.0435
   33MOL0     C 4329   3.770  10.538   2.527 -1.3977  0.3685  0.0270
   33MOL0     C 4330   3.773  10.555   2.372 -0.1077  0.0009  0.9933
   33MOL0     C 4331   3.792  10.702   2.325  0.3053 -0.0536  0.5255
   33MOL0     C 4332   3.892  10.788   2.404  0.1309  0.0202  0.1495
   33MOL0     C 4333   4.030  10.739   2.393 -0.1139 -0.0275 -0.2330
   33MOL0     C 4334   4.117  10.811   2.507  0.6129  0.0437  0.8971
   33MOL0     C 4335   4.267  10.796   2.481  0.4009  0.7273  0.3714
   33MOL0     C 4336   4.326  10.657   2.494  0.3150 -0.1950 -0.1858
   33MOL0     N 4337   4.303  10.577   2.370 -0.5929 -0.2405 -0.7455
   33MOL0     C 4338   4.368  10.599   2.254 -0.1070  0.1588  0.2916
   33MOL0     C 4339   4.335  10.488   2.175 -0.2884 -0.7664 -0.2851
   33MOL0     C 4340   4.387  10.469   2.038 -0.2264 -0.0974 -0.5695
   33MOL0     C 4341   4.527  10.408   2.033  1.6257 -0.3750 -0.0575
   33MOL0     C 4342   4.529  10.258   2.077 -0.9620 -0.1475  0.2020
   33MOL0     C 4343   4.675  10.194   2.091  0.3328 -0.1074  0.1819
   33MOL0     O 4344   4.735  10.238   2.210 -0.5547  0.3043  0.4211
   33MOL0     C 4345   4.851  10.187   2.265 -0.2135 -0.3794  0.5248
   33MOL0     C 4346   4.925  10.255   2.368  1.0444 -0.0495 -0.3525
   33MOL0     C 4347   5.054  10.215   2.410 -0.6971  0.3956  0.0739
   33MOL0     C 4348   5.116  10.104   2.339 -0.1247  0.0046  0.0539
   33MOL0     C 4349   5.247  10.054   2.380  0.0296 -0.2960  0.8602
   33MOL0     O 4350   5.309  10.129   2.479 -0.2130  0.0117 -0.4836
   33MOL0     C 4351   5.438  10.114   2.520 -0.6500  0.3545 -0.3468
   33MOL0     C 4352   5.508  10.228   2.543  0.0217 -0.0200 -0.6285
   33MOL0     C 4353   5.648  10.223   2.579 -0.7040  0.3174 -0.6215
   33MOL0     C 4354   5.712  10.099   2.580  0.0749 -1.2313  0.9269
   33MOL0     O 4355   5.848  10.115   2.602 -0.0891 -0.0867 -0.2582
   33MOL0     C 4356   5.936  10.029   2.532 -0.1464 -0.2077 -0.2528
   33MOL0     C 4357   6.074  10.075   2.584  0.2262  0.8198  0.7483
   33MOL0     C 4358   6.188  10.015   2.501 -0.4772  0.2877  0.5998
   33MOL0     C 4359   6.318  10.025   2.575 -0.1652  0.3543  0.1791
   33MOL0     C 4360   6.442   9.957   2.506 -0.6614 -0.2357  0.1565
   33MOL0     C 4361   6.566   9.955   2.591 -0.2695  1.0541 -0.6404
   33MOL0     C 4362   6.667   9.862   2.539 -0.0057 -0.3054 -0.3189
   33MOL0     C 4363   6.810   9.921   2.567  0.6281  0.1011 -0.1247
   33MOL0    Cl 4364   6.835   9.930   2.743 -0.2594 -0.5514 -0.2438
   33MOL0     C 4365   5.645   9.980   2.547 -1.2687 -0.5417  0.3746
   33MOL0     C 4366   5.509   9.989   2.525  0.1132 -0.5566 -0.4461
   33MOL0     O 4367   5.290   9.952   2.324  0.3767 -0.1984  0.1548
   33MOL0     C 4368   5.043  10.042   2.242  0.1477  0.9626  0.2743
   33MOL0     C 4369   4.912  10.079   2.206 -0.5456 -0.2458  0.3498
   33MOL0     N 4370   4.270  10.390   2.254 -0.6924  0.1878  0.4421
   33MOL0     N 4371   4.239  10.458   2.361  0.5676 -0.4295 -1.2211
   33MOL0     C 4372   3.484  10.451   2.595  0.5919 -0.8865  0.1029
   33MOL0     C 4373   3.353  10.422   2.575  0.1987 -0.2046 -0.6144
   33MOL0     C 4374   2.901  10.426   2.535 -0.7073 -0.2200  0.0894
   33MOL0     C 4375   2.813  10.508   2.612  0.2597  0.7688  0.4704
   33MOL0     C 4376   2.678  10.519   2.577  0.1944  0.8404  0.5071
   33MOL0     C 4377   2.625  10.439   2.468 -0.0346 -0.3639  0.4366
   33MOL0     O 4378   2.493  10.432   2.421 -0.8868  0.3154 -0.5776
   33MOL0     C 4379   2.398  10.504   2.486  0.2152 -1.0729 -0.0878
   33MOL0     C 4380   2.260  10.476   2.425 -0.1137  0.6815 -0.5108
   33MOL0     C 4381   2.237  10.519   2.277  1.0838 -0.0789  0.3781
   33MOL0     C 4382   2.101  10.593   2.273 -0.2125  0.8095  0.5790
   33MOL0     C 4383   1.988  10.499   2.279  0.6932 -0.8623 -1.0595
   33MOL0     C 4384   1.892  10.426   2.276  0.4747  0.0870 -0.0780
   33MOL0     C 4385   2.712  10.352   2.406 -0.7463  0.2036 -0.1453
   33MOL0     C 4386   2.849  10.345   2.435  0.2436 -0.2423  0.3815
   33MOL0     C 4387   2.941  10.254   2.360  0.2795  0.1574  0.7275
   33MOL0     H 4388   3.242  10.697   2.408 -0.5370 -2.1301  0.0415
   33MOL0     H 4389   3.487  10.764   2.458  0.5074 -0.6606 -0.9806
   33MOL0     H 4390   3.866  10.567   2.570 -1.7313  3.8220 -1.2052
   33MOL0     H 4391   3.765  10.432   2.551 -1.5341  0.9010  2.6659
   33MOL0     H 4392   3.683  10.514   2.327  1.4446 -1.6966 -0.7118
   33MOL0     H 4393   3.849  10.490   2.329 -0.1319  0.9301 -0.4997
   33MOL0     H 4394   3.692  10.746   2.329  0.1843 -0.2388 -0.2950
   33MOL0     H 4395   3.813  10.706   2.218 -0.6151  1.2466  0.3709
   33MOL0     H 4396   3.883  10.887   2.358  3.8128 -1.3393 -4.1533
   33MOL0     H 4397   3.854  10.793   2.506  0.7127 -1.0827  0.4311
   33MOL0     H 4398   4.042  10.631   2.404  1.7840  0.3154  1.9110
   33MOL0     H 4399   4.087  10.774   2.307  2.4817  0.7993  1.6992
   33MOL0     H 4400   4.096  10.919   2.506 -0.2623 -0.1001  1.8971
   33MOL0     H 4401   4.084  10.772   2.604 -1.9351 -1.5479 -0.5103
   33MOL0     H 4402   4.306  10.867   2.555 -2.5736  0.4338  2.4394
   33MOL0     H 4403   4.289  10.839   2.383 -0.8043  0.2126 -0.1489
   33MOL0     H 4404   4.433  10.682   2.497  0.1720  0.3921  0.2435
   33MOL0     H 4405   4.299  10.611   2.590  2.7533 -1.9275 -0.2440
   33MOL0     H 4406   4.445  10.674   2.238  0.4353  0.0163  2.0101
   33MOL0     H 4407   4.322  10.394   1.993  1.2604 -1.1010 -1.1189
   33MOL0     H 4408   4.383  10.556   1.972  1.4047 -0.3159 -1.0072
   33MOL0     H 4409   4.560  10.405   1.928  0.7490 -0.9076 -0.3304
   33MOL0     H 4410   4.603  10.467   2.084  1.5646 -0.0385 -0.3565
   33MOL0     H 4411   4.471  10.196   2.008 -2.7823  3.1133 -1.4465
   33MOL0     H 4412   4.473  10.246   2.171  0.4594  0.8408  1.2150
   33MOL0     H 4413   4.741  10.214   2.006 -1.2369  0.3864 -0.9928
   33MOL0     H 4414   4.667  10.085   2.087  3.4327 -0.4215  0.5814
   33MOL0     H 4415   4.876  10.338   2.418  0.8645  0.4751 -1.3819
   33MOL0     H 4416   5.110  10.261   2.490 -1.0165 -0.6561  0.9330
   33MOL0     H 4417   5.458  10.325   2.543  1.6509  0.8516 -0.6209
   33MOL0     H 4418   5.698  10.317   2.596 -0.7447  0.4402 -1.1656
   33MOL0     H 4419   5.920   9.926   2.566 -2.0507 -0.5466 -1.9450
   33MOL0     H 4420   5.926  10.041   2.423 -0.3872  1.3662 -0.0802
   33MOL0     H 4421   6.077  10.183   2.568  1.4980  0.7348  0.3614
   33MOL0     H 4422   6.081  10.056   2.692  2.1177 -1.4704  0.2947
   33MOL0     H 4423   6.175   9.909   2.479 -0.2322  1.0089 -3.8665
   33MOL0     H 4424   6.188  10.068   2.406 -0.4438 -0.7280  0.0269
   33MOL0     H 4425   6.319   9.981   2.676  1.9750 -0.3825 -0.1197
   33MOL0     H 4426   6.343  10.131   2.585  0.5831  0.0186  2.9043
   33MOL0     H 4427   6.472  10.016   2.418 -0.6104 -0.0540  0.2953
   33MOL0     H 4428   6.429   9.852   2.476 -1.4693  0.5352 -2.5098
   33MOL0     H 4429   6.612  10.054   2.596  1.4992  0.3687 -2.4081
   33MOL0     H 4430   6.547   9.926   2.695  0.7348  0.2593 -0.6634
   33MOL0     H 4431   6.653   9.839   2.433  1.3132 -1.0023 -0.3597
   33MOL0     H 4432   6.657   9.764   2.587  2.1845 -0.3968  0.0211
   33MOL0     H 4433   6.879   9.843   2.532 -1.8561 -1.3667 -2.1740
   33MOL0     H 4434   6.818  10.014   2.510 -1.1880  0.5803  0.3444
   33MOL0     H 4435   5.696   9.884   2.546 -1.6725 -0.7548 -0.4127
   33MOL0     H 4436   5.442   9.907   2.501 -0.5214 -0.1569 -0.0599
   33MOL0     H 4437   5.078   9.951   2.195 -2.0174  1.0159 -1.6058
   33MOL0     H 4438   4.871  10.034   2.117  0.0324  3.7495 -2.1861
   33MOL0     H 4439   3.548  10.381   2.648 -0.3809 -1.1982  0.9134
   33MOL0     H 4440   3.316  10.326   2.607 -0.0348  0.3537  0.8585
   33MOL0     H 4441   2.864  10.578   2.676  0.7286  0.5458  0.3435
   33MOL0     H 4442   2.620  10.584   2.641  0.4727 -0.8044  2.5469
   33MOL0     H 4443   2.419  10.611   2.494 -2.2174 -0.4292 -1.2531
   33MOL0     H 4444   2.398  10.475   2.591 -0.4381  1.1260  0.5579
   33MOL0     H 4445   2.194  10.532   2.491  1.1840  0.9612  0.5922
   33MOL0     H 4446   2.234  10.370   2.439 -2.6431  1.5642  2.5274
   33MOL0     H 4447   2.226  10.435   2.208 -1.0045  1.1387 -0.8464
   33MOL0     H 4448   2.316  10.583   2.238  0.0179  0.7159 -0.5142
   33MOL0     H 4449   2.091  10.664   2.355 -1.0675  0.9417  0.3681
   33MOL0     H 4450   2.094  10.657   2.185  4.3393  4.0780  2.2427
   33MOL0     H 4451   1.810  10.359   2.260  1.2917 -0.9557  0.0222
   33MOL0     H 4452   2.670  10.286   2.331  0.5363  1.4306 -2.0568
   33MOL0     H 4453   2.878  10.185   2.303 -2.3562  2.3611  0.7723
   33MOL0     H 4454   3.006  10.319   2.301 -1.5551  1.8098  0.4284
   33MOL0     H 4455   2.999  10.191   2.427  0.9103 -1.4138 -1.1861
   34MOL0     O 4456   9.112  10.982  10.569  0.0883  0.4272 -0.0489
   34MOL0     C 4457   8.998  11.001  10.616  0.6651 -0.2694 -0.4357
   34MOL0     O 4458   8.928  11.122  10.630  0.4426 -0.0680  0.3016
   34MOL0     C 4459   9.009  11.234  10.601 -0.4608 -0.5182  0.7216
   34MOL0     C 4460   9.118  11.267  10.681 -0.1874 -0.0572  0.0091
   34MOL0     C 4461   9.204  11.375  10.653 -0.1014  0.1463  0.4372
   34MOL0     C 4462   9.189  11.453  10.538 -0.3423  0.2843  0.4716
   34MOL0     O 4463   9.270  11.556  10.500 -0.2820 -0.6666 -0.0144
   34MOL0     C 4464   9.380  11.585  10.589  0.9177 -0.8329  0.1026
   34MOL0     C 4465   9.460  11.700  10.521 -0.0071 -0.1139 -0.5772
   34MOL0     C 4466   9.384  11.837  10.524  0.1844 -0.5813 -1.1093
   34MOL0     C 4467   9.472  11.950  10.446 -0.4475 -0.3276 -0.3581
   34MOL0     C 4468   9.397  12.083  10.414  0.3006 -0.6460 -0.3946
   34MOL0     C 4469   9.394  12.176  10.538  1.4286 -0.1972 -1.0469
   34MOL0     C 4470   9.340  12.309  10.490 -0.8054  0.1103 -0.2614
   34MOL0     C 4471   9.387  12.423  10.582 -0.7863 -0.0794 -0.4197
   34MOL0     N 4472   9.353  12.405  10.727 -0.2728  0.2091 -0.7807
   34MOL0     C 4473   9.461  12.400  10.818 -0.3849 -0.6398 -0.8644
   34MOL0     C 4474   9.393  12.397  10.937 -0.3652  0.5523  0.5952
   34MOL0     C 4475   9.476  12.411  11.066  1.6745  0.3126 -0.5747
   34MOL0     C 4476   9.434  12.536  11.151 -0.1407  0.6501 -0.2118
   34MOL0     C 4477   9.492  12.542  11.297  0.0776  0.3916 -0.3879
   34MOL0     C 4478   9.615  12.630  11.308  0.4866 -0.2726  0.3876
   34MOL0     O 4479   9.590  12.770  11.283 -0.1185 -0.2077  0.0039
   34MOL0     C 4480   9.671  12.854  11.206 -0.0272 -0.4441 -0.8326
   34MOL0     C 4481   9.616  12.964  11.136  0.8380 -0.5352 -0.1665
   34MOL0     C 4482   9.698  13.051  11.065 -0.3564  0.2783 -0.7800
   34MOL0     C 4483   9.838  13.034  11.064  0.0371  0.0763 -0.3723
   34MOL0     C 4484   9.926  13.126  10.991 -0.1561 -0.1340 -0.2302
   34MOL0     O 4485  10.064  13.111  11.008  0.4884  0.1252 -0.8954
   34MOL0     C 4486  10.152  13.208  10.956  0.1881 -0.0424 -0.6412
   34MOL0     C 4487  10.136  13.348  10.969  0.9062  0.2082 -0.2562
   34MOL0     C 4488  10.227  13.435  10.912  0.2992 -0.1626  0.4492
   34MOL0     C 4489  10.336  13.388  10.843 -0.9335  0.5392 -0.7350
   34MOL0     O 4490  10.426  13.482  10.795  0.3704  0.0154  0.3756
   34MOL0     C 4491  10.563  13.439  10.804  0.0793  0.8057 -0.3732
   34MOL0     C 4492  10.662  13.552  10.792 -0.9322  0.5140  0.6131
   34MOL0     C 4493  10.648  13.661  10.897  0.0512  0.6606  1.2111
   34MOL0     C 4494  10.764  13.757  10.880 -0.8188  0.1269 -0.0788
   34MOL0     C 4495  10.899  13.702  10.942 -0.6244  0.3759 -0.4500
   34MOL0     C 4496  11.014  13.800  10.925  0.7548  0.4020 -0.3965
   34MOL0     C 4497  11.153  13.748  10.974 -0.5083  0.2846  0.1265
   34MOL0     C 4498  11.259  13.843  10.925 -0.6754  0.0558  0.7221
   34MOL0    Cl 4499  11.256  13.970  11.048  0.3869  0.7063  0.2782
   34MOL0     C 4500  10.360  13.249  10.842  0.4139 -0.1711  0.0415
   34MOL0     C 4501  10.267  13.157  10.900  1.2484  0.0042 -0.7262
   34MOL0     O 4502   9.869  13.202  10.910 -0.0626 -0.1646 -1.4073
   34MOL0     C 4503   9.893  12.922  11.129  0.3052 -0.1970 -1.1152
   34MOL0     C 4504   9.810  12.835  11.200  0.6864 -0.1707  0.1726
   34MOL0     N 4505   9.261  12.383  10.907 -0.0688  0.3847  0.3737
   34MOL0     N 4506   9.234  12.401  10.784 -0.6074 -0.1818  0.4654
   34MOL0     C 4507   9.090  11.414  10.455  0.0847  0.3501 -0.2870
   34MOL0     C 4508   8.997  11.309  10.477  0.0888 -0.1750  0.1007
   34MOL0     C 4509   8.911  10.879  10.651 -0.2935 -0.2226 -0.4704
   34MOL0     C 4510   8.779  10.899  10.695  0.9931  0.1963  0.0850
   34MOL0     C 4511   8.688  10.801  10.727  0.0971 -0.4817  0.9284
   34MOL0     C 4512   8.735  10.667  10.712 -0.0541 -0.6791 -0.7973
   34MOL0     O 4513   8.640  10.570  10.727  0.1868 -0.3537  0.1799
   34MOL0     C 4514   8.681  10.428  10.730  0.4007 -0.9374 -0.0985
   34MOL0     C 4515   8.553  10.349  10.699  0.3427 -0.3156 -0.1811
   34MOL0     C 4516   8.443  10.378  10.785  0.0806  0.1641  0.3613
   34MOL0     C 4517   8.337  10.267  10.789  0.3957  0.8580  0.1733
   34MOL0     C 4518   8.236  10.289  10.889 -0.0613  0.3015 -0.4985
   34MOL0     C 4519   8.154  10.309  10.975  0.6847 -0.8211  0.1079
   34MOL0     C 4520   8.872  10.642  10.687  0.3100 -0.0064 -0.1622
   34MOL0     C 4521   8.956  10.748  10.649  0.2370  0.3442 -0.0516
   34MOL0     C 4522   9.094  10.704  10.603 -0.2033  0.4043  1.0626
   34MOL0     H 4523   9.148  11.210  10.768 -0.0776 -1.3547 -0.8388
   34MOL0     H 4524   9.294  11.385  10.712 -0.0146  3.4536 -0.0396
   34MOL0     H 4525   9.351  11.612  10.691 -0.5131  0.1235 -0.5263
   34MOL0     H 4526   9.445  11.497  10.601 -0.7733 -1.9307  1.9424
   34MOL0     H 4527   9.468  11.668  10.417  0.3754 -0.5137 -0.4285
   34MOL0     H 4528   9.562  11.702  10.560  0.1873 -0.6294 -1.0364
   34MOL0     H 4529   9.370  11.856  10.631  0.7378 -0.5276 -1.0438
   34MOL0     H 4530   9.283  11.828  10.482 -1.1441 -0.6145  1.8320
   34MOL0     H 4531   9.565  11.970  10.499 -1.9316  0.4372  2.1051
   34MOL0     H 4532   9.491  11.919  10.342  0.2406  2.5500 -1.1696
   34MOL0     H 4533   9.443  12.142  10.334  2.1694 -0.5543  0.6854
   34MOL0     H 4534   9.296  12.062  10.377 -1.9618  4.3649  1.8993
   34MOL0     H 4535   9.330  12.129  10.613 -1.3168  0.8590 -2.5905
   34MOL0     H 4536   9.497  12.192  10.570  1.9868 -1.2556 -2.2099
   34MOL0     H 4537   9.231  12.312  10.481 -0.7154  1.0175 -1.2904
   34MOL0     H 4538   9.390  12.330  10.395 -1.6231 -1.3575 -1.0550
   34MOL0     H 4539   9.495  12.433  10.569 -0.9173  1.2181 -0.6352
   34MOL0     H 4540   9.346  12.518  10.545 -0.6676 -1.3362 -4.1546
   34MOL0     H 4541   9.565  12.420  10.797 -0.6770  0.5359 -1.3202
   34MOL0     H 4542   9.459  12.317  11.118  4.2895  0.5386  0.8112
   34MOL0     H 4543   9.582  12.423  11.043  1.8338  1.2373  0.5118
   34MOL0     H 4544   9.459  12.628  11.098  1.3183  0.6566  0.4361
   34MOL0     H 4545   9.327  12.549  11.168 -0.0252  0.9049  0.3412
   34MOL0     H 4546   9.514  12.440  11.328 -1.3752 -0.6685 -2.5696
   34MOL0     H 4547   9.415  12.583  11.363  0.1781  3.4051 -1.9710
   34MOL0     H 4548   9.686  12.594  11.232  0.9501 -2.1844  1.6397
   34MOL0     H 4549   9.651  12.631  11.411 -3.7719  1.2572  2.0823
   34MOL0     H 4550   9.509  12.964  11.153  1.1054 -1.8823  1.7241
   34MOL0     H 4551   9.656  13.138  11.017  0.1885  1.0928  0.1900
   34MOL0     H 4552  10.051  13.392  11.021  1.9971  2.6720 -0.4019
   34MOL0     H 4553  10.220  13.543  10.922  2.3514 -0.1379  2.4251
   34MOL0     H 4554  10.579  13.402  10.905 -1.5636 -1.4223 -0.8649
   34MOL0     H 4555  10.587  13.354  10.740 -0.4954 -1.5091  2.2820
   34MOL0     H 4556  10.760  13.504  10.803 -1.1912 -0.0468  0.4999
   34MOL0     H 4557  10.643  13.596  10.693 -0.0859  0.8200  0.5762
   34MOL0     H 4558  10.565  13.730  10.882  0.1245  0.2916 -1.1966
   34MOL0     H 4559  10.635  13.626  11.000  1.6129  0.4796  1.3741
   34MOL0     H 4560  10.740  13.843  10.943 -1.7928 -0.5972  0.5937
   34MOL0     H 4561  10.770  13.800  10.780 -0.5127  0.2624 -0.0032
   34MOL0     H 4562  10.925  13.607  10.893 -0.3991 -0.3273  0.9811
   34MOL0     H 4563  10.900  13.670  11.047  0.7882 -2.3930 -1.1905
   34MOL0     H 4564  11.013  13.827  10.819  1.8790 -2.2758 -1.1820
   34MOL0     H 4565  10.983  13.886  10.984  1.1056 -0.7575  1.5413
   34MOL0     H 4566  11.158  13.652  10.921 -1.8560 -0.4787  1.3169
   34MOL0     H 4567  11.158  13.724  11.080  1.7514 -1.7511 -0.3425
   34MOL0     H 4568  11.359  13.800  10.937  0.4604  2.3877  0.1117
   34MOL0     H 4569  11.240  13.884  10.826 -2.9936  0.0297  1.0971
   34MOL0     H 4570  10.445  13.223  10.780 -0.1046 -0.2316 -0.6550
   34MOL0     H 4571  10.283  13.050  10.909  0.6737  0.0516  1.3242
   34MOL0     H 4572  10.000  12.903  11.125  0.5738  0.9820 -0.0776
   34MOL0     H 4573   9.844  12.746  11.253  2.1027 -1.7118 -3.0362
   34MOL0     H 4574   9.080  11.480  10.370  2.8058  0.2140 -0.7943
   34MOL0     H 4575   8.922  11.286  10.402  3.5603 -1.4715 -3.3153
   34MOL0     H 4576   8.729  10.995  10.695  0.6593  0.0289  0.8922
   34MOL0     H 4577   8.582  10.823  10.740 -1.1076 -3.8633 -1.5956
   34MOL0     H 4578   8.727  10.399  10.824  0.0622 -1.2835 -0.0409
   34MOL0     H 4579   8.751  10.396  10.653  2.3660 -0.1370  1.2765
   34MOL0     H 4580   8.578  10.243  10.696 -1.8680 -1.1173  3.5626
   34MOL0     H 4581   8.517  10.380  10.600  0.5882 -0.5336 -0.3406
   34MOL0     H 4582   8.395  10.474  10.765 -1.4428  0.0448  3.0112
   34MOL0     H 4583   8.484  10.390  10.886  2.5736  2.6218 -0.7903
   34MOL0     H 4584   8.303  10.272  10.685  3.5471  2.1691 -0.9254
   34MOL0     H 4585   8.381  10.168  10.804  1.5084  1.0736 -1.4034
   34MOL0     H 4586   8.078  10.328  11.049  0.3876  2.7745 -0.9032
   34MOL0     H 4587   8.915  10.543  10.695  1.4748  0.3854 -1.1484
   34MOL0     H 4588   9.178  10.754  10.652  0.4790 -0.2973  0.6292
   34MOL0     H 4589   9.104  10.597  10.622 -1.4436 -0.4716 -2.5254
   34MOL0     H 4590   9.105  10.728  10.497 -0.0248 -0.8390  0.7771
   35MOL0     O 4591   6.255   1.121   6.573  0.1180 -0.2205 -0.1470
   35MOL0     C 4592   6.162   1.049   6.613  0.0230  0.3566  0.0323
   35MOL0     O 4593   6.032   1.085   6.603  0.2103 -1.2124  0.1339
   35MOL0     C 4594   6.005   1.195   6.527 -0.3318 -1.1091  0.3485
   35MOL0     C 4595   6.001   1.322   6.585  0.5143 -0.2334 -1.0192
   35MOL0     C 4596   5.967   1.436   6.500  0.3712  0.2261 -0.2470
   35MOL0     C 4597   5.930   1.418   6.370  0.7247 -1.0076 -0.8082
   35MOL0     O 4598   5.901   1.529   6.305  0.3445 -0.2938  0.6711
   35MOL0     C 4599   5.855   1.526   6.167  1.1292 -1.0264  0.3054
   35MOL0     C 4600   5.893   1.672   6.110  0.1720 -0.3978  0.5562
   35MOL0     C 4601   6.046   1.691   6.094  0.0440  0.3825  0.6166
   35MOL0     C 4602   6.079   1.835   6.059  0.1692  0.0638 -0.2152
   35MOL0     C 4603   6.222   1.858   6.023 -0.1451 -0.6958  0.3514
   35MOL0     C 4604   6.327   1.811   6.132  0.7031  0.1779  0.4477
   35MOL0     C 4605   6.464   1.861   6.110 -0.2058 -0.0375 -0.4089
   35MOL0     C 4606   6.463   1.995   6.184 -0.2432  0.1957  0.0234
   35MOL0     N 4607   6.574   2.091   6.140  0.2329 -0.9627 -0.0411
   35MOL0     C 4608   6.579   2.158   6.017  0.3937 -0.2499  0.1672
   35MOL0     C 4609   6.681   2.249   6.037  0.8687 -0.5974 -0.2608
   35MOL0     C 4610   6.718   2.338   5.928  0.9104 -0.0443  0.6362
   35MOL0     C 4611   6.845   2.281   5.867  0.0330  0.7147 -0.5110
   35MOL0     C 4612   6.921   2.390   5.783 -0.3794 -0.1506  0.4215
   35MOL0     C 4613   6.881   2.375   5.637 -0.5556 -0.3688  0.8138
   35MOL0     O 4614   6.914   2.483   5.555 -0.2005  0.3085 -0.1439
   35MOL0     C 4615   7.047   2.487   5.517 -0.2642 -0.8063  0.0860
   35MOL0     C 4616   7.112   2.387   5.439  0.0288  0.3618 -0.4108
   35MOL0     C 4617   7.241   2.413   5.388 -0.3378  0.4473 -0.4354
   35MOL0     C 4618   7.299   2.548   5.412  0.3432 -0.1550 -0.5912
   35MOL0     C 4619   7.420   2.582   5.341  0.1257  0.1740  0.5980
   35MOL0     O 4620   7.458   2.494   5.235  0.4206  0.0586  0.4469
   35MOL0     C 4621   7.572   2.518   5.155  0.4391 -0.4567  0.8368
   35MOL0     C 4622   7.594   2.641   5.094 -0.7002 -1.3053  0.1211
   35MOL0     C 4623   7.704   2.665   5.008  0.7477  0.2707  0.4150
   35MOL0     C 4624   7.794   2.567   4.981 -0.0711  1.3822 -0.7541
   35MOL0     O 4625   7.898   2.584   4.901  0.1388  0.0819 -0.1711
   35MOL0     C 4626   7.874   2.538   4.766  0.2551 -1.1455  0.0357
   35MOL0     C 4627   7.955   2.418   4.735 -0.5699  0.5825  0.2021
   35MOL0     C 4628   8.103   2.439   4.713  0.6525  0.6083 -0.3468
   35MOL0     C 4629   8.181   2.319   4.679  1.2359  0.2341  0.2953
   35MOL0     C 4630   8.314   2.355   4.610 -0.0671 -0.3481 -0.6155
   35MOL0     C 4631   8.431   2.393   4.702 -0.4935 -0.2446  0.7986
   35MOL0     C 4632   8.545   2.451   4.607 -0.8056 -0.4229 -1.4113
   35MOL0     C 4633   8.613   2.345   4.515  0.1334 -1.0714  0.2014
   35MOL0    Cl 4634   8.745   2.259   4.609 -0.3266  0.2952  0.2392
   35MOL0     C 4635   7.767   2.439   5.037 -0.2405 -0.1690 -0.9223
   35MOL0     C 4636   7.659   2.410   5.120 -0.6171 -0.2516 -0.8773
   35MOL0     O 4637   7.468   2.696   5.368  0.2057 -0.0241  0.4291
   35MOL0     C 4638   7.230   2.644   5.492  0.4648  0.6199  0.0227
   35MOL0     C 4639   7.103   2.617   5.541 -0.8263 -0.3439 -0.2763
   35MOL0     N 4640   6.719   2.253   6.170  0.7602  0.4342 -0.0276
   35MOL0     N 4641   6.671   2.149   6.221  0.3543 -0.6386  0.8818
   35MOL0     C 4642   5.927   1.291   6.320  0.0303  0.1924 -0.1682
   35MOL0     C 4643   5.963   1.176   6.398  0.4140 -0.0948  0.2559
   35MOL0     C 4644   6.188   0.927   6.688  0.4087  0.5435 -0.2766
   35MOL0     C 4645   6.083   0.824   6.699  0.3475 -0.0475 -0.7945
   35MOL0     C 4646   6.096   0.715   6.779  0.1979  0.3015 -0.7478
   35MOL0     C 4647   6.219   0.684   6.846 -0.1408  0.1073 -0.2263
   35MOL0     O 4648   6.247   0.561   6.915  0.2669  0.3098  0.3738
   35MOL0     C 4649   6.150   0.458   6.928 -0.1612 -0.2324 -0.1614
   35MOL0     C 4650   6.217   0.325   6.939  0.0468  0.1325 -0.0384
   35MOL0     C 4651   6.273   0.273   6.805  0.0428  0.2614  0.4476
   35MOL0     C 4652   6.357   0.141   6.821  0.1360 -0.1382 -0.6350
   35MOL0     C 4653   6.448   0.122   6.716 -0.4231  0.5300  0.9119
   35MOL0     C 4654   6.520   0.111   6.622 -0.2903 -0.1247 -0.1992
   35MOL0     C 4655   6.326   0.773   6.832 -0.2532  0.0037 -0.2209
   35MOL0     C 4656   6.315   0.895   6.750 -0.3383 -0.0140 -0.4048
   35MOL0     C 4657   6.435   0.989   6.751 -0.4040 -1.0325  0.2465
   35MOL0     H 4658   6.021   1.339   6.691 -1.0755 -2.3971 -0.3092
   35MOL0     H 4659   5.966   1.534   6.547 -2.3535 -0.0479  0.4474
   35MOL0     H 4660   5.914   1.459   6.104  1.2251  0.8677 -1.7339
   35MOL0     H 4661   5.748   1.515   6.149  1.7186 -0.6384 -5.0352
   35MOL0     H 4662   5.847   1.758   6.160 -2.5358 -0.1020 -2.1765
   35MOL0     H 4663   5.845   1.674   6.012 -0.3904 -1.5750  0.7821
   35MOL0     H 4664   6.086   1.623   6.017 -0.4444  0.1830  0.5392
   35MOL0     H 4665   6.087   1.665   6.192 -0.8031 -2.1583  0.3692
   35MOL0     H 4666   6.019   1.867   5.973  2.4044  0.9631 -1.5385
   35MOL0     H 4667   6.045   1.892   6.146 -1.8668  1.6428 -1.9325
   35MOL0     H 4668   6.241   1.800   5.933  0.0395 -0.2803  0.1173
   35MOL0     H 4669   6.243   1.962   5.995  0.8777  0.0697  3.5412
   35MOL0     H 4670   6.289   1.823   6.234 -0.4003 -0.5402  0.1423
   35MOL0     H 4671   6.330   1.703   6.120  0.4258  0.0870  1.1128
   35MOL0     H 4672   6.481   1.877   6.004  2.3229 -1.4492 -0.2866
   35MOL0     H 4673   6.529   1.784   6.152 -0.0738  0.8508  1.1226
   35MOL0     H 4674   6.366   2.045   6.176 -0.4326 -0.2389 -0.4594
   35MOL0     H 4675   6.484   1.982   6.290  0.8952  1.0447 -0.0836
   35MOL0     H 4676   6.523   2.136   5.927  1.2734 -4.7525  0.4842
   35MOL0     H 4677   6.637   2.354   5.856 -0.3077 -2.2194  1.4200
   35MOL0     H 4678   6.730   2.439   5.968  1.0111 -0.0993  0.7454
   35MOL0     H 4679   6.913   2.233   5.938 -0.5198  0.5115 -0.1153
   35MOL0     H 4680   6.818   2.193   5.808 -1.5697 -0.7214  2.1685
   35MOL0     H 4681   7.030   2.391   5.790 -0.2556  1.5401 -1.0593
   35MOL0     H 4682   6.881   2.484   5.822 -0.5350 -1.0710  2.6424
   35MOL0     H 4683   6.773   2.367   5.629 -0.5368  0.1919 -0.1248
   35MOL0     H 4684   6.932   2.286   5.598 -0.9126 -0.3196  0.2217
   35MOL0     H 4685   7.067   2.292   5.412  1.9718 -0.1774 -1.9279
   35MOL0     H 4686   7.281   2.337   5.323 -1.2106 -0.1990 -0.2286
   35MOL0     H 4687   7.531   2.729   5.102 -0.0004 -0.9129  1.6407
   35MOL0     H 4688   7.705   2.763   4.963 -0.5813 -1.2494 -3.2983
   35MOL0     H 4689   7.771   2.504   4.752 -0.5010  1.2550 -0.7860
   35MOL0     H 4690   7.895   2.628   4.707  0.7574  0.0740  1.9845
   35MOL0     H 4691   7.952   2.338   4.810 -0.1553 -2.8611 -3.1626
   35MOL0     H 4692   7.919   2.386   4.637 -2.3706  1.6065  0.4883
   35MOL0     H 4693   8.108   2.512   4.631  1.3292 -0.8185 -1.6285
   35MOL0     H 4694   8.158   2.476   4.800  1.2887  1.1215 -0.9500
   35MOL0     H 4695   8.123   2.250   4.616 -1.2132 -1.6388  4.2322
   35MOL0     H 4696   8.192   2.257   4.768 -1.2994 -0.2902  0.3079
   35MOL0     H 4697   8.306   2.426   4.528  0.4279 -0.5597 -0.8538
   35MOL0     H 4698   8.356   2.263   4.567 -1.3863 -0.1993 -2.3241
   35MOL0     H 4699   8.392   2.468   4.772  0.2655  1.4946 -0.5421
   35MOL0     H 4700   8.485   2.315   4.756 -0.6896 -0.0258  1.3192
   35MOL0     H 4701   8.616   2.490   4.682 -2.7591 -1.9682  1.4336
   35MOL0     H 4702   8.504   2.536   4.553  0.4853  0.2403 -1.4100
   35MOL0     H 4703   8.544   2.270   4.478 -0.5210 -2.3702  3.7082
   35MOL0     H 4704   8.647   2.399   4.426  0.9816  0.1524  1.2221
   35MOL0     H 4705   7.836   2.366   4.997 -1.4085 -0.7784 -1.8851
   35MOL0     H 4706   7.652   2.315   5.171  1.9586  0.0967  0.2933
   35MOL0     H 4707   7.275   2.737   5.525  1.3427  0.1600  0.1475
   35MOL0     H 4708   7.045   2.696   5.587  0.4579  0.7723 -0.5494
   35MOL0     H 4709   5.903   1.286   6.214  1.2680  1.9872 -0.5801
   35MOL0     H 4710   5.962   1.077   6.355  2.6950  1.1489 -3.1306
   35MOL0     H 4711   5.985   0.825   6.652  1.0987  0.2025 -2.4362
   35MOL0     H 4712   6.013   0.645   6.775  1.5354 -1.4917  0.8454
   35MOL0     H 4713   6.089   0.445   6.838  0.8280 -2.8618 -0.5408
   35MOL0     H 4714   6.068   0.483   6.996  0.0041 -0.6385  0.1867
   35MOL0     H 4715   6.135   0.259   6.968  1.0477 -1.1689 -0.0813
   35MOL0     H 4716   6.292   0.326   7.019  1.0995  0.3728 -1.0046
   35MOL0     H 4717   6.344   0.348   6.770  0.1450  1.0909  2.3462
   35MOL0     H 4718   6.192   0.255   6.732  1.1698 -2.0555 -0.3432
   35MOL0     H 4719   6.406   0.142   6.918 -2.6290 -2.3436  0.9404
   35MOL0     H 4720   6.290   0.055   6.814 -1.4863  0.7735  2.0474
   35MOL0     H 4721   6.591   0.092   6.545  3.1245  0.4553  2.5277
   35MOL0     H 4722   6.419   0.748   6.884 -0.3058 -2.4860 -1.1820
   35MOL0     H 4723   6.451   1.035   6.653 -1.2278 -0.5208  0.3417
   35MOL0     H 4724   6.432   1.069   6.826 -0.8940 -1.2611  0.4711
   35MOL0     H 4725   6.518   0.923   6.775 -0.1069 -0.1874  1.6672
   36MOL0     O 4726   3.222   7.793   2.638 -0.2526 -0.3398 -1.1093
   36MOL0     C 4727   3.177   7.834   2.746 -0.1432  0.5592  0.1836
   36MOL0     O 4728   3.257   7.867   2.848  0.4273 -0.0955  0.1125
   36MOL0     C 4729   3.387   7.877   2.830  0.1979 -0.7669  0.2144
   36MOL0     C 4730   3.470   7.778   2.882  0.4503 -0.5458 -0.5041
   36MOL0     C 4731   3.606   7.773   2.878 -0.5955 -0.0286  0.4211
   36MOL0     C 4732   3.666   7.885   2.820 -0.1984 -0.5342 -0.2243
   36MOL0     O 4733   3.801   7.889   2.804 -0.4372  0.6137  0.1672
   36MOL0     C 4734   3.892   7.834   2.906 -0.1525 -0.6653  0.4861
   36MOL0     C 4735   3.863   7.877   3.043  0.1417  0.3577 -0.2583
   36MOL0     C 4736   3.841   8.033   3.047  0.3033  0.3474  0.7901
   36MOL0     C 4737   3.861   8.093   3.188  0.7748 -0.2147 -0.0044
   36MOL0     C 4738   3.863   8.251   3.176 -0.3145  0.1508  0.5415
   36MOL0     C 4739   3.875   8.305   3.319  0.2194 -0.0189 -0.3639
   36MOL0     C 4740   3.891   8.459   3.307 -0.0155 -1.0327 -0.2587
   36MOL0     C 4741   4.025   8.506   3.259  0.4370 -0.0704 -0.2809
   36MOL0     N 4742   4.149   8.475   3.339  0.9530 -0.4068 -0.2616
   36MOL0     C 4743   4.177   8.530   3.461 -0.2640  0.0133  0.1009
   36MOL0     C 4744   4.309   8.485   3.484 -0.7067  0.1758  0.4293
   36MOL0     C 4745   4.386   8.532   3.598 -0.6865 -1.0600  0.1535
   36MOL0     C 4746   4.516   8.450   3.604 -0.4804  0.6350  0.0371
   36MOL0     C 4747   4.626   8.503   3.513  0.6505  0.1197 -0.7053
   36MOL0     C 4748   4.741   8.409   3.499  0.1825  0.1930  0.1226
   36MOL0     O 4749   4.831   8.466   3.414 -0.8920 -0.1001  0.2656
   36MOL0     C 4750   4.960   8.424   3.418 -0.0194 -0.8764  0.3104
   36MOL0     C 4751   5.006   8.304   3.466  0.2215 -0.9141  0.4915
   36MOL0     C 4752   5.139   8.270   3.481  0.0662 -0.6192 -0.6126
   36MOL0     C 4753   5.236   8.365   3.448  0.6547  0.3643  0.0560
   36MOL0     C 4754   5.380   8.328   3.459 -0.7971 -0.7417 -0.4659
   36MOL0     O 4755   5.415   8.199   3.500 -1.4383  0.1498 -0.1699
   36MOL0     C 4756   5.544   8.142   3.512 -0.4367  0.6614  1.0052
   36MOL0     C 4757   5.664   8.213   3.499  0.3166 -0.6722 -0.5494
   36MOL0     C 4758   5.781   8.145   3.477  0.4805  0.3960  0.1626
   36MOL0     C 4759   5.786   8.004   3.493  0.1372 -0.3389  0.7107
   36MOL0     O 4760   5.899   7.931   3.491  0.1511  0.1020  0.0302
   36MOL0     C 4761   6.018   7.984   3.558  0.5433  0.4713 -0.2969
   36MOL0     C 4762   6.120   7.875   3.586 -0.1956  0.7832  0.3755
   36MOL0     C 4763   6.238   7.935   3.653  0.5561 -0.0338 -0.3065
   36MOL0     C 4764   6.347   7.827   3.675  0.2420 -0.2442 -1.2415
   36MOL0     C 4765   6.477   7.884   3.744  0.5343  0.1153 -0.6787
   36MOL0     C 4766   6.573   7.767   3.745  0.5283 -1.0767 -0.3095
   36MOL0     C 4767   6.662   7.759   3.862 -0.2822 -0.7205 -0.9128
   36MOL0     C 4768   6.774   7.655   3.843 -0.8112  0.3142  0.6311
   36MOL0    Cl 4769   6.895   7.705   3.706  0.0618  0.0781  0.1102
   36MOL0     C 4770   5.662   7.933   3.496 -0.0961  0.8525  0.2569
   36MOL0     C 4771   5.543   7.999   3.508  0.4271 -0.5477 -0.2111
   36MOL0     O 4772   5.456   8.424   3.429  0.3934  0.7985 -0.3581
   36MOL0     C 4773   5.196   8.486   3.388 -0.1698  0.1035  0.1063
   36MOL0     C 4774   5.059   8.509   3.371 -0.3695 -0.0186  0.6056
   36MOL0     N 4775   4.337   8.396   3.379  0.3774  0.0344  0.3321
   36MOL0     N 4776   4.240   8.390   3.297 -0.1819  0.1907  0.2180
   36MOL0     C 4777   3.597   7.998   2.774  0.1364  0.1069  0.1629
   36MOL0     C 4778   3.451   7.986   2.773 -0.1465  0.0909  0.2311
   36MOL0     C 4779   3.030   7.835   2.764 -0.4205 -0.4947 -0.2553
   36MOL0     C 4780   2.975   7.855   2.897  0.1710 -0.7619  0.4094
   36MOL0     C 4781   2.843   7.847   2.926 -0.1666  0.1331 -0.0903
   36MOL0     C 4782   2.747   7.832   2.825  0.1249  0.0357  0.6319
   36MOL0     O 4783   2.615   7.839   2.860  0.0196 -1.0731 -0.0679
   36MOL0     C 4784   2.520   7.790   2.762 -0.4666  1.1021 -0.5232
   36MOL0     C 4785   2.375   7.784   2.819  0.1432 -0.6427 -0.3014
   36MOL0     C 4786   2.348   7.668   2.919  0.7264 -0.6641 -0.2067
   36MOL0     C 4787   2.202   7.678   2.961  0.5714  0.4342 -0.2881
   36MOL0     C 4788   2.174   7.733   3.090  0.8394 -0.0980 -0.6722
   36MOL0     C 4789   2.140   7.765   3.205 -0.6269  0.3958 -0.3367
   36MOL0     C 4790   2.798   7.806   2.697  0.0567  0.4548 -0.3529
   36MOL0     C 4791   2.935   7.816   2.662  0.2205 -0.0009 -0.2016
   36MOL0     C 4792   2.962   7.811   2.517 -0.5484  0.7799 -0.2892
   36MOL0     H 4793   3.416   7.696   2.927 -0.0233 -0.4576 -0.9115
   36MOL0     H 4794   3.666   7.689   2.909  1.8749  1.9724  1.4653
   36MOL0     H 4795   3.909   7.726   2.903  1.6364 -0.4095 -0.3691
   36MOL0     H 4796   3.997   7.857   2.886 -0.3283 -1.1173 -1.0870
   36MOL0     H 4797   3.956   7.852   3.095 -0.5084 -0.9163  0.3411
   36MOL0     H 4798   3.780   7.823   3.089  1.3853 -1.6870 -0.2876
   36MOL0     H 4799   3.746   8.058   2.999  0.6021 -1.3551 -0.8069
   36MOL0     H 4800   3.927   8.065   2.988  0.5021  1.3813  1.6104
   36MOL0     H 4801   3.773   8.051   3.239  0.1862  0.3386 -0.5397
   36MOL0     H 4802   3.953   8.052   3.231 -0.1421  0.7432  3.1930
   36MOL0     H 4803   3.949   8.277   3.114  0.3150  0.8273  1.6579
   36MOL0     H 4804   3.773   8.287   3.123 -2.8049 -4.6395  0.9778
   36MOL0     H 4805   3.786   8.274   3.376  1.6750 -1.0371  1.4810
   36MOL0     H 4806   3.956   8.256   3.375 -1.0626  0.0945  1.7233
   36MOL0     H 4807   3.875   8.504   3.406  2.8345  0.6847 -0.4608
   36MOL0     H 4808   3.815   8.499   3.239 -1.5987 -0.4577  1.7433
   36MOL0     H 4809   4.047   8.467   3.159  1.3719 -1.0927  0.2960
   36MOL0     H 4810   4.008   8.613   3.249  2.5102  0.4906  1.3793
   36MOL0     H 4811   4.123   8.601   3.523 -4.2290 -3.0484  0.4657
   36MOL0     H 4812   4.405   8.639   3.597 -0.6079 -1.0593  1.1260
   36MOL0     H 4813   4.336   8.512   3.693  1.4445 -3.0684  0.9446
   36MOL0     H 4814   4.551   8.460   3.707  1.2412  1.0383 -0.5454
   36MOL0     H 4815   4.494   8.344   3.589  2.7492 -0.1788  0.1796
   36MOL0     H 4816   4.678   8.584   3.565 -0.3007  1.3363 -1.6173
   36MOL0     H 4817   4.597   8.531   3.412  0.2952 -0.1323 -0.6750
   36MOL0     H 4818   4.701   8.316   3.457  0.0886 -0.2798  1.2336
   36MOL0     H 4819   4.792   8.382   3.591  1.1347 -0.6527 -0.6270
   36MOL0     H 4820   4.938   8.222   3.484  2.1206 -2.2402  2.0213
   36MOL0     H 4821   5.161   8.172   3.522  1.0788  0.4974  1.7432
   36MOL0     H 4822   5.665   8.321   3.499 -0.0785 -0.6308 -2.2186
   36MOL0     H 4823   5.866   8.208   3.449  1.4109 -1.2416 -0.8663
   36MOL0     H 4824   6.057   8.057   3.486 -2.2917  2.6609  0.2219
   36MOL0     H 4825   5.990   8.030   3.653 -0.2259  0.6460 -0.6019
   36MOL0     H 4826   6.075   7.797   3.648 -1.6432  0.4671 -1.0153
   36MOL0     H 4827   6.155   7.823   3.496  1.3451 -3.2181  3.0255
   36MOL0     H 4828   6.276   8.020   3.596  1.2710  0.5858  1.0217
   36MOL0     H 4829   6.213   7.975   3.752  1.7868  1.4725 -0.5523
   36MOL0     H 4830   6.379   7.784   3.580  0.0819 -3.8070  0.1591
   36MOL0     H 4831   6.304   7.745   3.733  0.9487  0.0645 -0.2457
   36MOL0     H 4832   6.457   7.920   3.846 -0.2655  1.4189 -1.2763
   36MOL0     H 4833   6.520   7.975   3.702 -0.1132  1.9340  2.3008
   36MOL0     H 4834   6.523   7.670   3.740  1.4706 -1.5373 -1.5185
   36MOL0     H 4835   6.625   7.778   3.649  1.8103 -1.6204  0.2891
   36MOL0     H 4836   6.602   7.742   3.952 -0.0636  1.8625 -0.2154
   36MOL0     H 4837   6.704   7.858   3.879 -1.1412 -0.0411 -2.5542
   36MOL0     H 4838   6.837   7.658   3.933 -1.6627  1.9378  1.2248
   36MOL0     H 4839   6.735   7.555   3.823 -0.1962 -0.0534  1.1991
   36MOL0     H 4840   5.653   7.825   3.496  0.5537  0.7740 -0.9299
   36MOL0     H 4841   5.449   7.945   3.512 -0.0122  0.0538 -1.6012
   36MOL0     H 4842   5.262   8.553   3.334  0.9949 -0.6630  0.5397
   36MOL0     H 4843   5.029   8.600   3.320 -0.7545 -0.1195  0.6461
   36MOL0     H 4844   3.645   8.087   2.734  1.6393 -0.7997 -0.1151
   36MOL0     H 4845   3.396   8.067   2.726 -1.0924  0.3282  1.7078
   36MOL0     H 4846   3.047   7.879   2.976  0.0631 -0.0806  0.3094
   36MOL0     H 4847   2.822   7.860   3.031 -2.0228 -0.9029 -0.2946
   36MOL0     H 4848   2.533   7.683   2.743  1.6262  1.0361  0.8711
   36MOL0     H 4849   2.532   7.845   2.668  1.0608 -0.2234 -1.1593
   36MOL0     H 4850   2.301   7.778   2.738  1.3087  0.8915 -1.5423
   36MOL0     H 4851   2.367   7.880   2.873  0.6556 -0.9021  0.2533
   36MOL0     H 4852   2.415   7.689   3.003 -0.0319  2.4509 -0.2448
   36MOL0     H 4853   2.375   7.566   2.889  1.2160 -0.6417  0.1293
   36MOL0     H 4854   2.149   7.735   2.884  1.9980  2.7816  0.3619
   36MOL0     H 4855   2.163   7.576   2.954  0.4806  0.3538  1.1271
   36MOL0     H 4856   2.097   7.779   3.302 -0.8182 -1.8503 -0.0384
   36MOL0     H 4857   2.731   7.783   2.615  2.7567  2.5414 -3.4175
   36MOL0     H 4858   3.045   7.881   2.503  0.6739 -0.8166 -1.4166
   36MOL0     H 4859   2.992   7.712   2.481 -0.6812  0.1943  1.1115
   36MOL0     H 4860   2.871   7.844   2.466 -2.1390  0.1744  1.9966
   37MOL0     O 4861   1.932   3.931  11.138 -0.1209 -0.3346 -0.3863
   37MOL0     C 4862   1.851   4.009  11.188 -0.0203 -1.0203  0.2654
   37MOL0     O 4863   1.884   4.120  11.272 -0.1029  0.0031 -0.5255
   37MOL0     C 4864   2.010   4.165  11.278 -0.2601 -0.1566  0.7829
   37MOL0     C 4865   2.037   4.296  11.235  0.3228  0.4120 -0.1284
   37MOL0     C 4866   2.162   4.355  11.261  0.4476  0.1942  0.5667
   37MOL0     C 4867   2.266   4.289  11.322 -0.6637 -0.2001 -0.3413
   37MOL0     O 4868   2.387   4.352  11.335 -0.0111  0.4322 -0.4296
   37MOL0     C 4869   2.510   4.277  11.352 -0.1150 -0.5907 -0.0334
   37MOL0     C 4870   2.559   4.283  11.492  0.0798 -0.2378 -0.0082
   37MOL0     C 4871   2.700   4.239  11.498 -0.3863 -0.6557 -0.8412
   37MOL0     C 4872   2.750   4.214  11.643 -0.8181  0.2267 -0.0489
   37MOL0     C 4873   2.891   4.141  11.638  0.8948  0.4913  0.3903
   37MOL0     C 4874   2.998   4.227  11.586 -0.5909  0.3356  0.2869
   37MOL0     C 4875   3.122   4.143  11.564 -0.6312  0.2913 -0.2751
   37MOL0     C 4876   3.251   4.220  11.542 -0.1963 -0.2745 -0.5984
   37MOL0     N 4877   3.307   4.257  11.672  0.6039 -0.0447 -0.1731
   37MOL0     C 4878   3.314   4.388  11.730  0.1054  0.9543 -0.1365
   37MOL0     C 4879   3.401   4.372  11.830 -0.3104 -0.7806  0.4660
   37MOL0     C 4880   3.454   4.492  11.905  0.1100 -0.5312 -0.1591
   37MOL0     C 4881   3.600   4.470  11.942  0.0549  0.3684  0.1387
   37MOL0     C 4882   3.649   4.596  12.024 -1.0044 -0.0511 -0.1925
   37MOL0     C 4883   3.763   4.551  12.115 -0.1473 -0.9811 -0.2098
   37MOL0     O 4884   3.866   4.481  12.053 -0.0905  0.0227  0.2799
   37MOL0     C 4885   3.979   4.458  12.119 -0.0061  0.6395 -0.1605
   37MOL0     C 4886   4.030   4.327  12.100  0.3258 -0.0998  0.0761
   37MOL0     C 4887   4.149   4.288  12.168  0.2637 -0.0869  0.0396
   37MOL0     C 4888   4.211   4.378  12.253  0.3848 -1.1544  0.8630
   37MOL0     C 4889   4.325   4.332  12.322 -0.1677  0.6242  0.3440
   37MOL0     O 4890   4.359   4.203  12.306  0.0936  0.2146  0.3599
   37MOL0     C 4891   4.474   4.154  12.359  0.3442  0.2238  0.8092
   37MOL0     C 4892   4.592   4.225  12.340  1.1338  0.3114  0.2703
   37MOL0     C 4893   4.716   4.180  12.389 -0.0706  0.3446  0.1639
   37MOL0     C 4894   4.723   4.057  12.466 -0.0034 -0.7630 -0.0440
   37MOL0     O 4895   4.842   4.011  12.526  0.4011 -0.0385  0.5010
   37MOL0     C 4896   4.955   4.100  12.535  0.3862  0.6499 -0.2638
   37MOL0     C 4897   5.071   4.027  12.610  0.1791  0.0013  0.7125
   37MOL0     C 4898   5.105   3.901  12.527 -0.7207 -0.3102  0.3742
   37MOL0     C 4899   5.262   3.886  12.515 -0.1481  1.0274 -0.2924
   37MOL0     C 4900   5.294   3.755  12.447 -0.3139 -0.0205  0.0186
   37MOL0     C 4901   5.441   3.738  12.449 -0.0158 -0.1253 -0.5968
   37MOL0     C 4902   5.458   3.605  12.370  0.5486  0.5997  0.1083
   37MOL0     C 4903   5.442   3.478  12.457  0.0065 -0.2393 -0.7291
   37MOL0    Cl 4904   5.522   3.500  12.619 -0.0828  0.2499 -0.5423
   37MOL0     C 4905   4.600   3.980  12.488  0.0353  0.5186  0.1872
   37MOL0     C 4906   4.479   4.033  12.439 -0.1163 -0.2845 -0.3752
   37MOL0     O 4907   4.381   4.415  12.395  0.2145 -0.2755 -0.6996
   37MOL0     C 4908   4.161   4.510  12.265  0.0385 -0.0928  0.0946
   37MOL0     C 4909   4.051   4.555  12.188 -1.2137  0.4835  0.7280
   37MOL0     N 4910   3.437   4.235  11.841  0.0162  0.5793  0.0568
   37MOL0     N 4911   3.383   4.172  11.745  0.4658  0.7904 -0.4312
   37MOL0     C 4912   2.243   4.160  11.371 -0.1976  0.2557  0.0120
   37MOL0     C 4913   2.115   4.097  11.346 -0.4716  0.1334  0.1291
   37MOL0     C 4914   1.707   4.009  11.144 -0.2125  0.1674  0.2240
   37MOL0     C 4915   1.624   4.119  11.163 -0.2548  0.1928 -0.0331
   37MOL0     C 4916   1.490   4.120  11.126 -0.4258  0.6260 -0.3924
   37MOL0     C 4917   1.436   4.006  11.066 -0.0206  0.5769 -0.0872
   37MOL0     O 4918   1.305   4.025  11.037 -0.2819  0.4846  0.4113
   37MOL0     C 4919   1.250   3.935  10.945 -0.0465 -0.0098 -0.1600
   37MOL0     C 4920   1.142   3.842  10.995 -1.6745  0.5697 -0.0532
   37MOL0     C 4921   1.023   3.916  11.058  0.8105 -0.3049 -0.9869
   37MOL0     C 4922   0.908   3.827  11.108  0.1235 -0.2889  0.4208
   37MOL0     C 4923   0.963   3.712  11.184  1.0565 -0.9015 -0.2831
   37MOL0     C 4924   1.021   3.631  11.252  0.9278 -0.7675 -0.0863
   37MOL0     C 4925   1.520   3.890  11.040 -0.5459 -0.3235 -0.2603
   37MOL0     C 4926   1.655   3.888  11.086 -0.3228  0.5299  0.8670
   37MOL0     C 4927   1.726   3.762  11.048 -0.6046 -0.5117 -0.1231
   37MOL0     H 4928   1.961   4.358  11.189 -0.7711 -0.2031  0.8157
   37MOL0     H 4929   2.194   4.449  11.217 -1.2151  0.4572 -0.1502
   37MOL0     H 4930   2.498   4.171  11.328  0.6710 -1.2066  2.0583
   37MOL0     H 4931   2.588   4.313  11.285 -1.6967 -2.5155 -3.1441
   37MOL0     H 4932   2.490   4.231  11.559 -0.4713 -0.4012 -0.6959
   37MOL0     H 4933   2.549   4.388  11.520 -1.7982  0.5810 -3.2930
   37MOL0     H 4934   2.754   4.307  11.431 -0.1873 -1.1290 -1.1625
   37MOL0     H 4935   2.709   4.141  11.450  0.7089 -0.7414 -0.4961
   37MOL0     H 4936   2.752   4.307  11.700 -0.3587 -0.8705  1.8449
   37MOL0     H 4937   2.678   4.142  11.683  0.5685 -1.3360 -0.2023
   37MOL0     H 4938   2.902   4.113  11.743 -2.5541  0.1601  0.7622
   37MOL0     H 4939   2.881   4.054  11.573  1.4430  0.8433 -0.1849
   37MOL0     H 4940   2.974   4.265  11.487  0.7570  0.2825 -0.0850
   37MOL0     H 4941   3.021   4.302  11.663 -0.1400  0.0535  0.4317
   37MOL0     H 4942   3.103   4.093  11.469 -1.4279 -1.1520  0.6157
   37MOL0     H 4943   3.139   4.074  11.647 -0.5699  0.8863  0.2164
   37MOL0     H 4944   3.325   4.160  11.489  2.1688  0.0758  2.0831
   37MOL0     H 4945   3.225   4.314  11.492 -1.0579 -0.8253 -1.1958
   37MOL0     H 4946   3.263   4.478  11.697 -0.2145  0.9629  0.3655
   37MOL0     H 4947   3.439   4.573  11.834  0.0437 -0.9298 -0.6026
   37MOL0     H 4948   3.408   4.505  12.004  4.2848  1.6431  1.7438
   37MOL0     H 4949   3.609   4.372  11.990  3.7250  0.1292 -0.7423
   37MOL0     H 4950   3.652   4.460  11.846 -0.7404  0.1905 -0.2872
   37MOL0     H 4951   3.574   4.644  12.088  0.7756 -1.3350  3.0912
   37MOL0     H 4952   3.687   4.678  11.963 -2.0630  0.2043 -0.5356
   37MOL0     H 4953   3.721   4.490  12.196 -0.4040 -0.5042  0.0253
   37MOL0     H 4954   3.814   4.634  12.165 -0.2110 -3.0146  3.6033
   37MOL0     H 4955   3.985   4.253  12.034 -0.7147 -0.6640  1.3697
   37MOL0     H 4956   4.198   4.193  12.145  0.1617 -1.1767  3.6652
   37MOL0     H 4957   4.592   4.312  12.276  0.7675 -0.2295 -0.4748
   37MOL0     H 4958   4.803   4.245  12.392  0.0957  0.1151  0.3704
   37MOL0     H 4959   4.985   4.135  12.436 -2.2171 -1.8149 -2.0879
   37MOL0     H 4960   4.925   4.180  12.603  0.5425  0.1755  0.3734
   37MOL0     H 4961   5.155   4.097  12.621 -0.4255  0.9920 -0.7396
   37MOL0     H 4962   5.031   3.997  12.707  0.0640 -3.4048 -0.2669
   37MOL0     H 4963   5.060   3.814  12.577  1.1328 -0.9226  1.0324
   37MOL0     H 4964   5.057   3.906  12.429 -0.4084  2.3347  0.2908
   37MOL0     H 4965   5.310   3.882  12.614 -0.9156  4.3494  0.3292
   37MOL0     H 4966   5.296   3.966  12.449  0.6313 -0.7666 -2.1791
   37MOL0     H 4967   5.249   3.764  12.348 -0.5591 -1.6712 -0.0462
   37MOL0     H 4968   5.236   3.674  12.494 -2.1988  1.2932  0.0620
   37MOL0     H 4969   5.484   3.818  12.388  0.0093 -0.3540 -0.8796
   37MOL0     H 4970   5.481   3.736  12.551 -2.3871  1.3965  0.4481
   37MOL0     H 4971   5.562   3.606  12.337  0.9110  0.5734  1.1864
   37MOL0     H 4972   5.392   3.604  12.283 -0.0923  1.5864  0.5637
   37MOL0     H 4973   5.333   3.472  12.469 -0.2833  2.9917 -0.8920
   37MOL0     H 4974   5.482   3.386  12.412  1.7969 -1.2969  2.6853
   37MOL0     H 4975   4.595   3.885  12.540  0.2954 -0.1754 -1.0241
   37MOL0     H 4976   4.389   3.973  12.441  0.4626 -1.1587  0.4796
   37MOL0     H 4977   4.201   4.591  12.326 -1.2419  0.0720  0.7707
   37MOL0     H 4978   4.013   4.656  12.194  0.6115  1.1386  2.4827
   37MOL0     H 4979   2.314   4.096  11.421  0.5880  1.6273  0.7171
   37MOL0     H 4980   2.098   4.005  11.402  3.2810  0.7922  2.7832
   37MOL0     H 4981   1.663   4.205  11.218  2.4767 -1.2581  0.4724
   37MOL0     H 4982   1.427   4.202  11.160 -0.7929 -0.8219  2.8070
   37MOL0     H 4983   1.324   3.878  10.888  0.9941  0.8004  0.3433
   37MOL0     H 4984   1.208   4.000  10.867  0.0494 -1.7063 -1.6912
   37MOL0     H 4985   1.183   3.760  11.054 -0.5019 -1.0891 -2.9565
   37MOL0     H 4986   1.108   3.780  10.911 -0.9144 -0.3971  0.3328
   37MOL0     H 4987   0.986   3.987  10.983  1.8128 -0.2957 -1.4946
   37MOL0     H 4988   1.045   3.977  11.145 -0.0822 -0.7161 -0.4572
   37MOL0     H 4989   0.846   3.885  11.177 -0.2263  0.8456 -0.8104
   37MOL0     H 4990   0.842   3.800  11.026  1.1288  2.4372 -1.4079
   37MOL0     H 4991   1.089   3.556  11.287  2.3009  1.1891  1.7225
   37MOL0     H 4992   1.478   3.801  10.994 -1.2796 -0.5747  0.8379
   37MOL0     H 4993   1.650   3.698  11.002 -1.6158 -0.3013  1.1771
   37MOL0     H 4994   1.806   3.779  10.975 -0.0017 -3.7918 -0.4116
   37MOL0     H 4995   1.767   3.707  11.134  1.3102 -0.0704 -0.7092
   38MOL0     O 4996   4.691   4.940   0.572  0.1622 -0.6026 -0.1598
   38MOL0     C 4997   4.711   5.020   0.487 -0.3155  0.8094  0.9393
   38MOL0     O 4998   4.835   5.066   0.458  0.3913  0.4178 -0.0685
   38MOL0     C 4999   4.940   5.014   0.521 -0.3878 -0.0203  0.2374
   38MOL0     C 5000   5.029   5.101   0.579  0.5728 -0.5349  0.0017
   38MOL0     C 5001   5.147   5.066   0.638 -0.8868  0.0206 -0.5707
   38MOL0     C 5002   5.188   4.933   0.637  0.5988  1.2986  0.5065
   38MOL0     O 5003   5.305   4.896   0.698 -0.2080 -0.5585 -0.1900
   38MOL0     C 5004   5.355   4.762   0.683  0.8998  0.2474 -0.1907
   38MOL0     C 5005   5.495   4.755   0.747 -0.3071 -0.0192 -0.8628
   38MOL0     C 5006   5.596   4.855   0.675 -0.2020  0.8291  0.2989
   38MOL0     C 5007   5.736   4.832   0.736 -0.7141  0.9977 -0.1764
   38MOL0     C 5008   5.841   4.912   0.661  0.3619  0.6076  0.6578
   38MOL0     C 5009   5.810   5.068   0.689  0.2637  0.2122  0.0428
   38MOL0     C 5010   5.944   5.146   0.715  0.1766  0.3894  0.0050
   38MOL0     C 5011   6.032   5.137   0.591 -0.0153 -0.2995 -0.3252
   38MOL0     N 5012   6.153   5.211   0.608  0.1491 -0.4811  0.2160
   38MOL0     C 5013   6.203   5.296   0.512 -0.0574 -0.1137 -0.0628
   38MOL0     C 5014   6.304   5.355   0.565 -0.0304  0.9041 -0.5031
   38MOL0     C 5015   6.399   5.450   0.494 -0.3557  0.2399  0.1899
   38MOL0     C 5016   6.493   5.368   0.410  0.1349  1.2198 -0.1390
   38MOL0     C 5017   6.571   5.453   0.320  0.2706 -0.6286 -0.1080
   38MOL0     C 5018   6.663   5.383   0.221 -0.2272  0.5604 -0.2796
   38MOL0     O 5019   6.738   5.290   0.290 -0.6817  0.7777 -0.4273
   38MOL0     C 5020   6.869   5.265   0.247  0.0397  0.4068  0.3723
   38MOL0     C 5021   6.949   5.191   0.329 -0.2033  0.1683 -0.4966
   38MOL0     C 5022   7.080   5.159   0.290  0.0840 -0.2526  0.2876
   38MOL0     C 5023   7.134   5.199   0.168 -0.7249 -1.0177 -0.1859
   38MOL0     C 5024   7.270   5.179   0.124 -0.3246 -0.1369  0.2530
   38MOL0     O 5025   7.336   5.105   0.214 -0.1950  0.8961  0.2471
   38MOL0     C 5026   7.479   5.081   0.210  0.5611  0.0882 -0.7780
   38MOL0     C 5027   7.570   5.169   0.145  0.6625 -0.1263  0.7994
   38MOL0     C 5028   7.704   5.124   0.136  0.2017 -0.5207 -0.4507
   38MOL0     C 5029   7.742   4.994   0.185  0.7795 -0.1559  0.7784
   38MOL0     O 5030   7.867   4.937   0.174  0.6675 -1.2236 -0.6296
   38MOL0     C 5031   7.978   5.034   0.177 -0.1011 -0.6581 -0.0018
   38MOL0     C 5032   8.065   5.016   0.056 -0.4011  0.6001  0.8466
   38MOL0     C 5033   8.199   5.088   0.059  0.1072 -0.7252  0.0208
   38MOL0     C 5034   8.287   5.048  -0.054 -1.3034  0.4290 -0.1391
   38MOL0     C 5035   8.425   5.113  -0.059  0.2846 -0.1662  0.4730
   38MOL0     C 5036   8.515   5.021  -0.143 -0.5600 -0.7827  0.0503
   38MOL0     C 5037   8.668   5.069  -0.129  0.5092  0.3090  0.4438
   38MOL0     C 5038   8.761   4.978  -0.213  0.3183  0.1864  0.4529
   38MOL0    Cl 5039   8.775   4.816  -0.123 -0.0068 -0.5074 -0.2224
   38MOL0     C 5040   7.656   4.925   0.262 -0.9394  1.0164 -0.0127
   38MOL0     C 5041   7.524   4.969   0.279 -0.5830 -0.1504 -0.8065
   38MOL0     O 5042   7.309   5.223   0.016  0.7687 -0.2263  0.3027
   38MOL0     C 5043   7.050   5.261   0.084  0.7878  0.0003 -0.8729
   38MOL0     C 5044   6.915   5.283   0.114  0.9509 -0.2857  0.2504
   38MOL0     N 5045   6.334   5.290   0.682  0.1730 -0.3679  0.1712
   38MOL0     N 5046   6.242   5.207   0.710  0.4928  0.6593  0.2781
   38MOL0     C 5047   5.116   4.834   0.558  1.0236  0.3221  0.0804
   38MOL0     C 5048   4.993   4.879   0.500 -0.0231 -0.8461  0.2686
   38MOL0     C 5049   4.592   5.065   0.407  0.4048 -0.5305  0.6046
   38MOL0     C 5050   4.610   5.155   0.302 -0.7661 -0.2686  0.5242
   38MOL0     C 5051   4.507   5.209   0.222 -0.5261 -0.0722 -0.0140
   38MOL0     C 5052   4.374   5.177   0.257  0.1660  0.0069 -0.1849
   38MOL0     O 5053   4.259   5.216   0.184 -0.4677 -0.4105  0.4316
   38MOL0     C 5054   4.245   5.346   0.118 -0.1953 -0.1258  0.0897
   38MOL0     C 5055   4.117   5.348   0.039  0.4631  0.2615  0.9276
   38MOL0     C 5056   4.109   5.470  -0.058 -0.6547 -0.5899  0.2268
   38MOL0     C 5057   3.970   5.494  -0.132 -0.1287 -0.8475  0.1009
   38MOL0     C 5058   3.915   5.375  -0.200 -0.6483 -0.5946  0.2042
   38MOL0     C 5059   3.886   5.273  -0.259 -0.1837  0.8684  0.1738
   38MOL0     C 5060   4.358   5.097   0.370 -0.0930 -0.6840  0.2235
   38MOL0     C 5061   4.457   5.040   0.445  0.3534 -0.0602 -0.2053
   38MOL0     C 5062   4.415   4.963   0.569  0.1344 -0.1634 -0.7753
   38MOL0     H 5063   4.998   5.205   0.572 -2.2735 -1.3133 -0.1705
   38MOL0     H 5064   5.212   5.138   0.686 -1.5868 -1.2771  2.5776
   38MOL0     H 5065   5.290   4.689   0.732  0.6131  0.6820  0.0859
   38MOL0     H 5066   5.361   4.728   0.580 -2.8612 -1.0176 -0.1479
   38MOL0     H 5067   5.524   4.650   0.746 -2.4868 -1.0234  4.3270
   38MOL0     H 5068   5.480   4.778   0.853  0.9103 -1.4424 -0.3423
   38MOL0     H 5069   5.553   4.955   0.691 -1.8098  0.4165 -1.1753
   38MOL0     H 5070   5.600   4.838   0.567  0.7104 -1.3688  0.6358
   38MOL0     H 5071   5.729   4.848   0.844  0.4538  0.7082 -0.0443
   38MOL0     H 5072   5.764   4.726   0.729 -0.2895  1.0317  0.8598
   38MOL0     H 5073   5.937   4.881   0.703 -0.2052 -0.2325  1.3805
   38MOL0     H 5074   5.842   4.888   0.554 -2.6805 -1.0090  0.8914
   38MOL0     H 5075   5.761   5.112   0.601 -3.7221  1.3615  2.5861
   38MOL0     H 5076   5.747   5.078   0.777  0.0116 -2.2748  0.2055
   38MOL0     H 5077   5.990   5.104   0.804 -0.4923 -1.4030 -0.4370
   38MOL0     H 5078   5.931   5.249   0.748  1.1813  0.4931  0.0918
   38MOL0     H 5079   6.052   5.031   0.571 -0.1422 -1.1843  3.5196
   38MOL0     H 5080   5.966   5.170   0.510 -1.6806 -1.6075  0.4307
   38MOL0     H 5081   6.158   5.311   0.415  2.1542  1.4938 -0.9073
   38MOL0     H 5082   6.333   5.520   0.442  1.1026  0.2685 -1.7471
   38MOL0     H 5083   6.462   5.510   0.560 -0.5745  0.2994  0.3455
   38MOL0     H 5084   6.556   5.319   0.486 -0.1459  2.8818  1.2433
   38MOL0     H 5085   6.440   5.292   0.352  0.0452 -0.0420  1.4971
   38MOL0     H 5086   6.641   5.515   0.377  0.8474 -0.2018 -1.2390
   38MOL0     H 5087   6.507   5.526   0.270  1.1572  0.1741 -0.1116
   38MOL0     H 5088   6.720   5.470   0.186  2.2971 -0.7152  0.4504
   38MOL0     H 5089   6.603   5.349   0.136  1.6313 -0.5664 -1.1892
   38MOL0     H 5090   6.912   5.163   0.428  0.2473  0.9004 -0.1127
   38MOL0     H 5091   7.131   5.097   0.363 -1.7407  0.8364  2.6526
   38MOL0     H 5092   7.535   5.263   0.104 -1.4138 -0.0722  2.5279
   38MOL0     H 5093   7.777   5.180   0.079 -0.3354  0.5541 -0.1049
   38MOL0     H 5094   7.951   5.140   0.180  0.6652 -0.4608  0.2630
   38MOL0     H 5095   8.032   5.015   0.270 -2.1732  2.4809  2.0600
   38MOL0     H 5096   8.073   4.907   0.049 -2.9878  0.0828  3.4917
   38MOL0     H 5097   8.014   5.053  -0.033 -1.2115 -3.7083 -0.6958
   38MOL0     H 5098   8.180   5.196   0.062  0.0874 -0.7500  2.0221
   38MOL0     H 5099   8.256   5.060   0.148  1.2038  1.2463  0.0058
   38MOL0     H 5100   8.242   5.088  -0.146 -1.1726  1.8239  0.3834
   38MOL0     H 5101   8.284   4.940  -0.071 -2.3165  0.6194 -1.3290
   38MOL0     H 5102   8.464   5.121   0.043  1.9057 -2.0956  0.0793
   38MOL0     H 5103   8.419   5.211  -0.106  0.9510  0.4935  1.7162
   38MOL0     H 5104   8.501   4.921  -0.099 -2.6381 -0.8484 -0.6416
   38MOL0     H 5105   8.491   5.024  -0.250 -0.4807 -0.3109  0.0439
   38MOL0     H 5106   8.697   5.078  -0.024  2.0826  2.8928 -0.1149
   38MOL0     H 5107   8.677   5.171  -0.167 -1.2611 -0.2389 -1.6041
   38MOL0     H 5108   8.733   4.973  -0.318 -1.6088  1.7912  0.8351
   38MOL0     H 5109   8.864   5.017  -0.214  1.6472 -2.8575  2.2336
   38MOL0     H 5110   7.692   4.830   0.300 -0.3318  1.8834  1.6879
   38MOL0     H 5111   7.464   4.898   0.337  2.1334 -1.2846  0.7863
   38MOL0     H 5112   7.069   5.287  -0.020  0.3865  0.9891 -0.7081
   38MOL0     H 5113   6.862   5.341   0.038  0.3417  1.4351  1.9105
   38MOL0     H 5114   5.138   4.728   0.557 -0.0262 -0.0240  2.8668
   38MOL0     H 5115   4.943   4.808   0.435  0.2879 -0.7746 -0.0539
   38MOL0     H 5116   4.713   5.182   0.280 -1.3499  0.8069 -1.1461
   38MOL0     H 5117   4.525   5.276   0.138 -0.5270 -1.4909 -1.1892
   38MOL0     H 5118   4.335   5.364   0.059 -1.0843  0.3859 -1.1404
   38MOL0     H 5119   4.242   5.433   0.185  0.2916  0.8464 -1.1193
   38MOL0     H 5120   4.027   5.360   0.100  1.4525  4.1205  1.9483
   38MOL0     H 5121   4.106   5.251  -0.009  1.1184 -0.2463  1.7685
   38MOL0     H 5122   4.189   5.462  -0.133  0.3000 -3.7618  1.4049
   38MOL0     H 5123   4.132   5.559   0.002  3.0148  0.0859 -1.8628
   38MOL0     H 5124   3.897   5.523  -0.056 -0.1030 -1.9304  0.5451
   38MOL0     H 5125   3.971   5.574  -0.207 -1.0418 -0.3173  0.6372
   38MOL0     H 5126   3.864   5.184  -0.314 -0.7357  1.3424 -0.3902
   38MOL0     H 5127   4.255   5.077   0.399 -1.2519  0.5608 -2.6470
   38MOL0     H 5128   4.308   4.979   0.586  0.9369  4.7175  1.4960
   38MOL0     H 5129   4.432   4.859   0.542 -0.7749 -0.0680 -1.8121
   38MOL0     H 5130   4.472   4.983   0.660 -3.2948 -0.2894  1.5859
   39MOL0     O 5131   5.206   1.813   3.772  0.9450 -0.8678  0.4109
   39MOL0     C 5132   5.114   1.891   3.744  0.0309 -0.2236 -0.9149
   39MOL0     O 5133   5.100   1.956   3.622  0.2681  0.1157  0.3079
   39MOL0     C 5134   5.195   1.950   3.527  0.2350  0.0042  0.2541
   39MOL0     C 5135   5.202   1.832   3.450 -0.0571 -1.1771  0.0040
   39MOL0     C 5136   5.309   1.822   3.365 -0.1982  0.6423 -0.1713
   39MOL0     C 5137   5.405   1.922   3.348  0.6934 -0.2084  0.6536
   39MOL0     O 5138   5.504   1.894   3.260  0.1310 -0.1412  0.6644
   39MOL0     C 5139   5.623   1.969   3.281  0.4502 -0.7797  0.2048
   39MOL0     C 5140   5.738   1.890   3.221  0.7970 -0.5079 -1.0723
   39MOL0     C 5141   5.861   1.970   3.203  0.1683 -0.4864 -0.0531
   39MOL0     C 5142   5.974   1.876   3.189  0.3775  0.2898  0.2219
   39MOL0     C 5143   6.084   1.937   3.103  0.3889  0.8039 -0.3570
   39MOL0     C 5144   6.211   1.852   3.087  0.1763  0.6521 -0.7445
   39MOL0     C 5145   6.302   1.916   2.980 -0.0967 -0.1654 -0.3444
   39MOL0     C 5146   6.441   1.849   2.984  0.2430  0.6338  0.4066
   39MOL0     N 5147   6.427   1.711   2.942 -0.0594 -0.1808 -0.4462
   39MOL0     C 5148   6.430   1.660   2.815  0.5162  0.2423 -0.8399
   39MOL0     C 5149   6.416   1.526   2.825  0.3056  0.2716 -0.3201
   39MOL0     C 5150   6.407   1.427   2.714 -0.5475  0.4875  1.5387
   39MOL0     C 5151   6.457   1.493   2.574  0.4258  0.6834 -0.5366
   39MOL0     C 5152   6.439   1.388   2.467 -0.1975  1.0960  0.6615
   39MOL0     C 5153   6.448   1.443   2.322 -0.4172 -0.4782  0.3998
   39MOL0     O 5154   6.545   1.548   2.303  0.2368  1.3164 -0.1342
   39MOL0     C 5155   6.661   1.530   2.240 -0.2795  0.4053  0.9215
   39MOL0     C 5156   6.719   1.410   2.207  0.0937  0.6335  0.0272
   39MOL0     C 5157   6.843   1.404   2.138 -0.3215 -0.2661  0.0448
   39MOL0     C 5158   6.918   1.519   2.098  0.5853  0.3110 -0.3765
   39MOL0     C 5159   7.054   1.516   2.046  1.0578 -0.0572  0.8808
   39MOL0     O 5160   7.131   1.401   2.044 -0.0453  0.6589 -0.0157
   39MOL0     C 5161   7.257   1.416   2.007 -0.1548 -0.1827 -0.2392
   39MOL0     C 5162   7.282   1.422   1.866  0.1189  0.3937  0.4101
   39MOL0     C 5163   7.405   1.403   1.812 -0.6306  0.5744  0.2128
   39MOL0     C 5164   7.520   1.374   1.886 -0.0040  0.4618  0.1715
   39MOL0     O 5165   7.655   1.364   1.839  0.7666 -0.1010 -0.1615
   39MOL0     C 5166   7.656   1.333   1.696 -0.0481  0.1212  0.2216
   39MOL0     C 5167   7.787   1.259   1.667 -0.2870  0.0862 -0.4950
   39MOL0     C 5168   7.812   1.234   1.519  0.7749 -0.2406  0.4886
   39MOL0     C 5169   7.936   1.152   1.487  0.1389 -0.1605  0.4754
   39MOL0     C 5170   7.945   1.148   1.332 -0.1502  0.1344  0.5832
   39MOL0     C 5171   8.067   1.095   1.271  0.1770 -0.3488  0.6685
   39MOL0     C 5172   8.199   1.176   1.308 -0.2182  0.3382  0.1690
   39MOL0     C 5173   8.221   1.297   1.218  0.4806  0.6330  0.3126
   39MOL0    Cl 5174   8.251   1.261   1.045  0.3280  0.3000  0.2738
   39MOL0     C 5175   7.497   1.355   2.026 -0.7202 -0.0206  0.3162
   39MOL0     C 5176   7.370   1.378   2.085 -0.3430 -0.6166  0.7258
   39MOL0     O 5177   7.088   1.625   2.006 -0.4203  0.2396 -0.0443
   39MOL0     C 5178   6.859   1.638   2.147  0.6396  0.0832  0.5759
   39MOL0     C 5179   6.732   1.644   2.213 -0.1071 -0.3381 -0.1390
   39MOL0     N 5180   6.419   1.493   2.967 -0.6818 -0.1079  0.5817
   39MOL0     N 5181   6.418   1.607   3.027 -0.0428 -0.0525 -0.3907
   39MOL0     C 5182   5.380   2.046   3.413 -0.2550 -0.1366  0.5003
   39MOL0     C 5183   5.274   2.064   3.503  0.4211 -0.2548  0.6202
   39MOL0     C 5184   5.006   1.906   3.842  1.1610  0.6764  0.1724
   39MOL0     C 5185   4.876   1.920   3.797  0.4084 -0.3017  0.0800
   39MOL0     C 5186   4.769   1.927   3.884 -0.4332  0.2042  0.2948
   39MOL0     C 5187   4.788   1.920   4.018 -0.0498 -0.3515  0.1943
   39MOL0     O 5188   4.674   1.939   4.095 -0.2876 -0.0910  0.1612
   39MOL0     C 5189   4.667   1.882   4.223  0.0464  0.8479  0.1826
   39MOL0     C 5190   4.527   1.891   4.272 -0.0935 -0.8756 -0.2903
   39MOL0     C 5191   4.444   1.791   4.187 -0.3973  0.4724 -0.0082
   39MOL0     C 5192   4.293   1.784   4.215 -0.2655  0.1695 -0.0221
   39MOL0     C 5193   4.227   1.911   4.187  0.3119 -0.2077 -0.5100
   39MOL0     C 5194   4.176   2.023   4.166  0.5539 -0.3837 -0.5627
   39MOL0     C 5195   4.920   1.915   4.070  0.0938 -0.3718  0.2784
   39MOL0     C 5196   5.029   1.908   3.978  0.7729 -1.2453  0.2587
   39MOL0     C 5197   5.160   1.903   4.047 -0.0883  0.8525 -0.1388
   39MOL0     H 5198   5.133   1.753   3.477  1.0165 -1.2246  2.9592
   39MOL0     H 5199   5.319   1.727   3.313  0.5073  0.4250  0.3343
   39MOL0     H 5200   5.609   2.068   3.235 -0.4354  0.7011  3.3721
   39MOL0     H 5201   5.655   1.994   3.382 -1.3764  0.4776  0.5184
   39MOL0     H 5202   5.706   1.841   3.129  0.1390 -1.2144 -0.4730
   39MOL0     H 5203   5.756   1.814   3.298 -1.6707  0.6588  0.7910
   39MOL0     H 5204   5.882   2.042   3.283 -1.2787 -0.5778  0.4286
   39MOL0     H 5205   5.838   2.027   3.112  0.3712 -0.4193 -0.0633
   39MOL0     H 5206   6.024   1.849   3.283  2.8777 -5.1948 -2.2349
   39MOL0     H 5207   5.947   1.781   3.141  0.8406  1.7942 -3.2685
   39MOL0     H 5208   6.042   1.953   3.003  0.5246  1.3960 -0.3226
   39MOL0     H 5209   6.115   2.030   3.151  5.6371 -0.7816 -0.0209
   39MOL0     H 5210   6.264   1.842   3.182 -1.2011  0.2519  0.0112
   39MOL0     H 5211   6.186   1.752   3.050  0.7819  0.1520  0.1776
   39MOL0     H 5212   6.324   2.021   3.005  1.3171 -0.7538  1.0877
   39MOL0     H 5213   6.257   1.900   2.882 -0.7456 -0.0544 -0.0652
   39MOL0     H 5214   6.509   1.894   2.911  2.8265 -1.1566  1.5800
   39MOL0     H 5215   6.490   1.849   3.082  1.7664  0.3623 -0.3188
   39MOL0     H 5216   6.412   1.704   2.717 -3.6669 -2.3212 -1.4759
   39MOL0     H 5217   6.461   1.336   2.742 -0.1057  1.5302  4.3786
   39MOL0     H 5218   6.301   1.404   2.697 -0.2418  0.7233 -1.2192
   39MOL0     H 5219   6.400   1.581   2.542  0.1674 -0.1448 -2.5026
   39MOL0     H 5220   6.561   1.525   2.575  0.7883 -0.4158  1.5017
   39MOL0     H 5221   6.349   1.328   2.481  1.3682 -1.0662  2.2192
   39MOL0     H 5222   6.520   1.315   2.474 -3.4436 -2.9486 -0.1084
   39MOL0     H 5223   6.356   1.496   2.295  1.9182  2.5005 -2.4490
   39MOL0     H 5224   6.466   1.364   2.248  0.5684 -1.5065  1.7041
   39MOL0     H 5225   6.674   1.313   2.227  2.8682 -0.4505  1.7858
   39MOL0     H 5226   6.887   1.310   2.108  1.2943  0.6420 -0.5664
   39MOL0     H 5227   7.201   1.443   1.797  1.0525 -3.6564 -2.2339
   39MOL0     H 5228   7.403   1.402   1.704 -2.9637 -0.3752  0.1868
   39MOL0     H 5229   7.576   1.268   1.661  0.4303  0.4524 -1.6030
   39MOL0     H 5230   7.645   1.428   1.642 -2.5999  0.4784  1.2526
   39MOL0     H 5231   7.878   1.310   1.699  1.5568 -2.1139 -1.9145
   39MOL0     H 5232   7.775   1.163   1.718  0.3863  1.0508  1.5983
   39MOL0     H 5233   7.718   1.184   1.493  1.1354 -0.8133  0.2790
   39MOL0     H 5234   7.818   1.331   1.470 -1.2513  1.6311  3.6073
   39MOL0     H 5235   7.927   1.051   1.529 -0.3497 -0.9057 -1.3485
   39MOL0     H 5236   8.027   1.190   1.534  0.9691 -2.4537  0.8656
   39MOL0     H 5237   7.942   1.250   1.294  2.0654  1.2928  3.2095
   39MOL0     H 5238   7.862   1.086   1.298  1.4035 -0.8558 -1.6278
   39MOL0     H 5239   8.078   0.990   1.302  0.3499 -0.5972 -0.1947
   39MOL0     H 5240   8.065   1.089   1.162  2.4402  1.5298  0.4304
   39MOL0     H 5241   8.286   1.113   1.289  0.2030  1.3016 -1.3044
   39MOL0     H 5242   8.196   1.211   1.411 -0.4497 -0.5669  0.4834
   39MOL0     H 5243   8.141   1.370   1.228 -0.4462 -0.6652  4.0211
   39MOL0     H 5244   8.310   1.351   1.252  0.3502  1.8581 -1.1933
   39MOL0     H 5245   7.582   1.336   2.091 -0.2842 -0.5120 -0.3844
   39MOL0     H 5246   7.367   1.367   2.193 -1.2983  2.1881  1.0648
   39MOL0     H 5247   6.917   1.730   2.144 -0.5183  1.0879  4.0024
   39MOL0     H 5248   6.682   1.738   2.235  1.0837  0.5202 -0.9064
   39MOL0     H 5249   5.433   2.140   3.399 -0.6065 -0.0930 -0.6447
   39MOL0     H 5250   5.252   2.158   3.552 -0.0276  0.3110 -0.6311
   39MOL0     H 5251   4.846   1.915   3.693 -0.9734 -2.2612  0.5140
   39MOL0     H 5252   4.668   1.933   3.844  0.0882  2.7785 -0.8505
   39MOL0     H 5253   4.738   1.937   4.286  1.6642 -0.4080 -0.4741
   39MOL0     H 5254   4.685   1.774   4.227  0.9738  1.0028  0.5404
   39MOL0     H 5255   4.495   1.995   4.272  0.7736 -0.5889  1.1449
   39MOL0     H 5256   4.532   1.857   4.376 -1.5329  1.8789  0.7721
   39MOL0     H 5257   4.484   1.695   4.220 -1.7488  0.7058  2.5374
   39MOL0     H 5258   4.453   1.821   4.082 -2.8729  1.2503 -0.0667
   39MOL0     H 5259   4.243   1.710   4.151  0.3768 -1.2557  1.0539
   39MOL0     H 5260   4.280   1.749   4.318  0.6081  1.3012  0.4913
   39MOL0     H 5261   4.128   2.115   4.140  2.1102  0.8313  0.6186
   39MOL0     H 5262   4.938   1.925   4.176  0.1294 -0.6803  0.3017
   39MOL0     H 5263   5.246   1.937   3.990  0.7200  1.2011  1.2317
   39MOL0     H 5264   5.165   1.965   4.137 -2.4940  2.5416 -1.0310
   39MOL0     H 5265   5.180   1.799   4.075 -1.1153  0.7697  0.3490
   40MOL0     O 5266   0.841   0.031   0.350  0.4853  0.5417  0.4841
   40MOL0     C 5267   0.730   0.033   0.410  0.6805 -0.4688  0.2249
   40MOL0     O 5268   0.717   0.056   0.546  0.4155  0.0856 -0.2697
   40MOL0     C 5269   0.820   0.024   0.633 -1.0316 -0.4210  0.2779
   40MOL0     C 5270   0.853   0.120   0.727  0.6468 -0.7149  0.6002
   40MOL0     C 5271   0.967   0.099   0.809 -0.3050 -0.1612 -0.1122
   40MOL0     C 5272   1.039  -0.016   0.814  0.0427  0.2771 -0.4594
   40MOL0     O 5273   1.137  -0.034   0.910  0.1836 -0.0454  0.1288
   40MOL0     C 5274   1.177  -0.168   0.940 -0.2340  0.0191 -0.0362
   40MOL0     C 5275   1.276  -0.172   1.053 -0.7520 -0.2029 -0.3643
   40MOL0     C 5276   1.410  -0.097   1.021 -0.2790  0.3316  0.0561
   40MOL0     C 5277   1.518  -0.125   1.128 -0.7254  0.5707 -0.7803
   40MOL0     C 5278   1.641  -0.036   1.110 -0.5288  0.8325 -0.8460
   40MOL0     C 5279   1.742  -0.071   1.219 -0.3539 -0.6520 -0.0582
   40MOL0     C 5280   1.873   0.026   1.216  0.0232  0.2490 -0.6108
   40MOL0     C 5281   1.961  -0.011   1.097  0.1793 -0.5585  0.2414
   40MOL0     N 5282   2.015  -0.142   1.122  0.2922 -0.0686 -0.4753
   40MOL0     C 5283   2.083  -0.182   1.234 -0.1895 -0.6696 -0.5649
   40MOL0     C 5284   2.128  -0.304   1.195  1.0157  0.1431  0.2803
   40MOL0     C 5285   2.212  -0.405   1.268  0.0736 -0.4225  0.5046
   40MOL0     C 5286   2.361  -0.354   1.275 -0.1709  0.2023  0.4878
   40MOL0     C 5287   2.461  -0.464   1.292  0.1371  0.4965  0.2297
   40MOL0     C 5288   2.608  -0.418   1.273  0.7595 -0.2549  0.1735
   40MOL0     O 5289   2.677  -0.537   1.265 -0.5847  0.3405  0.4310
   40MOL0     C 5290   2.810  -0.535   1.279 -1.1111  0.2663 -0.2078
   40MOL0     C 5291   2.866  -0.658   1.261  0.2001 -0.1052  0.3968
   40MOL0     C 5292   3.002  -0.671   1.255  0.7034  0.6190 -0.1088
   40MOL0     C 5293   3.080  -0.554   1.257  0.6065 -0.3041  0.0525
   40MOL0     C 5294   3.231  -0.568   1.244 -0.1196  0.8527 -0.3240
   40MOL0     O 5295   3.277  -0.697   1.192 -0.1238  0.1476  0.4240
   40MOL0     C 5296   3.413  -0.703   1.201 -1.6496  0.3622  0.5360
   40MOL0     C 5297   3.471  -0.725   1.325 -0.3689  0.5227  0.5014
   40MOL0     C 5298   3.605  -0.730   1.334 -0.3648  0.4342  0.8289
   40MOL0     C 5299   3.683  -0.709   1.219 -0.4674  0.0961  0.3849
   40MOL0     O 5300   3.824  -0.703   1.228  0.3030 -0.6609  0.6030
   40MOL0     C 5301   3.887  -0.655   1.353 -0.0536 -0.2676 -0.1418
   40MOL0     C 5302   4.044  -0.641   1.327  0.2264 -0.5838  0.7354
   40MOL0     C 5303   4.119  -0.560   1.428 -0.7000  0.9431  0.4714
   40MOL0     C 5304   4.116  -0.413   1.392 -0.0804  0.8817  0.0850
   40MOL0     C 5305   4.158  -0.335   1.512 -0.7255 -0.4476 -0.3445
   40MOL0     C 5306   4.304  -0.347   1.552 -0.2700 -0.2390 -0.8803
   40MOL0     C 5307   4.387  -0.242   1.485  0.3522 -0.5566 -0.6281
   40MOL0     C 5308   4.533  -0.255   1.528  0.8131 -0.8564 -0.3026
   40MOL0    Cl 5309   4.628  -0.110   1.494  0.2690  0.5475 -0.2513
   40MOL0     C 5310   3.625  -0.694   1.101  0.5588 -0.2055  0.3839
   40MOL0     C 5311   3.490  -0.695   1.086  0.1835 -0.5613 -0.6311
   40MOL0     O 5312   3.302  -0.478   1.282 -0.1145  0.2023 -0.2861
   40MOL0     C 5313   3.021  -0.425   1.279 -0.8715 -0.3406 -0.5969
   40MOL0     C 5314   2.885  -0.417   1.297 -0.2489  0.1777 -0.1984
   40MOL0     N 5315   2.078  -0.339   1.070  0.6325 -1.0200 -0.3195
   40MOL0     N 5316   2.014  -0.238   1.026 -0.3211 -0.0291 -0.1728
   40MOL0     C 5317   1.001  -0.116   0.721  0.1421  0.2025 -0.7234
   40MOL0     C 5318   0.895  -0.095   0.626  0.0358 -0.0203 -0.1185
   40MOL0     C 5319   0.596   0.018   0.333 -1.3816  0.3171 -0.9700
   40MOL0     C 5320   0.477  -0.008   0.415  0.2193 -0.0449  0.7426
   40MOL0     C 5321   0.343  -0.011   0.356 -0.8141 -0.0604  0.1595
   40MOL0     C 5322   0.336  -0.019   0.211 -0.4495  0.2815  0.1205
   40MOL0     O 5323   0.226  -0.040   0.144 -0.0413 -0.2474 -0.0585
   40MOL0     C 5324   0.104  -0.015   0.213 -0.1354 -0.5248  0.3839
   40MOL0     C 5325   0.089   0.131   0.241  1.0873  0.5139 -0.2165
   40MOL0     C 5326   0.102   0.215   0.111  0.4553  1.0270  0.1723
   40MOL0     C 5327   0.090   0.360   0.153  0.0458 -0.3340  0.0478
   40MOL0     C 5328   0.044   0.437   0.036  0.5507 -0.1776 -0.0535
   40MOL0     C 5329  -0.006   0.507  -0.045  0.2849 -0.2525 -0.5745
   40MOL0     C 5330   0.456  -0.004   0.136 -0.4303  0.6027 -0.5207
   40MOL0     C 5331   0.585   0.008   0.191 -0.4821  0.9793  0.0115
   40MOL0     C 5332   0.696   0.002   0.088 -0.3169 -0.1622 -0.1847
   40MOL0     H 5333   0.791   0.209   0.724  1.0689 -0.3156  2.1779
   40MOL0     H 5334   0.999   0.177   0.877 -2.0761 -1.2423  2.0764
   40MOL0     H 5335   1.097  -0.227   0.987  0.5825 -2.8664 -2.0644
   40MOL0     H 5336   1.220  -0.222   0.856 -0.1740 -2.6442  1.5999
   40MOL0     H 5337   1.297  -0.276   1.077 -1.9990  0.1441  2.7824
   40MOL0     H 5338   1.239  -0.133   1.149  0.5010 -1.0041  0.4681
   40MOL0     H 5339   1.401   0.009   0.995  0.0295  0.2875 -0.2343
   40MOL0     H 5340   1.440  -0.137   0.924 -2.2930  1.6109 -1.1612
   40MOL0     H 5341   1.473  -0.098   1.225  0.9585  1.6952 -0.2806
   40MOL0     H 5342   1.539  -0.231   1.138 -0.0743  0.7996  0.4522
   40MOL0     H 5343   1.686  -0.054   1.011 -0.6617 -0.9352 -0.6224
   40MOL0     H 5344   1.624   0.072   1.114  1.6336  1.1762  0.8564
   40MOL0     H 5345   1.692  -0.061   1.317 -0.2616 -0.3069 -0.0480
   40MOL0     H 5346   1.763  -0.178   1.209 -1.4327 -0.7910 -1.0442
   40MOL0     H 5347   1.928   0.020   1.311  0.5981  1.4317 -0.8529
   40MOL0     H 5348   1.843   0.131   1.218 -3.7356 -0.7125  0.4548
   40MOL0     H 5349   1.913  -0.006   0.999 -0.6693 -1.7519  0.5600
   40MOL0     H 5350   2.045   0.058   1.101 -1.3707  1.3841  2.7015
   40MOL0     H 5351   2.102  -0.134   1.330 -0.8028 -1.2423 -0.1408
   40MOL0     H 5352   2.174  -0.435   1.366  0.5586 -1.4988  0.3860
   40MOL0     H 5353   2.226  -0.499   1.213 -0.0259 -0.8784  1.2443
   40MOL0     H 5354   2.376  -0.302   1.180 -1.4810  0.0048  0.1484
   40MOL0     H 5355   2.378  -0.291   1.362 -0.1456 -1.1593  1.5117
   40MOL0     H 5356   2.444  -0.551   1.227  1.1664  0.8625 -0.5414
   40MOL0     H 5357   2.451  -0.499   1.395 -1.6041  1.6485  0.4957
   40MOL0     H 5358   2.635  -0.360   1.361 -1.3144  0.7751  0.1839
   40MOL0     H 5359   2.616  -0.354   1.184 -0.9340  0.4265  0.4716
   40MOL0     H 5360   2.795  -0.739   1.250  0.4134 -0.4698  1.6157
   40MOL0     H 5361   3.046  -0.770   1.257 -0.5250  0.0582  1.2695
   40MOL0     H 5362   3.409  -0.751   1.411  2.0266 -2.9441  1.3771
   40MOL0     H 5363   3.651  -0.725   1.432  1.4893  0.1993  0.0181
   40MOL0     H 5364   3.849  -0.556   1.379  2.5176  0.5479  0.7578
   40MOL0     H 5365   3.862  -0.719   1.438 -2.0641  0.9096  0.2293
   40MOL0     H 5366   4.084  -0.743   1.320 -0.2740 -0.8231  1.2633
   40MOL0     H 5367   4.070  -0.594   1.232  1.1355  0.6438  1.5626
   40MOL0     H 5368   4.079  -0.587   1.526 -1.6167  1.2579  0.1924
   40MOL0     H 5369   4.219  -0.606   1.431 -1.5731 -1.0095  2.5274
   40MOL0     H 5370   4.012  -0.401   1.362  0.2863 -1.3914 -2.6048
   40MOL0     H 5371   4.179  -0.392   1.305 -0.1245  0.9073  0.0592
   40MOL0     H 5372   4.104  -0.378   1.597  0.3120  1.0483  1.1376
   40MOL0     H 5373   4.132  -0.231   1.487  1.2088  0.0593 -0.4207
   40MOL0     H 5374   4.308  -0.344   1.661  0.2551 -2.2100 -0.7972
   40MOL0     H 5375   4.342  -0.444   1.518  1.1881  0.5251 -1.5361
   40MOL0     H 5376   4.347  -0.146   1.518 -1.0183 -1.8477  1.7526
   40MOL0     H 5377   4.373  -0.249   1.376  1.6591 -0.4139 -0.8172
   40MOL0     H 5378   4.533  -0.265   1.637  1.8609  3.7788  0.3432
   40MOL0     H 5379   4.578  -0.348   1.492  2.2778 -0.2979  0.0335
   40MOL0     H 5380   3.685  -0.696   1.011  0.2882 -0.5601  0.2059
   40MOL0     H 5381   3.437  -0.694   0.991 -3.6726  0.3890  1.3254
   40MOL0     H 5382   3.074  -0.331   1.268  0.4993 -0.9841  0.1905
   40MOL0     H 5383   2.852  -0.315   1.318 -0.2826 -0.1208  1.2836
   40MOL0     H 5384   1.048  -0.214   0.727  0.5947  0.4393 -0.2911
   40MOL0     H 5385   0.858  -0.167   0.554  0.8724 -0.5980  0.0128
   40MOL0     H 5386   0.474  -0.031   0.521 -0.2959 -2.6530  0.2362
   40MOL0     H 5387   0.256  -0.021   0.420 -1.4434 -2.7170 -0.9976
   40MOL0     H 5388   0.095  -0.077   0.302  0.2836 -0.3219  0.5704
   40MOL0     H 5389   0.019  -0.036   0.147  0.5559  2.7930 -1.7954
   40MOL0     H 5390   0.167   0.150   0.315  0.3657  0.4492  0.5772
   40MOL0     H 5391  -0.009   0.142   0.289  0.1966 -1.0872 -1.5197
   40MOL0     H 5392   0.018   0.201   0.042  2.3675  0.3060 -2.1908
   40MOL0     H 5393   0.196   0.187   0.062  0.2262 -0.6509  0.6292
   40MOL0     H 5394   0.007   0.384   0.219 -0.7888  0.4108 -1.2301
   40MOL0     H 5395   0.176   0.393   0.212 -0.9063 -0.7950  1.7369
   40MOL0     H 5396  -0.030   0.578  -0.122  0.6495  1.7539  1.0715
   40MOL0     H 5397   0.438   0.000   0.029 -2.0826  0.9502 -0.2545
   40MOL0     H 5398   0.778  -0.053   0.134 -1.7728  0.7606  3.8600
   40MOL0     H 5399   0.674  -0.043  -0.010  0.9135 -0.0464 -0.5233
   40MOL0     H 5400   0.743   0.097   0.063 -1.9972  0.9026  0.5873
   41MOL0     O 5401   3.354   1.865   1.686 -0.5281 -0.2456  0.0330
   41MOL0     C 5402   3.354   1.906   1.574  0.6188 -0.3618  0.8150
   41MOL0     O 5403   3.461   1.960   1.505  0.0453 -0.1585  0.2300
   41MOL0     C 5404   3.582   1.940   1.554 -1.0487  0.3508 -0.9583
   41MOL0     C 5405   3.633   1.812   1.572 -0.2542  0.9390 -0.6065
   41MOL0     C 5406   3.758   1.787   1.636  0.4019  0.2228 -0.4726
   41MOL0     C 5407   3.834   1.898   1.685 -0.7995  0.4427 -0.6456
   41MOL0     O 5408   3.953   1.862   1.746  0.8560  0.1451 -0.3255
   41MOL0     C 5409   4.031   1.960   1.818 -0.2013  0.6221 -0.1790
   41MOL0     C 5410   4.170   1.900   1.837  1.2551  0.0085  0.7827
   41MOL0     C 5411   4.256   1.878   1.711  1.4532 -0.2821 -1.0881
   41MOL0     C 5412   4.367   1.797   1.763  0.0538 -0.0139  0.2538
   41MOL0     C 5413   4.472   1.763   1.657  0.1482  0.4164  0.7788
   41MOL0     C 5414   4.586   1.690   1.701  0.2444  0.5576 -0.2690
   41MOL0     C 5415   4.680   1.641   1.589 -0.5731 -0.1112  0.6743
   41MOL0     C 5416   4.786   1.558   1.653 -0.1352  0.9581  0.0363
   41MOL0     N 5417   4.858   1.472   1.548  0.0482 -0.3347 -0.3956
   41MOL0     C 5418   4.897   1.343   1.566 -0.2754  0.0079  0.5688
   41MOL0     C 5419   4.937   1.300   1.442 -0.2072 -0.3256 -0.2041
   41MOL0     C 5420   4.985   1.171   1.407 -0.2889 -0.3737 -0.0291
   41MOL0     C 5421   5.142   1.185   1.390 -0.2614  0.2854  0.1031
   41MOL0     C 5422   5.221   1.159   1.518 -0.3611 -0.0397 -0.2188
   41MOL0     C 5423   5.371   1.170   1.499 -0.0677  0.0914  0.6060
   41MOL0     O 5424   5.424   1.210   1.625  0.3991  0.0414 -0.4419
   41MOL0     C 5425   5.559   1.208   1.639  0.1263  0.4348  0.0913
   41MOL0     C 5426   5.585   1.216   1.773  0.2518 -0.6074  0.7867
   41MOL0     C 5427   5.715   1.206   1.820 -0.1906  1.0043 -0.5591
   41MOL0     C 5428   5.824   1.188   1.734 -0.7114 -0.5452  0.4480
   41MOL0     C 5429   5.962   1.169   1.773  0.1886 -0.1294 -0.3650
   41MOL0     O 5430   6.057   1.118   1.682  0.4567 -0.7714 -0.8144
   41MOL0     C 5431   6.188   1.101   1.712 -0.2341 -0.9677 -0.0450
   41MOL0     C 5432   6.281   1.124   1.605  0.6862  0.1782  0.6079
   41MOL0     C 5433   6.416   1.120   1.616 -0.2539  0.8540  0.4731
   41MOL0     C 5434   6.467   1.082   1.739 -0.7335  0.5790 -0.1037
   41MOL0     O 5435   6.603   1.088   1.752  0.1201  0.1803 -0.5843
   41MOL0     C 5436   6.664   1.075   1.886  0.7372 -0.2604 -0.0681
   41MOL0     C 5437   6.798   1.136   1.888 -0.3006  0.1934 -0.3441
   41MOL0     C 5438   6.903   1.098   1.771  1.0801 -0.0985  1.0329
   41MOL0     C 5439   7.044   1.136   1.792 -0.1619  0.4441 -0.1074
   41MOL0     C 5440   7.139   1.032   1.731  0.0720 -0.1391 -0.0974
   41MOL0     C 5441   7.286   1.067   1.731  0.1945 -0.5786 -0.4564
   41MOL0     C 5442   7.368   0.953   1.695 -0.8345  0.4868 -0.7506
   41MOL0     C 5443   7.504   0.996   1.656 -0.1986 -0.1861 -0.3164
   41MOL0    Cl 5444   7.600   0.870   1.585  0.1991 -0.0151  0.0483
   41MOL0     C 5445   6.383   1.048   1.842  0.6469 -0.9383  0.9121
   41MOL0     C 5446   6.243   1.058   1.829 -0.1704 -0.6879 -0.4240
   41MOL0     O 5447   5.979   1.193   1.894 -0.1005  0.2300  0.3372
   41MOL0     C 5448   5.785   1.188   1.594 -0.2549  0.1779 -0.6015
   41MOL0     C 5449   5.651   1.195   1.546  0.0700 -1.3064  0.5572
   41MOL0     N 5450   4.932   1.410   1.361 -0.3547 -0.7719 -0.6652
   41MOL0     N 5451   4.891   1.516   1.426 -0.8881  0.4732 -0.4458
   41MOL0     C 5452   3.780   2.026   1.679 -0.5790  0.7508  0.3524
   41MOL0     C 5453   3.657   2.045   1.610 -0.0870  0.0467 -0.2513
   41MOL0     C 5454   3.223   1.903   1.510  0.6193 -0.3177 -0.9228
   41MOL0     C 5455   3.215   1.974   1.389  0.7182 -0.2585  0.2040
   41MOL0     C 5456   3.101   1.988   1.315  0.3390  0.4870  1.1386
   41MOL0     C 5457   2.984   1.940   1.365 -0.3428 -0.6421 -0.6614
   41MOL0     O 5458   2.872   1.966   1.293 -0.1829 -1.0014  0.6495
   41MOL0     C 5459   2.742   1.970   1.350  0.3323 -0.3883 -1.2627
   41MOL0     C 5460   2.729   2.079   1.461 -0.3185  0.0342  0.5578
   41MOL0     C 5461   2.587   2.107   1.501 -0.7727 -1.1073 -0.0295
   41MOL0     C 5462   2.576   2.217   1.608 -0.0034  0.4731  0.0238
   41MOL0     C 5463   2.439   2.267   1.615 -0.7732 -0.4945 -0.7177
   41MOL0     C 5464   2.327   2.316   1.615 -0.5113  0.0951  0.3867
   41MOL0     C 5465   2.991   1.860   1.480 -0.7775  0.4808 -0.7311
   41MOL0     C 5466   3.109   1.835   1.557 -0.0880  0.4585  0.0727
   41MOL0     C 5467   3.102   1.747   1.676  0.1144 -0.3795  0.2874
   41MOL0     H 5468   3.577   1.738   1.516 -0.4525  0.2968  0.4152
   41MOL0     H 5469   3.799   1.689   1.662  0.8441  0.7058  0.7516
   41MOL0     H 5470   4.034   2.057   1.767 -0.1165  1.9750  2.2401
   41MOL0     H 5471   3.992   1.978   1.918  3.3001  3.0486  0.9381
   41MOL0     H 5472   4.149   1.807   1.891  2.3327 -0.5078  0.3378
   41MOL0     H 5473   4.227   1.970   1.899 -0.5003  1.6300  0.6855
   41MOL0     H 5474   4.292   1.973   1.670  1.3288 -1.1076 -3.2376
   41MOL0     H 5475   4.196   1.826   1.636  0.6523 -0.7916 -0.1165
   41MOL0     H 5476   4.416   1.851   1.845  0.5587  0.0014 -0.0529
   41MOL0     H 5477   4.335   1.701   1.802  2.9742 -1.3656 -0.4371
   41MOL0     H 5478   4.420   1.710   1.577 -0.2376  0.4880  0.9779
   41MOL0     H 5479   4.506   1.857   1.616  1.0368  0.6222  1.9399
   41MOL0     H 5480   4.639   1.748   1.777 -1.4013  3.4044 -1.1713
   41MOL0     H 5481   4.546   1.597   1.744 -1.2201  0.0936 -2.4846
   41MOL0     H 5482   4.712   1.728   1.531 -1.2200 -1.0600 -1.1871
   41MOL0     H 5483   4.630   1.579   1.514  0.8221 -0.2590 -0.1731
   41MOL0     H 5484   4.851   1.631   1.703  1.7636  0.4835 -1.5912
   41MOL0     H 5485   4.744   1.496   1.732 -1.1088 -1.3501 -2.1793
   41MOL0     H 5486   4.897   1.292   1.662 -0.9153 -0.2499  0.4345
   41MOL0     H 5487   4.963   1.090   1.478 -2.8196 -0.2880 -0.6144
   41MOL0     H 5488   4.944   1.151   1.308  2.4725  1.4661 -1.6701
   41MOL0     H 5489   5.171   1.116   1.310 -1.0356  0.5167 -0.3851
   41MOL0     H 5490   5.168   1.285   1.352 -0.1240 -0.6513 -2.4771
   41MOL0     H 5491   5.200   1.060   1.560 -2.4882  0.3053 -0.3303
   41MOL0     H 5492   5.189   1.236   1.589  3.0073  1.8298 -0.5284
   41MOL0     H 5493   5.386   1.242   1.417 -1.4635 -0.5320 -0.2446
   41MOL0     H 5494   5.419   1.080   1.460 -2.1827  0.3946 -3.2501
   41MOL0     H 5495   5.506   1.218   1.847 -0.5390  0.7004 -0.0576
   41MOL0     H 5496   5.721   1.205   1.929  0.8311 -0.3269 -0.6047
   41MOL0     H 5497   6.226   1.157   1.517 -0.7482 -1.0320  1.0038
   41MOL0     H 5498   6.479   1.142   1.530  0.1792 -2.0063 -0.0436
   41MOL0     H 5499   6.608   1.129   1.963  2.0580  1.9450 -0.5746
   41MOL0     H 5500   6.662   0.969   1.912  0.0163 -0.0882  0.6151
   41MOL0     H 5501   6.792   1.245   1.897  2.8127  0.6742 -2.2863
   41MOL0     H 5502   6.850   1.115   1.982 -1.0077 -1.2576 -0.2569
   41MOL0     H 5503   6.895   0.994   1.740  1.3834  0.6315 -1.6926
   41MOL0     H 5504   6.873   1.144   1.676 -0.8015 -2.2882  0.4838
   41MOL0     H 5505   7.063   1.148   1.899 -0.8964  4.5183 -0.2971
   41MOL0     H 5506   7.054   1.229   1.736  0.9752 -0.1281 -0.8970
   41MOL0     H 5507   7.093   1.021   1.632  0.2588  4.1734 -0.8472
   41MOL0     H 5508   7.123   0.939   1.786  0.6063 -0.8833 -1.1507
   41MOL0     H 5509   7.303   1.146   1.657 -0.5768  1.6249  1.5605
   41MOL0     H 5510   7.310   1.118   1.825 -0.0236  0.3342 -0.8840
   41MOL0     H 5511   7.325   0.910   1.604 -0.3833  0.3107 -0.8866
   41MOL0     H 5512   7.377   0.879   1.775  0.4345  0.1227 -1.1981
   41MOL0     H 5513   7.510   1.072   1.578  1.9455  2.3162  2.0878
   41MOL0     H 5514   7.558   1.027   1.745 -0.7053 -1.7245  0.5631
   41MOL0     H 5515   6.419   1.011   1.938 -0.5563  1.4687  2.3946
   41MOL0     H 5516   6.178   1.031   1.913 -1.9667 -0.5854 -1.7214
   41MOL0     H 5517   5.867   1.181   1.523  1.6365  0.1012  1.4845
   41MOL0     H 5518   5.621   1.197   1.441  1.2367  0.2914  0.2041
   41MOL0     H 5519   3.829   2.113   1.722 -1.6931  1.2994  0.5404
   41MOL0     H 5520   3.618   2.147   1.617 -1.1572 -0.3212 -0.5594
   41MOL0     H 5521   3.302   2.027   1.351 -0.6072 -0.5329 -3.6673
   41MOL0     H 5522   3.110   2.049   1.226  0.8208  0.7270  1.3483
   41MOL0     H 5523   2.718   1.876   1.401 -2.2091  1.3052  0.9703
   41MOL0     H 5524   2.664   1.995   1.277  0.6368  1.3686 -1.0231
   41MOL0     H 5525   2.759   2.172   1.412  0.5695 -1.6265 -2.2825
   41MOL0     H 5526   2.795   2.059   1.546  2.3394 -2.1750 -1.8461
   41MOL0     H 5527   2.535   2.021   1.543 -2.8170  0.8409  1.7343
   41MOL0     H 5528   2.527   2.135   1.414 -0.1132 -0.2206 -0.2176
   41MOL0     H 5529   2.610   2.173   1.702  1.2324  3.0240  0.8530
   41MOL0     H 5530   2.632   2.303   1.570  0.9229 -0.6410 -1.2177
   41MOL0     H 5531   2.226   2.349   1.607 -0.5396 -0.2681 -0.9460
   41MOL0     H 5532   2.908   1.815   1.534 -0.8982  1.2771 -0.2345
   41MOL0     H 5533   3.112   1.816   1.760 -1.1412  0.8752 -0.5550
   41MOL0     H 5534   3.000   1.709   1.691 -0.0294 -1.1672 -2.3263
   41MOL0     H 5535   3.171   1.663   1.674 -2.0472 -2.3296  1.8599
   42MOL0     O 5536   7.526   8.318   2.385  0.0338  0.1505  0.1357
   42MOL0     C 5537   7.599   8.332   2.486 -0.3335  0.1199 -0.5570
   42MOL0     O 5538   7.566   8.407   2.598  0.4217  0.2126  0.1238
   42MOL0     C 5539   7.439   8.434   2.622  0.2966 -0.5005  0.9157
   42MOL0     C 5540   7.394   8.567   2.611 -0.8538  0.1098 -0.2093
   42MOL0     C 5541   7.262   8.598   2.648 -1.2876  0.0301  0.3495
   42MOL0     C 5542   7.176   8.507   2.700 -0.1718 -0.1191 -0.1658
   42MOL0     O 5543   7.051   8.536   2.747 -0.4014  0.6109 -0.8317
   42MOL0     C 5544   6.980   8.651   2.693 -0.5576 -0.0960 -0.8246
   42MOL0     C 5545   6.843   8.647   2.759  0.0605 -1.0728  0.3753
   42MOL0     C 5546   6.756   8.765   2.701 -0.9128  0.0220  0.1781
   42MOL0     C 5547   6.606   8.763   2.742 -0.5092 -0.2595  0.5053
   42MOL0     C 5548   6.517   8.842   2.637  0.6783 -0.1988  0.3816
   42MOL0     C 5549   6.378   8.850   2.687  0.3731  0.6731  0.5133
   42MOL0     C 5550   6.295   8.957   2.600  0.0342  0.3401 -0.4647
   42MOL0     C 5551   6.137   8.947   2.621 -1.0012 -0.8241  0.6208
   42MOL0     N 5552   6.043   9.027   2.546 -0.2824  0.0013 -0.7457
   42MOL0     C 5553   5.931   8.997   2.477  0.0498 -0.0993 -0.1240
   42MOL0     C 5554   5.881   9.109   2.421 -0.0771  0.5312  0.3142
   42MOL0     C 5555   5.756   9.120   2.333 -1.0449 -0.0880  0.3378
   42MOL0     C 5556   5.623   9.084   2.400 -0.5520 -0.0207 -0.5467
   42MOL0     C 5557   5.563   9.181   2.502  0.6010 -0.2618  0.3066
   42MOL0     C 5558   5.625   9.178   2.645 -0.5859  0.3504  0.0680
   42MOL0     O 5559   5.596   9.050   2.707 -1.0415  1.2528 -0.4635
   42MOL0     C 5560   5.705   8.998   2.774 -0.4500  0.5339 -0.3484
   42MOL0     C 5561   5.794   9.074   2.854 -0.0564  0.3795 -0.1113
   42MOL0     C 5562   5.906   9.025   2.911 -0.1903  0.5630 -0.3398
   42MOL0     C 5563   5.947   8.894   2.875 -0.0841 -0.0652  0.2100
   42MOL0     C 5564   6.074   8.835   2.925 -0.4677 -0.3833  0.5536
   42MOL0     O 5565   6.105   8.709   2.892  0.4019 -0.0048 -0.2279
   42MOL0     C 5566   6.221   8.640   2.934  0.4864  0.7428  0.4224
   42MOL0     C 5567   6.333   8.683   2.999  0.3281  0.4847  0.2352
   42MOL0     C 5568   6.441   8.603   3.037 -1.1891  0.6641 -0.0910
   42MOL0     C 5569   6.437   8.459   3.012  0.0308  0.4703  0.2427
   42MOL0     O 5570   6.547   8.382   3.050  0.4410 -0.1635  0.5789
   42MOL0     C 5571   6.607   8.295   2.949  0.3821 -0.5347 -0.2169
   42MOL0     C 5572   6.757   8.329   2.942 -1.4444  0.2677 -0.3580
   42MOL0     C 5573   6.832   8.258   3.060  0.1374  0.4874  0.0514
   42MOL0     C 5574   6.984   8.273   3.031 -1.2522  0.1135  0.6559
   42MOL0     C 5575   7.066   8.227   3.155 -0.0260 -0.5234 -0.0954
   42MOL0     C 5576   7.206   8.176   3.131 -0.5516  0.3936  0.7288
   42MOL0     C 5577   7.318   8.287   3.120  0.1675 -0.2236  0.3157
   42MOL0     C 5578   7.443   8.233   3.066  0.0441  0.0445 -0.7799
   42MOL0    Cl 5579   7.538   8.141   3.192 -0.1965  0.5179  0.3535
   42MOL0     C 5580   6.323   8.413   2.942  0.4879  0.9609  0.2437
   42MOL0     C 5581   6.223   8.500   2.906  0.3320  0.0445  0.1076
   42MOL0     O 5582   6.152   8.915   2.978 -0.7512  0.8600  0.6288
   42MOL0     C 5583   5.863   8.817   2.797  0.2800 -0.2660 -0.0748
   42MOL0     C 5584   5.740   8.863   2.747 -0.0546 -1.0035 -0.0790
   42MOL0     N 5585   5.974   9.212   2.448  0.7124 -0.3852  0.1714
   42MOL0     N 5586   6.071   9.163   2.529  0.1992 -0.8227 -0.1914
   42MOL0     C 5587   7.220   8.370   2.711  0.2938  0.1197  0.1001
   42MOL0     C 5588   7.350   8.341   2.673  0.0471 -0.4665 -0.0267
   42MOL0     C 5589   7.740   8.287   2.491  0.4995 -0.2385 -0.1650
   42MOL0     C 5590   7.809   8.283   2.617 -0.1518 -0.1056 -0.0055
   42MOL0     C 5591   7.942   8.243   2.628 -0.5021 -0.6212 -0.4184
   42MOL0     C 5592   8.013   8.196   2.522  0.0877  0.4841  0.5640
   42MOL0     O 5593   8.132   8.143   2.528 -0.4017  0.5207  0.0506
   42MOL0     C 5594   8.210   8.157   2.648 -0.7266 -0.4120 -1.1934
   42MOL0     C 5595   8.363   8.165   2.619  0.5741 -0.7157 -0.4532
   42MOL0     C 5596   8.392   8.040   2.539 -0.2447 -0.3487  0.3173
   42MOL0     C 5597   8.412   7.913   2.622  0.3506  0.2292 -1.0722
   42MOL0     C 5598   8.288   7.841   2.665 -0.4284  0.1658 -0.4616
   42MOL0     C 5599   8.191   7.775   2.682  0.6308  0.0386 -1.0406
   42MOL0     C 5600   7.949   8.195   2.397  0.4150 -0.0397 -0.0242
   42MOL0     C 5601   7.814   8.241   2.379 -0.1959  0.2795  0.7600
   42MOL0     C 5602   7.770   8.230   2.233 -0.8778 -0.5699  0.1778
   42MOL0     H 5603   7.462   8.645   2.578 -0.8549  0.1179 -0.1928
   42MOL0     H 5604   7.241   8.704   2.634  0.5964  0.2026 -1.7687
   42MOL0     H 5605   7.018   8.752   2.711 -1.8206  0.3601 -0.5747
   42MOL0     H 5606   6.967   8.656   2.585 -1.6881  1.8963 -0.6510
   42MOL0     H 5607   6.852   8.653   2.867 -0.9331 -1.2645  0.4835
   42MOL0     H 5608   6.800   8.551   2.730 -0.5370 -0.5349 -0.6040
   42MOL0     H 5609   6.758   8.751   2.593  0.6254  0.0418  0.1783
   42MOL0     H 5610   6.806   8.860   2.724  1.1347 -0.6351 -1.2603
   42MOL0     H 5611   6.564   8.662   2.741  1.2517 -1.2447 -4.5728
   42MOL0     H 5612   6.600   8.807   2.841  0.9482  1.7050 -0.2123
   42MOL0     H 5613   6.564   8.939   2.617  1.9546 -1.2105 -1.9149
   42MOL0     H 5614   6.519   8.792   2.540  0.2970  2.6911 -1.2142
   42MOL0     H 5615   6.326   8.754   2.686 -1.4362  1.6052  0.1367
   42MOL0     H 5616   6.381   8.886   2.790  1.5619  0.2876  0.6230
   42MOL0     H 5617   6.307   8.944   2.492 -1.4258  2.5252 -0.9497
   42MOL0     H 5618   6.315   9.061   2.627 -1.2579  0.1931  1.2111
   42MOL0     H 5619   6.107   8.843   2.605 -1.0275 -1.0365  1.9343
   42MOL0     H 5620   6.106   8.964   2.724 -0.6729 -1.6333  0.8590
   42MOL0     H 5621   5.882   8.901   2.485 -1.2771  0.7107  4.0738
   42MOL0     H 5622   5.743   9.218   2.286 -0.6035 -0.9819 -1.8023
   42MOL0     H 5623   5.766   9.057   2.244  0.0168  0.4353  0.0667
   42MOL0     H 5624   5.552   9.057   2.322 -0.7019 -3.3784  0.5816
   42MOL0     H 5625   5.638   8.987   2.449 -0.5974  1.3145  2.3652
   42MOL0     H 5626   5.455   9.165   2.507 -0.0236  2.1778 -2.4111
   42MOL0     H 5627   5.574   9.281   2.458  1.8934 -0.4994  0.0281
   42MOL0     H 5628   5.571   9.249   2.708  0.1351  1.3150 -0.3860
   42MOL0     H 5629   5.732   9.200   2.644 -0.3835 -0.5176 -1.6469
   42MOL0     H 5630   5.763   9.176   2.875 -1.9901 -0.2519  0.2712
   42MOL0     H 5631   5.962   9.091   2.976 -1.3551 -1.4419  2.9639
   42MOL0     H 5632   6.338   8.787   3.031  3.1929 -0.3817  3.1089
   42MOL0     H 5633   6.514   8.654   3.100 -4.0511  2.9786  1.6156
   42MOL0     H 5634   6.582   8.191   2.970 -0.8429  0.1136  1.8509
   42MOL0     H 5635   6.559   8.321   2.855 -3.5831 -1.1887  1.4515
   42MOL0     H 5636   6.790   8.294   2.844 -2.3785 -0.5286 -0.3997
   42MOL0     H 5637   6.773   8.437   2.931  0.7535  0.2660  1.8812
   42MOL0     H 5638   6.799   8.297   3.157 -0.0837 -2.1108  1.0965
   42MOL0     H 5639   6.805   8.152   3.055 -3.9439  1.2577  1.9027
   42MOL0     H 5640   7.005   8.373   2.992 -1.4810 -0.6499 -1.5373
   42MOL0     H 5641   7.001   8.211   2.943 -1.9798  0.0854  0.5312
   42MOL0     H 5642   7.005   8.143   3.187 -0.1159 -0.0533  1.0345
   42MOL0     H 5643   7.060   8.310   3.227 -0.3689  0.4700 -1.2381
   42MOL0     H 5644   7.249   8.109   3.206  2.4962 -0.4212 -1.5389
   42MOL0     H 5645   7.209   8.115   3.041  2.4328 -0.7822  1.5147
   42MOL0     H 5646   7.337   8.318   3.223 -0.7621 -0.6844  0.6390
   42MOL0     H 5647   7.273   8.368   3.061  0.7593  0.2101  0.4459
   42MOL0     H 5648   7.426   8.167   2.981  0.1137  0.2566 -0.9611
   42MOL0     H 5649   7.513   8.304   3.020  1.6277 -1.5755 -0.9912
   42MOL0     H 5650   6.303   8.308   2.927  0.8632  0.9340 -0.0792
   42MOL0     H 5651   6.134   8.453   2.865 -0.3809  0.4346  1.1506
   42MOL0     H 5652   5.907   8.723   2.765  3.0001  0.8348  0.1747
   42MOL0     H 5653   5.670   8.816   2.679  0.1313 -0.8192 -0.4036
   42MOL0     H 5654   7.151   8.299   2.757 -0.1962  0.6994  0.2663
   42MOL0     H 5655   7.396   8.244   2.695 -2.3571 -1.6014  0.2956
   42MOL0     H 5656   7.751   8.313   2.704  0.6428 -0.3901  0.6338
   42MOL0     H 5657   7.987   8.253   2.726  0.1190  2.8571 -0.9317
   42MOL0     H 5658   8.184   8.077   2.719  1.6001 -0.2351 -0.0263
   42MOL0     H 5659   8.182   8.250   2.699 -0.8653 -1.2472  0.3340
   42MOL0     H 5660   8.417   8.170   2.714 -0.7565 -0.9160  0.3415
   42MOL0     H 5661   8.381   8.259   2.566  2.0733 -0.1808  0.9160
   42MOL0     H 5662   8.487   8.059   2.487  1.4535  0.4655  3.4864
   42MOL0     H 5663   8.327   8.029   2.452  0.8272  1.4045 -0.7732
   42MOL0     H 5664   8.472   7.835   2.576 -1.6114 -0.7980 -2.0164
   42MOL0     H 5665   8.453   7.948   2.717 -1.0576  2.2969 -1.1442
   42MOL0     H 5666   8.111   7.705   2.680 -1.6051  2.4464 -1.1876
   42MOL0     H 5667   7.996   8.151   2.309  1.0534 -0.7827  0.6777
   42MOL0     H 5668   7.851   8.217   2.162 -2.5072 -2.5231 -1.4468
   42MOL0     H 5669   7.699   8.149   2.215 -1.6249  0.2048 -0.4426
   42MOL0     H 5670   7.714   8.319   2.202 -1.7572 -0.6233  1.5204
   43MOL0     O 5671   9.304   6.490   2.954  0.1604  0.1992 -0.3183
   43MOL0     C 5672   9.281   6.606   2.935 -0.1653 -0.0053 -0.0135
   43MOL0     O 5673   9.371   6.693   2.882  0.0055 -0.3384 -0.4224
   43MOL0     C 5674   9.489   6.672   2.826 -0.3505  0.7955 -0.7152
   43MOL0     C 5675   9.543   6.544   2.788 -0.2372 -0.4481  0.5970
   43MOL0     C 5676   9.667   6.526   2.723 -0.3142  0.2916 -0.1454
   43MOL0     C 5677   9.751   6.638   2.704 -0.0772 -0.2230  0.1623
   43MOL0     O 5678   9.867   6.622   2.626 -0.4815  0.6221  0.2143
   43MOL0     C 5679   9.948   6.504   2.649 -0.1084  0.9293  0.6878
   43MOL0     C 5680  10.094   6.547   2.679  0.8431  0.5175 -0.8735
   43MOL0     C 5681  10.110   6.639   2.795  0.3198 -0.4334 -0.5231
   43MOL0     C 5682  10.263   6.667   2.819 -0.0889 -0.9015 -1.3364
   43MOL0     C 5683  10.292   6.788   2.919 -0.5157  1.3562 -0.5326
   43MOL0     C 5684  10.285   6.920   2.834  0.5596  0.1971 -0.3794
   43MOL0     C 5685  10.352   7.044   2.903 -0.3091 -0.5808 -0.8361
   43MOL0     C 5686  10.394   7.141   2.790 -0.4591 -0.2034 -0.2444
   43MOL0     N 5687  10.534   7.112   2.756  0.0076 -0.0213  0.1131
   43MOL0     C 5688  10.648   7.167   2.807 -0.9371 -0.5594 -0.2711
   43MOL0     C 5689  10.752   7.120   2.731  0.5382 -0.5803 -0.0681
   43MOL0     C 5690  10.899   7.151   2.725 -0.2032  0.1095  0.4671
   43MOL0     C 5691  10.937   7.267   2.637  0.1982  0.0133 -0.6262
   43MOL0     C 5692  10.876   7.394   2.666 -0.1801 -0.7780 -0.0170
   43MOL0     C 5693  10.970   7.512   2.641 -0.3721 -0.4970  0.5720
   43MOL0     O 5694  11.003   7.510   2.506  0.5191 -0.0194  0.7971
   43MOL0     C 5695  11.115   7.569   2.449  0.6009 -1.4316 -0.8871
   43MOL0     C 5696  11.205   7.662   2.518  0.7418  1.3038 -0.0166
   43MOL0     C 5697  11.326   7.700   2.459 -0.0835 -0.1385 -0.4292
   43MOL0     C 5698  11.357   7.646   2.332  0.7126  0.1777  0.2516
   43MOL0     C 5699  11.480   7.683   2.266 -0.3369 -0.0241  0.2817
   43MOL0     O 5700  11.511   7.630   2.151  0.4524  0.0835  0.4901
   43MOL0     C 5701  11.643   7.656   2.103  0.4757 -0.2165  0.2289
   43MOL0     C 5702  11.737   7.560   2.116 -0.1111 -0.1655 -0.3400
   43MOL0     C 5703  11.869   7.581   2.061 -0.9238 -0.4451  0.3240
   43MOL0     C 5704  11.904   7.706   1.996  0.5112  0.1943  0.0823
   43MOL0     O 5705  12.027   7.732   1.946 -0.2468  0.2386 -0.1507
   43MOL0     C 5706  12.101   7.627   1.887 -0.4128  0.0080  0.3209
   43MOL0     C 5707  12.233   7.677   1.829  0.5194  0.1247  0.3227
   43MOL0     C 5708  12.339   7.724   1.934  0.1643 -0.7128 -0.3710
   43MOL0     C 5709  12.466   7.755   1.852  0.0426 -0.1277 -0.2254
   43MOL0     C 5710  12.579   7.808   1.948 -0.4109 -1.0924 -0.5860
   43MOL0     C 5711  12.699   7.857   1.866  0.1150 -0.3367 -0.2109
   43MOL0     C 5712  12.767   7.746   1.786 -0.1942 -0.3663  1.1354
   43MOL0     C 5713  12.885   7.814   1.710 -0.8295 -0.6167  0.3590
   43MOL0    Cl 5714  12.988   7.891   1.835 -0.1403 -0.2202  0.5834
   43MOL0     C 5715  11.812   7.806   1.995  0.7920 -0.8770  0.4341
   43MOL0     C 5716  11.679   7.778   2.040 -0.3106  0.1895 -0.7109
   43MOL0     O 5717  11.560   7.743   2.333 -0.2468 -0.2774  0.3146
   43MOL0     C 5718  11.264   7.567   2.260 -0.1001 -0.2967 -0.7598
   43MOL0     C 5719  11.149   7.527   2.325 -0.4244 -0.2184  0.0254
   43MOL0     N 5720  10.707   7.026   2.647 -0.1245  0.4374  0.5295
   43MOL0     N 5721  10.580   7.024   2.665 -0.0352  0.3525  0.4470
   43MOL0     C 5722   9.710   6.765   2.744  0.0425  0.4967 -0.6355
   43MOL0     C 5723   9.580   6.783   2.802  0.5056  0.5213 -0.6562
   43MOL0     C 5724   9.139   6.658   2.952 -0.2961 -1.3656  0.1924
   43MOL0     C 5725   9.034   6.568   2.941 -0.3438  0.9113  0.6694
   43MOL0     C 5726   8.899   6.615   2.952 -0.4609  0.6474  0.0291
   43MOL0     C 5727   8.868   6.736   3.003  0.5400 -0.1520 -0.5915
   43MOL0     O 5728   8.740   6.745   3.036 -0.0937 -0.0478  0.0085
   43MOL0     C 5729   8.697   6.861   3.102  1.2813  0.6001 -0.0654
   43MOL0     C 5730   8.556   6.841   3.158  0.1476 -0.7322 -0.2040
   43MOL0     C 5731   8.507   6.968   3.224  0.6197  0.0558 -0.0841
   43MOL0     C 5732   8.361   6.944   3.269 -0.2167  0.1269  1.5229
   43MOL0     C 5733   8.300   7.060   3.317 -0.2595 -0.1855 -0.3175
   43MOL0     C 5734   8.241   7.156   3.362 -0.3831  0.6423 -0.3975
   43MOL0     C 5735   8.974   6.828   3.004 -0.1806  0.4449 -0.5894
   43MOL0     C 5736   9.105   6.798   2.970 -0.7298  0.2488 -0.3438
   43MOL0     C 5737   9.209   6.902   2.975  0.0341 -0.1137  0.3254
   43MOL0     H 5738   9.486   6.452   2.783  0.0398 -0.5882  0.0454
   43MOL0     H 5739   9.690   6.429   2.681 -3.7556 -0.5612 -0.3548
   43MOL0     H 5740   9.905   6.447   2.732 -2.7811  2.2483  0.2982
   43MOL0     H 5741   9.947   6.436   2.564  1.4017 -0.1774  1.5137
   43MOL0     H 5742  10.127   6.590   2.584 -0.7451 -0.3015 -1.8491
   43MOL0     H 5743  10.149   6.454   2.694  0.1373  0.0885 -0.8907
   43MOL0     H 5744  10.050   6.603   2.879 -2.7496  1.2970 -1.7753
   43MOL0     H 5745  10.063   6.736   2.776  1.7433 -0.0688 -2.4938
   43MOL0     H 5746  10.288   6.576   2.874 -0.6297 -0.7463 -0.8270
   43MOL0     H 5747  10.320   6.669   2.725  1.9997 -1.7431 -0.1514
   43MOL0     H 5748  10.215   6.785   2.997  0.2102 -1.3375  0.2115
   43MOL0     H 5749  10.386   6.771   2.971 -0.2187 -0.0729 -1.4773
   43MOL0     H 5750  10.334   6.909   2.737 -0.3565 -3.5041 -0.5422
   43MOL0     H 5751  10.178   6.935   2.822  0.4086  0.3034  0.9636
   43MOL0     H 5752  10.440   7.018   2.962 -1.2844 -0.0021  0.9315
   43MOL0     H 5753  10.280   7.099   2.964  2.2568  2.4497 -0.2870
   43MOL0     H 5754  10.325   7.119   2.708 -2.2291 -1.8462  1.5714
   43MOL0     H 5755  10.377   7.242   2.827 -1.4984  0.1402 -1.6024
   43MOL0     H 5756  10.660   7.249   2.877  3.1793  0.0442 -1.4246
   43MOL0     H 5757  10.926   7.172   2.829 -0.1056 -0.4608  0.5589
   43MOL0     H 5758  10.958   7.068   2.685 -1.2786  0.4655 -2.0290
   43MOL0     H 5759  11.044   7.282   2.657 -0.0389  1.0937 -0.1085
   43MOL0     H 5760  10.925   7.236   2.532  0.8610  2.9596 -1.6617
   43MOL0     H 5761  10.845   7.407   2.770 -2.3165 -2.9763 -0.2764
   43MOL0     H 5762  10.784   7.407   2.609 -0.9768 -0.3061  1.3310
   43MOL0     H 5763  11.050   7.520   2.715 -1.4276  1.0684  1.6146
   43MOL0     H 5764  10.914   7.605   2.658  2.5624  1.6381 -0.6000
   43MOL0     H 5765  11.158   7.693   2.610  0.5587 -2.2533  1.2765
   43MOL0     H 5766  11.387   7.778   2.504  1.9770 -1.6773 -0.4181
   43MOL0     H 5767  11.703   7.474   2.172 -0.6767  0.8897  1.0056
   43MOL0     H 5768  11.940   7.500   2.074 -1.2311 -0.2609  4.4764
   43MOL0     H 5769  12.126   7.545   1.954 -0.6322 -0.5971 -0.3253
   43MOL0     H 5770  12.041   7.580   1.808  0.8350 -1.4951  0.2090
   43MOL0     H 5771  12.269   7.587   1.779 -0.5705  0.0243 -0.3031
   43MOL0     H 5772  12.215   7.756   1.754 -2.4564 -0.2438  0.5324
   43MOL0     H 5773  12.305   7.804   2.001 -0.2708 -1.0192 -0.2189
   43MOL0     H 5774  12.366   7.645   2.005  1.6459 -0.1680 -0.3012
   43MOL0     H 5775  12.441   7.835   1.783 -0.8999  0.4182  0.7284
   43MOL0     H 5776  12.507   7.665   1.805  2.1471  0.1161  0.9737
   43MOL0     H 5777  12.603   7.734   2.026  0.7512  0.2318  0.3546
   43MOL0     H 5778  12.543   7.897   2.000 -0.2391 -0.2192 -1.9122
   43MOL0     H 5779  12.671   7.936   1.796 -0.0048  1.7284  2.0269
   43MOL0     H 5780  12.773   7.905   1.932  0.5357 -1.2134 -0.0296
   43MOL0     H 5781  12.704   7.708   1.705  0.3820  3.0390 -1.1226
   43MOL0     H 5782  12.801   7.664   1.850  1.9778 -0.0546  0.4779
   43MOL0     H 5783  12.945   7.745   1.650  0.1427  1.9757 -1.8111
   43MOL0     H 5784  12.864   7.895   1.641  0.5622 -0.9993 -0.5466
   43MOL0     H 5785  11.833   7.906   1.961  1.5067 -0.7696  1.1701
   43MOL0     H 5786  11.600   7.852   2.030 -0.4103  0.1338 -0.3492
   43MOL0     H 5787  11.285   7.522   2.164  1.2324  1.3502 -1.2910
   43MOL0     H 5788  11.082   7.457   2.277 -0.1462 -0.0332 -0.6486
   43MOL0     H 5789   9.775   6.849   2.721  1.9813 -0.8641 -0.3917
   43MOL0     H 5790   9.549   6.877   2.845 -1.0765  0.5916 -1.8520
   43MOL0     H 5791   9.050   6.463   2.916 -2.8767  0.8036 -0.8588
   43MOL0     H 5792   8.813   6.551   2.940  0.5955 -0.6513 -0.9025
   43MOL0     H 5793   8.692   6.936   3.023  2.2002 -0.3756 -1.0833
   43MOL0     H 5794   8.767   6.906   3.173  0.3860  2.3598 -0.2402
   43MOL0     H 5795   8.550   6.771   3.242  0.4955  0.7603  1.1269
   43MOL0     H 5796   8.487   6.813   3.078 -0.8822 -0.1363  0.4520
   43MOL0     H 5797   8.512   7.054   3.156  1.9370 -0.4848 -0.7036
   43MOL0     H 5798   8.568   6.989   3.313 -0.5798  0.1008  0.7531
   43MOL0     H 5799   8.295   6.913   3.187  0.6965  2.0286 -0.0094
   43MOL0     H 5800   8.354   6.856   3.333 -1.0456 -0.6568  0.3901
   43MOL0     H 5801   8.200   7.241   3.413 -0.8976  0.8776 -1.1725
   43MOL0     H 5802   8.944   6.930   3.028 -1.3377  1.1318 -4.2774
   43MOL0     H 5803   9.164   6.985   3.030 -1.1740  0.4804 -1.4788
   43MOL0     H 5804   9.300   6.872   3.030 -0.0310 -1.1008 -0.0839
   43MOL0     H 5805   9.232   6.930   2.872  2.2770  0.0379  0.8135
   44MOL0     O 5806   8.841   6.707   5.541  0.1114  0.8891  0.1247
   44MOL0     C 5807   8.737   6.677   5.473 -0.6802 -0.4673  0.9239
   44MOL0     O 5808   8.714   6.558   5.412 -0.0814  0.6568 -0.3331
   44MOL0     C 5809   8.822   6.497   5.364 -0.8938 -0.3979  0.2442
   44MOL0     C 5810   8.915   6.442   5.444  0.0541  0.3293 -0.0932
   44MOL0     C 5811   9.027   6.377   5.394  0.3109  0.5797 -0.5679
   44MOL0     C 5812   9.047   6.363   5.261 -0.6876  0.3840  0.6977
   44MOL0     O 5813   9.175   6.316   5.223  0.1330  0.7101 -0.1600
   44MOL0     C 5814   9.213   6.351   5.090  0.4463 -0.0333  0.0866
   44MOL0     C 5815   9.355   6.296   5.070 -0.9278  0.0849 -0.3359
   44MOL0     C 5816   9.369   6.154   5.049  0.0371 -0.1709 -0.0037
   44MOL0     C 5817   9.514   6.112   5.046 -0.1972  0.4956 -0.5023
   44MOL0     C 5818   9.504   5.953   5.024  0.4288  0.1867 -0.1905
   44MOL0     C 5819   9.639   5.889   4.990 -0.2009  0.4559  0.8166
   44MOL0     C 5820   9.733   5.863   5.110 -0.4508 -0.2376 -0.4524
   44MOL0     C 5821   9.827   5.735   5.089  0.2862 -0.5072  0.0726
   44MOL0     N 5822   9.928   5.744   4.973  0.3390 -0.3658 -0.1418
   44MOL0     C 5823  10.008   5.850   4.960  0.0797 -0.4264  0.7841
   44MOL0     C 5824  10.079   5.826   4.849 -0.9263  0.8499  0.4518
   44MOL0     C 5825  10.188   5.921   4.798  0.5695 -0.1546  0.2467
   44MOL0     C 5826  10.278   5.872   4.686  0.0437  0.5032  0.2336
   44MOL0     C 5827  10.337   5.736   4.716  0.1367  0.1786  0.8540
   44MOL0     C 5828  10.479   5.713   4.666  1.2285 -0.0955 -0.5617
   44MOL0     O 5829  10.571   5.788   4.748 -0.0271 -0.3258 -0.1027
   44MOL0     C 5830  10.701   5.787   4.726 -0.8402 -0.3233  0.3182
   44MOL0     C 5831  10.773   5.898   4.782  0.1967 -0.1705 -0.1188
   44MOL0     C 5832  10.907   5.887   4.775  1.1332 -0.1525  0.0536
   44MOL0     C 5833  10.981   5.787   4.711 -0.2836 -0.0719  0.7742
   44MOL0     C 5834  11.128   5.798   4.700  0.0415  1.1528 -0.0534
   44MOL0     O 5835  11.188   5.902   4.771 -0.0248  0.4395  0.2963
   44MOL0     C 5836  11.321   5.928   4.768 -0.2367 -0.4879  0.0626
   44MOL0     C 5837  11.397   5.934   4.886  0.3522  0.4622 -0.1026
   44MOL0     C 5838  11.526   5.987   4.878 -0.9589  0.1662  0.0575
   44MOL0     C 5839  11.580   6.034   4.759 -0.4130 -0.5683  0.0611
   44MOL0     O 5840  11.699   6.112   4.755 -0.1368  0.3698  0.4668
   44MOL0     C 5841  11.816   6.051   4.808  0.1484  0.0596 -0.4569
   44MOL0     C 5842  11.943   6.121   4.768  0.8555  0.2319 -0.6041
   44MOL0     C 5843  11.951   6.144   4.615  0.1710  0.8003 -0.0678
   44MOL0     C 5844  12.069   6.237   4.572  0.0934  0.0748 -0.5511
   44MOL0     C 5845  12.068   6.239   4.420  0.5937  0.8124 -0.6803
   44MOL0     C 5846  11.957   6.337   4.373  0.4862  0.7826  0.8816
   44MOL0     C 5847  11.972   6.372   4.221 -1.0990 -0.3576  0.5777
   44MOL0     C 5848  11.839   6.405   4.146 -0.2429  0.0071 -0.3282
   44MOL0    Cl 5849  11.772   6.247   4.111  0.1493  0.1386 -0.3145
   44MOL0     C 5850  11.509   6.017   4.641  0.2253 -0.3163 -0.1174
   44MOL0     C 5851  11.381   5.965   4.651  0.3462  0.2541  0.1771
   44MOL0     O 5852  11.187   5.722   4.622  0.3504  0.6017  0.5905
   44MOL0     C 5853  10.910   5.681   4.648 -0.0949  0.2453  0.1997
   44MOL0     C 5854  10.772   5.686   4.659 -0.3336  0.1120 -0.0067
   44MOL0     N 5855  10.032   5.699   4.800  0.8408  0.4864  0.2765
   44MOL0     N 5856   9.946   5.647   4.879  0.3967 -0.7880 -0.0249
   44MOL0     C 5857   8.947   6.407   5.171  0.5161  0.2252  0.1043
   44MOL0     C 5858   8.837   6.477   5.222  0.2503  0.4180 -0.7104
   44MOL0     C 5859   8.614   6.762   5.499  0.5664 -0.0087 -0.8273
   44MOL0     C 5860   8.612   6.845   5.618 -0.6480  0.7453 -0.4984
   44MOL0     C 5861   8.498   6.908   5.663  0.6587 -0.1486  0.6986
   44MOL0     C 5862   8.377   6.912   5.585  0.1740  0.3964  0.6585
   44MOL0     O 5863   8.267   6.983   5.628 -0.2368  0.1607 -0.1430
   44MOL0     C 5864   8.137   6.971   5.559 -0.4658  0.2330  0.3620
   44MOL0     C 5865   8.032   7.020   5.662  0.6168  0.7863  0.3156
   44MOL0     C 5866   7.891   6.993   5.608 -0.3750  0.0882 -0.2815
   44MOL0     C 5867   7.789   7.034   5.715 -0.7927  0.0213  0.1439
   44MOL0     C 5868   7.655   7.043   5.652  0.2120 -0.1986  0.0359
   44MOL0     C 5869   7.544   7.050   5.622  0.5537  1.0301  0.0584
   44MOL0     C 5870   8.386   6.835   5.464 -0.4434 -0.6461  0.7843
   44MOL0     C 5871   8.494   6.749   5.421  0.1713 -0.0469  1.0508
   44MOL0     C 5872   8.478   6.679   5.290 -0.0356  0.0137  0.5986
   44MOL0     H 5873   8.900   6.445   5.552  0.8116  0.2681  0.0180
   44MOL0     H 5874   9.095   6.330   5.464 -1.0535 -1.8048 -0.7097
   44MOL0     H 5875   9.150   6.312   5.009 -0.1293 -2.7418  1.7055
   44MOL0     H 5876   9.221   6.459   5.078  2.3785 -0.1764 -0.2869
   44MOL0     H 5877   9.415   6.336   5.153  3.7617  0.5156 -3.5443
   44MOL0     H 5878   9.396   6.352   4.986 -1.7668  1.3001  0.0336
   44MOL0     H 5879   9.322   6.116   4.958  1.9726 -1.8102 -0.3897
   44MOL0     H 5880   9.320   6.104   5.134  0.6321  2.8807  2.3019
   44MOL0     H 5881   9.571   6.166   4.970 -0.3262  1.9865  0.4344
   44MOL0     H 5882   9.562   6.133   5.142 -0.1253 -0.8070 -0.2354
   44MOL0     H 5883   9.469   5.897   5.111 -1.4864 -0.4639 -1.3176
   44MOL0     H 5884   9.436   5.941   4.939 -0.6294 -0.4588  0.7198
   44MOL0     H 5885   9.627   5.795   4.936 -1.7053  0.4426  1.1207
   44MOL0     H 5886   9.702   5.945   4.920 -1.3727 -0.2772 -0.8851
   44MOL0     H 5887   9.671   5.841   5.198  0.2404 -0.8697 -0.1123
   44MOL0     H 5888   9.798   5.952   5.112 -0.5069 -0.2064  0.5550
   44MOL0     H 5889   9.875   5.715   5.185 -1.1082  0.6447  1.0505
   44MOL0     H 5890   9.755   5.656   5.064  1.3464 -0.1792 -5.1868
   44MOL0     H 5891   9.998   5.942   5.017 -0.4433  1.4795 -2.1571
   44MOL0     H 5892  10.161   6.026   4.784  2.3971  0.3187  0.0486
   44MOL0     H 5893  10.272   5.923   4.867  1.5513 -0.6509 -0.8914
   44MOL0     H 5894  10.229   5.874   4.589  3.0986  2.5102 -1.4545
   44MOL0     H 5895  10.366   5.937   4.686  1.7837 -1.6956  1.8110
   44MOL0     H 5896  10.264   5.667   4.673 -2.3286  2.0654  1.7137
   44MOL0     H 5897  10.340   5.706   4.822  0.6697 -1.4383  0.4016
   44MOL0     H 5898  10.479   5.748   4.563  0.2235  3.6370  0.5251
   44MOL0     H 5899  10.507   5.608   4.679  1.8193  0.3584  2.6563
   44MOL0     H 5900  10.719   5.969   4.844  0.6105 -1.1532  1.4358
   44MOL0     H 5901  10.965   5.960   4.831  1.7471  0.4330 -1.2968
   44MOL0     H 5902  11.350   5.893   4.975 -2.4378  1.2566 -1.1182
   44MOL0     H 5903  11.590   6.009   4.962  3.0880 -3.2713 -1.7859
   44MOL0     H 5904  11.809   6.046   4.917 -0.9013  2.7828 -0.3201
   44MOL0     H 5905  11.821   5.944   4.783 -1.2377 -0.2605  0.4986
   44MOL0     H 5906  11.938   6.219   4.816 -0.4912 -0.8133  1.5252
   44MOL0     H 5907  12.033   6.067   4.797 -0.1255 -1.2363 -0.2190
   44MOL0     H 5908  11.952   6.047   4.565 -2.1465  0.9032 -0.4129
   44MOL0     H 5909  11.862   6.201   4.591 -0.6905 -0.0962  0.9042
   44MOL0     H 5910  12.169   6.201   4.595  0.2221 -0.2417 -1.5389
   44MOL0     H 5911  12.057   6.338   4.614  1.1768 -0.5120  1.2434
   44MOL0     H 5912  12.046   6.137   4.385 -1.2749 -0.1479  2.7867
   44MOL0     H 5913  12.166   6.273   4.386 -0.2498  2.3452 -1.6935
   44MOL0     H 5914  11.858   6.293   4.388  0.9900 -0.1336  1.6602
   44MOL0     H 5915  11.955   6.427   4.434  1.0302  0.8077  0.8747
   44MOL0     H 5916  12.017   6.286   4.170 -1.0632 -0.1728  0.2947
   44MOL0     H 5917  12.047   6.449   4.203  1.8590 -2.8860  1.3290
   44MOL0     H 5918  11.768   6.471   4.196  0.3787  0.9412 -0.6447
   44MOL0     H 5919  11.862   6.447   4.048 -0.7292 -1.9490 -1.3427
   44MOL0     H 5920  11.538   6.060   4.546 -0.0093  0.7407  0.2753
   44MOL0     H 5921  11.330   5.960   4.556 -1.1819  1.2817  0.8894
   44MOL0     H 5922  10.949   5.595   4.595 -2.2033  2.1151 -5.0386
   44MOL0     H 5923  10.721   5.597   4.623 -0.0024 -0.6382  1.3047
   44MOL0     H 5924   8.962   6.399   5.064  0.4742  0.2482  0.0964
   44MOL0     H 5925   8.772   6.527   5.151  0.0694  0.3827 -0.5696
   44MOL0     H 5926   8.703   6.855   5.675  1.8385 -3.2019 -3.2400
   44MOL0     H 5927   8.493   6.961   5.758  0.3511 -2.3969  1.9951
   44MOL0     H 5928   8.120   6.867   5.528 -1.4996  1.2093 -2.7807
   44MOL0     H 5929   8.117   7.024   5.466  1.9182 -2.0515 -1.6072
   44MOL0     H 5930   8.049   7.125   5.685 -0.8712  1.3262 -0.8483
   44MOL0     H 5931   8.054   6.957   5.749 -0.0987  2.0194  1.4247
   44MOL0     H 5932   7.880   6.885   5.589  1.0642  0.0945 -1.2649
   44MOL0     H 5933   7.884   7.045   5.512  2.1521 -0.9592 -1.1154
   44MOL0     H 5934   7.779   6.967   5.800  0.7577 -0.8315 -0.3197
   44MOL0     H 5935   7.816   7.132   5.756 -2.5262  0.1709  1.0250
   44MOL0     H 5936   7.441   7.046   5.592 -0.2568 -4.8676  2.2904
   44MOL0     H 5937   8.304   6.836   5.393  0.7668  3.8123 -0.8459
   44MOL0     H 5938   8.528   6.582   5.295 -0.9168 -0.3778  2.9035
   44MOL0     H 5939   8.373   6.660   5.267 -0.7499  4.4013 -0.9134
   44MOL0     H 5940   8.514   6.738   5.204 -2.3329 -1.1191 -1.2601
   45MOL0     O 5941   4.600   0.720   1.801  0.5272 -0.1987 -0.0324
   45MOL0     C 5942   4.573   0.742   1.920  0.1404  0.2244  0.2911
   45MOL0     O 5943   4.651   0.710   2.019 -0.4499  1.1966 -0.1403
   45MOL0     C 5944   4.772   0.638   2.007  0.2490 -0.6930 -0.5546
   45MOL0     C 5945   4.809   0.542   1.909  0.8570 -0.1660 -0.3260
   45MOL0     C 5946   4.930   0.473   1.918 -0.3412 -0.2376  0.1924
   45MOL0     C 5947   5.022   0.494   2.020  0.5116  0.7436 -0.0085
   45MOL0     O 5948   5.136   0.421   2.029  0.2363  0.0731 -0.6220
   45MOL0     C 5949   5.215   0.404   1.910 -0.3849 -0.3687  0.1729
   45MOL0     C 5950   5.360   0.462   1.924 -0.5458 -0.5381  0.3420
   45MOL0     C 5951   5.453   0.423   1.809 -1.1610 -0.4393 -0.3056
   45MOL0     C 5952   5.600   0.383   1.858  0.2601 -0.7589 -1.1833
   45MOL0     C 5953   5.694   0.364   1.739  0.3705 -0.1786 -0.6350
   45MOL0     C 5954   5.840   0.325   1.780 -0.6236  0.2601  0.3038
   45MOL0     C 5955   5.853   0.181   1.804  0.6026 -0.7588  0.0881
   45MOL0     C 5956   5.933   0.145   1.933  0.5963 -0.5434 -0.3155
   45MOL0     N 5957   6.074   0.175   1.926  0.0458 -0.3043 -0.1057
   45MOL0     C 5958   6.152   0.087   1.856  0.1788 -0.1689  0.1109
   45MOL0     C 5959   6.272   0.145   1.866 -0.1820  0.1648 -0.4325
   45MOL0     C 5960   6.406   0.108   1.810  0.3758  0.3953 -0.3595
   45MOL0     C 5961   6.444  -0.028   1.876  0.3631  0.0614  0.0430
   45MOL0     C 5962   6.593  -0.052   1.849 -0.2387  0.1537  0.5642
   45MOL0     C 5963   6.637  -0.189   1.893 -0.5111  0.0207 -0.4131
   45MOL0     O 5964   6.781  -0.192   1.887 -0.3163  0.0783 -0.0109
   45MOL0     C 5965   6.834  -0.314   1.911 -0.2876 -0.3185  0.2774
   45MOL0     C 5966   6.775  -0.436   1.954 -0.2906 -0.4188 -0.0568
   45MOL0     C 5967   6.854  -0.551   1.957  0.2877 -0.6889 -0.5500
   45MOL0     C 5968   6.990  -0.542   1.937  0.8959  0.6892  0.1995
   45MOL0     C 5969   7.067  -0.661   1.947 -0.0374  0.3790 -0.4594
   45MOL0     O 5970   7.201  -0.644   1.956  0.0926  0.5053  0.4010
   45MOL0     C 5971   7.270  -0.752   1.997 -0.4107 -1.0253  0.7204
   45MOL0     C 5972   7.264  -0.789   2.133  0.3483  0.6264 -0.0620
   45MOL0     C 5973   7.343  -0.901   2.178  0.0299  0.7105 -0.6171
   45MOL0     C 5974   7.420  -0.982   2.087 -0.3462  0.1568  0.2675
   45MOL0     O 5975   7.486  -1.092   2.126 -0.0202 -0.1765  0.2114
   45MOL0     C 5976   7.610  -1.140   2.072 -0.5292 -0.2524  0.0060
   45MOL0     C 5977   7.724  -1.081   2.156  0.2368 -0.0048 -0.1122
   45MOL0     C 5978   7.863  -1.086   2.099 -0.3929 -0.2694  0.6861
   45MOL0     C 5979   7.931  -1.227   2.083  0.0707  0.5286  0.3948
   45MOL0     C 5980   8.085  -1.202   2.057  1.0203  0.6229  0.2314
   45MOL0     C 5981   8.166  -1.334   2.025 -0.7329  0.9429  0.5576
   45MOL0     C 5982   8.154  -1.373   1.885 -0.1826 -0.0925  0.8111
   45MOL0     C 5983   8.195  -1.511   1.852  0.2293  0.1053 -0.6771
   45MOL0    Cl 5984   8.364  -1.551   1.875  0.3757  0.1866 -0.0360
   45MOL0     C 5985   7.421  -0.941   1.954  0.3941  0.0141 -0.2329
   45MOL0     C 5986   7.350  -0.832   1.911  0.3402  0.2645  0.4380
   45MOL0     O 5987   7.011  -0.773   1.948  0.2009 -0.2798  0.4315
   45MOL0     C 5988   7.054  -0.429   1.897 -0.1090  0.1884 -0.1313
   45MOL0     C 5989   6.972  -0.314   1.882 -0.8401 -0.0729  0.4277
   45MOL0     N 5990   6.263   0.254   1.958 -0.1798 -0.4828 -0.3291
   45MOL0     N 5991   6.138   0.270   1.989  0.4033 -0.5113 -0.6708
   45MOL0     C 5992   4.997   0.596   2.109 -0.0752 -0.1607 -0.7386
   45MOL0     C 5993   4.877   0.663   2.107  0.6663 -0.7168  1.4292
   45MOL0     C 5994   4.433   0.782   1.960 -1.3697 -0.1566  1.3623
   45MOL0     C 5995   4.387   0.748   2.086  0.1017  0.3895 -0.0180
   45MOL0     C 5996   4.257   0.775   2.131 -0.0043  0.6930  0.5882
   45MOL0     C 5997   4.171   0.840   2.046 -0.0753 -0.1396 -0.1877
   45MOL0     O 5998   4.035   0.843   2.086 -0.2328 -0.2835 -0.4161
   45MOL0     C 5999   3.950   0.907   1.996 -0.2559  0.3502  0.3912
   45MOL0     C 6000   3.808   0.901   2.062  0.2494 -0.3351  0.1323
   45MOL0     C 6001   3.791   0.988   2.185  0.2791  1.5736 -0.3157
   45MOL0     C 6002   3.663   0.951   2.264 -0.9532 -0.2258 -0.6795
   45MOL0     C 6003   3.548   0.965   2.178 -0.8771  0.1162 -0.1831
   45MOL0     C 6004   3.448   0.971   2.115 -0.1026 -0.1649  0.2186
   45MOL0     C 6005   4.213   0.866   1.911  0.1077 -0.8243  0.7683
   45MOL0     C 6006   4.339   0.838   1.871  0.1995 -0.1380  0.4813
   45MOL0     C 6007   4.380   0.878   1.736  0.5655  0.3853  0.1158
   45MOL0     H 6008   4.744   0.512   1.827 -0.0821 -0.4926  0.5224
   45MOL0     H 6009   4.943   0.391   1.847 -0.7312 -1.0959  1.0834
   45MOL0     H 6010   5.227   0.302   1.872 -1.6127 -0.4876  0.0345
   45MOL0     H 6011   5.168   0.459   1.828  1.4110  0.5451 -0.2798
   45MOL0     H 6012   5.414   0.427   2.013  1.4587 -2.1002 -1.3747
   45MOL0     H 6013   5.345   0.570   1.937 -2.0862 -0.8968  1.8561
   45MOL0     H 6014   5.464   0.512   1.746  0.8418  1.1587  2.1267
   45MOL0     H 6015   5.399   0.345   1.754 -1.8268  0.9238 -1.6725
   45MOL0     H 6016   5.633   0.464   1.924 -0.9714 -1.3072  0.1637
   45MOL0     H 6017   5.609   0.292   1.918  2.2270 -3.2116 -4.8438
   45MOL0     H 6018   5.656   0.292   1.665  0.4500 -2.9290  1.8019
   45MOL0     H 6019   5.694   0.455   1.680 -0.6765  0.3438  0.1395
   45MOL0     H 6020   5.911   0.346   1.700  1.4312  1.5321  2.3367
   45MOL0     H 6021   5.876   0.375   1.870  1.5324  0.0410 -0.3933
   45MOL0     H 6022   5.895   0.121   1.723 -0.5230 -0.9782 -0.3507
   45MOL0     H 6023   5.754   0.134   1.813  0.5191 -1.0969 -2.0807
   45MOL0     H 6024   5.884   0.201   2.014 -1.0840 -0.7662 -1.1176
   45MOL0     H 6025   5.923   0.043   1.972  0.3640 -0.0002  1.0928
   45MOL0     H 6026   6.122   0.004   1.793 -1.0993  1.1339 -1.0627
   45MOL0     H 6027   6.398   0.095   1.702 -2.7963 -1.1368 -0.0481
   45MOL0     H 6028   6.478   0.183   1.844 -3.3824  3.2491  2.0969
   45MOL0     H 6029   6.423  -0.041   1.983  0.5731  1.1245  0.2168
   45MOL0     H 6030   6.390  -0.107   1.822  0.0111 -0.9385  1.7774
   45MOL0     H 6031   6.654   0.029   1.890 -0.5378 -0.3296  2.0128
   45MOL0     H 6032   6.612  -0.048   1.741 -2.4518  2.8122  0.1611
   45MOL0     H 6033   6.614  -0.265   1.817  0.2991 -0.7045  0.0483
   45MOL0     H 6034   6.596  -0.220   1.989 -2.0660  0.4881 -0.9013
   45MOL0     H 6035   6.671  -0.450   1.982 -0.3889  0.2207 -0.0908
   45MOL0     H 6036   6.812  -0.643   1.996  2.2505 -1.7026 -0.7209
   45MOL0     H 6037   7.206  -0.748   2.215  1.1886 -0.5157  1.1483
   45MOL0     H 6038   7.337  -0.924   2.284  1.2022  0.5324 -0.5741
   45MOL0     H 6039   7.597  -1.249   2.077  1.2606 -0.5377 -0.9708
   45MOL0     H 6040   7.625  -1.117   1.966  1.9947  1.0902  0.5762
   45MOL0     H 6041   7.688  -0.979   2.173  3.0579  1.3693 -1.5528
   45MOL0     H 6042   7.733  -1.127   2.255 -2.1089  0.0042  0.1670
   45MOL0     H 6043   7.871  -1.041   2.000 -0.7651  1.8861  1.5830
   45MOL0     H 6044   7.915  -1.024   2.173 -0.3552 -1.1864  1.4534
   45MOL0     H 6045   7.881  -1.274   1.998 -1.5450 -0.9831  2.0702
   45MOL0     H 6046   7.909  -1.291   2.169  1.5735  0.2826  0.6208
   45MOL0     H 6047   8.130  -1.165   2.150  0.2841  2.3777 -0.0580
   45MOL0     H 6048   8.104  -1.125   1.982 -0.9309  0.0840 -0.8965
   45MOL0     H 6049   8.270  -1.328   2.056 -0.1716  1.7925 -1.3319
   45MOL0     H 6050   8.117  -1.406   2.091 -0.7909  1.3384  0.9486
   45MOL0     H 6051   8.213  -1.300   1.829 -1.6057  0.6552  0.2466
   45MOL0     H 6052   8.049  -1.364   1.858 -0.0404 -3.4372 -1.4497
   45MOL0     H 6053   8.123  -1.579   1.899  1.2658  0.1117  0.9902
   45MOL0     H 6054   8.168  -1.530   1.748  0.3001 -2.3585 -0.3153
   45MOL0     H 6055   7.478  -0.991   1.875 -0.7838 -1.2431 -0.3155
   45MOL0     H 6056   7.352  -0.796   1.808  0.3509  0.2150  0.4206
   45MOL0     H 6057   7.161  -0.422   1.886 -0.0048  2.2623  1.5437
   45MOL0     H 6058   7.027  -0.223   1.858  2.3134 -1.2289  2.5865
   45MOL0     H 6059   5.075   0.606   2.184 -1.0930 -1.2495  0.5293
   45MOL0     H 6060   4.850   0.732   2.187 -0.9378 -1.4177  1.5200
   45MOL0     H 6061   4.461   0.693   2.144  1.0605 -0.6185 -2.0759
   45MOL0     H 6062   4.216   0.734   2.222 -2.4515  0.8300 -0.3784
   45MOL0     H 6063   3.954   0.858   1.899  0.7464 -2.3324  1.6848
   45MOL0     H 6064   3.982   1.012   1.993  1.8721 -0.2066  1.6912
   45MOL0     H 6065   3.797   0.792   2.070  1.2377 -0.3468  1.9346
   45MOL0     H 6066   3.729   0.934   1.994  0.3372  1.3394  0.8166
   45MOL0     H 6067   3.805   1.093   2.158 -0.2609  2.0767  1.2671
   45MOL0     H 6068   3.866   0.958   2.260 -0.6899  2.4963  1.0784
   45MOL0     H 6069   3.683   0.850   2.301  0.3546 -0.6806 -2.5166
   45MOL0     H 6070   3.654   1.013   2.354  1.4630 -1.2979  0.3875
   45MOL0     H 6071   3.353   0.964   2.066 -1.2429 -1.1003  2.4231
   45MOL0     H 6072   4.147   0.906   1.835  2.2257 -0.1288 -0.8194
   45MOL0     H 6073   4.306   0.950   1.699  0.3823  0.9551  1.5225
   45MOL0     H 6074   4.471   0.939   1.734  1.0377 -0.3292 -0.8392
   45MOL0     H 6075   4.393   0.790   1.673 -0.4578  0.9481 -0.9182
   46MOL0     O 6076   0.109   4.318   9.172  0.7375  0.2903 -0.0643
   46MOL0     C 6077   0.050   4.284   9.276  0.6123 -0.3008 -0.7395
   46MOL0     O 6078   0.107   4.266   9.397  0.1247  0.0840 -0.7283
   46MOL0     C 6079   0.235   4.307   9.439 -0.1779 -0.7160 -0.1699
   46MOL0     C 6080   0.340   4.278   9.368  0.1382  0.1192  0.3605
   46MOL0     C 6081   0.472   4.302   9.406 -0.0066  0.2046 -0.1825
   46MOL0     C 6082   0.509   4.346   9.532  0.4635  0.4311  0.9155
   46MOL0     O 6083   0.637   4.371   9.574 -0.5426 -0.4965  0.0925
   46MOL0     C 6084   0.653   4.408   9.715  0.6351  0.5553  0.1106
   46MOL0     C 6085   0.799   4.412   9.755  0.0693 -0.4738 -0.0539
   46MOL0     C 6086   0.870   4.285   9.786  0.6916 -0.4942  0.3729
   46MOL0     C 6087   1.012   4.311   9.858 -0.2129 -0.1406  0.5623
   46MOL0     C 6088   1.118   4.219   9.806 -0.5027  0.3738 -0.0763
   46MOL0     C 6089   1.248   4.254   9.877  0.8812  0.3752 -0.1358
   46MOL0     C 6090   1.374   4.175   9.825  0.6866  0.0152 -0.5231
   46MOL0     C 6091   1.508   4.197   9.910 -0.1827 -0.2524  0.3871
   46MOL0     N 6092   1.640   4.172   9.851  0.6702  0.0949 -0.2118
   46MOL0     C 6093   1.677   4.061   9.774 -0.9095 -0.9199  0.3633
   46MOL0     C 6094   1.795   4.096   9.714  0.1300 -0.2070 -0.0954
   46MOL0     C 6095   1.869   4.021   9.607 -1.0515  1.2271 -0.1965
   46MOL0     C 6096   1.978   3.919   9.643 -0.5357  0.3544 -0.1379
   46MOL0     C 6097   2.016   3.832   9.527  0.4644  0.5960 -0.1423
   46MOL0     C 6098   2.146   3.761   9.550  0.3534  0.0341  0.6591
   46MOL0     O 6099   2.260   3.849   9.571  0.2801  0.3827 -0.4046
   46MOL0     C 6100   2.389   3.799   9.567 -0.0876  0.4134 -1.0043
   46MOL0     C 6101   2.483   3.903   9.588 -0.7674  0.1693  0.2211
   46MOL0     C 6102   2.614   3.859   9.580 -0.1695 -0.0881  0.7480
   46MOL0     C 6103   2.657   3.731   9.568 -0.1152  0.5067 -0.0552
   46MOL0     C 6104   2.797   3.706   9.552  0.1774 -0.3767 -0.8949
   46MOL0     O 6105   2.881   3.816   9.534 -0.1317  0.3818  0.9074
   46MOL0     C 6106   3.012   3.804   9.552  0.1693 -0.2971 -0.2356
   46MOL0     C 6107   3.096   3.735   9.462 -0.9103  0.6028  1.2263
   46MOL0     C 6108   3.229   3.725   9.484  0.4562  0.8603 -0.3532
   46MOL0     C 6109   3.278   3.770   9.605 -0.0715 -0.6847 -0.6007
   46MOL0     O 6110   3.413   3.748   9.622  0.4682 -0.3645 -0.3187
   46MOL0     C 6111   3.483   3.750   9.752  0.4854  0.1604  0.5577
   46MOL0     C 6112   3.623   3.746   9.712 -0.1195  0.0770  0.0585
   46MOL0     C 6113   3.664   3.620   9.627  0.2831 -0.3129  0.8832
   46MOL0     C 6114   3.795   3.553   9.655 -0.3449 -0.4430  0.2649
   46MOL0     C 6115   3.818   3.420   9.583 -0.3715  0.0997  0.4070
   46MOL0     C 6116   3.748   3.316   9.670 -0.3044  0.1669  0.0750
   46MOL0     C 6117   3.755   3.180   9.597  0.2565  0.4435  0.5329
   46MOL0     C 6118   3.680   3.082   9.681  0.1087  0.1439 -0.0257
   46MOL0    Cl 6119   3.670   2.912   9.610 -0.2169 -0.0297  0.4363
   46MOL0     C 6120   3.194   3.830   9.697 -0.3846 -0.1582  0.8397
   46MOL0     C 6121   3.060   3.852   9.670 -0.2890 -0.2646 -0.6434
   46MOL0     O 6122   2.830   3.590   9.576  0.9296  0.5137  0.4215
   46MOL0     C 6123   2.567   3.626   9.575  0.8268  0.1000  0.1162
   46MOL0     C 6124   2.436   3.664   9.579  1.4262  0.3004 -0.0060
   46MOL0     N 6125   1.817   4.231   9.753  0.1243  0.4981 -0.1562
   46MOL0     N 6126   1.721   4.274   9.820  0.5097  0.4046  0.4946
   46MOL0     C 6127   0.400   4.385   9.612 -0.9235  0.2532  1.0718
   46MOL0     C 6128   0.265   4.354   9.569  0.0431 -0.1158  0.3594
   46MOL0     C 6129  -0.093   4.237   9.276 -0.0683  0.5320 -0.8849
   46MOL0     C 6130  -0.153   4.194   9.401 -0.6595  0.2659  0.4420
   46MOL0     C 6131  -0.290   4.164   9.425 -0.8170 -0.6410  0.5077
   46MOL0     C 6132  -0.378   4.172   9.319  0.5866  0.3372 -0.3369
   46MOL0     O 6133  -0.516   4.145   9.312  0.4637  0.1422  0.1265
   46MOL0     C 6134  -0.573   4.084   9.427 -0.1911 -0.0447 -0.3146
   46MOL0     C 6135  -0.547   3.934   9.436  0.4770  0.3795 -0.6845
   46MOL0     C 6136  -0.585   3.865   9.304 -0.1433 -0.1814  0.2284
   46MOL0     C 6137  -0.740   3.883   9.264 -0.1674 -0.4077  0.6080
   46MOL0     C 6138  -0.779   3.784   9.165 -0.4314  0.6328  0.3983
   46MOL0     C 6139  -0.816   3.700   9.089 -0.1194 -0.6363  0.0626
   46MOL0     C 6140  -0.319   4.204   9.196  0.5528  0.0309 -0.2049
   46MOL0     C 6141  -0.186   4.230   9.167 -0.1449 -0.2028 -0.9359
   46MOL0     C 6142  -0.150   4.256   9.023  0.0240 -0.1618  0.4068
   46MOL0     H 6143   0.330   4.239   9.267  2.2045  2.8298 -1.0321
   46MOL0     H 6144   0.551   4.285   9.333  0.6340  0.8539  0.3437
   46MOL0     H 6145   0.617   4.512   9.718  1.7800  0.9640  0.4772
   46MOL0     H 6146   0.599   4.338   9.779 -0.9285  0.8723 -0.8390
   46MOL0     H 6147   0.799   4.476   9.844  1.0235  1.3959 -1.3173
   46MOL0     H 6148   0.856   4.470   9.682 -0.1644 -1.4043 -0.9935
   46MOL0     H 6149   0.877   4.231   9.691 -0.0875  1.0963 -0.6415
   46MOL0     H 6150   0.803   4.233   9.855  1.8699 -1.7807  0.5910
   46MOL0     H 6151   1.048   4.412   9.839 -0.7402 -0.3009 -1.5819
   46MOL0     H 6152   1.000   4.294   9.966 -0.4880  1.2281  0.7561
   46MOL0     H 6153   1.086   4.118   9.832  0.6335 -1.3744 -4.6868
   46MOL0     H 6154   1.136   4.219   9.699  3.7910 -3.4163  0.3263
   46MOL0     H 6155   1.274   4.361   9.870  2.1349  0.2429  1.5676
   46MOL0     H 6156   1.240   4.247   9.986 -0.5392  2.8275 -0.0036
   46MOL0     H 6157   1.392   4.204   9.721 -2.7888  1.0664 -0.9699
   46MOL0     H 6158   1.361   4.067   9.814  2.1495 -0.0826 -1.5666
   46MOL0     H 6159   1.512   4.301   9.943  0.1479  0.0900 -0.7016
   46MOL0     H 6160   1.494   4.142  10.004  3.4106  0.4726  1.4962
   46MOL0     H 6161   1.621   3.970   9.756 -1.8126  0.2099 -3.5213
   46MOL0     H 6162   1.795   3.965   9.549 -0.0452  0.3732 -0.6792
   46MOL0     H 6163   1.917   4.093   9.540 -2.7773  0.2493 -2.5970
   46MOL0     H 6164   2.068   3.974   9.672  1.2966 -2.7346  0.4731
   46MOL0     H 6165   1.948   3.854   9.726 -1.4838  2.0742  0.9319
   46MOL0     H 6166   2.010   3.891   9.435 -0.4455 -0.5860 -0.8796
   46MOL0     H 6167   1.944   3.752   9.508  2.7064 -1.9386  1.4152
   46MOL0     H 6168   2.165   3.702   9.460  1.7821 -0.9646  1.5655
   46MOL0     H 6169   2.140   3.688   9.632 -1.1652  0.1996  0.7259
   46MOL0     H 6170   2.453   4.006   9.601 -2.5018 -0.2363 -0.2961
   46MOL0     H 6171   2.679   3.943   9.602 -0.3167  0.3111 -0.3039
   46MOL0     H 6172   3.056   3.684   9.376  3.3543  0.4308 -0.8719
   46MOL0     H 6173   3.299   3.667   9.424  1.2576  0.3400  1.0077
   46MOL0     H 6174   3.457   3.835   9.816  0.4870 -0.6466  1.6506
   46MOL0     H 6175   3.468   3.661   9.813 -1.4913  0.7987  1.0530
   46MOL0     H 6176   3.642   3.840   9.661  1.2152 -0.2767 -0.1279
   46MOL0     H 6177   3.680   3.744   9.805  1.0140  0.9743 -0.5952
   46MOL0     H 6178   3.574   3.562   9.648 -3.0851  4.3773  1.1745
   46MOL0     H 6179   3.670   3.638   9.519 -2.3667  3.2294  1.1194
   46MOL0     H 6180   3.801   3.537   9.763 -1.0329  0.8431  0.5197
   46MOL0     H 6181   3.875   3.620   9.624 -1.2111  1.0574  1.1479
   46MOL0     H 6182   3.922   3.394   9.560  0.0155 -0.7421  2.8538
   46MOL0     H 6183   3.770   3.423   9.484  0.7820 -0.2497 -0.1855
   46MOL0     H 6184   3.797   3.307   9.768 -1.3422  0.4146  0.6336
   46MOL0     H 6185   3.643   3.344   9.682 -1.0135 -1.2540 -2.2724
   46MOL0     H 6186   3.858   3.144   9.593 -0.1679 -0.7242 -0.1449
   46MOL0     H 6187   3.704   3.178   9.500  1.0843  1.3397  0.0615
   46MOL0     H 6188   3.724   3.085   9.781 -0.2153 -0.5225  0.1440
   46MOL0     H 6189   3.579   3.122   9.687 -0.4440 -0.9780 -1.2620
   46MOL0     H 6190   3.241   3.870   9.786  0.3865  1.3193 -0.1894
   46MOL0     H 6191   3.014   3.900   9.756 -0.3292  2.5500 -2.1331
   46MOL0     H 6192   2.585   3.519   9.563  1.2097  0.2754 -0.9648
   46MOL0     H 6193   2.361   3.585   9.575  2.0665 -0.2699 -1.8436
   46MOL0     H 6194   0.409   4.442   9.704 -2.3967  4.8363 -1.3153
   46MOL0     H 6195   0.184   4.393   9.629 -1.4006  2.4465 -2.9743
   46MOL0     H 6196  -0.089   4.179   9.488 -0.6002  3.1535  0.9736
   46MOL0     H 6197  -0.315   4.141   9.528 -0.9049 -2.0802  0.1951
   46MOL0     H 6198  -0.679   4.098   9.407 -0.0052 -1.6649 -2.8633
   46MOL0     H 6199  -0.549   4.128   9.524 -1.7581  0.2026 -0.0159
   46MOL0     H 6200  -0.585   3.887   9.527 -0.9153  0.7150 -1.0650
   46MOL0     H 6201  -0.439   3.917   9.441  0.5970  1.1556 -0.4486
   46MOL0     H 6202  -0.559   3.760   9.320  1.9218  0.2576 -0.0764
   46MOL0     H 6203  -0.519   3.894   9.222 -2.1357  1.2264 -0.9614
   46MOL0     H 6204  -0.799   3.870   9.355 -0.1433  0.5460  0.7756
   46MOL0     H 6205  -0.757   3.981   9.218 -1.5728 -0.3089  1.2928
   46MOL0     H 6206  -0.852   3.617   9.031  0.8076  1.0154 -3.1143
   46MOL0     H 6207  -0.397   4.208   9.120 -1.3330 -1.2023  1.5390
   46MOL0     H 6208  -0.241   4.226   8.970 -1.5647  3.9217  0.4816
   46MOL0     H 6209  -0.134   4.364   9.014 -1.5187 -0.0354 -1.5132
   46MOL0     H 6210  -0.065   4.199   8.982  0.4358  0.1414  0.8286
   47MOL0     O 6211   4.056   7.241   5.581 -0.0372 -0.2901 -0.1577
   47MOL0     C 6212   3.943   7.286   5.598  0.2510 -0.3091 -0.0256
   47MOL0     O 6213   3.922   7.419   5.626 -0.0617  1.0660  0.4042
   47MOL0     C 6214   4.031   7.509   5.626  0.0587 -0.0312 -0.2056
   47MOL0     C 6215   4.042   7.607   5.726 -1.0438  0.4028  0.3560
   47MOL0     C 6216   4.151   7.708   5.713 -0.0680  0.2138 -0.4309
   47MOL0     C 6217   4.239   7.707   5.603 -0.6376 -0.0264  0.2824
   47MOL0     O 6218   4.352   7.783   5.603 -0.2827  0.0642 -0.0796
   47MOL0     C 6219   4.475   7.745   5.541  0.8067 -0.0349 -0.3567
   47MOL0     C 6220   4.530   7.649   5.646  0.4900 -0.2933  0.8924
   47MOL0     C 6221   4.670   7.591   5.606  0.7263 -0.0177  0.1985
   47MOL0     C 6222   4.779   7.696   5.582 -0.1351 -0.3062  0.2179
   47MOL0     C 6223   4.908   7.631   5.539 -0.1165  1.0073  0.2083
   47MOL0     C 6224   5.009   7.734   5.522 -1.0805 -0.3025 -0.1133
   47MOL0     C 6225   5.147   7.670   5.519 -0.2868  0.6997  0.0816
   47MOL0     C 6226   5.210   7.650   5.656 -0.2735  0.7070  0.0130
   47MOL0     N 6227   5.350   7.601   5.654  0.7746  0.1338  0.1463
   47MOL0     C 6228   5.462   7.680   5.668  0.3685 -0.0337  0.3646
   47MOL0     C 6229   5.560   7.595   5.681 -0.1333  0.6501  0.5184
   47MOL0     C 6230   5.699   7.631   5.698 -0.8876  0.2395 -0.2339
   47MOL0     C 6231   5.740   7.579   5.836 -0.5095 -0.0469 -0.3828
   47MOL0     C 6232   5.888   7.606   5.874  0.0331 -0.0892  0.2008
   47MOL0     C 6233   5.945   7.549   6.001 -0.4347  0.6217 -0.1969
   47MOL0     O 6234   6.057   7.625   6.043 -0.3369 -0.4427  0.5949
   47MOL0     C 6235   6.131   7.586   6.156 -0.0161  1.1186  0.1071
   47MOL0     C 6236   6.232   7.668   6.198 -0.1728 -0.1668  1.2033
   47MOL0     C 6237   6.300   7.656   6.325  0.4627 -0.4638  0.2026
   47MOL0     C 6238   6.274   7.537   6.400 -1.0914  0.3001 -0.3641
   47MOL0     C 6239   6.359   7.516   6.525  0.3126  0.0350 -0.6699
   47MOL0     O 6240   6.463   7.599   6.556  0.0696  0.7872 -0.1350
   47MOL0     C 6241   6.573   7.551   6.621 -0.3818  0.9125 -0.1180
   47MOL0     C 6242   6.623   7.622   6.729 -0.8138 -0.9746  0.3311
   47MOL0     C 6243   6.741   7.587   6.789 -0.5875 -0.5594  0.3980
   47MOL0     C 6244   6.814   7.467   6.756  0.2011  0.7280  1.4187
   47MOL0     O 6245   6.932   7.428   6.813  0.2860 -0.2252  0.3067
   47MOL0     C 6246   7.007   7.528   6.884 -0.1198 -0.2008 -0.4163
   47MOL0     C 6247   7.043   7.642   6.779  0.3443  0.8443 -0.8581
   47MOL0     C 6248   7.131   7.751   6.845  0.0278  0.1968  0.3236
   47MOL0     C 6249   7.210   7.843   6.755  0.1474 -0.3485 -0.0167
   47MOL0     C 6250   7.264   7.975   6.828 -0.1563  0.2651  0.7549
   47MOL0     C 6251   7.318   8.087   6.734  0.1487 -0.0840  0.1642
   47MOL0     C 6252   7.391   8.035   6.615 -0.1976  0.5181 -0.1150
   47MOL0     C 6253   7.444   8.148   6.531 -0.1561  0.0621 -0.9158
   47MOL0    Cl 6254   7.606   8.191   6.609 -0.1850 -0.0474 -0.3409
   47MOL0     C 6255   6.755   7.383   6.656  0.0005 -0.2609 -0.3429
   47MOL0     C 6256   6.643   7.429   6.582  0.0926 -0.7712 -0.0072
   47MOL0     O 6257   6.339   7.411   6.581  0.7310 -0.4177 -0.8263
   47MOL0     C 6258   6.170   7.451   6.359  0.1740  0.1679  0.0057
   47MOL0     C 6259   6.095   7.480   6.239 -0.1013 -0.3047 -0.5737
   47MOL0     N 6260   5.511   7.465   5.663  0.3254 -0.1286 -0.7378
   47MOL0     N 6261   5.382   7.471   5.652  0.0409 -0.1137 -0.4304
   47MOL0     C 6262   4.220   7.610   5.505 -0.3740  0.1107  0.1760
   47MOL0     C 6263   4.123   7.517   5.522 -1.1552  0.3820 -0.2067
   47MOL0     C 6264   3.821   7.200   5.597  0.5726 -0.0677 -0.1471
   47MOL0     C 6265   3.841   7.061   5.586 -0.5809 -1.3494  0.3316
   47MOL0     C 6266   3.736   6.974   5.552 -0.4820 -0.6661 -0.0638
   47MOL0     C 6267   3.609   7.016   5.536 -0.3157  0.1641 -0.0671
   47MOL0     O 6268   3.507   6.933   5.498 -0.0750  0.5348 -0.4565
   47MOL0     C 6269   3.523   6.795   5.507  0.1356 -0.3979  0.0056
   47MOL0     C 6270   3.391   6.723   5.494  0.2877  0.3022  0.2249
   47MOL0     C 6271   3.286   6.752   5.604 -0.3951 -0.1478  0.7912
   47MOL0     C 6272   3.198   6.871   5.570  0.3192 -0.4679 -0.3217
   47MOL0     C 6273   3.104   6.894   5.686  0.2910 -0.0725 -0.2461
   47MOL0     C 6274   3.020   6.892   5.767 -0.0004 -0.2611 -0.8493
   47MOL0     C 6275   3.588   7.149   5.538  0.4497 -0.6073 -0.5246
   47MOL0     C 6276   3.687   7.243   5.578  0.1901  0.0591  0.2987
   47MOL0     C 6277   3.644   7.384   5.568 -0.1794  0.3324  0.0241
   47MOL0     H 6278   3.971   7.610   5.809 -2.6306 -0.4538 -0.9190
   47MOL0     H 6279   4.169   7.790   5.782 -0.6234  2.1083 -2.4204
   47MOL0     H 6280   4.453   7.710   5.440  0.0912  4.5832 -2.0308
   47MOL0     H 6281   4.539   7.833   5.533 -2.0471  2.0131 -2.3805
   47MOL0     H 6282   4.467   7.563   5.668 -2.0061  0.9162 -1.0706
   47MOL0     H 6283   4.538   7.705   5.739 -2.3732 -0.3303  1.2440
   47MOL0     H 6284   4.651   7.524   5.522  4.7139 -0.0248 -0.9004
   47MOL0     H 6285   4.711   7.524   5.681 -3.0614 -3.0330 -0.1321
   47MOL0     H 6286   4.748   7.770   5.508 -0.5938  0.2796  0.9810
   47MOL0     H 6287   4.790   7.757   5.672  2.0522  0.8760 -0.7565
   47MOL0     H 6288   4.941   7.559   5.615 -2.8653  0.1309  0.6916
   47MOL0     H 6289   4.894   7.575   5.446 -2.3505  1.5515  0.1750
   47MOL0     H 6290   4.991   7.792   5.431 -0.8960  0.6970  0.4649
   47MOL0     H 6291   5.001   7.806   5.604 -2.1968 -0.1493 -0.3322
   47MOL0     H 6292   5.206   7.733   5.451 -1.8899 -0.5975 -2.6711
   47MOL0     H 6293   5.150   7.575   5.465  1.4962  0.3797  0.6785
   47MOL0     H 6294   5.205   7.752   5.697  0.6715  0.7070  0.1658
   47MOL0     H 6295   5.148   7.581   5.713  0.3518  0.9953  1.0709
   47MOL0     H 6296   5.464   7.788   5.682  0.4668 -0.0577  0.5374
   47MOL0     H 6297   5.762   7.591   5.619  0.6154  2.2686 -0.1404
   47MOL0     H 6298   5.713   7.738   5.680  0.7765 -0.1328 -1.4001
   47MOL0     H 6299   5.675   7.617   5.915  1.3895  2.6421  0.0196
   47MOL0     H 6300   5.719   7.472   5.829 -0.7221 -0.0286 -0.0491
   47MOL0     H 6301   5.899   7.715   5.878  0.7669 -0.1117 -0.7854
   47MOL0     H 6302   5.962   7.569   5.802  1.0061  1.8060  0.1741
   47MOL0     H 6303   5.974   7.445   5.988  0.6930  0.4405  3.0265
   47MOL0     H 6304   5.867   7.538   6.077 -1.4473  0.8551 -1.1602
   47MOL0     H 6305   6.250   7.747   6.126  1.5519 -2.5840 -1.2337
   47MOL0     H 6306   6.390   7.717   6.330  1.4303 -1.7248 -1.0868
   47MOL0     H 6307   6.580   7.717   6.759  2.0097  0.2668  0.7799
   47MOL0     H 6308   6.771   7.659   6.864 -2.4579 -0.7543  1.3989
   47MOL0     H 6309   6.948   7.560   6.970 -1.6272 -0.5493 -1.2827
   47MOL0     H 6310   7.098   7.488   6.930 -0.3154  0.5168  0.6476
   47MOL0     H 6311   7.107   7.585   6.711 -0.9639 -1.8491 -0.0231
   47MOL0     H 6312   6.965   7.696   6.725 -0.1313 -0.3320 -1.3807
   47MOL0     H 6313   7.075   7.808   6.919 -0.5817 -0.5660  0.4748
   47MOL0     H 6314   7.205   7.698   6.905 -0.7243 -1.7251 -0.3416
   47MOL0     H 6315   7.144   7.854   6.669  0.4945 -3.1463 -0.7400
   47MOL0     H 6316   7.298   7.800   6.707  0.4575  1.5943 -1.2856
   47MOL0     H 6317   7.346   7.946   6.894  0.8217 -0.6291 -0.8015
   47MOL0     H 6318   7.189   8.010   6.899 -0.6739 -1.8818  1.3376
   47MOL0     H 6319   7.225   8.132   6.696 -0.0948 -2.3237 -2.1734
   47MOL0     H 6320   7.373   8.160   6.793  0.0832 -1.8628  2.5814
   47MOL0     H 6321   7.315   7.986   6.554 -1.2296  0.7595  0.9460
   47MOL0     H 6322   7.468   7.962   6.642 -1.0472 -1.0434 -1.7416
   47MOL0     H 6323   7.459   8.107   6.430 -2.5007 -2.6954 -0.2700
   47MOL0     H 6324   7.373   8.230   6.524 -0.0241  0.4339  1.3767
   47MOL0     H 6325   6.810   7.292   6.632  0.7780  0.2489 -0.5203
   47MOL0     H 6326   6.608   7.364   6.503  0.2274 -3.1301  1.7554
   47MOL0     H 6327   6.148   7.368   6.425 -2.3678 -1.8239 -3.0576
   47MOL0     H 6328   6.010   7.415   6.220  0.2275 -1.2892  1.1402
   47MOL0     H 6329   4.276   7.590   5.414  1.3220 -0.9034  1.3843
   47MOL0     H 6330   4.115   7.444   5.443 -2.2592  0.0374  0.1997
   47MOL0     H 6331   3.942   7.024   5.595 -0.1345 -0.0856  0.5543
   47MOL0     H 6332   3.764   6.870   5.572 -1.8994 -1.1232 -0.3833
   47MOL0     H 6333   3.570   6.764   5.601  0.1651  2.3982  0.9946
   47MOL0     H 6334   3.586   6.773   5.421  0.9387  1.0968  0.1745
   47MOL0     H 6335   3.409   6.616   5.503  2.1758  0.6115  0.5392
   47MOL0     H 6336   3.344   6.748   5.398  2.3913  1.8811 -0.4589
   47MOL0     H 6337   3.337   6.770   5.699  4.5610 -1.5394 -1.2610
   47MOL0     H 6338   3.224   6.663   5.607 -2.4105  1.0139 -1.9441
   47MOL0     H 6339   3.260   6.955   5.539  0.9475 -1.3128 -1.4613
   47MOL0     H 6340   3.143   6.839   5.480 -0.3397 -0.1044 -0.0564
   47MOL0     H 6341   2.947   6.896   5.845 -0.4883 -3.3040 -1.0236
   47MOL0     H 6342   3.489   7.185   5.511 -0.0281  0.7597  2.5317
   47MOL0     H 6343   3.539   7.385   5.600  0.2900  1.9934  1.6796
   47MOL0     H 6344   3.692   7.454   5.637  1.1598  0.5912 -1.1328
   47MOL0     H 6345   3.649   7.414   5.463  1.3045  0.7895  0.2030
   48MOL0     O 6346   9.682   2.780   8.896 -0.3316  0.4871  0.3865
   48MOL0     C 6347   9.764   2.862   8.939  0.0286 -0.4727 -0.1186
   48MOL0     O 6348   9.727   2.977   8.997 -0.5466 -0.4344 -1.1923
   48MOL0     C 6349   9.600   3.002   9.043  0.2395 -0.3113 -0.2913
   48MOL0     C 6350   9.500   3.054   8.948 -0.1132  1.1659 -0.3116
   48MOL0     C 6351   9.383   3.109   8.985 -0.5887 -0.2492 -0.0270
   48MOL0     C 6352   9.343   3.102   9.120 -0.1719 -0.1410  0.0366
   48MOL0     O 6353   9.228   3.153   9.162 -0.8432 -0.3089  0.4037
   48MOL0     C 6354   9.108   3.141   9.074 -0.5005  0.4831 -0.7629
   48MOL0     C 6355   9.004   3.233   9.145  0.6098 -0.4090  0.3641
   48MOL0     C 6356   8.872   3.249   9.066 -0.0767 -0.6896  0.0791
   48MOL0     C 6357   8.755   3.305   9.158  0.5313 -0.3868 -0.2093
   48MOL0     C 6358   8.617   3.295   9.105 -0.0078 -0.1354  0.3137
   48MOL0     C 6359   8.583   3.401   8.996  0.1296  0.3297 -0.8888
   48MOL0     C 6360   8.462   3.371   8.919  0.9043 -0.1301  0.4332
   48MOL0     C 6361   8.342   3.415   9.005 -0.3755  0.2593  0.4290
   48MOL0     N 6362   8.243   3.477   8.923 -0.3981  0.0884  0.4110
   48MOL0     C 6363   8.143   3.408   8.868  0.3779  0.4912 -0.2070
   48MOL0     C 6364   8.075   3.491   8.791  0.2157  0.3803  0.3832
   48MOL0     C 6365   7.953   3.460   8.707  0.9454 -0.2041  0.0966
   48MOL0     C 6366   7.965   3.327   8.629 -0.2954 -0.3033  1.0250
   48MOL0     C 6367   7.855   3.290   8.529 -0.3683 -0.1861  0.3061
   48MOL0     C 6368   7.710   3.307   8.580 -0.8395 -0.2766  0.2534
   48MOL0     O 6369   7.623   3.255   8.481  0.2954 -0.1360 -1.1277
   48MOL0     C 6370   7.489   3.288   8.476  0.6343 -0.2780 -0.2842
   48MOL0     C 6371   7.427   3.361   8.574  0.0985 -0.8507 -1.1057
   48MOL0     C 6372   7.299   3.403   8.549  0.3346  0.0139 -0.2787
   48MOL0     C 6373   7.220   3.358   8.440  0.2175  0.0695  0.2257
   48MOL0     C 6374   7.087   3.400   8.413  0.2677  0.6315 -0.2397
   48MOL0     O 6375   7.031   3.363   8.289  0.4990  0.0812  0.3450
   48MOL0     C 6376   6.911   3.405   8.242 -0.7174  0.3591  0.1678
   48MOL0     C 6377   6.796   3.428   8.327 -0.1508  0.2329  0.0335
   48MOL0     C 6378   6.673   3.471   8.273  0.1046 -0.1372  0.4984
   48MOL0     C 6379   6.661   3.486   8.137 -0.0118  1.0415 -0.7641
   48MOL0     O 6380   6.538   3.518   8.086 -0.3010 -0.2131  0.3246
   48MOL0     C 6381   6.508   3.481   7.955 -0.1628  0.2561 -0.0587
   48MOL0     C 6382   6.360   3.511   7.927 -0.2220  0.2802 -0.1305
   48MOL0     C 6383   6.264   3.403   7.984  0.4432  0.0002  0.3121
   48MOL0     C 6384   6.111   3.446   7.968 -0.1054 -0.2070  0.4961
   48MOL0     C 6385   6.022   3.329   7.993 -0.3204 -0.3627  0.8236
   48MOL0     C 6386   5.882   3.375   7.965 -0.0507  0.6165  0.4449
   48MOL0     C 6387   5.779   3.262   8.003  0.0819 -0.2363 -0.1327
   48MOL0     C 6388   5.788   3.135   7.925 -0.7529 -0.8745 -0.5100
   48MOL0    Cl 6389   5.687   3.006   7.994  0.1127 -0.2454  0.4214
   48MOL0     C 6390   6.763   3.452   8.051 -0.4033  0.5328  0.8679
   48MOL0     C 6391   6.887   3.405   8.109  0.5460  0.1142  0.2023
   48MOL0     O 6392   7.029   3.460   8.504  0.4713 -0.2903 -0.6599
   48MOL0     C 6393   7.282   3.273   8.349 -0.0324 -0.0151 -0.1384
   48MOL0     C 6394   7.414   3.240   8.368  0.1698  0.7260 -0.2039
   48MOL0     N 6395   8.132   3.616   8.799  0.0864  0.3037 -0.3269
   48MOL0     N 6396   8.230   3.609   8.886 -0.4031 -0.1004  1.6179
   48MOL0     C 6397   9.434   3.045   9.214  0.7567  0.2972 -0.7448
   48MOL0     C 6398   9.564   3.000   9.178  0.5570  1.0706 -0.2280
   48MOL0     C 6399   9.908   2.838   8.915  0.3522  0.0807 -0.0591
   48MOL0     C 6400   9.952   2.755   8.813  0.1824  0.6839  0.0611
   48MOL0     C 6401  10.090   2.742   8.791  0.6241  0.1144 -0.1496
   48MOL0     C 6402  10.185   2.794   8.873 -0.6457 -0.2717  0.4192
   48MOL0     O 6403  10.323   2.796   8.869 -0.7716  0.1423 -0.1943
   48MOL0     C 6404  10.384   2.712   8.770  0.1746  0.3402 -0.6351
   48MOL0     C 6405  10.527   2.741   8.754  0.3507  0.0510  1.3286
   48MOL0     C 6406  10.579   2.687   8.620 -0.1396 -0.5622  0.2455
   48MOL0     C 6407  10.732   2.692   8.594  0.4463 -0.7059  0.2601
   48MOL0     C 6408  10.773   2.830   8.574  0.2780 -0.3131  1.1083
   48MOL0     C 6409  10.813   2.940   8.558  0.4862  0.0617  0.6103
   48MOL0     C 6410  10.138   2.876   8.979  0.2278  0.0023  0.0225
   48MOL0     C 6411  10.003   2.900   9.006 -0.3132  0.0456  0.2962
   48MOL0     C 6412   9.977   2.970   9.137  0.7231 -0.6582 -0.3243
   48MOL0     H 6413   9.533   3.045   8.845  4.9309 -0.1275  1.1033
   48MOL0     H 6414   9.332   3.159   8.904  0.1657  0.8230  0.1442
   48MOL0     H 6415   9.122   3.193   8.979  0.2674 -1.4056 -1.7288
   48MOL0     H 6416   9.073   3.038   9.064 -1.0695  0.4964  0.7635
   48MOL0     H 6417   9.051   3.332   9.155 -0.6169  0.4230 -1.5140
   48MOL0     H 6418   8.974   3.199   9.244  1.3487  1.1608  1.1689
   48MOL0     H 6419   8.847   3.157   9.013 -0.3961 -0.4670 -0.1600
   48MOL0     H 6420   8.884   3.322   8.985 -0.4386  0.2473  0.8544
   48MOL0     H 6421   8.755   3.250   9.252  0.3318  0.3918  0.2618
   48MOL0     H 6422   8.784   3.404   9.197  2.4415 -0.3948 -1.5047
   48MOL0     H 6423   8.609   3.195   9.060  1.3384  0.0608 -0.4190
   48MOL0     H 6424   8.544   3.300   9.186  0.1801 -2.3764  0.6734
   48MOL0     H 6425   8.576   3.493   9.055  1.5073 -0.8194  1.1810
   48MOL0     H 6426   8.656   3.422   8.917 -0.6732  0.3056 -1.6540
   48MOL0     H 6427   8.462   3.266   8.887  0.2171  0.3151 -1.1080
   48MOL0     H 6428   8.449   3.437   8.833 -0.7353 -0.0063  0.7320
   48MOL0     H 6429   8.313   3.324   9.058  2.1130  0.2545  1.9711
   48MOL0     H 6430   8.373   3.482   9.086 -1.0445 -1.3234  2.0580
   48MOL0     H 6431   8.119   3.305   8.894  0.6300  0.8177  1.4648
   48MOL0     H 6432   7.869   3.450   8.777 -0.9362  1.1560 -1.8459
   48MOL0     H 6433   7.948   3.546   8.639  0.0574 -0.3261 -0.0122
   48MOL0     H 6434   8.051   3.335   8.562 -0.8207  1.4639  0.5112
   48MOL0     H 6435   7.971   3.244   8.700  0.4247 -0.3385  0.9285
   48MOL0     H 6436   7.870   3.185   8.500  0.7542 -0.2072  0.9188
   48MOL0     H 6437   7.863   3.351   8.439 -0.1449 -0.0657  0.4089
   48MOL0     H 6438   7.697   3.415   8.592  1.6406  0.3748 -2.0457
   48MOL0     H 6439   7.700   3.255   8.676  0.6295  1.0746  1.1817
   48MOL0     H 6440   7.470   3.403   8.665 -2.4647  1.1428 -0.6925
   48MOL0     H 6441   7.252   3.472   8.619 -0.7587 -1.3102  0.3376
   48MOL0     H 6442   6.801   3.417   8.435  0.6520  0.2489 -0.0005
   48MOL0     H 6443   6.581   3.476   8.331 -0.6239 -3.3559 -0.1924
   48MOL0     H 6444   6.571   3.532   7.881 -0.4425  0.0314 -0.4541
   48MOL0     H 6445   6.524   3.375   7.937 -0.0963  0.6056 -2.3841
   48MOL0     H 6446   6.333   3.607   7.972 -1.1688 -0.0070 -0.0752
   48MOL0     H 6447   6.338   3.518   7.820  1.6028  1.2210 -0.4928
   48MOL0     H 6448   6.283   3.304   7.942 -1.0210 -1.3519  2.6189
   48MOL0     H 6449   6.292   3.389   8.089 -2.8315  4.5545  2.1106
   48MOL0     H 6450   6.100   3.475   7.863 -1.5833 -0.4719  0.5540
   48MOL0     H 6451   6.087   3.534   8.029 -0.3158  0.9989 -1.2713
   48MOL0     H 6452   6.035   3.313   8.101  0.3579  2.7411  1.3030
   48MOL0     H 6453   6.053   3.241   7.937  1.5593 -0.1884  1.5262
   48MOL0     H 6454   5.852   3.470   8.010  1.2831  1.6199 -0.6896
   48MOL0     H 6455   5.873   3.383   7.856  0.6450  1.1177  0.4114
   48MOL0     H 6456   5.679   3.304   7.986  1.0538  2.3502  0.0255
   48MOL0     H 6457   5.794   3.240   8.110 -0.9120  1.4849  0.4040
   48MOL0     H 6458   5.763   3.152   7.820  2.3727 -0.7181 -1.3427
   48MOL0     H 6459   5.892   3.102   7.920  0.1613  1.2767  2.0395
   48MOL0     H 6460   6.759   3.458   7.942  3.8271 -2.3122  0.3153
   48MOL0     H 6461   6.971   3.376   8.048  0.2134 -0.4892  0.0280
   48MOL0     H 6462   7.236   3.236   8.258  1.1435 -0.7803 -0.4369
   48MOL0     H 6463   7.465   3.181   8.293  0.9061 -1.9964  2.2538
   48MOL0     H 6464   9.420   3.049   9.322 -1.8075 -1.0377 -0.9600
   48MOL0     H 6465   9.628   2.955   9.253  0.5452  0.6972 -0.4423
   48MOL0     H 6466   9.872   2.702   8.763 -0.5110  0.8159  1.0066
   48MOL0     H 6467  10.116   2.679   8.706 -1.2700 -0.0881 -0.6258
   48MOL0     H 6468  10.334   2.737   8.676  0.2502  2.0277 -0.2457
   48MOL0     H 6469  10.377   2.605   8.792  1.2907 -0.2221 -2.7452
   48MOL0     H 6470  10.596   2.694   8.825  2.1795  1.3360  0.4932
   48MOL0     H 6471  10.542   2.849   8.744 -3.9674  0.6261 -1.4574
   48MOL0     H 6472  10.531   2.736   8.534  0.2430  2.8107  1.7753
   48MOL0     H 6473  10.547   2.583   8.614 -1.6346 -0.1460  0.4155
   48MOL0     H 6474  10.786   2.656   8.682  0.0687  2.6909  2.0692
   48MOL0     H 6475  10.759   2.629   8.509  0.8324 -1.8232  1.1793
   48MOL0     H 6476  10.868   3.030   8.541 -1.5946  1.0881 -1.2622
   48MOL0     H 6477  10.205   2.917   9.054  0.1988 -1.6525  0.9928
   48MOL0     H 6478  10.055   2.950   9.211  1.9136  0.2351 -1.2982
   48MOL0     H 6479   9.968   3.077   9.115 -0.2336 -0.3794  1.3149
   48MOL0     H 6480   9.882   2.935   9.177  0.3662  0.7779  0.1185
   49MOL0     O 6481   0.730   0.126   7.467  0.2196 -0.9055 -0.6930
   49MOL0     C 6482   0.686   0.034   7.537 -0.7614 -0.5828  0.2405
   49MOL0     O 6483   0.761  -0.034   7.635  0.4408 -0.5479 -0.4142
   49MOL0     C 6484   0.888   0.011   7.674 -0.2572 -0.3999  0.6326
   49MOL0     C 6485   0.987   0.037   7.573 -0.7606 -0.3015  0.2706
   49MOL0     C 6486   1.114   0.073   7.598  0.3017  0.1860 -0.3934
   49MOL0     C 6487   1.141   0.109   7.730 -0.1025  0.3391  0.2778
   49MOL0     O 6488   1.261   0.147   7.777  0.6476 -0.7407  0.1742
   49MOL0     C 6489   1.357   0.210   7.695 -0.3530 -0.3497 -0.1287
   49MOL0     C 6490   1.479   0.230   7.783  0.2516 -0.3492  0.0095
   49MOL0     C 6491   1.611   0.227   7.710  0.7393 -0.2346 -0.7598
   49MOL0     C 6492   1.731   0.233   7.809  0.6790 -0.2150 -0.0305
   49MOL0     C 6493   1.862   0.235   7.735  0.5407  1.1774 -0.4343
   49MOL0     C 6494   1.887   0.374   7.685  0.5121 -0.0860 -0.2271
   49MOL0     C 6495   2.021   0.390   7.623 -0.3020 -0.1166  0.5101
   49MOL0     C 6496   2.069   0.530   7.612 -0.3905 -0.1822  0.3719
   49MOL0     N 6497   2.201   0.528   7.541 -0.2768  0.3593 -0.1293
   49MOL0     C 6498   2.222   0.611   7.429  0.8672  0.6328 -0.7636
   49MOL0     C 6499   2.353   0.601   7.403  0.2030 -0.3438  0.2479
   49MOL0     C 6500   2.420   0.682   7.302 -0.0865  0.0635  0.3392
   49MOL0     C 6501   2.571   0.700   7.315  0.2017  0.1318  0.8115
   49MOL0     C 6502   2.631   0.755   7.188 -0.7658 -0.3830  0.5156
   49MOL0     C 6503   2.778   0.813   7.207  0.2843 -0.1343 -0.1110
   49MOL0     O 6504   2.849   0.733   7.302 -0.9868 -0.8457  0.0447
   49MOL0     C 6505   2.985   0.756   7.318 -0.4570  0.0333 -0.1030
   49MOL0     C 6506   3.054   0.655   7.385 -0.0399  0.1405  0.1023
   49MOL0     C 6507   3.194   0.660   7.399 -1.1076  1.1854  0.1812
   49MOL0     C 6508   3.268   0.767   7.347 -0.1012 -0.1185  0.4482
   49MOL0     C 6509   3.418   0.779   7.362  0.8207 -0.5338  0.3241
   49MOL0     O 6510   3.479   0.905   7.341  0.0774  0.5865 -0.5548
   49MOL0     C 6511   3.610   0.918   7.317 -0.1076 -0.3691  0.4336
   49MOL0     C 6512   3.637   1.011   7.213 -0.4787  0.0402 -0.3461
   49MOL0     C 6513   3.766   1.031   7.170 -0.0328 -0.1056  0.9531
   49MOL0     C 6514   3.881   0.975   7.228  0.3765 -0.4645 -0.3564
   49MOL0     O 6515   3.995   1.024   7.175 -0.4547  0.2218 -0.2663
   49MOL0     C 6516   4.119   0.986   7.247  0.4335  0.4241  0.1074
   49MOL0     C 6517   4.243   1.053   7.202  0.5014 -0.1884 -0.8758
   49MOL0     C 6518   4.244   1.195   7.223  0.4225 -0.4556 -0.4639
   49MOL0     C 6519   4.362   1.250   7.162  0.4735 -0.0782  0.6794
   49MOL0     C 6520   4.371   1.400   7.197 -0.0613  0.2004  0.2492
   49MOL0     C 6521   4.458   1.494   7.104  0.0251 -0.2659 -0.4156
   49MOL0     C 6522   4.392   1.527   6.969 -0.3600 -0.5332  0.4917
   49MOL0     C 6523   4.446   1.664   6.911  0.3275 -0.7323 -0.0015
   49MOL0    Cl 6524   4.619   1.644   6.869 -0.1255  0.3696  0.3849
   49MOL0     C 6525   3.854   0.883   7.331 -0.6393 -0.2427 -0.1869
   49MOL0     C 6526   3.723   0.852   7.377 -0.0563 -1.1305  1.0151
   49MOL0     O 6527   3.475   0.673   7.391  0.2977  0.2250 -0.1149
   49MOL0     C 6528   3.197   0.874   7.286  0.5286 -0.5512  0.1206
   49MOL0     C 6529   3.053   0.868   7.262 -0.2441  0.9008 -0.4391
   49MOL0     N 6530   2.404   0.507   7.492  0.8353 -0.1353  0.0894
   49MOL0     N 6531   2.319   0.462   7.580 -0.4375 -0.4644  0.0830
   49MOL0     C 6532   1.051   0.088   7.835  0.6881 -0.2322  0.4383
   49MOL0     C 6533   0.918   0.038   7.803 -0.2009 -0.3264 -0.3772
   49MOL0     C 6534   0.551  -0.036   7.504 -0.7291  0.1325 -0.1395
   49MOL0     C 6535   0.507  -0.139   7.594  0.2671 -0.5533 -0.4120
   49MOL0     C 6536   0.396  -0.218   7.568  0.2487 -0.5621 -0.5216
   49MOL0     C 6537   0.323  -0.197   7.458 -0.3857 -0.2454 -0.0319
   49MOL0     O 6538   0.215  -0.281   7.442 -0.3155 -0.6017 -0.4078
   49MOL0     C 6539   0.153  -0.300   7.310  0.3801 -0.3047  0.0820
   49MOL0     C 6540   0.073  -0.429   7.299 -0.4022 -0.0656  0.0832
   49MOL0     C 6541  -0.052  -0.421   7.384  0.2700  0.3315 -0.0808
   49MOL0     C 6542  -0.119  -0.558   7.420 -0.1152 -0.0782 -1.1688
   49MOL0     C 6543  -0.173  -0.634   7.305  0.7644  1.0153 -0.4849
   49MOL0     C 6544  -0.217  -0.696   7.211 -0.6304 -0.1670  0.8891
   49MOL0     C 6545   0.356  -0.088   7.372  0.2853  0.3149  0.0201
   49MOL0     C 6546   0.468  -0.011   7.391 -0.5476  0.0301  0.0908
   49MOL0     C 6547   0.493   0.087   7.285  0.2435 -0.4242 -0.4034
   49MOL0     H 6548   0.967   0.007   7.470 -2.1990  2.7959 -0.4877
   49MOL0     H 6549   1.188   0.078   7.519 -0.9008  2.4456 -1.4795
   49MOL0     H 6550   1.390   0.148   7.611  2.3944 -0.7207  1.1279
   49MOL0     H 6551   1.323   0.308   7.659  1.2381  0.6656  0.9670
   49MOL0     H 6552   1.476   0.155   7.863  1.3695 -1.8254 -1.2735
   49MOL0     H 6553   1.468   0.322   7.841 -0.5708 -1.2408  1.3328
   49MOL0     H 6554   1.616   0.317   7.648 -0.4584 -0.3908 -1.1121
   49MOL0     H 6555   1.609   0.144   7.639 -0.7916 -1.0996  0.2274
   49MOL0     H 6556   1.716   0.318   7.876 -0.8324 -1.4308  1.2633
   49MOL0     H 6557   1.731   0.149   7.879 -0.3472 -0.6804 -0.5523
   49MOL0     H 6558   1.940   0.200   7.803  0.6058  0.2654 -0.9657
   49MOL0     H 6559   1.836   0.161   7.659 -1.4128 -0.7302  1.9197
   49MOL0     H 6560   1.807   0.406   7.618  0.2931 -0.6260 -0.2329
   49MOL0     H 6561   1.886   0.452   7.762  0.7263  0.1433 -0.4564
   49MOL0     H 6562   2.001   0.355   7.521  3.2792 -3.2357  0.6615
   49MOL0     H 6563   2.093   0.322   7.669 -0.3642 -1.3535 -1.1108
   49MOL0     H 6564   1.998   0.586   7.551 -1.0568  1.1287  2.2551
   49MOL0     H 6565   2.088   0.578   7.709 -0.8637  0.1054  0.3243
   49MOL0     H 6566   2.145   0.671   7.381  1.8556  2.0246 -0.6808
   49MOL0     H 6567   2.389   0.646   7.204 -1.1119 -1.2979  1.1302
   49MOL0     H 6568   2.390   0.787   7.312 -3.7019 -0.8655  0.9641
   49MOL0     H 6569   2.596   0.759   7.404  0.5654  0.5383  0.4401
   49MOL0     H 6570   2.610   0.598   7.320  2.1894  0.8831  1.8731
   49MOL0     H 6571   2.565   0.809   7.120  2.4747 -0.1096 -2.7201
   49MOL0     H 6572   2.650   0.663   7.133  0.7600  0.1226  0.1394
   49MOL0     H 6573   2.775   0.918   7.240  0.5593  0.9045 -3.0433
   49MOL0     H 6574   2.827   0.816   7.109 -1.1915 -2.3977 -0.9948
   49MOL0     H 6575   2.994   0.575   7.425 -1.6157  2.5006  2.8674
   49MOL0     H 6576   3.258   0.584   7.444  0.6214  1.7126 -1.2848
   49MOL0     H 6577   3.560   1.065   7.159 -0.6428 -0.4152 -0.5688
   49MOL0     H 6578   3.782   1.104   7.092 -1.1254 -1.8827 -1.0121
   49MOL0     H 6579   4.105   1.016   7.351 -0.6970  2.1076 -0.4886
   49MOL0     H 6580   4.126   0.877   7.237 -1.6297  0.4675 -3.8108
   49MOL0     H 6581   4.338   1.007   7.233 -0.5404 -0.8492  1.5996
   49MOL0     H 6582   4.233   1.045   7.094  0.6046 -2.5770 -0.7569
   49MOL0     H 6583   4.160   1.240   7.169  0.3483 -1.1360 -0.9234
   49MOL0     H 6584   4.240   1.225   7.328  2.6400 -0.2312 -0.3908
   49MOL0     H 6585   4.357   1.241   7.053  2.9851  1.1871  0.4030
   49MOL0     H 6586   4.455   1.200   7.192  2.4159  2.5487 -0.5561
   49MOL0     H 6587   4.408   1.400   7.300  1.4757 -0.6030 -0.2687
   49MOL0     H 6588   4.275   1.453   7.197  0.1776  0.6636  1.2975
   49MOL0     H 6589   4.483   1.589   7.153 -0.9675  1.6373 -3.3334
   49MOL0     H 6590   4.554   1.447   7.079 -0.1302 -1.1365  0.5397
   49MOL0     H 6591   4.283   1.532   6.978 -0.1951  1.8288  2.0457
   49MOL0     H 6592   4.411   1.441   6.904 -0.6749  0.3286 -0.7766
   49MOL0     H 6593   4.380   1.692   6.828  0.4343 -1.7261 -0.4418
   49MOL0     H 6594   4.431   1.737   6.991 -0.3542  0.9504 -1.5886
   49MOL0     H 6595   3.932   0.825   7.378 -0.0781  0.6799  0.0541
   49MOL0     H 6596   3.725   0.784   7.462  0.4147 -1.2068  0.9451
   49MOL0     H 6597   3.228   0.971   7.250  0.6813  0.6568  3.1667
   49MOL0     H 6598   2.996   0.945   7.210 -2.3288  0.7910  1.5044
   49MOL0     H 6599   1.096   0.097   7.934  0.6524  1.4821  0.3438
   49MOL0     H 6600   0.844   0.013   7.878 -0.0253 -0.6105 -0.2972
   49MOL0     H 6601   0.552  -0.167   7.688  4.4659  1.8091 -1.4579
   49MOL0     H 6602   0.380  -0.305   7.630  2.7188 -1.4171 -0.9615
   49MOL0     H 6603   0.236  -0.306   7.240  0.0420 -1.1283 -0.2628
   49MOL0     H 6604   0.084  -0.218   7.288 -4.8932 -2.9359  4.2383
   49MOL0     H 6605   0.137  -0.513   7.326  0.7993  0.7696 -0.0985
   49MOL0     H 6606   0.048  -0.451   7.194 -0.3362 -0.6011  0.1816
   49MOL0     H 6607  -0.127  -0.355   7.339 -0.7566 -0.9834 -0.3592
   49MOL0     H 6608  -0.020  -0.373   7.477  0.3583  1.3148 -0.6029
   49MOL0     H 6609  -0.040  -0.617   7.467 -0.6690 -1.2343 -1.6570
   49MOL0     H 6610  -0.200  -0.539   7.490 -1.5502 -1.3822 -2.3947
   49MOL0     H 6611  -0.244  -0.749   7.122 -3.6522 -0.4252  1.8638
   49MOL0     H 6612   0.281  -0.074   7.295  0.6003  1.7623 -0.0560
   49MOL0     H 6613   0.394   0.129   7.263  1.0679  2.8997  1.5165
   49MOL0     H 6614   0.557   0.167   7.323  1.2353 -1.2020 -0.4274
   49MOL0     H 6615   0.556   0.043   7.208  3.2999  0.7388  1.2492
   50MOL0     O 6616  10.416   4.444  10.560 -0.0778  0.0712  0.3627
   50MOL0     C 6617  10.467   4.552  10.550 -1.7148  0.0823  0.2991
   50MOL0     O 6618  10.598   4.582  10.585 -0.0066 -0.1014 -0.6623
   50MOL0     C 6619  10.674   4.484  10.640 -0.3480 -0.8156  0.1993
   50MOL0     C 6620  10.803   4.467  10.597  0.0299  0.2972  0.1327
   50MOL0     C 6621  10.882   4.363  10.644  0.8659  0.2788  0.4527
   50MOL0     C 6622  10.827   4.273  10.739  0.1281  0.7478 -0.1572
   50MOL0     O 6623  10.907   4.163  10.759  0.3435 -0.2681  0.1370
   50MOL0     C 6624  10.904   4.097  10.887 -0.4981 -0.0413 -0.3768
   50MOL0     C 6625  10.967   3.957  10.890 -0.6164  0.6494 -0.1546
   50MOL0     C 6626  11.004   3.910  11.030 -0.1354 -0.0616 -0.8186
   50MOL0     C 6627  11.072   3.777  11.030 -0.4826  0.7991 -0.1259
   50MOL0     C 6628  11.101   3.743  11.178  0.5546  0.0688  0.4643
   50MOL0     C 6629  11.178   3.606  11.179  0.0750  0.0174  0.0501
   50MOL0     C 6630  11.236   3.563  11.321  0.1081  0.2508 -1.5342
   50MOL0     C 6631  11.351   3.464  11.309 -0.3268 -0.1221  0.3457
   50MOL0     N 6632  11.485   3.511  11.264 -0.4214  0.2262  0.5892
   50MOL0     C 6633  11.576   3.561  11.345 -0.4391 -1.1720 -0.2144
   50MOL0     C 6634  11.680   3.592  11.258  0.3087 -0.1726  0.1473
   50MOL0     C 6635  11.799   3.648  11.320  0.1723 -0.6525  0.7947
   50MOL0     C 6636  11.927   3.579  11.272  0.1036  0.0324 -0.2590
   50MOL0     C 6637  11.957   3.430  11.321 -0.0302  0.7320  0.2535
   50MOL0     C 6638  11.990   3.423  11.471  0.7569 -0.3019  0.7798
   50MOL0     O 6639  12.109   3.502  11.485  0.0204  0.9033  0.0110
   50MOL0     C 6640  12.219   3.428  11.514 -0.2032 -0.0955 -0.1894
   50MOL0     C 6641  12.249   3.302  11.451 -0.0634 -0.7809  0.0750
   50MOL0     C 6642  12.365   3.238  11.490  0.3333 -0.1183  0.0757
   50MOL0     C 6643  12.461   3.290  11.575 -0.2900 -0.0558  0.0720
   50MOL0     C 6644  12.596   3.229  11.600  0.3489  0.5587 -0.3383
   50MOL0     O 6645  12.625   3.115  11.529  0.2000 -0.1529 -0.6555
   50MOL0     C 6646  12.716   3.017  11.583  0.1751 -0.0526 -0.0071
   50MOL0     C 6647  12.786   2.937  11.492 -0.7323  0.4288  1.1848
   50MOL0     C 6648  12.866   2.832  11.538  0.1644  0.6805  0.6855
   50MOL0     C 6649  12.873   2.796  11.678  0.3745  0.8075 -0.4531
   50MOL0     O 6650  12.938   2.691  11.732 -0.6407  0.1104  0.0709
   50MOL0     C 6651  13.044   2.638  11.652  1.0803 -1.5867  0.0258
   50MOL0     C 6652  13.136   2.542  11.725 -0.1626  0.1316 -0.0268
   50MOL0     C 6653  13.249   2.504  11.636 -0.9051  0.1798  0.0672
   50MOL0     C 6654  13.335   2.408  11.698  0.0347 -0.6240 -0.7208
   50MOL0     C 6655  13.466   2.411  11.624  0.8976 -0.3482  1.1369
   50MOL0     C 6656  13.556   2.312  11.690  0.0085 -0.4051  0.1377
   50MOL0     C 6657  13.699   2.322  11.644 -0.3944  0.5767 -0.1559
   50MOL0     C 6658  13.738   2.233  11.528 -0.0245  0.5470 -0.0659
   50MOL0    Cl 6659  13.899   2.280  11.472  0.3301  0.1093 -0.1360
   50MOL0     C 6660  12.793   2.867  11.765 -0.7314 -0.7163  0.0021
   50MOL0     C 6661  12.722   2.980  11.719 -0.4935  0.4505 -0.3420
   50MOL0     O 6662  12.670   3.278  11.689  0.0807 -0.1543  0.0721
   50MOL0     C 6663  12.431   3.413  11.638  0.3532 -0.5835  0.6206
   50MOL0     C 6664  12.312   3.482  11.606 -0.0105  0.4321  0.3458
   50MOL0     N 6665  11.642   3.555  11.135 -0.7980  0.6456 -0.2913
   50MOL0     N 6666  11.527   3.498  11.136 -0.3662  0.1489  0.9416
   50MOL0     C 6667  10.701   4.292  10.786  0.1283 -1.2463 -0.8495
   50MOL0     C 6668  10.625   4.396  10.737  0.1906  0.4132 -0.1895
   50MOL0     C 6669  10.382   4.662  10.495  0.2292  0.6595  0.2894
   50MOL0     C 6670  10.269   4.626  10.419  0.3539 -0.2821  0.1189
   50MOL0     C 6671  10.175   4.721  10.365 -0.4649  0.0990 -0.8732
   50MOL0     C 6672  10.185   4.860  10.385 -1.1411  0.3946 -0.3050
   50MOL0     O 6673  10.103   4.962  10.345  0.0670  0.1381 -0.2705
   50MOL0     C 6674   9.985   4.923  10.272  0.4981  0.1903 -0.0220
   50MOL0     C 6675   9.895   5.044  10.268  0.5646 -0.2321 -0.1327
   50MOL0     C 6676   9.755   4.999  10.244  0.0537 -0.2595  0.0008
   50MOL0     C 6677   9.716   4.984  10.095  0.5006 -0.3641  0.8845
   50MOL0     C 6678   9.564   4.975  10.084  1.3044  0.5829  0.0151
   50MOL0     C 6679   9.441   4.982  10.056  0.5826  0.7407 -0.0416
   50MOL0     C 6680  10.305   4.895  10.463  0.0561  0.2120  0.3240
   50MOL0     C 6681  10.409   4.800  10.504  0.2899 -0.8666  0.6916
   50MOL0     C 6682  10.534   4.860  10.575  0.4467  0.4715 -0.1193
   50MOL0     H 6683  10.842   4.529  10.517 -0.0798 -1.4632 -1.3541
   50MOL0     H 6684  10.982   4.341  10.608  0.7327  2.0822 -1.1960
   50MOL0     H 6685  10.965   4.162  10.950  1.9889 -0.4635 -2.1703
   50MOL0     H 6686  10.808   4.101  10.939 -0.4178 -0.1555 -0.2181
   50MOL0     H 6687  11.062   3.962  10.836 -0.0001  1.9755  0.9886
   50MOL0     H 6688  10.901   3.879  10.852  0.2700 -0.3526  0.2981
   50MOL0     H 6689  10.915   3.900  11.092 -0.6367  1.0771 -1.3206
   50MOL0     H 6690  11.076   3.979  11.076 -0.4705 -0.0336 -0.3268
   50MOL0     H 6691  11.006   3.698  10.993 -0.9213  0.5231  1.1995
   50MOL0     H 6692  11.164   3.777  10.971  0.3396 -2.2895  0.9396
   50MOL0     H 6693  11.157   3.821  11.230 -0.2412  1.4351 -0.6523
   50MOL0     H 6694  11.008   3.743  11.236  0.4598 -4.1917  0.6033
   50MOL0     H 6695  11.116   3.524  11.140 -0.9721  0.7540  0.1050
   50MOL0     H 6696  11.262   3.614  11.110 -0.9911  1.8927 -1.1221
   50MOL0     H 6697  11.157   3.509  11.374  0.6013  2.4289  1.6948
   50MOL0     H 6698  11.271   3.646  11.383 -0.1896 -2.0216  1.8941
   50MOL0     H 6699  11.367   3.422  11.409  2.3332  2.3397  1.0667
   50MOL0     H 6700  11.315   3.381  11.247  0.4022 -1.0993  1.1979
   50MOL0     H 6701  11.578   3.578  11.452 -4.1513  1.9016 -0.3962
   50MOL0     H 6702  11.797   3.756  11.303  2.0051 -0.5792  0.8685
   50MOL0     H 6703  11.794   3.652  11.429  2.7437 -0.7080  0.9601
   50MOL0     H 6704  11.934   3.584  11.163 -2.3313 -0.8171 -0.5082
   50MOL0     H 6705  12.007   3.634  11.322 -0.4458  0.1460  0.5327
   50MOL0     H 6706  12.032   3.381  11.258 -3.1706 -2.6175 -1.2526
   50MOL0     H 6707  11.866   3.373  11.301  0.6428 -0.9247  1.7011
   50MOL0     H 6708  11.994   3.316  11.493  0.8203 -0.7349 -1.1898
   50MOL0     H 6709  11.907   3.474  11.521 -1.6064  0.6656 -3.6207
   50MOL0     H 6710  12.181   3.271  11.373  0.4849  2.0788 -1.6902
   50MOL0     H 6711  12.389   3.146  11.437  0.6937 -0.9455  1.6122
   50MOL0     H 6712  12.771   2.963  11.388 -0.6402  0.1748  1.1062
   50MOL0     H 6713  12.914   2.771  11.462  0.8775  1.4132  0.5429
   50MOL0     H 6714  13.000   2.594  11.562 -1.0417  1.1082 -0.3831
   50MOL0     H 6715  13.110   2.722  11.625 -0.0822 -0.6774 -0.0604
   50MOL0     H 6716  13.173   2.586  11.819 -0.2847 -0.5222  0.3334
   50MOL0     H 6717  13.072   2.455  11.744  0.2377 -0.7587 -2.4421
   50MOL0     H 6718  13.207   2.463  11.544  1.0315  0.5539 -1.0335
   50MOL0     H 6719  13.305   2.595  11.613 -1.7334  0.1653 -2.1753
   50MOL0     H 6720  13.287   2.310  11.686 -1.8418  0.2319 -0.4358
   50MOL0     H 6721  13.340   2.424  11.806  1.0557 -1.8336 -0.5608
   50MOL0     H 6722  13.516   2.508  11.620  1.2605 -0.4788 -3.9014
   50MOL0     H 6723  13.440   2.377  11.523 -1.0907  2.0201  0.7724
   50MOL0     H 6724  13.561   2.345  11.794  0.6800  0.7775 -0.2491
   50MOL0     H 6725  13.522   2.208  11.681  2.9702 -1.3781 -1.2718
   50MOL0     H 6726  13.764   2.301  11.729  0.4754 -0.0924 -0.9700
   50MOL0     H 6727  13.716   2.428  11.624  0.1649  0.4404 -0.4108
   50MOL0     H 6728  13.743   2.127  11.553 -0.5314  0.5513  0.0645
   50MOL0     H 6729  13.664   2.259  11.452 -2.5728 -1.9794  1.3581
   50MOL0     H 6730  12.776   2.842  11.870 -1.5150  1.4331  0.4432
   50MOL0     H 6731  12.659   3.036  11.787  1.7439  0.9832  1.4161
   50MOL0     H 6732  12.495   3.462  11.711 -1.0000  0.1582  1.3437
   50MOL0     H 6733  12.294   3.574  11.661 -0.9397 -0.9638  2.4967
   50MOL0     H 6734  10.658   4.228  10.863  1.3771 -1.3560 -0.2301
   50MOL0     H 6735  10.525   4.395  10.779  0.9451  0.2764  1.6989
   50MOL0     H 6736  10.241   4.523  10.400 -0.9722 -0.2266  1.5734
   50MOL0     H 6737  10.090   4.677  10.314  0.0474 -0.8002 -0.9694
   50MOL0     H 6738   9.941   4.838  10.326  1.4454  0.2021  0.7908
   50MOL0     H 6739  10.026   4.894  10.175  1.1295 -1.0998  0.6075
   50MOL0     H 6740   9.925   5.109  10.186  0.1449  0.3874  0.1968
   50MOL0     H 6741   9.893   5.087  10.369 -2.5354 -2.8016  1.0982
   50MOL0     H 6742   9.683   5.064  10.294 -0.4621 -1.5542  1.0059
   50MOL0     H 6743   9.738   4.901  10.289  2.4337  0.3725  2.5861
   50MOL0     H 6744   9.742   5.083  10.057  0.1948  0.1741  2.0276
   50MOL0     H 6745   9.772   4.909  10.039 -2.2086  0.4835 -3.4947
   50MOL0     H 6746   9.338   4.979  10.030  0.7123 -0.6177 -0.4902
   50MOL0     H 6747  10.320   4.999  10.490 -2.3416  0.2486  1.8279
   50MOL0     H 6748  10.521   4.968  10.581 -2.5143  0.1396  1.3414
   50MOL0     H 6749  10.523   4.818  10.675 -3.6994  0.9716 -0.1766
   50MOL0     H 6750  10.628   4.839  10.522  0.0748  0.7067 -0.8810
   51MOL0     O 6751   2.805   7.483   1.863 -0.4411  0.2305  0.5166
   51MOL0     C 6752   2.719   7.575   1.865  0.0206  0.9796 -0.0972
   51MOL0     O 6753   2.733   7.690   1.787  0.0677 -0.3507 -0.1554
   51MOL0     C 6754   2.850   7.721   1.731 -0.4824  0.0891 -0.7020
   51MOL0     C 6755   2.925   7.822   1.788 -0.4588  0.2778 -0.0055
   51MOL0     C 6756   3.047   7.852   1.727 -0.6148 -0.1415 -0.1455
   51MOL0     C 6757   3.096   7.789   1.614 -0.3702  0.0286 -0.3913
   51MOL0     O 6758   3.205   7.823   1.554  0.0790 -1.2063 -0.3140
   51MOL0     C 6759   3.317   7.859   1.635  0.4818  0.6162 -0.4005
   51MOL0     C 6760   3.427   7.934   1.552 -0.1571  0.9036 -0.6773
   51MOL0     C 6761   3.493   7.832   1.453  0.1404 -0.0940 -0.1948
   51MOL0     C 6762   3.641   7.857   1.449 -0.1225  0.5483 -0.4797
   51MOL0     C 6763   3.708   7.749   1.365 -0.3823 -0.3840  0.0444
   51MOL0     C 6764   3.853   7.785   1.355  0.2013  0.4629 -0.1848
   51MOL0     C 6765   3.953   7.668   1.336 -0.3071 -0.3161  0.0549
   51MOL0     C 6766   4.094   7.700   1.287 -0.2903 -0.0688 -0.3564
   51MOL0     N 6767   4.182   7.768   1.380 -0.0553 -0.8497 -0.7386
   51MOL0     C 6768   4.239   7.698   1.481  0.6458  1.1655  0.1759
   51MOL0     C 6769   4.308   7.793   1.553 -0.5808 -0.5870 -0.4248
   51MOL0     C 6770   4.386   7.778   1.673  0.6208  0.4473 -0.1210
   51MOL0     C 6771   4.460   7.646   1.695 -1.1406  0.5635 -0.2925
   51MOL0     C 6772   4.522   7.652   1.839  0.6348  0.8764  0.1254
   51MOL0     C 6773   4.627   7.754   1.874  0.7536 -0.0675 -0.5528
   51MOL0     O 6774   4.741   7.716   1.799 -0.3988  0.1004  0.4468
   51MOL0     C 6775   4.871   7.741   1.834 -0.3847  0.4830 -0.4750
   51MOL0     C 6776   4.965   7.721   1.731 -0.7858  0.3787 -0.0362
   51MOL0     C 6777   5.105   7.750   1.746 -0.2117  0.4616  0.1177
   51MOL0     C 6778   5.155   7.793   1.868 -0.3030  0.4411 -0.4550
   51MOL0     C 6779   5.298   7.833   1.876  0.4548 -0.5787  0.6694
   51MOL0     O 6780   5.351   7.854   2.000  0.4089 -0.0638 -0.3858
   51MOL0     C 6781   5.485   7.875   1.998  0.0876  0.2800  0.2260
   51MOL0     C 6782   5.581   7.783   2.036  0.2148  1.1774  0.0902
   51MOL0     C 6783   5.719   7.822   2.042  0.3019  0.3792 -0.2293
   51MOL0     C 6784   5.757   7.947   2.001  0.5664 -0.4988 -0.8914
   51MOL0     O 6785   5.889   7.985   2.004 -0.3508 -0.2115  0.6152
   51MOL0     C 6786   5.985   7.879   1.988 -0.0499  0.1586 -0.3426
   51MOL0     C 6787   6.125   7.927   1.939 -0.2674  0.2396 -1.0414
   51MOL0     C 6788   6.199   8.002   2.047 -0.0192  0.3155  1.0548
   51MOL0     C 6789   6.339   8.047   1.996  0.0942 -0.0347 -0.2916
   51MOL0     C 6790   6.431   8.079   2.106 -0.0589  0.1705 -0.4451
   51MOL0     C 6791   6.560   8.126   2.039  0.3694 -0.1756  0.7545
   51MOL0     C 6792   6.639   8.205   2.140 -0.4527 -0.0260 -0.5742
   51MOL0     C 6793   6.766   8.275   2.090  0.5339  0.6101  0.3834
   51MOL0    Cl 6794   6.732   8.339   1.925 -0.3330 -0.0785 -0.3411
   51MOL0     C 6795   5.659   8.040   1.968  0.4565 -0.1278  0.1538
   51MOL0     C 6796   5.526   8.003   1.969 -0.3779 -0.4150  0.4724
   51MOL0     O 6797   5.356   7.839   1.768 -0.6978  0.2171 -0.7824
   51MOL0     C 6798   5.059   7.812   1.972  0.5457 -0.0536 -0.3506
   51MOL0     C 6799   4.917   7.797   1.952  0.1555 -0.3324  0.1381
   51MOL0     N 6800   4.277   7.918   1.496  0.2952  0.3233 -0.2107
   51MOL0     N 6801   4.208   7.901   1.389  0.4202 -0.7863 -0.7009
   51MOL0     C 6802   3.019   7.685   1.554 -0.1802  1.0290  0.3829
   51MOL0     C 6803   2.890   7.651   1.614 -0.8903 -0.0273  0.8975
   51MOL0     C 6804   2.596   7.556   1.943  0.7764  0.3603  0.1658
   51MOL0     C 6805   2.556   7.427   1.980  0.6352  0.8936 -0.3396
   51MOL0     C 6806   2.438   7.400   2.050  1.3002 -0.2928 -0.8526
   51MOL0     C 6807   2.358   7.503   2.098  0.6297  0.0320  0.4709
   51MOL0     O 6808   2.246   7.477   2.178  0.4864 -0.1112  0.4677
   51MOL0     C 6809   2.153   7.375   2.150 -0.9734 -0.5662 -0.4753
   51MOL0     C 6810   2.176   7.267   2.255  0.6794 -0.4365 -0.9829
   51MOL0     C 6811   2.146   7.123   2.204 -0.5908  0.3580 -0.3953
   51MOL0     C 6812   2.134   7.025   2.320  0.2139  0.3039 -0.1800
   51MOL0     C 6813   2.010   7.029   2.400  0.7617 -0.4239 -0.3677
   51MOL0     C 6814   1.929   7.008   2.491  0.7030  0.9112 -0.1955
   51MOL0     C 6815   2.406   7.634   2.069  0.3999  0.1238 -0.5920
   51MOL0     C 6816   2.513   7.660   1.993 -0.0913  0.1354  0.1715
   51MOL0     C 6817   2.527   7.813   1.954  0.7416 -0.1033 -0.4650
   51MOL0     H 6818   2.885   7.884   1.866 -2.5145 -2.2429  1.0989
   51MOL0     H 6819   3.098   7.939   1.767  2.4797 -0.7603 -2.3644
   51MOL0     H 6820   3.294   7.931   1.714  0.4276 -0.7710  0.8984
   51MOL0     H 6821   3.367   7.770   1.674  1.2261  0.5874 -1.3768
   51MOL0     H 6822   3.494   7.984   1.623 -1.2193  0.8207  0.4267
   51MOL0     H 6823   3.372   8.012   1.499  0.3788  0.4222 -1.9835
   51MOL0     H 6824   3.450   7.846   1.353 -1.6811  0.8017  0.6645
   51MOL0     H 6825   3.478   7.729   1.484  0.2993 -0.3906 -1.0533
   51MOL0     H 6826   3.665   7.958   1.416  2.7757  0.1437  0.1912
   51MOL0     H 6827   3.678   7.848   1.551 -5.3291 -0.4015  1.6623
   51MOL0     H 6828   3.684   7.648   1.399  5.4424 -1.8880  0.9157
   51MOL0     H 6829   3.668   7.752   1.264 -0.8784 -1.4976  0.1987
   51MOL0     H 6830   3.878   7.866   1.286 -0.9358  0.8294 -0.1979
   51MOL0     H 6831   3.879   7.826   1.453 -1.4827 -0.1867  0.5751
   51MOL0     H 6832   3.911   7.593   1.269 -3.2575  0.3838  0.9770
   51MOL0     H 6833   3.973   7.621   1.433  0.4101  0.9742  0.5612
   51MOL0     H 6834   4.141   7.609   1.248 -0.4700  0.2533 -1.3502
   51MOL0     H 6835   4.088   7.767   1.201 -1.5805 -1.6162 -1.5421
   51MOL0     H 6836   4.223   7.592   1.495 -1.6329  1.3871 -0.3350
   51MOL0     H 6837   4.452   7.864   1.681  2.8497 -1.1256 -0.7726
   51MOL0     H 6838   4.314   7.768   1.755  0.0393 -0.4402 -0.7162
   51MOL0     H 6839   4.403   7.555   1.674  0.2507 -0.4648  0.2593
   51MOL0     H 6840   4.541   7.639   1.623 -1.0534  0.6996 -0.2067
   51MOL0     H 6841   4.552   7.551   1.868 -0.2421  1.3620  3.0703
   51MOL0     H 6842   4.433   7.670   1.900 -0.1593 -1.0635 -0.3772
   51MOL0     H 6843   4.657   7.749   1.979 -1.1822 -1.7481 -0.0251
   51MOL0     H 6844   4.599   7.857   1.848  3.3844  1.1977  1.1710
   51MOL0     H 6845   4.929   7.680   1.637 -1.2282 -0.3124  0.4269
   51MOL0     H 6846   5.170   7.727   1.662  0.4938  0.1841  0.7339
   51MOL0     H 6847   5.554   7.681   2.062 -0.3238  2.1505  4.0147
   51MOL0     H 6848   5.789   7.743   2.067 -1.0273 -1.3251 -1.6934
   51MOL0     H 6849   5.982   7.823   2.082 -1.1227  0.9619  0.1239
   51MOL0     H 6850   5.935   7.815   1.914  0.2034  0.0453 -0.4191
   51MOL0     H 6851   6.189   7.845   1.905 -1.6044 -0.2048 -2.6233
   51MOL0     H 6852   6.105   7.990   1.852  1.9674 -0.1810 -1.9195
   51MOL0     H 6853   6.136   8.086   2.077 -1.4499 -1.0842  2.1420
   51MOL0     H 6854   6.211   7.951   2.143 -1.1921  1.3328  1.7598
   51MOL0     H 6855   6.316   8.132   1.930  1.7573 -1.4211 -2.8307
   51MOL0     H 6856   6.385   7.968   1.936 -0.8583  2.1243 -4.2326
   51MOL0     H 6857   6.456   7.987   2.161  0.4554  0.1157 -0.7623
   51MOL0     H 6858   6.381   8.144   2.179 -2.1031 -2.1041  0.3498
   51MOL0     H 6859   6.622   8.038   2.022  1.9297  0.4370  2.9457
   51MOL0     H 6860   6.538   8.176   1.944 -1.8681 -0.0067  1.3029
   51MOL0     H 6861   6.661   8.138   2.224  0.7266 -2.1088 -2.4472
   51MOL0     H 6862   6.580   8.282   2.189  2.3495  0.0063  3.2354
   51MOL0     H 6863   6.806   8.358   2.148 -0.0789 -0.5544  2.5589
   51MOL0     H 6864   6.838   8.193   2.084  0.3708  0.5121 -0.3644
   51MOL0     H 6865   5.680   8.137   1.925 -1.4627  0.6731  0.9387
   51MOL0     H 6866   5.453   8.077   1.938  1.6058  0.6464 -1.9769
   51MOL0     H 6867   5.085   7.851   2.070  0.7016 -0.2838 -0.3006
   51MOL0     H 6868   4.843   7.823   2.027 -1.9384 -4.2793 -0.3301
   51MOL0     H 6869   3.063   7.632   1.470  0.8751  1.7656  0.4413
   51MOL0     H 6870   2.826   7.575   1.571 -0.6384  0.2383  0.0155
   51MOL0     H 6871   2.615   7.341   1.948 -2.1447 -0.9560 -0.8656
   51MOL0     H 6872   2.417   7.300   2.085 -1.4560  0.9411  1.4200
   51MOL0     H 6873   2.165   7.334   2.049 -2.6240 -1.6318 -0.2842
   51MOL0     H 6874   2.051   7.411   2.162 -0.4853  0.1332  1.9750
   51MOL0     H 6875   2.111   7.290   2.340  0.1053 -2.8962 -0.6845
   51MOL0     H 6876   2.274   7.273   2.303  0.1594 -2.7515  0.5337
   51MOL0     H 6877   2.234   7.090   2.148  1.1998  0.0866  2.3851
   51MOL0     H 6878   2.058   7.108   2.140 -0.9485  0.1118  0.1483
   51MOL0     H 6879   2.150   6.926   2.276 -0.0422 -0.1106  0.6314
   51MOL0     H 6880   2.203   7.044   2.402  0.3248 -0.7754 -0.0081
   51MOL0     H 6881   1.856   6.981   2.565  0.0689  0.3727 -1.0090
   51MOL0     H 6882   2.346   7.715   2.109 -1.0097 -1.8440  1.5555
   51MOL0     H 6883   2.464   7.872   2.021  0.5162 -1.2372  0.3436
   51MOL0     H 6884   2.627   7.856   1.964  1.5446 -1.6832 -1.3585
   51MOL0     H 6885   2.502   7.818   1.848 -0.0377  0.7845 -0.2514
   52MOL0     O 6886   4.934   8.801   0.426  0.1761 -0.4425  0.5922
   52MOL0     C 6887   4.866   8.773   0.527  0.6036  0.0295  0.7334
   52MOL0     O 6888   4.913   8.766   0.659 -0.4249  0.3349 -0.2032
   52MOL0     C 6889   5.048   8.797   0.679 -0.3982 -0.1385  0.1504
   52MOL0     C 6890   5.094   8.934   0.685 -0.0004 -0.0528  0.8173
   52MOL0     C 6891   5.229   8.964   0.704 -0.0723  0.1002 -0.1142
   52MOL0     C 6892   5.322   8.869   0.733  0.4829 -0.2394  0.0761
   52MOL0     O 6893   5.445   8.919   0.756 -0.1065  0.1850 -0.1111
   52MOL0     C 6894   5.561   8.850   0.713  0.2793 -0.2522 -0.3925
   52MOL0     C 6895   5.674   8.925   0.781  0.3347  0.5373 -0.5608
   52MOL0     C 6896   5.812   8.872   0.738 -0.0595  0.7127 -0.7183
   52MOL0     C 6897   5.931   8.931   0.822  0.2030 -0.0688 -0.2746
   52MOL0     C 6898   6.056   8.851   0.790 -0.6133  0.0849  1.1221
   52MOL0     C 6899   6.178   8.933   0.827 -0.9403  0.3594  0.8059
   52MOL0     C 6900   6.303   8.850   0.781  1.2773  0.0642 -0.6805
   52MOL0     C 6901   6.427   8.894   0.858  0.7499  0.1885  0.6418
   52MOL0     N 6902   6.540   8.831   0.787  0.6013  0.0330 -0.9070
   52MOL0     C 6903   6.554   8.699   0.780  0.0183 -0.2497  0.3084
   52MOL0     C 6904   6.670   8.693   0.703 -0.1252 -0.5964  0.4548
   52MOL0     C 6905   6.735   8.566   0.649 -0.0372  0.1034 -0.4878
   52MOL0     C 6906   6.636   8.505   0.550  0.0472 -0.6542  0.7139
   52MOL0     C 6907   6.717   8.445   0.435  0.1910  0.6491 -0.1366
   52MOL0     C 6908   6.638   8.372   0.325  0.2312 -0.2595 -0.1627
   52MOL0     O 6909   6.710   8.275   0.250 -0.4524 -0.4635  0.2984
   52MOL0     C 6910   6.732   8.151   0.302 -0.7895 -0.4463  0.3407
   52MOL0     C 6911   6.835   8.122   0.391  0.8018 -0.2970 -0.1521
   52MOL0     C 6912   6.841   7.991   0.448 -0.5518  0.0484  0.3080
   52MOL0     C 6913   6.740   7.889   0.410  0.0215  0.4187  1.1236
   52MOL0     C 6914   6.738   7.750   0.460 -0.0663 -0.3951  0.2211
   52MOL0     O 6915   6.632   7.664   0.422 -0.0351  0.1288  0.5418
   52MOL0     C 6916   6.635   7.549   0.488 -0.0841 -0.0287 -0.5260
   52MOL0     C 6917   6.573   7.557   0.618 -0.0833  0.2905  1.1636
   52MOL0     C 6918   6.580   7.441   0.697  0.0581 -0.0260 -0.6211
   52MOL0     C 6919   6.614   7.318   0.650 -0.1384 -0.2339 -0.6449
   52MOL0     O 6920   6.578   7.208   0.729 -0.9248  0.0122 -0.5481
   52MOL0     C 6921   6.644   7.084   0.713 -0.7399 -0.3410  0.0706
   52MOL0     C 6922   6.575   6.988   0.802 -0.3712 -0.1973 -0.6858
   52MOL0     C 6923   6.563   7.040   0.952 -0.3370 -0.0467 -0.6793
   52MOL0     C 6924   6.686   7.107   1.018  0.6088 -0.6210 -0.1354
   52MOL0     C 6925   6.663   7.124   1.169  0.0271 -0.5599 -0.6321
   52MOL0     C 6926   6.780   7.171   1.247  0.1873  0.2377  0.2963
   52MOL0     C 6927   6.903   7.078   1.252  0.2153  0.5388  0.2753
   52MOL0     C 6928   7.024   7.137   1.330  0.6275  0.0934 -0.5046
   52MOL0    Cl 6929   6.984   7.136   1.510 -0.5892  0.2015 -0.1124
   52MOL0     C 6930   6.662   7.310   0.520  0.4294  0.0323 -0.3611
   52MOL0     C 6931   6.682   7.428   0.438  0.1294  0.1329  0.0449
   52MOL0     O 6932   6.838   7.725   0.527  0.4742 -0.0581  0.3909
   52MOL0     C 6933   6.635   7.923   0.323  0.3464  0.8057  0.3742
   52MOL0     C 6934   6.639   8.052   0.271 -0.2325  0.7679 -0.0989
   52MOL0     N 6935   6.726   8.815   0.676  0.1715 -0.6499  0.3241
   52MOL0     N 6936   6.643   8.894   0.732 -0.7043 -0.4254  0.1946
   52MOL0     C 6937   5.278   8.734   0.721 -0.2777  0.2767 -0.6151
   52MOL0     C 6938   5.137   8.694   0.691 -0.1347  0.0099 -1.1847
   52MOL0     C 6939   4.724   8.735   0.502  1.4547 -0.1629 -0.4273
   52MOL0     C 6940   4.707   8.644   0.395  0.3426  0.0969 -0.5526
   52MOL0     C 6941   4.577   8.605   0.365  0.7381 -0.0125 -0.0020
   52MOL0     C 6942   4.459   8.646   0.434  0.6889  0.5300 -0.0995
   52MOL0     O 6943   4.342   8.603   0.376  0.4722 -0.2175  0.1268
   52MOL0     C 6944   4.214   8.639   0.438  0.4397 -0.0482 -0.3663
   52MOL0     C 6945   4.111   8.654   0.333  0.1640  0.2912  0.4178
   52MOL0     C 6946   3.971   8.599   0.369 -0.1062  0.2219  0.0862
   52MOL0     C 6947   3.914   8.546   0.245 -0.2259 -0.4891  0.5134
   52MOL0     C 6948   3.766   8.530   0.272 -0.9526 -0.1345  0.0144
   52MOL0     C 6949   3.648   8.507   0.282  0.1105  0.1868  0.6983
   52MOL0     C 6950   4.484   8.723   0.547  0.4644  0.3287 -0.4112
   52MOL0     C 6951   4.612   8.763   0.588  0.2504 -0.3731  0.5534
   52MOL0     C 6952   4.611   8.854   0.715 -0.1677  0.6158  0.0954
   52MOL0     H 6953   5.021   9.013   0.672  0.4740  0.2713  0.0812
   52MOL0     H 6954   5.264   9.067   0.698  0.3153 -0.0847 -1.1834
   52MOL0     H 6955   5.562   8.748   0.754 -1.9450 -0.6239 -1.0883
   52MOL0     H 6956   5.565   8.837   0.604  0.8074  0.2003 -0.4332
   52MOL0     H 6957   5.674   8.914   0.890  0.0979 -0.3213 -0.6480
   52MOL0     H 6958   5.671   9.032   0.758  1.5856  0.7664  0.2351
   52MOL0     H 6959   5.832   8.885   0.632  0.2233 -0.1686 -0.7785
   52MOL0     H 6960   5.814   8.764   0.756 -3.6083  0.7076  0.5048
   52MOL0     H 6961   5.956   9.034   0.792 -0.8512  0.4792  0.6502
   52MOL0     H 6962   5.909   8.921   0.929  1.2762  1.9646  0.1871
   52MOL0     H 6963   6.047   8.753   0.837 -3.1757 -0.1767  0.2501
   52MOL0     H 6964   6.060   8.846   0.681 -2.4856  0.3930  1.0044
   52MOL0     H 6965   6.179   9.035   0.787  1.7953  0.2471  0.3882
   52MOL0     H 6966   6.193   8.955   0.933  1.6948 -1.6128  0.9633
   52MOL0     H 6967   6.322   8.867   0.675  2.8369 -3.1161 -1.0354
   52MOL0     H 6968   6.274   8.746   0.798 -1.2453  0.8569  0.3621
   52MOL0     H 6969   6.438   9.003   0.853  4.8102  0.0026  1.8135
   52MOL0     H 6970   6.419   8.873   0.965  0.8491  5.4444  1.9678
   52MOL0     H 6971   6.509   8.625   0.846 -2.2401  1.6057  0.9853
   52MOL0     H 6972   6.824   8.602   0.597 -0.7719  3.0233  0.0787
   52MOL0     H 6973   6.761   8.499   0.732  0.5176  1.9500  0.9099
   52MOL0     H 6974   6.564   8.440   0.601 -2.4762  1.2246 -0.2114
   52MOL0     H 6975   6.579   8.582   0.496  0.0488 -0.4687  0.9761
   52MOL0     H 6976   6.792   8.380   0.481  0.0450  0.9036  0.4663
   52MOL0     H 6977   6.767   8.520   0.373 -0.5326  1.3149  0.0635
   52MOL0     H 6978   6.598   8.454   0.264  0.1637  1.0285  1.5374
   52MOL0     H 6979   6.550   8.329   0.374  0.7835 -0.6069  0.5358
   52MOL0     H 6980   6.912   8.194   0.416  0.4215  0.8217 -2.0227
   52MOL0     H 6981   6.916   7.958   0.519 -1.1274  0.6186  1.1960
   52MOL0     H 6982   6.544   7.653   0.659 -0.2246  0.7716 -0.0265
   52MOL0     H 6983   6.543   7.440   0.799 -1.1638 -2.1809 -1.0452
   52MOL0     H 6984   6.648   7.049   0.610  0.9852 -1.2172  0.3894
   52MOL0     H 6985   6.750   7.101   0.734 -1.4533  2.4622  2.0355
   52MOL0     H 6986   6.481   6.945   0.766 -1.1627 -0.3106  1.3595
   52MOL0     H 6987   6.640   6.900   0.797  2.4112  1.7848 -2.1614
   52MOL0     H 6988   6.472   7.099   0.963 -1.4579 -2.0293  1.3723
   52MOL0     H 6989   6.544   6.952   1.014 -1.2695  0.9710  0.5327
   52MOL0     H 6990   6.707   7.199   0.962  0.7547 -1.8510 -2.2153
   52MOL0     H 6991   6.773   7.045   0.994  0.0275 -1.8447  0.8248
   52MOL0     H 6992   6.634   7.034   1.224  1.2582 -0.2188  0.6340
   52MOL0     H 6993   6.587   7.201   1.187  1.4082  1.1053 -1.6347
   52MOL0     H 6994   6.816   7.270   1.220 -2.9792  0.8577 -2.2221
   52MOL0     H 6995   6.736   7.177   1.348 -0.4937  0.6555 -0.0212
   52MOL0     H 6996   6.952   7.068   1.155  2.9862 -2.4464  1.7434
   52MOL0     H 6997   6.878   6.982   1.298  0.8896  1.2108  2.1784
   52MOL0     H 6998   7.119   7.085   1.317  0.8479  0.2994  0.2373
   52MOL0     H 6999   7.035   7.242   1.300  0.7252  0.5029  0.8733
   52MOL0     H 7000   6.692   7.218   0.471 -0.0222  0.5653 -1.6590
   52MOL0     H 7001   6.730   7.417   0.341 -0.8377 -2.8531 -0.2018
   52MOL0     H 7002   6.561   7.848   0.297 -0.9305  2.2115 -0.2028
   52MOL0     H 7003   6.565   8.072   0.194 -2.7478 -1.6246  1.4839
   52MOL0     H 7004   5.343   8.648   0.740 -1.4784 -0.3559  0.8733
   52MOL0     H 7005   5.100   8.592   0.690  0.8082 -0.3497 -2.1672
   52MOL0     H 7006   4.792   8.629   0.328  1.2199  0.8943  0.3411
   52MOL0     H 7007   4.566   8.543   0.277  1.5622 -0.5253  0.2431
   52MOL0     H 7008   4.217   8.726   0.505 -1.3593 -0.6257  0.5247
   52MOL0     H 7009   4.189   8.548   0.493  0.2684 -1.4213 -2.6020
   52MOL0     H 7010   4.152   8.592   0.253  0.0091  0.6133  0.0873
   52MOL0     H 7011   4.100   8.759   0.306 -2.2831 -0.1086 -0.4325
   52MOL0     H 7012   3.911   8.679   0.414 -0.4254 -0.9817  1.8872
   52MOL0     H 7013   3.966   8.524   0.449 -0.3408 -2.3910 -2.2387
   52MOL0     H 7014   3.918   8.610   0.157  1.0394  0.8092  1.4674
   52MOL0     H 7015   3.949   8.446   0.218 -2.8125 -1.6763  1.2427
   52MOL0     H 7016   3.546   8.487   0.305  0.2655 -1.0181  0.3970
   52MOL0     H 7017   4.403   8.753   0.612  0.9317 -3.0160  1.9609
   52MOL0     H 7018   4.603   8.957   0.678 -4.1250  0.6807  0.7285
   52MOL0     H 7019   4.521   8.831   0.772 -0.4374 -1.6453 -1.1308
   52MOL0     H 7020   4.701   8.844   0.777  0.8100  1.1448 -1.1891
   53MOL0     O 7021   3.663   3.725   0.054 -0.0876 -0.2826 -0.1869
   53MOL0     C 7022   3.669   3.725  -0.067 -0.2012 -0.2026 -0.1729
   53MOL0     O 7023   3.788   3.726  -0.134  0.3539  0.4937  0.4810
   53MOL0     C 7024   3.902   3.763  -0.059  0.4212 -0.3958  0.4799
   53MOL0     C 7025   4.008   3.672  -0.051  0.3470 -0.2486  0.2703
   53MOL0     C 7026   4.119   3.703   0.016  0.1835  0.1892  0.1434
   53MOL0     C 7027   4.136   3.829   0.076  0.0462 -0.1993  0.4214
   53MOL0     O 7028   4.251   3.875   0.144 -0.1693  0.1174  0.5257
   53MOL0     C 7029   4.310   3.783   0.239 -0.1813 -0.1225  0.7856
   53MOL0     C 7030   4.459   3.769   0.200  0.1071  0.4148  0.6906
   53MOL0     C 7031   4.533   3.899   0.224 -0.1527 -0.0405 -0.2411
   53MOL0     C 7032   4.671   3.882   0.179  0.1865 -0.7662  0.2021
   53MOL0     C 7033   4.757   4.011   0.183 -0.8003  0.0137  0.1368
   53MOL0     C 7034   4.880   4.009   0.095  0.5003  0.2666 -0.2697
   53MOL0     C 7035   4.859   4.003  -0.059  0.1804  0.2811 -0.9212
   53MOL0     C 7036   4.984   3.944  -0.128 -0.1706 -0.2465 -0.0016
   53MOL0     N 7037   5.102   4.024  -0.088 -0.2257  0.2599 -0.4672
   53MOL0     C 7038   5.093   4.158  -0.110 -0.6249  0.5327 -0.1265
   53MOL0     C 7039   5.216   4.199  -0.080 -0.1098  0.1673 -0.2042
   53MOL0     C 7040   5.247   4.343  -0.068 -0.3000 -0.5036  0.0007
   53MOL0     C 7041   5.257   4.381   0.081 -0.4304 -0.1434 -0.4637
   53MOL0     C 7042   5.271   4.537   0.099 -0.6261  0.3578  0.3279
   53MOL0     C 7043   5.227   4.577   0.240  0.1036 -0.3230 -0.7133
   53MOL0     O 7044   5.271   4.496   0.345 -0.3835  0.3594  0.7491
   53MOL0     C 7045   5.405   4.506   0.382  0.3931  1.1464 -0.7783
   53MOL0     C 7046   5.442   4.412   0.486 -0.2083 -0.2439 -0.2020
   53MOL0     C 7047   5.571   4.417   0.538 -0.6222  0.5295 -0.0138
   53MOL0     C 7048   5.671   4.501   0.485  0.4936 -0.0722 -1.1980
   53MOL0     C 7049   5.809   4.486   0.533 -0.7892  0.1708 -0.2411
   53MOL0     O 7050   5.910   4.550   0.472 -0.0171  0.0755  0.0781
   53MOL0     C 7051   6.046   4.521   0.498  0.1936  0.3761 -0.5176
   53MOL0     C 7052   6.114   4.645   0.516  0.4897 -0.3866 -0.6622
   53MOL0     C 7053   6.248   4.642   0.538  0.8670 -0.2136 -1.0117
   53MOL0     C 7054   6.318   4.526   0.546 -0.1324  0.5730 -0.2633
   53MOL0     O 7055   6.454   4.516   0.569 -0.4620 -0.0026  0.0064
   53MOL0     C 7056   6.549   4.627   0.557  0.2966 -0.8304  0.0556
   53MOL0     C 7057   6.598   4.627   0.414 -0.2230 -0.3488 -0.0969
   53MOL0     C 7058   6.727   4.719   0.415 -0.1882 -0.2657  0.1404
   53MOL0     C 7059   6.856   4.638   0.398 -0.5349 -0.2261 -0.2765
   53MOL0     C 7060   6.976   4.729   0.366 -0.2961  0.7369  0.3108
   53MOL0     C 7061   7.097   4.639   0.380 -0.5697  0.2138 -0.1515
   53MOL0     C 7062   7.131   4.612   0.531 -0.3172 -0.1596 -0.1652
   53MOL0     C 7063   7.282   4.578   0.537 -0.6241  0.0530  0.5381
   53MOL0    Cl 7064   7.397   4.715   0.501 -0.1868  0.3742  0.0966
   53MOL0     C 7065   6.248   4.398   0.523 -1.0027 -0.3947 -0.5875
   53MOL0     C 7066   6.117   4.399   0.495 -0.5842  0.3925 -0.0814
   53MOL0     O 7067   5.826   4.425   0.636  0.4008 -0.1906 -0.4530
   53MOL0     C 7068   5.637   4.591   0.383 -0.6148  0.6429  0.0793
   53MOL0     C 7069   5.505   4.594   0.330 -0.2436 -0.2944 -0.5221
   53MOL0     N 7070   5.304   4.090  -0.052 -0.1917 -0.1326 -0.4678
   53MOL0     N 7071   5.227   3.983  -0.049  0.3729  0.1096  0.3779
   53MOL0     C 7072   4.030   3.925   0.072 -0.1512  0.3150 -0.8254
   53MOL0     C 7073   3.913   3.890   0.006  0.2380  0.2841 -0.2467
   53MOL0     C 7074   3.544   3.726  -0.147 -0.1266 -0.7892  0.2230
   53MOL0     C 7075   3.559   3.681  -0.286 -0.7322  0.1676 -0.0686
   53MOL0     C 7076   3.449   3.677  -0.370  0.0347 -0.4295 -0.7356
   53MOL0     C 7077   3.318   3.705  -0.314 -0.5115  0.2879 -0.4723
   53MOL0     O 7078   3.195   3.695  -0.381 -0.2682 -0.1597  0.0013
   53MOL0     C 7079   3.199   3.687  -0.520  1.1243 -0.0618  0.7356
   53MOL0     C 7080   3.063   3.703  -0.580  0.6131 -0.4575 -0.2042
   53MOL0     C 7081   3.011   3.846  -0.557  0.3673  0.1406  0.2681
   53MOL0     C 7082   2.895   3.877  -0.654 -1.5140 -0.2093 -0.5373
   53MOL0     C 7083   2.768   3.811  -0.628 -0.0376 -0.5395 -0.5811
   53MOL0     C 7084   2.667   3.747  -0.610 -0.2997  0.1718  0.3053
   53MOL0     C 7085   3.306   3.748  -0.184  0.3053 -0.4209 -0.2068
   53MOL0     C 7086   3.411   3.756  -0.095  0.0987 -0.1376  0.6389
   53MOL0     C 7087   3.375   3.801   0.037 -1.0796 -0.3452  0.1372
   53MOL0     H 7088   3.998   3.573  -0.095 -2.7960  0.1580 -0.1628
   53MOL0     H 7089   4.204   3.637   0.032  0.6961  1.1093  1.3579
   53MOL0     H 7090   4.309   3.827   0.339 -0.7495  1.9211 -0.0756
   53MOL0     H 7091   4.258   3.686   0.244  3.0702 -2.2010 -1.6690
   53MOL0     H 7092   4.463   3.733   0.097  0.0118  0.2530  0.7423
   53MOL0     H 7093   4.508   3.695   0.264  2.7868 -0.7718 -2.4586
   53MOL0     H 7094   4.529   3.927   0.330  1.7977 -1.7988  0.3541
   53MOL0     H 7095   4.485   3.978   0.165 -2.0386  0.1123  1.3803
   53MOL0     H 7096   4.714   3.798   0.234  0.2597 -1.5490 -1.0180
   53MOL0     H 7097   4.674   3.861   0.072  2.3176  2.3917 -0.5074
   53MOL0     H 7098   4.696   4.100   0.167  0.7134  0.9824 -0.5231
   53MOL0     H 7099   4.800   4.016   0.283  2.5171 -1.4393 -1.0659
   53MOL0     H 7100   4.955   4.087   0.111  1.8583 -1.2855  1.6280
   53MOL0     H 7101   4.931   3.918   0.129  1.7240  1.1113  0.2328
   53MOL0     H 7102   4.840   4.108  -0.084 -1.0072  1.2627  3.2847
   53MOL0     H 7103   4.776   3.939  -0.088 -1.1529 -0.1810  3.1990
   53MOL0     H 7104   4.994   3.838  -0.102 -2.3430 -0.0621  1.9150
   53MOL0     H 7105   4.978   3.950  -0.237 -0.4713  1.6955  0.0978
   53MOL0     H 7106   5.007   4.216  -0.143 -0.2678  0.1849 -1.7301
   53MOL0     H 7107   5.337   4.375  -0.122 -0.0609  0.7554  1.1061
   53MOL0     H 7108   5.162   4.398  -0.108 -0.8574 -1.1045  0.3311
   53MOL0     H 7109   5.171   4.334   0.130  0.7456 -2.0633 -0.1160
   53MOL0     H 7110   5.342   4.328   0.126 -3.3238 -4.9512  0.0059
   53MOL0     H 7111   5.197   4.583   0.034 -0.7674 -1.1690 -0.6287
   53MOL0     H 7112   5.364   4.577   0.058 -1.7837 -1.4627 -4.7441
   53MOL0     H 7113   5.119   4.565   0.238 -0.0030  0.6093 -2.5891
   53MOL0     H 7114   5.233   4.684   0.260 -0.4176 -0.4577  0.2217
   53MOL0     H 7115   5.367   4.343   0.522 -1.7450 -0.0215 -2.7617
   53MOL0     H 7116   5.594   4.333   0.602 -3.1580  2.0801  3.2140
   53MOL0     H 7117   6.061   4.739   0.522  1.4762  0.1352  0.1673
   53MOL0     H 7118   6.300   4.734   0.563 -1.5442  0.8164  0.6378
   53MOL0     H 7119   6.496   4.721   0.579 -3.6429 -2.6305 -0.7753
   53MOL0     H 7120   6.628   4.618   0.632  1.1701  0.7312 -0.6329
   53MOL0     H 7121   6.609   4.524   0.380 -1.2902  0.1903 -2.2454
   53MOL0     H 7122   6.525   4.679   0.352 -0.1927  0.8844  0.8580
   53MOL0     H 7123   6.731   4.788   0.330 -4.1014  1.5539  1.1888
   53MOL0     H 7124   6.737   4.781   0.505 -0.3219  1.4017 -0.9339
   53MOL0     H 7125   6.840   4.566   0.318 -0.8962 -1.4353  0.8468
   53MOL0     H 7126   6.876   4.579   0.488  1.5761 -0.3232 -0.7557
   53MOL0     H 7127   6.973   4.813   0.436  0.6501  1.3396 -0.3470
   53MOL0     H 7128   6.963   4.762   0.263  1.2699 -0.7381 -0.4044
   53MOL0     H 7129   7.091   4.544   0.326  2.6235  1.0120 -2.1653
   53MOL0     H 7130   7.175   4.704   0.339  0.3716  0.1423  1.3965
   53MOL0     H 7131   7.076   4.530   0.577  0.3741  1.5094  4.0740
   53MOL0     H 7132   7.111   4.704   0.588 -0.7061  1.5350 -2.8632
   53MOL0     H 7133   7.301   4.539   0.637 -0.3057 -1.6211 -0.1478
   53MOL0     H 7134   7.306   4.502   0.462  1.0277  1.7075 -0.6983
   53MOL0     H 7135   6.307   4.306   0.525  3.4052  2.0287 -2.7073
   53MOL0     H 7136   6.074   4.301   0.475 -0.3913  0.4002 -0.5407
   53MOL0     H 7137   5.719   4.653   0.349  3.3010 -3.1064  1.7583
   53MOL0     H 7138   5.475   4.669   0.258 -2.4746  1.5736  2.1041
   53MOL0     H 7139   4.048   4.021   0.121  0.1747 -0.4747  0.6646
   53MOL0     H 7140   3.826   3.955  -0.003 -0.0884 -0.2522 -1.1110
   53MOL0     H 7141   3.651   3.643  -0.328 -0.7594 -3.1051  2.4862
   53MOL0     H 7142   3.460   3.655  -0.475 -0.7074  0.8119 -1.1085
   53MOL0     H 7143   3.226   3.585  -0.550 -1.9312 -0.7857  0.1500
   53MOL0     H 7144   3.264   3.766  -0.560 -0.6533  1.7668  1.2630
   53MOL0     H 7145   2.998   3.626  -0.537  1.9946 -0.5601  1.8648
   53MOL0     H 7146   3.066   3.685  -0.688 -2.2724 -1.6557 -0.1622
   53MOL0     H 7147   3.085   3.921  -0.585 -2.9454  3.8838  0.6227
   53MOL0     H 7148   2.981   3.868  -0.454  1.3376  0.4756  0.4898
   53MOL0     H 7149   2.884   3.985  -0.639  1.2184 -0.2582  2.9076
   53MOL0     H 7150   2.929   3.866  -0.758 -0.0908  1.8350 -0.3375
   53MOL0     H 7151   2.581   3.687  -0.590  0.5948 -2.1173 -2.0119
   53MOL0     H 7152   3.202   3.766  -0.159  0.1230 -2.4458  0.6805
   53MOL0     H 7153   3.390   3.729   0.118 -0.5685  0.7355  1.0478
   53MOL0     H 7154   3.430   3.892   0.062 -0.1621 -0.5235 -1.1691
   53MOL0     H 7155   3.268   3.826   0.035 -0.6656  1.9408  1.6051
   54MOL0     O 7156   8.669   0.968  11.131 -0.7288  0.2032 -0.1501
   54MOL0     C 7157   8.576   1.031  11.096  0.4379  0.9247 -0.0285
   54MOL0     O 7158   8.582   1.168  11.068  0.1685  0.1086 -0.1433
   54MOL0     C 7159   8.704   1.226  11.046  0.8608 -0.4214  1.1485
   54MOL0     C 7160   8.700   1.360  11.080  0.2502  0.6925 -0.2275
   54MOL0     C 7161   8.815   1.436  11.065  0.5734 -0.4592  0.2482
   54MOL0     C 7162   8.938   1.381  11.017  0.2778 -0.0830 -0.0826
   54MOL0     O 7163   9.047   1.460  10.992  0.7963  0.5165 -0.3563
   54MOL0     C 7164   9.155   1.413  10.907  1.0315  0.5921  0.2544
   54MOL0     C 7165   9.256   1.525  10.887 -0.3143 -0.2418 -1.2612
   54MOL0     C 7166   9.383   1.463  10.819  0.5638  0.3447 -0.1412
   54MOL0     C 7167   9.485   1.572  10.780 -0.7413  0.1691  0.1827
   54MOL0     C 7168   9.602   1.521  10.700 -0.3185  0.1378  0.0335
   54MOL0     C 7169   9.576   1.501  10.551 -0.2928 -0.4333  0.4764
   54MOL0     C 7170   9.671   1.396  10.498  0.1817 -1.0665 -0.6024
   54MOL0     C 7171   9.645   1.366  10.359  0.7745  0.7386  0.1563
   54MOL0     N 7172   9.722   1.257  10.314 -0.1462  0.4075 -0.2048
   54MOL0     C 7173   9.682   1.121  10.311 -0.5805 -0.9870  0.4625
   54MOL0     C 7174   9.791   1.055  10.275 -0.8200  0.4200  0.6973
   54MOL0     C 7175   9.796   0.919  10.212 -0.2960  0.6241 -0.3172
   54MOL0     C 7176   9.897   0.817  10.281 -0.4049 -0.4238  0.2773
   54MOL0     C 7177   9.912   0.692  10.176  0.2252  0.2794  0.1066
   54MOL0     C 7178  10.011   0.591  10.242  0.7720 -1.1727  0.7715
   54MOL0     O 7179  10.045   0.493  10.146 -0.3681  0.5593 -0.0174
   54MOL0     C 7180  10.100   0.376  10.197 -0.3368  0.5403 -0.3779
   54MOL0     C 7181  10.065   0.253  10.150  0.3461 -0.2647  0.1085
   54MOL0     C 7182  10.139   0.139  10.175 -0.6217 -0.1290  0.2143
   54MOL0     C 7183  10.244   0.143  10.269  0.1556 -0.7666 -0.0844
   54MOL0     C 7184  10.326   0.026  10.308  0.2458 -0.0008 -0.0255
   54MOL0     O 7185  10.422   0.041  10.409 -0.4195 -0.1046 -0.1277
   54MOL0     C 7186  10.516  -0.051  10.443 -0.4375 -0.5903 -1.3783
   54MOL0     C 7187  10.524  -0.064  10.575 -0.1560  0.9596  0.1016
   54MOL0     C 7188  10.617  -0.151  10.630  0.0171  0.2387 -0.0833
   54MOL0     C 7189  10.697  -0.232  10.546 -0.5335  0.0747 -0.5000
   54MOL0     O 7190  10.787  -0.316  10.604  0.6487 -0.2902 -1.0167
   54MOL0     C 7191  10.918  -0.327  10.546  0.1804 -0.5626 -1.0515
   54MOL0     C 7192  11.013  -0.379  10.661  0.3198  0.7264 -0.4283
   54MOL0     C 7193  11.157  -0.373  10.618  0.1949  0.0982 -1.0963
   54MOL0     C 7194  11.231  -0.459  10.717 -0.1407  0.7367  0.4012
   54MOL0     C 7195  11.385  -0.423  10.703  0.1522  0.1315 -0.2106
   54MOL0     C 7196  11.468  -0.525  10.780  0.9519 -0.6446 -0.7334
   54MOL0     C 7197  11.614  -0.504  10.758  0.1531  0.3456  0.3443
   54MOL0     C 7198  11.695  -0.618  10.814 -0.1358  0.0205 -0.9004
   54MOL0    Cl 7199  11.691  -0.760  10.714 -0.2560 -0.0585 -0.2974
   54MOL0     C 7200  10.689  -0.207  10.413 -0.6202  0.1503  0.0182
   54MOL0     C 7201  10.596  -0.120  10.357 -0.1922 -0.0790 -0.5589
   54MOL0     O 7202  10.307  -0.074  10.243  0.2243 -0.2763 -0.6271
   54MOL0     C 7203  10.277   0.275  10.322 -0.2700  0.4646  0.0547
   54MOL0     C 7204  10.212   0.383  10.265 -0.7550  0.1309 -0.1290
   54MOL0     N 7205   9.900   1.140  10.257 -1.0783  0.0257 -0.2430
   54MOL0     N 7206   9.858   1.259  10.294 -0.3939 -0.7152  0.2693
   54MOL0     C 7207   8.938   1.247  10.985 -0.0371 -0.7726 -0.1976
   54MOL0     C 7208   8.820   1.173  10.999 -0.4932 -0.7056  1.0647
   54MOL0     C 7209   8.444   0.958  11.092  0.1032  0.1925 -0.5052
   54MOL0     C 7210   8.350   0.999  10.993 -0.0747  0.6979 -0.0182
   54MOL0     C 7211   8.229   0.943  10.988  0.5402 -0.8378  0.1145
   54MOL0     C 7212   8.193   0.832  11.072  0.6526 -0.8480 -1.2857
   54MOL0     O 7213   8.066   0.780  11.055 -0.2602  0.3025 -0.4016
   54MOL0     C 7214   8.005   0.693  11.151  0.0427  0.6498 -0.7233
   54MOL0     C 7215   7.854   0.722  11.161  0.5404 -0.0052 -0.0434
   54MOL0     C 7216   7.846   0.850  11.261  0.2784  0.1893 -0.4254
   54MOL0     C 7217   7.702   0.903  11.280  0.6246 -0.0513 -0.0680
   54MOL0     C 7218   7.617   0.810  11.349 -0.2464 -1.1281  0.3515
   54MOL0     C 7219   7.559   0.725  11.411 -0.4260 -0.2621 -0.2792
   54MOL0     C 7220   8.284   0.785  11.155  0.2058 -0.1682 -0.8253
   54MOL0     C 7221   8.411   0.846  11.170 -0.4326 -1.1965  0.3297
   54MOL0     C 7222   8.502   0.788  11.272 -0.0863  0.2395  0.0223
   54MOL0     H 7223   8.613   1.407  11.125  0.9456 -1.5830  4.0955
   54MOL0     H 7224   8.826   1.540  11.094  4.3840 -0.5285 -0.4306
   54MOL0     H 7225   9.212   1.339  10.963 -0.0647 -0.8387 -0.4480
   54MOL0     H 7226   9.123   1.365  10.814  1.1654 -0.7242  0.8649
   54MOL0     H 7227   9.288   1.563  10.984 -0.9821  1.3466 -1.6209
   54MOL0     H 7228   9.217   1.607  10.825  2.1354  0.7885 -1.5617
   54MOL0     H 7229   9.355   1.404  10.731  0.0382 -1.4955  1.1982
   54MOL0     H 7230   9.433   1.395  10.889  1.6456  0.7121 -0.5309
   54MOL0     H 7231   9.428   1.653  10.733 -1.1665  0.3472  0.9804
   54MOL0     H 7232   9.532   1.621  10.866  3.6209 -1.0761 -1.2233
   54MOL0     H 7233   9.675   1.602  10.711 -0.7695  0.5144  0.3073
   54MOL0     H 7234   9.647   1.430  10.742  0.5760  1.2498  1.6209
   54MOL0     H 7235   9.474   1.462  10.548 -0.4044 -0.4032  2.6957
   54MOL0     H 7236   9.589   1.588  10.487  0.6702 -2.0314 -1.6417
   54MOL0     H 7237   9.646   1.306  10.554 -0.3617 -0.3668  0.3127
   54MOL0     H 7238   9.776   1.417  10.517  0.6173 -3.4566 -0.0004
   54MOL0     H 7239   9.540   1.342  10.344  0.6025  1.4063  0.2543
   54MOL0     H 7240   9.671   1.448  10.291  4.3322 -1.6055 -1.6391
   54MOL0     H 7241   9.588   1.070  10.330 -0.7492 -0.8137  0.1115
   54MOL0     H 7242   9.693   0.884  10.225  0.3929 -1.5424 -0.2999
   54MOL0     H 7243   9.819   0.941  10.108 -2.3564  1.0665 -0.7216
   54MOL0     H 7244   9.989   0.875  10.287 -1.9017  2.1437 -0.1171
   54MOL0     H 7245   9.876   0.781  10.382 -2.4109 -1.5966 -0.4937
   54MOL0     H 7246   9.952   0.724  10.080 -2.1223  2.0479 -0.3571
   54MOL0     H 7247   9.811   0.654  10.162  0.2461  0.6854 -1.2461
   54MOL0     H 7248   9.976   0.550  10.336  4.6636 -2.7764  1.7106
   54MOL0     H 7249  10.097   0.646  10.280 -0.5047  2.1265 -0.7246
   54MOL0     H 7250   9.979   0.251  10.084 -0.0721 -3.5414  0.5985
   54MOL0     H 7251  10.098   0.039  10.158 -0.1887 -0.3544  0.4657
   54MOL0     H 7252  10.461  -0.010  10.645 -0.2439 -2.2888  2.8358
   54MOL0     H 7253  10.626  -0.157  10.738  0.9431  0.5924 -0.1326
   54MOL0     H 7254  10.915  -0.403  10.467 -0.7257 -0.9956 -0.6166
   54MOL0     H 7255  10.959  -0.234  10.506 -0.6985 -0.4974 -1.8450
   54MOL0     H 7256  10.994  -0.326  10.755  2.0986  1.1070 -0.2529
   54MOL0     H 7257  10.971  -0.477  10.686  3.2348 -0.1638  1.5373
   54MOL0     H 7258  11.158  -0.416  10.518  1.6873 -0.5052 -0.8534
   54MOL0     H 7259  11.185  -0.268  10.607  1.6486 -0.0036  0.9364
   54MOL0     H 7260  11.212  -0.566  10.703 -0.1300  0.8606 -0.6479
   54MOL0     H 7261  11.198  -0.432  10.818 -3.2440  0.3722 -0.4133
   54MOL0     H 7262  11.396  -0.324  10.749  1.4575 -0.6804  1.3313
   54MOL0     H 7263  11.419  -0.425  10.600  0.5902 -0.4762 -0.0587
   54MOL0     H 7264  11.457  -0.508  10.887  3.8343 -3.4644  0.1488
   54MOL0     H 7265  11.450  -0.630  10.752  0.6865 -1.4815  2.2269
   54MOL0     H 7266  11.641  -0.404  10.794  1.5108  0.1918 -0.1837
   54MOL0     H 7267  11.646  -0.523  10.656  2.7942 -0.2892  1.2202
   54MOL0     H 7268  11.795  -0.573  10.811  0.5604 -1.5271 -2.0655
   54MOL0     H 7269  11.670  -0.628  10.920  3.2816  4.6966  0.6954
   54MOL0     H 7270  10.766  -0.255  10.353 -0.2997  1.1821 -0.4002
   54MOL0     H 7271  10.578  -0.102  10.251 -0.5924 -0.1414 -0.5014
   54MOL0     H 7272  10.371   0.288  10.374 -0.7263  1.8234  0.5832
   54MOL0     H 7273  10.250   0.478  10.300  0.2259 -0.2440 -0.1452
   54MOL0     H 7274   9.019   1.187  10.943 -1.9558 -0.8891 -4.1735
   54MOL0     H 7275   8.832   1.070  10.965  3.2782  0.1518 -0.7451
   54MOL0     H 7276   8.364   1.085  10.928  3.1054 -1.0872 -1.9650
   54MOL0     H 7277   8.159   0.976  10.912 -1.1898 -1.0708  1.5402
   54MOL0     H 7278   8.056   0.715  11.246  0.8696  1.2804 -1.3031
   54MOL0     H 7279   8.016   0.587  11.126  0.9817  0.9479 -1.6099
   54MOL0     H 7280   7.799   0.638  11.204  0.7139 -0.8211 -1.3807
   54MOL0     H 7281   7.817   0.753  11.063 -0.4677  0.5495  0.4965
   54MOL0     H 7282   7.893   0.936  11.212  0.7752  0.8064  1.0746
   54MOL0     H 7283   7.880   0.830  11.363  2.0793 -0.8520 -1.1859
   54MOL0     H 7284   7.701   0.991  11.345 -2.1653  0.2590 -0.4352
   54MOL0     H 7285   7.658   0.929  11.183 -0.0205 -0.6233  0.0664
   54MOL0     H 7286   7.505   0.646  11.458  0.3765 -0.8721 -0.3609
   54MOL0     H 7287   8.272   0.697  11.217  0.0273  1.6365  1.8514
   54MOL0     H 7288   8.439   0.726  11.338  0.7425 -0.4905  0.1440
   54MOL0     H 7289   8.584   0.723  11.241 -0.3194 -1.1770  2.1609
   54MOL0     H 7290   8.549   0.870  11.327  1.3301 -1.7395  1.9240
   55MOL0     O 7291   3.089   2.714   4.006 -0.2378  1.0347 -0.0166
   55MOL0     C 7292   2.974   2.743   3.991  0.2112 -0.4147 -0.6580
   55MOL0     O 7293   2.919   2.872   3.990 -0.3371  0.4863 -0.4059
   55MOL0     C 7294   2.997   2.985   3.991  0.0897  0.2560 -0.4479
   55MOL0     C 7295   2.946   3.106   4.048 -0.3056 -0.2916 -0.2903
   55MOL0     C 7296   3.010   3.231   4.025 -0.2723  0.3068  0.2112
   55MOL0     C 7297   3.130   3.235   3.950  0.3734 -0.2651  0.4486
   55MOL0     O 7298   3.197   3.352   3.925  0.1083  0.2598 -0.0679
   55MOL0     C 7299   3.120   3.470   3.880 -0.3112  0.3935 -0.5311
   55MOL0     C 7300   3.213   3.562   3.801 -0.6324  0.4362 -0.4127
   55MOL0     C 7301   3.314   3.624   3.896  0.0993  0.5022 -0.3314
   55MOL0     C 7302   3.408   3.715   3.819  0.2469 -0.0639  0.6774
   55MOL0     C 7303   3.497   3.780   3.921  0.1629 -0.0503 -0.1705
   55MOL0     C 7304   3.577   3.904   3.867  0.7378 -0.3786 -0.9348
   55MOL0     C 7305   3.694   3.854   3.787  0.5692  0.3409 -0.1860
   55MOL0     C 7306   3.767   3.970   3.709  0.4802 -0.2924  0.2975
   55MOL0     N 7307   3.810   4.076   3.805  0.4070  0.2753  1.2052
   55MOL0     C 7308   3.914   4.068   3.890 -0.5354  0.5417  0.5684
   55MOL0     C 7309   3.916   4.187   3.958 -0.0171  0.0840  0.2007
   55MOL0     C 7310   4.022   4.212   4.069  0.5499 -0.8298 -0.1303
   55MOL0     C 7311   4.021   4.137   4.200 -0.0003  0.1671  0.5007
   55MOL0     C 7312   3.905   4.147   4.292 -0.0239 -0.3291  0.5621
   55MOL0     C 7313   3.888   4.289   4.337 -0.1192  0.2697 -0.5951
   55MOL0     O 7314   3.775   4.297   4.434  0.4849  0.0615  0.4444
   55MOL0     C 7315   3.653   4.266   4.380 -0.1841 -0.0639  0.0065
   55MOL0     C 7316   3.554   4.253   4.471  0.5049  0.3025  0.0590
   55MOL0     C 7317   3.423   4.236   4.432 -0.1199 -0.2821 -0.7380
   55MOL0     C 7318   3.385   4.231   4.299 -0.9467  0.5659 -0.4659
   55MOL0     C 7319   3.238   4.204   4.256 -0.1226 -0.3564  0.2549
   55MOL0     O 7320   3.163   4.154   4.353  0.3400  0.4171  0.3552
   55MOL0     C 7321   3.026   4.131   4.350 -0.6239  0.2995  0.0101
   55MOL0     C 7322   2.960   4.103   4.234 -0.1662 -0.1774  0.3812
   55MOL0     C 7323   2.821   4.090   4.233  0.4413  0.2170 -0.0251
   55MOL0     C 7324   2.743   4.099   4.351 -0.2971 -0.1780 -0.3851
   55MOL0     O 7325   2.605   4.074   4.352  0.6135  0.0663 -0.5882
   55MOL0     C 7326   2.532   4.085   4.228  1.5508 -0.8390 -0.3127
   55MOL0     C 7327   2.377   4.076   4.251  0.3260  0.4446  0.1625
   55MOL0     C 7328   2.327   3.929   4.275  0.3727 -0.5296  0.1802
   55MOL0     C 7329   2.178   3.945   4.309  0.5885  0.0484 -0.5156
   55MOL0     C 7330   2.127   3.804   4.347 -0.2857  0.1668  0.1269
   55MOL0     C 7331   1.974   3.802   4.350  1.4542 -0.1652 -0.4557
   55MOL0     C 7332   1.926   3.667   4.416  1.0591 -0.2188 -0.5730
   55MOL0     C 7333   1.773   3.675   4.431 -0.1421  0.1602 -0.1708
   55MOL0    Cl 7334   1.719   3.775   4.566 -0.2171 -0.3689  0.0598
   55MOL0     C 7335   2.814   4.115   4.475  0.3038 -0.0707  0.5682
   55MOL0     C 7336   2.951   4.138   4.468  0.0721 -0.1208 -0.6230
   55MOL0     O 7337   3.197   4.264   4.163 -0.1918 -0.1955  0.3319
   55MOL0     C 7338   3.485   4.255   4.198 -0.7534  0.0292  0.5804
   55MOL0     C 7339   3.621   4.278   4.242  1.0133  0.1831  0.2742
   55MOL0     N 7340   3.809   4.266   3.914 -0.6235 -0.0661 -0.4612
   55MOL0     N 7341   3.756   4.199   3.814  0.4367 -0.4302 -0.9114
   55MOL0     C 7342   3.196   3.114   3.919 -0.1034  0.4049  0.1807
   55MOL0     C 7343   3.128   2.994   3.935  0.6041  0.5755  0.4759
   55MOL0     C 7344   2.867   2.634   4.000  0.4082 -0.3909  0.2144
   55MOL0     C 7345   2.728   2.670   3.981 -0.3344 -0.3144  0.0745
   55MOL0     C 7346   2.628   2.573   3.984  0.3677  0.6217  0.1537
   55MOL0     C 7347   2.659   2.435   4.009  0.0080 -0.2192 -0.5229
   55MOL0     O 7348   2.571   2.329   4.008 -0.6586  0.0994  0.3759
   55MOL0     C 7349   2.430   2.359   4.002 -0.4173  0.1776 -0.5610
   55MOL0     C 7350   2.383   2.428   4.128  0.1520 -0.5048  0.2772
   55MOL0     C 7351   2.242   2.394   4.154 -0.5668  0.5408  0.2565
   55MOL0     C 7352   2.203   2.449   4.291  0.3022  0.0611 -0.1437
   55MOL0     C 7353   2.212   2.595   4.302  0.0372 -0.0727  0.2608
   55MOL0     C 7354   2.221   2.715   4.331  0.8177  0.1126  0.0352
   55MOL0     C 7355   2.793   2.398   4.032 -0.1720  0.0980  0.9643
   55MOL0     C 7356   2.897   2.493   4.014 -0.8741 -0.1461 -0.5161
   55MOL0     C 7357   3.040   2.438   4.046  0.8315 -0.2430  0.5271
   55MOL0     H 7358   2.858   3.114   4.111  1.7596  2.0273  2.5482
   55MOL0     H 7359   2.952   3.318   4.053 -1.3392  0.2435 -1.6190
   55MOL0     H 7360   3.033   3.428   3.828 -1.0409 -0.8069  1.5479
   55MOL0     H 7361   3.071   3.512   3.968 -0.1445 -0.3975 -0.0523
   55MOL0     H 7362   3.159   3.642   3.750  2.3637  1.1323 -2.8010
   55MOL0     H 7363   3.268   3.512   3.720  2.5101  0.8064  1.3467
   55MOL0     H 7364   3.365   3.540   3.944 -1.1351 -0.5283 -0.7566
   55MOL0     H 7365   3.256   3.669   3.977 -1.6359 -0.9445 -0.6876
   55MOL0     H 7366   3.463   3.664   3.739 -0.7924 -0.1151 -0.0264
   55MOL0     H 7367   3.353   3.798   3.774  0.3579 -0.9437 -1.1524
   55MOL0     H 7368   3.441   3.808   4.011  0.2659 -2.4702  0.7208
   55MOL0     H 7369   3.558   3.696   3.953  0.7046  0.5216  0.3355
   55MOL0     H 7370   3.510   3.962   3.801  2.2255 -0.1446 -2.3194
   55MOL0     H 7371   3.605   3.970   3.949 -1.0219 -1.4056  0.5571
   55MOL0     H 7372   3.672   3.771   3.720  4.1027 -2.3802  1.6635
   55MOL0     H 7373   3.765   3.816   3.861  1.4444  0.9222 -0.7007
   55MOL0     H 7374   3.853   3.922   3.661  0.6108  2.1748 -2.2218
   55MOL0     H 7375   3.701   4.007   3.630 -1.5435 -0.7744  1.6976
   55MOL0     H 7376   3.978   3.983   3.909  0.6271  1.5491  1.2664
   55MOL0     H 7377   4.122   4.208   4.025  0.3708 -0.7588 -0.5418
   55MOL0     H 7378   4.019   4.320   4.086  0.9186 -0.4708 -2.0848
   55MOL0     H 7379   4.037   4.031   4.176  3.1438  0.0523  2.5342
   55MOL0     H 7380   4.108   4.163   4.261  0.8566 -3.3945  1.0306
   55MOL0     H 7381   3.926   4.085   4.379  1.1714 -0.7290 -0.0007
   55MOL0     H 7382   3.816   4.105   4.243 -1.5784 -1.1303  3.8178
   55MOL0     H 7383   3.870   4.358   4.255  0.5225  2.3877  0.9523
   55MOL0     H 7384   3.981   4.318   4.385 -1.7088  2.2299  1.5408
   55MOL0     H 7385   3.588   4.262   4.574 -0.5860 -1.5641  0.6244
   55MOL0     H 7386   3.349   4.224   4.510 -2.5656  0.7053 -2.7637
   55MOL0     H 7387   3.004   4.083   4.137 -0.8990 -3.7700  0.6536
   55MOL0     H 7388   2.766   4.069   4.142  1.1954 -0.7202 -0.2793
   55MOL0     H 7389   2.553   4.185   4.188  0.3439  0.0442  1.1800
   55MOL0     H 7390   2.558   3.996   4.169 -2.2894 -1.2687 -1.6315
   55MOL0     H 7391   2.353   4.141   4.335  0.5946  3.1286 -1.6932
   55MOL0     H 7392   2.338   4.106   4.153  1.1660  0.3927 -0.2020
   55MOL0     H 7393   2.335   3.870   4.183  0.8881 -2.4653  1.3845
   55MOL0     H 7394   2.379   3.876   4.356  1.6423  0.5530  0.0983
   55MOL0     H 7395   2.117   3.992   4.231  1.8514  3.5061  0.4108
   55MOL0     H 7396   2.160   4.008   4.397 -1.2786  1.6312 -1.9408
   55MOL0     H 7397   2.161   3.782   4.448 -2.1659  0.5055  0.8695
   55MOL0     H 7398   2.167   3.727   4.280 -0.3818 -0.1698  0.4573
   55MOL0     H 7399   1.937   3.885   4.412  4.7705  1.0705  0.1135
   55MOL0     H 7400   1.936   3.807   4.248  2.4105 -0.0653 -0.8241
   55MOL0     H 7401   1.984   3.637   4.502 -1.3896 -0.9573  0.9273
   55MOL0     H 7402   1.949   3.591   4.341  0.2314  0.4140 -1.5054
   55MOL0     H 7403   1.731   3.710   4.336 -1.5138  0.0050  0.3543
   55MOL0     H 7404   1.734   3.578   4.463  0.5283 -0.2821 -0.6820
   55MOL0     H 7405   2.754   4.110   4.565  1.2022  0.3280  1.1947
   55MOL0     H 7406   3.007   4.146   4.561 -2.3149  2.2848  0.7454
   55MOL0     H 7407   3.468   4.261   4.091 -3.1134  1.5605  0.9568
   55MOL0     H 7408   3.697   4.302   4.169 -0.1199  0.0606 -0.9931
   55MOL0     H 7409   3.290   3.116   3.865 -0.5966 -0.3057 -0.7428
   55MOL0     H 7410   3.171   2.906   3.889  0.8619  1.6822 -1.5698
   55MOL0     H 7411   2.684   2.769   3.970 -1.9005 -1.1860 -2.2030
   55MOL0     H 7412   2.529   2.611   3.962  0.4374 -0.4045 -2.3195
   55MOL0     H 7413   2.380   2.262   4.000  0.8664 -0.5149 -0.1573
   55MOL0     H 7414   2.418   2.416   3.909 -0.8648  2.1363  0.6452
   55MOL0     H 7415   2.401   2.535   4.114  0.6528 -0.6408 -0.1373
   55MOL0     H 7416   2.438   2.399   4.218  0.5783 -1.1949 -0.1957
   55MOL0     H 7417   2.226   2.286   4.156  0.8064  0.3212  0.6495
   55MOL0     H 7418   2.173   2.433   4.078  1.4138  1.8983 -0.9388
   55MOL0     H 7419   2.097   2.431   4.311  0.3511  0.4442  0.4970
   55MOL0     H 7420   2.257   2.398   4.371 -0.2436 -1.1121 -0.5030
   55MOL0     H 7421   2.224   2.818   4.360 -1.1176  0.3641 -0.5441
   55MOL0     H 7422   2.817   2.294   4.052 -1.5502 -0.9199 -2.1011
   55MOL0     H 7423   3.077   2.488   4.136 -1.6730  2.2112  0.3138
   55MOL0     H 7424   3.037   2.331   4.070  0.1605  0.1606  2.4652
   55MOL0     H 7425   3.102   2.461   3.959 -2.4597  2.2486 -1.3741
   56MOL0     O 7426   8.254   0.060   8.366  0.2268 -0.8982  0.0616
   56MOL0     C 7427   8.187   0.147   8.422 -0.4296 -0.0635  0.1426
   56MOL0     O 7428   8.233   0.243   8.513  0.2783  0.5006 -0.2513
   56MOL0     C 7429   8.371   0.264   8.527  0.4357 -1.1560  0.3488
   56MOL0     C 7430   8.465   0.243   8.423 -0.2156  0.3091  0.4865
   56MOL0     C 7431   8.604   0.284   8.439  0.3870 -1.0053  0.1567
   56MOL0     C 7432   8.645   0.341   8.561 -0.1371 -0.8417 -0.3294
   56MOL0     O 7433   8.767   0.400   8.560 -0.4348  0.4474 -0.0024
   56MOL0     C 7434   8.836   0.401   8.679  1.0628 -1.0504 -0.3089
   56MOL0     C 7435   8.990   0.419   8.659 -0.2952 -0.5360  0.3660
   56MOL0     C 7436   9.009   0.554   8.588 -0.5264  0.6186 -0.3090
   56MOL0     C 7437   9.156   0.593   8.568 -0.5481  0.0976  0.4254
   56MOL0     C 7438   9.164   0.724   8.490  1.3708 -0.2307 -0.1266
   56MOL0     C 7439   9.291   0.750   8.418 -0.5803 -0.3278 -0.7823
   56MOL0     C 7440   9.376   0.846   8.505  0.6300 -0.3688 -0.1022
   56MOL0     C 7441   9.517   0.859   8.446 -0.6462 -0.1928 -0.0895
   56MOL0     N 7442   9.591   0.732   8.463 -0.2217 -0.8671  0.5758
   56MOL0     C 7443   9.632   0.675   8.585  0.4427  0.1581 -0.6682
   56MOL0     C 7444   9.736   0.592   8.551  0.6923 -0.6163  0.2321
   56MOL0     C 7445   9.827   0.517   8.637 -1.1897  0.1783  0.0768
   56MOL0     C 7446   9.797   0.365   8.622 -0.6868 -0.3882  0.2168
   56MOL0     C 7447   9.845   0.285   8.744  0.7122 -0.9666 -0.2504
   56MOL0     C 7448   9.798   0.138   8.768  1.0047 -0.1024 -0.1289
   56MOL0     O 7449   9.846   0.053   8.663 -0.3444  0.0814 -0.1267
   56MOL0     C 7450   9.974   0.012   8.669  0.7949  0.0415 -0.5602
   56MOL0     C 7451  10.043  -0.057   8.771  0.3444  0.8637  0.2539
   56MOL0     C 7452  10.170  -0.114   8.750  0.4747  0.7091  0.5178
   56MOL0     C 7453  10.235  -0.114   8.622  0.7199 -0.6918 -0.4816
   56MOL0     C 7454  10.368  -0.174   8.596 -0.1557  0.3172 -0.1909
   56MOL0     O 7455  10.449  -0.122   8.503  0.0095 -1.1403  0.1175
   56MOL0     C 7456  10.579  -0.161   8.491  0.3661  0.0790  0.5595
   56MOL0     C 7457  10.669  -0.138   8.603 -0.3361  0.6011 -0.6750
   56MOL0     C 7458  10.796  -0.187   8.606  0.3433  0.4725 -0.2309
   56MOL0     C 7459  10.850  -0.265   8.486  0.0610  0.0412 -0.4727
   56MOL0     O 7460  10.979  -0.318   8.505 -0.2240 -0.5319  0.1977
   56MOL0     C 7461  11.035  -0.373   8.383  0.5644  0.2355 -0.9053
   56MOL0     C 7462  11.177  -0.430   8.398  0.8294  0.7337  0.3866
   56MOL0     C 7463  11.205  -0.516   8.274 -0.2432 -0.2847  0.7098
   56MOL0     C 7464  11.346  -0.573   8.297  1.4591 -0.6849  0.0020
   56MOL0     C 7465  11.415  -0.655   8.183  0.4862  0.1892  0.3237
   56MOL0     C 7466  11.550  -0.710   8.216  0.0922  0.4080  0.2734
   56MOL0     C 7467  11.621  -0.740   8.085 -0.2322  0.1437  0.1174
   56MOL0     C 7468  11.721  -0.858   8.096 -0.2471 -0.0340 -0.3346
   56MOL0    Cl 7469  11.850  -0.803   8.218 -0.0157 -0.3000  0.1693
   56MOL0     C 7470  10.761  -0.292   8.384 -0.2496  0.3413 -0.1140
   56MOL0     C 7471  10.628  -0.238   8.381  0.1216  0.4537 -0.5443
   56MOL0     O 7472  10.400  -0.260   8.681  0.0863 -0.2300  0.1549
   56MOL0     C 7473  10.169  -0.037   8.519  0.8483  0.5652 -0.6356
   56MOL0     C 7474  10.043   0.016   8.548 -0.6608 -0.4255 -0.0280
   56MOL0     N 7475   9.741   0.585   8.408 -0.8603  0.0760 -0.5308
   56MOL0     N 7476   9.656   0.668   8.357 -0.9124  0.1883 -0.2069
   56MOL0     C 7477   8.554   0.355   8.664  0.1735  0.5750  0.0115
   56MOL0     C 7478   8.428   0.308   8.651  0.3140  1.0086  0.4587
   56MOL0     C 7479   8.037   0.147   8.402  0.2639  0.1729 -0.6906
   56MOL0     C 7480   7.962   0.245   8.468 -0.5973  0.2655 -0.1075
   56MOL0     C 7481   7.827   0.246   8.472  0.5313  0.0830  0.6391
   56MOL0     C 7482   7.752   0.145   8.410  0.1103  1.1394  0.1074
   56MOL0     O 7483   7.613   0.137   8.405 -0.2250  0.5678  0.6127
   56MOL0     C 7484   7.530   0.217   8.496  0.1071 -1.1026  0.5980
   56MOL0     C 7485   7.398   0.145   8.508 -0.1867  0.2270 -0.8548
   56MOL0     C 7486   7.321   0.126   8.375  0.7280 -0.1838  0.1537
   56MOL0     C 7487   7.277   0.267   8.321  0.3556 -0.1830  0.2014
   56MOL0     C 7488   7.185   0.243   8.208  0.3524 -0.0155 -0.1229
   56MOL0     C 7489   7.111   0.224   8.113 -0.0856  1.0190 -0.9219
   56MOL0     C 7490   7.826   0.046   8.329 -0.6888 -0.9410 -0.5623
   56MOL0     C 7491   7.966   0.047   8.328 -0.0401  0.2166 -0.0622
   56MOL0     C 7492   8.031  -0.053   8.238 -0.3114 -0.3430 -0.4059
   56MOL0     H 7493   8.426   0.220   8.324  0.4192 -0.0824  0.3248
   56MOL0     H 7494   8.684   0.277   8.366 -0.6766 -0.8234 -1.0654
   56MOL0     H 7495   8.797   0.480   8.743 -0.2789 -1.2952 -0.8035
   56MOL0     H 7496   8.817   0.310   8.737  0.5100 -0.2259  0.8358
   56MOL0     H 7497   9.028   0.339   8.595  2.3550  1.5702 -0.9258
   56MOL0     H 7498   9.040   0.411   8.756 -0.5367 -1.8023  0.3966
   56MOL0     H 7499   8.967   0.629   8.655 -3.0853 -1.8561  1.0552
   56MOL0     H 7500   8.965   0.548   8.488 -1.4678 -1.3801  0.1765
   56MOL0     H 7501   9.212   0.616   8.659  0.5994  1.3401 -0.5542
   56MOL0     H 7502   9.196   0.507   8.513 -2.7511 -0.5264 -0.2800
   56MOL0     H 7503   9.086   0.719   8.414 -0.4865  0.2800  1.6320
   56MOL0     H 7504   9.143   0.806   8.559  1.4173  1.3383 -1.9205
   56MOL0     H 7505   9.343   0.660   8.386  2.1686  0.8023  0.2388
   56MOL0     H 7506   9.280   0.812   8.329  1.1238  0.4479 -0.4925
   56MOL0     H 7507   9.379   0.823   8.612  2.0902  1.6081  0.3466
   56MOL0     H 7508   9.321   0.940   8.497  1.0244 -0.2518 -1.8506
   56MOL0     H 7509   9.525   0.892   8.342 -0.9060  0.0010 -0.0495
   56MOL0     H 7510   9.558   0.946   8.499 -3.3605  1.9918 -1.3116
   56MOL0     H 7511   9.602   0.697   8.687 -1.7438 -0.7191 -1.0752
   56MOL0     H 7512   9.931   0.540   8.612 -1.2770 -1.3424 -1.9481
   56MOL0     H 7513   9.814   0.552   8.739 -1.1979  0.8996 -0.1710
   56MOL0     H 7514   9.689   0.352   8.608 -0.7966  2.2429 -2.3512
   56MOL0     H 7515   9.840   0.318   8.533 -1.4952  0.0988 -0.4447
   56MOL0     H 7516   9.812   0.338   8.833 -1.0757  0.5666 -1.7527
   56MOL0     H 7517   9.954   0.284   8.747  0.7173  0.5485  0.7080
   56MOL0     H 7518   9.689   0.142   8.761  0.9349 -0.7627  0.5583
   56MOL0     H 7519   9.819   0.110   8.871  1.2128  0.6667  0.0480
   56MOL0     H 7520  10.000  -0.081   8.868  0.3301  0.5719  0.1785
   56MOL0     H 7521  10.228  -0.151   8.834  0.5894 -0.6216 -0.1119
   56MOL0     H 7522  10.629  -0.082   8.687 -1.8242 -1.3884  0.0223
   56MOL0     H 7523  10.860  -0.178   8.693  0.2342 -1.0690  0.0464
   56MOL0     H 7524  10.972  -0.457   8.353 -1.5816  1.8731 -1.2168
   56MOL0     H 7525  11.037  -0.293   8.308  2.6638  0.3792 -0.7483
   56MOL0     H 7526  11.245  -0.346   8.413  0.8067  0.6453  0.9978
   56MOL0     H 7527  11.175  -0.499   8.483 -0.6906  1.2484  0.8111
   56MOL0     H 7528  11.131  -0.596   8.270 -1.5143  0.8894 -0.1116
   56MOL0     H 7529  11.189  -0.461   8.181  1.7320 -1.2793 -0.2921
   56MOL0     H 7530  11.329  -0.649   8.374 -0.6953 -0.8306 -0.5479
   56MOL0     H 7531  11.408  -0.492   8.337  0.7403 -1.6241  3.3709
   56MOL0     H 7532  11.425  -0.585   8.099  1.0897 -2.6503 -2.1605
   56MOL0     H 7533  11.342  -0.733   8.162  0.8638  0.4423 -2.2931
   56MOL0     H 7534  11.613  -0.639   8.271  1.7664  0.1380 -1.2200
   56MOL0     H 7535  11.536  -0.799   8.278 -3.0190  1.9715  2.0957
   56MOL0     H 7536  11.674  -0.650   8.049  0.3501 -0.9045 -1.8248
   56MOL0     H 7537  11.565  -0.780   8.000  1.0917 -3.4437  0.7602
   56MOL0     H 7538  11.669  -0.951   8.123 -1.7696  0.6591 -0.7994
   56MOL0     H 7539  11.782  -0.869   8.005  0.0259 -0.3388 -0.1174
   56MOL0     H 7540  10.786  -0.363   8.305  3.8935  0.1942  1.0914
   56MOL0     H 7541  10.556  -0.260   8.303 -1.2080 -1.5768  1.1449
   56MOL0     H 7542  10.200  -0.028   8.415 -2.1902  3.2950 -1.4606
   56MOL0     H 7543   9.982   0.049   8.465 -0.3371 -2.2298 -1.0261
   56MOL0     H 7544   8.580   0.418   8.749 -1.0776  1.4995 -0.2593
   56MOL0     H 7545   8.364   0.319   8.738  1.5500 -0.3615  1.6039
   56MOL0     H 7546   8.015   0.321   8.524  0.9739 -1.2525  0.5538
   56MOL0     H 7547   7.781   0.336   8.510  1.4980  0.0752  1.9175
   56MOL0     H 7548   7.520   0.312   8.443  1.7381 -1.6711 -0.8210
   56MOL0     H 7549   7.582   0.221   8.592 -0.1444 -0.8964  0.7292
   56MOL0     H 7550   7.331   0.192   8.580  0.3371 -2.2051  1.3607
   56MOL0     H 7551   7.420   0.050   8.557 -1.6979  0.7666  1.0154
   56MOL0     H 7552   7.232   0.063   8.385 -1.2508  2.7317  3.0070
   56MOL0     H 7553   7.382   0.069   8.305  0.6884 -0.3828  0.2818
   56MOL0     H 7554   7.227   0.326   8.397  2.7704  1.9743  0.2289
   56MOL0     H 7555   7.361   0.326   8.284 -0.0102  0.3797  0.2713
   56MOL0     H 7556   7.030   0.195   8.048 -0.1945  3.7350 -2.1132
   56MOL0     H 7557   7.768  -0.028   8.275 -0.1066 -0.0421 -2.5147
   56MOL0     H 7558   7.956  -0.090   8.167 -0.3184 -2.0458  0.4488
   56MOL0     H 7559   8.104  -0.010   8.169 -0.0955  0.2818  0.2053
   56MOL0     H 7560   8.076  -0.141   8.286 -0.4081  0.5768  1.4670
   57MOL0     O 7561   6.985   4.626  10.922  1.1305  0.0275  0.3300
   57MOL0     C 7562   6.974   4.547  10.830 -0.4035  0.3509  0.4154
   57MOL0     O 7563   7.083   4.491  10.761 -0.3743 -0.0419  0.0472
   57MOL0     C 7564   7.211   4.551  10.772  0.1495 -0.5709 -0.0447
   57MOL0     C 7565   7.321   4.473  10.738 -0.5145 -0.1988  1.0638
   57MOL0     C 7566   7.448   4.535  10.720  0.5368  0.9022  0.1727
   57MOL0     C 7567   7.463   4.674  10.728 -0.5516 -0.3448 -1.3483
   57MOL0     O 7568   7.587   4.741  10.700  0.3249 -0.1873  0.1115
   57MOL0     C 7569   7.596   4.873  10.655 -0.1941  0.0446  0.4018
   57MOL0     C 7570   7.721   4.886  10.566 -0.4822  0.0781  0.1152
   57MOL0     C 7571   7.836   4.872  10.665 -0.5990  0.1728  0.0123
   57MOL0     C 7572   7.970   4.913  10.599  0.4868 -0.4806  1.0550
   57MOL0     C 7573   8.086   4.841  10.657 -0.4020 -0.2026 -0.5199
   57MOL0     C 7574   8.223   4.907  10.640 -0.2379 -0.0434 -0.2943
   57MOL0     C 7575   8.339   4.807  10.660  0.5100 -0.7328 -0.8608
   57MOL0     C 7576   8.353   4.758  10.804 -0.5247  0.8132  0.6005
   57MOL0     N 7577   8.494   4.716  10.837 -0.1051  0.1059  0.9098
   57MOL0     C 7578   8.529   4.624  10.933  0.1778  0.7232  0.4360
   57MOL0     C 7579   8.665   4.610  10.925  0.8468 -0.0200  0.2765
   57MOL0     C 7580   8.742   4.509  11.007 -0.5916 -0.1624 -0.0708
   57MOL0     C 7581   8.887   4.483  10.948 -0.1631  0.6530  0.1667
   57MOL0     C 7582   8.992   4.506  11.062 -0.6279 -0.1452  0.5034
   57MOL0     C 7583   9.117   4.423  11.032  1.1733  0.0666  0.0208
   57MOL0     O 7584   9.215   4.446  11.121  0.1607  0.2577  0.5451
   57MOL0     C 7585   9.329   4.367  11.120  0.7522  0.3433 -0.1576
   57MOL0     C 7586   9.426   4.378  11.219  0.5706  1.0284 -1.0358
   57MOL0     C 7587   9.548   4.305  11.215 -0.4076  0.2718  0.4663
   57MOL0     C 7588   9.581   4.229  11.105 -0.9064  0.4466  0.0905
   57MOL0     C 7589   9.712   4.141  11.109  0.7439 -0.0878  0.7830
   57MOL0     O 7590   9.789   4.140  11.222  0.0363 -0.5088  0.3744
   57MOL0     C 7591   9.897   4.057  11.248 -0.2841 -1.1407  0.4748
   57MOL0     C 7592   9.954   4.063  11.372 -0.1817  0.4607 -0.4716
   57MOL0     C 7593  10.067   3.990  11.401  0.1559  1.3751 -0.8645
   57MOL0     C 7594  10.139   3.925  11.305  0.5006  0.5098  0.4705
   57MOL0     O 7595  10.248   3.850  11.325 -0.3671  0.4328  0.8347
   57MOL0     C 7596  10.334   3.880  11.430  0.1721  0.0606  0.0072
   57MOL0     C 7597  10.456   3.797  11.399 -0.6456 -0.0277  0.4004
   57MOL0     C 7598  10.553   3.778  11.513 -0.3497  0.6805  0.2648
   57MOL0     C 7599  10.674   3.691  11.467 -0.3373 -0.8947 -0.1296
   57MOL0     C 7600  10.775   3.693  11.588  0.2634  0.8689  0.0803
   57MOL0     C 7601  10.913   3.640  11.560 -0.7905  0.1644  0.9696
   57MOL0     C 7602  10.987   3.641  11.699 -0.6822  0.4631  0.1162
   57MOL0     C 7603  11.130   3.603  11.678 -0.2035  0.0494  0.1397
   57MOL0    Cl 7604  11.171   3.550  11.841 -0.0402  0.2678 -0.2236
   57MOL0     C 7605  10.088   3.932  11.173  0.5054  0.1440  0.1795
   57MOL0     C 7606   9.967   3.995  11.148 -0.0347 -0.3027  0.3697
   57MOL0     O 7607   9.719   4.061  11.017  0.7272 -0.2003 -0.0012
   57MOL0     C 7608   9.490   4.221  11.004 -0.1988 -0.0190  0.5825
   57MOL0     C 7609   9.367   4.282  11.010  0.3586 -0.2615 -0.3201
   57MOL0     N 7610   8.712   4.692  10.827  0.1959 -0.3174  0.3089
   57MOL0     N 7611   8.610   4.762  10.778  0.1324  0.5340 -0.1634
   57MOL0     C 7612   7.354   4.749  10.785  0.5161  0.2786 -0.9322
   57MOL0     C 7613   7.240   4.684  10.811  0.6205 -0.6467  0.6992
   57MOL0     C 7614   6.836   4.511  10.806 -0.2577  0.1866  0.0742
   57MOL0     C 7615   6.716   4.551  10.883 -1.1681  0.0580  0.1183
   57MOL0     C 7616   6.586   4.510  10.846  0.0446 -0.7806  0.9729
   57MOL0     C 7617   6.557   4.433  10.739  0.0531  1.2901  0.2596
   57MOL0     O 7618   6.430   4.390  10.698  0.1338  0.1964  0.0704
   57MOL0     C 7619   6.324   4.430  10.790  0.1481 -0.3810  0.6819
   57MOL0     C 7620   6.190   4.369  10.756 -0.1538 -0.8435  0.3521
   57MOL0     C 7621   6.085   4.429  10.851  0.3827  0.2881  0.7720
   57MOL0     C 7622   5.947   4.358  10.837 -0.0581 -0.1053 -0.7084
   57MOL0     C 7623   5.968   4.219  10.880  0.1620  0.6029  0.2028
   57MOL0     C 7624   5.986   4.101  10.906 -0.0693 -0.1056  0.4085
   57MOL0     C 7625   6.663   4.410  10.653  0.0588  0.7352  0.4299
   57MOL0     C 7626   6.802   4.447  10.681  0.0291  0.2156 -0.2233
   57MOL0     C 7627   6.899   4.427  10.574  0.1129 -0.3905  0.7381
   57MOL0     H 7628   7.322   4.367  10.713  1.6805  0.2254 -1.0580
   57MOL0     H 7629   7.530   4.471  10.692  2.3127  1.3773  3.6728
   57MOL0     H 7630   7.510   4.895  10.591  0.2843  1.4814  0.2186
   57MOL0     H 7631   7.592   4.945  10.737 -1.6733 -0.6639  0.9845
   57MOL0     H 7632   7.717   4.986  10.521 -0.5529  0.7359  1.5124
   57MOL0     H 7633   7.725   4.807  10.491 -0.7120 -0.8789  1.0781
   57MOL0     H 7634   7.857   4.769  10.698  0.5550  0.4325  0.1261
   57MOL0     H 7635   7.823   4.927  10.758 -1.2877 -0.9972  0.6344
   57MOL0     H 7636   7.981   4.883  10.494  1.6659  1.4139  0.5784
   57MOL0     H 7637   7.986   5.021  10.606  3.6782 -0.6990 -0.6784
   57MOL0     H 7638   8.055   4.831  10.761 -0.4289  3.5493 -0.0197
   57MOL0     H 7639   8.083   4.736  10.626 -5.0005 -0.1486 -0.9592
   57MOL0     H 7640   8.227   4.942  10.537  2.0790 -1.7934 -0.8821
   57MOL0     H 7641   8.239   4.996  10.702 -2.3140  0.4026 -0.3137
   57MOL0     H 7642   8.437   4.842  10.628 -0.5342  0.3069 -3.1761
   57MOL0     H 7643   8.326   4.723  10.590  0.8223  0.7939 -2.8586
   57MOL0     H 7644   8.333   4.839  10.875  0.3177  0.2883  1.4533
   57MOL0     H 7645   8.292   4.668  10.816 -0.8067 -0.5002 -6.2376
   57MOL0     H 7646   8.456   4.564  10.986 -0.0373  0.1356 -0.5048
   57MOL0     H 7647   8.742   4.541  11.111  1.4361 -1.9906  0.5669
   57MOL0     H 7648   8.685   4.416  11.004 -0.5398 -0.1731 -1.6992
   57MOL0     H 7649   8.880   4.377  10.925 -1.6965  0.8509 -0.4008
   57MOL0     H 7650   8.910   4.514  10.846  2.4384 -3.8169 -0.8587
   57MOL0     H 7651   8.959   4.457  11.154 -0.4330 -3.7108 -1.1424
   57MOL0     H 7652   9.010   4.613  11.073 -0.3887 -0.0372 -0.7739
   57MOL0     H 7653   9.146   4.448  10.930 -0.5723 -0.9080 -0.7547
   57MOL0     H 7654   9.085   4.319  11.035  1.1132  0.0894  0.1965
   57MOL0     H 7655   9.409   4.449  11.300  2.5885  1.3453 -0.8414
   57MOL0     H 7656   9.631   4.317  11.285  1.1179  0.2053 -1.2504
   57MOL0     H 7657   9.900   4.116  11.450  2.1430  1.2847  0.6744
   57MOL0     H 7658  10.112   4.000  11.499  3.3072 -1.3724 -1.8278
   57MOL0     H 7659  10.338   3.989  11.434 -1.1108  0.1238 -0.0470
   57MOL0     H 7660  10.292   3.835  11.521  0.0642 -2.3634 -1.1581
   57MOL0     H 7661  10.426   3.696  11.369  1.5249 -0.7374  0.4665
   57MOL0     H 7662  10.498   3.855  11.316  0.3483  2.7912  2.7082
   57MOL0     H 7663  10.584   3.880  11.538 -0.0918  1.3654 -2.5362
   57MOL0     H 7664  10.508   3.743  11.607 -2.6669 -0.4779 -1.1970
   57MOL0     H 7665  10.717   3.734  11.377  2.0870  0.2061  1.4398
   57MOL0     H 7666  10.648   3.585  11.453  4.1482 -2.3709  1.0194
   57MOL0     H 7667  10.728   3.650  11.677 -0.2865  0.5153 -0.3785
   57MOL0     H 7668  10.791   3.795  11.625  0.8909  1.2517 -1.1993
   57MOL0     H 7669  10.895   3.538  11.526 -0.6518 -0.2857  2.2297
   57MOL0     H 7670  10.963   3.696  11.480  1.9470  1.0507  3.1326
   57MOL0     H 7671  10.941   3.578  11.776 -0.6034  2.2011  1.6508
   57MOL0     H 7672  10.977   3.745  11.733 -0.5616 -0.1854  2.2360
   57MOL0     H 7673  11.143   3.522  11.605 -1.9176 -1.5685  1.5255
   57MOL0     H 7674  11.191   3.688  11.648  0.1843  0.1246  1.1044
   57MOL0     H 7675  10.145   3.883  11.095  2.1914  1.1840  0.7048
   57MOL0     H 7676   9.936   3.992  11.044  0.8060 -0.2637  0.1125
   57MOL0     H 7677   9.516   4.160  10.918  1.5509  0.9509  0.3726
   57MOL0     H 7678   9.299   4.267  10.927  0.2295 -0.2629 -0.2141
   57MOL0     H 7679   7.363   4.851  10.818 -0.1669 -0.7576  2.9006
   57MOL0     H 7680   7.161   4.750  10.845  1.5369  0.5998  0.4502
   57MOL0     H 7681   6.725   4.608  10.974 -1.5607 -1.2641  1.0193
   57MOL0     H 7682   6.508   4.551  10.910  0.3607  1.2586  0.1370
   57MOL0     H 7683   6.316   4.539  10.789  0.8726 -0.3022 -1.2203
   57MOL0     H 7684   6.354   4.387  10.886 -0.6498  0.5523  1.3665
   57MOL0     H 7685   6.195   4.260  10.764  2.8257 -1.1408 -2.9609
   57MOL0     H 7686   6.158   4.390  10.653  1.8411 -2.5608 -0.7091
   57MOL0     H 7687   6.067   4.532  10.820 -2.1050 -1.0761 -2.9467
   57MOL0     H 7688   6.113   4.420  10.957 -1.3041  1.6883  1.4032
   57MOL0     H 7689   5.867   4.409  10.892  1.3549  2.1230 -0.6289
   57MOL0     H 7690   5.912   4.360  10.734 -0.6697 -0.2765 -0.5120
   57MOL0     H 7691   6.009   3.997  10.907 -0.1963 -0.2027 -1.8060
   57MOL0     H 7692   6.638   4.355  10.563 -0.2285 -0.2799  1.1121
   57MOL0     H 7693   6.952   4.335  10.604  0.5454 -0.4789 -0.2524
   57MOL0     H 7694   6.857   4.400  10.477  0.3217 -1.4689  0.9295
   57MOL0     H 7695   6.968   4.508  10.550 -1.0672  0.2285 -0.6850
   58MOL0     O 7696   0.576   7.788   8.716 -0.4386 -0.3768  0.4571
   58MOL0     C 7697   0.523   7.856   8.807 -0.0828 -0.1462  0.0379
   58MOL0     O 7698   0.597   7.952   8.878  0.6010  0.4690  0.5399
   58MOL0     C 7699   0.737   7.938   8.870 -0.2022 -0.1813 -0.6560
   58MOL0     C 7700   0.794   7.901   8.993  0.0619 -0.4226 -0.5246
   58MOL0     C 7701   0.929   7.887   9.002  0.7650  0.1178  0.2195
   58MOL0     C 7702   1.014   7.922   8.897 -0.4270 -0.2502 -0.4516
   58MOL0     O 7703   1.150   7.912   8.919  0.0657  0.1778 -0.6734
   58MOL0     C 7704   1.237   7.934   8.802  0.7009 -0.5868 -0.0573
   58MOL0     C 7705   1.369   7.865   8.835  0.0039 -0.5305  0.5531
   58MOL0     C 7706   1.441   7.920   8.958 -0.0245  0.1439 -0.3849
   58MOL0     C 7707   1.582   7.851   8.973  0.6206 -0.5575 -0.0276
   58MOL0     C 7708   1.660   7.892   9.095  0.2177 -1.0250  0.3799
   58MOL0     C 7709   1.626   7.812   9.221  0.7875  0.0141  0.3637
   58MOL0     C 7710   1.741   7.810   9.322  0.2352 -0.5055  0.4763
   58MOL0     C 7711   1.688   7.770   9.459 -0.2395  0.1760  0.3430
   58MOL0     N 7712   1.800   7.779   9.562  0.1281  0.5383  0.6092
   58MOL0     C 7713   1.835   7.670   9.642  0.3055 -0.1824 -0.2327
   58MOL0     C 7714   1.919   7.718   9.731  0.1759  0.6771 -0.2802
   58MOL0     C 7715   1.972   7.637   9.852  1.4808 -1.0862  0.2994
   58MOL0     C 7716   2.127   7.615   9.875 -0.0995 -0.3643 -0.0378
   58MOL0     C 7717   2.194   7.597   9.742 -0.2438 -0.1722 -0.1110
   58MOL0     C 7718   2.342   7.577   9.761 -0.0949  0.4957  0.7725
   58MOL0     O 7719   2.363   7.457   9.838  0.2018  0.1439  0.8922
   58MOL0     C 7720   2.488   7.424   9.871  0.6256 -0.3011  0.0655
   58MOL0     C 7721   2.498   7.291   9.921 -0.2843  0.0481 -0.6006
   58MOL0     C 7722   2.620   7.241   9.966 -0.1807 -0.6055  0.4589
   58MOL0     C 7723   2.733   7.322   9.951  0.2889 -0.4453  0.2143
   58MOL0     C 7724   2.862   7.264  10.000  0.4545  0.5451  0.0371
   58MOL0     O 7725   2.869   7.136  10.051  0.2045 -0.4829  0.3710
   58MOL0     C 7726   2.998   7.098  10.063 -0.8012 -0.4588 -0.0186
   58MOL0     C 7727   3.068   7.116  10.188 -0.5618 -0.2755  0.4095
   58MOL0     C 7728   3.203   7.076  10.189 -0.5501  1.0982  0.0667
   58MOL0     C 7729   3.272   7.013  10.074  0.8755 -0.6237 -0.0690
   58MOL0     O 7730   3.408   6.974  10.098  0.3901  0.1079 -0.0805
   58MOL0     C 7731   3.472   6.894   9.999 -0.2096 -0.7784 -0.3560
   58MOL0     C 7732   3.622   6.879  10.045  0.5836 -0.5519 -0.7603
   58MOL0     C 7733   3.686   6.780   9.948  0.4572 -0.4146 -0.1627
   58MOL0     C 7734   3.833   6.761   9.976 -0.2954 -0.1563 -0.2655
   58MOL0     C 7735   3.901   6.666   9.879  0.6473 -0.6817  0.4620
   58MOL0     C 7736   4.047   6.641   9.922  0.2192 -0.3524 -0.2825
   58MOL0     C 7737   4.127   6.770   9.898  0.0861 -0.2161  0.5144
   58MOL0     C 7738   4.272   6.743   9.939 -0.0281 -0.1737  0.6745
   58MOL0    Cl 7739   4.349   6.652   9.812 -0.4829  0.2623 -0.2580
   58MOL0     C 7740   3.199   6.999   9.953 -0.5041  1.0252  0.5004
   58MOL0     C 7741   3.056   7.028   9.957  0.1056 -0.6039  0.0795
   58MOL0     O 7742   2.955   7.341   9.991  0.2002 -0.3563  0.9506
   58MOL0     C 7743   2.726   7.452   9.890  0.0505 -0.2189  0.1581
   58MOL0     C 7744   2.601   7.507   9.861  0.8910 -0.5506  0.2113
   58MOL0     N 7745   1.946   7.845   9.707  0.1733  0.2125 -0.0651
   58MOL0     N 7746   1.869   7.881   9.610 -0.1332  0.5026  0.1852
   58MOL0     C 7747   0.961   7.972   8.777  0.8604 -0.5424  0.4000
   58MOL0     C 7748   0.822   7.981   8.767  0.2871  0.3405  0.0650
   58MOL0     C 7749   0.380   7.858   8.818 -0.2122 -0.7887  0.1266
   58MOL0     C 7750   0.329   7.975   8.873 -0.3924 -0.4460 -0.8126
   58MOL0     C 7751   0.196   7.981   8.908  0.4261  0.4224  0.8370
   58MOL0     C 7752   0.101   7.887   8.864 -0.4188  0.8458  0.5635
   58MOL0     O 7753  -0.037   7.905   8.885  0.2345  0.3246 -0.3535
   58MOL0     C 7754  -0.137   7.814   8.845  0.1014  0.1308 -0.4650
   58MOL0     C 7755  -0.274   7.866   8.895 -0.7210 -0.4684  0.2899
   58MOL0     C 7756  -0.327   7.994   8.822 -1.1456 -0.5524 -0.0813
   58MOL0     C 7757  -0.298   8.121   8.909  0.1210  0.5792  0.4831
   58MOL0     C 7758  -0.408   8.141   9.002  0.0456  0.5546  0.3938
   58MOL0     C 7759  -0.502   8.145   9.079  0.6617  0.4296  0.4862
   58MOL0     C 7760   0.149   7.778   8.789 -0.1949 -0.0641 -0.0644
   58MOL0     C 7761   0.291   7.754   8.768  0.4277 -0.9783  0.0750
   58MOL0     C 7762   0.342   7.632   8.687  0.5230 -0.6927  0.5731
   58MOL0     H 7763   0.744   7.879   9.086  1.4409 -1.6210 -0.0202
   58MOL0     H 7764   0.979   7.851   9.092  1.6400  0.5471 -0.0767
   58MOL0     H 7765   1.197   7.898   8.707 -2.8853  1.2572  0.5627
   58MOL0     H 7766   1.273   8.036   8.784  4.8003 -1.7405  0.4850
   58MOL0     H 7767   1.436   7.888   8.752 -1.3775  1.2694 -0.1170
   58MOL0     H 7768   1.343   7.759   8.846 -2.5895  0.1431  1.5484
   58MOL0     H 7769   1.371   7.890   9.036  0.4496 -1.2312 -0.4506
   58MOL0     H 7770   1.454   8.028   8.950  0.7519  0.0854  0.0019
   58MOL0     H 7771   1.581   7.742   8.969  3.2171 -0.6109 -1.0654
   58MOL0     H 7772   1.640   7.875   8.883  0.8897 -0.8643  0.0597
   58MOL0     H 7773   1.756   7.866   9.051  0.4078  1.9270 -1.2409
   58MOL0     H 7774   1.654   7.998   9.121 -2.3524 -1.1011  0.4109
   58MOL0     H 7775   1.545   7.860   9.277  3.7188  1.1617  4.0918
   58MOL0     H 7776   1.609   7.706   9.200  0.1808  0.3700 -1.0250
   58MOL0     H 7777   1.786   7.910   9.333 -2.1323  0.5324  1.5381
   58MOL0     H 7778   1.812   7.741   9.276 -1.5311 -0.4240 -2.6155
   58MOL0     H 7779   1.606   7.836   9.491  0.3557  0.6895  0.8301
   58MOL0     H 7780   1.628   7.678   9.458 -0.3497  0.2494 -0.9525
   58MOL0     H 7781   1.792   7.570   9.641  0.6165 -0.3286  0.5172
   58MOL0     H 7782   1.931   7.683   9.942 -0.8081  0.9105 -1.6244
   58MOL0     H 7783   1.928   7.536   9.859 -4.0729  1.1064  3.6636
   58MOL0     H 7784   2.163   7.709   9.918  1.5572 -0.6585 -0.7227
   58MOL0     H 7785   2.144   7.546   9.958 -3.8175 -0.8257  0.5097
   58MOL0     H 7786   2.182   7.687   9.680 -2.4420 -0.8018 -0.6973
   58MOL0     H 7787   2.149   7.514   9.687 -1.3786  0.0756  0.4123
   58MOL0     H 7788   2.393   7.658   9.813 -0.7074  0.2779  1.7257
   58MOL0     H 7789   2.396   7.582   9.665 -0.0776  1.3428  0.8225
   58MOL0     H 7790   2.411   7.230   9.937  0.0406 -0.1975  0.2775
   58MOL0     H 7791   2.636   7.138   9.996  2.3529 -0.3713  0.1361
   58MOL0     H 7792   3.024   7.167  10.274  0.8711 -1.9250  2.2328
   58MOL0     H 7793   3.264   7.081  10.279  1.1306  3.1960 -1.1141
   58MOL0     H 7794   3.425   6.797   9.980  1.1267 -1.4997 -0.1421
   58MOL0     H 7795   3.486   6.949   9.906  0.8087 -0.1425  0.1591
   58MOL0     H 7796   3.655   6.983  10.034 -0.7319 -0.3489 -4.7774
   58MOL0     H 7797   3.627   6.846  10.149 -1.5098 -2.6544 -1.2413
   58MOL0     H 7798   3.646   6.680   9.963 -2.3295  0.9121  2.0440
   58MOL0     H 7799   3.671   6.817   9.846  1.0034 -0.0789 -0.1280
   58MOL0     H 7800   3.838   6.728  10.080  1.5077  2.6358  0.6576
   58MOL0     H 7801   3.878   6.861   9.972 -0.2776 -0.0503  1.6311
   58MOL0     H 7802   3.892   6.713   9.780 -1.3375 -1.4547  0.2314
   58MOL0     H 7803   3.847   6.571   9.872 -1.8146  0.7300 -1.8105
   58MOL0     H 7804   4.058   6.600  10.022  0.6482  0.5105  0.0339
   58MOL0     H 7805   4.084   6.561   9.858  1.7433  0.6453 -0.7154
   58MOL0     H 7806   4.099   6.854   9.962  1.7096  1.9718 -1.4838
   58MOL0     H 7807   4.125   6.807   9.795  3.1565 -0.0079  0.4465
   58MOL0     H 7808   4.329   6.834   9.958 -0.1794 -0.4067  2.4706
   58MOL0     H 7809   4.279   6.697  10.038  1.3236 -2.3690 -0.3826
   58MOL0     H 7810   3.244   6.946   9.869 -0.9107  0.6351  0.5213
   58MOL0     H 7811   2.998   7.011   9.867  0.8146  1.9969 -0.9488
   58MOL0     H 7812   2.812   7.517   9.880 -1.1400  1.2468 -0.8624
   58MOL0     H 7813   2.586   7.603   9.814 -2.3348 -1.2731 -0.4768
   58MOL0     H 7814   1.017   8.009   8.692  0.4091  1.4845  0.9117
   58MOL0     H 7815   0.785   8.016   8.671 -0.4976  0.5885  0.4441
   58MOL0     H 7816   0.393   8.053   8.912  0.3668 -2.1168  1.5314
   58MOL0     H 7817   0.157   8.069   8.959 -1.5907  1.5003 -2.2858
   58MOL0     H 7818  -0.115   7.719   8.895 -1.2829  1.4258  2.9697
   58MOL0     H 7819  -0.133   7.800   8.737  1.7912  0.1141 -0.4285
   58MOL0     H 7820  -0.284   7.878   9.003 -1.5620  0.4604  0.1243
   58MOL0     H 7821  -0.343   7.783   8.871 -1.1326 -0.3291  0.9661
   58MOL0     H 7822  -0.434   7.980   8.803 -1.3844  0.1743  0.6419
   58MOL0     H 7823  -0.283   8.007   8.723  0.5456 -0.1117  0.6902
   58MOL0     H 7824  -0.210   8.116   8.975 -1.1386  2.4355  2.4608
   58MOL0     H 7825  -0.292   8.214   8.851 -0.4448 -0.8344 -1.9396
   58MOL0     H 7826  -0.595   8.146   9.131 -0.2491  0.3773 -1.0873
   58MOL0     H 7827   0.076   7.704   8.758 -0.2707 -0.0448  0.0688
   58MOL0     H 7828   0.281   7.542   8.691 -1.8206  0.8537  1.9955
   58MOL0     H 7829   0.355   7.663   8.583  0.5321 -0.7260  0.5639
   58MOL0     H 7830   0.440   7.590   8.713  1.7172 -1.4741 -4.2184
   59MOL0     O 7831   9.533   6.530   6.666 -0.7757  0.2231  0.1515
   59MOL0     C 7832   9.575   6.551   6.554 -0.7230 -0.2860  0.5626
   59MOL0     O 7833   9.707   6.540   6.516  0.0830 -0.6834  0.1701
   59MOL0     C 7834   9.804   6.618   6.578 -0.1243 -0.1646 -0.7532
   59MOL0     C 7835   9.779   6.716   6.683 -0.6068 -0.2769 -0.6080
   59MOL0     C 7836   9.886   6.800   6.721 -0.0779  0.2195 -0.9185
   59MOL0     C 7837  10.014   6.793   6.671 -0.3281 -0.3711  0.6173
   59MOL0     O 7838  10.103   6.887   6.709 -0.0211 -0.3283  0.1681
   59MOL0     C 7839  10.198   6.942   6.618 -0.6119  0.6339  0.0188
   59MOL0     C 7840  10.293   7.031   6.692  0.1200  0.8549  0.4883
   59MOL0     C 7841  10.360   7.125   6.588 -0.0495  0.0136  0.9311
   59MOL0     C 7842  10.444   7.050   6.492  0.2643  0.3094 -0.5194
   59MOL0     C 7843  10.543   7.139   6.414  0.3866 -0.0996 -0.7825
   59MOL0     C 7844  10.640   7.046   6.339 -0.5776 -0.1428  0.3693
   59MOL0     C 7845  10.754   7.126   6.272 -0.5283 -0.4668  0.1149
   59MOL0     C 7846  10.880   7.041   6.237 -0.2005 -0.1004 -0.0828
   59MOL0     N 7847  10.898   7.018   6.097  0.2647  0.3330  0.6425
   59MOL0     C 7848  10.902   7.119   6.000  0.5101  1.2104 -0.0450
   59MOL0     C 7849  10.920   7.052   5.885  0.6759 -0.1565  0.7902
   59MOL0     C 7850  10.936   7.104   5.745 -0.2443  0.0577 -0.2296
   59MOL0     C 7851  11.087   7.099   5.713  0.1487  0.5259  0.4052
   59MOL0     C 7852  11.123   7.172   5.590 -0.5202 -0.1011 -0.0902
   59MOL0     C 7853  11.270   7.190   5.584  0.3032  0.2483  0.2728
   59MOL0     O 7854  11.307   7.269   5.476  0.3592  0.7125  0.1446
   59MOL0     C 7855  11.439   7.295   5.464  0.0522  0.9032 -0.6752
   59MOL0     C 7856  11.532   7.265   5.570 -0.5896  0.4633  0.3776
   59MOL0     C 7857  11.669   7.282   5.537 -0.7160 -0.6415 -0.2652
   59MOL0     C 7858  11.712   7.326   5.404  0.3529 -0.0069  0.0341
   59MOL0     C 7859  11.854   7.337   5.383  0.0968 -0.4115  0.2480
   59MOL0     O 7860  11.938   7.366   5.480 -0.1782 -0.4379 -0.5524
   59MOL0     C 7861  12.072   7.339   5.461  0.1459 -0.0418  0.4217
   59MOL0     C 7862  12.151   7.261   5.543  0.6735  0.2542  0.1314
   59MOL0     C 7863  12.279   7.221   5.516 -0.5767  0.4915 -0.0835
   59MOL0     C 7864  12.352   7.283   5.417 -0.2820 -0.0176 -0.0104
   59MOL0     O 7865  12.480   7.243   5.404 -0.4573  0.3989  0.2477
   59MOL0     C 7866  12.560   7.279   5.285  0.7278 -0.5861 -0.1637
   59MOL0     C 7867  12.703   7.224   5.300  0.0494  0.9505 -0.5678
   59MOL0     C 7868  12.778   7.277   5.174  0.2404  0.4460  0.1998
   59MOL0     C 7869  12.910   7.203   5.165 -0.3683 -0.1694 -0.0595
   59MOL0     C 7870  13.011   7.256   5.063  0.1332  0.1134 -0.2201
   59MOL0     C 7871  13.151   7.184   5.073  0.1414  0.0116 -0.3393
   59MOL0     C 7872  13.254   7.270   4.990  0.4767  0.4753  0.6461
   59MOL0     C 7873  13.395   7.214   5.000 -0.0296 -0.2207 -0.4719
   59MOL0    Cl 7874  13.390   7.053   4.909  0.0204  0.0722  0.5514
   59MOL0     C 7875  12.286   7.375   5.334  0.3124 -0.5445 -0.4356
   59MOL0     C 7876  12.147   7.405   5.364 -0.0024 -0.9517 -0.4927
   59MOL0     O 7877  11.884   7.307   5.267  0.6938 -0.5918  0.5689
   59MOL0     C 7878  11.621   7.354   5.309  0.4644  0.5028  0.4749
   59MOL0     C 7879  11.483   7.343   5.341 -0.3541 -0.9414 -0.4628
   59MOL0     N 7880  10.930   6.921   5.908  0.5572  0.3874  0.2274
   59MOL0     N 7881  10.918   6.902   6.033 -0.3290  0.1796  0.7128
   59MOL0     C 7882  10.036   6.690   6.573  0.1461 -0.0692 -0.8589
   59MOL0     C 7883   9.939   6.601   6.531  0.5023 -0.8622  0.2040
   59MOL0     C 7884   9.483   6.567   6.446  0.5658  0.4730 -0.1735
   59MOL0     C 7885   9.513   6.531   6.317 -0.2985  0.3605  1.1120
   59MOL0     C 7886   9.444   6.584   6.207  0.4659 -0.0677 -0.0740
   59MOL0     C 7887   9.318   6.642   6.216 -0.1872 -0.1477 -0.3543
   59MOL0     O 7888   9.259   6.661   6.094 -0.0191  0.7831  0.4982
   59MOL0     C 7889   9.117   6.699   6.102 -0.3649  0.7206 -0.6635
   59MOL0     C 7890   9.103   6.844   6.121  0.8019  0.9070 -0.0020
   59MOL0     C 7891   8.983   6.916   6.055 -0.5722 -0.3621 -1.0066
   59MOL0     C 7892   8.867   6.842   5.986 -0.4650 -0.0074 -0.5627
   59MOL0     C 7893   8.770   6.943   5.943 -0.5636 -0.2094  0.2406
   59MOL0     C 7894   8.704   7.037   5.909  0.1696 -0.2949  0.2489
   59MOL0     C 7895   9.281   6.670   6.346  0.3168 -0.2983  0.0328
   59MOL0     C 7896   9.365   6.643   6.462  0.6165  0.3539  0.6735
   59MOL0     C 7897   9.302   6.678   6.593 -0.2848  0.4394 -0.1991
   59MOL0     H 7898   9.682   6.729   6.729 -0.4515 -0.0804 -0.3333
   59MOL0     H 7899   9.873   6.875   6.798 -0.2673  1.1207 -1.8198
   59MOL0     H 7900  10.254   6.858   6.575 -2.0326  0.4395 -1.5599
   59MOL0     H 7901  10.150   6.998   6.537  2.2957  3.5838  0.1113
   59MOL0     H 7902  10.361   6.981   6.761  0.8019 -0.2192 -0.9149
   59MOL0     H 7903  10.237   7.105   6.751 -0.8335  0.0923  0.5693
   59MOL0     H 7904  10.431   7.198   6.629 -1.2414  1.4863  0.4667
   59MOL0     H 7905  10.275   7.177   6.543  0.5314  0.2175  0.0429
   59MOL0     H 7906  10.501   6.975   6.548 -2.2321  0.0691  1.9604
   59MOL0     H 7907  10.376   7.000   6.423 -0.8388 -1.8606  1.9940
   59MOL0     H 7908  10.480   7.201   6.350  0.5635 -0.7280 -1.5786
   59MOL0     H 7909  10.597   7.200   6.486  2.0073 -0.3854 -1.6972
   59MOL0     H 7910  10.684   6.986   6.420  0.4520  1.3731  0.9865
   59MOL0     H 7911  10.587   6.988   6.264 -0.0269  0.7652 -0.7468
   59MOL0     H 7912  10.788   7.195   6.350 -0.3301 -0.5372  0.0911
   59MOL0     H 7913  10.709   7.183   6.191  0.8771 -1.0734 -1.1459
   59MOL0     H 7914  10.962   7.100   6.280 -1.0465  2.5959 -1.9493
   59MOL0     H 7915  10.880   6.949   6.296  0.6235 -0.5028 -0.6810
   59MOL0     H 7916  10.893   7.227   6.003  2.5784  1.6993 -4.0443
   59MOL0     H 7917  10.873   7.038   5.685 -1.0893 -0.7717  1.4815
   59MOL0     H 7918  10.885   7.200   5.730 -1.2702 -0.5828 -1.0212
   59MOL0     H 7919  11.145   7.141   5.796  1.0690  1.6925 -0.7954
   59MOL0     H 7920  11.113   6.993   5.704  0.6567  0.3948  2.7220
   59MOL0     H 7921  11.074   7.268   5.575 -0.9660 -0.0380  1.6436
   59MOL0     H 7922  11.095   7.108   5.506 -1.0775 -1.6974  1.2528
   59MOL0     H 7923  11.315   7.091   5.572 -0.9301 -0.4035  0.7889
   59MOL0     H 7924  11.307   7.244   5.672  1.7099  1.0306 -0.7804
   59MOL0     H 7925  11.518   7.225   5.670  0.9803 -1.8773 -0.2614
   59MOL0     H 7926  11.750   7.261   5.607 -0.9786  0.5780  0.4366
   59MOL0     H 7927  12.112   7.222   5.637 -1.8307  0.9856 -0.5233
   59MOL0     H 7928  12.326   7.145   5.579  0.3281 -0.2156 -1.5665
   59MOL0     H 7929  12.519   7.251   5.187 -0.3617  0.8797 -0.1667
   59MOL0     H 7930  12.561   7.389   5.288 -2.4026 -0.3590 -2.1515
   59MOL0     H 7931  12.760   7.258   5.386  0.6793 -1.8036  0.1977
   59MOL0     H 7932  12.691   7.115   5.309 -1.0160  1.2129  1.9805
   59MOL0     H 7933  12.735   7.259   5.075  2.4794  1.8611 -1.1116
   59MOL0     H 7934  12.794   7.385   5.181 -0.0597  0.4126  1.8698
   59MOL0     H 7935  12.893   7.097   5.146 -0.8251 -0.4525  1.7178
   59MOL0     H 7936  12.956   7.214   5.264  0.0709 -0.1234 -0.2648
   59MOL0     H 7937  13.029   7.363   5.079  1.8605 -0.5187  2.8700
   59MOL0     H 7938  12.972   7.243   4.962 -1.2912 -0.5579  0.3824
   59MOL0     H 7939  13.182   7.174   5.178 -0.9111  2.1659  0.2234
   59MOL0     H 7940  13.141   7.086   5.026  0.5671  0.0214 -0.4549
   59MOL0     H 7941  13.253   7.377   5.011  1.7171  0.3949  1.2105
   59MOL0     H 7942  13.223   7.264   4.885 -1.4478 -0.0441  1.2119
   59MOL0     H 7943  13.462   7.278   4.942 -0.2332 -0.6173 -1.1681
   59MOL0     H 7944  13.428   7.194   5.102  1.0734  1.4744 -0.4581
   59MOL0     H 7945  12.339   7.410   5.247  2.4234 -0.9749  0.6176
   59MOL0     H 7946  12.113   7.489   5.304  3.2752  1.1943  0.3578
   59MOL0     H 7947  11.653   7.381   5.209  0.1577 -0.3136  0.1482
   59MOL0     H 7948  11.405   7.364   5.268  0.3154  1.5278 -0.5487
   59MOL0     H 7949  10.130   6.686   6.520  0.6441 -1.3984  0.0747
   59MOL0     H 7950   9.963   6.518   6.466  1.6402 -0.4504  0.0707
   59MOL0     H 7951   9.602   6.473   6.295 -1.0700 -0.3107 -0.3632
   59MOL0     H 7952   9.483   6.557   6.109 -2.1138 -4.0378 -0.2473
   59MOL0     H 7953   9.074   6.641   6.185  3.5113  1.2263  2.0128
   59MOL0     H 7954   9.061   6.674   6.012 -0.7663 -0.8699 -0.0224
   59MOL0     H 7955   9.193   6.896   6.089  1.3304  1.9484  2.8354
   59MOL0     H 7956   9.095   6.857   6.230 -1.5632 -1.3806  0.2011
   59MOL0     H 7957   9.029   6.976   5.975  0.4111 -0.0430 -0.2241
   59MOL0     H 7958   8.945   6.996   6.120 -1.2255  0.2832 -2.1490
   59MOL0     H 7959   8.907   6.783   5.903  0.0043 -2.2840  1.1827
   59MOL0     H 7960   8.827   6.767   6.056 -1.7158  2.3335  1.4070
   59MOL0     H 7961   8.657   7.120   5.860 -0.7497 -0.8932  0.0984
   59MOL0     H 7962   9.184   6.718   6.356  0.5673  0.6148 -1.5040
   59MOL0     H 7963   9.378   6.724   6.657 -0.2588  1.2762 -0.8228
   59MOL0     H 7964   9.223   6.752   6.579  0.5042  1.7328  1.8058
   59MOL0     H 7965   9.268   6.586   6.643  2.6972  0.1278  1.5241
   60MOL0     O 7966   2.113   4.738   8.819 -0.8408  0.2241  0.1575
   60MOL0     C 7967   2.069   4.805   8.723  0.3280  0.0126 -0.4037
   60MOL0     O 7968   2.148   4.863   8.624 -0.7348 -0.2254  0.2519
   60MOL0     C 7969   2.284   4.838   8.625 -0.2167  0.2205  0.4494
   60MOL0     C 7970   2.366   4.919   8.706  1.2976 -0.0027  0.3205
   60MOL0     C 7971   2.500   4.882   8.729 -0.1085  0.2419  0.1773
   60MOL0     C 7972   2.551   4.764   8.668 -0.2828 -0.6181 -0.0296
   60MOL0     O 7973   2.686   4.735   8.688  0.1427 -0.3534  0.2494
   60MOL0     C 7974   2.722   4.595   8.670 -0.9254 -0.5324  0.3888
   60MOL0     C 7975   2.850   4.570   8.745 -0.1722  0.3801 -0.2568
   60MOL0     C 7976   2.912   4.438   8.719  1.5924  0.1973 -1.0092
   60MOL0     C 7977   3.036   4.397   8.807 -0.2743 -0.1911  0.1303
   60MOL0     C 7978   3.168   4.455   8.755 -0.8322  0.3378  0.7544
   60MOL0     C 7979   3.279   4.428   8.853 -0.3266 -0.2626 -0.2117
   60MOL0     C 7980   3.328   4.286   8.874  0.0206 -0.0774  1.0969
   60MOL0     C 7981   3.386   4.216   8.753 -0.6453 -0.1271 -0.0435
   60MOL0     N 7982   3.310   4.211   8.626 -0.0653 -0.3284 -0.6052
   60MOL0     C 7983   3.201   4.136   8.604 -0.2617  0.4116  0.4830
   60MOL0     C 7984   3.181   4.155   8.467 -0.0780 -0.0133 -0.1532
   60MOL0     C 7985   3.087   4.092   8.369 -0.3108 -0.1560 -0.4141
   60MOL0     C 7986   2.955   4.169   8.382  1.1289  0.5154 -0.1880
   60MOL0     C 7987   2.862   4.131   8.263  0.2681 -0.5580 -0.3992
   60MOL0     C 7988   2.726   4.191   8.266  0.9071  0.7322 -0.3002
   60MOL0     O 7989   2.721   4.330   8.236  0.5716  0.7643 -0.5981
   60MOL0     C 7990   2.594   4.375   8.214 -0.1553 -0.2689  0.5851
   60MOL0     C 7991   2.477   4.322   8.271 -0.0640  0.2368 -0.0581
   60MOL0     C 7992   2.355   4.376   8.260  0.2653  0.5897  0.6822
   60MOL0     C 7993   2.340   4.491   8.189 -0.3800  0.2126 -0.4886
   60MOL0     C 7994   2.201   4.550   8.187 -0.1437  0.0298  0.0660
   60MOL0     O 7995   2.124   4.529   8.297  0.3549  0.5787  0.6247
   60MOL0     C 7996   1.994   4.582   8.296 -0.7145 -1.0442 -0.4101
   60MOL0     C 7997   1.954   4.631   8.414  0.6527  0.2841 -0.3007
   60MOL0     C 7998   1.820   4.672   8.435 -0.8844 -0.6409  0.1337
   60MOL0     C 7999   1.730   4.665   8.338 -0.0179 -0.0414 -0.6474
   60MOL0     O 8000   1.604   4.714   8.371 -0.5182 -0.5195 -0.6865
   60MOL0     C 8001   1.506   4.721   8.267  1.3140  0.0917 -0.6863
   60MOL0     C 8002   1.383   4.773   8.342 -0.1869  0.0253 -0.2402
   60MOL0     C 8003   1.284   4.830   8.248 -0.3951 -0.2171  0.6895
   60MOL0     C 8004   1.156   4.882   8.302  1.1483 -0.0919 -0.3222
   60MOL0     C 8005   1.068   4.942   8.195 -0.1102  0.0883  0.3802
   60MOL0     C 8006   0.930   4.976   8.247 -0.1128  0.0342  0.3501
   60MOL0     C 8007   0.838   5.002   8.136 -0.0264  0.8750  0.4440
   60MOL0     C 8008   0.702   5.038   8.187 -0.3163  0.2881  0.3818
   60MOL0    Cl 8009   0.588   4.987   8.057 -0.1212 -0.3619  0.1050
   60MOL0     C 8010   1.773   4.611   8.208 -1.2761 -0.0557 -0.2432
   60MOL0     C 8011   1.902   4.570   8.185 -0.3292  0.1887 -0.1904
   60MOL0     O 8012   2.169   4.616   8.090  0.6411  0.4209  0.2669
   60MOL0     C 8013   2.452   4.547   8.117 -0.3653  0.1042 -0.2356
   60MOL0     C 8014   2.578   4.493   8.139 -0.2546 -0.2937 -0.1307
   60MOL0     N 8015   3.261   4.261   8.428 -0.1722  0.5478 -0.2003
   60MOL0     N 8016   3.342   4.284   8.524 -0.5580 -0.3759 -0.1041
   60MOL0     C 8017   2.470   4.696   8.576  0.3485  0.0730  0.1511
   60MOL0     C 8018   2.340   4.739   8.552  0.2198 -0.8400  0.4104
   60MOL0     C 8019   1.921   4.839   8.734  0.0809 -0.1577  0.4270
   60MOL0     C 8020   1.843   4.759   8.808  0.3350  0.0106 -1.1058
   60MOL0     C 8021   1.701   4.773   8.803 -0.0139  0.2539  0.4631
   60MOL0     C 8022   1.643   4.867   8.714 -0.9849 -0.3010 -0.0409
   60MOL0     O 8023   1.507   4.877   8.681  0.4010  0.0743  0.6661
   60MOL0     C 8024   1.420   4.853   8.790 -0.1524  0.4548 -0.7494
   60MOL0     C 8025   1.272   4.850   8.737 -0.4712  0.3337 -0.2704
   60MOL0     C 8026   1.218   4.990   8.727  0.3652  0.6683  0.5269
   60MOL0     C 8027   1.071   4.993   8.657 -0.8258  0.1832  0.5099
   60MOL0     C 8028   1.043   5.121   8.598 -0.1294  0.6451 -0.0089
   60MOL0     C 8029   1.033   5.227   8.540  0.8072  0.3514  0.0570
   60MOL0     C 8030   1.732   4.952   8.648  0.3020 -0.5383 -0.0845
   60MOL0     C 8031   1.870   4.947   8.659  0.0745  0.4243 -0.2325
   60MOL0     C 8032   1.950   5.048   8.578  0.6731  0.0604 -0.0941
   60MOL0     H 8033   2.315   4.996   8.763 -0.9571 -1.4930  0.4466
   60MOL0     H 8034   2.555   4.939   8.803 -2.1858 -0.0985  2.0839
   60MOL0     H 8035   2.650   4.521   8.706 -1.8135 -0.0765 -0.4120
   60MOL0     H 8036   2.752   4.566   8.569 -0.6678 -2.4705  0.9866
   60MOL0     H 8037   2.833   4.584   8.852  1.4042 -0.2340  0.1083
   60MOL0     H 8038   2.935   4.633   8.716  0.8156 -0.8573 -0.1315
   60MOL0     H 8039   2.942   4.441   8.614 -1.3715 -0.5722 -1.9614
   60MOL0     H 8040   2.841   4.356   8.725  0.7369  1.0029  0.9769
   60MOL0     H 8041   3.024   4.438   8.907  1.8781  0.9570 -0.0110
   60MOL0     H 8042   3.061   4.290   8.810 -0.6299 -0.4307 -2.6993
   60MOL0     H 8043   3.194   4.436   8.650 -0.8844  3.6575  0.0433
   60MOL0     H 8044   3.161   4.564   8.759  1.5776  0.5153  1.6173
   60MOL0     H 8045   3.368   4.474   8.809  1.3359 -1.1111  2.1256
   60MOL0     H 8046   3.249   4.466   8.951 -1.2803 -0.2635 -0.4854
   60MOL0     H 8047   3.246   4.226   8.915  1.6125 -3.9558 -0.8550
   60MOL0     H 8048   3.411   4.299   8.943  1.3099  2.0778 -0.7062
   60MOL0     H 8049   3.483   4.264   8.745  0.1045 -1.2655  1.5695
   60MOL0     H 8050   3.410   4.112   8.779  0.2915  0.3576  1.1189
   60MOL0     H 8051   3.153   4.060   8.665  0.7573 -0.9822 -0.4072
   60MOL0     H 8052   3.135   4.105   8.272 -0.4869  2.4082 -0.2321
   60MOL0     H 8053   3.084   3.988   8.402  1.8553 -0.0080  0.4272
   60MOL0     H 8054   2.904   4.143   8.475  0.1491 -2.9097 -1.5444
   60MOL0     H 8055   2.982   4.275   8.371 -0.8160  0.9246 -1.8804
   60MOL0     H 8056   2.840   4.024   8.255  0.5979 -0.7036  0.5196
   60MOL0     H 8057   2.907   4.160   8.167 -0.9064 -2.0186 -1.4473
   60MOL0     H 8058   2.695   4.174   8.370  5.4684 -2.3570  0.8926
   60MOL0     H 8059   2.661   4.142   8.194  2.2585  0.6901 -1.5325
   60MOL0     H 8060   2.495   4.228   8.321  0.8338 -0.0453 -0.8788
   60MOL0     H 8061   2.272   4.327   8.311 -0.7492  0.1336 -1.3081
   60MOL0     H 8062   2.020   4.629   8.500 -1.0156 -0.9046  1.0133
   60MOL0     H 8063   1.781   4.711   8.528  3.1673  2.8089  0.6722
   60MOL0     H 8064   1.542   4.795   8.195 -2.9676  0.3567 -2.8771
   60MOL0     H 8065   1.493   4.629   8.211  0.9296  0.0535 -0.5412
   60MOL0     H 8066   1.331   4.687   8.387  0.0167 -0.4095 -0.8253
   60MOL0     H 8067   1.409   4.842   8.423  1.2081 -1.8773  1.0541
   60MOL0     H 8068   1.337   4.916   8.207  3.9372 -0.7356  4.3558
   60MOL0     H 8069   1.267   4.756   8.170  1.9190  0.9621 -1.0650
   60MOL0     H 8070   1.177   4.960   8.375  3.0063 -1.9698  1.2943
   60MOL0     H 8071   1.110   4.807   8.366 -2.4593  3.3736  1.5949
   60MOL0     H 8072   1.057   4.870   8.114 -2.9566 -0.1287  0.8256
   60MOL0     H 8073   1.114   5.035   8.161 -0.0296 -0.9617 -2.5803
   60MOL0     H 8074   0.887   4.890   8.300  0.0088 -0.2374  0.0148
   60MOL0     H 8075   0.950   5.054   8.321  2.7261 -0.5431  0.2814
   60MOL0     H 8076   0.840   4.911   8.076 -0.6583  0.1300  1.5078
   60MOL0     H 8077   0.869   5.083   8.070 -1.8888  0.7409 -0.6579
   60MOL0     H 8078   0.669   4.981   8.274  2.8166 -0.2663  1.3452
   60MOL0     H 8079   0.697   5.146   8.203  1.5944  0.3166  1.0858
   60MOL0     H 8080   1.699   4.594   8.130 -1.7783  1.3306 -0.0905
   60MOL0     H 8081   1.932   4.545   8.084  0.4033  0.2724 -0.0006
   60MOL0     H 8082   2.423   4.632   8.058 -2.0961 -0.4747 -0.2773
   60MOL0     H 8083   2.663   4.530   8.083 -0.2222 -0.8471 -0.4536
   60MOL0     H 8084   2.505   4.608   8.524  0.0927  0.4522 -0.6719
   60MOL0     H 8085   2.275   4.671   8.497  2.4477 -2.9958  0.2721
   60MOL0     H 8086   1.888   4.680   8.867 -0.3643 -0.4705 -1.1987
   60MOL0     H 8087   1.640   4.707   8.864  1.3363 -0.5334  0.9872
   60MOL0     H 8088   1.436   4.909   8.882  1.1834 -2.3249  0.8298
   60MOL0     H 8089   1.447   4.753   8.823 -2.2964 -0.7609 -2.3898
   60MOL0     H 8090   1.196   4.798   8.795 -1.0656 -0.6423 -1.8594
   60MOL0     H 8091   1.270   4.797   8.642  0.9548  0.7682 -0.5698
   60MOL0     H 8092   1.286   5.044   8.660  1.5847 -0.6793  0.6258
   60MOL0     H 8093   1.201   5.039   8.823 -0.6089  3.4693 -0.9508
   60MOL0     H 8094   1.078   4.930   8.568  2.3891 -1.0962  1.5196
   60MOL0     H 8095   0.986   4.971   8.723 -1.5264 -1.7716 -0.9396
   60MOL0     H 8096   1.024   5.319   8.486 -0.7237 -0.2334 -0.7558
   60MOL0     H 8097   1.692   5.018   8.571  0.8679 -0.1877 -0.0856
   60MOL0     H 8098   2.028   5.104   8.630  4.3368 -1.5306 -3.3870
   60MOL0     H 8099   1.992   4.999   8.491  0.4133 -0.2198 -0.0639
   60MOL0     H 8100   1.879   5.123   8.542 -2.4960 -1.9370  1.4769
   61MOL0     O 8101   0.737   5.356   2.534  0.2379  0.1273 -1.1635
   61MOL0     C 8102   0.650   5.346   2.618 -0.6346 -0.1497 -0.6766
   61MOL0     O 8103   0.624   5.439   2.719  0.8127 -0.5321  0.5785
   61MOL0     C 8104   0.708   5.547   2.728 -0.6613 -0.2563 -0.3428
   61MOL0     C 8105   0.793   5.556   2.839 -0.3351  0.5440  0.5316
   61MOL0     C 8106   0.888   5.658   2.853  0.4445 -0.6016  0.3863
   61MOL0     C 8107   0.907   5.750   2.758 -0.9762  0.2715  1.0164
   61MOL0     O 8108   1.011   5.840   2.777 -0.9115  0.3732 -0.5342
   61MOL0     C 8109   1.037   5.928   2.667 -1.1170 -0.2746  0.5918
   61MOL0     C 8110   1.171   6.002   2.699 -0.0880 -1.2009 -0.3981
   61MOL0     C 8111   1.221   6.067   2.575  0.0877 -0.5806 -0.2318
   61MOL0     C 8112   1.355   6.144   2.619  0.1401  0.1259 -0.2927
   61MOL0     C 8113   1.417   6.221   2.501 -0.5133  0.1274  0.5734
   61MOL0     C 8114   1.530   6.305   2.565  0.3181  0.6318  0.4982
   61MOL0     C 8115   1.611   6.373   2.452  0.2187  0.0373  1.0763
   61MOL0     C 8116   1.515   6.460   2.359 -0.3654  0.3493 -0.6407
   61MOL0     N 8117   1.583   6.558   2.282 -0.4371  0.2190  0.1394
   61MOL0     C 8118   1.631   6.677   2.321 -0.2486  0.7767 -0.1186
   61MOL0     C 8119   1.678   6.737   2.206  0.2865  0.5777 -0.1707
   61MOL0     C 8120   1.747   6.871   2.201  0.5703 -0.4450  0.5453
   61MOL0     C 8121   1.721   6.938   2.065 -0.5810 -0.7741 -0.1742
   61MOL0     C 8122   1.587   7.013   2.073  0.6337 -0.2711  0.2402
   61MOL0     C 8123   1.561   7.050   1.931 -0.0122  0.2057  0.6136
   61MOL0     O 8124   1.476   7.168   1.918 -0.1293 -0.0999  0.3027
   61MOL0     C 8125   1.346   7.176   1.974 -0.3023  0.3123  0.2904
   61MOL0     C 8126   1.264   7.056   1.987  1.2726 -0.2435 -0.8398
   61MOL0     C 8127   1.127   7.085   2.017 -0.0408 -0.1628  0.0717
   61MOL0     C 8128   1.077   7.213   2.049 -0.4713 -0.4832 -0.0923
   61MOL0     C 8129   0.937   7.227   2.084 -0.3508 -0.4106  0.0849
   61MOL0     O 8130   0.853   7.126   2.059 -0.5836 -0.2531  0.5819
   61MOL0     C 8131   0.732   7.148   2.113  0.1250  0.6710  0.2750
   61MOL0     C 8132   0.625   7.156   2.027 -0.2073  1.0038 -0.3712
   61MOL0     C 8133   0.491   7.177   2.065 -0.2359  0.0024 -0.1261
   61MOL0     C 8134   0.464   7.177   2.199  1.4272 -0.1674  0.1063
   61MOL0     O 8135   0.332   7.183   2.250  0.5172 -0.2025  0.2528
   61MOL0     C 8136   0.227   7.208   2.154 -0.3290  0.1272  0.4677
   61MOL0     C 8137   0.095   7.229   2.221  0.0975 -0.5340  1.0235
   61MOL0     C 8138   0.027   7.097   2.240  0.0797  0.0676  1.1161
   61MOL0     C 8139  -0.124   7.097   2.256  1.1131  0.5454 -0.0759
   61MOL0     C 8140  -0.172   6.950   2.232 -1.2730  0.8829  0.4805
   61MOL0     C 8141  -0.314   6.934   2.264  0.4326 -0.8115 -0.3291
   61MOL0     C 8142  -0.365   6.799   2.239  0.1900  0.2524 -0.1350
   61MOL0     C 8143  -0.509   6.800   2.294  0.4812 -0.3339  0.2926
   61MOL0    Cl 8144  -0.567   6.634   2.241 -0.2958  0.1874 -0.2931
   61MOL0     C 8145   0.563   7.157   2.293 -0.0243  0.5500 -0.9457
   61MOL0     C 8146   0.696   7.158   2.244  1.0636  0.1232 -0.9161
   61MOL0     O 8147   0.903   7.330   2.138 -0.3060  0.7504 -0.3336
   61MOL0     C 8148   1.158   7.329   2.039 -0.1011  0.0623  1.0091
   61MOL0     C 8149   1.287   7.310   1.997 -0.7434  0.0536  0.7328
   61MOL0     N 8150   1.662   6.648   2.103  1.0146 -0.5418  0.1094
   61MOL0     N 8151   1.599   6.548   2.149  0.7925 -0.2320  1.0928
   61MOL0     C 8152   0.826   5.738   2.637  0.3626  0.0293  0.1835
   61MOL0     C 8153   0.727   5.637   2.627 -0.2116 -0.4342 -0.4121
   61MOL0     C 8154   0.564   5.226   2.631  0.0325  0.6042 -0.7969
   61MOL0     C 8155   0.447   5.232   2.708  0.8149 -1.0835  0.4879
   61MOL0     C 8156   0.367   5.126   2.723  0.3386  0.4941 -0.5973
   61MOL0     C 8157   0.392   5.000   2.664 -0.0212 -0.0671 -0.5241
   61MOL0     O 8158   0.305   4.891   2.676  0.0728  0.0134 -0.6455
   61MOL0     C 8159   0.179   4.916   2.736  0.6234 -0.0079 -0.8390
   61MOL0     C 8160   0.093   4.789   2.712 -0.2179  1.2559  0.1283
   61MOL0     C 8161   0.167   4.675   2.785 -0.3499 -0.4612 -0.6204
   61MOL0     C 8162   0.097   4.550   2.787  0.5341  0.3467 -0.3600
   61MOL0     C 8163   0.178   4.450   2.855 -0.3453  0.4003  0.2014
   61MOL0     C 8164   0.248   4.374   2.913  0.6199 -0.3065 -0.1047
   61MOL0     C 8165   0.505   4.991   2.581 -1.0020 -0.5954  0.5217
   61MOL0     C 8166   0.593   5.098   2.567  0.4805 -0.9233  0.2619
   61MOL0     C 8167   0.710   5.077   2.480  0.9453  0.2463  0.5467
   61MOL0     H 8168   0.775   5.475   2.910  1.0337  0.0971  0.3959
   61MOL0     H 8169   0.952   5.667   2.940  2.2198  0.8896 -0.9825
   61MOL0     H 8170   1.050   5.871   2.575  0.8136 -1.8829  1.7824
   61MOL0     H 8171   0.948   5.990   2.652 -0.5472  0.4731  0.1963
   61MOL0     H 8172   1.245   5.929   2.732 -2.0069 -1.8007  3.0248
   61MOL0     H 8173   1.156   6.073   2.780  1.7115 -1.0213 -0.1922
   61MOL0     H 8174   1.153   6.136   2.524  1.4610  0.8733 -0.1874
   61MOL0     H 8175   1.243   5.988   2.503  3.0731 -0.9976  0.9615
   61MOL0     H 8176   1.341   6.216   2.700  0.3240 -0.5917  0.3849
   61MOL0     H 8177   1.422   6.064   2.653  1.8057  1.6052  0.0393
   61MOL0     H 8178   1.456   6.148   2.429 -3.4776  0.5364 -1.6437
   61MOL0     H 8179   1.340   6.282   2.454 -0.1021  0.1737 -0.0612
   61MOL0     H 8180   1.485   6.386   2.624 -0.4448 -0.0706  0.9028
   61MOL0     H 8181   1.597   6.240   2.622 -0.6795 -0.6433  0.2585
   61MOL0     H 8182   1.660   6.298   2.388  1.3315  0.8891  0.9119
   61MOL0     H 8183   1.696   6.428   2.491 -0.7719  0.2400  3.0688
   61MOL0     H 8184   1.466   6.385   2.296  1.0001 -3.7912  2.7278
   61MOL0     H 8185   1.440   6.508   2.422 -1.3972 -0.6547 -1.0723
   61MOL0     H 8186   1.626   6.725   2.418 -0.6498  0.3450  0.0785
   61MOL0     H 8187   1.710   6.939   2.277 -0.5681  1.3999 -1.5485
   61MOL0     H 8188   1.854   6.867   2.222  0.7113  1.7843  0.4163
   61MOL0     H 8189   1.800   7.012   2.049  2.3324 -2.8991  2.9670
   61MOL0     H 8190   1.714   6.865   1.984 -1.2911  0.0945 -0.9183
   61MOL0     H 8191   1.588   7.103   2.135  1.4047 -0.0565 -0.0721
   61MOL0     H 8192   1.503   6.951   2.106  0.0439  0.1708 -0.3994
   61MOL0     H 8193   1.510   6.973   1.871 -0.0373  0.2842  0.5335
   61MOL0     H 8194   1.653   7.051   1.871 -0.5941 -3.0043 -0.5837
   61MOL0     H 8195   1.303   6.956   1.973  2.1945 -0.0045 -0.0664
   61MOL0     H 8196   1.061   7.000   2.033 -0.5638 -0.3508 -2.6422
   61MOL0     H 8197   0.656   7.156   1.923  0.8364 -1.2372 -0.1314
   61MOL0     H 8198   0.414   7.187   1.989  0.0240 -0.3033 -0.4369
   61MOL0     H 8199   0.244   7.300   2.098 -0.0749  0.2650  0.7681
   61MOL0     H 8200   0.224   7.123   2.085 -1.0500  1.1985 -0.8586
   61MOL0     H 8201   0.113   7.275   2.318  0.5867  2.1446 -0.2653
   61MOL0     H 8202   0.040   7.299   2.158 -0.7894 -1.8564  0.2519
   61MOL0     H 8203   0.061   7.032   2.158 -1.4567  1.0064 -0.3342
   61MOL0     H 8204   0.069   7.057   2.332  2.2489 -0.8789 -0.2014
   61MOL0     H 8205  -0.174   7.171   2.193 -1.1687  1.0979  2.2236
   61MOL0     H 8206  -0.146   7.125   2.359  1.9714 -0.0060  0.2686
   61MOL0     H 8207  -0.122   6.878   2.298 -1.9285 -0.7841 -0.7656
   61MOL0     H 8208  -0.146   6.917   2.130 -3.4311  1.8891 -0.4381
   61MOL0     H 8209  -0.307   6.942   2.373  2.1594  0.4373 -0.4818
   61MOL0     H 8210  -0.373   7.008   2.210  0.0088 -0.8159  0.1286
   61MOL0     H 8211  -0.307   6.721   2.289 -0.4342 -0.6100 -0.7159
   61MOL0     H 8212  -0.355   6.785   2.131  1.6809  0.4400 -0.0427
   61MOL0     H 8213  -0.505   6.816   2.402 -1.0537 -0.1718  0.3459
   61MOL0     H 8214  -0.569   6.874   2.240 -1.2355 -2.0221 -0.2241
   61MOL0     H 8215   0.535   7.151   2.397  0.3110 -0.1921 -0.8942
   61MOL0     H 8216   0.785   7.162   2.307 -0.6659 -0.4445  1.7070
   61MOL0     H 8217   1.126   7.432   2.051  0.6363  0.2235  1.6319
   61MOL0     H 8218   1.346   7.399   1.980 -1.3202  0.5161  1.1295
   61MOL0     H 8219   0.839   5.803   2.552 -1.3251 -0.9820 -0.8853
   61MOL0     H 8220   0.657   5.647   2.545  0.5413  4.6374 -0.8090
   61MOL0     H 8221   0.427   5.322   2.764 -1.9600 -3.3774  3.6098
   61MOL0     H 8222   0.280   5.143   2.786 -1.4025  0.4035 -2.8610
   61MOL0     H 8223   0.135   5.012   2.708 -3.3932 -0.3458  3.2306
   61MOL0     H 8224   0.196   4.937   2.842  3.0208  1.3432 -1.3965
   61MOL0     H 8225   0.094   4.787   2.603 -1.2361  2.5839  0.0779
   61MOL0     H 8226  -0.012   4.802   2.740 -0.6699 -0.9541 -0.3896
   61MOL0     H 8227   0.188   4.699   2.890 -1.2522  0.4080 -0.6214
   61MOL0     H 8228   0.259   4.665   2.727  0.8252  0.7397  0.9459
   61MOL0     H 8229   0.008   4.567   2.849 -0.1057 -1.2244 -0.7961
   61MOL0     H 8230   0.067   4.518   2.687 -0.1404 -1.3569  0.3400
   61MOL0     H 8231   0.314   4.303   2.959  1.7154  0.5472 -0.3117
   61MOL0     H 8232   0.523   4.904   2.519 -0.2062 -0.0586 -0.0214
   61MOL0     H 8233   0.801   5.109   2.532  0.9160  0.6101  0.3820
   61MOL0     H 8234   0.729   4.970   2.467 -0.2736 -0.0193  0.8025
   61MOL0     H 8235   0.697   5.112   2.377  1.7413  0.5648  0.5465
   62MOL0     O 8236   5.547   8.648   4.798  0.8840  0.1855 -0.3233
   62MOL0     C 8237   5.508   8.571   4.886  0.3774 -0.1667  0.2431
   62MOL0     O 8238   5.592   8.509   4.964 -0.2639  0.5236  0.1270
   62MOL0     C 8239   5.724   8.495   4.950 -0.7283 -0.1924  0.0061
   62MOL0     C 8240   5.794   8.499   5.068 -0.1717  0.6461 -0.2563
   62MOL0     C 8241   5.936   8.512   5.072 -0.5003 -0.0788  0.4283
   62MOL0     C 8242   6.002   8.509   4.946  0.2920 -0.2961  0.0219
   62MOL0     O 8243   6.140   8.521   4.919  1.1248 -0.3824  0.2791
   62MOL0     C 8244   6.224   8.531   5.036 -0.4976  0.2374 -0.2281
   62MOL0     C 8245   6.369   8.562   5.008  0.0833  0.2485  0.2128
   62MOL0     C 8246   6.438   8.442   4.936  0.4950 -0.0656  0.8081
   62MOL0     C 8247   6.574   8.474   4.877 -0.5523  0.3886  0.3026
   62MOL0     C 8248   6.684   8.484   4.980  0.4018  0.0944  0.3608
   62MOL0     C 8249   6.822   8.476   4.919  0.6808 -0.8035 -0.4154
   62MOL0     C 8250   6.921   8.431   5.031  0.0544 -0.0046  0.1417
   62MOL0     C 8251   7.059   8.453   4.989 -0.6987 -0.5770 -0.2422
   62MOL0     N 8252   7.154   8.398   5.081  0.6992 -0.9058  0.0408
   62MOL0     C 8253   7.143   8.387   5.225  0.5739 -0.5989 -0.7149
   62MOL0     C 8254   7.249   8.319   5.268  0.4603 -0.7597 -0.0068
   62MOL0     C 8255   7.281   8.309   5.409 -0.9431  0.3189  0.3034
   62MOL0     C 8256   7.434   8.310   5.426  0.5577  0.9454 -0.4247
   62MOL0     C 8257   7.471   8.324   5.574 -0.4439 -0.0721  0.4902
   62MOL0     C 8258   7.618   8.354   5.591  0.6205 -0.0031 -0.7164
   62MOL0     O 8259   7.692   8.269   5.510 -0.8909 -0.5259  0.5056
   62MOL0     C 8260   7.828   8.301   5.475  0.3159 -0.1456 -0.0498
   62MOL0     C 8261   7.893   8.221   5.384 -0.3889  0.1505 -0.2748
   62MOL0     C 8262   8.025   8.242   5.351 -0.4637  0.4017  0.2398
   62MOL0     C 8263   8.103   8.351   5.405  0.8265  0.0756 -0.7384
   62MOL0     C 8264   8.239   8.372   5.368 -0.3918 -0.0235  0.1703
   62MOL0     O 8265   8.302   8.483   5.421 -0.3160 -0.0679 -0.4512
   62MOL0     C 8266   8.432   8.525   5.382  0.2967  0.4359  0.4474
   62MOL0     C 8267   8.517   8.481   5.274 -0.0867 -0.1212  0.3706
   62MOL0     C 8268   8.637   8.543   5.239 -0.4774 -0.9502 -0.5373
   62MOL0     C 8269   8.670   8.664   5.306 -0.5144 -0.0236 -0.0210
   62MOL0     O 8270   8.786   8.724   5.262  0.6192 -0.3460  0.0601
   62MOL0     C 8271   8.785   8.868   5.262 -0.3615  1.0588  0.1857
   62MOL0     C 8272   8.680   8.934   5.175  0.8681 -0.2254  0.0818
   62MOL0     C 8273   8.729   8.943   5.033 -0.9503 -0.0491 -0.0853
   62MOL0     C 8274   8.811   9.070   5.006  0.2652 -0.0778  0.1604
   62MOL0     C 8275   8.866   9.063   4.868  0.3669  0.0391 -0.3816
   62MOL0     C 8276   8.932   9.192   4.817 -0.9970  0.6223  0.4146
   62MOL0     C 8277   8.996   9.179   4.678  0.4096 -0.4584  0.0182
   62MOL0     C 8278   9.052   9.312   4.620 -0.2344 -0.1347  0.0381
   62MOL0    Cl 8279   9.196   9.380   4.713 -0.0898 -0.2801 -0.2935
   62MOL0     C 8280   8.595   8.709   5.415 -0.4291 -0.4062  0.7883
   62MOL0     C 8281   8.481   8.636   5.456  0.8478 -1.1028  0.6885
   62MOL0     O 8282   8.296   8.283   5.308  0.0352  0.5027 -0.1910
   62MOL0     C 8283   8.028   8.439   5.488  0.5985 -0.0502 -0.1273
   62MOL0     C 8284   7.896   8.411   5.530  0.7838  0.4950 -0.2612
   62MOL0     N 8285   7.324   8.291   5.153  0.0831  0.4482 -0.4689
   62MOL0     N 8286   7.270   8.341   5.045  0.1441 -0.0643  0.4331
   62MOL0     C 8287   5.932   8.502   4.829  0.6781 -1.1902 -0.8131
   62MOL0     C 8288   5.790   8.491   4.828 -0.3912 -0.3918 -0.0337
   62MOL0     C 8289   5.367   8.544   4.901  0.4877  0.3274 -0.1008
   62MOL0     C 8290   5.322   8.458   5.004 -0.3068 -0.4092  0.0746
   62MOL0     C 8291   5.185   8.434   5.032  0.4701  1.1667  0.6875
   62MOL0     C 8292   5.085   8.491   4.940  0.1659  0.8129 -0.8151
   62MOL0     O 8293   4.951   8.470   4.966  0.5508 -0.0274  0.0580
   62MOL0     C 8294   4.903   8.392   5.076 -0.1629  0.4793 -0.2768
   62MOL0     C 8295   4.751   8.384   5.094  0.8671  0.7069  0.8032
   62MOL0     C 8296   4.657   8.350   4.978 -0.2755  0.0594  0.2309
   62MOL0     C 8297   4.507   8.336   5.022  0.3174 -0.3951  1.1200
   62MOL0     C 8298   4.424   8.314   4.898 -0.2782  0.3360  1.2940
   62MOL0     C 8299   4.353   8.289   4.799 -1.3014 -0.8777 -0.1456
   62MOL0     C 8300   5.129   8.578   4.843 -0.1007  0.0322  0.0612
   62MOL0     C 8301   5.264   8.606   4.823  1.2947 -0.4966 -0.6145
   62MOL0     C 8302   5.302   8.695   4.707  0.3068 -0.6659 -0.0433
   62MOL0     H 8303   5.744   8.507   5.164 -0.9077 -0.3044 -0.5484
   62MOL0     H 8304   5.989   8.502   5.167  0.0374 -0.1002  0.1290
   62MOL0     H 8305   6.195   8.617   5.098 -0.7028 -0.4955  0.7231
   62MOL0     H 8306   6.221   8.437   5.091  0.0648 -0.9210 -2.0913
   62MOL0     H 8307   6.423   8.597   5.096 -2.2597 -1.6802  2.5787
   62MOL0     H 8308   6.363   8.646   4.939 -2.2534 -0.8938 -1.1117
   62MOL0     H 8309   6.372   8.394   4.863  1.5467 -0.8187  0.3183
   62MOL0     H 8310   6.458   8.368   5.015  2.3282 -1.9326 -1.2632
   62MOL0     H 8311   6.599   8.381   4.825 -2.8722 -0.2423  0.1579
   62MOL0     H 8312   6.573   8.559   4.809  2.6798  0.9023  0.7581
   62MOL0     H 8313   6.672   8.565   5.053 -1.9268 -1.1866  1.4948
   62MOL0     H 8314   6.683   8.392   5.040 -0.8176 -1.1429 -1.4445
   62MOL0     H 8315   6.819   8.400   4.841 -1.4591 -1.9488  0.7087
   62MOL0     H 8316   6.847   8.575   4.880  0.3463  0.7937  3.0507
   62MOL0     H 8317   6.905   8.323   5.038 -1.4210 -0.0371 -2.6473
   62MOL0     H 8318   6.890   8.473   5.127 -0.3331 -0.7387  0.3427
   62MOL0     H 8319   7.071   8.406   4.891 -1.7189 -0.7112 -0.3105
   62MOL0     H 8320   7.082   8.557   4.963 -0.4511 -0.4183  0.5709
   62MOL0     H 8321   7.053   8.422   5.274  0.2331 -1.0368 -1.0181
   62MOL0     H 8322   7.238   8.390   5.468 -1.0095  0.9441 -0.5923
   62MOL0     H 8323   7.236   8.214   5.440 -1.4750  0.5301  0.1879
   62MOL0     H 8324   7.474   8.220   5.378  4.5889  3.0157 -1.3812
   62MOL0     H 8325   7.481   8.400   5.384  1.1118  0.7981 -0.1260
   62MOL0     H 8326   7.436   8.237   5.631 -1.6221  0.3741  0.4903
   62MOL0     H 8327   7.404   8.397   5.622 -2.7675 -1.2247 -0.8139
   62MOL0     H 8328   7.649   8.352   5.696  0.8553 -1.4804 -0.7828
   62MOL0     H 8329   7.626   8.457   5.557 -1.7156  0.0142 -1.3614
   62MOL0     H 8330   7.838   8.144   5.331 -0.5049 -0.8420  1.2263
   62MOL0     H 8331   8.081   8.177   5.285  2.1279  3.8148 -1.2444
   62MOL0     H 8332   8.506   8.389   5.218 -0.5166  1.4910 -2.4408
   62MOL0     H 8333   8.692   8.504   5.153 -2.0353 -0.7178 -1.6774
   62MOL0     H 8334   8.764   8.902   5.364 -0.0531  0.9105  0.3000
   62MOL0     H 8335   8.888   8.906   5.252  1.3933 -2.5794  2.4327
   62MOL0     H 8336   8.590   8.872   5.176  0.3691  0.4821 -0.1783
   62MOL0     H 8337   8.662   9.033   5.218 -1.3923 -1.9270  3.4762
   62MOL0     H 8338   8.792   8.856   5.008 -0.7235  0.4726 -1.4002
   62MOL0     H 8339   8.643   8.936   4.966 -1.4579  1.9232  0.3068
   62MOL0     H 8340   8.884   9.088   5.086  1.0052 -1.1353 -0.2551
   62MOL0     H 8341   8.743   9.156   5.009 -0.3068 -0.4630 -1.0262
   62MOL0     H 8342   8.776   9.045   4.808  1.0925 -0.4954 -1.3274
   62MOL0     H 8343   8.935   8.978   4.865  1.6977  1.0385  0.8894
   62MOL0     H 8344   8.855   9.269   4.810 -0.1938  1.5008  0.9453
   62MOL0     H 8345   9.015   9.213   4.885  0.0266  1.2633 -0.9841
   62MOL0     H 8346   8.929   9.134   4.604 -0.7632  1.8684 -0.4224
   62MOL0     H 8347   9.078   9.106   4.688 -0.5052 -1.2546  2.6917
   62MOL0     H 8348   9.082   9.297   4.516  2.0482 -0.8743  0.7258
   62MOL0     H 8349   8.979   9.393   4.630  0.2842  0.4854 -1.0128
   62MOL0     H 8350   8.619   8.805   5.459  0.4967  0.1751 -0.9129
   62MOL0     H 8351   8.421   8.668   5.540  2.7309  0.0775  1.6563
   62MOL0     H 8352   8.066   8.531   5.531 -4.1601  2.3251 -0.3225
   62MOL0     H 8353   7.849   8.481   5.599 -0.7227 -0.0354 -0.7061
   62MOL0     H 8354   5.978   8.515   4.732 -1.3011 -0.1283 -1.6801
   62MOL0     H 8355   5.725   8.490   4.741 -1.2631  2.5130  0.4967
   62MOL0     H 8356   5.398   8.412   5.066  1.2630 -1.5084 -2.4880
   62MOL0     H 8357   5.162   8.369   5.116 -0.8548 -0.0247 -0.5266
   62MOL0     H 8358   4.929   8.442   5.170 -2.8525  1.7612 -0.1400
   62MOL0     H 8359   4.955   8.296   5.066  0.6849  0.8341  0.4967
   62MOL0     H 8360   4.720   8.481   5.134 -1.7970  0.1361  0.3430
   62MOL0     H 8361   4.731   8.306   5.169 -0.2281  2.1663  2.0832
   62MOL0     H 8362   4.692   8.262   4.924  0.1534  0.0405  0.5419
   62MOL0     H 8363   4.654   8.440   4.915 -1.2736 -0.1795 -0.0822
   62MOL0     H 8364   4.505   8.244   5.081  1.1881 -1.3085 -0.2035
   62MOL0     H 8365   4.468   8.423   5.076 -1.0976 -1.7553  2.3762
   62MOL0     H 8366   4.298   8.277   4.708 -2.2693  1.2384  0.0889
   62MOL0     H 8367   5.063   8.632   4.775  0.7397 -1.3499 -1.9578
   62MOL0     H 8368   5.352   8.784   4.746  0.6786 -0.7364 -0.3566
   62MOL0     H 8369   5.369   8.650   4.634  1.6099  0.9990  0.0563
   62MOL0     H 8370   5.218   8.731   4.647  2.7173  0.1977 -3.1774
   63MOL0     O 8371   5.326   5.876  10.078  0.6842 -0.0054 -0.0237
   63MOL0     C 8372   5.389   5.826  10.166 -0.0431  1.2655 -0.7279
   63MOL0     O 8373   5.336   5.787  10.292  0.5410  0.2606  0.1906
   63MOL0     C 8374   5.210   5.831  10.340  0.2913  0.1767  1.1181
   63MOL0     C 8375   5.085   5.754  10.333  0.1742 -0.1375 -0.0589
   63MOL0     C 8376   4.964   5.820  10.361  0.7129  0.2015  0.2553
   63MOL0     C 8377   4.958   5.953  10.391  0.4754 -0.4621  0.2459
   63MOL0     O 8378   4.852   6.033  10.401 -0.1124  0.1365  0.1925
   63MOL0     C 8379   4.748   5.982  10.487  0.2319  0.6817 -0.2179
   63MOL0     C 8380   4.747   6.070  10.614 -0.6599  0.5997  0.4375
   63MOL0     C 8381   4.874   6.074  10.696 -0.4305  0.7229  0.8594
   63MOL0     C 8382   4.907   5.929  10.749 -0.3991 -0.5990  1.3520
   63MOL0     C 8383   5.036   5.938  10.834  0.6715  0.0490  0.1416
   63MOL0     C 8384   5.072   5.801  10.899 -0.0262 -0.1180  0.3557
   63MOL0     C 8385   5.169   5.816  11.024  0.5259  0.0000 -1.1706
   63MOL0     C 8386   5.091   5.845  11.159 -0.1897  0.0636  0.3495
   63MOL0     N 8387   5.187   5.883  11.263 -0.5145 -0.5148 -0.1345
   63MOL0     C 8388   5.208   5.827  11.387  0.0896  0.2063  0.1817
   63MOL0     C 8389   5.324   5.895  11.438  0.0529 -0.0128  0.0047
   63MOL0     C 8390   5.392   5.884  11.569 -0.0365  0.6736 -0.2717
   63MOL0     C 8391   5.349   5.986  11.677 -0.6000 -0.5502 -0.0829
   63MOL0     C 8392   5.424   5.968  11.801  0.1045 -0.3869 -0.4020
   63MOL0     C 8393   5.387   6.076  11.902  0.1991  0.6433  0.3971
   63MOL0     O 8394   5.436   6.057  12.032  0.0175  0.0945  0.1523
   63MOL0     C 8395   5.565   6.078  12.063  0.7907 -0.6266  0.1030
   63MOL0     C 8396   5.623   5.990  12.149  0.0754 -0.3325 -0.9418
   63MOL0     C 8397   5.755   6.005  12.189  1.0176 -0.6345 -0.1663
   63MOL0     C 8398   5.837   6.116  12.149  0.8204 -0.1780  1.0711
   63MOL0     C 8399   5.979   6.136  12.193 -0.0714  0.0536  0.1531
   63MOL0     O 8400   6.008   6.080  12.309  0.0438 -0.2268 -0.5906
   63MOL0     C 8401   6.136   6.095  12.353 -0.4736 -0.1650  0.3898
   63MOL0     C 8402   6.186   6.221  12.390  1.0832 -0.6580  0.3383
   63MOL0     C 8403   6.321   6.227  12.425  0.5364 -0.8041 -0.4871
   63MOL0     C 8404   6.396   6.113  12.438  0.6201  0.4082 -0.1436
   63MOL0     O 8405   6.526   6.136  12.455  0.0988  1.2894  0.5709
   63MOL0     C 8406   6.605   6.040  12.526 -0.0272 -0.0477  0.0148
   63MOL0     C 8407   6.750   6.084  12.537  0.3161 -0.4114  0.3227
   63MOL0     C 8408   6.831   5.963  12.590 -0.1603  0.0313 -1.1881
   63MOL0     C 8409   6.964   5.999  12.649  0.3666 -0.1867  0.6289
   63MOL0     C 8410   7.044   5.890  12.722  0.2319  0.4479 -0.9894
   63MOL0     C 8411   7.144   5.819  12.629  0.2602 -0.1425 -0.2083
   63MOL0     C 8412   7.188   5.676  12.681 -0.1878  0.4693 -0.3350
   63MOL0     C 8413   7.272   5.594  12.586 -0.5238  0.5768  0.3983
   63MOL0    Cl 8414   7.389   5.700  12.513 -0.1096  0.0928 -0.3262
   63MOL0     C 8415   6.345   5.983  12.408 -0.0082 -0.2666 -0.1923
   63MOL0     C 8416   6.211   5.975  12.369 -0.1342  0.7165  1.1025
   63MOL0     O 8417   6.055   6.207  12.130  0.1277 -0.1774 -0.0804
   63MOL0     C 8418   5.778   6.200  12.049  0.2963 -0.4006  0.4427
   63MOL0     C 8419   5.642   6.188  12.009  0.0319  0.3123 -0.0656
   63MOL0     N 8420   5.368   5.987  11.338  0.7018  0.1438  0.3524
   63MOL0     N 8421   5.276   5.986  11.243 -0.0329 -0.7854  0.0418
   63MOL0     C 8422   5.079   6.018  10.416  0.0472 -0.2930  1.0757
   63MOL0     C 8423   5.200   5.959  10.391  0.5187 -0.1318 -0.8621
   63MOL0     C 8424   5.530   5.820  10.136 -0.4993  0.5172  0.7375
   63MOL0     C 8425   5.613   5.837  10.248 -0.7417  0.2153 -0.2176
   63MOL0     C 8426   5.751   5.820  10.231 -0.2993  0.3036 -0.1167
   63MOL0     C 8427   5.811   5.796  10.108 -0.1940  0.0214 -1.1369
   63MOL0     O 8428   5.944   5.801  10.100  0.9235 -0.1270 -0.1112
   63MOL0     C 8429   6.012   5.717  10.011 -0.0458  0.0857  0.0298
   63MOL0     C 8430   6.157   5.723  10.066 -0.1758  0.4478  0.0566
   63MOL0     C 8431   6.231   5.858  10.044  0.3831 -0.2936 -0.3289
   63MOL0     C 8432   6.371   5.854  10.098 -0.6437  0.5926 -0.1395
   63MOL0     C 8433   6.462   5.814   9.986 -0.0473 -0.5846 -0.3368
   63MOL0     C 8434   6.546   5.783   9.899 -1.1384  0.8060 -0.5509
   63MOL0     C 8435   5.734   5.809   9.995  0.4603 -0.8342  0.1870
   63MOL0     C 8436   5.592   5.805  10.006 -0.3727 -0.2197  0.3732
   63MOL0     C 8437   5.504   5.766   9.891  0.1372  0.5778 -0.0627
   63MOL0     H 8438   5.077   5.651  10.301 -2.2082  0.7970 -2.9417
   63MOL0     H 8439   4.879   5.753  10.353  0.7612  0.2652 -0.9424
   63MOL0     H 8440   4.647   5.996  10.448  0.1523  0.0439 -0.2507
   63MOL0     H 8441   4.777   5.881  10.516 -1.5903  0.9709  2.9969
   63MOL0     H 8442   4.663   6.045  10.678 -0.9428  1.8650  0.5864
   63MOL0     H 8443   4.727   6.174  10.586  0.0858  0.8796  0.8998
   63MOL0     H 8444   4.848   6.143  10.776 -1.5423  0.7855  0.4659
   63MOL0     H 8445   4.955   6.117  10.636 -1.9431 -1.8700 -3.5683
   63MOL0     H 8446   4.821   5.880  10.796 -1.1398 -1.5610 -0.8513
   63MOL0     H 8447   4.934   5.883  10.654 -4.4949 -0.3139 -0.1288
   63MOL0     H 8448   5.120   5.967  10.769 -0.2785 -0.2272 -1.2583
   63MOL0     H 8449   5.016   6.014  10.910 -1.9406 -3.8202  3.7976
   63MOL0     H 8450   4.978   5.756  10.933 -1.0126  2.5025  1.2824
   63MOL0     H 8451   5.117   5.737  10.822 -1.1258 -1.8986  1.1108
   63MOL0     H 8452   5.243   5.893  10.999 -0.3798  1.1226 -0.4768
   63MOL0     H 8453   5.233   5.727  11.032 -0.3092 -0.5160 -0.1198
   63MOL0     H 8454   5.033   5.933  11.131  0.2573 -0.1285 -1.3049
   63MOL0     H 8455   5.029   5.760  11.189  0.0976  1.0289  4.2800
   63MOL0     H 8456   5.165   5.740  11.437  0.4416 -0.6315 -0.9560
   63MOL0     H 8457   5.363   5.782  11.596  2.4628  0.1329  0.6959
   63MOL0     H 8458   5.500   5.886  11.553 -0.4670 -1.2235 -4.6846
   63MOL0     H 8459   5.355   6.087  11.636  0.9519 -1.3254 -1.9660
   63MOL0     H 8460   5.244   5.961  11.695 -0.6465 -0.0514  0.3400
   63MOL0     H 8461   5.531   5.973  11.776 -0.0089 -0.0947 -0.8371
   63MOL0     H 8462   5.399   5.871  11.845  0.5704  0.1528  1.0992
   63MOL0     H 8463   5.279   6.071  11.920  0.2850 -2.5068  0.5583
   63MOL0     H 8464   5.416   6.173  11.860 -1.4316 -0.1631 -2.8826
   63MOL0     H 8465   5.566   5.905  12.186  1.2555  0.0888  2.1102
   63MOL0     H 8466   5.793   5.935  12.263 -1.5178  2.4149  4.4929
   63MOL0     H 8467   6.141   6.318  12.372  3.2695  0.9691  2.7795
   63MOL0     H 8468   6.371   6.321  12.445  0.2999 -0.6400 -0.6615
   63MOL0     H 8469   6.566   6.016  12.625  1.3693  1.6357  1.0401
   63MOL0     H 8470   6.598   5.952  12.461  1.2716 -1.1090  1.2567
   63MOL0     H 8471   6.788   6.120  12.440 -0.4569  0.4754  0.3496
   63MOL0     H 8472   6.758   6.165  12.610  0.4774  0.8007 -0.9970
   63MOL0     H 8473   6.774   5.905  12.664  0.3392  3.3141  2.0597
   63MOL0     H 8474   6.857   5.888  12.515  0.2996 -0.5603 -0.4548
   63MOL0     H 8475   6.947   6.076  12.724  3.3278  0.8486  0.4072
   63MOL0     H 8476   7.021   6.053  12.572 -1.4634  3.6613  1.7147
   63MOL0     H 8477   6.975   5.820  12.771  2.9673 -0.1022  2.4886
   63MOL0     H 8478   7.090   5.935  12.811 -3.0858  0.2958  0.9746
   63MOL0     H 8479   7.086   5.800  12.538  0.8233 -1.8415 -0.2482
   63MOL0     H 8480   7.227   5.887  12.607  1.0637 -0.4513  1.6815
   63MOL0     H 8481   7.094   5.623  12.700  0.3661 -0.4022  0.0700
   63MOL0     H 8482   7.237   5.694  12.778 -2.7667  0.4805  1.0470
   63MOL0     H 8483   7.321   5.512  12.639 -2.2627 -0.3682  0.6120
   63MOL0     H 8484   7.221   5.532  12.511  2.1565 -2.2269  0.6662
   63MOL0     H 8485   6.407   5.895  12.423  0.2381  0.0555  0.7753
   63MOL0     H 8486   6.172   5.880  12.334 -1.6802  0.5325  3.1445
   63MOL0     H 8487   5.830   6.282  11.999 -0.1926 -0.5608 -0.3511
   63MOL0     H 8488   5.599   6.253  11.933  1.7706  2.6614  0.8539
   63MOL0     H 8489   5.077   6.126  10.423 -2.9522 -0.1407 -0.2854
   63MOL0     H 8490   5.293   6.015  10.400 -0.1501  0.6660  1.9990
   63MOL0     H 8491   5.578   5.859  10.348  2.4314 -1.2798  1.3792
   63MOL0     H 8492   5.803   5.830  10.326 -0.0087 -0.8378 -0.1328
   63MOL0     H 8493   6.008   5.751   9.907  2.9248 -2.5598 -1.1072
   63MOL0     H 8494   5.965   5.619  10.018 -0.6286  0.1908 -1.9443
   63MOL0     H 8495   6.217   5.643  10.023 -0.3827  0.3042  0.0363
   63MOL0     H 8496   6.149   5.693  10.171 -0.6813 -1.5545 -0.5314
   63MOL0     H 8497   6.179   5.936  10.101  0.9031  0.7386 -1.2108
   63MOL0     H 8498   6.214   5.882   9.938 -3.9480 -2.0993 -0.2485
   63MOL0     H 8499   6.401   5.951  10.137  4.9220 -0.8781  0.0777
   63MOL0     H 8500   6.390   5.779  10.175  1.1396  1.8090  0.6668
   63MOL0     H 8501   6.622   5.734   9.843 -1.8195 -1.2750  0.2551
   63MOL0     H 8502   5.777   5.798   9.896 -0.7125 -1.3827 -0.2884
   63MOL0     H 8503   5.423   5.704   9.931  0.6112 -0.5499 -0.7928
   63MOL0     H 8504   5.455   5.850   9.842 -0.2550 -0.6305 -1.8145
   63MOL0     H 8505   5.566   5.706   9.823  1.5425  1.2089  0.6120
   64MOL0     O 8506   5.107   2.876   1.193  0.3658  0.3355 -0.2976
   64MOL0     C 8507   5.123   2.878   1.314  1.0124  0.3673 -0.5667
   64MOL0     O 8508   5.200   2.799   1.383  0.2540  0.6890  0.3891
   64MOL0     C 8509   5.302   2.727   1.332  0.2487  0.1833 -0.0253
   64MOL0     C 8510   5.381   2.779   1.230 -0.9159  1.1507  0.3418
   64MOL0     C 8511   5.494   2.702   1.196  0.0047 -0.4687 -0.2776
   64MOL0     C 8512   5.537   2.588   1.265 -0.3468  0.2815 -0.1070
   64MOL0     O 8513   5.647   2.514   1.229  0.0305  0.4764 -0.0149
   64MOL0     C 8514   5.730   2.560   1.123 -0.9319  0.9430 -0.5274
   64MOL0     C 8515   5.853   2.474   1.098 -0.6039  0.6918  0.2759
   64MOL0     C 8516   5.938   2.552   0.987 -0.4132 -1.0753  0.0399
   64MOL0     C 8517   6.071   2.488   0.955  0.0148 -0.0045 -0.2051
   64MOL0     C 8518   6.135   2.580   0.851  0.1989 -0.9057  0.4811
   64MOL0     C 8519   6.283   2.529   0.819  0.4631  0.9616  0.1056
   64MOL0     C 8520   6.375   2.627   0.742  0.3389 -0.8604 -0.2310
   64MOL0     C 8521   6.299   2.660   0.615  0.5495 -0.0617  0.1794
   64MOL0     N 8522   6.277   2.546   0.526  0.5745 -0.1234 -0.1192
   64MOL0     C 8523   6.151   2.494   0.512 -0.2663  0.5264 -0.7446
   64MOL0     C 8524   6.158   2.411   0.404  0.9027 -0.6967 -0.5471
   64MOL0     C 8525   6.034   2.352   0.342  0.1056 -0.1565  0.4478
   64MOL0     C 8526   6.039   2.378   0.184 -0.6824  0.5275 -0.1059
   64MOL0     C 8527   5.936   2.301   0.115 -0.0562  0.4609  0.0578
   64MOL0     C 8528   5.946   2.145   0.097 -0.6405 -0.0678 -0.7834
   64MOL0     O 8529   5.819   2.091   0.052  0.3607  0.1712 -0.2316
   64MOL0     C 8530   5.825   1.959   0.007 -0.1539 -0.1110 -0.4560
   64MOL0     C 8531   5.765   1.928  -0.112  0.2327  0.1091 -0.2373
   64MOL0     C 8532   5.777   1.799  -0.173  0.4636 -0.1454 -0.2933
   64MOL0     C 8533   5.850   1.701  -0.100  0.7132 -0.7146 -0.5995
   64MOL0     C 8534   5.873   1.566  -0.159  0.0473 -0.2380 -0.0549
   64MOL0     O 8535   5.881   1.569  -0.291  0.2733 -0.2824 -0.1043
   64MOL0     C 8536   5.898   1.448  -0.353  0.0379 -0.2077  0.3409
   64MOL0     C 8537   6.014   1.365  -0.333  0.2052 -0.4260 -0.0306
   64MOL0     C 8538   6.034   1.254  -0.410 -0.2924 -0.0619  0.5869
   64MOL0     C 8539   5.930   1.209  -0.503 -0.6063 -0.7631 -0.5076
   64MOL0     O 8540   5.945   1.104  -0.581 -0.7050 -0.1617 -0.0096
   64MOL0     C 8541   5.858   0.993  -0.553  0.0023  0.3252 -0.6157
   64MOL0     C 8542   5.919   0.872  -0.634  1.4350 -0.7518  0.7187
   64MOL0     C 8543   6.050   0.830  -0.584  0.1789  0.2241 -0.2635
   64MOL0     C 8544   6.131   0.736  -0.680 -0.4705  0.7391  0.1827
   64MOL0     C 8545   6.279   0.719  -0.656 -0.8151 -0.1440  0.0430
   64MOL0     C 8546   6.355   0.846  -0.630 -0.0965 -0.1584  0.2924
   64MOL0     C 8547   6.508   0.818  -0.643  0.3988  0.4346 -0.1055
   64MOL0     C 8548   6.588   0.942  -0.630 -0.2620  0.1698  0.9899
   64MOL0    Cl 8549   6.568   1.015  -0.468 -0.2364  0.1095  0.4661
   64MOL0     C 8550   5.810   1.287  -0.508  0.1996  0.3240 -0.5018
   64MOL0     C 8551   5.792   1.402  -0.435  0.3137  0.2550 -0.7142
   64MOL0     O 8552   5.843   1.470  -0.091 -0.7574  0.5644  0.4066
   64MOL0     C 8553   5.897   1.729   0.027  0.2411  0.1043  0.3505
   64MOL0     C 8554   5.891   1.856   0.078  1.2407 -1.0835 -0.1655
   64MOL0     N 8555   6.292   2.417   0.358  0.7533 -0.1452  0.1132
   64MOL0     N 8556   6.361   2.493   0.432 -0.3155 -0.3167 -0.8005
   64MOL0     C 8557   5.454   2.545   1.369  0.3826 -0.3780  1.2452
   64MOL0     C 8558   5.335   2.611   1.398  0.9175  0.0807 -0.5235
   64MOL0     C 8559   5.036   2.975   1.385 -0.6569 -0.8544  0.1809
   64MOL0     C 8560   5.019   2.960   1.520 -0.5118  0.1900 -0.4354
   64MOL0     C 8561   4.929   3.034   1.595 -0.6392  0.5428  0.0070
   64MOL0     C 8562   4.862   3.135   1.542 -0.1628 -0.6204 -0.0334
   64MOL0     O 8563   4.769   3.198   1.627 -0.0225 -0.3527 -0.5710
   64MOL0     C 8564   4.660   3.273   1.571 -0.2688 -0.0765  0.3714
   64MOL0     C 8565   4.521   3.232   1.633 -0.4481  0.2311 -0.2336
   64MOL0     C 8566   4.505   3.266   1.782 -0.2782  0.3968 -0.1212
   64MOL0     C 8567   4.359   3.257   1.822  0.9336 -0.0468 -0.4151
   64MOL0     C 8568   4.339   3.306   1.959 -0.5380  0.4090 -0.2306
   64MOL0     C 8569   4.353   3.321   2.081 -0.9393  1.0819  0.0037
   64MOL0     C 8570   4.883   3.164   1.405 -1.0915  0.4199  0.7275
   64MOL0     C 8571   4.972   3.085   1.326 -0.1802 -0.3214  0.1615
   64MOL0     C 8572   5.012   3.147   1.192 -0.0213  0.7855 -0.1293
   64MOL0     H 8573   5.357   2.868   1.173 -1.8632  0.9089  0.3418
   64MOL0     H 8574   5.556   2.736   1.113 -1.9672 -0.2605 -1.7303
   64MOL0     H 8575   5.667   2.542   1.035 -2.1591 -3.5298  0.9628
   64MOL0     H 8576   5.758   2.664   1.142 -0.2758  0.4615  1.3460
   64MOL0     H 8577   5.822   2.376   1.061  0.8634  1.1888 -2.5755
   64MOL0     H 8578   5.905   2.453   1.192 -1.3875  2.3304  1.1125
   64MOL0     H 8579   5.958   2.651   1.030  0.1053  0.8156 -4.1024
   64MOL0     H 8580   5.879   2.567   0.896  3.0134  2.2925 -1.8990
   64MOL0     H 8581   6.132   2.491   1.045  0.1972  1.9110 -0.3565
   64MOL0     H 8582   6.057   2.384   0.924  1.7845 -0.4912  0.5234
   64MOL0     H 8583   6.065   2.572   0.767  0.7489  0.7107 -0.1836
   64MOL0     H 8584   6.142   2.684   0.884  0.1647 -1.4113  2.1684
   64MOL0     H 8585   6.326   2.503   0.916  0.7725  1.3588  0.0788
   64MOL0     H 8586   6.277   2.437   0.761 -0.5921  0.0442  1.6057
   64MOL0     H 8587   6.474   2.587   0.720  1.1983  0.7912  0.5187
   64MOL0     H 8588   6.392   2.715   0.805 -0.2017 -2.0992  1.7613
   64MOL0     H 8589   6.211   2.724   0.628  1.4745  1.2516  0.2084
   64MOL0     H 8590   6.368   2.724   0.560  0.5188 -0.6109 -0.5090
   64MOL0     H 8591   6.060   2.523   0.563  0.1245  2.2001 -0.9251
   64MOL0     H 8592   6.037   2.243   0.351 -0.5423 -0.2510 -0.3187
   64MOL0     H 8593   5.947   2.403   0.384 -0.3988 -1.0441  0.4983
   64MOL0     H 8594   6.027   2.485   0.168  1.0896  0.9095  0.8787
   64MOL0     H 8595   6.132   2.341   0.141 -1.3879 -0.8476 -0.4951
   64MOL0     H 8596   5.917   2.334   0.013 -3.9814 -1.7501 -0.1254
   64MOL0     H 8597   5.839   2.323   0.160 -0.7612 -0.1085 -1.1542
   64MOL0     H 8598   5.967   2.103   0.195 -4.1431  0.3334  0.2737
   64MOL0     H 8599   6.030   2.127   0.029 -0.1635 -0.2105 -0.1572
   64MOL0     H 8600   5.719   2.011  -0.165  0.3748  0.4157  0.1129
   64MOL0     H 8601   5.726   1.787  -0.268 -0.3570 -0.0828  0.1325
   64MOL0     H 8602   6.086   1.392  -0.256  1.8211 -1.1783 -1.2335
   64MOL0     H 8603   6.123   1.193  -0.402 -0.9252 -0.9554  1.0017
   64MOL0     H 8604   5.859   0.955  -0.450 -0.7448 -0.5485 -0.9172
   64MOL0     H 8605   5.753   1.017  -0.575 -0.2535 -1.4972 -1.6569
   64MOL0     H 8606   5.846   0.791  -0.634  1.3075 -0.6675 -0.7646
   64MOL0     H 8607   5.944   0.912  -0.732 -0.9360 -0.9385 -0.0181
   64MOL0     H 8608   6.100   0.924  -0.561  1.2475 -0.5459  0.6423
   64MOL0     H 8609   6.042   0.771  -0.492  1.1097  0.0335 -0.3023
   64MOL0     H 8610   6.117   0.787  -0.776 -0.7235  0.4305  0.0550
   64MOL0     H 8611   6.074   0.643  -0.686 -1.9950  1.7020 -1.5787
   64MOL0     H 8612   6.321   0.674  -0.747 -0.9451  0.2449 -0.2080
   64MOL0     H 8613   6.300   0.646  -0.576 -0.3006  0.0198  0.0654
   64MOL0     H 8614   6.321   0.925  -0.697  1.9603  1.1490  0.7037
   64MOL0     H 8615   6.336   0.887  -0.530  1.1098 -0.0219  0.4742
   64MOL0     H 8616   6.534   0.766  -0.736  0.3300  1.1525 -0.5323
   64MOL0     H 8617   6.540   0.762  -0.555  1.5688  1.4048  0.1115
   64MOL0     H 8618   6.692   0.912  -0.642 -0.2106  0.5968  0.3545
   64MOL0     H 8619   6.563   1.016  -0.706  0.8478 -1.9533 -1.5893
   64MOL0     H 8620   5.733   1.265  -0.581  0.8689  1.4158 -1.5654
   64MOL0     H 8621   5.692   1.444  -0.447 -0.5115 -1.8679 -1.8180
   64MOL0     H 8622   5.952   1.651   0.079  1.3674 -0.8621 -2.1156
   64MOL0     H 8623   5.943   1.879   0.170  1.1479  0.0382 -0.3819
   64MOL0     H 8624   5.479   2.453   1.419 -1.6649 -0.2447  2.6108
   64MOL0     H 8625   5.258   2.576   1.466 -1.7206  2.9593 -1.7243
   64MOL0     H 8626   5.066   2.881   1.577 -3.1234 -1.0819  0.0822
   64MOL0     H 8627   4.906   3.016   1.700  0.8063  0.7574  0.3772
   64MOL0     H 8628   4.657   3.259   1.463 -0.3332  2.3409 -0.0104
   64MOL0     H 8629   4.662   3.382   1.587 -5.2251  0.1979  0.8242
   64MOL0     H 8630   4.516   3.124   1.616 -2.4220  0.0531  1.1382
   64MOL0     H 8631   4.436   3.268   1.575 -0.2353 -0.9693 -1.3321
   64MOL0     H 8632   4.550   3.364   1.801  1.1388  0.5094 -3.4456
   64MOL0     H 8633   4.568   3.198   1.840 -1.4307 -0.8709 -0.3339
   64MOL0     H 8634   4.295   3.319   1.758  1.1767 -0.2525 -0.8568
   64MOL0     H 8635   4.326   3.153   1.816  1.1185 -0.3819  2.8270
   64MOL0     H 8636   4.378   3.338   2.184 -1.1249 -1.5582  0.5665
   64MOL0     H 8637   4.846   3.256   1.360  0.7561  1.0314  0.3375
   64MOL0     H 8638   4.941   3.228   1.174 -2.0711 -1.1317 -1.1515
   64MOL0     H 8639   5.106   3.201   1.206  0.2474  0.0065  1.2489
   64MOL0     H 8640   5.016   3.080   1.105  0.8408  0.4680  0.1452
   65MOL0     O 8641  11.220   3.395   4.223 -0.4142 -1.0007  0.6903
   65MOL0     C 8642  11.165   3.416   4.323  0.2015  0.5013 -0.1779
   65MOL0     O 8643  11.222   3.393   4.446 -0.0953 -0.2135  0.3292
   65MOL0     C 8644  11.354   3.380   4.475 -0.6200 -0.0252 -0.2954
   65MOL0     C 8645  11.459   3.456   4.417  0.4393 -0.0557  0.9097
   65MOL0     C 8646  11.596   3.431   4.454  0.6997 -0.7013  0.3112
   65MOL0     C 8647  11.630   3.331   4.546 -0.2476  0.2361 -0.0353
   65MOL0     O 8648  11.755   3.295   4.579 -0.0003  0.3896 -0.1571
   65MOL0     C 8649  11.852   3.272   4.475 -1.0064 -0.2578  0.3764
   65MOL0     C 8650  11.933   3.143   4.492 -0.3056 -0.5127 -0.2894
   65MOL0     C 8651  12.025   3.141   4.614  0.8897  1.1282  0.5788
   65MOL0     C 8652  12.084   2.999   4.639  0.0888 -0.0892  0.0466
   65MOL0     C 8653  12.205   2.991   4.729  0.3769  0.3840  0.8188
   65MOL0     C 8654  12.330   3.063   4.671 -0.5018 -0.1886 -0.2144
   65MOL0     C 8655  12.449   3.051   4.772  0.2726 -0.0199  0.1072
   65MOL0     C 8656  12.420   3.101   4.917 -0.3391 -0.4379  0.4598
   65MOL0     N 8657  12.556   3.123   4.970 -0.4712  1.3397 -0.3556
   65MOL0     C 8658  12.614   3.241   5.007 -0.1226 -0.1032  0.6230
   65MOL0     C 8659  12.741   3.207   5.051 -0.3919  0.1888  0.4770
   65MOL0     C 8660  12.849   3.301   5.096 -0.0343 -0.1361 -0.2307
   65MOL0     C 8661  12.783   3.388   5.203  0.1051 -0.2453  0.2144
   65MOL0     C 8662  12.865   3.512   5.246 -0.0041 -1.0657 -0.0629
   65MOL0     C 8663  12.992   3.484   5.326 -0.0184  0.5152 -0.3984
   65MOL0     O 8664  13.033   3.605   5.395  0.1360 -0.3400  0.4786
   65MOL0     C 8665  13.158   3.626   5.450  0.0377  0.0881 -0.1440
   65MOL0     C 8666  13.186   3.748   5.511  0.2757  0.2608  0.1021
   65MOL0     C 8667  13.302   3.784   5.573 -0.2403 -0.1998 -0.2182
   65MOL0     C 8668  13.406   3.681   5.579  0.4939  0.7185 -0.0604
   65MOL0     C 8669  13.539   3.713   5.630 -0.9688 -0.7097 -0.5487
   65MOL0     O 8670  13.633   3.618   5.633  0.8760  0.6529 -0.2277
   65MOL0     C 8671  13.759   3.661   5.651 -0.1237  0.5084  0.1231
   65MOL0     C 8672  13.849   3.704   5.555 -0.4161  0.0041  0.2275
   65MOL0     C 8673  13.977   3.747   5.574 -0.2542 -0.2930  0.4038
   65MOL0     C 8674  14.025   3.756   5.705  0.4253  0.0036 -0.2886
   65MOL0     O 8675  14.154   3.788   5.740  0.5738  0.2033 -0.5562
   65MOL0     C 8676  14.250   3.799   5.643  0.5753  0.6953 -0.0835
   65MOL0     C 8677  14.375   3.827   5.707 -1.5231  0.1377  0.2057
   65MOL0     C 8678  14.496   3.845   5.607  0.7416 -0.6494 -0.1397
   65MOL0     C 8679  14.611   3.924   5.654 -0.4206 -0.1759 -0.6926
   65MOL0     C 8680  14.735   3.923   5.563  0.0391  0.0542  0.5162
   65MOL0     C 8681  14.827   4.042   5.595  0.0381  0.2852  0.0134
   65MOL0     C 8682  14.946   3.995   5.678 -0.5242  0.1904  0.1204
   65MOL0     C 8683  15.074   3.959   5.594  0.7486  0.2965  1.0285
   65MOL0    Cl 8684  15.180   3.882   5.709 -0.0987 -0.1831  0.1423
   65MOL0     C 8685  13.939   3.702   5.802 -0.5498 -0.1057 -0.3480
   65MOL0     C 8686  13.811   3.653   5.782  0.0970 -0.2128 -0.0687
   65MOL0     O 8687  13.562   3.828   5.680  0.3002 -1.0136 -0.0085
   65MOL0     C 8688  13.381   3.555   5.517  0.0832  0.1934 -0.0281
   65MOL0     C 8689  13.257   3.528   5.460  0.1551  0.4072 -0.0099
   65MOL0     N 8690  12.753   3.069   5.048  0.3674  0.1296  0.9841
   65MOL0     N 8691  12.641   3.025   5.004 -0.8078 -0.4130  0.0893
   65MOL0     C 8692  11.527   3.253   4.600  0.4233  0.3670 -0.2752
   65MOL0     C 8693  11.390   3.283   4.573 -0.5684  0.0421  0.4316
   65MOL0     C 8694  11.012   3.412   4.330  0.1884  0.3374  0.1687
   65MOL0     C 8695  10.952   3.425   4.450 -0.5463 -0.5798 -0.5378
   65MOL0     C 8696  10.812   3.412   4.469 -1.1441 -0.1710  0.1351
   65MOL0     C 8697  10.721   3.381   4.369 -0.7678  0.1336  0.5799
   65MOL0     O 8698  10.594   3.390   4.401 -0.0102  1.2772 -0.2377
   65MOL0     C 8699  10.492   3.381   4.299  0.2512 -0.0680 -0.6899
   65MOL0     C 8700  10.355   3.378   4.368 -0.1221  0.4745  0.3667
   65MOL0     C 8701  10.318   3.509   4.439 -0.1366 -1.0587  0.4462
   65MOL0     C 8702  10.177   3.506   4.503 -0.3664 -0.2767 -0.1347
   65MOL0     C 8703  10.070   3.480   4.414 -0.2525 -0.1180  0.9568
   65MOL0     C 8704   9.973   3.485   4.345  0.3815 -0.1224 -0.2417
   65MOL0     C 8705  10.778   3.365   4.239  0.5714 -0.1268 -0.1988
   65MOL0     C 8706  10.926   3.373   4.224  0.4982 -0.5361  0.2091
   65MOL0     C 8707  10.965   3.349   4.076  0.1983 -0.3026 -0.5608
   65MOL0     H 8708  11.448   3.529   4.337  3.1727 -1.4136 -0.8594
   65MOL0     H 8709  11.663   3.503   4.410  0.5302 -1.0387 -0.5268
   65MOL0     H 8710  11.799   3.253   4.381 -2.7883 -2.8967  1.8019
   65MOL0     H 8711  11.906   3.367   4.472 -2.8932  0.8526  0.1873
   65MOL0     H 8712  11.990   3.124   4.400  1.3858 -0.3781  0.6774
   65MOL0     H 8713  11.870   3.055   4.504  0.0240 -0.4183  2.7743
   65MOL0     H 8714  11.967   3.156   4.706  0.2309 -0.1816  0.3971
   65MOL0     H 8715  12.104   3.217   4.619  1.7802  0.3604 -1.1042
   65MOL0     H 8716  12.002   2.940   4.682 -0.5803 -0.6517 -1.9094
   65MOL0     H 8717  12.101   2.957   4.539  0.2702 -0.0433  0.0586
   65MOL0     H 8718  12.184   3.044   4.822  2.0278 -4.1035  4.1231
   65MOL0     H 8719  12.237   2.890   4.755 -1.5028 -0.1972  1.0142
   65MOL0     H 8720  12.352   3.024   4.571  0.5010  1.4729 -0.6804
   65MOL0     H 8721  12.317   3.171   4.661  2.9723  0.5920  1.9019
   65MOL0     H 8722  12.534   3.103   4.727 -0.3239 -0.5812 -1.7296
   65MOL0     H 8723  12.474   2.945   4.771 -1.6214 -0.5041  0.0069
   65MOL0     H 8724  12.361   3.193   4.919  1.0929  0.5061  0.5619
   65MOL0     H 8725  12.360   3.024   4.964 -1.5355  0.9230  1.2444
   65MOL0     H 8726  12.559   3.333   4.998 -2.0071 -1.3527 -3.0139
   65MOL0     H 8727  12.935   3.243   5.131  0.9175 -0.9297 -3.4892
   65MOL0     H 8728  12.874   3.357   5.005 -2.3380  0.8752 -0.3142
   65MOL0     H 8729  12.697   3.440   5.158  1.1195  1.1799 -0.1596
   65MOL0     H 8730  12.750   3.333   5.291  1.3313 -2.1192 -0.4305
   65MOL0     H 8731  12.791   3.563   5.308  0.9728 -0.2218  0.4189
   65MOL0     H 8732  12.889   3.574   5.159 -2.5263 -1.5553 -1.2209
   65MOL0     H 8733  13.067   3.441   5.260  0.3861 -2.6664  1.8910
   65MOL0     H 8734  12.973   3.409   5.403  0.9834  1.1146  0.4791
   65MOL0     H 8735  13.109   3.824   5.517  0.7654  0.9593 -1.6686
   65MOL0     H 8736  13.306   3.885   5.611 -3.3983  0.9917 -2.5691
   65MOL0     H 8737  13.800   3.693   5.459 -2.3991 -2.5307  1.4147
   65MOL0     H 8738  14.028   3.772   5.482 -1.2003  0.1171 -0.0164
   65MOL0     H 8739  14.261   3.705   5.588  0.5553  1.3416 -1.2186
   65MOL0     H 8740  14.225   3.878   5.571 -0.6841  0.9066  0.5526
   65MOL0     H 8741  14.363   3.926   5.753 -2.1214 -0.3661  1.1578
   65MOL0     H 8742  14.397   3.750   5.781 -0.9078  1.1083  1.0669
   65MOL0     H 8743  14.527   3.743   5.582  2.2663 -0.2678  0.1456
   65MOL0     H 8744  14.459   3.898   5.519  0.3420  0.2949  0.5835
   65MOL0     H 8745  14.636   3.895   5.756  2.0899  2.2463 -0.5277
   65MOL0     H 8746  14.569   4.025   5.661 -0.8258 -0.4166  0.5933
   65MOL0     H 8747  14.690   3.952   5.468  0.7786 -0.2488  0.0619
   65MOL0     H 8748  14.795   3.833   5.547  1.6805  1.4226 -1.6260
   65MOL0     H 8749  14.874   4.079   5.504 -2.1155 -2.1746 -2.2757
   65MOL0     H 8750  14.765   4.106   5.658 -2.2124 -2.8207  1.2489
   65MOL0     H 8751  14.916   3.906   5.733  1.3900 -1.1067 -0.8223
   65MOL0     H 8752  14.984   4.075   5.743  0.7146 -0.6033  0.3987
   65MOL0     H 8753  15.051   3.888   5.514  0.4104  1.2316  0.2851
   65MOL0     H 8754  15.117   4.047   5.545  0.0847 -0.0179 -0.1520
   65MOL0     H 8755  13.973   3.695   5.905 -3.3584 -1.3904  0.6022
   65MOL0     H 8756  13.754   3.612   5.864  1.1531 -2.4754 -0.3935
   65MOL0     H 8757  13.463   3.484   5.511  0.2702  0.3833  0.2490
   65MOL0     H 8758  13.235   3.435   5.408  3.1998 -1.0406  1.0446
   65MOL0     H 8759  11.546   3.174   4.671  0.7160  2.9029  2.6930
   65MOL0     H 8760  11.304   3.231   4.614 -0.3226 -1.5192 -0.9469
   65MOL0     H 8761  11.012   3.445   4.538 -0.5190 -2.5458 -0.0553
   65MOL0     H 8762  10.763   3.419   4.565 -4.4871 -2.5093 -1.2010
   65MOL0     H 8763  10.499   3.292   4.236 -1.7607 -0.7583 -0.0106
   65MOL0     H 8764  10.481   3.467   4.232 -2.5637  1.0505  1.0609
   65MOL0     H 8765  10.338   3.285   4.424  1.8952 -0.5391 -0.6314
   65MOL0     H 8766  10.286   3.370   4.284  0.3878  0.0801 -0.0174
   65MOL0     H 8767  10.324   3.591   4.367  0.1122 -1.3406  0.1416
   65MOL0     H 8768  10.387   3.530   4.522 -2.8831  1.6087  2.2470
   65MOL0     H 8769  10.171   3.442   4.592 -0.5992  0.8299  0.6670
   65MOL0     H 8770  10.161   3.603   4.552  1.9825 -0.3449  0.9007
   65MOL0     H 8771   9.882   3.495   4.289 -0.6355 -0.5168  1.2488
   65MOL0     H 8772  10.713   3.355   4.153  0.6362 -2.7156 -0.0460
   65MOL0     H 8773  11.035   3.267   4.055  1.5217  0.9665 -1.2728
   65MOL0     H 8774  10.874   3.332   4.018 -1.3859 -3.7709  2.5301
   65MOL0     H 8775  11.013   3.442   4.044 -0.7904  1.0169  1.5637
   66MOL0     O 8776   2.743   1.563   1.111 -0.2825  0.8159  0.0156
   66MOL0     C 8777   2.691   1.578   0.999 -0.0054  0.4507 -0.1754
   66MOL0     O 8778   2.755   1.571   0.882 -0.0283  0.1414  0.5109
   66MOL0     C 8779   2.887   1.531   0.879  0.3298  0.4583 -1.1897
   66MOL0     C 8780   2.918   1.399   0.911 -0.0057 -0.4079 -0.5982
   66MOL0     C 8781   3.053   1.357   0.900  0.5523  0.2993 -0.9927
   66MOL0     C 8782   3.159   1.450   0.881  0.8083  0.0552  0.0055
   66MOL0     O 8783   3.286   1.393   0.870  0.0584 -0.0917 -0.3743
   66MOL0     C 8784   3.405   1.468   0.890  0.1222 -0.6026  0.9568
   66MOL0     C 8785   3.531   1.387   0.866 -0.5839 -0.1088 -0.9607
   66MOL0     C 8786   3.537   1.253   0.939  0.2910  0.0002  0.1273
   66MOL0     C 8787   3.635   1.158   0.867  0.0355 -0.7917 -0.3293
   66MOL0     C 8788   3.783   1.205   0.882  0.8722 -0.0271 -0.1471
   66MOL0     C 8789   3.882   1.102   0.825  1.7535  0.2359  0.0779
   66MOL0     C 8790   3.932   1.009   0.939 -0.6349  0.4694  0.3039
   66MOL0     C 8791   4.042   1.069   1.024 -0.0047  0.2956  0.0795
   66MOL0     N 8792   4.159   1.104   0.938 -0.6850 -0.0737 -0.1130
   66MOL0     C 8793   4.217   1.008   0.864  0.8247  0.8032 -0.3863
   66MOL0     C 8794   4.346   1.037   0.860 -0.4823  0.0970  0.2125
   66MOL0     C 8795   4.455   0.968   0.791 -0.0912 -0.5796  0.2963
   66MOL0     C 8796   4.555   0.907   0.887  0.1275  0.2221  0.6856
   66MOL0     C 8797   4.695   0.873   0.820  0.2554 -0.2116 -0.9146
   66MOL0     C 8798   4.776   0.808   0.933 -0.1986  0.6127  0.2587
   66MOL0     O 8799   4.885   0.748   0.864  0.4756  0.0647 -0.6341
   66MOL0     C 8800   4.985   0.686   0.936 -0.1988  0.0960 -1.0518
   66MOL0     C 8801   5.102   0.633   0.877  0.0160  0.2384 -1.2107
   66MOL0     C 8802   5.201   0.564   0.950  1.6755 -0.5050 -0.2125
   66MOL0     C 8803   5.186   0.559   1.086  0.8135  0.0771 -0.2029
   66MOL0     C 8804   5.290   0.501   1.167 -0.2714 -0.3250  0.4627
   66MOL0     O 8805   5.397   0.443   1.101  0.1312 -0.5876 -0.0908
   66MOL0     C 8806   5.494   0.391   1.177  0.9167  0.5678  0.2403
   66MOL0     C 8807   5.615   0.440   1.149  0.1171 -0.4687  0.9402
   66MOL0     C 8808   5.732   0.386   1.208  0.6507 -0.2635  0.3953
   66MOL0     C 8809   5.720   0.271   1.285 -0.1576 -0.4885  0.1230
   66MOL0     O 8810   5.834   0.209   1.342 -0.4487  0.0163  1.2235
   66MOL0     C 8811   5.835   0.069   1.358 -0.1000  0.0280 -0.0956
   66MOL0     C 8812   5.962   0.022   1.434  0.1405 -0.1922 -0.5323
   66MOL0     C 8813   6.087   0.063   1.357  0.3068  0.1854 -0.2212
   66MOL0     C 8814   6.208   0.020   1.446 -0.4046 -0.4527 -0.4611
   66MOL0     C 8815   6.340   0.069   1.380  0.6427 -0.4564  0.2606
   66MOL0     C 8816   6.352   0.213   1.350 -0.4392  0.3458  0.0388
   66MOL0     C 8817   6.345   0.304   1.469 -0.2389  0.0351 -0.7842
   66MOL0     C 8818   6.340   0.456   1.436 -0.0068  0.1690 -0.3013
   66MOL0    Cl 8819   6.189   0.483   1.366 -0.0035 -0.1003  0.0920
   66MOL0     C 8820   5.594   0.221   1.314  0.5826 -0.6105  0.1895
   66MOL0     C 8821   5.477   0.278   1.256 -0.3546  0.2589  0.1392
   66MOL0     O 8822   5.271   0.500   1.289 -0.4042 -0.2894  0.1883
   66MOL0     C 8823   5.068   0.605   1.151  0.1229 -0.3698  0.1987
   66MOL0     C 8824   4.968   0.664   1.078 -0.7902  0.1540  0.4914
   66MOL0     N 8825   4.364   1.149   0.929  0.4049  0.0290 -0.9014
   66MOL0     N 8826   4.250   1.194   0.973  0.1005 -0.1921 -0.0388
   66MOL0     C 8827   3.122   1.587   0.856 -0.7161  0.8999 -1.1362
   66MOL0     C 8828   2.985   1.616   0.844  0.1430 -0.1542 -0.2496
   66MOL0     C 8829   2.544   1.596   0.976 -0.6239 -0.2716 -0.6867
   66MOL0     C 8830   2.484   1.567   0.858  0.6779 -0.1309  0.0433
   66MOL0     C 8831   2.345   1.558   0.852 -0.1022 -0.4085  0.6312
   66MOL0     C 8832   2.263   1.594   0.955  0.8050 -0.5279  0.1787
   66MOL0     O 8833   2.125   1.582   0.953 -0.2670  0.1517  0.0590
   66MOL0     C 8834   2.072   1.484   0.862  0.4820 -0.9422 -0.5037
   66MOL0     C 8835   1.928   1.489   0.902 -0.7143 -0.5990  0.6912
   66MOL0     C 8836   1.856   1.616   0.854 -0.6535  0.2069 -0.1697
   66MOL0     C 8837   1.713   1.642   0.910  0.3081  0.3664 -0.1076
   66MOL0     C 8838   1.717   1.666   1.058 -0.0474  0.0106  0.5704
   66MOL0     C 8839   1.730   1.683   1.179 -1.3219  0.9508  0.1140
   66MOL0     C 8840   2.316   1.638   1.074 -0.2343  0.5236  0.1688
   66MOL0     C 8841   2.463   1.639   1.086  0.1934  0.2329 -0.5658
   66MOL0     C 8842   2.510   1.676   1.228  0.8540 -0.3395  0.0837
   66MOL0     H 8843   2.837   1.333   0.939  0.5594 -0.0266  2.2649
   66MOL0     H 8844   3.075   1.256   0.934 -0.2346  0.0354 -1.2333
   66MOL0     H 8845   3.398   1.559   0.830  1.1548 -1.0841  0.0655
   66MOL0     H 8846   3.413   1.505   0.993  2.1721  1.7431  0.0794
   66MOL0     H 8847   3.616   1.453   0.887  0.3897 -1.9687  1.2843
   66MOL0     H 8848   3.534   1.366   0.758 -0.7753  0.3009 -1.0499
   66MOL0     H 8849   3.437   1.207   0.939 -0.1930  0.9679  1.6276
   66MOL0     H 8850   3.566   1.263   1.044  1.6820  0.3389 -0.2667
   66MOL0     H 8851   3.632   1.061   0.919  1.5175  0.0353  1.3872
   66MOL0     H 8852   3.609   1.148   0.761 -1.9251 -0.8943  0.1170
   66MOL0     H 8853   3.790   1.297   0.823 -2.5898 -0.7586 -1.9584
   66MOL0     H 8854   3.801   1.230   0.988 -1.3083  0.9143  0.0697
   66MOL0     H 8855   3.828   1.048   0.747 -1.0735  2.7402  0.1112
   66MOL0     H 8856   3.962   1.158   0.775  0.0636  1.6583 -1.1308
   66MOL0     H 8857   3.975   0.921   0.890 -3.3453  0.7960 -2.9861
   66MOL0     H 8858   3.853   0.964   0.999  0.3111 -0.8048  0.6610
   66MOL0     H 8859   3.997   1.163   1.057  0.7905  0.4954  0.6438
   66MOL0     H 8860   4.059   1.008   1.113  0.6492 -0.6149 -0.6560
   66MOL0     H 8861   4.172   0.914   0.834  1.5107 -0.2138  1.5409
   66MOL0     H 8862   4.421   0.905   0.708 -1.4534 -0.5539  0.8069
   66MOL0     H 8863   4.514   1.043   0.736 -0.1073 -0.5304  0.3459
   66MOL0     H 8864   4.574   0.975   0.971 -1.6781  1.4159  0.1865
   66MOL0     H 8865   4.513   0.809   0.910  1.6439 -0.8261 -0.8210
   66MOL0     H 8866   4.741   0.965   0.782 -2.2171  1.9804  0.9763
   66MOL0     H 8867   4.688   0.803   0.737  1.7973 -2.0592  0.3978
   66MOL0     H 8868   4.705   0.729   0.961 -0.8410  1.0489 -0.1026
   66MOL0     H 8869   4.797   0.866   1.024  1.4246  0.7447 -0.1727
   66MOL0     H 8870   5.122   0.642   0.770  4.0593  0.2320 -0.6246
   66MOL0     H 8871   5.291   0.531   0.899  2.2827  1.3007 -0.3953
   66MOL0     H 8872   5.628   0.517   1.074  1.7164 -2.0458 -0.5024
   66MOL0     H 8873   5.831   0.414   1.171  0.8333 -3.2487 -1.7102
   66MOL0     H 8874   5.747   0.036   1.414  1.6649 -0.6155  2.5116
   66MOL0     H 8875   5.840   0.025   1.258  1.7964  1.9458 -0.9254
   66MOL0     H 8876   5.957   0.072   1.531 -1.4208 -1.4880  0.1102
   66MOL0     H 8877   5.971  -0.085   1.455  0.5234  0.5384  4.0845
   66MOL0     H 8878   6.106   0.021   1.258 -1.6665 -0.8397 -0.2238
   66MOL0     H 8879   6.100   0.171   1.349  2.9268 -0.2361 -3.9157
   66MOL0     H 8880   6.206  -0.089   1.457 -1.1031 -0.9842 -4.3474
   66MOL0     H 8881   6.195   0.067   1.544 -1.5121 -2.2840  0.3307
   66MOL0     H 8882   6.354   0.009   1.290 -0.5503  1.5207 -1.3216
   66MOL0     H 8883   6.427   0.040   1.441  1.4219  1.9826  0.4066
   66MOL0     H 8884   6.446   0.224   1.295 -0.5606  0.8138 -0.0781
   66MOL0     H 8885   6.278   0.243   1.276  2.4863  0.3532 -3.1847
   66MOL0     H 8886   6.433   0.296   1.532  1.1108  1.6379 -2.3568
   66MOL0     H 8887   6.263   0.282   1.538  0.8594 -0.1346  0.4959
   66MOL0     H 8888   6.350   0.514   1.528 -2.5085  2.7031 -1.4388
   66MOL0     H 8889   6.414   0.483   1.360 -0.3270  2.3309  0.0792
   66MOL0     H 8890   5.570   0.128   1.364 -2.0292  0.8542  1.9022
   66MOL0     H 8891   5.376   0.243   1.276 -0.9236  0.7444 -1.7375
   66MOL0     H 8892   5.051   0.598   1.258  2.2531  0.4110  0.6315
   66MOL0     H 8893   4.874   0.691   1.125 -0.8683  1.0554 -0.1548
   66MOL0     H 8894   3.193   1.666   0.835 -1.1003  1.5230 -0.1681
   66MOL0     H 8895   2.955   1.716   0.815 -5.0534 -1.3735 -0.0623
   66MOL0     H 8896   2.525   1.513   0.773 -0.0074 -2.3475  1.0476
   66MOL0     H 8897   2.311   1.524   0.755  0.4785 -0.4485  0.4360
   66MOL0     H 8898   2.123   1.387   0.865 -0.2324 -1.3122 -0.1607
   66MOL0     H 8899   2.088   1.524   0.761  0.4717  2.3600  0.6784
   66MOL0     H 8900   1.917   1.476   1.010 -2.1567 -0.8924  0.5262
   66MOL0     H 8901   1.870   1.408   0.855 -2.8337  1.5517 -0.6165
   66MOL0     H 8902   1.844   1.604   0.746  2.0964 -0.7097 -0.4472
   66MOL0     H 8903   1.916   1.707   0.865 -1.1434  0.5702 -0.4371
   66MOL0     H 8904   1.651   1.718   0.861 -0.7246 -0.3618  0.0618
   66MOL0     H 8905   1.653   1.553   0.888  1.7134 -0.4394 -0.8278
   66MOL0     H 8906   1.733   1.707   1.283 -1.8955  3.1000 -0.3154
   66MOL0     H 8907   2.251   1.655   1.159 -1.6651 -2.6982 -0.1176
   66MOL0     H 8908   2.585   1.755   1.227 -0.7884  1.5225  3.6112
   66MOL0     H 8909   2.435   1.711   1.300  0.8811  0.2418 -0.1674
   66MOL0     H 8910   2.563   1.592   1.275 -0.6933 -1.1415  0.4608
   67MOL0     O 8911   3.998   8.797   3.427 -0.4551 -0.6378 -0.9176
   67MOL0     C 8912   4.027   8.851   3.320  0.3176  0.1387  0.4829
   67MOL0     O 8913   4.154   8.863   3.266 -0.4376  0.1422  0.0398
   67MOL0     C 8914   4.265   8.876   3.358  0.6077 -0.1824 -0.3364
   67MOL0     C 8915   4.255   8.943   3.481 -0.0148  0.4065 -1.1371
   67MOL0     C 8916   4.370   8.951   3.565 -1.2878 -0.7179 -0.6915
   67MOL0     C 8917   4.495   8.898   3.529 -0.3377 -0.0467 -0.2244
   67MOL0     O 8918   4.600   8.936   3.607 -0.4948  0.2168  0.0008
   67MOL0     C 8919   4.731   8.893   3.570 -0.5450  0.7379 -0.5880
   67MOL0     C 8920   4.830   8.943   3.671  0.4197  0.6289 -0.4047
   67MOL0     C 8921   4.964   8.871   3.660 -0.8807  0.1395 -0.1131
   67MOL0     C 8922   4.980   8.749   3.754 -0.3900  0.3588 -0.4971
   67MOL0     C 8923   5.119   8.712   3.801 -0.9785 -0.8532  0.2522
   67MOL0     C 8924   5.218   8.669   3.692 -0.1700  1.1322  0.0893
   67MOL0     C 8925   5.366   8.669   3.745 -0.4708  0.1438  0.2807
   67MOL0     C 8926   5.412   8.546   3.829  0.8266 -0.4918 -0.0772
   67MOL0     N 8927   5.551   8.550   3.868  0.2570 -0.0927  0.5409
   67MOL0     C 8928   5.614   8.584   3.990 -0.1936  0.1158  0.4853
   67MOL0     C 8929   5.752   8.577   3.977  0.0746  0.0787  1.0676
   67MOL0     C 8930   5.867   8.610   4.073 -1.0695  0.0214  0.2851
   67MOL0     C 8931   5.980   8.501   4.078  0.5484  0.1338  0.0751
   67MOL0     C 8932   5.924   8.354   4.111  0.2751  0.4765 -0.8429
   67MOL0     C 8933   6.041   8.269   4.149 -0.3452  0.7669  0.2712
   67MOL0     O 8934   6.148   8.249   4.049 -0.1379 -0.4135  0.3937
   67MOL0     C 8935   6.276   8.204   4.077  0.1870 -0.2346  0.3720
   67MOL0     C 8936   6.373   8.235   3.983  0.5405  0.1859 -0.3431
   67MOL0     C 8937   6.505   8.208   4.007 -0.2392  0.7866 -0.0031
   67MOL0     C 8938   6.541   8.119   4.115 -0.6661 -0.0505  0.4722
   67MOL0     C 8939   6.684   8.072   4.133 -0.6752 -0.2303  0.5003
   67MOL0     O 8940   6.689   7.952   4.194 -0.5142 -0.7105  0.4690
   67MOL0     C 8941   6.800   7.884   4.231 -0.6139  0.3867 -0.0143
   67MOL0     C 8942   6.812   7.824   4.355 -0.3622 -0.1242  0.2372
   67MOL0     C 8943   6.922   7.753   4.392 -0.2082 -0.1320 -0.0052
   67MOL0     C 8944   7.038   7.731   4.309 -0.8793  0.8511 -0.4822
   67MOL0     O 8945   7.146   7.657   4.364  1.1507 -0.1737  0.4221
   67MOL0     C 8946   7.203   7.561   4.271  0.3085 -0.4502  0.3100
   67MOL0     C 8947   7.332   7.502   4.313 -0.3023 -0.0253 -0.7033
   67MOL0     C 8948   7.315   7.399   4.431 -0.4575 -0.7093 -0.4780
   67MOL0     C 8949   7.267   7.259   4.386 -0.5566  0.5415 -0.0974
   67MOL0     C 8950   7.267   7.177   4.532 -0.3833 -0.2562  0.3335
   67MOL0     C 8951   7.194   7.043   4.500  0.2393 -0.0313  0.3393
   67MOL0     C 8952   7.183   6.967   4.633  0.0929 -0.4208 -0.2610
   67MOL0     C 8953   7.166   6.810   4.609 -0.7648 -0.0893  0.1237
   67MOL0    Cl 8954   7.018   6.801   4.514 -0.0148 -0.1783  0.0015
   67MOL0     C 8955   7.029   7.786   4.184 -0.2643 -0.1192 -0.1489
   67MOL0     C 8956   6.919   7.866   4.152  0.1042 -0.4003 -0.6366
   67MOL0     O 8957   6.777   8.125   4.076  0.1413 -0.4263  0.0133
   67MOL0     C 8958   6.437   8.076   4.202 -0.3080  1.1144  0.1123
   67MOL0     C 8959   6.310   8.126   4.184  0.2551  0.2902 -0.6281
   67MOL0     N 8960   5.764   8.515   3.849 -0.2293  0.1212 -0.2324
   67MOL0     N 8961   5.652   8.506   3.790 -0.2114  0.0920  0.0069
   67MOL0     C 8962   4.502   8.829   3.404 -0.3676 -0.5876 -0.5109
   67MOL0     C 8963   4.385   8.814   3.322 -0.6954 -0.2768 -0.5090
   67MOL0     C 8964   3.914   8.896   3.238  0.1459 -0.5751 -0.2860
   67MOL0     C 8965   3.783   8.866   3.292  0.5632  0.1184  0.1758
   67MOL0     C 8966   3.671   8.881   3.210 -0.1986 -0.4485 -0.2736
   67MOL0     C 8967   3.679   8.953   3.094  0.7970  0.1016  0.2609
   67MOL0     O 8968   3.561   8.975   3.031  0.1824 -0.3109 -0.0385
   67MOL0     C 8969   3.561   9.013   2.891 -0.4402 -0.5907 -0.7907
   67MOL0     C 8970   3.427   9.041   2.829  0.2098 -0.4056 -0.5317
   67MOL0     C 8971   3.356   8.909   2.805 -1.0371 -0.0964  0.0546
   67MOL0     C 8972   3.403   8.837   2.675  0.4231  0.2470 -1.1819
   67MOL0     C 8973   3.311   8.724   2.666  0.2325 -0.1388 -0.4923
   67MOL0     C 8974   3.249   8.622   2.644  0.4520 -0.7844  0.4813
   67MOL0     C 8975   3.802   9.000   3.053  0.0030  0.3858 -0.1230
   67MOL0     C 8976   3.922   8.966   3.117 -0.1259 -0.6267 -0.4653
   67MOL0     C 8977   4.052   9.002   3.045  0.3997  0.0220  0.1194
   67MOL0     H 8978   4.161   8.986   3.512 -0.1392 -1.4854  1.4356
   67MOL0     H 8979   4.363   9.013   3.654  2.5694  1.7651 -1.8877
   67MOL0     H 8980   4.737   8.784   3.576 -1.1761  0.7493  0.8221
   67MOL0     H 8981   4.756   8.917   3.467 -0.8679  0.4626 -0.7349
   67MOL0     H 8982   4.786   8.931   3.770  0.9151  2.5725  0.0929
   67MOL0     H 8983   4.830   9.049   3.642 -0.9863  1.5688  2.6321
   67MOL0     H 8984   5.042   8.944   3.686 -2.1699  0.5285  3.1195
   67MOL0     H 8985   4.987   8.838   3.558 -0.9057  0.3805 -0.1967
   67MOL0     H 8986   4.929   8.761   3.850  1.9866  1.6088  0.7080
   67MOL0     H 8987   4.933   8.661   3.709  0.3486 -0.5305  0.4129
   67MOL0     H 8988   5.159   8.806   3.841  0.3828 -0.4103 -2.0165
   67MOL0     H 8989   5.129   8.639   3.882 -0.8938 -0.1643  0.8868
   67MOL0     H 8990   5.190   8.567   3.667  0.7991  0.6238  0.9845
   67MOL0     H 8991   5.207   8.732   3.604  0.6815 -0.6689 -1.3633
   67MOL0     H 8992   5.379   8.765   3.797  1.3364 -0.7044  1.4948
   67MOL0     H 8993   5.441   8.670   3.665  0.8834  2.2199  1.4589
   67MOL0     H 8994   5.349   8.528   3.917  0.4552  1.9503  0.2528
   67MOL0     H 8995   5.396   8.459   3.765 -1.9933 -1.9793  2.4036
   67MOL0     H 8996   5.562   8.618   4.079 -0.1421  1.5376  0.0134
   67MOL0     H 8997   5.922   8.700   4.044 -2.4501  0.6128 -0.6040
   67MOL0     H 8998   5.814   8.626   4.168  0.6391  1.4360  1.0618
   67MOL0     H 8999   6.028   8.504   3.980 -2.6012  0.6708 -1.5808
   67MOL0     H 9000   6.047   8.523   4.161 -1.0449  2.1726  0.9176
   67MOL0     H 9001   5.878   8.303   4.026  0.0017 -2.6566  1.0211
   67MOL0     H 9002   5.840   8.349   4.181  0.6618 -3.1702 -0.4477
   67MOL0     H 9003   5.995   8.171   4.170  0.6476  0.3360  0.4917
   67MOL0     H 9004   6.073   8.304   4.248  0.2772 -0.5281  0.5573
   67MOL0     H 9005   6.337   8.289   3.896  0.5472 -0.2376 -0.6159
   67MOL0     H 9006   6.584   8.249   3.945 -1.8080 -1.1036 -3.5769
   67MOL0     H 9007   6.726   7.846   4.419  0.9112 -1.0512  2.3848
   67MOL0     H 9008   6.933   7.725   4.497 -2.2518 -0.0861  0.2736
   67MOL0     H 9009   7.133   7.481   4.243  0.6115 -1.1098  1.3654
   67MOL0     H 9010   7.243   7.608   4.181  2.0912 -0.5113  1.0359
   67MOL0     H 9011   7.372   7.447   4.227  2.1513  0.6895 -0.0780
   67MOL0     H 9012   7.391   7.593   4.326  0.9258 -0.7690 -0.9546
   67MOL0     H 9013   7.416   7.395   4.472 -0.7727  2.4994  0.9355
   67MOL0     H 9014   7.248   7.442   4.506  1.9063  0.6592  0.9605
   67MOL0     H 9015   7.328   7.210   4.310  0.7331 -1.6854  2.2126
   67MOL0     H 9016   7.161   7.264   4.358 -1.1265  0.7992  1.8968
   67MOL0     H 9017   7.211   7.242   4.599  0.0723  1.6773 -1.0895
   67MOL0     H 9018   7.369   7.166   4.568 -1.2403  0.2353  3.1133
   67MOL0     H 9019   7.098   7.064   4.452 -0.2053 -2.2077  0.2037
   67MOL0     H 9020   7.249   6.980   4.430 -1.8721 -1.9018  0.2707
   67MOL0     H 9021   7.093   7.003   4.685 -0.4854 -1.0859 -0.7872
   67MOL0     H 9022   7.265   6.982   4.704 -1.6465  0.8900  1.6114
   67MOL0     H 9023   7.257   6.770   4.563 -0.5363  0.5904 -0.0203
   67MOL0     H 9024   7.149   6.755   4.702 -2.9606 -2.8454 -1.7374
   67MOL0     H 9025   7.110   7.771   4.113 -0.7586 -1.3560 -0.4899
   67MOL0     H 9026   6.923   7.934   4.068 -1.3121  1.3207  0.5959
   67MOL0     H 9027   6.470   8.012   4.283 -0.6582  1.2441  0.3622
   67MOL0     H 9028   6.225   8.104   4.247 -1.6950  4.5456 -1.3887
   67MOL0     H 9029   4.598   8.788   3.375  1.2639  2.2075  0.5000
   67MOL0     H 9030   4.391   8.768   3.225 -1.0471 -0.8911 -0.2449
   67MOL0     H 9031   3.755   8.808   3.380  1.1172  1.5869  1.3786
   67MOL0     H 9032   3.570   8.853   3.238  0.2556 -2.6189 -0.6736
   67MOL0     H 9033   3.603   8.936   2.826 -0.9155 -0.4208 -1.3032
   67MOL0     H 9034   3.631   9.096   2.879  2.7153 -2.7201  1.1372
   67MOL0     H 9035   3.447   9.097   2.738 -0.5170  0.0879 -0.3951
   67MOL0     H 9036   3.378   9.107   2.901 -0.7987 -0.6841 -0.9551
   67MOL0     H 9037   3.250   8.938   2.798 -0.4727  2.4370  1.1302
   67MOL0     H 9038   3.372   8.842   2.890  1.3776 -0.5065 -0.6575
   67MOL0     H 9039   3.400   8.904   2.589 -0.2232  0.5638 -0.9170
   67MOL0     H 9040   3.503   8.792   2.687 -1.4064 -4.2238 -0.7954
   67MOL0     H 9041   3.193   8.533   2.623  2.4450 -1.7656 -0.9881
   67MOL0     H 9042   3.808   9.057   2.960  1.3383 -0.7274 -0.7428
   67MOL0     H 9043   4.118   9.046   3.120  0.5633 -2.5984  1.6313
   67MOL0     H 9044   4.084   8.907   3.002 -1.1910  0.4605 -2.1725
   67MOL0     H 9045   4.032   9.072   2.964 -3.1374 -1.3588 -0.3981
   68MOL0     O 9046   5.246   1.602   5.381  0.2202  0.1590 -0.2967
   68MOL0     C 9047   5.175   1.705   5.361 -1.1625  1.0214  0.3975
   68MOL0     O 9048   5.221   1.814   5.287 -0.3146 -0.2737  0.5168
   68MOL0     C 9049   5.359   1.808   5.266  0.8234  0.6275  1.0989
   68MOL0     C 9050   5.393   1.773   5.135  0.2771  0.1492 -0.5546
   68MOL0     C 9051   5.528   1.759   5.106 -0.9692 -0.2365 -0.2321
   68MOL0     C 9052   5.633   1.792   5.199 -0.0756  0.9053  0.2519
   68MOL0     O 9053   5.767   1.795   5.176 -0.7922  0.5796  0.6460
   68MOL0     C 9054   5.808   1.775   5.041  0.3573 -0.3329  0.5813
   68MOL0     C 9055   5.960   1.793   5.022 -0.6496  0.1339  0.1753
   68MOL0     C 9056   5.983   1.754   4.871 -0.1346 -0.7983 -0.4477
   68MOL0     C 9057   6.126   1.690   4.846  0.1572 -0.4639 -0.1241
   68MOL0     C 9058   6.175   1.682   4.702  0.3134 -0.3975 -0.1483
   68MOL0     C 9059   6.311   1.626   4.695 -0.8768  0.5740  0.0746
   68MOL0     C 9060   6.364   1.633   4.548 -0.0856 -0.4109 -0.3166
   68MOL0     C 9061   6.486   1.549   4.518  0.3464 -0.5334 -0.4161
   68MOL0     N 9062   6.504   1.542   4.372  0.7285 -0.4785  0.6110
   68MOL0     C 9063   6.485   1.431   4.291 -0.0542  0.8253  0.1230
   68MOL0     C 9064   6.504   1.464   4.166 -0.1880 -0.8132  0.9107
   68MOL0     C 9065   6.477   1.380   4.049  0.7363 -0.3896 -0.4568
   68MOL0     C 9066   6.599   1.286   4.022 -0.1855 -0.2456  0.0061
   68MOL0     C 9067   6.609   1.229   3.877 -0.4641 -0.5080 -0.3629
   68MOL0     C 9068   6.492   1.141   3.842  0.1562  0.1010  1.0015
   68MOL0     O 9069   6.376   1.225   3.823 -0.0084 -0.1550  0.1211
   68MOL0     C 9070   6.260   1.170   3.773  0.3688 -0.1894  0.9797
   68MOL0     C 9071   6.225   1.040   3.764  0.1278  0.1787 -0.3353
   68MOL0     C 9072   6.100   0.998   3.718 -0.1963  0.3653 -0.3368
   68MOL0     C 9073   6.005   1.095   3.680  0.2728  0.1348  0.4274
   68MOL0     C 9074   5.878   1.054   3.624 -0.0945  0.2331  0.7315
   68MOL0     O 9075   5.794   1.154   3.608 -0.2646 -0.6006  0.4146
   68MOL0     C 9076   5.675   1.129   3.550  0.2861 -0.1222  0.1041
   68MOL0     C 9077   5.655   1.130   3.411 -0.3276  0.0999  0.6511
   68MOL0     C 9078   5.531   1.137   3.348 -0.2886 -0.0179 -0.0506
   68MOL0     C 9079   5.414   1.120   3.427  0.5339 -0.4546 -0.0805
   68MOL0     O 9080   5.288   1.097   3.368  0.8255  0.3837 -0.0162
   68MOL0     C 9081   5.281   1.021   3.236  0.1599  0.6379  0.5228
   68MOL0     C 9082   5.157   0.940   3.209 -0.1144 -0.8909  0.3141
   68MOL0     C 9083   5.147   0.837   3.316 -0.6864 -0.4309  0.3914
   68MOL0     C 9084   5.052   0.894   3.418 -0.3524 -0.0596 -0.2118
   68MOL0     C 9085   5.054   0.809   3.542  0.8677 -0.1127  0.1481
   68MOL0     C 9086   4.968   0.859   3.652  0.6535 -0.0988  0.0438
   68MOL0     C 9087   4.827   0.792   3.661  0.2905  0.3026  0.1164
   68MOL0     C 9088   4.743   0.794   3.532  0.2471  0.4131  1.0368
   68MOL0    Cl 9089   4.573   0.749   3.541  0.1372 -0.1325  0.0972
   68MOL0     C 9090   5.431   1.112   3.566  0.5879  0.2792  0.0449
   68MOL0     C 9091   5.555   1.116   3.627 -0.6976  0.1104 -0.0260
   68MOL0     O 9092   5.859   0.939   3.591  0.0458  0.6366  0.0383
   68MOL0     C 9093   6.041   1.229   3.692 -0.7536 -0.0766 -0.2757
   68MOL0     C 9094   6.171   1.265   3.736  0.2109 -0.1929  0.0174
   68MOL0     N 9095   6.537   1.600   4.166  0.0484 -1.4212  0.3737
   68MOL0     N 9096   6.540   1.641   4.291  0.6727 -0.1731  0.3284
   68MOL0     C 9097   5.588   1.823   5.330 -0.7453 -0.5745  0.6097
   68MOL0     C 9098   5.453   1.837   5.365 -0.3078  0.7416  0.1292
   68MOL0     C 9099   5.039   1.706   5.423  0.0690 -0.5774 -0.2506
   68MOL0     C 9100   4.970   1.833   5.414  1.1239 -0.4571 -0.1843
   68MOL0     C 9101   4.847   1.860   5.481  0.0910 -0.4453 -0.1631
   68MOL0     C 9102   4.784   1.760   5.567 -0.9065 -0.0154  1.3086
   68MOL0     O 9103   4.683   1.815   5.636  0.9317  0.6733  0.7415
   68MOL0     C 9104   4.636   1.750   5.759 -0.1807  0.0116 -0.6010
   68MOL0     C 9105   4.733   1.779   5.873  0.0950 -0.4450 -0.9492
   68MOL0     C 9106   4.724   1.676   5.989  0.0501 -0.5269 -0.9366
   68MOL0     C 9107   4.787   1.535   5.963 -0.7166 -0.9165  1.0174
   68MOL0     C 9108   4.933   1.536   5.924 -0.7453 -0.9123 -0.5159
   68MOL0     C 9109   5.046   1.523   5.886 -0.5442 -0.6120  0.2893
   68MOL0     C 9110   4.850   1.633   5.579  0.3080 -0.2649 -0.9968
   68MOL0     C 9111   4.972   1.611   5.506  0.1612  1.0168 -0.4938
   68MOL0     C 9112   5.027   1.475   5.529  0.7875  0.3317 -0.4483
   68MOL0     H 9113   5.311   1.758   5.067 -0.1629 -1.0945  0.2124
   68MOL0     H 9114   5.549   1.725   5.005 -2.0835 -0.4583 -0.3996
   68MOL0     H 9115   5.775   1.678   5.002 -1.5714  0.0264  1.1985
   68MOL0     H 9116   5.753   1.843   4.975 -0.8469 -0.7087  1.1688
   68MOL0     H 9117   6.018   1.732   5.092  0.4776  1.4764  0.4527
   68MOL0     H 9118   5.987   1.896   5.045 -0.4266  0.0938  0.0978
   68MOL0     H 9119   5.969   1.843   4.809 -0.0990  0.7673  1.6809
   68MOL0     H 9120   5.906   1.687   4.831 -0.0114 -0.6385 -0.9586
   68MOL0     H 9121   6.205   1.734   4.907  2.4389 -1.8677 -1.8542
   68MOL0     H 9122   6.122   1.586   4.882  2.5293 -0.9017 -0.9488
   68MOL0     H 9123   6.107   1.614   4.651  1.9890 -2.4572  0.2128
   68MOL0     H 9124   6.157   1.783   4.663  1.0087 -0.4819 -0.7222
   68MOL0     H 9125   6.378   1.682   4.761 -0.4035 -1.4105  1.3646
   68MOL0     H 9126   6.312   1.523   4.732 -1.2735  0.5171 -0.0714
   68MOL0     H 9127   6.389   1.738   4.530 -1.5562  0.1176  0.5606
   68MOL0     H 9128   6.284   1.607   4.479  0.3779  1.9302 -1.8387
   68MOL0     H 9129   6.573   1.600   4.559 -1.7466  3.0014  0.0660
   68MOL0     H 9130   6.474   1.445   4.551  1.3829 -0.8940 -1.1310
   68MOL0     H 9131   6.451   1.332   4.322  0.0651  0.6853 -0.1928
   68MOL0     H 9132   6.384   1.325   4.066 -0.1891  0.4769 -2.3998
   68MOL0     H 9133   6.457   1.450   3.968 -0.7174  1.6368  1.5113
   68MOL0     H 9134   6.692   1.339   4.041 -0.8944  1.0145  0.0546
   68MOL0     H 9135   6.589   1.205   4.095  1.3216 -0.2116  0.2865
   68MOL0     H 9136   6.703   1.173   3.871 -0.0441 -0.0073  1.1198
   68MOL0     H 9137   6.619   1.309   3.804  0.6108  1.3800  1.7387
   68MOL0     H 9138   6.471   1.069   3.921 -2.4993 -0.2483  0.0635
   68MOL0     H 9139   6.504   1.086   3.748  0.5998 -3.3880  2.9300
   68MOL0     H 9140   6.298   0.963   3.787 -0.5191 -0.7404 -1.2669
   68MOL0     H 9141   6.077   0.893   3.702 -3.1238  0.8197  0.3237
   68MOL0     H 9142   5.736   1.138   3.339 -0.8861 -0.7113 -0.0957
   68MOL0     H 9143   5.536   1.147   3.240  3.0553  1.2318  0.0741
   68MOL0     H 9144   5.301   1.091   3.154  2.0404 -1.3638 -0.8679
   68MOL0     H 9145   5.360   0.946   3.224 -3.1053 -3.1073  0.5782
   68MOL0     H 9146   5.078   1.015   3.214 -0.2365 -1.0272  0.4613
   68MOL0     H 9147   5.143   0.893   3.111 -1.3092 -0.2109  0.1356
   68MOL0     H 9148   5.114   0.749   3.260 -0.6020  0.5753 -1.3147
   68MOL0     H 9149   5.244   0.807   3.357 -1.2176 -2.2108  0.4274
   68MOL0     H 9150   4.952   0.895   3.374 -0.9615  0.0352  1.1398
   68MOL0     H 9151   5.074   0.998   3.442  0.1846  0.0078 -0.9578
   68MOL0     H 9152   5.153   0.804   3.588  0.9317 -3.4026 -0.0510
   68MOL0     H 9153   5.025   0.710   3.506  2.9310 -0.2408 -1.3809
   68MOL0     H 9154   5.017   0.827   3.744 -1.3876 -4.1678 -0.0639
   68MOL0     H 9155   4.965   0.969   3.647 -0.6721 -0.0474  1.4759
   68MOL0     H 9156   4.763   0.845   3.734 -1.0239  1.1148 -1.5589
   68MOL0     H 9157   4.849   0.691   3.698  0.6267  0.5252  0.5442
   68MOL0     H 9158   4.738   0.898   3.500  0.1248  0.6255  1.7394
   68MOL0     H 9159   4.799   0.723   3.469 -2.9115 -1.5320  0.1723
   68MOL0     H 9160   5.341   1.092   3.623  1.3810  1.7900  1.8989
   68MOL0     H 9161   5.545   1.115   3.735  1.6493  0.8313  0.2524
   68MOL0     H 9162   5.970   1.309   3.671 -0.5149 -0.5154 -3.0554
   68MOL0     H 9163   6.206   1.367   3.743  2.6146 -1.0237  1.4487
   68MOL0     H 9164   5.672   1.839   5.398 -0.9001  1.3553  0.3962
   68MOL0     H 9165   5.416   1.868   5.462 -1.7987  0.1416 -0.2253
   68MOL0     H 9166   5.016   1.917   5.364  2.4041 -0.5483  0.7781
   68MOL0     H 9167   4.796   1.955   5.466  1.1400 -0.1238 -2.1499
   68MOL0     H 9168   4.622   1.643   5.742  0.9344  0.1910 -3.0214
   68MOL0     H 9169   4.535   1.782   5.783 -0.9848 -0.9873 -2.4739
   68MOL0     H 9170   4.706   1.877   5.914  2.1636 -0.5312  0.7574
   68MOL0     H 9171   4.835   1.792   5.837  0.5300  2.7649  1.0741
   68MOL0     H 9172   4.619   1.675   6.019  0.7673  0.1367  1.9147
   68MOL0     H 9173   4.784   1.716   6.071  0.2303 -0.5836 -1.0382
   68MOL0     H 9174   4.761   1.465   6.043 -0.5578 -0.9733  1.0223
   68MOL0     H 9175   4.739   1.498   5.873  4.7611 -0.4367 -2.6048
   68MOL0     H 9176   5.142   1.506   5.841 -1.9126 -2.9080 -2.0924
   68MOL0     H 9177   4.816   1.555   5.645  0.5781  0.2181 -0.2762
   68MOL0     H 9178   5.122   1.479   5.582  1.4387 -0.9201 -1.4646
   68MOL0     H 9179   4.957   1.414   5.587  0.0386  2.6489  1.2303
   68MOL0     H 9180   5.057   1.435   5.431 -0.2259  0.9325 -1.0280
   69MOL0     O 9181  10.844   7.736   5.234 -0.1938 -0.4099 -0.2767
   69MOL0     C 9182  10.800   7.686   5.339 -0.6246  0.1033  0.3533
   69MOL0     O 9183  10.868   7.677   5.455  0.0814  0.2205 -0.6907
   69MOL0     C 9184  11.002   7.713   5.458 -0.1348 -0.2179  0.1878
   69MOL0     C 9185  11.041   7.843   5.446  0.6007 -0.8715  0.1438
   69MOL0     C 9186  11.172   7.887   5.442  0.3796  0.2268  0.4082
   69MOL0     C 9187  11.283   7.798   5.457  0.1748  0.9666  0.7157
   69MOL0     O 9188  11.418   7.827   5.475  0.7844 -0.0446 -0.1887
   69MOL0     C 9189  11.439   7.968   5.483  0.4047 -1.0312  0.0360
   69MOL0     C 9190  11.586   7.991   5.460 -0.4835  0.9048 -0.3422
   69MOL0     C 9191  11.631   7.958   5.318  0.5566  0.4036  0.6138
   69MOL0     C 9192  11.776   7.996   5.305  0.2085 -0.6281 -0.6013
   69MOL0     C 9193  11.805   7.965   5.154 -0.3578  0.4293 -0.1593
   69MOL0     C 9194  11.956   7.987   5.141  0.5953 -0.5000  0.6870
   69MOL0     C 9195  11.992   7.977   4.994 -0.2783 -0.1529 -0.7303
   69MOL0     C 9196  12.137   8.015   4.998 -0.5158  0.7752 -0.4655
   69MOL0     N 9197  12.208   7.993   4.875 -0.2031 -0.3737  0.3002
   69MOL0     C 9198  12.277   7.887   4.840 -0.2627 -0.3642  0.8333
   69MOL0     C 9199  12.338   7.923   4.718  0.0735 -0.4644 -0.5046
   69MOL0     C 9200  12.433   7.852   4.635  0.4555  0.3306  0.5845
   69MOL0     C 9201  12.571   7.895   4.668 -0.1103 -0.2005 -0.8927
   69MOL0     C 9202  12.665   7.823   4.574 -0.2062  0.4778 -0.3641
   69MOL0     C 9203  12.800   7.877   4.577  1.1365 -0.0601  0.0470
   69MOL0     O 9204  12.872   7.829   4.463 -0.4859 -0.2214  0.0152
   69MOL0     C 9205  13.009   7.841   4.458  0.5156 -0.1772 -0.2940
   69MOL0     C 9206  13.063   7.803   4.332  0.1658 -0.2001 -0.3143
   69MOL0     C 9207  13.198   7.812   4.316  0.1295 -0.2789 -0.3839
   69MOL0     C 9208  13.286   7.827   4.428  0.7064 -0.9222 -0.3524
   69MOL0     C 9209  13.431   7.824   4.417 -0.0348  0.2469  0.3760
   69MOL0     O 9210  13.512   7.847   4.524 -0.4331 -0.3100 -0.1241
   69MOL0     C 9211  13.647   7.823   4.515 -0.8752 -1.1707 -0.9921
   69MOL0     C 9212  13.707   7.725   4.436 -0.0212 -0.7755  0.1077
   69MOL0     C 9213  13.844   7.712   4.437 -0.6341  1.4045 -0.3235
   69MOL0     C 9214  13.922   7.791   4.510  0.4032 -0.4663 -0.2397
   69MOL0     O 9215  14.057   7.766   4.495 -0.4067 -0.2401  0.2995
   69MOL0     C 9216  14.143   7.869   4.554  0.7984  0.1623  0.3355
   69MOL0     C 9217  14.177   7.840   4.699 -1.0659  0.5726  0.3671
   69MOL0     C 9218  14.326   7.808   4.718 -0.5496 -0.5207 -0.7469
   69MOL0     C 9219  14.335   7.765   4.861  0.1342  0.1984 -0.3669
   69MOL0     C 9220  14.482   7.774   4.920  0.1137  0.2123  0.5695
   69MOL0     C 9221  14.584   7.710   4.831 -0.9257  0.1856  0.4376
   69MOL0     C 9222  14.710   7.730   4.901  0.2943 -0.6463 -0.3610
   69MOL0     C 9223  14.791   7.846   4.857  0.8643 -0.2561 -0.6521
   69MOL0    Cl 9224  14.749   7.983   4.955  0.1577 -0.3264  0.4554
   69MOL0     C 9225  13.864   7.881   4.602  0.7163  0.3365 -0.0703
   69MOL0     C 9226  13.721   7.896   4.609 -0.4696  0.5177 -0.3467
   69MOL0     O 9227  13.459   7.775   4.307  0.2617  0.2970  1.0400
   69MOL0     C 9228  13.231   7.863   4.555  0.0583 -0.7461  0.4932
   69MOL0     C 9229  13.091   7.885   4.565  0.2269  0.5867  0.3916
   69MOL0     N 9230  12.303   8.048   4.684 -0.1021 -0.1881 -0.2611
   69MOL0     N 9231  12.228   8.090   4.776 -0.1335 -0.2117 -0.5441
   69MOL0     C 9232  11.241   7.660   5.459 -0.3430 -1.1255  0.4301
   69MOL0     C 9233  11.106   7.617   5.462  0.1832  0.0781 -0.2277
   69MOL0     C 9234  10.661   7.630   5.349  1.5435  0.3730 -0.5206
   69MOL0     C 9235  10.601   7.635   5.481 -0.1532  1.2020  1.4955
   69MOL0     C 9236  10.484   7.574   5.505  0.6889 -0.2178  0.7435
   69MOL0     C 9237  10.402   7.527   5.401 -1.1025  0.2949 -0.6700
   69MOL0     O 9238  10.277   7.475   5.441  0.2198  0.4753 -0.4722
   69MOL0     C 9239  10.180   7.436   5.345 -0.0028  0.3414  0.4231
   69MOL0     C 9240  10.057   7.366   5.405 -0.3862 -0.3135 -1.0657
   69MOL0     C 9241   9.965   7.317   5.298  0.2086  0.0864  0.5559
   69MOL0     C 9242   9.847   7.219   5.335  0.4935  0.2281 -0.4331
   69MOL0     C 9243   9.741   7.296   5.416 -0.4225 -0.0223  0.1238
   69MOL0     C 9244   9.667   7.359   5.485 -0.3664 -0.3922 -0.1233
   69MOL0     C 9245  10.445   7.540   5.268  0.0126  0.0660 -0.1197
   69MOL0     C 9246  10.572   7.595   5.238  0.0344  0.3416  0.1530
   69MOL0     C 9247  10.619   7.588   5.091  0.0491 -0.5636  0.5376
   69MOL0     H 9248  10.964   7.918   5.433 -0.5789 -1.8818  1.0773
   69MOL0     H 9249  11.185   7.995   5.450  0.4834  0.0574  4.4031
   69MOL0     H 9250  11.391   8.032   5.408  1.5581  2.8789  2.3781
   69MOL0     H 9251  11.406   7.996   5.583 -0.0679 -0.2223 -0.3350
   69MOL0     H 9252  11.641   7.933   5.535 -1.0243  0.5772 -0.1923
   69MOL0     H 9253  11.606   8.097   5.471 -0.4905  1.0100 -1.2459
   69MOL0     H 9254  11.569   8.010   5.244  0.8987  0.6177  0.4728
   69MOL0     H 9255  11.605   7.852   5.308  0.4468  0.4132  0.7944
   69MOL0     H 9256  11.799   8.098   5.338 -1.2139 -1.3273  2.9836
   69MOL0     H 9257  11.835   7.936   5.375  2.2647  2.1863  0.2499
   69MOL0     H 9258  11.787   7.858   5.140  2.4005 -0.0366 -0.8975
   69MOL0     H 9259  11.752   8.038   5.093  1.5258  1.6072 -0.4802
   69MOL0     H 9260  11.978   8.090   5.169 -1.5834  0.8374 -2.0627
   69MOL0     H 9261  12.012   7.917   5.204  0.3338  2.0579  4.0589
   69MOL0     H 9262  11.952   8.058   4.932  1.6011  1.3950 -0.0578
   69MOL0     H 9263  11.977   7.880   4.947  2.3220 -0.9760 -0.0336
   69MOL0     H 9264  12.150   8.116   5.038  2.1430  0.2879  0.0686
   69MOL0     H 9265  12.190   7.951   5.069 -0.7477  0.2662 -0.7452
   69MOL0     H 9266  12.303   7.801   4.901  1.9037 -0.9768 -0.7822
   69MOL0     H 9267  12.434   7.744   4.651  0.0345  0.1332 -0.6285
   69MOL0     H 9268  12.408   7.870   4.531 -0.0063  3.5457  1.1456
   69MOL0     H 9269  12.576   8.004   4.656  2.0794  0.6047  4.4593
   69MOL0     H 9270  12.596   7.880   4.773  0.4966  1.1838 -0.8130
   69MOL0     H 9271  12.626   7.835   4.472 -0.7886  0.3780 -0.1553
   69MOL0     H 9272  12.669   7.715   4.592 -0.5768  0.6971  1.0900
   69MOL0     H 9273  12.842   7.865   4.677  1.4365  0.0644 -0.0615
   69MOL0     H 9274  12.800   7.987   4.576  0.7472 -0.0302  1.4315
   69MOL0     H 9275  12.996   7.785   4.248  0.1085 -0.6482 -0.1757
   69MOL0     H 9276  13.235   7.783   4.218 -1.1939 -1.9317 -0.4349
   69MOL0     H 9277  13.658   7.655   4.370  0.8735 -0.5329 -0.8433
   69MOL0     H 9278  13.897   7.630   4.388  0.8148  2.8890 -1.3336
   69MOL0     H 9279  14.239   7.859   4.503  1.4849 -0.7794  1.7558
   69MOL0     H 9280  14.118   7.974   4.532 -0.3147  0.2195  1.7534
   69MOL0     H 9281  14.153   7.923   4.766 -0.0730  1.3734 -0.2265
   69MOL0     H 9282  14.110   7.760   4.731 -2.5089  0.7053 -2.0345
   69MOL0     H 9283  14.359   7.724   4.656  1.1862  0.4039 -1.1511
   69MOL0     H 9284  14.387   7.894   4.691 -1.7155  1.2996  2.0028
   69MOL0     H 9285  14.294   7.664   4.868 -0.4159  0.3070 -1.7571
   69MOL0     H 9286  14.273   7.826   4.928 -2.0122 -1.4295 -0.7715
   69MOL0     H 9287  14.487   7.720   5.016  4.3255  1.8964  1.5169
   69MOL0     H 9288  14.499   7.880   4.937 -4.1435  1.0196  1.0491
   69MOL0     H 9289  14.563   7.603   4.820 -1.3828  0.2157  0.9581
   69MOL0     H 9290  14.588   7.744   4.727  2.8715 -0.2720  0.2986
   69MOL0     H 9291  14.770   7.639   4.890 -1.0746 -1.8370  1.3025
   69MOL0     H 9292  14.704   7.738   5.010  3.4780 -1.7378 -0.0086
   69MOL0     H 9293  14.897   7.828   4.879  0.4992 -0.4683  1.1018
   69MOL0     H 9294  14.780   7.877   4.753  1.1738 -0.0515 -0.6222
   69MOL0     H 9295  13.930   7.920   4.678  2.0310  0.2564 -1.1323
   69MOL0     H 9296  13.671   7.955   4.685  0.6847  1.2803 -0.1580
   69MOL0     H 9297  13.293   7.905   4.633  1.9579  1.6262 -2.0538
   69MOL0     H 9298  13.048   7.917   4.660 -2.2169 -0.0269 -0.4423
   69MOL0     H 9299  11.316   7.583   5.472  0.2753 -0.8595 -1.2832
   69MOL0     H 9300  11.088   7.510   5.472  1.6526  0.0407  3.4398
   69MOL0     H 9301  10.654   7.682   5.564  0.2300  1.6863  0.9811
   69MOL0     H 9302  10.441   7.579   5.605 -0.5563 -0.3384  0.2327
   69MOL0     H 9303  10.224   7.367   5.273  0.7032  2.5741 -1.4332
   69MOL0     H 9304  10.146   7.525   5.290 -0.4435 -0.0584  0.0381
   69MOL0     H 9305  10.004   7.438   5.468 -1.2899 -3.2313  1.8397
   69MOL0     H 9306  10.092   7.281   5.464 -0.3761 -0.0650 -0.7127
   69MOL0     H 9307  10.022   7.266   5.220 -2.8171  0.3675 -2.0614
   69MOL0     H 9308   9.908   7.400   5.255 -0.9238 -0.8461  0.1722
   69MOL0     H 9309   9.803   7.185   5.241  2.8261  0.2687 -1.5853
   69MOL0     H 9310   9.893   7.134   5.385  0.9714 -1.8021 -4.0539
   69MOL0     H 9311   9.613   7.423   5.551 -2.5380 -1.7835 -0.4518
   69MOL0     H 9312  10.382   7.504   5.188 -0.2416  0.4370 -0.0890
   69MOL0     H 9313  10.653   7.679   5.042 -0.0271 -0.4271  0.7376
   69MOL0     H 9314  10.693   7.510   5.071 -1.0339 -1.2606 -0.9634
   69MOL0     H 9315  10.526   7.571   5.036  0.5129 -0.9234 -0.1383
   70MOL0     O 9316  10.970  10.536   4.196 -0.5476  0.0309  0.8585
   70MOL0     C 9317  11.075  10.568   4.129  0.5400 -0.3401 -0.3032
   70MOL0     O 9318  11.100  10.685   4.064  0.0745 -0.5780  0.3296
   70MOL0     C 9319  10.996  10.786   4.059 -1.0261  0.3784  0.4118
   70MOL0     C 9320  10.985  10.887   4.150  0.1312  0.6487 -0.6370
   70MOL0     C 9321  10.874  10.975   4.147 -0.3903  0.3486 -0.7315
   70MOL0     C 9322  10.778  10.967   4.042  0.1429 -0.5605  0.3421
   70MOL0     O 9323  10.662  11.049   4.027  0.0875  0.5178 -0.3144
   70MOL0     C 9324  10.625  11.131   4.144 -0.4854  0.5338  0.4512
   70MOL0     C 9325  10.467  11.152   4.143 -0.9070  0.5011 -0.8046
   70MOL0     C 9326  10.430  11.290   4.198  0.2472 -0.0149  0.7729
   70MOL0     C 9327  10.277  11.315   4.205 -0.4897 -0.2437  0.8313
   70MOL0     C 9328  10.254  11.432   4.305 -0.0417  0.0359 -0.7205
   70MOL0     C 9329  10.103  11.447   4.325  0.0248 -0.1213  0.3377
   70MOL0     C 9330  10.074  11.562   4.414 -0.0207  0.2076 -0.7208
   70MOL0     C 9331  10.091  11.703   4.354  0.2218 -0.2951 -1.0214
   70MOL0     N 9332   9.987  11.712   4.247 -0.2308 -0.4313 -1.3294
   70MOL0     C 9333   9.856  11.758   4.259  0.0246  0.5472 -0.2286
   70MOL0     C 9334   9.814  11.796   4.131  0.8196 -0.4328 -0.1719
   70MOL0     C 9335   9.687  11.879   4.108  0.0493  0.5580  0.3497
   70MOL0     C 9336   9.679  12.000   4.206 -0.5519  0.2092 -0.1550
   70MOL0     C 9337   9.804  12.093   4.201  1.1058  0.0527 -0.1565
   70MOL0     C 9338   9.863  12.095   4.347 -0.1078 -0.2759 -0.0732
   70MOL0     O 9339   9.963  12.203   4.375  0.3595 -0.3985 -0.2348
   70MOL0     C 9340  10.088  12.197   4.314 -0.4489 -0.5201 -0.3226
   70MOL0     C 9341  10.145  12.077   4.252 -0.3616 -0.7474 -0.7133
   70MOL0     C 9342  10.275  12.060   4.209 -0.1242  0.5462  0.2972
   70MOL0     C 9343  10.355  12.171   4.193  0.1655  0.0833 -0.3379
   70MOL0     C 9344  10.495  12.164   4.141 -0.3456 -0.0481 -0.6107
   70MOL0     O 9345  10.578  12.273   4.168 -0.1169  0.0613  0.5142
   70MOL0     C 9346  10.698  12.277   4.100  0.5018 -0.2891 -0.0219
   70MOL0     C 9347  10.810  12.252   4.182 -0.7478 -0.4817  0.0038
   70MOL0     C 9348  10.936  12.252   4.125  0.5157  0.3224 -0.6391
   70MOL0     C 9349  10.959  12.260   3.989  0.8771 -0.0101  0.7079
   70MOL0     O 9350  11.079  12.240   3.915  0.1532 -0.1737  0.7754
   70MOL0     C 9351  11.186  12.186   3.989 -0.4713  0.4566 -0.3147
   70MOL0     C 9352  11.299  12.157   3.892  0.2684 -0.4277 -0.4889
   70MOL0     C 9353  11.365  12.283   3.840  0.7387  0.2688 -0.3727
   70MOL0     C 9354  11.460  12.239   3.726  0.3961 -0.1706  0.1327
   70MOL0     C 9355  11.584  12.329   3.724  0.3629 -0.1013 -0.2750
   70MOL0     C 9356  11.679  12.247   3.628 -0.0302  0.2020 -0.5983
   70MOL0     C 9357  11.809  12.321   3.594  0.1675  0.3158 -0.4694
   70MOL0     C 9358  11.883  12.238   3.484  0.2842  0.1050 -0.1219
   70MOL0    Cl 9359  12.046  12.301   3.461 -0.1872 -0.3320 -0.4206
   70MOL0     C 9360  10.846  12.264   3.907  0.5774 -0.1615  0.2578
   70MOL0     C 9361  10.720  12.290   3.969 -0.4572 -0.0210  0.9171
   70MOL0     O 9362  10.535  12.062   4.081  0.3816  0.6055  0.4842
   70MOL0     C 9363  10.303  12.300   4.236  0.2743 -0.0009 -0.3396
   70MOL0     C 9364  10.172  12.305   4.301  0.7703  1.1420  0.0493
   70MOL0     N 9365   9.919  11.770   4.050 -0.3320  0.4048 -0.0210
   70MOL0     N 9366  10.017  11.719   4.116 -0.4871  0.5070  0.6153
   70MOL0     C 9367  10.804  10.875   3.946  0.4551 -0.0324  0.1367
   70MOL0     C 9368  10.910  10.786   3.952 -0.0595 -0.3369 -0.0352
   70MOL0     C 9369  11.194  10.478   4.142  0.4764  0.3327 -1.0401
   70MOL0     C 9370  11.210  10.411   4.264  0.7019  0.1883  0.9554
   70MOL0     C 9371  11.315  10.325   4.283 -0.5907  0.6510 -0.8367
   70MOL0     C 9372  11.410  10.295   4.186  0.5399 -0.2560  0.6057
   70MOL0     O 9373  11.513  10.213   4.214  0.0109  0.2238 -0.4335
   70MOL0     C 9374  11.644  10.268   4.193 -0.0765 -0.0511  0.0051
   70MOL0     C 9375  11.748  10.194   4.277 -0.1891  0.4647  0.4828
   70MOL0     C 9376  11.894  10.205   4.219  0.1104 -0.3493  0.3751
   70MOL0     C 9377  11.992  10.144   4.321  0.2383  0.0366  0.7958
   70MOL0     C 9378  12.133  10.166   4.268  0.4799 -0.2874  0.6980
   70MOL0     C 9379  12.252  10.174   4.233  0.5148  0.1505 -0.1579
   70MOL0     C 9380  11.390  10.356   4.064  0.4515  0.3084 -0.3186
   70MOL0     C 9381  11.280  10.444   4.039 -0.5443  0.0839 -0.3507
   70MOL0     C 9382  11.273  10.506   3.909  0.0496  0.0907 -0.0232
   70MOL0     H 9383  11.060  10.897   4.228  2.2705  1.1832 -2.6572
   70MOL0     H 9384  10.880  11.060   4.215 -0.3272 -0.4641  0.3031
   70MOL0     H 9385  10.662  11.089   4.238  1.6956 -1.1094 -1.0268
   70MOL0     H 9386  10.667  11.230   4.127  0.6917 -0.2286 -1.4001
   70MOL0     H 9387  10.420  11.071   4.200  1.8686  0.5344  1.7675
   70MOL0     H 9388  10.434  11.140   4.039 -0.2858  0.4433 -1.0009
   70MOL0     H 9389  10.469  11.360   4.123 -0.3657 -0.4585  0.0370
   70MOL0     H 9390  10.477  11.301   4.296  2.0458  0.6652 -0.1163
   70MOL0     H 9391  10.230  11.344   4.111 -2.0375  0.4756  1.7921
   70MOL0     H 9392  10.224  11.227   4.241 -2.1433 -0.8594 -2.6738
   70MOL0     H 9393  10.301  11.412   4.402 -2.8357  1.0647  0.9726
   70MOL0     H 9394  10.302  11.524   4.271 -2.8258  1.5014 -0.9748
   70MOL0     H 9395  10.045  11.460   4.233  1.2645  0.2615 -0.3985
   70MOL0     H 9396  10.067  11.361   4.383  0.4375  0.4453  1.4532
   70MOL0     H 9397  10.128  11.548   4.508  0.3790  1.9585 -0.6587
   70MOL0     H 9398   9.969  11.551   4.442  0.6318  0.4589  2.1007
   70MOL0     H 9399  10.063  11.779   4.427  1.0834  0.2594 -1.2444
   70MOL0     H 9400  10.192  11.715   4.313  0.6994  0.4924  0.3305
   70MOL0     H 9401   9.803  11.769   4.353  0.7126 -3.5305  0.8165
   70MOL0     H 9402   9.665  11.907   4.004 -1.4281 -1.7224 -0.0168
   70MOL0     H 9403   9.608  11.809   4.136  0.1353  1.1293  2.1407
   70MOL0     H 9404   9.584  12.048   4.183 -1.0370 -0.4922  0.3116
   70MOL0     H 9405   9.666  11.961   4.308 -3.5470  1.2010 -0.0404
   70MOL0     H 9406   9.779  12.192   4.163  1.3056  1.0059  2.0282
   70MOL0     H 9407   9.882  12.059   4.133  1.1365 -0.0273 -0.0825
   70MOL0     H 9408   9.896  11.993   4.371  0.0424  0.0594  1.2241
   70MOL0     H 9409   9.777  12.111   4.412 -1.4604 -0.2120 -1.8361
   70MOL0     H 9410  10.086  11.986   4.252 -1.7660  0.1410 -0.5269
   70MOL0     H 9411  10.304  11.962   4.171 -2.3858 -1.0121  2.3052
   70MOL0     H 9412  10.787  12.238   4.287 -1.6917 -0.9926 -0.2574
   70MOL0     H 9413  11.015  12.241   4.199 -0.8242  0.2392  0.8080
   70MOL0     H 9414  11.221  12.265   4.056  0.3635  2.1921 -2.6333
   70MOL0     H 9415  11.158  12.096   4.044 -2.5306  0.9667 -0.4499
   70MOL0     H 9416  11.374  12.085   3.927  0.3915  0.3067  0.8150
   70MOL0     H 9417  11.253  12.109   3.805 -1.1446  1.6515 -0.9603
   70MOL0     H 9418  11.283  12.345   3.804 -2.2787 -2.1085  1.8487
   70MOL0     H 9419  11.411  12.338   3.922 -1.2905  0.7417  0.5197
   70MOL0     H 9420  11.414  12.243   3.627  0.6575 -0.9454 -0.0220
   70MOL0     H 9421  11.489  12.136   3.747  0.8370 -0.7135 -2.8068
   70MOL0     H 9422  11.620  12.343   3.826  0.6435 -2.2612 -0.0429
   70MOL0     H 9423  11.562  12.429   3.684  1.4283 -0.0185 -0.7006
   70MOL0     H 9424  11.712  12.149   3.664 -1.0222  0.5315  1.3349
   70MOL0     H 9425  11.622  12.214   3.541  2.3151 -1.5092 -1.5906
   70MOL0     H 9426  11.865  12.311   3.687  1.8180 -1.4813 -1.6032
   70MOL0     H 9427  11.792  12.422   3.555 -0.4275 -0.1096 -1.3404
   70MOL0     H 9428  11.905  12.137   3.520  1.8648  0.4414 -0.0718
   70MOL0     H 9429  11.822  12.228   3.394 -1.1751 -2.9929  1.0531
   70MOL0     H 9430  10.859  12.264   3.800  0.8192 -3.1403  0.1885
   70MOL0     H 9431  10.632  12.311   3.909  0.2182 -1.5269 -0.6914
   70MOL0     H 9432  10.366  12.384   4.209  0.2895  0.2270  0.3698
   70MOL0     H 9433  10.116  12.388   4.343 -1.5783  1.5225 -3.4230
   70MOL0     H 9434  10.726  10.861   3.873  0.8650 -2.2349  0.0551
   70MOL0     H 9435  10.926  10.725   3.864  1.4193 -1.6038  1.0496
   70MOL0     H 9436  11.151  10.436   4.352  0.0718 -2.1081  1.2568
   70MOL0     H 9437  11.323  10.294   4.387 -2.9285  5.0339  0.9176
   70MOL0     H 9438  11.648  10.376   4.214 -2.1580  0.1142 -0.2679
   70MOL0     H 9439  11.663  10.257   4.086 -0.8662 -2.7708  0.0854
   70MOL0     H 9440  11.716  10.090   4.266 -0.3020  0.5188  0.2954
   70MOL0     H 9441  11.747  10.232   4.379  0.9719 -1.2262  1.1710
   70MOL0     H 9442  11.910  10.313   4.211 -1.5205 -0.0504  0.7855
   70MOL0     H 9443  11.906  10.167   4.117 -1.5552  0.4565 -0.1665
   70MOL0     H 9444  11.983  10.189   4.421  0.1760  1.4948  0.1585
   70MOL0     H 9445  11.988  10.036   4.332  2.4726 -0.2398 -0.4916
   70MOL0     H 9446  12.355  10.166   4.204  0.0163 -2.7565 -1.4802
   70MOL0     H 9447  11.460  10.344   3.982  0.6159  1.0844 -0.3012
   70MOL0     H 9448  11.337  10.449   3.842  0.1050 -1.4851  1.3218
   70MOL0     H 9449  11.172  10.506   3.867  0.8080  2.7035 -2.1118
   70MOL0     H 9450  11.310  10.609   3.910  0.7093 -0.1416 -0.2324
   71MOL0     O 9451   4.666   9.454   3.351  0.5892  0.5307  0.1100
   71MOL0     C 9452   4.617   9.349   3.395  0.0965  0.7122  0.8141
   71MOL0     O 9453   4.686   9.241   3.436  0.0545 -0.5115 -0.8983
   71MOL0     C 9454   4.826   9.248   3.442 -0.4097 -0.3630  0.9160
   71MOL0     C 9455   4.890   9.172   3.341 -0.3688 -0.0087 -0.9211
   71MOL0     C 9456   5.036   9.191   3.344 -0.7910  0.7151  0.2060
   71MOL0     C 9457   5.105   9.256   3.438  1.0916  0.0368  0.3585
   71MOL0     O 9458   5.243   9.250   3.440  0.0889  0.0930  0.0795
   71MOL0     C 9459   5.311   9.177   3.545  0.8742  0.1642  0.1029
   71MOL0     C 9460   5.348   9.046   3.475 -0.2745  0.7017 -0.1969
   71MOL0     C 9461   5.426   8.950   3.567  0.1006  0.0636 -0.1711
   71MOL0     C 9462   5.572   8.979   3.564 -0.6226  0.1334 -0.0511
   71MOL0     C 9463   5.656   8.893   3.665 -0.2274  0.3122 -0.4711
   71MOL0     C 9464   5.804   8.912   3.644  0.4707 -0.2786 -0.2794
   71MOL0     C 9465   5.876   8.842   3.758 -0.6241  0.0078  0.2747
   71MOL0     C 9466   6.026   8.850   3.713 -0.6170 -0.2348  0.8909
   71MOL0     N 9467   6.123   8.818   3.824 -1.2203 -0.2688  0.2768
   71MOL0     C 9468   6.209   8.708   3.844  0.2030 -0.1487  0.0054
   71MOL0     C 9469   6.300   8.749   3.932  0.1121  0.1993 -0.3923
   71MOL0     C 9470   6.411   8.664   3.980  0.1421  0.5606 -0.2953
   71MOL0     C 9471   6.516   8.670   3.875 -0.2336 -0.4177 -0.6555
   71MOL0     C 9472   6.628   8.575   3.911  0.3611 -0.5456 -0.1162
   71MOL0     C 9473   6.735   8.558   3.804 -0.0654  0.0162  0.1714
   71MOL0     O 9474   6.797   8.685   3.779  0.5955  0.1042  0.6715
   71MOL0     C 9475   6.932   8.692   3.746  0.7621  0.0638  0.2696
   71MOL0     C 9476   7.010   8.792   3.792  0.2585 -1.0139 -0.6910
   71MOL0     C 9477   7.146   8.800   3.745 -0.6171  0.1079 -0.0824
   71MOL0     C 9478   7.200   8.703   3.671 -0.5374  0.2077  0.2539
   71MOL0     C 9479   7.346   8.709   3.639 -0.2284 -0.0733  1.0125
   71MOL0     O 9480   7.422   8.806   3.703  0.5724  0.1162  0.2716
   71MOL0     C 9481   7.547   8.843   3.679 -0.6194  0.4490  0.8208
   71MOL0     C 9482   7.580   8.983   3.681  0.6771  0.0919  0.4240
   71MOL0     C 9483   7.708   9.031   3.652  0.6292  0.2339  0.0524
   71MOL0     C 9484   7.813   8.943   3.626  0.0341  0.0416 -0.4692
   71MOL0     O 9485   7.944   8.975   3.591 -0.7194 -0.6069 -0.8932
   71MOL0     C 9486   8.006   9.096   3.642  0.2963  0.4787 -0.7693
   71MOL0     C 9487   8.062   9.186   3.536 -0.3622 -0.0349 -0.7931
   71MOL0     C 9488   8.148   9.297   3.595  0.0300  0.1698 -0.6931
   71MOL0     C 9489   8.076   9.412   3.662  0.3506  0.2018  0.0788
   71MOL0     C 9490   8.164   9.531   3.714 -1.0220  0.0536 -0.7396
   71MOL0     C 9491   8.229   9.634   3.621 -0.5153 -0.8034 -0.0010
   71MOL0     C 9492   8.298   9.579   3.503  0.2250  0.0341 -0.5403
   71MOL0     C 9493   8.365   9.694   3.434 -1.0210  0.5494  0.7217
   71MOL0    Cl 9494   8.266   9.781   3.315 -0.1880  0.2399 -0.1430
   71MOL0     C 9495   7.780   8.805   3.626 -0.4735  0.5259  0.4412
   71MOL0     C 9496   7.653   8.753   3.653  0.5459  0.1031 -0.7193
   71MOL0     O 9497   7.398   8.625   3.571  0.1533  0.2474 -0.0449
   71MOL0     C 9498   7.116   8.604   3.618  0.1723  0.0400 -0.5114
   71MOL0     C 9499   6.982   8.596   3.660  1.1118  0.9269  0.6867
   71MOL0     N 9500   6.269   8.882   3.974 -0.4479 -0.4858 -0.4747
   71MOL0     N 9501   6.161   8.922   3.912  0.2512  0.2118  0.4102
   71MOL0     C 9502   5.034   9.315   3.544 -0.1349 -0.0110 -0.2525
   71MOL0     C 9503   4.893   9.311   3.546  0.4416 -0.0842  0.4260
   71MOL0     C 9504   4.469   9.336   3.381  0.4872  0.0259  1.1687
   71MOL0     C 9505   4.401   9.282   3.488  0.7823  0.0373 -0.0873
   71MOL0     C 9506   4.258   9.283   3.492  0.6709  0.5685 -0.2902
   71MOL0     C 9507   4.183   9.318   3.385  0.4272 -0.4345 -0.1218
   71MOL0     O 9508   4.048   9.284   3.396  0.5214 -1.0805 -1.0018
   71MOL0     C 9509   3.957   9.300   3.286  0.5122  0.4734  0.0537
   71MOL0     C 9510   3.815   9.262   3.319 -0.1641  0.6743 -0.0235
   71MOL0     C 9511   3.713   9.288   3.206 -0.1053 -0.2259 -0.0976
   71MOL0     C 9512   3.667   9.431   3.192  0.2453 -0.3049 -0.8226
   71MOL0     C 9513   3.755   9.522   3.127 -0.0691  0.2498 -0.4477
   71MOL0     C 9514   3.826   9.601   3.071 -0.5440  0.1107 -0.4883
   71MOL0     C 9515   4.245   9.369   3.265 -0.3775 -0.5956  0.4738
   71MOL0     C 9516   4.389   9.379   3.267 -0.1581 -0.3611  0.7369
   71MOL0     C 9517   4.459   9.426   3.140  0.8325  0.0263 -0.4295
   71MOL0     H 9518   4.835   9.111   3.271 -0.9751 -1.7263  0.9763
   71MOL0     H 9519   5.093   9.134   3.271 -0.3558 -0.8406  1.7134
   71MOL0     H 9520   5.399   9.233   3.578  0.3442  0.9706  0.1752
   71MOL0     H 9521   5.252   9.168   3.637 -0.8347 -1.7465 -1.0716
   71MOL0     H 9522   5.405   9.068   3.385  0.9526 -0.8605  0.1527
   71MOL0     H 9523   5.259   8.993   3.440 -0.2645  0.2320  0.4647
   71MOL0     H 9524   5.414   8.844   3.544 -0.2798 -0.7595  3.2953
   71MOL0     H 9525   5.390   8.967   3.669 -2.7636  0.9556 -1.2242
   71MOL0     H 9526   5.614   8.970   3.463 -2.0436 -2.2476 -0.5091
   71MOL0     H 9527   5.590   9.083   3.593  0.9194 -0.7010  2.3754
   71MOL0     H 9528   5.626   8.924   3.765 -0.7638  0.1780 -0.5858
   71MOL0     H 9529   5.636   8.786   3.654  0.4406  0.3143 -2.1287
   71MOL0     H 9530   5.821   8.870   3.544  1.0645  2.0033 -1.2007
   71MOL0     H 9531   5.821   9.020   3.641  2.1218 -0.5298 -1.5720
   71MOL0     H 9532   5.845   8.737   3.758 -0.9841  0.1053 -0.3815
   71MOL0     H 9533   5.870   8.891   3.855  2.1724  1.6849 -0.2843
   71MOL0     H 9534   6.038   8.771   3.637  1.2937 -2.4267  3.3036
   71MOL0     H 9535   6.046   8.953   3.684 -0.6245 -0.0532  1.5285
   71MOL0     H 9536   6.223   8.611   3.798 -0.4287 -0.6596  0.8481
   71MOL0     H 9537   6.455   8.708   4.070  0.0591  0.9356 -0.4388
   71MOL0     H 9538   6.386   8.559   4.001  0.6788  0.4275 -0.3055
   71MOL0     H 9539   6.467   8.653   3.778 -0.5867  1.0078 -0.7416
   71MOL0     H 9540   6.564   8.768   3.865 -0.6505 -0.2283 -0.8337
   71MOL0     H 9541   6.585   8.476   3.926 -0.2169 -0.2046  0.5285
   71MOL0     H 9542   6.671   8.605   4.007 -3.5635 -1.0958  2.0456
   71MOL0     H 9543   6.694   8.538   3.704 -3.5325  0.7578  1.3170
   71MOL0     H 9544   6.796   8.471   3.828 -4.7983 -3.4067  1.2666
   71MOL0     H 9545   6.967   8.867   3.858  1.2012 -1.7561  0.8233
   71MOL0     H 9546   7.216   8.875   3.779  0.7042 -0.9466 -0.3724
   71MOL0     H 9547   7.499   9.054   3.685 -0.7155 -1.3916 -0.0824
   71MOL0     H 9548   7.726   9.135   3.625 -2.0507 -0.2436 -4.3336
   71MOL0     H 9549   7.936   9.154   3.702  0.5782  0.6966 -0.6526
   71MOL0     H 9550   8.084   9.066   3.712 -0.3359  1.6208  0.4720
   71MOL0     H 9551   8.123   9.123   3.470  3.2200  1.5555  0.7687
   71MOL0     H 9552   7.986   9.230   3.472 -0.9060 -0.1400 -0.2312
   71MOL0     H 9553   8.216   9.248   3.665 -0.8290  1.7171  1.3143
   71MOL0     H 9554   8.219   9.319   3.514  0.3046 -0.2728 -0.5735
   71MOL0     H 9555   8.014   9.364   3.738 -1.7641  1.9706 -0.4132
   71MOL0     H 9556   8.000   9.459   3.599  0.5249  0.4669  0.0607
   71MOL0     H 9557   8.244   9.490   3.776  0.1365 -1.4928 -3.0968
   71MOL0     H 9558   8.108   9.586   3.790 -2.4283 -2.5104  0.1866
   71MOL0     H 9559   8.152   9.705   3.589  0.0976 -0.1007  0.0223
   71MOL0     H 9560   8.299   9.704   3.668 -3.0663  3.3653 -1.8441
   71MOL0     H 9561   8.224   9.536   3.435  1.6859 -0.0370 -2.1570
   71MOL0     H 9562   8.364   9.497   3.534 -1.2061 -0.6826  0.7509
   71MOL0     H 9563   8.421   9.759   3.503  0.9016 -1.8284  1.5430
   71MOL0     H 9564   8.445   9.644   3.379 -0.9497  3.2178 -1.8454
   71MOL0     H 9565   7.864   8.739   3.604 -0.8561  0.5481 -1.2630
   71MOL0     H 9566   7.638   8.645   3.651  4.3116 -0.5504 -1.4050
   71MOL0     H 9567   7.163   8.520   3.569  0.1864  0.0223 -0.4671
   71MOL0     H 9568   6.925   8.508   3.631  0.5797  1.1057  1.1665
   71MOL0     H 9569   5.084   9.374   3.620  0.7052  2.5174 -2.5764
   71MOL0     H 9570   4.852   9.362   3.633 -0.9319  1.7640 -1.2119
   71MOL0     H 9571   4.455   9.247   3.576 -0.6718 -1.4012  0.2691
   71MOL0     H 9572   4.204   9.255   3.582  0.9229  2.3729  0.4781
   71MOL0     H 9573   3.981   9.225   3.210 -0.4742  0.0482  0.1545
   71MOL0     H 9574   3.962   9.404   3.250 -0.8541  0.2572 -0.8391
   71MOL0     H 9575   3.774   9.304   3.411 -0.6139 -1.1538  0.6561
   71MOL0     H 9576   3.813   9.153   3.334  1.8327  0.7237  0.8724
   71MOL0     H 9577   3.632   9.220   3.237  0.8225 -1.7626 -0.9046
   71MOL0     H 9578   3.767   9.259   3.116  2.6594 -0.1445  1.4327
   71MOL0     H 9579   3.576   9.438   3.132  0.1239  3.0860 -0.4235
   71MOL0     H 9580   3.649   9.465   3.295  0.0644 -0.3960 -0.8244
   71MOL0     H 9581   3.903   9.662   3.027  1.1429  0.5158  2.7033
   71MOL0     H 9582   4.196   9.393   3.171  0.2430 -2.8234 -0.4764
   71MOL0     H 9583   4.406   9.403   3.048  0.4309  2.0220 -0.7530
   71MOL0     H 9584   4.450   9.534   3.156 -1.3176 -0.0554 -0.7830
   71MOL0     H 9585   4.561   9.389   3.126  1.2854 -0.3015  2.9301
   72MOL0     O 9586   7.720   4.093   1.283 -0.1198  0.2032 -0.3498
   72MOL0     C 9587   7.687   4.031   1.181  0.6617 -0.3271  0.4644
   72MOL0     O 9588   7.753   4.020   1.067 -0.2076 -0.0014 -0.3159
   72MOL0     C 9589   7.881   4.078   1.069  0.1689 -0.6499 -0.3487
   72MOL0     C 9590   7.982   3.994   1.018 -0.1353 -1.0426  0.0737
   72MOL0     C 9591   8.114   4.035   1.017 -0.2128 -0.1485  0.0096
   72MOL0     C 9592   8.155   4.162   1.057 -0.9132  0.4716 -0.5349
   72MOL0     O 9593   8.287   4.189   1.061  0.2266 -0.8450  0.1389
   72MOL0     C 9594   8.332   4.295   1.143 -0.4687 -0.2593  0.3937
   72MOL0     C 9595   8.487   4.309   1.144 -0.2918 -0.1580  0.0788
   72MOL0     C 9596   8.530   4.422   1.045  0.1116 -0.1257  0.1245
   72MOL0     C 9597   8.673   4.455   1.072  0.0933  0.7261  0.0544
   72MOL0     C 9598   8.731   4.538   0.959 -0.5384 -0.5711  0.3561
   72MOL0     C 9599   8.866   4.589   0.995  1.3359  0.2787 -0.2963
   72MOL0     C 9600   8.976   4.479   1.001  0.3049  0.4200 -0.2223
   72MOL0     C 9601   9.112   4.550   1.018  0.0630  0.8219  0.4037
   72MOL0     N 9602   9.214   4.467   1.068 -0.9537  0.2151 -0.8203
   72MOL0     C 9603   9.239   4.333   1.032  0.6559 -0.4567  0.8816
   72MOL0     C 9604   9.338   4.298   1.107  0.6691  0.6707 -0.4210
   72MOL0     C 9605   9.418   4.167   1.088  0.0848  0.8413 -1.0158
   72MOL0     C 9606   9.527   4.177   0.986 -0.6911 -0.1030  0.2563
   72MOL0     C 9607   9.630   4.276   1.030 -0.7580 -0.5080 -0.3543
   72MOL0     C 9608   9.760   4.284   0.947 -0.6411  0.3588  0.2578
   72MOL0     O 9609   9.848   4.171   0.978 -0.1101  0.2259 -0.1835
   72MOL0     C 9610   9.982   4.201   0.947 -0.4965 -0.7881  0.3433
   72MOL0     C 9611  10.015   4.280   0.829 -0.0120  0.0072 -0.0471
   72MOL0     C 9612  10.150   4.319   0.814 -0.2158  0.8315 -0.5643
   72MOL0     C 9613  10.257   4.283   0.894 -0.3392  0.3142 -0.5382
   72MOL0     C 9614  10.397   4.320   0.866 -0.5381 -0.2335 -0.2592
   72MOL0     O 9615  10.498   4.271   0.952 -0.1716 -0.3434  0.4490
   72MOL0     C 9616  10.619   4.321   0.925  0.1450 -0.5777  0.4772
   72MOL0     C 9617  10.682   4.364   1.038 -0.3178 -0.6923 -0.8297
   72MOL0     C 9618  10.807   4.429   1.038  0.3004 -0.2756 -0.2124
   72MOL0     C 9619  10.872   4.438   0.914 -0.9091 -0.2896  0.8061
   72MOL0     O 9620  11.001   4.493   0.888  0.7996  0.8638  0.1757
   72MOL0     C 9621  11.073   4.547   0.994 -0.0543 -0.0056 -0.6788
   72MOL0     C 9622  11.203   4.613   0.944 -0.7696  0.3429  0.2605
   72MOL0     C 9623  11.263   4.716   1.040  0.7008 -0.6776 -0.2054
   72MOL0     C 9624  11.347   4.819   0.957  0.8104 -0.0413 -0.1776
   72MOL0     C 9625  11.382   4.937   1.050  0.1967 -0.7643  0.3631
   72MOL0     C 9626  11.509   5.020   1.002  0.4805 -0.2241  0.5134
   72MOL0     C 9627  11.558   5.148   1.066  0.0315 -0.5945  0.8154
   72MOL0     C 9628  11.501   5.282   0.997  0.5631  0.2543  0.4734
   72MOL0    Cl 9629  11.323   5.302   1.030 -0.3556 -0.0627 -0.0205
   72MOL0     C 9630  10.815   4.389   0.796  0.6059  0.3115  0.2371
   72MOL0     C 9631  10.687   4.336   0.797 -0.6490  0.2880  0.3647
   72MOL0     O 9632  10.413   4.406   0.781  0.0063 -0.2035  0.2038
   72MOL0     C 9633  10.219   4.194   1.001  0.4032  0.0615 -0.1018
   72MOL0     C 9634  10.084   4.161   1.036 -0.8112 -1.3453 -0.1382
   72MOL0     N 9635   9.356   4.386   1.201  0.4876 -0.4804  0.5090
   72MOL0     N 9636   9.280   4.491   1.186  0.2037  0.1410 -0.2596
   72MOL0     C 9637   8.053   4.244   1.100  0.3726  0.0238 -0.1366
   72MOL0     C 9638   7.917   4.209   1.109 -0.3224  0.1621 -0.4483
   72MOL0     C 9639   7.549   3.973   1.181 -0.6017  0.2956 -0.4685
   72MOL0     C 9640   7.448   4.047   1.243  0.8559 -0.1727 -0.0214
   72MOL0     C 9641   7.314   3.999   1.247 -0.3234 -0.8723  0.6492
   72MOL0     C 9642   7.284   3.883   1.190  0.5995  0.6306 -0.5646
   72MOL0     O 9643   7.150   3.840   1.194 -0.0533 -0.1868  0.6110
   72MOL0     C 9644   7.120   3.727   1.104  0.0922 -0.4320 -1.0403
   72MOL0     C 9645   6.981   3.674   1.114 -0.0239  0.1347  0.0335
   72MOL0     C 9646   6.975   3.525   1.063 -0.2883  0.1885 -0.3955
   72MOL0     C 9647   6.844   3.476   1.064  0.4342 -0.1330  0.7419
   72MOL0     C 9648   6.826   3.342   1.012  0.0242 -0.0366  1.0802
   72MOL0     C 9649   6.814   3.234   0.956 -0.1796  0.2346  0.6484
   72MOL0     C 9650   7.387   3.813   1.119 -0.0594 -0.1617 -0.3732
   72MOL0     C 9651   7.519   3.856   1.119 -0.1425 -0.1713  0.3234
   72MOL0     C 9652   7.627   3.774   1.033  0.0455  0.6008 -0.0475
   72MOL0     H 9653   7.968   3.889   0.995 -2.8641 -0.3877 -1.6947
   72MOL0     H 9654   8.198   3.972   0.988  0.8199  0.6790  1.1510
   72MOL0     H 9655   8.286   4.386   1.103  2.2306  1.4394  0.9450
   72MOL0     H 9656   8.303   4.288   1.248  1.7527 -2.2940  0.9506
   72MOL0     H 9657   8.539   4.219   1.112  0.7800  0.0973  1.0692
   72MOL0     H 9658   8.521   4.331   1.245  5.0525  0.8555 -1.6353
   72MOL0     H 9659   8.473   4.509   1.079  1.4258 -0.0665  2.3909
   72MOL0     H 9660   8.513   4.384   0.944  0.8171  0.9229 -0.4083
   72MOL0     H 9661   8.692   4.506   1.167 -1.2572  1.3384  0.0194
   72MOL0     H 9662   8.717   4.355   1.075 -0.6342  0.4129  1.0423
   72MOL0     H 9663   8.737   4.474   0.870 -0.5444 -1.6003  1.0791
   72MOL0     H 9664   8.675   4.628   0.931  3.1637  1.9605  0.3007
   72MOL0     H 9665   8.895   4.661   0.918 -1.3973 -0.9254 -2.6707
   72MOL0     H 9666   8.851   4.641   1.089  0.8432  0.6061 -0.5507
   72MOL0     H 9667   8.971   4.416   0.911 -1.8557 -3.6946  2.4589
   72MOL0     H 9668   8.978   4.420   1.093 -0.4061  0.4542 -0.1780
   72MOL0     H 9669   9.155   4.586   0.924  0.8158  2.3170  1.2713
   72MOL0     H 9670   9.094   4.627   1.094  0.7078 -0.3037  1.7399
   72MOL0     H 9671   9.195   4.285   0.946  1.7052  2.3609 -1.4220
   72MOL0     H 9672   9.462   4.145   1.186  0.7067  3.7619 -0.5377
   72MOL0     H 9673   9.354   4.082   1.063  1.2132 -0.9523  1.7556
   72MOL0     H 9674   9.581   4.082   0.984  1.6548  1.1231  0.6534
   72MOL0     H 9675   9.501   4.199   0.882 -0.3403  0.0698  0.2007
   72MOL0     H 9676   9.654   4.255   1.135 -3.1184  0.1485  0.3970
   72MOL0     H 9677   9.595   4.379   1.024  2.0340  0.8843  3.3944
   72MOL0     H 9678   9.818   4.376   0.957 -0.0140  0.5026 -3.3411
   72MOL0     H 9679   9.735   4.276   0.840 -1.7272 -0.9578  0.5691
   72MOL0     H 9680   9.944   4.317   0.756  0.2425 -0.5349 -0.5817
   72MOL0     H 9681  10.168   4.388   0.732 -2.1090  1.7085 -0.2932
   72MOL0     H 9682  10.635   4.357   1.135 -2.2403 -0.1009 -1.6685
   72MOL0     H 9683  10.852   4.457   1.133 -2.3735  2.0137  0.4950
   72MOL0     H 9684  11.004   4.621   1.037 -0.1837 -0.3768 -0.2361
   72MOL0     H 9685  11.097   4.470   1.068  0.2455 -0.8707 -1.6494
   72MOL0     H 9686  11.284   4.541   0.928 -1.1487 -0.4240  1.6296
   72MOL0     H 9687  11.187   4.669   0.851 -2.2231  0.3694  0.5038
   72MOL0     H 9688  11.189   4.770   1.099  0.4561  1.4558 -2.2795
   72MOL0     H 9689  11.316   4.648   1.107  0.3095 -1.9824 -1.1659
   72MOL0     H 9690  11.289   4.861   0.875  0.8061  0.5373  0.1123
   72MOL0     H 9691  11.426   4.759   0.913 -0.7528 -0.5953 -2.3755
   72MOL0     H 9692  11.408   4.892   1.146  0.5761 -1.2172  0.0560
   72MOL0     H 9693  11.291   4.995   1.064  0.9916  0.7957 -0.6466
   72MOL0     H 9694  11.590   4.949   1.021 -0.3396 -1.4597 -0.4901
   72MOL0     H 9695  11.510   5.031   0.893  1.5579  0.7502  0.5993
   72MOL0     H 9696  11.666   5.156   1.051  0.1172 -1.3390  1.0127
   72MOL0     H 9697  11.529   5.157   1.171  0.6883 -1.3762  1.0787
   72MOL0     H 9698  11.550   5.367   1.045 -0.6265  0.8006  0.7539
   72MOL0     H 9699  11.515   5.285   0.888 -0.6425  0.4689  0.3194
   72MOL0     H 9700  10.859   4.408   0.699  0.4517  0.5084  0.2055
   72MOL0     H 9701  10.648   4.317   0.698  0.2843  0.9725 -0.1455
   72MOL0     H 9702  10.300   4.163   1.066  0.0484 -0.0786  0.2782
   72MOL0     H 9703  10.057   4.103   1.123 -2.6595 -0.3558 -0.0072
   72MOL0     H 9704   8.070   4.347   1.130 -2.1033  1.0042 -1.7591
   72MOL0     H 9705   7.845   4.279   1.150 -2.9810 -1.6685 -1.7389
   72MOL0     H 9706   7.464   4.144   1.289 -4.0304  1.0421 -0.3641
   72MOL0     H 9707   7.232   4.062   1.280 -1.2204 -1.0793 -1.0964
   72MOL0     H 9708   7.178   3.640   1.139 -2.0752 -2.0417 -1.2305
   72MOL0     H 9709   7.141   3.755   1.001  3.3283  0.7793 -0.1851
   72MOL0     H 9710   6.902   3.735   1.068 -2.1081 -0.1476  2.9453
   72MOL0     H 9711   6.948   3.661   1.217  0.6455 -4.0999 -0.1378
   72MOL0     H 9712   7.028   3.460   1.134  0.0224 -0.8741 -1.5549
   72MOL0     H 9713   7.035   3.510   0.973  1.1088 -0.0126  0.5185
   72MOL0     H 9714   6.811   3.474   1.168 -2.1227 -0.0431  0.0028
   72MOL0     H 9715   6.786   3.548   1.005 -0.8610 -0.4036  1.6394
   72MOL0     H 9716   6.799   3.143   0.901  2.2007 -0.1321  0.5294
   72MOL0     H 9717   7.366   3.719   1.070 -0.2370 -0.3616  0.0771
   72MOL0     H 9718   7.592   3.672   1.014 -1.6201  1.0140  0.6231
   72MOL0     H 9719   7.659   3.815   0.937 -0.9320 -1.2180 -1.2073
   72MOL0     H 9720   7.715   3.763   1.096  1.8922  0.9551 -2.4305
   73MOL0     O 9721   1.623   9.239   1.993  0.0828  0.1328  0.1858
   73MOL0     C 9722   1.637   9.204   1.874 -0.1681 -0.9582  0.8520
   73MOL0     O 9723   1.704   9.272   1.775 -0.4734 -0.1393 -0.0396
   73MOL0     C 9724   1.782   9.380   1.803 -0.7269 -0.5813 -0.4938
   73MOL0     C 9725   1.755   9.494   1.888  0.8809  0.1359  0.1285
   73MOL0     C 9726   1.843   9.606   1.903  0.3887  0.3250 -0.1484
   73MOL0     C 9727   1.963   9.616   1.834 -0.8782 -0.1502 -1.1920
   73MOL0     O 9728   2.046   9.719   1.850 -0.8624 -0.2942  0.3540
   73MOL0     C 9729   2.065   9.750   1.994  0.0683  0.0037 -0.1308
   73MOL0     C 9730   2.206   9.775   2.014 -0.2447 -0.4395  0.4774
   73MOL0     C 9731   2.288   9.643   2.007 -0.5195 -0.4766 -0.7971
   73MOL0     C 9732   2.437   9.657   2.051  0.3805 -0.0953 -0.5789
   73MOL0     C 9733   2.518   9.521   2.050  0.1458 -0.3202 -1.0694
   73MOL0     C 9734   2.671   9.551   2.042  0.6097 -0.2942  0.1450
   73MOL0     C 9735   2.752   9.422   2.023 -0.0010 -0.8593 -0.5028
   73MOL0     C 9736   2.905   9.446   2.034 -0.2598 -0.1589 -0.1680
   73MOL0     N 9737   2.972   9.335   2.105 -0.6463 -0.3688  1.1968
   73MOL0     C 9738   3.022   9.349   2.234  0.3301  0.3394 -0.7057
   73MOL0     C 9739   3.122   9.260   2.240  0.1072  0.1795 -0.2313
   73MOL0     C 9740   3.201   9.232   2.370 -0.1105  0.0229  0.1696
   73MOL0     C 9741   3.346   9.279   2.371 -0.0406 -0.0087 -0.4881
   73MOL0     C 9742   3.401   9.308   2.512  0.3567 -0.6450 -0.3639
   73MOL0     C 9743   3.550   9.279   2.526  0.2599  0.1325  0.5504
   73MOL0     O 9744   3.599   9.299   2.659  0.5545  0.2572 -0.5998
   73MOL0     C 9745   3.732   9.293   2.682  0.6422 -0.0791  0.0735
   73MOL0     C 9746   3.776   9.310   2.815  0.8354  0.0530 -0.2871
   73MOL0     C 9747   3.913   9.316   2.848 -0.4931 -0.6854  0.2574
   73MOL0     C 9748   4.016   9.300   2.745  0.3269  0.3528 -1.1172
   73MOL0     C 9749   4.167   9.286   2.772  0.7474 -0.4402 -0.1013
   73MOL0     O 9750   4.253   9.274   2.671 -0.2013 -0.7201 -0.1664
   73MOL0     C 9751   4.388   9.260   2.697 -0.4415  0.8251  0.1496
   73MOL0     C 9752   4.444   9.206   2.818  0.8261  0.1392 -0.3244
   73MOL0     C 9753   4.576   9.189   2.834  0.0349  0.7480 -0.3467
   73MOL0     C 9754   4.670   9.220   2.730 -0.0202  0.5778 -0.3470
   73MOL0     O 9755   4.802   9.188   2.729 -0.3289 -0.7917 -0.1798
   73MOL0     C 9756   4.875   9.224   2.846  0.5098  0.3162  0.1034
   73MOL0     C 9757   4.919   9.087   2.898  0.8065 -0.0385  0.6738
   73MOL0     C 9758   5.020   9.021   2.807 -0.7622  0.6764  0.1293
   73MOL0     C 9759   5.052   8.884   2.857 -0.1617  0.9364  0.3603
   73MOL0     C 9760   5.163   8.822   2.768  0.5723  0.1068  0.2210
   73MOL0     C 9761   5.208   8.695   2.846 -0.3968  0.3716  0.3344
   73MOL0     C 9762   5.347   8.639   2.779 -0.4464  0.1379  0.8966
   73MOL0     C 9763   5.342   8.549   2.661 -0.2717 -0.4809 -0.2667
   73MOL0    Cl 9764   5.499   8.560   2.571  0.0569  0.1925 -0.1509
   73MOL0     C 9765   4.613   9.272   2.609 -0.4855 -0.4298 -0.4109
   73MOL0     C 9766   4.476   9.284   2.595  0.4408  0.8092 -0.4905
   73MOL0     O 9767   4.199   9.316   2.887 -0.4130 -0.0162  0.1979
   73MOL0     C 9768   3.968   9.274   2.615 -0.9336  0.9968 -0.0629
   73MOL0     C 9769   3.829   9.273   2.586  0.1663  0.2178  0.7033
   73MOL0     N 9770   3.144   9.200   2.115 -0.0066 -0.5135  0.2540
   73MOL0     N 9771   3.052   9.241   2.039 -0.2594  0.2348 -0.2993
   73MOL0     C 9772   1.996   9.500   1.750 -0.6148 -0.9572 -0.1907
   73MOL0     C 9773   1.907   9.393   1.735 -0.3345  0.7432  0.2522
   73MOL0     C 9774   1.585   9.067   1.831  0.8874 -0.5857 -0.1849
   73MOL0     C 9775   1.650   8.998   1.725  0.1385 -0.6960  0.1650
   73MOL0     C 9776   1.623   8.866   1.694  0.0204 -0.3193  0.8387
   73MOL0     C 9777   1.523   8.801   1.752  0.3396 -0.3024  0.6252
   73MOL0     O 9778   1.473   8.677   1.700 -0.6137 -0.0249 -0.3419
   73MOL0     C 9779   1.476   8.653   1.560  0.1632 -0.2326 -0.0696
   73MOL0     C 9780   1.394   8.532   1.531 -1.2133 -0.2121 -0.4423
   73MOL0     C 9781   1.443   8.414   1.631  0.0776 -0.2047  0.0532
   73MOL0     C 9782   1.443   8.278   1.553 -0.3611 -0.2042 -0.4300
   73MOL0     C 9783   1.307   8.244   1.519  0.7883 -0.1113  0.1094
   73MOL0     C 9784   1.196   8.234   1.487  0.5801  0.3626 -0.2660
   73MOL0     C 9785   1.464   8.852   1.864 -0.5377 -0.2697  0.3004
   73MOL0     C 9786   1.496   8.982   1.910 -0.2210 -0.0580  0.4978
   73MOL0     C 9787   1.419   9.037   2.026 -0.1342  0.0081 -0.1247
   73MOL0     H 9788   1.662   9.511   1.943  0.3216  6.0914 -1.9323
   73MOL0     H 9789   1.811   9.687   1.968  0.3242 -1.2510  1.8599
   73MOL0     H 9790   2.000   9.836   2.013 -0.2626  0.3980 -2.7397
   73MOL0     H 9791   2.033   9.669   2.059  0.3233 -0.4107 -0.5152
   73MOL0     H 9792   2.228   9.824   2.109  1.5251 -0.7655  0.2865
   73MOL0     H 9793   2.241   9.844   1.937 -1.7644  0.2814  0.3968
   73MOL0     H 9794   2.293   9.600   1.907  0.2305  1.0259 -1.4353
   73MOL0     H 9795   2.244   9.567   2.072  0.7057  0.5838  1.3926
   73MOL0     H 9796   2.477   9.733   1.984 -1.4514 -0.4138 -2.1290
   73MOL0     H 9797   2.447   9.698   2.152  2.2448 -0.5265 -0.5486
   73MOL0     H 9798   2.501   9.465   2.142 -2.5456  0.3886 -1.0686
   73MOL0     H 9799   2.486   9.466   1.962  0.9301 -0.4319 -1.2932
   73MOL0     H 9800   2.681   9.618   1.956  0.4295  0.5403  0.7632
   73MOL0     H 9801   2.702   9.603   2.133  0.2354  0.3619 -0.0931
   73MOL0     H 9802   2.724   9.366   1.934  1.6435 -0.8035 -1.0884
   73MOL0     H 9803   2.720   9.364   2.111 -2.2361  1.8789  0.6410
   73MOL0     H 9804   2.943   9.460   1.933 -3.0987 -1.9472 -1.6207
   73MOL0     H 9805   2.935   9.533   2.093 -0.4185  0.4780 -1.0107
   73MOL0     H 9806   2.979   9.408   2.314 -0.1518 -0.6762 -0.1976
   73MOL0     H 9807   3.155   9.273   2.461  0.2089  2.1232 -0.5546
   73MOL0     H 9808   3.211   9.125   2.390  1.3128  0.1152  0.0064
   73MOL0     H 9809   3.405   9.199   2.325 -0.8050 -0.9322  0.1026
   73MOL0     H 9810   3.364   9.370   2.314 -1.8072  0.7135  0.0274
   73MOL0     H 9811   3.351   9.233   2.575  2.0564 -2.3942 -0.9786
   73MOL0     H 9812   3.382   9.414   2.531  1.8107 -0.5396  0.7076
   73MOL0     H 9813   3.601   9.344   2.454 -2.7224  0.2595 -1.6271
   73MOL0     H 9814   3.575   9.177   2.495  4.8894  1.4849 -1.0520
   73MOL0     H 9815   3.702   9.317   2.894  3.5628 -0.9387  2.5761
   73MOL0     H 9816   3.939   9.338   2.951 -2.4744 -2.3674  1.2018
   73MOL0     H 9817   4.382   9.173   2.900  2.0485 -0.4089  0.4072
   73MOL0     H 9818   4.603   9.138   2.926 -0.5060  0.1319 -0.5217
   73MOL0     H 9819   4.968   9.277   2.822  0.3780  0.5629  0.1418
   73MOL0     H 9820   4.825   9.265   2.934  2.2155  0.6890  0.9443
   73MOL0     H 9821   4.947   9.095   3.003  1.1097 -1.8756  0.7735
   73MOL0     H 9822   4.836   9.015   2.896 -1.0577  2.0038 -0.5715
   73MOL0     H 9823   4.987   9.018   2.703  1.8775  2.5967 -0.8692
   73MOL0     H 9824   5.106   9.088   2.802  0.3689 -0.7797 -0.8723
   73MOL0     H 9825   4.961   8.823   2.866 -1.3188  2.8919  4.1852
   73MOL0     H 9826   5.090   8.894   2.959  0.8077  1.0434 -0.0064
   73MOL0     H 9827   5.245   8.894   2.762 -0.7945  1.6404 -0.5022
   73MOL0     H 9828   5.122   8.805   2.669 -1.0187 -1.4352  1.0956
   73MOL0     H 9829   5.226   8.729   2.949 -0.1456  1.2659  0.0072
   73MOL0     H 9830   5.128   8.621   2.852 -0.6138  0.7125  3.0634
   73MOL0     H 9831   5.406   8.581   2.850 -2.3138 -2.3145  0.5837
   73MOL0     H 9832   5.411   8.724   2.755  1.3341 -1.0207  1.3248
   73MOL0     H 9833   5.292   8.457   2.692 -2.6276  0.1836 -1.9010
   73MOL0     H 9834   5.276   8.596   2.588  0.3328  0.8169 -0.0074
   73MOL0     H 9835   4.688   9.290   2.532 -0.0826 -0.4780 -0.0283
   73MOL0     H 9836   4.437   9.314   2.498 -0.8693 -1.7621 -0.8296
   73MOL0     H 9837   4.041   9.255   2.538 -0.0257 -0.0136  1.0058
   73MOL0     H 9838   3.803   9.241   2.486  1.7122 -0.4480  0.4798
   73MOL0     H 9839   2.100   9.485   1.723 -0.3460  0.9340 -0.3612
   73MOL0     H 9840   1.942   9.317   1.666 -0.3195  0.3585  0.6845
   73MOL0     H 9841   1.718   9.055   1.661  0.8398  1.8108  2.9185
   73MOL0     H 9842   1.680   8.831   1.608 -0.4214  1.7379 -0.3632
   73MOL0     H 9843   1.578   8.644   1.522 -0.2780 -1.0026 -1.1223
   73MOL0     H 9844   1.428   8.734   1.504  0.2710 -0.2260 -0.1530
   73MOL0     H 9845   1.413   8.518   1.424 -1.4136  2.5315 -0.9226
   73MOL0     H 9846   1.288   8.551   1.551 -0.7270  0.1178  2.1664
   73MOL0     H 9847   1.373   8.430   1.714  1.3161  0.1195  1.0770
   73MOL0     H 9848   1.544   8.428   1.671  0.0372 -2.4742  1.0770
   73MOL0     H 9849   1.504   8.287   1.462  1.7018  1.8942  1.0536
   73MOL0     H 9850   1.490   8.196   1.609  1.5284 -1.0452 -3.0264
   73MOL0     H 9851   1.099   8.238   1.442  0.1873 -1.3434  0.3368
   73MOL0     H 9852   1.388   8.788   1.908  0.9258 -1.8892  0.6021
   73MOL0     H 9853   1.336   8.972   2.055 -0.3295 -0.1531 -0.9969
   73MOL0     H 9854   1.478   9.049   2.116 -3.8110  1.2812  2.3499
   73MOL0     H 9855   1.385   9.137   1.996  1.8672  0.2799 -1.7030
   74MOL0     O 9856   6.035   0.724   3.169  0.0327 -0.0855 -0.0337
   74MOL0     C 9857   6.000   0.660   3.072 -0.7924  0.0427  0.9333
   74MOL0     O 9858   6.095   0.605   2.983  0.4502  0.4957  0.3306
   74MOL0     C 9859   6.225   0.601   3.030 -0.0272 -0.5384  0.2170
   74MOL0     C 9860   6.267   0.503   3.119  0.6725 -0.8087 -0.3643
   74MOL0     C 9861   6.395   0.496   3.169 -0.6996 -0.4516  0.2005
   74MOL0     C 9862   6.492   0.580   3.109 -0.7522  0.0131 -0.1595
   74MOL0     O 9863   6.622   0.572   3.151  0.1258  0.1776 -0.6596
   74MOL0     C 9864   6.698   0.450   3.138  0.6292 -0.0301  0.7837
   74MOL0     C 9865   6.838   0.469   3.077  0.5932  0.5466  1.1426
   74MOL0     C 9866   6.927   0.543   3.178  0.0591  0.5616  0.1315
   74MOL0     C 9867   7.067   0.472   3.202 -0.2460 -0.2184  0.3680
   74MOL0     C 9868   7.153   0.542   3.304 -0.4072 -0.7870  0.5317
   74MOL0     C 9869   7.290   0.489   3.275  0.8138  0.3057 -0.4717
   74MOL0     C 9870   7.402   0.560   3.350  0.9941 -0.1144  0.3491
   74MOL0     C 9871   7.530   0.522   3.287 -1.4065  0.6117 -0.6109
   74MOL0     N 9872   7.647   0.567   3.366  0.2524 -0.0617  0.2628
   74MOL0     C 9873   7.736   0.673   3.334  0.4234  0.3893 -0.1672
   74MOL0     C 9874   7.818   0.674   3.441  0.6313 -0.7287  0.5515
   74MOL0     C 9875   7.919   0.786   3.461 -0.3133 -0.4513  0.7147
   74MOL0     C 9876   8.036   0.733   3.534  0.4773  0.3061 -0.3594
   74MOL0     C 9877   8.153   0.834   3.541  0.7771 -0.2915 -0.0059
   74MOL0     C 9878   8.260   0.779   3.628 -0.0404 -0.0455 -0.2072
   74MOL0     O 9879   8.327   0.668   3.556 -0.6297 -0.2961 -0.2324
   74MOL0     C 9880   8.448   0.626   3.597  0.2943 -1.0219  0.1913
   74MOL0     C 9881   8.504   0.655   3.723 -0.1334 -1.0124  0.3998
   74MOL0     C 9882   8.613   0.582   3.778 -0.2542  0.3140  0.3338
   74MOL0     C 9883   8.678   0.499   3.684  0.9230  0.0781  0.6439
   74MOL0     C 9884   8.798   0.423   3.730 -0.3580 -0.9125  0.6753
   74MOL0     O 9885   8.843   0.444   3.857 -0.6887 -0.0559 -0.0910
   74MOL0     C 9886   8.972   0.419   3.900  1.3117 -0.2285 -0.4228
   74MOL0     C 9887   9.081   0.493   3.856 -0.7383  0.2558 -0.1264
   74MOL0     C 9888   9.206   0.478   3.917  0.4235  0.2984  0.7553
   74MOL0     C 9889   9.226   0.376   4.014  0.0541 -0.0176 -0.6123
   74MOL0     O 9890   9.346   0.363   4.076 -0.7460 -0.1794 -0.1510
   74MOL0     C 9891   9.411   0.235   4.041  0.5822  0.2915  0.5871
   74MOL0     C 9892   9.563   0.255   4.035 -0.5572 -0.4311  0.1278
   74MOL0     C 9893   9.632   0.128   3.988 -0.2811  0.2796 -0.2942
   74MOL0     C 9894   9.786   0.136   3.980 -0.1739  0.0405 -0.0684
   74MOL0     C 9895   9.837   0.004   3.915 -0.1658  0.0238  0.8756
   74MOL0     C 9896   9.984  -0.014   3.918  0.2573  0.6418 -0.0133
   74MOL0     C 9897  10.060   0.087   3.830  0.3181  0.6149  0.5961
   74MOL0     C 9898  10.049   0.063   3.678 -0.2023 -0.2837  0.5973
   74MOL0    Cl 9899  10.091  -0.103   3.628  0.2497 -0.7138 -0.1475
   74MOL0     C 9900   9.120   0.303   4.064 -0.0796  0.2224 -0.0238
   74MOL0     C 9901   8.993   0.328   4.007 -0.4660  0.4944  1.0181
   74MOL0     O 9902   8.862   0.357   3.645 -0.2468 -0.4075 -0.0325
   74MOL0     C 9903   8.630   0.479   3.550 -0.5749  0.2205 -0.3154
   74MOL0     C 9904   8.519   0.551   3.508  0.8802 -0.2101 -1.1786
   74MOL0     N 9905   7.780   0.585   3.532  0.4086 -0.2086  0.4377
   74MOL0     N 9906   7.680   0.515   3.484 -1.0430  0.6879 -0.7995
   74MOL0     C 9907   6.461   0.673   3.009 -0.2152  0.1272  0.0554
   74MOL0     C 9908   6.325   0.692   2.975 -0.7595 -0.1448 -0.0138
   74MOL0     C 9909   5.855   0.633   3.039 -0.7392 -0.4012 -0.2765
   74MOL0     C 9910   5.823   0.549   2.931 -0.8650 -0.3597 -0.4189
   74MOL0     C 9911   5.695   0.514   2.903 -0.1857  0.5116  0.2845
   74MOL0     C 9912   5.591   0.570   2.974 -0.4440  0.4884  0.8179
   74MOL0     O 9913   5.471   0.544   2.916 -0.2739 -0.0554  0.3837
   74MOL0     C 9914   5.355   0.567   3.000  0.2795 -0.3878  0.3420
   74MOL0     C 9915   5.228   0.516   2.933  0.3654  0.4203  0.0379
   74MOL0     C 9916   5.236   0.377   2.863 -1.0880 -0.0099 -0.5297
   74MOL0     C 9917   5.119   0.285   2.855  0.5758 -0.4662  0.1365
   74MOL0     C 9918   4.997   0.361   2.815  0.3648 -0.0860  0.0500
   74MOL0     C 9919   4.908   0.441   2.798  0.3103 -0.8105  0.3694
   74MOL0     C 9920   5.618   0.653   3.084 -0.5063  0.3234 -0.4788
   74MOL0     C 9921   5.753   0.690   3.115 -0.3832  0.0134 -0.1001
   74MOL0     C 9922   5.767   0.783   3.230  0.0041 -0.1899 -0.2929
   74MOL0     H 9923   6.193   0.437   3.164 -1.2824  1.2551 -0.3844
   74MOL0     H 9924   6.422   0.426   3.248 -0.4333 -1.0269 -0.3854
   74MOL0     H 9925   6.722   0.403   3.233  1.9086 -2.5211 -0.6694
   74MOL0     H 9926   6.632   0.381   3.084  0.4371  1.3947 -0.9097
   74MOL0     H 9927   6.847   0.518   2.980  1.2151  1.8505  1.8236
   74MOL0     H 9928   6.885   0.371   3.066 -0.9911 -0.5371  3.2685
   74MOL0     H 9929   6.874   0.554   3.273 -1.0551  3.7827 -0.7301
   74MOL0     H 9930   6.938   0.645   3.139  1.4911  0.0835 -0.8092
   74MOL0     H 9931   7.060   0.368   3.236 -0.5682 -0.3595 -0.1093
   74MOL0     H 9932   7.120   0.458   3.107 -0.6204  0.0776  0.1130
   74MOL0     H 9933   7.159   0.650   3.283 -3.7785  0.1637  3.4579
   74MOL0     H 9934   7.120   0.540   3.408  0.3121  1.0073  0.8380
   74MOL0     H 9935   7.289   0.385   3.309 -2.2475 -0.3134 -2.0804
   74MOL0     H 9936   7.311   0.507   3.169 -1.3801  0.8453 -0.8538
   74MOL0     H 9937   7.392   0.528   3.454 -1.9984 -2.1496 -0.4224
   74MOL0     H 9938   7.390   0.669   3.343  0.2207  0.0258  2.7339
   74MOL0     H 9939   7.544   0.417   3.260  0.4415  0.8958 -0.8502
   74MOL0     H 9940   7.535   0.586   3.198  0.0200  5.8994  2.8291
   74MOL0     H 9941   7.726   0.738   3.247  1.7953 -0.3842 -0.9379
   74MOL0     H 9942   7.947   0.819   3.360 -1.9842 -2.0879 -0.3425
   74MOL0     H 9943   7.879   0.871   3.516 -2.1007  1.0904 -2.6895
   74MOL0     H 9944   8.002   0.706   3.635  0.6210  0.2428 -0.3262
   74MOL0     H 9945   8.073   0.640   3.491 -0.1581 -0.6333  1.0295
   74MOL0     H 9946   8.111   0.928   3.579  0.5952 -0.8457  1.1879
   74MOL0     H 9947   8.195   0.858   3.443 -0.2871  3.3355  0.2671
   74MOL0     H 9948   8.227   0.731   3.721  2.6845  1.7859  1.8734
   74MOL0     H 9949   8.332   0.859   3.648  1.3928 -1.5866  1.1589
   74MOL0     H 9950   8.462   0.737   3.779  2.5821  1.2132 -0.5968
   74MOL0     H 9951   8.653   0.613   3.874 -1.7731  1.9610  0.4848
   74MOL0     H 9952   9.063   0.569   3.781  0.3410 -0.1129 -0.7848
   74MOL0     H 9953   9.289   0.540   3.884 -0.4441  2.2154  1.9832
   74MOL0     H 9954   9.372   0.166   4.116  2.0841 -0.6060  0.5735
   74MOL0     H 9955   9.371   0.207   3.944 -0.0191  4.3350 -0.5247
   74MOL0     H 9956   9.583   0.336   3.964  0.3756 -2.2045 -1.7275
   74MOL0     H 9957   9.591   0.273   4.139 -1.4598  1.6983  0.0418
   74MOL0     H 9958   9.612   0.041   4.052 -2.1564 -0.4123 -1.7308
   74MOL0     H 9959   9.599   0.087   3.892  1.6043 -1.1399 -0.3946
   74MOL0     H 9960   9.825   0.152   4.081  0.7271 -1.8980 -0.0693
   74MOL0     H 9961   9.804   0.227   3.922 -0.4249  1.1207  1.4658
   74MOL0     H 9962   9.799  -0.004   3.813  0.0763  0.8607  0.7118
   74MOL0     H 9963   9.798  -0.076   3.979 -0.8063  0.2933  0.8250
   74MOL0     H 9964  10.008  -0.003   4.024  1.3861 -2.5016  0.1814
   74MOL0     H 9965  10.014  -0.116   3.889  0.5726  0.7948 -0.2292
   74MOL0     H 9966  10.167   0.078   3.853  0.0121 -1.9255  1.2652
   74MOL0     H 9967  10.028   0.190   3.851 -1.7342 -0.1543  1.4903
   74MOL0     H 9968   9.949   0.098   3.651 -0.6882  1.5431  4.1075
   74MOL0     H 9969  10.131   0.116   3.628 -0.7406 -0.7141 -0.7972
   74MOL0     H 9970   9.132   0.230   4.143 -0.6119 -0.0681 -0.2064
   74MOL0     H 9971   8.914   0.262   4.042 -1.1944 -1.7458 -3.9171
   74MOL0     H 9972   8.696   0.415   3.492 -2.4869 -1.8424 -0.3415
   74MOL0     H 9973   8.492   0.546   3.403  1.5024 -1.9892 -1.2914
   74MOL0     H 9974   6.536   0.730   2.955 -3.3591  2.4743 -2.2571
   74MOL0     H 9975   6.316   0.772   2.903 -0.9620  0.1127  0.2930
   74MOL0     H 9976   5.902   0.494   2.882 -1.9345 -2.4788  0.1241
   74MOL0     H 9977   5.664   0.458   2.815  0.1313 -0.7515  0.9635
   74MOL0     H 9978   5.332   0.667   3.035  1.4544  0.4922 -1.2459
   74MOL0     H 9979   5.364   0.500   3.086  0.2039 -0.9114 -0.0462
   74MOL0     H 9980   5.212   0.592   2.857  2.0501  1.4775  0.6860
   74MOL0     H 9981   5.138   0.520   2.996  1.9079 -0.6379  2.4797
   74MOL0     H 9982   5.311   0.324   2.923 -2.0809  0.7388  1.4625
   74MOL0     H 9983   5.276   0.406   2.766  1.2040  1.9135  0.8507
   74MOL0     H 9984   5.149   0.232   2.764  2.9275  0.6070  0.2054
   74MOL0     H 9985   5.101   0.224   2.944  2.2220  2.0652  2.3936
   74MOL0     H 9986   4.824   0.505   2.780  1.0070 -0.6930 -3.0201
   74MOL0     H 9987   5.533   0.684   3.144  0.7979 -2.7195  3.4462
   74MOL0     H 9988   5.816   0.729   3.312  0.3919 -1.4144 -1.2891
   74MOL0     H 9989   5.821   0.871   3.194 -3.2157  1.8708 -0.4221
   74MOL0     H 9990   5.674   0.827   3.267  1.2526  1.6377  0.8461
   75MOL0     O 9991   1.755   7.007  10.287 -0.1911 -0.6242  0.3430
   75MOL0     C 9992   1.770   7.093  10.203 -0.1112  0.1793 -0.5160
   75MOL0     O 9993   1.892   7.121  10.148  0.4155 -0.0096 -0.4519
   75MOL0     C 9994   2.002   7.040  10.145  0.6777 -0.3113 -0.0930
   75MOL0     C 9995   1.996   6.904  10.163 -0.4257  0.5150  0.3287
   75MOL0     C 9996   2.109   6.820  10.174  0.1875 -1.1403  0.2823
   75MOL0     C 9997   2.238   6.878  10.163 -0.0795  0.5604 -0.4071
   75MOL0     O 9998   2.355   6.802  10.185  0.3685  0.4057  0.6256
   75MOL0     C 9999   2.378   6.693  10.098 -0.4122 -0.4283 -0.5581
   75MOL0     C10000   2.423   6.739   9.958 -0.3346 -0.3954  1.5953
   75MOL0     C10001   2.572   6.797   9.962  0.0371 -0.4646 -0.7280
   75MOL0     C10002   2.599   6.888   9.841  0.6142 -0.3982  0.2304
   75MOL0     C10003   2.558   6.836   9.699  0.6822 -0.6401  0.5496
   75MOL0     C10004   2.654   6.724   9.648 -0.5947 -0.0776 -0.6938
   75MOL0     C10005   2.614   6.695   9.506  1.2968 -0.8782  0.3533
   75MOL0     C10006   2.724   6.605   9.449 -0.0259  0.4454  0.6637
   75MOL0     N10007   2.687   6.571   9.314 -0.4030  0.4869  0.7026
   75MOL0     C10008   2.742   6.619   9.193  0.0082 -0.0874 -0.3360
   75MOL0     C10009   2.738   6.513   9.107 -0.0804 -0.1872  0.1269
   75MOL0     C10010   2.773   6.500   8.958  0.3959  0.1625 -0.7794
   75MOL0     C10011   2.910   6.419   8.939 -0.0336  0.3797 -0.3834
   75MOL0     C10012   2.885   6.271   8.936  0.0354 -0.3585  0.0257
   75MOL0     C10013   3.012   6.182   8.929  0.9266  0.2561  0.2326
   75MOL0     O10014   3.077   6.216   8.806 -0.5972  0.1085 -0.8882
   75MOL0     C10015   3.207   6.168   8.797  0.5252 -0.5312  0.6459
   75MOL0     C10016   3.240   6.036   8.841  0.0981  0.9074  0.7337
   75MOL0     C10017   3.369   5.994   8.855  0.3542 -0.8042 -0.8332
   75MOL0     C10018   3.477   6.088   8.833 -0.4533  0.1956 -0.2649
   75MOL0     C10019   3.621   6.051   8.847 -0.3111 -0.2298  0.1734
   75MOL0     O10020   3.712   6.154   8.831  0.1062  1.1116 -0.2902
   75MOL0     C10021   3.841   6.109   8.836 -0.1782 -0.0836 -0.0321
   75MOL0     C10022   3.933   6.107   8.733 -0.1261 -1.1866 -0.5440
   75MOL0     C10023   4.061   6.072   8.749 -0.7282 -0.5792  0.5264
   75MOL0     C10024   4.112   6.020   8.873 -0.0151  0.0233  0.0890
   75MOL0     O10025   4.233   5.960   8.896  0.2471  0.3696  0.4348
   75MOL0     C10026   4.317   5.938   8.780 -0.1024 -0.2963 -0.6236
   75MOL0     C10027   4.420   5.832   8.812 -0.1354  0.2802  0.2546
   75MOL0     C10028   4.526   5.873   8.912 -0.0910  0.0520  0.1245
   75MOL0     C10029   4.637   5.778   8.928  0.2248 -0.9451 -0.2309
   75MOL0     C10030   4.713   5.783   9.059 -0.5081 -0.4011 -0.2968
   75MOL0     C10031   4.758   5.928   9.102  0.5043  0.5776  0.6368
   75MOL0     C10032   4.893   5.983   9.053  0.3385 -0.2389 -0.5114
   75MOL0     C10033   4.995   5.972   9.162  0.0290  0.4404  0.4013
   75MOL0    Cl10034   5.147   6.040   9.111  0.1558 -0.2182 -0.6583
   75MOL0     C10035   4.014   6.015   8.981 -0.8727  0.5502  0.3914
   75MOL0     C10036   3.884   6.066   8.966 -1.1542  0.1591 -0.0015
   75MOL0     O10037   3.641   5.937   8.868  0.1633 -0.0133  0.1447
   75MOL0     C10038   3.444   6.213   8.776  0.4325  0.2962  1.3801
   75MOL0     C10039   3.310   6.260   8.750 -0.7834  0.3561 -1.0756
   75MOL0     N10040   2.662   6.407   9.169  0.4692  0.5148  0.2884
   75MOL0     N10041   2.635   6.449   9.286 -0.0105 -0.0750  0.6961
   75MOL0     C10042   2.248   7.016  10.123  0.3534  1.1888  0.0246
   75MOL0     C10043   2.130   7.090  10.122  0.6469 -0.3566  0.2574
   75MOL0     C10044   1.657   7.177  10.152 -0.5346 -0.3185 -0.1281
   75MOL0     C10045   1.681   7.283  10.068 -0.7609  0.5814 -0.9116
   75MOL0     C10046   1.583   7.357  10.009 -0.5161  0.4093  0.2002
   75MOL0     C10047   1.451   7.328  10.046  0.0772  0.5751  0.2656
   75MOL0     O10048   1.359   7.416   9.992  0.3010  0.2219  0.0401
   75MOL0     C10049   1.275   7.484  10.089  0.5635  0.2981  0.5283
   75MOL0     C10050   1.350   7.611  10.137  0.7409  0.4078 -0.0812
   75MOL0     C10051   1.423   7.690  10.033  0.2064 -0.6929  0.6827
   75MOL0     C10052   1.518   7.779  10.108 -0.5396  0.5827 -0.1317
   75MOL0     C10053   1.621   7.830  10.015  1.1575  0.2660 -0.4073
   75MOL0     C10054   1.697   7.897   9.952  0.2765 -0.4296 -0.9189
   75MOL0     C10055   1.418   7.216  10.126 -0.0410  1.2733 -0.0621
   75MOL0     C10056   1.525   7.146  10.182  0.4221 -0.7568 -0.1724
   75MOL0     C10057   1.484   7.032  10.276 -0.5187 -0.5748  0.5929
   75MOL0     H10058   1.905   6.846  10.172 -1.6800  2.3037 -0.3027
   75MOL0     H10059   2.089   6.720  10.210  0.7468 -0.7047  1.8674
   75MOL0     H10060   2.459   6.632  10.139 -0.7080  0.0295  0.7373
   75MOL0     H10061   2.290   6.627  10.089 -1.4023  0.7783  0.0407
   75MOL0     H10062   2.363   6.822   9.920 -0.0456 -1.3637 -1.2400
   75MOL0     H10063   2.420   6.654   9.890  1.0630 -0.9645  2.2170
   75MOL0     H10064   2.637   6.709   9.957  0.6051 -0.2154  1.2865
   75MOL0     H10065   2.599   6.854  10.052  2.2031  0.2240 -1.7432
   75MOL0     H10066   2.530   6.972   9.847  0.1491 -0.7457 -0.2081
   75MOL0     H10067   2.703   6.923   9.832  0.7353 -0.4061  1.4614
   75MOL0     H10068   2.450   6.815   9.691  0.9187 -1.6885 -0.1598
   75MOL0     H10069   2.572   6.918   9.628 -0.5352 -1.5676 -0.8276
   75MOL0     H10070   2.758   6.758   9.653  0.2550 -2.1843 -2.3622
   75MOL0     H10071   2.649   6.638   9.715 -4.0742  2.8159  3.3350
   75MOL0     H10072   2.598   6.784   9.445 -1.0805 -0.9142  0.8350
   75MOL0     H10073   2.517   6.646   9.505  0.1767  1.2342 -1.3728
   75MOL0     H10074   2.814   6.666   9.439  0.2876 -0.3377 -1.8169
   75MOL0     H10075   2.743   6.516   9.510 -1.7592 -0.6681 -0.3258
   75MOL0     H10076   2.781   6.720   9.189  1.0821 -0.3631  1.7965
   75MOL0     H10077   2.686   6.461   8.904  0.1213  1.8383 -1.6226
   75MOL0     H10078   2.796   6.600   8.919 -0.6975  0.3666 -0.9283
   75MOL0     H10079   2.947   6.455   8.843  0.7664  2.3290  0.5958
   75MOL0     H10080   2.978   6.456   9.017 -2.0405  3.1531  0.2064
   75MOL0     H10081   2.831   6.243   8.845  2.5427 -1.7199 -1.1457
   75MOL0     H10082   2.833   6.239   9.027 -0.5357  1.1533  0.2542
   75MOL0     H10083   2.991   6.075   8.939  3.6179 -0.3440  0.2533
   75MOL0     H10084   3.080   6.211   9.010  2.1014  1.6264 -1.1646
   75MOL0     H10085   3.158   5.967   8.863 -0.0499  1.8711  3.6413
   75MOL0     H10086   3.377   5.892   8.891  1.7237 -1.8570 -3.7629
   75MOL0     H10087   3.904   6.141   8.634  0.0044  2.8769  0.6074
   75MOL0     H10088   4.118   6.048   8.659  1.7532 -0.9588  2.0944
   75MOL0     H10089   4.269   5.897   8.691  0.3970 -2.3437 -0.0017
   75MOL0     H10090   4.355   6.034   8.744 -0.6227  0.4081  0.6242
   75MOL0     H10091   4.363   5.742   8.838  1.1119 -1.5046 -2.7691
   75MOL0     H10092   4.471   5.805   8.719  1.7187  0.6984  1.1019
   75MOL0     H10093   4.566   5.967   8.872 -1.5444  0.8740  0.5456
   75MOL0     H10094   4.490   5.895   9.012  1.0173  0.1027  0.5310
   75MOL0     H10095   4.721   5.784   8.857  1.2404 -0.6103  0.9686
   75MOL0     H10096   4.595   5.678   8.912 -1.1656 -1.0412  3.2319
   75MOL0     H10097   4.801   5.719   9.066  0.6317  1.0304 -0.8298
   75MOL0     H10098   4.642   5.737   9.128 -0.6008  0.9957  0.5778
   75MOL0     H10099   4.680   5.992   9.060  0.7313  0.7489  0.4686
   75MOL0     H10100   4.751   5.947   9.209  0.6329  0.9338  0.5871
   75MOL0     H10101   4.872   6.084   9.017 -0.0532 -0.5979 -1.3252
   75MOL0     H10102   4.925   5.917   8.971 -1.8321 -1.2270 -0.6384
   75MOL0     H10103   4.958   6.026   9.250  1.4392  3.1157 -0.5460
   75MOL0     H10104   5.000   5.866   9.187  1.2337  0.1870 -0.8258
   75MOL0     H10105   4.034   5.960   9.072 -0.5448 -2.3018 -1.2828
   75MOL0     H10106   3.816   6.066   9.051 -1.6542  5.0500 -0.1117
   75MOL0     H10107   3.519   6.284   8.744 -0.4306  0.7595  0.2969
   75MOL0     H10108   3.299   6.362   8.715 -2.9452  1.1181  1.5303
   75MOL0     H10109   2.339   7.071  10.104  1.0053  0.5020  1.0709
   75MOL0     H10110   2.150   7.196  10.106  4.1983 -0.6996  1.4567
   75MOL0     H10111   1.785   7.311  10.057 -0.8641  1.6926  0.7189
   75MOL0     H10112   1.620   7.439   9.948  2.2763  0.0371  1.2234
   75MOL0     H10113   1.254   7.424  10.179 -0.6749 -0.2337 -0.0885
   75MOL0     H10114   1.183   7.505  10.034  0.1991  1.0249  1.3856
   75MOL0     H10115   1.419   7.572  10.212 -2.8140 -1.8507  2.3324
   75MOL0     H10116   1.281   7.679  10.186  0.5743  0.4097 -0.3207
   75MOL0     H10117   1.352   7.745   9.971  1.2030 -3.3016 -3.1355
   75MOL0     H10118   1.480   7.620   9.970  0.1698  0.7806 -1.0417
   75MOL0     H10119   1.478   7.862  10.165  1.5440  2.9133 -1.8379
   75MOL0     H10120   1.584   7.712  10.164  0.0389  1.7636  0.6303
   75MOL0     H10121   1.769   7.965   9.912 -0.0489  1.0478  0.8742
   75MOL0     H10122   1.316   7.182  10.142 -0.5133  1.8503 -1.6917
   75MOL0     H10123   1.539   7.046  10.369  0.0343  0.6002  0.1146
   75MOL0     H10124   1.377   7.014  10.288 -0.5681 -1.7384 -1.1370
   75MOL0     H10125   1.523   6.936  10.239 -1.2638 -0.9868  0.8542
   76MOL0     O10126  10.635  10.565   2.945  0.6057  0.0208  0.5665
   76MOL0     C10127  10.624  10.687   2.957  0.1345  0.4721  0.2456
   76MOL0     O10128  10.727  10.779   2.978 -0.6783  0.3695 -1.1193
   76MOL0     C10129  10.857  10.747   3.023  0.2808  0.2471  0.4687
   76MOL0     C10130  10.943  10.853   3.016  0.6620  0.2999  0.8897
   76MOL0     C10131  11.068  10.847   3.073 -0.5244  1.0189  0.4482
   76MOL0     C10132  11.118  10.725   3.110 -0.4308  0.8845  0.2043
   76MOL0     O10133  11.254  10.718   3.124  0.3195 -0.3589  0.4127
   76MOL0     C10134  11.319  10.593   3.158  0.3009 -1.1424 -0.1768
   76MOL0     C10135  11.347  10.508   3.030  0.6283 -0.1662 -0.1784
   76MOL0     C10136  11.413  10.371   3.053  0.2721 -0.1423 -0.4029
   76MOL0     C10137  11.353  10.292   3.167 -0.6504  0.1920 -0.1596
   76MOL0     C10138  11.393  10.147   3.174  0.0764 -0.3323  0.1358
   76MOL0     C10139  11.333  10.098   3.302 -0.2087 -0.7061 -0.3551
   76MOL0     C10140  11.380   9.948   3.330 -0.2339 -0.8573  0.0032
   76MOL0     C10141  11.343   9.901   3.470  0.2148 -0.2609  0.1291
   76MOL0     N10142  11.391   9.984   3.585  0.1002  0.1955  0.6557
   76MOL0     C10143  11.490   9.943   3.678 -0.2352 -0.5230 -0.1406
   76MOL0     C10144  11.499  10.052   3.765 -0.2788  0.7436  0.2591
   76MOL0     C10145  11.569  10.061   3.900  0.7111 -0.4543  0.7224
   76MOL0     C10146  11.609   9.919   3.937  0.4183  0.2509 -0.2939
   76MOL0     C10147  11.668   9.903   4.084  0.5163 -0.4548  0.1888
   76MOL0     C10148  11.706   9.758   4.131  1.3320 -0.3607 -0.2534
   76MOL0     O10149  11.779   9.693   4.025  0.2419  0.1245 -0.5337
   76MOL0     C10150  11.905   9.738   3.986 -0.0957 -0.1012  0.2803
   76MOL0     C10151  11.999   9.811   4.061 -0.2415 -0.8895 -0.5606
   76MOL0     C10152  12.112   9.862   4.008  0.1241 -0.7395  0.8022
   76MOL0     C10153  12.162   9.820   3.883 -0.5468  0.2244  0.0962
   76MOL0     C10154  12.285   9.871   3.813  0.2600 -0.8057 -0.7940
   76MOL0     O10155  12.374   9.949   3.889 -0.2463  0.3095  0.0409
   76MOL0     C10156  12.491   9.988   3.837  0.0749  0.1326  0.3985
   76MOL0     C10157  12.493  10.128   3.846  0.0038 -0.3276 -0.4698
   76MOL0     C10158  12.610  10.201   3.811  0.4620 -0.4319 -0.1986
   76MOL0     C10159  12.721  10.129   3.769 -0.0583 -0.0565  0.4034
   76MOL0     O10160  12.846  10.182   3.750  0.0298  0.9984  0.1377
   76MOL0     C10161  12.861  10.309   3.680 -0.0355 -0.1477 -0.4566
   76MOL0     C10162  12.873  10.287   3.525 -0.0044 -0.5630  0.0303
   76MOL0     C10163  12.886  10.419   3.441 -0.2507 -0.2378  0.0508
   76MOL0     C10164  13.027  10.488   3.459  0.1371  0.8117  0.5284
   76MOL0     C10165  13.137  10.420   3.383 -0.1379 -0.0451 -0.4770
   76MOL0     C10166  13.280  10.453   3.429 -0.4468 -0.3295 -0.2648
   76MOL0     C10167  13.349  10.354   3.519 -0.0450  0.4060  0.0622
   76MOL0     C10168  13.406  10.230   3.451  0.4023 -0.2702  0.1300
   76MOL0    Cl10169  13.555  10.178   3.535 -0.3547 -0.0294 -0.4115
   76MOL0     C10170  12.707   9.988   3.749 -0.0019 -0.2962  0.0130
   76MOL0     C10171  12.598   9.915   3.789  0.1387 -0.3872  0.1947
   76MOL0     O10172  12.288   9.856   3.689 -0.1973 -0.6470  0.0443
   76MOL0     C10173  12.068   9.736   3.809 -0.3091 -0.0196 -0.7441
   76MOL0     C10174  11.949   9.696   3.861  0.4407  1.1643  1.1166
   76MOL0     N10175  11.401  10.143   3.734  0.9555 -0.6023 -0.1148
   76MOL0     N10176  11.339  10.100   3.628  0.2993  0.1762  0.3775
   76MOL0     C10177  11.033  10.613   3.128  0.7273 -0.4159  0.4099
   76MOL0     C10178  10.898  10.628   3.087 -0.0318 -0.4812 -0.6808
   76MOL0     C10179  10.490  10.740   2.929  0.3077 -0.6440 -0.1396
   76MOL0     C10180  10.486  10.876   2.888 -0.3537 -0.0124  0.5897
   76MOL0     C10181  10.373  10.938   2.838 -0.2691  0.0317 -0.6921
   76MOL0     C10182  10.256  10.865   2.831 -0.1540 -0.0733  0.5724
   76MOL0     O10183  10.133  10.918   2.787 -0.6393  0.3079  0.0020
   76MOL0     C10184  10.133  11.055   2.746  0.0747 -0.4526  0.0498
   76MOL0     C10185  10.014  11.080   2.651 -0.4013  0.2724  0.4411
   76MOL0     C10186   9.940  11.202   2.701 -0.0740  0.1936  0.0478
   76MOL0     C10187   9.868  11.285   2.586  0.4238  0.0955  0.5113
   76MOL0     C10188   9.950  11.347   2.490  0.4704  0.5384 -0.2527
   76MOL0     C10189  10.001  11.387   2.389 -0.3433  0.4743  0.4206
   76MOL0     C10190  10.253  10.732   2.868  0.3613  0.0797  0.2455
   76MOL0     C10191  10.364  10.668   2.920 -0.1023 -0.9419  0.4608
   76MOL0     C10192  10.358  10.525   2.965  0.3134  0.3922 -1.2053
   76MOL0     H10193  10.898  10.942   2.975 -0.7595 -0.0444  1.6413
   76MOL0     H10194  11.132  10.934   3.076 -0.8742  1.5721 -3.2072
   76MOL0     H10195  11.413  10.627   3.202 -1.2080  0.0748  2.3488
   76MOL0     H10196  11.257  10.541   3.231 -2.2016  1.6721 -0.0931
   76MOL0     H10197  11.413  10.563   2.963  0.7069 -2.2337 -1.9096
   76MOL0     H10198  11.251  10.492   2.979  1.3789  2.0144 -2.4497
   76MOL0     H10199  11.522  10.376   3.063  0.3588 -3.6730  2.3624
   76MOL0     H10200  11.396  10.311   2.963  0.6680 -3.8151  1.7445
   76MOL0     H10201  11.379  10.344   3.260 -0.4972  0.0393 -0.1169
   76MOL0     H10202  11.244  10.282   3.155 -0.6733 -1.3477  0.9202
   76MOL0     H10203  11.360  10.092   3.086 -2.3640  1.5093 -0.1823
   76MOL0     H10204  11.503  10.144   3.182  0.4204  2.3610 -2.0055
   76MOL0     H10205  11.354  10.164   3.387  1.6620 -1.9537  0.2175
   76MOL0     H10206  11.225  10.096   3.289 -0.0660 -1.8107 -1.5882
   76MOL0     H10207  11.489   9.953   3.321  0.0221 -1.0348  2.3506
   76MOL0     H10208  11.338   9.888   3.249  0.5536 -0.2567 -0.8859
   76MOL0     H10209  11.234   9.894   3.476  0.1228 -1.3300 -1.9202
   76MOL0     H10210  11.388   9.802   3.485 -0.7752 -0.6107  0.9209
   76MOL0     H10211  11.548   9.853   3.665 -1.5123 -1.3767 -0.0870
   76MOL0     H10212  11.653  10.131   3.895 -0.8695  1.5257  0.5344
   76MOL0     H10213  11.484  10.087   3.963 -1.5334  0.8701 -2.5944
   76MOL0     H10214  11.520   9.857   3.929  0.7457 -0.0900 -1.5494
   76MOL0     H10215  11.685   9.882   3.867 -0.5130  1.6805 -2.1484
   76MOL0     H10216  11.591   9.938   4.154 -2.0186 -3.6367 -0.7612
   76MOL0     H10217  11.764   9.954   4.090 -1.1673  3.0296  0.3208
   76MOL0     H10218  11.618   9.704   4.166 -0.1573  1.6245 -0.7093
   76MOL0     H10219  11.772   9.772   4.217 -1.2656 -1.0702  1.9828
   76MOL0     H10220  11.988   9.853   4.161 -2.5963 -0.3042 -0.9874
   76MOL0     H10221  12.180   9.928   4.061  1.4205 -1.8233  0.5714
   76MOL0     H10222  12.409  10.180   3.893  0.9177  0.2525  0.5578
   76MOL0     H10223  12.614  10.308   3.832  0.0513 -0.6301  0.9669
   76MOL0     H10224  12.786  10.385   3.703 -1.9374 -1.5300 -1.7887
   76MOL0     H10225  12.955  10.349   3.720  1.2043 -1.8364 -1.5102
   76MOL0     H10226  12.949  10.210   3.509  0.4418 -0.0127 -0.6039
   76MOL0     H10227  12.778  10.241   3.499  2.2983 -3.8268 -3.7807
   76MOL0     H10228  12.863  10.389   3.339 -1.0422 -0.0672  0.1769
   76MOL0     H10229  12.807  10.484   3.478 -0.5719 -1.0152  0.7541
   76MOL0     H10230  13.053  10.499   3.565  1.2985 -0.2414  0.3798
   76MOL0     H10231  13.021  10.587   3.414 -1.8712  0.0352 -1.0441
   76MOL0     H10232  13.137  10.451   3.279  1.3320 -0.0141 -0.4958
   76MOL0     H10233  13.122  10.311   3.386  1.8861 -0.3998  3.1253
   76MOL0     H10234  13.334  10.457   3.334 -1.2366  1.2106 -0.6796
   76MOL0     H10235  13.279  10.552   3.476 -2.3337  0.7650 -2.3934
   76MOL0     H10236  13.291  10.325   3.607  1.4810 -2.1359  0.3433
   76MOL0     H10237  13.439  10.411   3.545  1.6978  0.7653 -5.3501
   76MOL0     H10238  13.339  10.143   3.446  1.5882 -1.1783 -0.5306
   76MOL0     H10239  13.434  10.257   3.349 -2.3229  1.9979 -0.1389
   76MOL0     H10240  12.798   9.952   3.701  0.6906  0.0218  1.0504
   76MOL0     H10241  12.580   9.808   3.776 -1.2086 -0.3811  1.7184
   76MOL0     H10242  12.101   9.701   3.712 -0.7400  0.1238 -0.9451
   76MOL0     H10243  11.878   9.636   3.805  1.9235  0.6734 -0.2944
   76MOL0     H10244  11.064  10.518   3.171  0.5060 -1.1333 -0.9256
   76MOL0     H10245  10.837  10.539   3.088  2.0761 -1.9998 -1.0173
   76MOL0     H10246  10.577  10.935   2.884 -0.1883 -0.3197 -1.2533
   76MOL0     H10247  10.378  11.042   2.808 -0.5357 -0.1988 -1.5779
   76MOL0     H10248  10.222  11.080   2.687 -1.3470  1.6316 -1.3440
   76MOL0     H10249  10.124  11.117   2.836 -1.5833 -0.1999 -0.2525
   76MOL0     H10250   9.949  10.993   2.643  1.0015 -0.6701 -1.9552
   76MOL0     H10251  10.054  11.101   2.551 -0.2340 -0.0645  0.4365
   76MOL0     H10252  10.002  11.276   2.753  3.0785  0.6442 -3.8801
   76MOL0     H10253   9.858  11.172   2.767  0.1576  1.7991  1.1323
   76MOL0     H10254   9.809  11.206   2.538  0.9700  0.4964 -0.8629
   76MOL0     H10255   9.797  11.358   2.626  1.8658  1.1587  1.2342
   76MOL0     H10256  10.054  11.426   2.304 -0.4613  2.1418  1.0700
   76MOL0     H10257  10.159  10.677   2.863  0.6606 -0.3262 -1.6777
   76MOL0     H10258  10.429  10.498   3.043 -0.3041 -1.1478 -1.1430
   76MOL0     H10259  10.258  10.501   3.003 -0.0556  0.1749 -2.2767
   76MOL0     H10260  10.378  10.458   2.881  0.7064 -0.1371 -0.6975
   77MOL0     O10261  11.132   9.518   1.210 -0.0453  0.3309 -0.2337
   77MOL0     C10262  11.046   9.513   1.124 -0.8721  0.3089  1.5239
   77MOL0     O10263  11.075   9.498   0.982 -0.0324 -0.8280  0.5250
   77MOL0     C10264  11.209   9.526   0.945  0.9733 -0.4142 -0.2320
   77MOL0     C10265  11.305   9.433   0.985 -0.4101 -0.0172  0.5635
   77MOL0     C10266  11.442   9.464   0.954 -0.6169 -0.1439 -0.3237
   77MOL0     C10267  11.478   9.572   0.877 -0.1796 -0.2785  0.5935
   77MOL0     O10268  11.604   9.605   0.821  0.3166 -0.3717 -0.0758
   77MOL0     C10269  11.720   9.516   0.842 -0.3596 -0.1952  0.3125
   77MOL0     C10270  11.832   9.572   0.748  0.4760 -0.0808 -1.0214
   77MOL0     C10271  11.951   9.484   0.753  0.3350  0.6181 -0.9806
   77MOL0     C10272  12.030   9.491   0.884 -0.7531  0.0163 -1.0508
   77MOL0     C10273  12.122   9.380   0.892 -0.3963  0.3174 -0.1954
   77MOL0     C10274  12.228   9.368   0.783 -0.1277 -0.0858 -0.2249
   77MOL0     C10275  12.308   9.504   0.762  0.0894  0.0894  0.6556
   77MOL0     C10276  12.452   9.500   0.709  0.3708  0.1685  0.1991
   77MOL0     N10277  12.539   9.414   0.797  0.7870  0.0568 -0.3398
   77MOL0     C10278  12.542   9.421   0.934  0.2804 -0.9284  1.0477
   77MOL0     C10279  12.634   9.330   0.976 -0.8862  0.3643  0.5414
   77MOL0     C10280  12.677   9.299   1.119  0.0004 -0.4933  0.0784
   77MOL0     C10281  12.822   9.345   1.151 -0.2382 -0.1895 -0.7097
   77MOL0     C10282  12.831   9.492   1.176 -0.0302  0.0798  1.1320
   77MOL0     C10283  12.965   9.524   1.243  0.0969  1.0757 -0.2753
   77MOL0     O10284  13.080   9.495   1.155  0.2692  0.2971 -0.1898
   77MOL0     C10285  13.200   9.450   1.204  0.1656  0.2325 -0.0349
   77MOL0     C10286  13.221   9.423   1.342  0.1842  0.0645 -0.0649
   77MOL0     C10287  13.348   9.375   1.375  0.0542 -0.7564 -0.6833
   77MOL0     C10288  13.445   9.363   1.279 -0.6727 -0.7178  0.2109
   77MOL0     C10289  13.574   9.308   1.318 -0.0727  0.3299  0.4520
   77MOL0     O10290  13.664   9.305   1.221 -0.1395  0.2955  0.0562
   77MOL0     C10291  13.795   9.288   1.248  0.3257  0.1121  0.4858
   77MOL0     C10292  13.841   9.172   1.299 -0.7630  0.1619 -0.1992
   77MOL0     C10293  13.977   9.139   1.311 -0.6052 -0.6280  0.1147
   77MOL0     C10294  14.075   9.235   1.251  0.8591  0.9556  0.0835
   77MOL0     O10295  14.207   9.189   1.243  0.6251  0.1711 -0.8334
   77MOL0     C10296  14.300   9.278   1.176 -0.0409  0.4474 -0.1090
   77MOL0     C10297  14.439   9.237   1.217  0.9939  0.5580 -0.8967
   77MOL0     C10298  14.547   9.314   1.143 -0.7179  0.5963 -0.1502
   77MOL0     C10299  14.679   9.259   1.186 -0.7827 -0.5468  0.6602
   77MOL0     C10300  14.797   9.336   1.129  0.4321 -0.1777 -0.1900
   77MOL0     C10301  14.929   9.259   1.171  0.4823  0.3021 -1.1822
   77MOL0     C10302  15.051   9.332   1.133  0.0323 -0.2223  0.5710
   77MOL0     C10303  15.169   9.244   1.130 -0.1544  1.1621 -0.2822
   77MOL0    Cl10304  15.318   9.329   1.066 -0.0921 -0.5520 -0.0188
   77MOL0     C10305  14.017   9.355   1.192  0.2157 -0.2201  0.2292
   77MOL0     C10306  13.884   9.381   1.195 -0.2316 -0.3528  0.4826
   77MOL0     O10307  13.596   9.280   1.435 -0.0597  0.7548  0.0415
   77MOL0     C10308  13.425   9.401   1.151 -0.1297  0.6080  0.5792
   77MOL0     C10309  13.301   9.447   1.109  0.1564  0.4945 -0.3061
   77MOL0     N10310  12.675   9.259   0.866 -0.1471 -0.5075  0.2574
   77MOL0     N10311  12.617   9.308   0.760  0.2777 -0.4435  0.2907
   77MOL0     C10312  11.368   9.651   0.829  0.8525 -0.5963 -0.5412
   77MOL0     C10313  11.232   9.633   0.863 -0.2743 -0.4595  0.3873
   77MOL0     C10314  10.902   9.499   1.160 -0.1960 -0.7679  0.0992
   77MOL0     C10315  10.802   9.481   1.056 -0.8366  0.5734  0.4876
   77MOL0     C10316  10.664   9.464   1.077 -0.2883  0.2433  1.8144
   77MOL0     C10317  10.626   9.471   1.208 -0.8603 -0.3715  0.4828
   77MOL0     O10318  10.490   9.454   1.242  0.1895 -0.0126  0.2967
   77MOL0     C10319  10.407   9.378   1.157 -0.3557  0.0596 -0.1926
   77MOL0     C10320  10.276   9.341   1.224  0.3063  0.4118  0.2865
   77MOL0     C10321  10.206   9.451   1.313  0.1691 -0.6084  0.5434
   77MOL0     C10322  10.076   9.397   1.364 -0.5869  0.2538  0.8312
   77MOL0     C10323   9.980   9.380   1.252 -0.1236  0.8325 -0.4484
   77MOL0     C10324   9.903   9.359   1.158  0.6738 -0.6303  0.0767
   77MOL0     C10325  10.720   9.486   1.313 -0.3854  0.0915  0.2271
   77MOL0     C10326  10.856   9.497   1.294 -1.2131 -1.0288  0.0331
   77MOL0     C10327  10.936   9.508   1.422 -0.2781  0.1930 -0.1906
   77MOL0     H10328  11.260   9.352   1.041 -2.5017  1.7061  1.5484
   77MOL0     H10329  11.517   9.401   1.001 -0.0182  0.5620 -0.3224
   77MOL0     H10330  11.764   9.527   0.941  3.4744  0.1513 -1.2415
   77MOL0     H10331  11.690   9.412   0.826  1.8599 -0.9919  1.0583
   77MOL0     H10332  11.848   9.674   0.783  1.1135 -1.0281  1.7099
   77MOL0     H10333  11.800   9.572   0.643 -0.7817  1.7646 -0.6820
   77MOL0     H10334  12.009   9.508   0.664  0.3174 -2.5675 -1.9931
   77MOL0     H10335  11.915   9.381   0.740  0.8793  0.4367 -1.0683
   77MOL0     H10336  12.093   9.578   0.900  0.4823 -1.2848  1.6801
   77MOL0     H10337  11.973   9.486   0.977 -0.5248  1.2001 -0.8387
   77MOL0     H10338  12.174   9.409   0.983 -0.0324 -1.1806  0.0890
   77MOL0     H10339  12.062   9.288   0.900  0.0477  0.0561  0.1334
   77MOL0     H10340  12.291   9.282   0.809 -1.1098 -1.0584 -0.9712
   77MOL0     H10341  12.178   9.335   0.691 -1.9995 -1.8978  1.3445
   77MOL0     H10342  12.302   9.556   0.859 -0.0766  1.2783  0.0327
   77MOL0     H10343  12.254   9.575   0.698  1.7480  0.2475 -0.6179
   77MOL0     H10344  12.454   9.465   0.605  1.3207 -0.8544  0.5360
   77MOL0     H10345  12.490   9.602   0.718 -3.5078  1.8206  0.0796
   77MOL0     H10346  12.497   9.495   1.000 -0.7225 -1.0501  0.5155
   77MOL0     H10347  12.608   9.336   1.195 -0.9429 -1.0523 -0.4766
   77MOL0     H10348  12.679   9.190   1.120  0.8837 -0.6610 -3.7292
   77MOL0     H10349  12.857   9.290   1.239 -0.5714  1.4810  0.5157
   77MOL0     H10350  12.893   9.318   1.071  1.5411  0.7695  0.4698
   77MOL0     H10351  12.746   9.513   1.241 -1.5694 -1.3097 -0.3320
   77MOL0     H10352  12.825   9.555   1.087  0.5546 -0.0812  0.9713
   77MOL0     H10353  12.970   9.457   1.329  2.4339  0.6217 -0.7041
   77MOL0     H10354  12.964   9.625   1.285  0.0633  1.2578 -0.7129
   77MOL0     H10355  13.146   9.449   1.416  0.3439 -1.1809  0.5583
   77MOL0     H10356  13.369   9.364   1.481  1.2026  0.4284 -0.7683
   77MOL0     H10357  13.760   9.103   1.319  1.0093 -1.9779  0.0225
   77MOL0     H10358  14.011   9.050   1.362  3.1778 -0.3056 -1.4826
   77MOL0     H10359  14.289   9.259   1.069  0.4595 -3.0358  0.3296
   77MOL0     H10360  14.283   9.384   1.196  1.2297  0.8526 -1.0636
   77MOL0     H10361  14.442   9.251   1.325 -5.0958  3.4870 -0.6712
   77MOL0     H10362  14.452   9.131   1.196 -0.7434  0.4217 -1.4764
   77MOL0     H10363  14.535   9.290   1.037 -1.2610 -0.7375  0.1873
   77MOL0     H10364  14.541   9.422   1.157  2.6170  0.7736  0.6394
   77MOL0     H10365  14.692   9.152   1.166  0.4644 -0.9271  3.1268
   77MOL0     H10366  14.680   9.267   1.295  1.5131  2.4502  0.5678
   77MOL0     H10367  14.795   9.429   1.186  2.1569 -0.5543  0.5428
   77MOL0     H10368  14.798   9.362   1.023  1.2767  0.3520 -0.0643
   77MOL0     H10369  14.933   9.236   1.278 -3.0912 -0.4263 -1.0863
   77MOL0     H10370  14.918   9.162   1.122 -3.3668  0.7661 -1.5407
   77MOL0     H10371  15.072   9.409   1.207  1.7774 -0.9161  0.8553
   77MOL0     H10372  15.053   9.381   1.035  1.0981  1.7295  1.5099
   77MOL0     H10373  15.175   9.200   1.230 -2.7274 -0.9443 -0.9309
   77MOL0     H10374  15.157   9.156   1.065 -0.7142  0.0328  1.2946
   77MOL0     H10375  14.082   9.413   1.127 -1.8139  1.2098 -0.6455
   77MOL0     H10376  13.838   9.459   1.135 -0.9182  1.1331  2.8029
   77MOL0     H10377  13.498   9.394   1.071 -0.7107 -3.1067  0.1835
   77MOL0     H10378  13.266   9.465   1.008  1.3436 -0.4288 -0.9133
   77MOL0     H10379  11.385   9.737   0.764 -1.6306 -0.4241 -1.0444
   77MOL0     H10380  11.155   9.696   0.820  0.6866  0.1616 -0.4875
   77MOL0     H10381  10.829   9.490   0.952  0.6874 -0.3800  0.7707
   77MOL0     H10382  10.586   9.431   1.008  0.2718 -1.5712  1.9903
   77MOL0     H10383  10.457   9.296   1.104 -0.9177  1.3414 -2.8759
   77MOL0     H10384  10.372   9.443   1.076 -1.3074 -0.3610 -0.1226
   77MOL0     H10385  10.284   9.250   1.285 -3.3938  0.0450  0.4198
   77MOL0     H10386  10.212   9.316   1.140  0.7760  5.2758 -1.8521
   77MOL0     H10387  10.194   9.546   1.261  3.4541  0.3835  1.3546
   77MOL0     H10388  10.268   9.479   1.399 -0.9539  0.1052  1.1439
   77MOL0     H10389  10.074   9.304   1.421 -0.6919  1.3363  2.6726
   77MOL0     H10390  10.044   9.479   1.428 -1.9154 -0.4196  1.0585
   77MOL0     H10391   9.834   9.342   1.078  1.6070 -3.9984 -0.1706
   77MOL0     H10392  10.671   9.485   1.410 -1.3879  1.1841 -0.2446
   77MOL0     H10393  11.004   9.424   1.439 -0.1898  0.0729 -1.0952
   77MOL0     H10394  10.979   9.607   1.445 -0.3552  0.2604 -0.3372
   77MOL0     H10395  10.866   9.498   1.505 -1.5223  1.1073 -1.0895
   78MOL0     O10396  10.345   6.115   9.069 -0.1520 -0.1748 -0.2592
   78MOL0     C10397  10.264   6.159   9.152 -0.7178 -0.6243 -0.2188
   78MOL0     O10398  10.276   6.143   9.291  0.0848 -0.3020 -0.4984
   78MOL0     C10399  10.376   6.058   9.332  0.0085 -0.5307 -0.0124
   78MOL0     C10400  10.376   5.925   9.306 -0.0201  0.4027  0.2881
   78MOL0     C10401  10.460   5.849   9.380  0.1078  1.0104 -0.7001
   78MOL0     C10402  10.550   5.900   9.471 -0.4959  0.4024 -0.7943
   78MOL0     O10403  10.626   5.821   9.555 -0.1332  0.1368  0.6283
   78MOL0     C10404  10.689   5.866   9.677 -0.2496 -0.4122  0.0329
   78MOL0     C10405  10.772   5.735   9.712 -0.3928 -0.7999 -0.3378
   78MOL0     C10406  10.923   5.735   9.675  0.3377 -0.1222 -0.6729
   78MOL0     C10407  10.999   5.618   9.737 -0.2470  0.3481  0.4642
   78MOL0     C10408  11.147   5.632   9.686 -0.6542  0.4032 -0.6340
   78MOL0     C10409  11.214   5.496   9.707  0.6859 -0.5743 -0.5475
   78MOL0     C10410  11.344   5.496   9.637 -0.2488  0.4389  0.2345
   78MOL0     C10411  11.406   5.357   9.622 -0.7276 -0.1430  0.0287
   78MOL0     N10412  11.544   5.351   9.562 -0.5676 -0.4704  0.4848
   78MOL0     C10413  11.575   5.398   9.435  0.2212 -0.4105  0.1538
   78MOL0     C10414  11.705   5.363   9.415 -0.4036  0.6924  0.7100
   78MOL0     C10415  11.799   5.395   9.295  0.4376 -0.4882  0.3395
   78MOL0     C10416  11.938   5.359   9.314  0.4095 -0.2125  0.3554
   78MOL0     C10417  12.020   5.374   9.177  0.3055 -0.2030  0.0462
   78MOL0     C10418  12.172   5.364   9.207  0.4687 -0.0507  0.0617
   78MOL0     O10419  12.258   5.370   9.091 -0.2512 -0.2950  0.1450
   78MOL0     C10420  12.387   5.329   9.117 -0.0602 -0.0293  0.1471
   78MOL0     C10421  12.456   5.299   8.998 -0.7839 -0.3735 -0.8249
   78MOL0     C10422  12.583   5.255   9.001  1.2853  0.8890 -0.1707
   78MOL0     C10423  12.657   5.248   9.125 -0.3104  0.3977  0.1511
   78MOL0     C10424  12.799   5.207   9.124  0.0751 -0.2472  0.3610
   78MOL0     O10425  12.870   5.204   9.005  0.2197 -0.1083  0.0616
   78MOL0     C10426  13.001   5.183   9.010  0.0871  0.2203  0.1710
   78MOL0     C10427  13.088   5.289   9.030 -0.9348 -0.2267 -0.3084
   78MOL0     C10428  13.226   5.269   9.030 -0.3876  0.6534 -0.1188
   78MOL0     C10429  13.286   5.144   9.010 -0.9609 -0.0328  0.3819
   78MOL0     O10430  13.419   5.131   8.991 -0.4438 -0.1467  0.2535
   78MOL0     C10431  13.503   5.033   9.066 -0.1027 -0.1181 -0.0239
   78MOL0     C10432  13.650   5.067   9.054 -0.0046 -0.2152  0.3040
   78MOL0     C10433  13.736   4.935   9.104  0.1741  0.7129  0.3449
   78MOL0     C10434  13.883   4.963   9.130 -0.3573 -0.1156  0.3952
   78MOL0     C10435  13.956   4.836   9.146  0.6093  0.2960  0.6417
   78MOL0     C10436  14.081   4.861   9.213 -0.9648  0.2753 -0.4448
   78MOL0     C10437  14.174   4.741   9.233  0.1314  0.9941  1.2638
   78MOL0     C10438  14.253   4.701   9.106  0.4905 -0.2710 -0.8278
   78MOL0    Cl10439  14.411   4.764   9.103 -0.0739 -0.0883  0.2460
   78MOL0     C10440  13.199   5.036   9.000 -0.2886  0.5748  0.7612
   78MOL0     C10441  13.059   5.055   8.991 -0.5701  0.2905 -0.5515
   78MOL0     O10442  12.841   5.192   9.231  0.3291 -0.0322 -1.0975
   78MOL0     C10443  12.587   5.273   9.239 -0.5727 -0.2871 -0.5299
   78MOL0     C10444  12.459   5.324   9.242  0.2383 -1.0218  0.6248
   78MOL0     N10445  11.753   5.290   9.522  0.4775  0.1523  0.4399
   78MOL0     N10446  11.652   5.282   9.603 -0.3861  0.1256 -0.1267
   78MOL0     C10447  10.552   6.038   9.488  0.0100  0.1793 -0.0400
   78MOL0     C10448  10.469   6.114   9.418 -0.3608  0.3144  0.1102
   78MOL0     C10449  10.147   6.236   9.100 -0.6410  0.0376 -0.0294
   78MOL0     C10450  10.082   6.312   9.196  0.1879 -0.3329  0.1363
   78MOL0     C10451   9.969   6.387   9.168 -0.0991  0.5004  0.4721
   78MOL0     C10452   9.930   6.406   9.041  0.5682  0.3531 -0.2929
   78MOL0     O10453   9.836   6.504   9.034 -0.0496  0.4932 -0.9486
   78MOL0     C10454   9.775   6.534   8.909 -0.0889 -0.5571 -0.1007
   78MOL0     C10455   9.656   6.620   8.941  0.6099  0.4231  0.3692
   78MOL0     C10456   9.635   6.702   8.821 -0.2367 -0.0640 -0.0306
   78MOL0     C10457   9.500   6.783   8.854  1.0461 -0.0326 -0.4407
   78MOL0     C10458   9.391   6.683   8.865 -0.2809 -0.5828 -0.0704
   78MOL0     C10459   9.302   6.605   8.873 -0.0143  0.6946 -0.5179
   78MOL0     C10460   9.985   6.324   8.936 -0.5661 -0.2466 -0.8652
   78MOL0     C10461  10.099   6.243   8.963 -0.6108 -0.5936  0.1211
   78MOL0     C10462  10.172   6.193   8.840 -0.0732  0.2195  0.3621
   78MOL0     H10463  10.299   5.881   9.243  2.4773 -2.4024 -1.0555
   78MOL0     H10464  10.461   5.741   9.366  3.2849  0.9450 -0.8265
   78MOL0     H10465  10.753   5.950   9.651  0.1318 -1.3604 -2.3865
   78MOL0     H10466  10.606   5.891   9.743  0.3509  1.1291  0.2316
   78MOL0     H10467  10.719   5.646   9.677 -1.8913 -0.6842  1.4290
   78MOL0     H10468  10.771   5.728   9.822  1.4740 -0.4309 -0.2723
   78MOL0     H10469  10.975   5.823   9.712  1.7471 -1.5617  0.9618
   78MOL0     H10470  10.931   5.732   9.566 -2.8972  2.3174 -1.1466
   78MOL0     H10471  10.990   5.635   9.844 -2.8118 -0.0569  0.3617
   78MOL0     H10472  10.950   5.525   9.707  1.8984 -1.0371  1.0609
   78MOL0     H10473  11.142   5.666   9.582  0.4651  1.8326 -0.2543
   78MOL0     H10474  11.205   5.709   9.738 -1.5866  0.2802  0.6369
   78MOL0     H10475  11.229   5.485   9.815  0.9723 -2.3126 -0.7298
   78MOL0     H10476  11.151   5.414   9.669  0.3648  0.0977 -1.4976
   78MOL0     H10477  11.408   5.561   9.699 -0.7571  0.4152  0.7922
   78MOL0     H10478  11.332   5.539   9.537 -0.8654  1.0913  0.5803
   78MOL0     H10479  11.405   5.313   9.722 -0.8655 -1.8732 -0.6961
   78MOL0     H10480  11.329   5.304   9.565 -1.9103  2.2955 -0.7831
   78MOL0     H10481  11.512   5.457   9.369 -3.0855 -3.5130  0.2542
   78MOL0     H10482  11.759   5.349   9.204 -2.5030  2.0021  0.2191
   78MOL0     H10483  11.790   5.502   9.278 -0.2846 -0.5843  0.0555
   78MOL0     H10484  11.981   5.428   9.387  0.2897 -0.4431  0.6441
   78MOL0     H10485  11.948   5.254   9.344  1.0531 -0.1172  0.4909
   78MOL0     H10486  12.000   5.475   9.141 -1.2784  0.5741  2.8033
   78MOL0     H10487  12.001   5.298   9.101  2.1672 -1.6974  0.9742
   78MOL0     H10488  12.188   5.269   9.258  1.0832  1.6157  3.2069
   78MOL0     H10489  12.188   5.444   9.279  0.7254 -0.5794  0.5958
   78MOL0     H10490  12.404   5.304   8.902 -0.7734  1.1033 -0.7717
   78MOL0     H10491  12.628   5.228   8.906  0.4397 -4.2488  0.6302
   78MOL0     H10492  13.051   5.391   9.028  1.9812  0.9353  1.0391
   78MOL0     H10493  13.288   5.358   9.024 -0.9487  0.9595 -2.4466
   78MOL0     H10494  13.463   5.024   9.168 -0.4477 -4.4571 -0.3283
   78MOL0     H10495  13.479   4.933   9.027 -2.4274  0.6749 -0.8134
   78MOL0     H10496  13.672   5.100   8.952 -0.7843 -0.5763  0.0124
   78MOL0     H10497  13.670   5.159   9.110  3.2426 -2.4447  3.2070
   78MOL0     H10498  13.699   4.904   9.203  0.2775 -2.1364 -0.4343
   78MOL0     H10499  13.710   4.858   9.032  3.5889 -2.3813  2.0638
   78MOL0     H10500  13.889   5.033   9.214  0.2220  1.5492 -0.9841
   78MOL0     H10501  13.931   5.022   9.052  0.8637 -2.4056 -0.6844
   78MOL0     H10502  13.974   4.786   9.050  2.3023 -0.4057  1.2851
   78MOL0     H10503  13.895   4.766   9.204 -0.1309 -0.1807 -0.6595
   78MOL0     H10504  14.141   4.941   9.167  0.9006  0.0032  1.3562
   78MOL0     H10505  14.054   4.898   9.312  1.6401  0.0561  0.4319
   78MOL0     H10506  14.117   4.657   9.274 -0.1178 -1.7493 -3.8210
   78MOL0     H10507  14.256   4.766   9.301  1.0414 -0.6274  0.8037
   78MOL0     H10508  14.261   4.592   9.095 -2.3136 -0.5885 -0.5204
   78MOL0     H10509  14.198   4.743   9.022 -0.9781 -0.0928  0.1888
   78MOL0     H10510  13.251   4.941   8.999 -1.7819 -0.2777 -1.1128
   78MOL0     H10511  12.995   4.969   8.976 -0.3787  0.1713 -0.7002
   78MOL0     H10512  12.645   5.257   9.329  1.0099  0.7245 -1.3274
   78MOL0     H10513  12.406   5.349   9.334  0.3925 -0.4079  0.5525
   78MOL0     H10514  10.607   6.085   9.569 -0.5610 -2.2078  1.8514
   78MOL0     H10515  10.460   6.221   9.437  0.0631  0.2877  0.4838
   78MOL0     H10516  10.110   6.301   9.300  0.7816 -1.4946 -0.1308
   78MOL0     H10517   9.923   6.431   9.257  0.3178 -0.4158  1.1612
   78MOL0     H10518   9.736   6.441   8.867  2.3617 -1.0272 -1.4997
   78MOL0     H10519   9.843   6.582   8.838 -1.7134 -0.7473 -1.8848
   78MOL0     H10520   9.678   6.690   9.022  2.1477  2.1651 -1.4612
   78MOL0     H10521   9.579   6.546   8.966  0.7108 -0.0275 -0.6163
   78MOL0     H10522   9.635   6.647   8.727 -2.9499  2.2095 -1.5143
   78MOL0     H10523   9.722   6.769   8.812 -0.3588  0.0255 -0.5420
   78MOL0     H10524   9.502   6.827   8.954 -0.0672  0.5286 -0.6537
   78MOL0     H10525   9.493   6.866   8.783  3.5767  0.7011  0.0428
   78MOL0     H10526   9.216   6.543   8.885  0.1894  0.7936  1.9219
   78MOL0     H10527   9.960   6.333   8.830  1.7758  1.7403 -1.3403
   78MOL0     H10528  10.269   6.241   8.822 -0.8366  1.6182 -0.1945
   78MOL0     H10529  10.183   6.088   8.868 -1.3466 -0.5879 -1.9227
   78MOL0     H10530  10.109   6.207   8.752 -1.9407 -0.1335  1.5877
   79MOL0     O10531   5.432   6.846   9.388  0.0020  0.1056  0.7885
   79MOL0     C10532   5.410   6.962   9.352  0.1606 -0.9189  0.0252
   79MOL0     O10533   5.501   7.062   9.342 -0.2099  0.1900  0.2999
   79MOL0     C10534   5.614   7.051   9.423 -0.3663  0.3985 -0.2480
   79MOL0     C10535   5.737   7.061   9.368 -0.4223  0.9777 -0.1308
   79MOL0     C10536   5.853   7.075   9.446 -0.0014  0.0358 -0.3555
   79MOL0     C10537   5.838   7.087   9.586 -0.1473  0.3987 -0.5022
   79MOL0     O10538   5.943   7.117   9.677 -0.9483  0.0134  0.5650
   79MOL0     C10539   6.077   7.158   9.621  0.1262  0.2900  0.2138
   79MOL0     C10540   6.172   7.045   9.631  0.8191  1.3398 -0.6132
   79MOL0     C10541   6.313   7.101   9.672  0.6836  0.2423 -0.5997
   79MOL0     C10542   6.416   7.002   9.628  0.0710  0.3710 -0.0749
   79MOL0     C10543   6.537   7.008   9.716 -0.0326  0.0650  0.2993
   79MOL0     C10544   6.607   7.139   9.726  0.0171  0.0889 -0.5685
   79MOL0     C10545   6.669   7.177   9.589  0.4483  0.1255 -0.2775
   79MOL0     C10546   6.775   7.286   9.625  1.3177  0.8153  0.5102
   79MOL0     N10547   6.903   7.227   9.683  0.0659 -0.0100  0.7682
   79MOL0     C10548   6.943   7.228   9.815  0.6916 -0.2902  1.0462
   79MOL0     C10549   7.049   7.145   9.830 -0.4309  0.2845 -0.7583
   79MOL0     C10550   7.111   7.132   9.967  0.0850  0.6873 -0.9010
   79MOL0     C10551   7.217   7.015   9.968  0.0168  0.0261 -0.1416
   79MOL0     C10552   7.352   7.080   9.921 -0.2257 -0.4098  0.3821
   79MOL0     C10553   7.439   7.159  10.023  0.0793  0.0991 -0.2613
   79MOL0     O10554   7.490   7.082  10.126  0.1443  0.3656 -0.4530
   79MOL0     C10555   7.626   7.048  10.132  0.2854 -0.5954 -0.5511
   79MOL0     C10556   7.659   6.981  10.252  0.4794  0.1390  0.3946
   79MOL0     C10557   7.789   6.956  10.275 -0.2191  0.0103  0.9130
   79MOL0     C10558   7.891   6.984  10.180  0.2982  0.6440 -0.0548
   79MOL0     C10559   8.031   6.961  10.218 -0.6304 -0.4456  0.1613
   79MOL0     O10560   8.120   7.008  10.121 -0.3211 -0.4184 -0.3111
   79MOL0     C10561   8.260   7.010  10.138  0.2268  0.2654 -0.1402
   79MOL0     C10562   8.327   7.107  10.064  0.9592 -0.1426 -0.0285
   79MOL0     C10563   8.466   7.118  10.079 -0.7903 -0.2500  0.2330
   79MOL0     C10564   8.543   7.031  10.158  0.0275 -0.2827 -0.7340
   79MOL0     O10565   8.676   7.061  10.172  0.2932  0.1505  0.2136
   79MOL0     C10566   8.763   6.945  10.181  0.5142 -0.2859  0.5996
   79MOL0     C10567   8.905   6.998  10.205 -0.1330 -0.7671  0.6259
   79MOL0     C10568   9.011   6.892  10.188 -0.3438 -0.6094  0.0164
   79MOL0     C10569   9.154   6.942  10.209 -0.0513 -0.6180 -0.6175
   79MOL0     C10570   9.260   6.842  10.157  0.9138  0.0503 -0.4864
   79MOL0     C10571   9.401   6.866  10.216  0.1528 -0.0873  0.8127
   79MOL0     C10572   9.395   6.823  10.363  0.5378  0.1092  1.0704
   79MOL0     C10573   9.528   6.807  10.433 -1.0858  0.1715 -0.3265
   79MOL0    Cl10574   9.651   6.942  10.417  0.1261 -0.3152  0.1559
   79MOL0     C10575   8.466   6.930  10.219  0.4328  0.7496 -1.4340
   79MOL0     C10576   8.328   6.920  10.215  0.2497  0.2099  0.0742
   79MOL0     O10577   8.058   6.943  10.337 -0.0829  0.0031  0.0114
   79MOL0     C10578   7.857   7.041  10.058  0.4884 -0.0127  0.1907
   79MOL0     C10579   7.726   7.079  10.038  0.0793 -0.0907  0.3365
   79MOL0     N10580   7.081   7.097   9.709  0.4403 -0.9659  0.2486
   79MOL0     N10581   6.994   7.143   9.625  0.0004  0.6995 -1.4520
   79MOL0     C10582   5.713   7.081   9.641 -0.7657  0.3871 -0.8385
   79MOL0     C10583   5.600   7.060   9.559  0.2410 -0.7974  0.7131
   79MOL0     C10584   5.271   6.990   9.318  0.0273 -0.0707  0.5613
   79MOL0     C10585   5.211   6.890   9.237  0.2840 -0.6633 -0.7754
   79MOL0     C10586   5.081   6.903   9.179  0.0399 -0.1300 -0.0361
   79MOL0     C10587   5.013   7.024   9.200  0.3830 -0.7159  0.4779
   79MOL0     O10588   4.889   7.040   9.144  0.2179 -0.2815 -0.4874
   79MOL0     C10589   4.831   7.169   9.123  0.2807  0.1418 -0.6468
   79MOL0     C10590   4.688   7.160   9.074 -0.8982  0.2467  0.1522
   79MOL0     C10591   4.594   7.077   9.160 -0.1177 -0.2322  0.0986
   79MOL0     C10592   4.466   7.029   9.088 -0.3432 -0.5212  0.6133
   79MOL0     C10593   4.373   7.136   9.054 -0.3104  0.1443  0.4397
   79MOL0     C10594   4.307   7.234   9.015 -0.1938  0.9582  0.2907
   79MOL0     C10595   5.085   7.128   9.263 -0.1548 -0.7304  0.2383
   79MOL0     C10596   5.206   7.111   9.325  0.6152  0.8413  0.9059
   79MOL0     C10597   5.259   7.225   9.407  0.6818 -0.3467  0.2527
   79MOL0     H10598   5.762   7.057   9.262  1.9125  3.1287  0.2514
   79MOL0     H10599   5.954   7.087   9.406  0.5668  0.4594  1.1522
   79MOL0     H10600   6.079   7.213   9.527  1.0120  0.0591  0.0915
   79MOL0     H10601   6.108   7.232   9.695  2.8075  0.4001 -0.9015
   79MOL0     H10602   6.167   6.987   9.538 -0.2410  0.0331  0.2158
   79MOL0     H10603   6.149   6.982   9.718 -2.1804  2.9370 -0.1021
   79MOL0     H10604   6.322   7.103   9.781  1.8062 -2.6725 -0.5688
   79MOL0     H10605   6.340   7.193   9.619  1.7930  1.2453  1.5806
   79MOL0     H10606   6.370   6.903   9.638  2.1158 -0.6138  0.0399
   79MOL0     H10607   6.437   7.022   9.523  1.2588  0.8577  0.2458
   79MOL0     H10608   6.508   6.980   9.818 -1.7303 -0.4444 -0.2909
   79MOL0     H10609   6.605   6.928   9.687 -2.1822 -1.1889 -1.5662
   79MOL0     H10610   6.545   7.220   9.766  1.1834  0.9882 -0.5353
   79MOL0     H10611   6.686   7.110   9.796 -1.4131 -1.6082  0.4479
   79MOL0     H10612   6.590   7.210   9.522  1.4218  1.7528 -0.6740
   79MOL0     H10613   6.721   7.090   9.547  0.7863 -0.0408  0.4716
   79MOL0     H10614   6.798   7.341   9.532  1.6825  4.3109  2.4890
   79MOL0     H10615   6.734   7.357   9.697  2.5950  0.1431  1.9421
   79MOL0     H10616   6.894   7.294   9.887 -1.5402  1.2205 -1.6324
   79MOL0     H10617   7.161   7.226   9.994 -0.1294  0.0557  1.9589
   79MOL0     H10618   7.038   7.101  10.042  0.0671  0.5317 -0.9822
   79MOL0     H10619   7.230   6.971  10.068  0.8634 -0.6348 -0.5213
   79MOL0     H10620   7.199   6.926   9.906  1.0485 -0.6790  0.5227
   79MOL0     H10621   7.334   7.160   9.848 -0.0943  0.0788  0.8782
   79MOL0     H10622   7.413   7.001   9.876 -2.5960 -2.1083 -0.0125
   79MOL0     H10623   7.373   7.229  10.075 -0.5399  1.4619 -2.7225
   79MOL0     H10624   7.517   7.221   9.979  0.9107  1.5722  2.9952
   79MOL0     H10625   7.581   6.957  10.324  0.8967 -0.3932  0.6791
   79MOL0     H10626   7.811   6.911  10.371  0.8368 -1.0840  0.1737
   79MOL0     H10627   8.268   7.177  10.007 -0.2978 -1.4864 -0.4586
   79MOL0     H10628   8.531   7.193  10.034  1.1044  0.0797  3.2366
   79MOL0     H10629   8.740   6.893  10.275  0.7350  5.4000  4.3594
   79MOL0     H10630   8.764   6.879  10.094  3.2861 -1.1337  1.1582
   79MOL0     H10631   8.926   7.080  10.136 -2.0207 -0.1810  0.6949
   79MOL0     H10632   8.909   7.052  10.301  0.7917  1.8232 -0.7615
   79MOL0     H10633   8.992   6.804  10.251 -0.0010 -0.6909  0.0075
   79MOL0     H10634   9.003   6.863  10.082  2.9722  3.9703 -1.7868
   79MOL0     H10635   9.170   6.962  10.315 -1.6212 -2.9283  0.1411
   79MOL0     H10636   9.166   7.041  10.165 -2.2555  0.1008  0.2486
   79MOL0     H10637   9.266   6.850  10.048 -2.5112  0.6401 -0.7339
   79MOL0     H10638   9.229   6.741  10.185  5.3049 -1.2580  0.4603
   79MOL0     H10639   9.461   6.788  10.167  1.1774  2.5661 -2.5324
   79MOL0     H10640   9.440   6.966  10.196  0.0315  0.0827  1.4219
   79MOL0     H10641   9.348   6.725  10.375 -0.1784  0.6924  3.7798
   79MOL0     H10642   9.340   6.899  10.420  0.5176 -0.4690  1.8370
   79MOL0     H10643   9.502   6.790  10.538 -0.6026 -2.5326 -0.5721
   79MOL0     H10644   9.571   6.711  10.401 -1.9274 -0.8506  1.4550
   79MOL0     H10645   8.521   6.872  10.294 -0.8892  1.0124 -0.2263
   79MOL0     H10646   8.269   6.859  10.283  1.3687  0.1793  1.0574
   79MOL0     H10647   7.933   7.058   9.984 -1.1743  0.4163 -1.4940
   79MOL0     H10648   7.713   7.131   9.944  0.4357 -1.8161 -0.7103
   79MOL0     H10649   5.714   7.089   9.749  0.3802  0.6413 -0.8551
   79MOL0     H10650   5.503   7.054   9.607 -0.8145  2.0291 -0.8616
   79MOL0     H10651   5.270   6.800   9.225 -0.6821 -1.2883 -0.9142
   79MOL0     H10652   5.026   6.827   9.125 -1.4506 -1.1103  2.6605
   79MOL0     H10653   4.902   7.224   9.059  1.5608 -1.2917 -0.5037
   79MOL0     H10654   4.816   7.217   9.220 -0.5777 -1.2598 -0.0595
   79MOL0     H10655   4.696   7.108   8.978  2.4315  1.6845 -0.4778
   79MOL0     H10656   4.662   7.264   9.052 -0.9791  0.5345  1.4923
   79MOL0     H10657   4.564   7.140   9.244 -0.3184  2.9358 -2.1763
   79MOL0     H10658   4.644   6.988   9.198 -0.7637  0.1662  1.9927
   79MOL0     H10659   4.498   6.976   8.998 -1.7145 -0.4703  0.0811
   79MOL0     H10660   4.417   6.952   9.150 -0.0500 -1.6014 -0.4613
   79MOL0     H10661   4.251   7.316   8.974 -2.0735 -1.4583 -2.4167
   79MOL0     H10662   5.038   7.226   9.267 -0.2447 -0.6796 -1.4489
   79MOL0     H10663   5.343   7.199   9.473  0.8871 -0.8146 -0.1808
   79MOL0     H10664   5.308   7.291   9.335 -0.9994  0.9548  0.2602
   79MOL0     H10665   5.185   7.274   9.470  0.7176  0.2728 -0.1760
   80MOL0     O10666   9.083   0.430   6.671 -0.1485  0.1216  0.1234
   80MOL0     C10667   9.016   0.498   6.749 -0.0330 -0.2190 -0.2529
   80MOL0     O10668   9.034   0.631   6.773  0.3130 -0.1947  0.1288
   80MOL0     C10669   9.137   0.702   6.717  0.4785  0.0409 -0.1477
   80MOL0     C10670   9.270   0.652   6.689  0.2253 -0.2885 -0.1870
   80MOL0     C10671   9.369   0.737   6.638  0.4266 -0.3498 -1.0469
   80MOL0     C10672   9.343   0.879   6.625 -0.1794  0.1500 -0.2380
   80MOL0     O10673   9.437   0.976   6.587 -0.2543  0.5922  0.2741
   80MOL0     C10674   9.537   0.934   6.495 -0.6549  1.1172 -0.0669
   80MOL0     C10675   9.572   1.065   6.407  0.9864 -0.1736 -0.2581
   80MOL0     C10676   9.715   1.122   6.421  0.2922 -0.0296 -0.4482
   80MOL0     C10677   9.731   1.209   6.303  0.1784  0.2908 -0.1175
   80MOL0     C10678   9.871   1.259   6.295 -1.7666  0.9903  0.3588
   80MOL0     C10679   9.916   1.316   6.154  0.3147 -0.2081  0.8462
   80MOL0     C10680  10.059   1.367   6.164  0.3473 -0.2505  0.5963
   80MOL0     C10681  10.076   1.485   6.248  0.1897  0.1101  0.6580
   80MOL0     N10682  10.211   1.546   6.219 -0.1011 -0.0326  0.6807
   80MOL0     C10683  10.243   1.617   6.103  0.2623 -0.2168  0.1383
   80MOL0     C10684  10.373   1.653   6.132  0.4938 -0.6135  0.2285
   80MOL0     C10685  10.453   1.727   6.028  0.8484  0.0841 -0.2084
   80MOL0     C10686  10.601   1.694   6.059 -0.9752 -0.2838  0.9377
   80MOL0     C10687  10.683   1.768   5.946 -0.0603  0.3209 -0.2782
   80MOL0     C10688  10.828   1.735   5.948 -0.5004  0.8566  0.0112
   80MOL0     O10689  10.867   1.745   6.085 -0.1510  0.0625  0.7528
   80MOL0     C10690  10.977   1.665   6.114 -0.1095  0.7356  0.5225
   80MOL0     C10691  10.969   1.547   6.184  0.7212 -0.0868  0.5857
   80MOL0     C10692  11.081   1.459   6.199  0.0741 -0.0123  0.1700
   80MOL0     C10693  11.200   1.500   6.134 -0.2554 -0.0614  0.4052
   80MOL0     C10694  11.322   1.423   6.153 -0.8216  0.0103  0.1834
   80MOL0     O10695  11.444   1.487   6.142  0.8749 -0.6024 -0.0162
   80MOL0     C10696  11.561   1.421   6.163  0.1142  0.1658 -0.0125
   80MOL0     C10697  11.603   1.303   6.106  1.3357 -0.2043  0.6106
   80MOL0     C10698  11.733   1.252   6.117 -0.0611  0.8119 -0.4560
   80MOL0     C10699  11.826   1.317   6.197 -0.0709 -0.6835  0.1633
   80MOL0     O10700  11.943   1.251   6.204 -0.4906  0.1200 -0.5392
   80MOL0     C10701  12.049   1.332   6.270  0.7767  0.3354 -0.4699
   80MOL0     C10702  12.186   1.286   6.229  0.1307  0.4142  0.4887
   80MOL0     C10703  12.291   1.358   6.308  0.7929  0.8390 -0.2577
   80MOL0     C10704  12.421   1.299   6.262  0.2789 -0.2567  0.5310
   80MOL0     C10705  12.539   1.376   6.318  0.6584 -0.0561 -0.6594
   80MOL0     C10706  12.676   1.307   6.296  0.0761  0.0320 -0.3492
   80MOL0     C10707  12.697   1.178   6.379 -0.3390  0.0244 -0.0881
   80MOL0     C10708  12.657   1.192   6.529  0.0939  0.0431 -0.4014
   80MOL0    Cl10709  12.749   1.323   6.615  0.6555  0.0904 -0.2175
   80MOL0     C10710  11.785   1.434   6.254 -0.2655 -0.4766 -0.1828
   80MOL0     C10711  11.652   1.483   6.244  0.4610 -0.3680 -0.1891
   80MOL0     O10712  11.316   1.307   6.194  0.1637 -0.2464  0.1942
   80MOL0     C10713  11.200   1.621   6.052  0.3224  1.3251 -0.0232
   80MOL0     C10714  11.091   1.702   6.048  0.7815  0.0134  0.1814
   80MOL0     N10715  10.406   1.617   6.262  0.2675 -0.2896  0.5744
   80MOL0     N10716  10.306   1.554   6.309 -0.3250  0.5690 -0.3313
   80MOL0     C10717   9.216   0.921   6.665  0.9020  0.3790 -0.1350
   80MOL0     C10718   9.114   0.838   6.710  0.6078 -0.5272  0.0395
   80MOL0     C10719   8.906   0.433   6.811 -0.0386 -1.2712 -0.8608
   80MOL0     C10720   8.831   0.519   6.901 -0.2107 -0.6021  0.2543
   80MOL0     C10721   8.726   0.478   6.977  0.4875  0.2322  0.6878
   80MOL0     C10722   8.685   0.345   6.956  0.3957 -0.5634 -0.0401
   80MOL0     O10723   8.580   0.301   7.029  0.2729 -0.6746  0.4688
   80MOL0     C10724   8.500   0.191   6.964 -0.7408 -0.3425 -0.3882
   80MOL0     C10725   8.356   0.172   7.016 -0.9172  0.1423  0.3044
   80MOL0     C10726   8.291   0.306   7.019 -0.0455 -0.0808  0.0387
   80MOL0     C10727   8.149   0.291   7.071 -0.1229 -0.0546 -0.2733
   80MOL0     C10728   8.135   0.247   7.209 -0.6127  0.1209  0.0139
   80MOL0     C10729   8.119   0.203   7.321 -0.1423 -0.2329  0.2952
   80MOL0     C10730   8.751   0.258   6.870 -0.6119 -0.9767 -0.5847
   80MOL0     C10731   8.864   0.294   6.791  0.3711 -0.2008 -0.3832
   80MOL0     C10732   8.920   0.189   6.702  0.8818 -0.5085  0.2774
   80MOL0     H10733   9.291   0.546   6.692 -1.6363 -0.7825 -1.7593
   80MOL0     H10734   9.471   0.700   6.630  1.5135  2.1480  0.2844
   80MOL0     H10735   9.626   0.918   6.557  0.4362  1.4558 -1.4924
   80MOL0     H10736   9.513   0.842   6.441 -1.8033 -0.7787  3.4226
   80MOL0     H10737   9.497   1.143   6.422  0.1140 -0.8332 -1.0781
   80MOL0     H10738   9.546   1.044   6.303  2.3231  0.5238 -0.7687
   80MOL0     H10739   9.788   1.043   6.401  0.4742  0.2367 -0.8451
   80MOL0     H10740   9.740   1.182   6.509 -0.1196 -0.9117  0.2819
   80MOL0     H10741   9.714   1.145   6.216 -0.3232  1.7440 -1.1352
   80MOL0     H10742   9.660   1.292   6.295 -1.3076 -0.9988 -0.8361
   80MOL0     H10743   9.888   1.335   6.373  5.0687  1.1676 -0.6635
   80MOL0     H10744   9.934   1.173   6.319 -1.1986  1.6219  1.1912
   80MOL0     H10745   9.905   1.238   6.078 -0.5415  0.7977 -0.0884
   80MOL0     H10746   9.846   1.389   6.114  1.1376 -0.3554 -0.9312
   80MOL0     H10747  10.096   1.398   6.066  0.3785  0.0506  0.7027
   80MOL0     H10748  10.114   1.282   6.204  1.1215  1.3522  3.1971
   80MOL0     H10749  10.000   1.559   6.219 -0.3472 -0.4004  0.7391
   80MOL0     H10750  10.065   1.462   6.355 -0.8323 -1.0933  0.3120
   80MOL0     H10751  10.189   1.626   6.010  1.7739 -0.6091 -0.8175
   80MOL0     H10752  10.431   1.697   5.925  0.7593  2.9636 -1.1190
   80MOL0     H10753  10.441   1.835   6.037 -0.0740 -0.0940  0.8068
   80MOL0     H10754  10.627   1.723   6.161 -0.4474 -2.1455  1.3865
   80MOL0     H10755  10.618   1.586   6.047 -0.0462 -0.1500  0.9523
   80MOL0     H10756  10.672   1.876   5.961 -0.6951  0.1456  0.5449
   80MOL0     H10757  10.646   1.743   5.846 -1.2085  4.2729 -0.9912
   80MOL0     H10758  10.884   1.806   5.886 -0.2815 -0.0469 -0.8487
   80MOL0     H10759  10.841   1.635   5.904 -0.5661  0.7333  0.2721
   80MOL0     H10760  10.876   1.519   6.233  1.0662  0.4788  1.5873
   80MOL0     H10761  11.061   1.378   6.269 -3.0083  2.0102  1.8647
   80MOL0     H10762  11.541   1.236   6.047  0.9605  1.8730 -1.5017
   80MOL0     H10763  11.760   1.163   6.062  2.1257  1.3628 -0.3633
   80MOL0     H10764  12.038   1.435   6.236 -1.8205  0.7081  1.2146
   80MOL0     H10765  12.044   1.326   6.379 -0.9980  0.7818 -0.5124
   80MOL0     H10766  12.187   1.179   6.251  0.6113 -0.7178 -4.0613
   80MOL0     H10767  12.195   1.313   6.123 -0.7141 -1.0556  0.0260
   80MOL0     H10768  12.283   1.463   6.278 -2.2716  0.7249 -0.1570
   80MOL0     H10769  12.281   1.351   6.416  0.0993  2.6747 -0.1724
   80MOL0     H10770  12.435   1.299   6.153  0.4512 -0.9291  0.5520
   80MOL0     H10771  12.425   1.196   6.297 -1.2494 -0.0497  1.4163
   80MOL0     H10772  12.528   1.396   6.425 -0.2405  0.2478 -0.7955
   80MOL0     H10773  12.552   1.474   6.271 -0.9513 -0.7052 -2.6371
   80MOL0     H10774  12.692   1.290   6.189  3.5270 -1.2374  0.2567
   80MOL0     H10775  12.751   1.383   6.316 -1.8511  1.8938  0.2033
   80MOL0     H10776  12.805   1.161   6.378 -0.2196  0.4819  1.8339
   80MOL0     H10777  12.643   1.094   6.333  0.2808  0.4516 -1.6714
   80MOL0     H10778  12.553   1.223   6.546  0.0049 -0.0990 -0.6788
   80MOL0     H10779  12.672   1.100   6.586 -2.6318  1.1397  2.4221
   80MOL0     H10780  11.852   1.500   6.309  0.0983 -1.0157  0.0322
   80MOL0     H10781  11.629   1.583   6.280 -2.5962 -0.6699 -0.9801
   80MOL0     H10782  11.289   1.649   5.997 -0.6778  1.2652 -1.7334
   80MOL0     H10783  11.079   1.790   5.986 -1.8119  0.3910  1.1073
   80MOL0     H10784   9.188   1.026   6.668  0.3662  0.2534 -0.6830
   80MOL0     H10785   9.015   0.869   6.743 -0.1973 -1.6400 -1.1832
   80MOL0     H10786   8.855   0.624   6.913 -0.8946 -0.3903 -0.1954
   80MOL0     H10787   8.666   0.543   7.040 -0.9804  1.0535 -1.4239
   80MOL0     H10788   8.549   0.094   6.970 -5.2083 -2.9620 -1.1355
   80MOL0     H10789   8.490   0.205   6.856 -1.4789  1.2121 -0.1495
   80MOL0     H10790   8.356   0.144   7.121 -0.4111  3.0571  1.1508
   80MOL0     H10791   8.304   0.098   6.953 -0.6761  0.4163 -0.2262
   80MOL0     H10792   8.288   0.359   6.924  1.0272  0.7148  0.4238
   80MOL0     H10793   8.348   0.375   7.082 -0.7779 -1.2567  2.1181
   80MOL0     H10794   8.101   0.388   7.057  0.1049 -0.2509 -3.0648
   80MOL0     H10795   8.096   0.223   7.004  1.9397 -3.0727  0.9518
   80MOL0     H10796   8.089   0.172   7.419 -1.1246 -3.3387 -0.8910
   80MOL0     H10797   8.721   0.155   6.859 -0.2113 -0.8382 -4.4371
   80MOL0     H10798   8.884   0.090   6.732  0.7956 -1.0132 -1.3958
   80MOL0     H10799   8.896   0.193   6.596  1.5002  2.0725  0.1749
   80MOL0     H10800   9.028   0.198   6.721  1.1070 -0.1477 -1.0953
   81MOL0     O10801   9.257   7.672   9.104  0.1362  0.4279  0.3336
   81MOL0     C10802   9.319   7.626   9.203 -0.3858  0.6768 -0.1508
   81MOL0     O10803   9.455   7.638   9.236 -0.5525 -0.2995 -0.4169
   81MOL0     C10804   9.537   7.736   9.194  0.9101 -0.3312 -0.4777
   81MOL0     C10805   9.670   7.727   9.239  0.2357 -0.8431  0.8696
   81MOL0     C10806   9.774   7.811   9.192  0.5924 -0.1498  0.0333
   81MOL0     C10807   9.737   7.915   9.104  0.1017  1.1722 -0.3074
   81MOL0     O10808   9.831   7.992   9.032  0.6276  0.6644 -0.6832
   81MOL0     C10809   9.956   7.930   9.005  0.5764  0.1100  0.5145
   81MOL0     C10810  10.039   8.017   8.913  0.0469  0.3175  0.3835
   81MOL0     C10811  10.071   8.158   8.967  0.0778 -0.8033  0.0753
   81MOL0     C10812  10.182   8.215   8.878  0.1270 -0.0600 -0.7421
   81MOL0     C10813  10.219   8.366   8.918  0.3344 -0.2608  0.9274
   81MOL0     C10814  10.264   8.394   9.065 -0.3567 -0.4072  0.3836
   81MOL0     C10815  10.319   8.530   9.075 -0.5998 -0.4870  0.0572
   81MOL0     C10816  10.218   8.642   9.107 -0.4214  0.2837  1.1398
   81MOL0     N10817  10.279   8.776   9.139 -0.1855 -0.0468 -0.0033
   81MOL0     C10818  10.339   8.814   9.255 -0.3609  0.4401  0.2626
   81MOL0     C10819  10.380   8.937   9.230 -0.4704  0.3783 -0.9864
   81MOL0     C10820  10.471   9.010   9.330 -0.2435 -0.2476  0.5205
   81MOL0     C10821  10.386   9.071   9.439 -0.0293 -0.8412 -0.0572
   81MOL0     C10822  10.482   9.110   9.560 -0.5912  0.4379  0.4504
   81MOL0     C10823  10.578   9.232   9.547 -0.5603  0.0146  0.6735
   81MOL0     O10824  10.690   9.241   9.636  0.1511  0.6528 -0.7957
   81MOL0     C10825  10.809   9.300   9.598 -0.2303  0.8667 -0.2961
   81MOL0     C10826  10.920   9.266   9.674  0.8349 -0.6632  0.3813
   81MOL0     C10827  11.040   9.320   9.650  0.4391  0.1525 -0.4123
   81MOL0     C10828  11.065   9.420   9.560 -0.0129 -1.0423  0.2533
   81MOL0     C10829  11.195   9.477   9.529 -0.7635  0.3090 -0.4094
   81MOL0     O10830  11.205   9.597   9.461 -0.1085  0.1624  0.7156
   81MOL0     C10831  11.329   9.638   9.431 -0.7046 -0.2475  0.0611
   81MOL0     C10832  11.433   9.558   9.368 -0.4903  0.5253 -0.6583
   81MOL0     C10833  11.564   9.610   9.345  0.4748  0.8631 -0.1367
   81MOL0     C10834  11.595   9.739   9.389 -0.1453 -0.3438  0.1011
   81MOL0     O10835  11.720   9.798   9.384 -0.1593  0.1787  0.2606
   81MOL0     C10836  11.834   9.712   9.405  0.7155 -1.1727  0.8806
   81MOL0     C10837  11.963   9.765   9.341  0.8793  0.2460  0.3515
   81MOL0     C10838  12.083   9.665   9.341 -0.5124 -0.1883  0.9104
   81MOL0     C10839  12.215   9.738   9.290  0.8170 -0.3174 -0.5497
   81MOL0     C10840  12.336   9.741   9.388 -0.2517 -0.3190 -0.1024
   81MOL0     C10841  12.463   9.804   9.312 -0.6817 -0.8348  0.5556
   81MOL0     C10842  12.522   9.694   9.218  0.3225 -0.0724  0.5955
   81MOL0     C10843  12.633   9.750   9.126 -0.4761 -0.0024  1.3397
   81MOL0    Cl10844  12.690   9.620   9.021 -0.2974  0.2921 -0.2686
   81MOL0     C10845  11.494   9.824   9.435 -0.5543 -0.0903 -0.0988
   81MOL0     C10846  11.361   9.777   9.446  0.0019  0.0324  0.4391
   81MOL0     O10847  11.285   9.407   9.574 -1.1698 -0.0369  0.2399
   81MOL0     C10848  10.953   9.453   9.480 -0.5877 -0.2374 -0.1571
   81MOL0     C10849  10.833   9.387   9.486  0.3799  0.0930 -0.7895
   81MOL0     N10850  10.339   8.982   9.110  0.3023 -0.2605  0.4584
   81MOL0     N10851  10.286   8.877   9.045 -0.3594 -0.1948  0.2918
   81MOL0     C10852   9.597   7.933   9.065  0.1800 -0.0583  0.8279
   81MOL0     C10853   9.503   7.840   9.104  0.6412  0.3030 -0.3987
   81MOL0     C10854   9.247   7.505   9.256  0.1228 -0.8503 -0.6035
   81MOL0     C10855   9.325   7.413   9.339 -0.3561  0.4804  0.0507
   81MOL0     C10856   9.261   7.299   9.395  0.3390 -0.4180  0.0504
   81MOL0     C10857   9.128   7.269   9.380  0.7144 -1.0967 -0.1798
   81MOL0     O10858   9.079   7.151   9.432  0.2234  0.5806  0.3547
   81MOL0     C10859   8.949   7.093   9.389 -0.6531  0.0197  0.0988
   81MOL0     C10860   8.943   7.056   9.237  0.1773  0.4149  0.3517
   81MOL0     C10861   9.058   6.951   9.213 -0.1790  0.1119  0.8568
   81MOL0     C10862   9.051   6.873   9.079 -0.6882  0.8209 -0.3703
   81MOL0     C10863   9.134   6.939   8.977 -1.2797 -0.6741 -0.3573
   81MOL0     C10864   9.204   6.974   8.889 -0.8569 -1.2033 -0.1359
   81MOL0     C10865   9.057   7.361   9.305 -0.4744  0.2493 -0.4633
   81MOL0     C10866   9.106   7.477   9.244 -0.6771 -0.6032  0.4301
   81MOL0     C10867   9.004   7.566   9.157  0.6698  0.5841  0.0237
   81MOL0     H10868   9.679   7.654   9.319 -0.5899 -1.5225  0.3751
   81MOL0     H10869   9.871   7.792   9.235 -0.0767 -0.4454  1.4881
   81MOL0     H10870  10.017   7.911   9.094  1.7426 -2.1444 -0.6720
   81MOL0     H10871   9.950   7.832   8.956 -1.5958  1.0829 -1.3217
   81MOL0     H10872   9.996   8.024   8.814 -2.1499 -1.5156  1.1335
   81MOL0     H10873  10.135   7.965   8.902 -0.3455  0.1931 -3.7025
   81MOL0     H10874  10.097   8.174   9.072 -0.7357  2.4809 -0.1166
   81MOL0     H10875   9.985   8.226   8.960  1.0479  0.3654 -0.8786
   81MOL0     H10876  10.270   8.150   8.879 -0.0053 -0.2480  1.3617
   81MOL0     H10877  10.134   8.217   8.779  1.3052  1.8955 -1.3378
   81MOL0     H10878  10.294   8.405   8.849 -2.1338 -1.8841 -2.9889
   81MOL0     H10879  10.122   8.413   8.902  0.7730  0.0275 -1.0573
   81MOL0     H10880  10.182   8.381   9.136  0.4934 -1.5780  1.2022
   81MOL0     H10881  10.346   8.326   9.093 -1.2092 -0.3649  3.3012
   81MOL0     H10882  10.365   8.562   8.982  0.2207 -1.3595  0.1496
   81MOL0     H10883  10.398   8.533   9.150  1.1240 -1.4337 -1.6539
   81MOL0     H10884  10.156   8.650   9.017  1.3056  3.0148  0.0585
   81MOL0     H10885  10.148   8.619   9.188 -0.5636  0.4413  1.0637
   81MOL0     H10886  10.356   8.755   9.345 -1.0591 -2.1831 -1.2052
   81MOL0     H10887  10.548   8.946   9.373  0.4559  0.3356  0.1664
   81MOL0     H10888  10.523   9.095   9.284 -1.2956 -0.9845 -2.2388
   81MOL0     H10889  10.320   9.145   9.392  0.3264 -2.1385 -2.7986
   81MOL0     H10890  10.315   8.995   9.474  0.3159 -1.2511 -0.2410
   81MOL0     H10891  10.547   9.026   9.585 -0.8515  0.6006  1.7585
   81MOL0     H10892  10.424   9.127   9.651  0.3891 -2.9804  1.8764
   81MOL0     H10893  10.517   9.323   9.551 -0.4847  0.1543 -0.7911
   81MOL0     H10894  10.612   9.225   9.443 -0.7928  0.8606  0.5361
   81MOL0     H10895  10.906   9.187   9.748 -0.0203 -0.7175  0.1679
   81MOL0     H10896  11.119   9.305   9.722 -0.2317  2.3411  0.8691
   81MOL0     H10897  11.410   9.453   9.349  1.2311 -0.3520  1.6148
   81MOL0     H10898  11.636   9.551   9.289 -2.9324 -2.7347 -1.0851
   81MOL0     H10899  11.844   9.686   9.511  1.6606 -0.6480  0.9293
   81MOL0     H10900  11.829   9.612   9.362  4.3585 -0.5627 -1.4293
   81MOL0     H10901  11.949   9.809   9.241 -1.1115 -0.9769  0.0279
   81MOL0     H10902  11.999   9.848   9.402 -1.1884  0.1677  1.7499
   81MOL0     H10903  12.102   9.624   9.441  2.4703 -1.3128 -0.0032
   81MOL0     H10904  12.069   9.583   9.270 -0.3465  2.1077 -1.9627
   81MOL0     H10905  12.185   9.839   9.261 -4.1377 -1.7226 -1.3349
   81MOL0     H10906  12.244   9.686   9.199  0.7049 -0.2883 -0.6021
   81MOL0     H10907  12.359   9.639   9.420 -2.3922 -0.9890 -0.5477
   81MOL0     H10908  12.322   9.806   9.475  0.9002  0.3546 -0.3935
   81MOL0     H10909  12.441   9.896   9.257 -2.1433 -0.3339  1.9065
   81MOL0     H10910  12.537   9.831   9.389 -1.7331 -0.0711  1.3328
   81MOL0     H10911  12.441   9.669   9.150  1.5459 -1.6128 -0.3749
   81MOL0     H10912  12.556   9.607   9.275 -0.3368 -1.6658 -1.3333
   81MOL0     H10913  12.588   9.828   9.063  1.1136  0.9632  1.3405
   81MOL0     H10914  12.714   9.806   9.175 -1.7812  1.1742  2.2412
   81MOL0     H10915  11.519   9.927   9.458 -1.9381  1.0829 -3.2467
   81MOL0     H10916  11.289   9.848   9.487  1.5632  2.6653 -1.0902
   81MOL0     H10917  10.972   9.519   9.397 -0.1748 -0.3578 -0.1609
   81MOL0     H10918  10.751   9.422   9.424  0.0319 -1.5525 -1.2973
   81MOL0     H10919   9.564   8.013   8.999  1.3442 -0.2303  0.0055
   81MOL0     H10920   9.401   7.850   9.069 -0.1688  2.6127  2.2867
   81MOL0     H10921   9.433   7.410   9.348 -0.4530  1.1858  1.7497
   81MOL0     H10922   9.309   7.229   9.463 -1.3018 -0.2221  1.4988
   81MOL0     H10923   8.872   7.167   9.413 -0.8862  0.6699 -2.4338
   81MOL0     H10924   8.936   7.003   9.450 -2.0201  0.3787  0.3696
   81MOL0     H10925   8.947   7.147   9.177  1.4826  0.1514 -0.0136
   81MOL0     H10926   8.851   7.001   9.216  0.5285  0.4312 -1.3764
   81MOL0     H10927   9.066   6.878   9.294  2.7598  1.3399  1.8028
   81MOL0     H10928   9.160   6.991   9.211 -0.3926  0.7030  1.5094
   81MOL0     H10929   9.099   6.777   9.101 -0.6762  0.4727 -1.8125
   81MOL0     H10930   8.947   6.856   9.051 -0.6179 -1.1446  0.4071
   81MOL0     H10931   9.283   6.996   8.820 -0.3187  0.6413  1.0167
   81MOL0     H10932   8.950   7.345   9.314 -0.5916  1.6210  1.0241
   81MOL0     H10933   9.034   7.583   9.053 -2.6405 -0.3107 -1.1965
   81MOL0     H10934   8.907   7.518   9.146  1.9190 -1.5956 -2.9647
   81MOL0     H10935   8.996   7.656   9.218  1.7758 -1.3821  3.2981
   82MOL0     O10936   8.040   4.406   0.312  0.3790  0.0714  0.8232
   82MOL0     C10937   7.983   4.306   0.351 -0.1804 -0.0541  0.1179
   82MOL0     O10938   8.044   4.206   0.427 -0.3089 -0.5029 -0.1552
   82MOL0     C10939   8.165   4.219   0.490 -0.5017  0.3761  0.0186
   82MOL0     C10940   8.273   4.294   0.450 -0.1401 -0.7388 -1.0862
   82MOL0     C10941   8.393   4.294   0.518 -0.8159  0.1792 -0.7935
   82MOL0     C10942   8.421   4.205   0.624  0.1085  0.2210  0.6176
   82MOL0     O10943   8.534   4.201   0.699 -0.2964  0.1850 -0.2944
   82MOL0     C10944   8.664   4.249   0.646  0.4626 -0.3889  0.2644
   82MOL0     C10945   8.757   4.183   0.743  0.4924  0.2500 -0.8666
   82MOL0     C10946   8.902   4.221   0.714 -0.3077 -0.1934 -0.5572
   82MOL0     C10947   8.963   4.136   0.604 -0.3095  0.3629  0.5265
   82MOL0     C10948   9.092   4.064   0.655 -0.2316  0.3724  0.4779
   82MOL0     C10949   9.161   3.987   0.539 -0.4387  0.0625  0.0976
   82MOL0     C10950   9.296   3.938   0.594  0.1531 -0.2119 -0.8024
   82MOL0     C10951   9.279   3.804   0.674  0.7285  0.1864  0.4661
   82MOL0     N10952   9.405   3.774   0.740  0.6069 -0.3222  0.2960
   82MOL0     C10953   9.445   3.778   0.873 -0.6390  0.5020  0.2672
   82MOL0     C10954   9.579   3.776   0.872  0.8440  0.8458  0.0714
   82MOL0     C10955   9.658   3.786   1.011  0.5243 -0.6673  0.5549
   82MOL0     C10956   9.794   3.861   0.986 -0.6005  0.0529 -0.3028
   82MOL0     C10957   9.900   3.753   0.965  0.7498  0.5668 -0.0831
   82MOL0     C10958  10.044   3.811   0.965 -0.6608  0.1964 -0.1747
   82MOL0     O10959  10.100   3.848   1.089 -0.1471 -0.0381 -0.5964
   82MOL0     C10960  10.231   3.887   1.098  0.6946 -0.0431  0.5894
   82MOL0     C10961  10.270   3.913   1.228  0.7673  0.1388 -0.0601
   82MOL0     C10962  10.392   3.964   1.262  0.5316  0.7497 -0.0357
   82MOL0     C10963  10.488   3.971   1.158  0.2311  0.1365 -0.7326
   82MOL0     C10964  10.623   4.017   1.190 -0.1880  0.8446 -1.0358
   82MOL0     O10965  10.648   4.063   1.319  0.2277 -0.7298 -0.6415
   82MOL0     C10966  10.776   4.099   1.361  0.2017  0.3198  0.2146
   82MOL0     C10967  10.795   4.079   1.498  0.4434 -0.3861  0.6287
   82MOL0     C10968  10.913   4.119   1.558 -0.0265 -0.1705  0.3792
   82MOL0     C10969  11.008   4.191   1.487  0.3456 -0.2364 -0.3655
   82MOL0     O10970  11.134   4.220   1.527 -0.2875  0.0651 -0.1809
   82MOL0     C10971  11.186   4.157   1.647  0.6437  0.6622 -0.2514
   82MOL0     C10972  11.330   4.208   1.659  0.5875  0.4549  0.2843
   82MOL0     C10973  11.397   4.178   1.791  0.3453  0.1588  0.2943
   82MOL0     C10974  11.525   4.257   1.804 -0.5602  0.0693  0.0775
   82MOL0     C10975  11.600   4.238   1.936  1.0836  0.1448  0.3112
   82MOL0     C10976  11.733   4.313   1.947 -0.1281  0.8380  0.2500
   82MOL0     C10977  11.799   4.303   2.088  0.3341 -0.4723  0.0606
   82MOL0     C10978  11.936   4.360   2.070 -0.0313 -0.2017  0.3830
   82MOL0    Cl10979  12.027   4.299   2.206 -0.4164  0.4094  0.0036
   82MOL0     C10980  10.978   4.219   1.356  0.2423  0.0826  0.4274
   82MOL0     C10981  10.864   4.179   1.288 -0.4864  0.7268 -0.6951
   82MOL0     O10982  10.708   4.006   1.103 -0.6713  0.2169 -0.2719
   82MOL0     C10983  10.446   3.941   1.028 -0.6288  0.7750  0.5443
   82MOL0     C10984  10.320   3.887   0.992 -0.1102 -0.2291  1.3744
   82MOL0     N10985   9.625   3.770   0.742  0.9445  0.4550 -0.2286
   82MOL0     N10986   9.521   3.769   0.670 -0.2019  0.2085 -0.8237
   82MOL0     C10987   8.311   4.147   0.680 -0.0891  0.1881 -0.1370
   82MOL0     C10988   8.185   4.153   0.617 -0.1245  0.0208 -0.2928
   82MOL0     C10989   7.836   4.305   0.326  0.4961  0.4849  0.6471
   82MOL0     C10990   7.768   4.194   0.364  0.1200  0.3496  0.0625
   82MOL0     C10991   7.630   4.186   0.355  0.0774 -0.0623  0.6997
   82MOL0     C10992   7.553   4.289   0.302  0.7067  0.2708 -0.4782
   82MOL0     O10993   7.417   4.286   0.290  0.6277 -0.4523 -0.3263
   82MOL0     C10994   7.363   4.158   0.267 -0.5972 -0.0403  0.3611
   82MOL0     C10995   7.212   4.182   0.262  0.2495 -1.2091  0.0856
   82MOL0     C10996   7.135   4.060   0.297  0.2330  1.1573 -0.2459
   82MOL0     C10997   6.981   4.075   0.275  0.1909  0.2558 -0.1934
   82MOL0     C10998   6.910   4.179   0.349  0.7170 -0.9099 -0.7039
   82MOL0     C10999   6.858   4.275   0.404 -0.0645  0.0306 -0.1422
   82MOL0     C11000   7.618   4.403   0.269 -0.0539  0.0145  0.4279
   82MOL0     C11001   7.758   4.410   0.271 -0.3291 -0.0852  0.5701
   82MOL0     C11002   7.820   4.548   0.229 -0.5495 -0.0209 -0.1532
   82MOL0     H11003   8.278   4.354   0.360  1.6054  1.7253  0.5475
   82MOL0     H11004   8.474   4.353   0.475 -1.8451  0.8971 -1.8298
   82MOL0     H11005   8.679   4.208   0.546  2.4438  1.2990 -0.2039
   82MOL0     H11006   8.660   4.359   0.648 -1.2865 -0.3192 -2.2564
   82MOL0     H11007   8.758   4.074   0.753  1.4714  0.4243  1.5863
   82MOL0     H11008   8.740   4.213   0.846  0.7231  1.1580 -1.0837
   82MOL0     H11009   8.959   4.208   0.807 -1.5564  0.2839  0.2991
   82MOL0     H11010   8.920   4.326   0.689  1.3546 -0.9206 -2.7361
   82MOL0     H11011   8.892   4.065   0.560  2.0248 -1.7834 -0.0889
   82MOL0     H11012   8.990   4.210   0.528 -0.0844  1.1318  1.3409
   82MOL0     H11013   9.159   4.139   0.697 -0.5912  1.0318 -0.0949
   82MOL0     H11014   9.073   3.992   0.735 -0.3134 -1.0466 -0.7653
   82MOL0     H11015   9.109   3.893   0.518  0.1055 -0.3056  0.3661
   82MOL0     H11016   9.172   4.045   0.447 -1.2218  1.2606  0.7310
   82MOL0     H11017   9.348   4.015   0.652 -0.9679  1.5434 -2.0398
   82MOL0     H11018   9.358   3.928   0.504 -0.2913 -2.8296 -0.8856
   82MOL0     H11019   9.191   3.800   0.738  1.1106  1.1126  1.0683
   82MOL0     H11020   9.264   3.728   0.597 -0.6071  0.9220 -0.0294
   82MOL0     H11021   9.398   3.796   0.969  3.5569  2.9035  2.1519
   82MOL0     H11022   9.589   3.853   1.062 -0.8463 -1.0466 -0.7228
   82MOL0     H11023   9.655   3.684   1.051 -4.3793 -0.7061  0.6876
   82MOL0     H11024   9.784   3.929   0.901  0.8073 -0.3285 -0.8050
   82MOL0     H11025   9.817   3.920   1.076  0.0185  0.5763 -0.7936
   82MOL0     H11026   9.874   3.704   0.871 -0.9364  0.6406  0.3161
   82MOL0     H11027   9.884   3.685   1.050  0.7474 -1.2940 -1.5150
   82MOL0     H11028  10.051   3.895   0.895  0.1060 -1.3269 -1.9827
   82MOL0     H11029  10.119   3.741   0.927 -1.7839 -1.8294  1.1336
   82MOL0     H11030  10.194   3.902   1.305  2.8624 -1.6657  1.8826
   82MOL0     H11031  10.425   4.002   1.358  0.3435  0.8539 -0.0129
   82MOL0     H11032  10.708   4.057   1.559 -2.1434  2.7259 -1.6074
   82MOL0     H11033  10.937   4.105   1.663  0.5206  0.4999  0.3498
   82MOL0     H11034  11.121   4.163   1.735 -5.7788 -3.2933 -3.9648
   82MOL0     H11035  11.189   4.052   1.619 -1.1514  0.1488  1.2705
   82MOL0     H11036  11.387   4.167   1.574  0.7171  2.3531 -0.5960
   82MOL0     H11037  11.330   4.316   1.639 -1.2006  0.7185  1.5345
   82MOL0     H11038  11.326   4.214   1.867 -0.1380 -0.4605  0.1425
   82MOL0     H11039  11.413   4.073   1.818  0.1685  0.3540  1.1919
   82MOL0     H11040  11.502   4.364   1.801 -0.2762  0.1160 -1.0442
   82MOL0     H11041  11.584   4.241   1.713 -0.1788  3.1246 -0.3156
   82MOL0     H11042  11.616   4.130   1.949  0.7339  0.1897  1.2172
   82MOL0     H11043  11.525   4.260   2.012  0.8289 -0.2461  0.1775
   82MOL0     H11044  11.802   4.273   1.871  0.4183  0.1502  1.0896
   82MOL0     H11045  11.721   4.419   1.923  0.6487  0.5800 -1.4110
   82MOL0     H11046  11.800   4.198   2.119 -1.2999 -0.5659 -0.0889
   82MOL0     H11047  11.749   4.361   2.166  0.7731  0.8692 -0.6272
   82MOL0     H11048  11.983   4.318   1.981  0.5141 -1.2532  1.1444
   82MOL0     H11049  11.937   4.469   2.056 -1.1576 -0.2337 -0.0080
   82MOL0     H11050  11.039   4.282   1.293 -0.1898  0.3905  0.3161
   82MOL0     H11051  10.841   4.211   1.187  0.8891 -1.3699 -1.7394
   82MOL0     H11052  10.514   3.957   0.945  0.6797 -1.1206  1.2012
   82MOL0     H11053  10.303   3.865   0.887 -1.1626  3.3976  0.6515
   82MOL0     H11054   8.318   4.087   0.770 -1.0912  0.6415  0.2539
   82MOL0     H11055   8.093   4.102   0.646 -0.9161  0.3826 -2.0032
   82MOL0     H11056   7.818   4.107   0.405 -0.4974 -0.7655 -1.4561
   82MOL0     H11057   7.585   4.100   0.403 -0.5132  0.1836  0.6004
   82MOL0     H11058   7.371   4.101   0.359  2.3321  2.9447  2.1818
   82MOL0     H11059   7.414   4.115   0.179  3.2613 -0.2266  2.4527
   82MOL0     H11060   7.186   4.200   0.158 -0.5773  2.0654  0.7478
   82MOL0     H11061   7.190   4.276   0.312 -1.6249 -1.3770 -0.3615
   82MOL0     H11062   7.157   4.025   0.398 -0.2528 -0.4475 -0.6541
   82MOL0     H11063   7.163   3.985   0.222 -3.0300  1.7919 -2.3018
   82MOL0     H11064   6.967   4.085   0.167  1.1059 -3.7239 -0.8635
   82MOL0     H11065   6.927   3.981   0.288  1.6974 -0.6866 -0.4543
   82MOL0     H11066   6.825   4.360   0.460 -0.1485  1.4022 -2.1860
   82MOL0     H11067   7.558   4.482   0.225 -1.8408 -1.5207 -0.0811
   82MOL0     H11068   7.884   4.539   0.141 -2.4985 -0.1895 -1.6276
   82MOL0     H11069   7.737   4.616   0.207  0.0749  0.6907 -0.3286
   82MOL0     H11070   7.870   4.597   0.313 -0.8228 -1.5347  0.9380
   83MOL0     O11071   7.072   7.341   5.147  0.6028  0.2303 -0.0263
   83MOL0     C11072   7.186   7.298   5.121  0.8265 -0.3309 -0.2632
   83MOL0     O11073   7.218   7.198   5.029  0.3224 -0.0899 -0.1878
   83MOL0     C11074   7.119   7.118   4.985  1.0805 -0.1244 -0.0527
   83MOL0     C11075   7.140   6.987   5.016 -0.1282  0.4507  0.4938
   83MOL0     C11076   7.043   6.896   4.982  0.1989 -0.0993  0.4297
   83MOL0     C11077   6.925   6.934   4.924  0.0409 -0.2392  0.0510
   83MOL0     O11078   6.821   6.850   4.879 -0.0555  0.0104 -0.2173
   83MOL0     C11079   6.861   6.722   4.828  0.3947  0.0710 -0.1141
   83MOL0     C11080   6.733   6.635   4.799  0.2009  0.0361 -0.0004
   83MOL0     C11081   6.629   6.712   4.713 -0.6984  0.1277 -0.2001
   83MOL0     C11082   6.528   6.606   4.670 -0.5091 -0.0543  0.3975
   83MOL0     C11083   6.413   6.572   4.772  0.1445  1.1344 -0.0649
   83MOL0     C11084   6.299   6.495   4.706 -0.3782 -0.2604 -0.5278
   83MOL0     C11085   6.331   6.375   4.629 -0.2558  0.8449 -0.0119
   83MOL0     C11086   6.203   6.320   4.564 -0.5654 -0.1311 -0.4028
   83MOL0     N11087   6.148   6.411   4.459  1.1661  0.5036 -0.2189
   83MOL0     C11088   6.218   6.432   4.344 -0.2925 -0.5754 -0.8537
   83MOL0     C11089   6.155   6.533   4.285 -0.3799  0.1850  0.2068
   83MOL0     C11090   6.183   6.601   4.153 -0.3213 -0.1080  0.3318
   83MOL0     C11091   6.305   6.692   4.158  0.4342 -0.0176 -0.6784
   83MOL0     C11092   6.437   6.610   4.165  0.0435 -0.3329 -0.0615
   83MOL0     C11093   6.567   6.683   4.171 -0.0613 -0.6791  0.1868
   83MOL0     O11094   6.606   6.724   4.041 -0.1448 -0.1426  0.1737
   83MOL0     C11095   6.716   6.814   4.033 -0.5147  0.0958  0.3341
   83MOL0     C11096   6.740   6.880   3.914 -0.5414  0.6790  0.6883
   83MOL0     C11097   6.846   6.964   3.897  0.2113 -0.4637 -0.2571
   83MOL0     C11098   6.917   7.007   4.004 -0.3520  0.1747  0.3729
   83MOL0     C11099   7.022   7.113   4.002  0.0831  0.3030  0.6690
   83MOL0     O11100   7.020   7.195   3.898  0.5699 -0.4117  0.3553
   83MOL0     C11101   7.113   7.300   3.878  0.2312 -0.0359 -0.6550
   83MOL0     C11102   7.072   7.438   3.852  0.4617 -0.3728  0.0841
   83MOL0     C11103   7.163   7.541   3.841 -0.4623  0.0963  0.1734
   83MOL0     C11104   7.296   7.522   3.859 -1.1792 -0.1766  0.1809
   83MOL0     O11105   7.378   7.632   3.840  0.0549 -0.6358  0.1595
   83MOL0     C11106   7.520   7.624   3.862  0.6022  0.4048  0.2680
   83MOL0     C11107   7.542   7.629   4.020 -0.6021 -1.0178 -0.4143
   83MOL0     C11108   7.488   7.756   4.091 -0.0749  0.2307  0.0186
   83MOL0     C11109   7.593   7.874   4.072  0.4761 -0.3358 -0.3484
   83MOL0     C11110   7.542   8.009   4.127 -0.3819  0.5988  0.7223
   83MOL0     C11111   7.577   8.017   4.278  0.9924  1.1074  0.6173
   83MOL0     C11112   7.514   8.139   4.337  0.6880 -0.3502  0.7550
   83MOL0     C11113   7.538   8.267   4.258  0.1979 -0.0317 -0.1504
   83MOL0    Cl11114   7.711   8.317   4.211 -0.2139 -0.2170 -0.3090
   83MOL0     C11115   7.339   7.385   3.884  0.0507 -0.4392 -0.7268
   83MOL0     C11116   7.249   7.281   3.901 -0.1386 -0.1203  0.7788
   83MOL0     O11117   7.093   7.127   4.097  0.3644  0.3016  0.0481
   83MOL0     C11118   6.891   6.934   4.128 -0.5712 -0.3897  0.0539
   83MOL0     C11119   6.796   6.842   4.139  0.2452  0.3070  0.6285
   83MOL0     N11120   6.048   6.568   4.361  0.2955 -0.5603 -0.1972
   83MOL0     N11121   6.043   6.495   4.472  0.3801 -0.2225  0.2738
   83MOL0     C11122   6.897   7.070   4.901  0.0363  0.2004  0.7797
   83MOL0     C11123   6.997   7.160   4.935 -0.5572  0.1361  0.3415
   83MOL0     C11124   7.297   7.345   5.212 -0.3979  0.2977 -0.2686
   83MOL0     C11125   7.402   7.258   5.241  0.7114  0.8189 -0.2758
   83MOL0     C11126   7.510   7.286   5.321 -0.4356 -0.9447  0.0750
   83MOL0     C11127   7.524   7.414   5.379  0.3943  0.5339 -0.3528
   83MOL0     O11128   7.629   7.453   5.458 -0.4573 -0.1347 -0.1185
   83MOL0     C11129   7.736   7.359   5.485 -0.1403 -0.5609  0.6645
   83MOL0     C11130   7.855   7.415   5.547 -0.5828 -0.2048  0.0278
   83MOL0     C11131   7.815   7.472   5.680  0.1891  0.6622  1.0986
   83MOL0     C11132   7.937   7.542   5.750  0.1171  0.8038 -0.5230
   83MOL0     C11133   8.046   7.445   5.786 -0.0944 -0.1049  0.2362
   83MOL0     C11134   8.135   7.366   5.820  1.4001  0.2938  0.1897
   83MOL0     C11135   7.429   7.513   5.350 -0.3701 -0.2734  0.2060
   83MOL0     C11136   7.314   7.484   5.270  0.6984  1.0517 -0.3026
   83MOL0     C11137   7.211   7.601   5.251 -0.0301 -0.5720 -0.2318
   83MOL0     H11138   7.221   6.939   5.070  0.4241  0.8244 -0.0008
   83MOL0     H11139   7.076   6.795   5.003  0.8821 -0.6262 -2.6753
   83MOL0     H11140   6.924   6.735   4.740 -0.6120  1.0216 -0.7300
   83MOL0     H11141   6.919   6.666   4.901 -2.6254 -0.3926  2.1278
   83MOL0     H11142   6.675   6.612   4.889 -1.9648  0.8479 -1.1154
   83MOL0     H11143   6.771   6.552   4.739  0.8893 -1.1853  2.0373
   83MOL0     H11144   6.683   6.753   4.627  0.0668 -0.5852 -0.0748
   83MOL0     H11145   6.578   6.793   4.766  2.0590  1.6885  0.3033
   83MOL0     H11146   6.479   6.647   4.582 -3.3770 -1.8372  1.0432
   83MOL0     H11147   6.586   6.522   4.630 -0.1487  0.4177 -0.0904
   83MOL0     H11148   6.455   6.506   4.848  0.4697  1.4333  0.0162
   83MOL0     H11149   6.365   6.658   4.820 -1.9932 -0.8702  1.6326
   83MOL0     H11150   6.230   6.469   4.787 -0.5614  1.8743  0.0581
   83MOL0     H11151   6.245   6.567   4.643  2.0118  0.2945 -2.0653
   83MOL0     H11152   6.346   6.295   4.701 -4.3144  0.0293  0.1802
   83MOL0     H11153   6.418   6.389   4.565 -1.8962  1.1546 -2.3125
   83MOL0     H11154   6.226   6.226   4.514  1.8308  1.4726 -2.5570
   83MOL0     H11155   6.135   6.299   4.647 -0.2064 -2.8378 -0.7184
   83MOL0     H11156   6.297   6.369   4.305  0.7609  1.1112 -1.5651
   83MOL0     H11157   6.193   6.530   4.071 -3.2925 -1.1372  0.7820
   83MOL0     H11158   6.098   6.667   4.134  0.0811  0.7374  1.3557
   83MOL0     H11159   6.300   6.762   4.073  1.5625  1.1354  0.1692
   83MOL0     H11160   6.302   6.768   4.237 -1.2902  2.7989 -3.2130
   83MOL0     H11161   6.438   6.544   4.078  2.7307  0.1376 -0.4689
   83MOL0     H11162   6.441   6.546   4.253  1.1125 -0.4924 -0.2212
   83MOL0     H11163   6.638   6.610   4.211 -1.7873 -2.7614 -0.4170
   83MOL0     H11164   6.561   6.769   4.239  0.8188 -0.0514 -0.5029
   83MOL0     H11165   6.663   6.858   3.841  0.4804 -0.1669 -0.1874
   83MOL0     H11166   6.867   7.023   3.808  2.9461 -0.5118  0.2597
   83MOL0     H11167   6.970   7.463   3.825  0.3623  2.7556  2.6939
   83MOL0     H11168   7.141   7.646   3.822  1.1503  0.9081  2.3048
   83MOL0     H11169   7.557   7.533   3.814 -1.2443  0.9547 -2.4375
   83MOL0     H11170   7.558   7.707   3.802 -1.9771 -0.9686 -3.7095
   83MOL0     H11171   7.496   7.547   4.076 -2.7541  1.2597  1.3688
   83MOL0     H11172   7.647   7.630   4.050 -0.4189  2.7578 -0.7027
   83MOL0     H11173   7.390   7.781   4.049  1.2701  2.8823 -1.8449
   83MOL0     H11174   7.478   7.733   4.197 -0.1010 -0.8489 -0.2026
   83MOL0     H11175   7.608   7.888   3.964 -1.8047 -0.0766 -0.6660
   83MOL0     H11176   7.683   7.837   4.123 -1.6156  0.6234  4.6195
   83MOL0     H11177   7.437   8.021   4.100 -0.8036 -1.2223  1.4081
   83MOL0     H11178   7.596   8.091   4.079 -1.8601  1.4359  0.4326
   83MOL0     H11179   7.532   7.928   4.322 -0.1927  0.6375 -1.4294
   83MOL0     H11180   7.685   8.012   4.298  1.5062 -0.8742 -2.0398
   83MOL0     H11181   7.537   8.144   4.444  1.2524  0.2044  0.6076
   83MOL0     H11182   7.406   8.126   4.350  0.7295 -0.3045  1.1779
   83MOL0     H11183   7.472   8.257   4.171 -1.0856 -2.5449  0.9938
   83MOL0     H11184   7.502   8.354   4.313 -2.0533 -0.8344 -0.2582
   83MOL0     H11185   7.444   7.365   3.903  0.3144  0.0168 -1.6374
   83MOL0     H11186   7.278   7.179   3.924 -4.1615 -1.3676  0.9968
   83MOL0     H11187   6.963   6.953   4.207  0.8051  1.2765 -1.4830
   83MOL0     H11188   6.783   6.791   4.234 -0.7730 -0.4609  0.1029
   83MOL0     H11189   6.800   7.098   4.861 -0.2099 -1.4988  0.1047
   83MOL0     H11190   6.989   7.262   4.898 -0.9415 -1.0724 -3.2929
   83MOL0     H11191   7.387   7.156   5.207 -1.3430 -0.2245  3.1351
   83MOL0     H11192   7.588   7.214   5.345  0.3821  0.1247  0.7397
   83MOL0     H11193   7.769   7.312   5.391  0.4782 -2.3021  1.7087
   83MOL0     H11194   7.703   7.277   5.550  0.2346 -2.1223 -1.0135
   83MOL0     H11195   7.881   7.506   5.492 -0.3657 -0.4084 -0.2094
   83MOL0     H11196   7.939   7.346   5.554 -0.7467 -0.2217  2.9694
   83MOL0     H11197   7.780   7.396   5.750  2.4166 -3.5759 -1.9096
   83MOL0     H11198   7.734   7.544   5.670 -0.8172 -0.2185  2.6006
   83MOL0     H11199   7.974   7.608   5.672 -1.2507 -0.5505 -2.4069
   83MOL0     H11200   7.904   7.585   5.845 -0.6165 -1.6947  0.4445
   83MOL0     H11201   8.214   7.298   5.846  1.8711  1.0470  0.7687
   83MOL0     H11202   7.443   7.611   5.394 -0.8732 -0.9009  1.7993
   83MOL0     H11203   7.237   7.669   5.169  1.6718 -0.4824  0.3436
   83MOL0     H11204   7.110   7.561   5.244  0.1774 -1.7039  2.2910
   83MOL0     H11205   7.198   7.664   5.340 -0.7216  1.3399 -1.6167
   84MOL0     O11206   6.962   8.968   2.474 -0.2610 -0.3214 -0.0604
   84MOL0     C11207   6.922   9.078   2.494  0.4914 -0.7481  0.0715
   84MOL0     O11208   6.994   9.184   2.543  0.0817 -0.1991 -0.1387
   84MOL0     C11209   7.117   9.162   2.600 -0.2720 -0.9915  0.2039
   84MOL0     C11210   7.235   9.171   2.520  0.5301 -0.2825  0.0840
   84MOL0     C11211   7.357   9.125   2.560 -0.6616 -0.1224 -0.2317
   84MOL0     C11212   7.367   9.069   2.686  0.1801 -0.1904  0.1465
   84MOL0     O11213   7.491   9.013   2.711 -0.4034 -0.4531 -0.4166
   84MOL0     C11214   7.497   8.922   2.820 -0.4116  0.4300  0.4946
   84MOL0     C11215   7.644   8.871   2.841 -0.4180 -0.4088 -0.7525
   84MOL0     C11216   7.705   8.788   2.732  0.8340  0.1915 -0.3989
   84MOL0     C11217   7.847   8.764   2.773 -0.3456 -0.7852  0.5100
   84MOL0     C11218   7.922   8.681   2.667  0.1376  0.2310  1.7025
   84MOL0     C11219   7.940   8.749   2.528  0.1766  0.4383  0.7421
   84MOL0     C11220   7.983   8.649   2.426 -0.2677 -0.9001  0.5172
   84MOL0     C11221   8.015   8.699   2.284 -0.1899  0.4389  0.0733
   84MOL0     N11222   8.078   8.601   2.197  0.4360 -0.5539  0.3240
   84MOL0     C11223   8.121   8.468   2.227 -0.6529  0.0381 -0.5941
   84MOL0     C11224   8.194   8.427   2.120  0.2659 -0.6844  0.5959
   84MOL0     C11225   8.263   8.294   2.113  0.5494  0.9281 -0.0071
   84MOL0     C11226   8.413   8.305   2.151  0.4750 -0.1117 -0.9335
   84MOL0     C11227   8.456   8.166   2.161 -0.6479 -0.2124  0.0191
   84MOL0     C11228   8.604   8.174   2.200  0.2583 -0.0947  0.2376
   84MOL0     O11229   8.662   8.048   2.214  0.5995  0.5277 -0.7488
   84MOL0     C11230   8.802   8.029   2.221  0.1757 -0.1252  0.1676
   84MOL0     C11231   8.890   8.134   2.221 -0.6368  0.1491  0.1804
   84MOL0     C11232   9.033   8.108   2.226  0.1028  0.5238  0.2302
   84MOL0     C11233   9.070   7.979   2.247  0.3947  0.3123  0.2317
   84MOL0     C11234   9.214   7.955   2.275  0.0811  0.6306 -0.0882
   84MOL0     O11235   9.293   8.068   2.294 -0.7163  0.2386 -0.4273
   84MOL0     C11236   9.424   8.046   2.320 -0.1291  0.4862 -0.1420
   84MOL0     C11237   9.454   8.050   2.456  0.5634  0.1256 -0.0854
   84MOL0     C11238   9.581   8.020   2.511  0.8589 -0.0930  0.1997
   84MOL0     C11239   9.687   7.995   2.415  1.1245 -0.4445  1.3280
   84MOL0     O11240   9.817   7.984   2.451  0.7091 -0.2831  0.3810
   84MOL0     C11241   9.857   8.101   2.521 -0.0818  0.3217  0.0482
   84MOL0     C11242   9.994   8.140   2.471  0.5674 -0.1518 -0.4827
   84MOL0     C11243  10.008   8.161   2.311  0.0980 -0.7082 -0.0198
   84MOL0     C11244  10.128   8.256   2.279  0.0834 -0.2609 -0.6668
   84MOL0     C11245  10.156   8.269   2.129  0.4352  0.1218  0.4870
   84MOL0     C11246  10.200   8.137   2.061 -0.5292  0.3870  0.0858
   84MOL0     C11247  10.261   8.163   1.920  0.1156  0.1471  0.3525
   84MOL0     C11248  10.349   8.053   1.868  1.0345  0.5463 -0.8427
   84MOL0    Cl11249  10.279   8.000   1.715 -0.0964  0.4203 -0.3808
   84MOL0     C11250   9.655   7.985   2.277 -0.0284  0.3502  0.1231
   84MOL0     C11251   9.520   8.008   2.234 -0.3826 -0.4664 -0.0320
   84MOL0     O11252   9.258   7.840   2.281 -0.3038 -0.0800 -0.3261
   84MOL0     C11253   8.973   7.877   2.258 -0.1526  0.1064 -0.0802
   84MOL0     C11254   8.839   7.898   2.238  0.2720  0.2559  0.0638
   84MOL0     N11255   8.181   8.521   2.018  0.0228 -0.8811 -0.6532
   84MOL0     N11256   8.106   8.624   2.066  0.0683  0.0590  0.1239
   84MOL0     C11257   7.257   9.065   2.773 -0.0635  0.3603  0.1366
   84MOL0     C11258   7.126   9.115   2.736  0.0776 -1.1681  0.2528
   84MOL0     C11259   6.779   9.091   2.446 -0.1201  0.2105  0.2765
   84MOL0     C11260   6.742   9.011   2.338 -0.2129 -0.7993  0.5956
   84MOL0     C11261   6.615   9.022   2.281 -0.7102  0.0978  0.2972
   84MOL0     C11262   6.516   9.102   2.339 -0.3610 -0.3300  0.7826
   84MOL0     O11263   6.388   9.121   2.282  0.1894 -0.1659 -0.4247
   84MOL0     C11264   6.375   9.077   2.143  0.2871 -0.0650 -1.4802
   84MOL0     C11265   6.242   9.129   2.087 -0.5957 -0.6836 -0.5149
   84MOL0     C11266   6.241   9.094   1.936 -0.8481 -0.6540  0.0977
   84MOL0     C11267   6.126   9.169   1.866 -0.6375  0.8418  0.2058
   84MOL0     C11268   6.135   9.315   1.859 -0.3873 -0.1065 -0.7577
   84MOL0     C11269   6.140   9.436   1.885  0.7373 -0.3616 -0.2524
   84MOL0     C11270   6.551   9.183   2.442  0.9713  0.0975 -0.0281
   84MOL0     C11271   6.683   9.188   2.487 -0.8807  0.5322 -0.2851
   84MOL0     C11272   6.716   9.294   2.587  0.8271 -0.4669  0.2104
   84MOL0     H11273   7.229   9.196   2.414  0.4323  1.5831  0.5002
   84MOL0     H11274   7.445   9.118   2.496  0.7059  0.8513  1.4293
   84MOL0     H11275   7.477   8.968   2.917 -2.3134 -0.4556  0.5768
   84MOL0     H11276   7.427   8.841   2.798  0.4325 -0.4105  0.8330
   84MOL0     H11277   7.646   8.813   2.933 -0.9689 -0.2793 -0.6558
   84MOL0     H11278   7.706   8.959   2.857 -0.3209 -0.4503 -0.8927
   84MOL0     H11279   7.699   8.837   2.635  2.0209  0.4482 -0.3583
   84MOL0     H11280   7.652   8.693   2.724 -0.1553  0.8573 -2.5178
   84MOL0     H11281   7.905   8.856   2.788 -0.2449 -1.0752  2.0697
   84MOL0     H11282   7.848   8.707   2.867 -0.4699 -1.6968 -0.0307
   84MOL0     H11283   8.024   8.670   2.704  0.5509  0.7082  0.7363
   84MOL0     H11284   7.878   8.581   2.654  2.1829 -0.6193  0.9527
   84MOL0     H11285   7.838   8.769   2.495 -0.9592 -1.5061  2.7660
   84MOL0     H11286   7.998   8.841   2.536  1.1276 -0.1757  1.1661
   84MOL0     H11287   7.899   8.580   2.423 -2.0291  1.1826 -0.6203
   84MOL0     H11288   8.077   8.608   2.465 -0.1528  0.5893  1.9215
   84MOL0     H11289   7.927   8.737   2.232 -0.3363 -0.2322 -0.1785
   84MOL0     H11290   8.092   8.776   2.293  1.2072 -1.0461  1.4053
   84MOL0     H11291   8.109   8.408   2.317  2.6872 -0.8797 -0.6397
   84MOL0     H11292   8.207   8.221   2.173  2.6520  0.1932  1.1535
   84MOL0     H11293   8.257   8.254   2.011 -2.4602  0.8855  0.0801
   84MOL0     H11294   8.469   8.354   2.070 -1.0589  1.8159 -0.9049
   84MOL0     H11295   8.433   8.359   2.244  3.2516 -1.5948 -0.5477
   84MOL0     H11296   8.458   8.125   2.059 -0.0622  1.6378 -0.7359
   84MOL0     H11297   8.393   8.110   2.231 -0.7888 -2.3682 -1.7323
   84MOL0     H11298   8.608   8.221   2.299 -1.3131 -3.1733  1.8866
   84MOL0     H11299   8.657   8.237   2.127 -0.3565  0.2498  0.0719
   84MOL0     H11300   8.850   8.234   2.216 -3.0875 -0.8189 -1.9560
   84MOL0     H11301   9.108   8.186   2.224 -1.1326  1.7400 -1.1397
   84MOL0     H11302   9.368   8.066   2.520  0.5830  1.8781 -0.4450
   84MOL0     H11303   9.604   8.006   2.616  2.2663  1.5856  0.1666
   84MOL0     H11304   9.789   8.187   2.518  1.3864  1.6543  2.2127
   84MOL0     H11305   9.873   8.073   2.625  0.4527 -2.2526 -0.6626
   84MOL0     H11306  10.021   8.236   2.516  2.7338 -0.4379 -1.0632
   84MOL0     H11307  10.055   8.059   2.513 -2.7169 -3.2051 -1.0218
   84MOL0     H11308  10.023   8.059   2.277  0.1245 -1.0035  0.8561
   84MOL0     H11309   9.917   8.204   2.269  2.6143  1.6456 -3.6468
   84MOL0     H11310  10.215   8.210   2.326 -0.8809 -0.3670  1.1317
   84MOL0     H11311  10.115   8.355   2.325  1.3553 -0.0922 -0.6316
   84MOL0     H11312  10.231   8.344   2.105  3.4998 -2.9418 -0.3117
   84MOL0     H11313  10.062   8.286   2.076  0.0867 -2.2896  0.2305
   84MOL0     H11314  10.280   8.099   2.125 -1.0737  0.7813  1.0158
   84MOL0     H11315  10.126   8.057   2.060  0.7059 -0.8001 -0.1528
   84MOL0     H11316  10.324   8.252   1.925  0.5430 -0.2074  2.1639
   84MOL0     H11317  10.170   8.176   1.862  0.8686  0.2144 -0.8493
   84MOL0     H11318  10.457   8.074   1.867  1.3381 -0.4063  1.9417
   84MOL0     H11319  10.336   7.973   1.941 -2.2245  1.6219 -0.0521
   84MOL0     H11320   9.741   7.968   2.213 -1.0824 -1.9097 -0.8055
   84MOL0     H11321   9.497   8.016   2.129  1.8798  0.0809 -0.5338
   84MOL0     H11322   9.003   7.776   2.283 -1.1603 -0.0268  0.6273
   84MOL0     H11323   8.772   7.813   2.244  0.7441 -0.0372  1.5791
   84MOL0     H11324   7.270   9.030   2.875  0.7150  4.6516  1.7007
   84MOL0     H11325   7.041   9.118   2.803 -0.4751 -0.9147 -0.4419
   84MOL0     H11326   6.810   8.938   2.295 -1.2129 -0.6234 -1.3490
   84MOL0     H11327   6.594   8.960   2.194  2.1000  0.3277 -0.6384
   84MOL0     H11328   6.388   8.969   2.126  2.7017  0.2460 -1.9951
   84MOL0     H11329   6.456   9.124   2.087  1.7481 -0.5159  0.1521
   84MOL0     H11330   6.234   9.237   2.104 -1.4795 -1.2892  4.4030
   84MOL0     H11331   6.160   9.083   2.142  0.0503  0.8360  1.8934
   84MOL0     H11332   6.233   8.985   1.931 -0.1284 -0.8866  2.7481
   84MOL0     H11333   6.338   9.123   1.896  0.0280 -0.6279  2.1384
   84MOL0     H11334   6.125   9.141   1.760  0.3984 -1.8877  0.8327
   84MOL0     H11335   6.031   9.140   1.911 -0.8702  1.7919  0.3335
   84MOL0     H11336   6.146   9.540   1.913 -1.8149 -0.1653 -0.1571
   84MOL0     H11337   6.472   9.241   2.487 -0.7910 -3.4295  1.8441
   84MOL0     H11338   6.780   9.254   2.666  2.6100  0.9270 -0.4782
   84MOL0     H11339   6.769   9.381   2.548  0.3919  0.7278  2.1748
   84MOL0     H11340   6.625   9.318   2.644  0.5716 -3.1055  1.0604
   85MOL0     O11341   6.090   1.114   7.836 -0.1978  0.4053 -0.0278
   85MOL0     C11342   6.060   1.217   7.901  0.3279 -0.0565  0.1383
   85MOL0     O11343   6.136   1.276   8.003 -0.0664  0.1676  0.1634
   85MOL0     C11344   6.252   1.210   8.047 -0.0023  0.1433 -0.4742
   85MOL0     C11345   6.249   1.159   8.183 -0.6578  0.5008  0.9826
   85MOL0     C11346   6.371   1.111   8.231 -1.0854  0.1651  0.2868
   85MOL0     C11347   6.490   1.116   8.147 -0.2016  0.6126 -0.1408
   85MOL0     O11348   6.605   1.063   8.204  0.1341  0.8560 -0.3386
   85MOL0     C11349   6.729   1.108   8.156 -0.0907  0.6612  0.1284
   85MOL0     C11350   6.765   1.256   8.196 -0.5157 -0.0308 -0.3841
   85MOL0     C11351   6.783   1.286   8.346  0.8862 -0.0307 -0.7371
   85MOL0     C11352   6.710   1.420   8.398  0.2033  0.4797 -0.0248
   85MOL0     C11353   6.732   1.438   8.549 -0.2515 -0.5828  0.3775
   85MOL0     C11354   6.879   1.486   8.571  0.4969  0.3894  0.4488
   85MOL0     C11355   6.912   1.528   8.719 -0.0541 -0.6600  0.1345
   85MOL0     C11356   6.822   1.634   8.771  0.4008 -0.1435  0.7431
   85MOL0     N11357   6.892   1.719   8.862 -0.1979 -0.6955  0.4707
   85MOL0     C11358   6.936   1.673   8.986 -0.1579  0.3441 -0.1034
   85MOL0     C11359   7.029   1.759   9.029 -1.0681 -0.0224 -0.6124
   85MOL0     C11360   7.094   1.765   9.163 -0.6053 -0.2886 -0.1475
   85MOL0     C11361   7.228   1.829   9.149 -0.6744 -0.5220 -0.3757
   85MOL0     C11362   7.318   1.741   9.070 -0.1569 -0.7064 -0.5476
   85MOL0     C11363   7.452   1.813   9.043 -0.4105  0.2984  0.1369
   85MOL0     O11364   7.545   1.715   8.991 -0.4379 -0.5059 -0.1766
   85MOL0     C11365   7.675   1.755   8.959 -0.1689 -0.3054 -0.0069
   85MOL0     C11366   7.724   1.878   8.987 -1.0961 -0.4542 -0.4131
   85MOL0     C11367   7.853   1.919   8.948 -0.0300 -0.3451  0.1013
   85MOL0     C11368   7.935   1.826   8.867  0.7213 -0.3946 -0.0571
   85MOL0     C11369   8.078   1.863   8.824 -0.0706  0.1618 -0.1433
   85MOL0     O11370   8.133   1.798   8.716  0.1566 -0.2790 -0.5345
   85MOL0     C11371   8.239   1.860   8.643  0.9188  0.5230 -0.4460
   85MOL0     C11372   8.298   1.783   8.546 -0.8234  0.0014 -0.4414
   85MOL0     C11373   8.404   1.828   8.463 -0.2781  0.2308 -0.0891
   85MOL0     C11374   8.461   1.956   8.475 -0.0878  0.1349 -0.5487
   85MOL0     O11375   8.565   1.998   8.399  0.2626 -0.0580 -0.2933
   85MOL0     C11376   8.574   2.137   8.377 -0.2708 -0.0372  0.7072
   85MOL0     C11377   8.708   2.163   8.295  0.2189  0.5546 -0.0656
   85MOL0     C11378   8.821   2.173   8.393  0.4543 -0.0588  0.1528
   85MOL0     C11379   8.933   2.198   8.297  0.7221 -0.1367 -0.2220
   85MOL0     C11380   9.062   2.211   8.380  1.0791  0.0790  0.7726
   85MOL0     C11381   9.184   2.208   8.292 -0.1572 -0.1532 -0.4250
   85MOL0     C11382   9.160   2.287   8.160 -0.5725 -0.1788 -0.2017
   85MOL0     C11383   9.292   2.323   8.096 -0.3987  0.6514 -0.1036
   85MOL0    Cl11384   9.254   2.384   7.928 -0.3781  0.0709 -0.3187
   85MOL0     C11385   8.389   2.039   8.572 -0.7282 -0.0768 -0.2356
   85MOL0     C11386   8.283   1.996   8.650 -0.6368 -0.3967 -0.6028
   85MOL0     O11387   8.133   1.945   8.904  0.6561 -0.0294  0.5637
   85MOL0     C11388   7.872   1.703   8.831  0.0861 -0.2750  0.0095
   85MOL0     C11389   7.742   1.665   8.873  0.1994 -0.8340  0.4750
   85MOL0     N11390   7.041   1.858   8.931 -0.0886  0.1352 -0.4118
   85MOL0     N11391   6.958   1.837   8.832  0.3586  0.8550  0.1591
   85MOL0     C11392   6.486   1.165   8.017 -0.2356 -0.6940  0.8432
   85MOL0     C11393   6.369   1.212   7.963  0.4786 -0.3623  0.4917
   85MOL0     C11394   5.938   1.283   7.868 -0.2576 -0.5908  0.8491
   85MOL0     C11395   5.937   1.428   7.887  0.1854  0.7475  0.0196
   85MOL0     C11396   5.827   1.502   7.856  0.7287 -0.3485 -0.0025
   85MOL0     C11397   5.716   1.440   7.796  0.6652  1.3003 -0.0022
   85MOL0     O11398   5.607   1.517   7.753 -0.3748  0.4855  0.6384
   85MOL0     C11399   5.603   1.660   7.755  0.3349 -0.1719 -0.1604
   85MOL0     C11400   5.684   1.713   7.626 -0.3418 -0.1593 -0.3609
   85MOL0     C11401   5.687   1.872   7.638  0.1155  0.6354  0.4079
   85MOL0     C11402   5.781   1.920   7.752 -0.1476  0.4233  0.3824
   85MOL0     C11403   5.923   1.892   7.737 -0.3541 -0.0516 -0.6103
   85MOL0     C11404   6.042   1.876   7.727 -0.0922  0.3433  0.5688
   85MOL0     C11405   5.712   1.300   7.784 -0.2398  0.0560  0.1060
   85MOL0     C11406   5.825   1.224   7.812 -0.4184  0.3973  0.3739
   85MOL0     C11407   5.813   1.067   7.799 -0.5840 -0.3250  0.0458
   85MOL0     H11408   6.159   1.161   8.243 -1.0107 -2.3162  0.6973
   85MOL0     H11409   6.372   1.075   8.333  0.2719  1.0675  0.6219
   85MOL0     H11410   6.801   1.042   8.206  0.4687  0.4983 -0.8785
   85MOL0     H11411   6.739   1.093   8.049 -1.8888  0.7217 -0.0807
   85MOL0     H11412   6.702   1.338   8.160 -0.8761 -0.3405 -0.4644
   85MOL0     H11413   6.856   1.276   8.137 -1.3246  0.8238 -1.3748
   85MOL0     H11414   6.888   1.299   8.373  0.5719 -3.5120  3.0989
   85MOL0     H11415   6.764   1.197   8.406  2.2062 -1.2163 -2.0092
   85MOL0     H11416   6.749   1.504   8.340  1.9276 -1.4655 -1.8534
   85MOL0     H11417   6.603   1.413   8.377 -0.1383  1.6189  1.2033
   85MOL0     H11418   6.662   1.511   8.589  0.5305  0.9712 -0.9858
   85MOL0     H11419   6.710   1.350   8.611  0.3447 -1.1424 -0.1851
   85MOL0     H11420   6.952   1.407   8.552 -0.7462 -0.4271 -1.1584
   85MOL0     H11421   6.892   1.578   8.513 -0.4843  1.8035  2.3493
   85MOL0     H11422   7.010   1.578   8.721 -1.6665  2.8618  3.1811
   85MOL0     H11423   6.924   1.448   8.792 -0.8544 -0.3420  0.6300
   85MOL0     H11424   6.772   1.691   8.693 -1.2652 -0.6522  1.4103
   85MOL0     H11425   6.739   1.587   8.824  1.2878 -0.1516  2.1897
   85MOL0     H11426   6.899   1.588   9.043 -2.5738  0.6539 -1.1028
   85MOL0     H11427   7.033   1.819   9.236 -0.9125 -1.8740  0.8329
   85MOL0     H11428   7.099   1.666   9.209 -2.0516 -0.5111 -0.3996
   85MOL0     H11429   7.222   1.926   9.100  3.4589 -0.0032 -0.1874
   85MOL0     H11430   7.279   1.839   9.246 -1.5551 -1.9442  0.2710
   85MOL0     H11431   7.269   1.728   8.973 -0.4801  0.2293 -0.5203
   85MOL0     H11432   7.336   1.642   9.113 -0.6683 -0.2200  0.8585
   85MOL0     H11433   7.491   1.868   9.129  1.8131 -2.3896  1.0042
   85MOL0     H11434   7.443   1.893   8.968  0.5633  0.3792  0.0837
   85MOL0     H11435   7.668   1.947   9.050 -1.6110 -1.6168  0.4355
   85MOL0     H11436   7.893   2.016   8.975 -0.1362 -0.1213 -0.5214
   85MOL0     H11437   8.274   1.677   8.540 -1.5555  0.2490 -2.6048
   85MOL0     H11438   8.459   1.759   8.400  5.5176  1.7594  2.6896
   85MOL0     H11439   8.487   2.180   8.326  0.3462 -1.1596 -1.4268
   85MOL0     H11440   8.586   2.190   8.472  0.6353 -1.7901  1.6161
   85MOL0     H11441   8.723   2.085   8.221  0.0259  0.0988  0.3701
   85MOL0     H11442   8.698   2.260   8.246  0.3649  0.5145 -0.1761
   85MOL0     H11443   8.823   2.257   8.464  0.0385 -0.9362  1.2280
   85MOL0     H11444   8.832   2.079   8.448  1.8425  1.0155  1.7988
   85MOL0     H11445   8.917   2.290   8.241 -1.3786  0.0927  0.6571
   85MOL0     H11446   8.928   2.110   8.232 -3.9283 -1.5684  1.6601
   85MOL0     H11447   9.068   2.128   8.450  0.0310 -2.4589 -1.9416
   85MOL0     H11448   9.070   2.308   8.429  1.6627 -0.0230  0.8803
   85MOL0     H11449   9.241   2.281   8.350 -0.6876  0.3623 -0.5431
   85MOL0     H11450   9.226   2.109   8.270  0.3566 -0.3998  1.5094
   85MOL0     H11451   9.115   2.382   8.189 -0.1853 -0.2130  0.5359
   85MOL0     H11452   9.095   2.233   8.090  0.4144 -1.2965 -0.2782
   85MOL0     H11453   9.337   2.396   8.163  2.5126  0.2923 -1.5043
   85MOL0     H11454   9.358   2.235   8.089 -0.9522  0.1936  0.3096
   85MOL0     H11455   8.418   2.142   8.588 -0.7779  0.3153 -2.3988
   85MOL0     H11456   8.243   2.071   8.717 -0.0007  1.8338 -2.6002
   85MOL0     H11457   7.930   1.638   8.767  0.7694 -0.7192  1.0400
   85MOL0     H11458   7.698   1.568   8.853 -1.2568 -0.3530  1.2295
   85MOL0     H11459   6.563   1.156   7.940 -1.4775 -2.7368 -0.2319
   85MOL0     H11460   6.361   1.258   7.865  2.8139  1.2965  1.0030
   85MOL0     H11461   6.025   1.479   7.925  0.5203 -1.8802  3.2238
   85MOL0     H11462   5.824   1.610   7.870  1.0889  0.2038 -3.2918
   85MOL0     H11463   5.635   1.708   7.848  0.2300 -0.2316 -0.0930
   85MOL0     H11464   5.501   1.696   7.739 -0.0140 -2.0594 -2.8597
   85MOL0     H11465   5.629   1.695   7.534 -0.5329 -3.3983  0.2600
   85MOL0     H11466   5.783   1.671   7.604 -0.2692  1.4431 -3.6418
   85MOL0     H11467   5.583   1.902   7.656  0.2531 -0.0455  2.7283
   85MOL0     H11468   5.715   1.912   7.540 -0.7602  2.2621  0.7869
   85MOL0     H11469   5.776   2.029   7.757  0.0773  0.4443  0.1675
   85MOL0     H11470   5.745   1.886   7.850 -0.2899  0.3238  0.2965
   85MOL0     H11471   6.147   1.856   7.718 -0.0576 -0.1921  1.8529
   85MOL0     H11472   5.618   1.254   7.754  0.6949 -3.2813  1.7449
   85MOL0     H11473   5.848   1.025   7.894 -3.4700 -0.1945  1.2574
   85MOL0     H11474   5.707   1.040   7.791 -1.6566  2.5683  2.4760
   85MOL0     H11475   5.877   1.029   7.718 -0.1531  0.6263 -0.0771
   86MOL0     O11476   2.718   3.083   8.741  0.4084  0.4787  0.1102
   86MOL0     C11477   2.800   3.120   8.827  0.3673  0.0847  0.1179
   86MOL0     O11478   2.803   3.242   8.885  0.3690 -0.7366  0.0937
   86MOL0     C11479   2.701   3.332   8.868  0.3073 -0.4193 -0.2548
   86MOL0     C11480   2.566   3.293   8.903 -0.8971  0.4665 -0.4572
   86MOL0     C11481   2.466   3.385   8.898  0.7645 -0.3714 -0.2076
   86MOL0     C11482   2.489   3.517   8.847  0.2485  0.0638 -0.3288
   86MOL0     O11483   2.379   3.597   8.831  0.5344 -0.1310 -0.5536
   86MOL0     C11484   2.371   3.685   8.720  0.1436  0.1903 -0.2423
   86MOL0     C11485   2.226   3.688   8.685  0.5492  0.1107  0.7485
   86MOL0     C11486   2.146   3.766   8.790  1.0073 -0.5071  0.2419
   86MOL0     C11487   1.998   3.771   8.748  0.3045  0.5111  0.3982
   86MOL0     C11488   1.898   3.818   8.856  0.2974 -0.3264  0.1204
   86MOL0     C11489   1.888   3.744   8.987 -0.5245 -0.1768 -0.0004
   86MOL0     C11490   1.829   3.604   8.961 -0.1464  0.4570 -0.2741
   86MOL0     C11491   1.794   3.526   9.091 -0.1614  0.3552 -0.0870
   86MOL0     N11492   1.906   3.491   9.178 -0.4881  0.6107 -0.2092
   86MOL0     C11493   2.010   3.405   9.145 -0.4222  0.0296  0.1284
   86MOL0     C11494   2.092   3.407   9.253  0.9377 -0.5158 -0.7032
   86MOL0     C11495   2.224   3.333   9.263  1.2407 -0.2867 -0.0810
   86MOL0     C11496   2.338   3.431   9.265 -0.1915  0.4940  0.1470
   86MOL0     C11497   2.451   3.379   9.345  0.3838 -0.2123  0.1373
   86MOL0     C11498   2.519   3.254   9.273 -0.3496 -0.8895 -0.9960
   86MOL0     O11499   2.644   3.241   9.346 -0.2720  0.0474 -0.0419
   86MOL0     C11500   2.744   3.160   9.308  0.1241 -0.0353  0.0736
   86MOL0     C11501   2.866   3.176   9.376  0.6045  0.4696 -0.2424
   86MOL0     C11502   2.962   3.083   9.356 -0.2761  0.5584  0.7207
   86MOL0     C11503   2.953   2.978   9.261 -0.1218  0.2884 -0.0795
   86MOL0     C11504   3.065   2.884   9.234 -0.2866  0.1215 -0.1463
   86MOL0     O11505   3.193   2.922   9.278 -0.3431 -0.3952 -0.5650
   86MOL0     C11506   3.305   2.843   9.262 -0.6313 -0.4981  0.1265
   86MOL0     C11507   3.429   2.904   9.284  0.1160  0.2197  0.0201
   86MOL0     C11508   3.554   2.835   9.283  1.3231 -0.4531  0.0305
   86MOL0     C11509   3.555   2.690   9.266  0.0218  0.3064 -0.1342
   86MOL0     O11510   3.678   2.625   9.282 -0.0078 -0.5275  0.0294
   86MOL0     C11511   3.685   2.485   9.279 -0.6803 -0.9321 -0.7999
   86MOL0     C11512   3.823   2.452   9.349  1.7063 -0.4123 -0.1467
   86MOL0     C11513   3.927   2.393   9.257 -0.3104  0.6905  0.0671
   86MOL0     C11514   4.012   2.295   9.323 -0.5013  0.1342 -0.3015
   86MOL0     C11515   4.139   2.246   9.238  0.1591 -0.3023  0.1219
   86MOL0     C11516   4.097   2.156   9.121  0.0040 -0.5161  0.0849
   86MOL0     C11517   4.213   2.098   9.040 -0.1993  0.4281  0.1770
   86MOL0     C11518   4.166   2.014   8.920 -0.5161 -0.3339 -0.0014
   86MOL0    Cl11519   4.288   1.921   8.838  0.1309 -0.0462  0.1249
   86MOL0     C11520   3.432   2.626   9.240 -0.0367 -0.5876  0.6564
   86MOL0     C11521   3.309   2.706   9.236  0.5263 -0.4862  0.2163
   86MOL0     O11522   3.040   2.781   9.180 -0.3690 -0.2338 -0.4113
   86MOL0     C11523   2.833   2.969   9.192 -0.1320 -0.7301  0.8279
   86MOL0     C11524   2.730   3.056   9.215  0.4017  0.3056 -1.0476
   86MOL0     N11525   2.035   3.489   9.348 -0.0897  0.6046 -0.0274
   86MOL0     N11526   1.926   3.536   9.300 -0.1122 -0.8671 -0.1736
   86MOL0     C11527   2.619   3.559   8.813 -0.1627  1.2313 -0.3506
   86MOL0     C11528   2.723   3.470   8.832 -0.8302 -0.1768  0.2600
   86MOL0     C11529   2.926   3.049   8.852  0.3484  0.1291 -0.4376
   86MOL0     C11530   3.048   3.118   8.902  1.0321  0.2681 -0.1431
   86MOL0     C11531   3.166   3.049   8.922 -0.0085 -0.8437  0.1530
   86MOL0     C11532   3.168   2.909   8.909 -0.2435  0.5723 -0.8060
   86MOL0     O11533   3.275   2.833   8.945  0.6485 -0.4105  0.2080
   86MOL0     C11534   3.393   2.869   8.887 -0.5284 -0.0476  0.2838
   86MOL0     C11535   3.477   2.738   8.866  0.1255 -0.5268 -0.3448
   86MOL0     C11536   3.418   2.654   8.753 -0.5343 -0.2362 -0.4496
   86MOL0     C11537   3.531   2.568   8.690  0.4624  0.3149 -0.2078
   86MOL0     C11538   3.616   2.637   8.589  0.0926 -0.0737 -0.1123
   86MOL0     C11539   3.677   2.703   8.505  0.9064  0.4231  0.4145
   86MOL0     C11540   3.052   2.842   8.871 -1.2387  0.0269  0.0030
   86MOL0     C11541   2.935   2.905   8.836  0.4728  0.2741  0.2601
   86MOL0     C11542   2.823   2.809   8.788  1.4526  0.6311  0.1314
   86MOL0     H11543   2.542   3.190   8.928 -2.8293  1.0637  0.3212
   86MOL0     H11544   2.360   3.370   8.915  0.9798 -0.3591  1.3597
   86MOL0     H11545   2.401   3.787   8.747  0.6908  0.1312 -0.5950
   86MOL0     H11546   2.436   3.657   8.636  1.2607  1.3822  0.1994
   86MOL0     H11547   2.188   3.587   8.663 -1.0254  0.8761 -0.2507
   86MOL0     H11548   2.215   3.741   8.590  3.2317 -1.8121 -0.8074
   86MOL0     H11549   2.178   3.870   8.804  0.0925 -0.4367  2.0581
   86MOL0     H11550   2.154   3.716   8.886  0.1326 -1.9745 -0.4101
   86MOL0     H11551   1.977   3.830   8.659 -0.0954  0.2834  0.3398
   86MOL0     H11552   1.968   3.667   8.733 -1.0875  0.6093  2.1175
   86MOL0     H11553   1.922   3.920   8.885 -2.5002  0.4304  0.0174
   86MOL0     H11554   1.795   3.814   8.819 -1.4728  2.5800  4.0288
   86MOL0     H11555   1.984   3.736   9.037 -1.7067 -0.5061  2.3414
   86MOL0     H11556   1.826   3.813   9.045  1.2709  1.0964  0.5027
   86MOL0     H11557   1.901   3.555   8.895 -1.7021 -0.7733 -1.1191
   86MOL0     H11558   1.725   3.611   8.927 -0.7664  0.3130  1.5059
   86MOL0     H11559   1.722   3.581   9.153  0.4879 -0.5180  1.5156
   86MOL0     H11560   1.756   3.426   9.071 -1.2387  0.4059  1.5078
   86MOL0     H11561   2.007   3.340   9.058  0.4967  0.6712 -0.3998
   86MOL0     H11562   2.221   3.268   9.351  3.7840 -0.2556  0.1316
   86MOL0     H11563   2.233   3.266   9.177  1.3183 -1.3067  0.7064
   86MOL0     H11564   2.373   3.433   9.161 -0.2217 -4.0114 -0.1734
   86MOL0     H11565   2.305   3.530   9.298  0.4986 -0.1195  2.9648
   86MOL0     H11566   2.402   3.355   9.439 -0.7367  0.2819 -0.3101
   86MOL0     H11567   2.518   3.465   9.353 -0.0197  0.3735 -1.9692
   86MOL0     H11568   2.539   3.274   9.167 -3.4406  1.7738 -1.2386
   86MOL0     H11569   2.452   3.167   9.269 -2.2715  0.5160 -1.0513
   86MOL0     H11570   2.882   3.262   9.440 -1.6790  0.2780  0.6751
   86MOL0     H11571   3.055   3.094   9.410  1.8389 -1.8492 -2.0418
   86MOL0     H11572   3.440   3.008   9.315  2.0373 -1.0245  4.3289
   86MOL0     H11573   3.645   2.890   9.303  0.7423  0.1326  1.1808
   86MOL0     H11574   3.604   2.436   9.334  0.9952 -0.9277  1.8559
   86MOL0     H11575   3.684   2.450   9.175  0.4098 -0.2380 -1.0658
   86MOL0     H11576   3.862   2.537   9.406 -2.3327 -0.5220  3.1917
   86MOL0     H11577   3.796   2.376   9.423  0.0528 -0.7461 -1.0432
   86MOL0     H11578   3.867   2.339   9.183 -0.7339 -0.8109  1.4607
   86MOL0     H11579   3.994   2.468   9.213 -1.3255  0.9525 -1.0812
   86MOL0     H11580   3.960   2.206   9.359  0.0653  0.7120  2.1589
   86MOL0     H11581   4.051   2.336   9.417 -1.1618 -0.8822  0.4406
   86MOL0     H11582   4.199   2.187   9.307  1.3784 -0.4556 -1.0274
   86MOL0     H11583   4.205   2.328   9.207 -0.7422  0.1397 -0.7167
   86MOL0     H11584   4.037   2.073   9.159  0.6565 -1.0883 -0.1214
   86MOL0     H11585   4.041   2.219   9.051  2.9223  2.5971  0.2534
   86MOL0     H11586   4.266   2.034   9.112  1.1550 -1.1595 -2.0734
   86MOL0     H11587   4.285   2.176   9.014 -0.3598  1.3671  2.3356
   86MOL0     H11588   4.095   1.943   8.962  1.4617 -2.6560 -0.3453
   86MOL0     H11589   4.113   2.082   8.852 -0.2028  0.5359  0.6119
   86MOL0     H11590   3.428   2.520   9.217  1.3298 -0.4716 -0.2241
   86MOL0     H11591   3.226   2.639   9.213  1.7638 -1.2182 -2.4811
   86MOL0     H11592   2.803   2.884   9.131 -1.5407  2.6802 -3.7678
   86MOL0     H11593   2.641   3.042   9.155  1.8105 -1.1258 -2.9104
   86MOL0     H11594   2.649   3.654   8.771  1.5273 -0.0214 -2.1344
   86MOL0     H11595   2.826   3.492   8.806 -0.9953 -0.2329 -0.4619
   86MOL0     H11596   3.043   3.225   8.919  0.2839  0.1322  0.5781
   86MOL0     H11597   3.251   3.111   8.947 -0.0743  0.7731 -3.0624
   86MOL0     H11598   3.447   2.936   8.955  0.6723 -1.7367  1.0706
   86MOL0     H11599   3.397   2.898   8.782  2.5000 -2.3839 -0.4180
   86MOL0     H11600   3.478   2.684   8.961 -0.9404 -2.0349 -1.1584
   86MOL0     H11601   3.583   2.757   8.844  0.6176 -0.4063  1.8305
   86MOL0     H11602   3.364   2.707   8.673 -4.4687 -2.8973  0.1653
   86MOL0     H11603   3.335   2.593   8.788 -1.6814  0.6696 -1.4934
   86MOL0     H11604   3.595   2.524   8.767 -0.9318 -2.7560 -0.6337
   86MOL0     H11605   3.483   2.482   8.641  0.4442  0.1541  0.0922
   86MOL0     H11606   3.736   2.755   8.431  1.3477 -2.0138 -1.0466
   86MOL0     H11607   3.063   2.734   8.868 -1.9646 -0.1245  1.4718
   86MOL0     H11608   2.849   2.703   8.796  0.6100  0.1197 -2.7546
   86MOL0     H11609   2.728   2.824   8.841  1.1402  1.2968 -0.5942
   86MOL0     H11610   2.786   2.818   8.686 -0.5311 -0.6252  0.6790
   87MOL0     O11611   5.053  10.416   8.705 -0.0225 -0.3168  0.5855
   87MOL0     C11612   5.051  10.402   8.823  0.4049 -0.0813 -1.1390
   87MOL0     O11613   4.937  10.365   8.887  0.5981 -0.2254 -0.4366
   87MOL0     C11614   4.820  10.325   8.813  0.1557 -0.8150 -0.3490
   87MOL0     C11615   4.824  10.238   8.715 -0.0830  0.1180 -0.4407
   87MOL0     C11616   4.711  10.214   8.645 -0.4790 -0.2315 -1.0037
   87MOL0     C11617   4.581  10.271   8.682 -1.0383 -0.7977 -0.3190
   87MOL0     O11618   4.461  10.241   8.625 -0.0124 -0.2521 -0.0944
   87MOL0     C11619   4.457  10.239   8.480 -0.7139 -1.2560 -0.5454
   87MOL0     C11620   4.309  10.234   8.439  0.3390 -0.1728 -0.2412
   87MOL0     C11621   4.239  10.096   8.421  0.1170 -0.4910  0.0688
   87MOL0     C11622   4.229  10.025   8.547 -0.0028  0.0810 -0.1095
   87MOL0     C11623   4.140   9.901   8.550  0.1641 -0.2932 -1.1061
   87MOL0     C11624   4.165   9.805   8.433  0.7219 -0.4793 -0.5304
   87MOL0     C11625   4.301   9.739   8.427 -1.1965  0.3699 -0.0687
   87MOL0     C11626   4.297   9.612   8.341  0.8043 -0.4502  0.3443
   87MOL0     N11627   4.426   9.552   8.322  0.3928  0.2650 -0.6302
   87MOL0     C11628   4.525   9.551   8.413 -0.7172 -0.2577 -1.1916
   87MOL0     C11629   4.622   9.477   8.358 -0.2380 -0.6241 -0.6750
   87MOL0     C11630   4.754   9.433   8.421  0.0534 -0.3076  0.0257
   87MOL0     C11631   4.875   9.526   8.407 -0.6021  0.1936 -0.1410
   87MOL0     C11632   4.910   9.532   8.260  0.3916 -0.4369  0.0314
   87MOL0     C11633   5.042   9.606   8.229  0.1293 -0.1327 -0.0452
   87MOL0     O11634   5.150   9.521   8.269  0.2138 -0.2276  0.0397
   87MOL0     C11635   5.268   9.584   8.276 -1.0498 -0.0315 -0.1365
   87MOL0     C11636   5.373   9.503   8.311  0.3664  0.6946  0.5690
   87MOL0     C11637   5.494   9.551   8.356  0.0167  1.3345  0.5662
   87MOL0     C11638   5.525   9.685   8.336  0.3169 -0.0293 -0.6868
   87MOL0     C11639   5.660   9.742   8.352 -0.5791  0.0534  1.7628
   87MOL0     O11640   5.747   9.675   8.439 -0.2264  0.4820  0.4233
   87MOL0     C11641   5.873   9.717   8.449 -0.6181 -0.0665  0.1172
   87MOL0     C11642   5.897   9.848   8.483  0.1924 -0.6377  0.4546
   87MOL0     C11643   6.024   9.905   8.487 -0.4526  1.0022 -0.0973
   87MOL0     C11644   6.140   9.840   8.459 -0.3038  0.6445 -0.2194
   87MOL0     O11645   6.265   9.891   8.471 -0.2365 -0.5470 -0.4596
   87MOL0     C11646   6.300  10.000   8.389  0.2779 -0.6276  0.7838
   87MOL0     C11647   6.372  10.104   8.475  0.2382 -0.5689  0.3356
   87MOL0     C11648   6.377  10.245   8.408  0.4989 -0.0820  1.2159
   87MOL0     C11649   6.499  10.272   8.315  0.8022  0.5420  0.2594
   87MOL0     C11650   6.624  10.278   8.391 -1.0097 -0.3359  0.0013
   87MOL0     C11651   6.743  10.289   8.289  0.5730 -0.0208  0.3636
   87MOL0     C11652   6.875  10.339   8.358  0.3879  0.4002 -0.2789
   87MOL0     C11653   6.923  10.265   8.481 -0.5429  0.5517  0.2088
   87MOL0    Cl11654   6.990  10.114   8.428  0.1230 -0.1361 -0.2756
   87MOL0     C11655   6.114   9.701   8.420 -0.2118 -0.5423 -0.3271
   87MOL0     C11656   5.988   9.639   8.417  0.0120 -0.2350 -0.1127
   87MOL0     O11657   5.696   9.823   8.263  0.2050 -0.2159  0.2462
   87MOL0     C11658   5.425   9.769   8.300  0.1928 -0.9867 -0.0082
   87MOL0     C11659   5.293   9.723   8.281 -0.5652  0.6550  0.2298
   87MOL0     N11660   4.584   9.431   8.234 -0.0851 -0.2071  0.5165
   87MOL0     N11661   4.462   9.470   8.215 -0.1787 -0.1252  0.5397
   87MOL0     C11662   4.588  10.354   8.792  0.4418  0.0536 -0.5075
   87MOL0     C11663   4.703  10.378   8.861  0.3114  0.4367 -0.3866
   87MOL0     C11664   5.182  10.410   8.898 -0.0788  0.1181  0.1696
   87MOL0     C11665   5.171  10.411   9.030  0.2255  0.4662 -0.0983
   87MOL0     C11666   5.280  10.425   9.114 -0.6349  0.0559  0.4635
   87MOL0     C11667   5.410  10.436   9.058 -0.3046 -0.3219 -0.7597
   87MOL0     O11668   5.506  10.434   9.152 -0.1569  0.5200 -0.2662
   87MOL0     C11669   5.636  10.472   9.109 -0.0652 -0.1140  0.3715
   87MOL0     C11670   5.735  10.489   9.223  0.9643  0.1312  0.0401
   87MOL0     C11671   5.880  10.504   9.177  0.5688 -0.0740  0.4113
   87MOL0     C11672   5.969  10.549   9.290 -0.9887 -0.4522  0.0284
   87MOL0     C11673   5.984  10.450   9.399  0.2086  0.4305  0.5440
   87MOL0     C11674   5.985  10.354   9.480 -0.0999  0.2034 -0.4978
   87MOL0     C11675   5.418  10.438   8.921  0.7055  0.3306 -0.2764
   87MOL0     C11676   5.311  10.424   8.839  0.0946 -1.0422  0.2800
   87MOL0     C11677   5.340  10.411   8.691 -0.3900 -0.0094 -0.4271
   87MOL0     H11678   4.918  10.198   8.681 -0.0502  0.2151 -0.4625
   87MOL0     H11679   4.721  10.168   8.547 -2.2257  0.9843 -1.7908
   87MOL0     H11680   4.506  10.333   8.451 -1.5650  0.0262  1.8617
   87MOL0     H11681   4.510  10.147   8.454  2.9653 -0.5351  3.2817
   87MOL0     H11682   4.305  10.284   8.342  0.5458 -1.9499 -1.2177
   87MOL0     H11683   4.256  10.291   8.515 -0.3180 -2.4985  1.1377
   87MOL0     H11684   4.295  10.053   8.337 -0.4155 -2.0830  0.5034
   87MOL0     H11685   4.136  10.118   8.393  0.3679  2.0038  0.8956
   87MOL0     H11686   4.335  10.005   8.568  0.4567  0.9927 -1.4759
   87MOL0     H11687   4.196  10.083   8.634  2.2657 -0.3525  1.1326
   87MOL0     H11688   4.156   9.848   8.645 -2.5348 -2.1378 -1.5729
   87MOL0     H11689   4.036   9.934   8.555  0.7836  1.7752 -1.0270
   87MOL0     H11690   4.090   9.729   8.459 -1.3242  2.5632  3.8832
   87MOL0     H11691   4.142   9.856   8.339  1.7409  0.2772 -0.3890
   87MOL0     H11692   4.341   9.704   8.523  3.3984 -1.7373 -2.4488
   87MOL0     H11693   4.371   9.812   8.387 -0.7058  1.1989  2.1512
   87MOL0     H11694   4.231   9.534   8.378 -0.1320 -1.1227 -2.4999
   87MOL0     H11695   4.254   9.642   8.245  2.4976 -1.2439 -0.6920
   87MOL0     H11696   4.529   9.605   8.507  0.1533 -2.1979 -0.0451
   87MOL0     H11697   4.741   9.427   8.530  3.8772  3.8011  0.9710
   87MOL0     H11698   4.765   9.333   8.377 -3.7209 -0.4807 -0.8754
   87MOL0     H11699   4.861   9.629   8.443  0.5783  1.6568 -3.4534
   87MOL0     H11700   4.954   9.481   8.467 -1.2927 -2.0677 -0.8266
   87MOL0     H11701   4.836   9.588   8.202  1.2890  1.5034  0.6758
   87MOL0     H11702   4.909   9.434   8.211 -1.7811 -1.8383  2.5803
   87MOL0     H11703   5.034   9.700   8.285 -1.7737 -0.2913 -0.0006
   87MOL0     H11704   5.054   9.632   8.124  2.6558  0.0621  0.2379
   87MOL0     H11705   5.353   9.397   8.305  0.5067  0.5782  1.8336
   87MOL0     H11706   5.577   9.483   8.372  0.7044  2.0425  0.0783
   87MOL0     H11707   5.816   9.916   8.507  2.1986  0.9420  3.3788
   87MOL0     H11708   6.033  10.009   8.515  1.2956  0.6252  0.9027
   87MOL0     H11709   6.364   9.969   8.306 -1.7752 -4.7265  0.4402
   87MOL0     H11710   6.211  10.043   8.342 -0.7692 -2.9598  0.4668
   87MOL0     H11711   6.319  10.118   8.570  2.1640 -0.3890  1.4468
   87MOL0     H11712   6.471  10.068   8.504 -0.4020 -0.3780  3.0544
   87MOL0     H11713   6.291  10.266   8.344  3.0382  2.1579 -1.7881
   87MOL0     H11714   6.375  10.318   8.489  0.6768  1.9047 -0.4746
   87MOL0     H11715   6.475  10.362   8.257 -0.7951  0.8654  1.3512
   87MOL0     H11716   6.510  10.186   8.249  5.8435  1.1774 -0.1673
   87MOL0     H11717   6.632  10.182   8.443  1.7220  0.6512  1.6355
   87MOL0     H11718   6.617  10.361   8.461 -2.4387 -0.7529  0.3961
   87MOL0     H11719   6.756  10.193   8.239  4.8073 -0.4725  1.9507
   87MOL0     H11720   6.713  10.365   8.216  2.1869 -0.5076 -0.8678
   87MOL0     H11721   6.856  10.443   8.387 -1.3874 -0.6824  2.8766
   87MOL0     H11722   6.949  10.331   8.278  0.1238  0.8641 -0.5722
   87MOL0     H11723   7.012  10.317   8.518  1.0256 -1.8186  0.0283
   87MOL0     H11724   6.853  10.257   8.564 -0.0924 -1.9849  0.4326
   87MOL0     H11725   6.208   9.652   8.394 -0.9743 -2.1489 -0.1534
   87MOL0     H11726   5.976   9.535   8.389  1.8613  0.3134 -3.5000
   87MOL0     H11727   5.451   9.874   8.305 -3.3921  0.1128 -1.6885
   87MOL0     H11728   5.230   9.811   8.273  1.4653  2.0226 -1.6597
   87MOL0     H11729   4.497  10.399   8.830  0.9363 -2.3997  4.3375
   87MOL0     H11730   4.713  10.432   8.954 -0.4939 -0.4533  0.2363
   87MOL0     H11731   5.077  10.383   9.077 -0.2596  0.4742 -1.0539
   87MOL0     H11732   5.279  10.415   9.222 -1.5626  1.3965  0.5996
   87MOL0     H11733   5.626  10.560   9.044  0.2049 -0.8245 -0.6476
   87MOL0     H11734   5.674  10.384   9.057 -1.9284 -1.6128  1.4184
   87MOL0     H11735   5.724  10.405   9.292 -2.6774 -0.5297 -1.1255
   87MOL0     H11736   5.707  10.574   9.286  0.9912 -0.1333  0.4098
   87MOL0     H11737   5.877  10.576   9.094 -1.6040 -0.6957 -0.1147
   87MOL0     H11738   5.912  10.404   9.146 -0.8156 -0.7973  1.2243
   87MOL0     H11739   6.065  10.583   9.250 -1.6858  2.8457  0.8672
   87MOL0     H11740   5.933  10.644   9.331  0.8068  0.8072 -1.1454
   87MOL0     H11741   5.989  10.291   9.566  0.7771  1.2829  0.2902
   87MOL0     H11742   5.521  10.452   8.890  1.0852  0.3215  0.9618
   87MOL0     H11743   5.447  10.410   8.668  0.0998  0.4698  1.5949
   87MOL0     H11744   5.302  10.312   8.665  1.6567 -1.3815  1.3807
   87MOL0     H11745   5.298  10.495   8.636  0.4101 -0.0301 -1.0859
   88MOL0     O11746   7.145   1.354   7.454  0.3623  0.3331 -0.2552
   88MOL0     C11747   7.107   1.267   7.369  0.1367 -0.0043  0.0227
   88MOL0     O11748   7.178   1.164   7.310 -0.4167  0.1522  0.1346
   88MOL0     C11749   7.315   1.185   7.305  0.2565 -0.8464 -0.2091
   88MOL0     C11750   7.372   1.206   7.184  0.2438 -0.7280  0.2509
   88MOL0     C11751   7.511   1.227   7.181  0.0236  0.3132 -0.4330
   88MOL0     C11752   7.586   1.237   7.292 -0.3918  0.0936  0.2812
   88MOL0     O11753   7.718   1.259   7.280 -0.2182  0.3454 -0.8465
   88MOL0     C11754   7.777   1.328   7.392  0.7724 -0.1328 -0.4429
   88MOL0     C11755   7.916   1.367   7.351  0.0925  0.1133 -0.5758
   88MOL0     C11756   8.009   1.256   7.293  0.1228  0.8299 -0.2373
   88MOL0     C11757   8.146   1.320   7.296  0.1381 -0.1852  0.4000
   88MOL0     C11758   8.244   1.212   7.254  0.3777 -0.2970 -0.1766
   88MOL0     C11759   8.377   1.276   7.201  0.8786  0.5430  0.1514
   88MOL0     C11760   8.485   1.170   7.157 -0.4313  0.0520 -0.6487
   88MOL0     C11761   8.510   1.057   7.250 -0.7005  0.4342 -0.9212
   88MOL0     N11762   8.635   0.987   7.215 -0.5520  0.6821  0.1408
   88MOL0     C11763   8.772   1.010   7.246  1.0080  0.1744  0.9006
   88MOL0     C11764   8.840   0.924   7.184  0.1861  1.3724 -0.7611
   88MOL0     C11765   8.990   0.904   7.185  0.9380 -0.7180  0.0091
   88MOL0     C11766   9.048   0.834   7.067 -0.7747  0.3667 -0.5744
   88MOL0     C11767   9.196   0.783   7.094  0.4490  0.2046 -0.0880
   88MOL0     C11768   9.288   0.874   7.177  0.6272 -0.3112 -0.3283
   88MOL0     O11769   9.420   0.833   7.157  0.2716 -0.2122  0.1648
   88MOL0     C11770   9.502   0.926   7.094  0.2017 -0.6497  0.0518
   88MOL0     C11771   9.473   0.980   6.967  0.4638 -0.4721 -0.1984
   88MOL0     C11772   9.565   1.061   6.901  0.9530  0.4200  0.4443
   88MOL0     C11773   9.694   1.074   6.961 -1.4271  0.2335  0.5334
   88MOL0     C11774   9.797   1.168   6.897 -0.2904 -0.0720 -0.4178
   88MOL0     O11775   9.759   1.261   6.811  0.4155 -0.0382  0.3921
   88MOL0     C11776   9.850   1.352   6.769 -0.5421 -0.1833 -0.4232
   88MOL0     C11777   9.849   1.482   6.820 -0.3325 -0.1380 -0.0128
   88MOL0     C11778   9.933   1.578   6.766 -0.0292 -0.7436 -0.4796
   88MOL0     C11779  10.032   1.534   6.670 -0.3714  0.2358  0.3385
   88MOL0     O11780  10.126   1.616   6.617  0.6897 -0.1226  0.2678
   88MOL0     C11781  10.224   1.671   6.709  0.5877 -0.3772  0.4956
   88MOL0     C11782  10.316   1.769   6.639  0.4081 -0.3031  0.0484
   88MOL0     C11783  10.234   1.880   6.580  0.0931  0.7726  0.0886
   88MOL0     C11784  10.322   1.992   6.515  0.3186  0.3526 -0.1366
   88MOL0     C11785  10.241   2.113   6.451 -0.3277 -0.4531 -0.4658
   88MOL0     C11786  10.180   2.066   6.318  0.4092  0.6670  0.2458
   88MOL0     C11787  10.284   2.075   6.202 -0.0502 -0.4352 -0.4671
   88MOL0     C11788  10.309   2.214   6.148 -0.0089 -0.0609 -0.6278
   88MOL0    Cl11789  10.212   2.231   6.002  0.3647  0.2470  0.5863
   88MOL0     C11790  10.032   1.403   6.626 -0.2720 -0.8184  0.1832
   88MOL0     C11791   9.933   1.318   6.665 -0.9339  0.1464  0.7108
   88MOL0     O11792   9.910   1.153   6.942 -0.3026 -0.2552  0.7283
   88MOL0     C11793   9.730   1.014   7.083  0.4868 -0.3363 -0.9898
   88MOL0     C11794   9.628   0.945   7.148  0.2417  0.6252  0.3512
   88MOL0     N11795   8.753   0.844   7.113 -0.1350 -0.2352  0.7067
   88MOL0     N11796   8.628   0.880   7.132 -0.2581  0.2443  0.4096
   88MOL0     C11797   7.514   1.219   7.423  0.4116 -0.8002  0.6959
   88MOL0     C11798   7.386   1.179   7.423  0.1273 -0.1348  0.1535
   88MOL0     C11799   6.965   1.275   7.345  0.3111  0.2818  0.3118
   88MOL0     C11800   6.923   1.397   7.308  1.3155 -0.7309 -0.5552
   88MOL0     C11801   6.783   1.413   7.292 -0.0231 -0.0261 -1.1436
   88MOL0     C11802   6.692   1.303   7.302 -0.2087 -0.1148  0.4294
   88MOL0     O11803   6.557   1.318   7.292  0.7229  0.2395  0.1700
   88MOL0     C11804   6.479   1.445   7.294  0.3033  0.1497  0.8052
   88MOL0     C11805   6.460   1.490   7.147 -0.4778  0.4148  0.0184
   88MOL0     C11806   6.363   1.388   7.074  0.2823 -0.2779 -0.1823
   88MOL0     C11807   6.356   1.420   6.923 -0.4701 -0.5201 -1.1872
   88MOL0     C11808   6.256   1.523   6.923 -0.7034  0.1122  0.6167
   88MOL0     C11809   6.157   1.587   6.929  0.8821  1.1762 -0.4099
   88MOL0     C11810   6.745   1.174   7.319  0.2948 -0.2089 -0.2367
   88MOL0     C11811   6.881   1.160   7.341 -0.2485  0.0331  0.5869
   88MOL0     C11812   6.938   1.022   7.359  0.6865 -0.2612 -0.4051
   88MOL0     H11813   7.309   1.201   7.096 -1.3256  1.0816  1.2122
   88MOL0     H11814   7.561   1.230   7.085 -0.7256  0.4306 -0.8289
   88MOL0     H11815   7.722   1.422   7.400  1.2881  0.2269 -1.0245
   88MOL0     H11816   7.769   1.268   7.483 -0.5040  0.1602 -0.3464
   88MOL0     H11817   7.964   1.410   7.440 -3.0411 -0.5988  1.6008
   88MOL0     H11818   7.903   1.455   7.287 -0.5349  1.3057  1.1213
   88MOL0     H11819   7.979   1.234   7.190  1.7170  3.0462 -1.2525
   88MOL0     H11820   8.006   1.168   7.358  3.0022  0.4931 -0.4336
   88MOL0     H11821   8.158   1.401   7.223  3.6695 -1.1882 -0.3435
   88MOL0     H11822   8.178   1.372   7.387  1.2720  1.1631 -0.7182
   88MOL0     H11823   8.265   1.151   7.343 -0.7409  2.5875  2.2383
   88MOL0     H11824   8.202   1.154   7.171 -0.0427  1.5158 -1.2768
   88MOL0     H11825   8.348   1.340   7.118  0.5693 -0.4759 -0.5523
   88MOL0     H11826   8.421   1.328   7.287  0.4460 -3.9157  3.4471
   88MOL0     H11827   8.576   1.227   7.137  1.2318 -2.1462  0.2242
   88MOL0     H11828   8.455   1.130   7.059  0.4520 -1.6256 -0.2605
   88MOL0     H11829   8.522   1.096   7.351 -0.6619  1.1290 -1.1881
   88MOL0     H11830   8.425   0.988   7.256 -1.2085  1.0195 -1.3416
   88MOL0     H11831   8.797   1.090   7.314  0.5952  2.4171 -1.4401
   88MOL0     H11832   9.042   1.000   7.193  1.3642 -0.7083 -2.2455
   88MOL0     H11833   9.011   0.853   7.279 -1.0303 -0.2021  0.7901
   88MOL0     H11834   8.991   0.741   7.056  1.9754 -1.4290 -0.6653
   88MOL0     H11835   9.047   0.900   6.980  0.6805  1.2071 -0.0077
   88MOL0     H11836   9.247   0.769   6.998  1.3540  0.0352  0.3997
   88MOL0     H11837   9.201   0.688   7.149  0.9971  2.4398  4.1113
   88MOL0     H11838   9.271   0.859   7.284  1.9096 -0.0755 -0.0760
   88MOL0     H11839   9.275   0.981   7.157 -2.3479 -0.3472  0.8484
   88MOL0     H11840   9.383   0.949   6.916  1.6163 -1.8541 -1.4777
   88MOL0     H11841   9.542   1.109   6.806  2.2449  0.8473  0.3212
   88MOL0     H11842   9.778   1.511   6.896 -1.9123 -0.6195 -1.2453
   88MOL0     H11843   9.936   1.684   6.788 -1.3754 -0.7944  0.0217
   88MOL0     H11844  10.174   1.723   6.790 -2.5988 -4.1258  1.2661
   88MOL0     H11845  10.273   1.584   6.754 -0.7555 -1.3066  0.2388
   88MOL0     H11846  10.391   1.804   6.710  2.0825 -2.8821 -0.3185
   88MOL0     H11847  10.363   1.717   6.555  0.6314  1.0302 -0.6808
   88MOL0     H11848  10.160   1.839   6.510 -0.8913 -0.2278  1.6383
   88MOL0     H11849  10.171   1.921   6.659 -0.1552 -0.5074  0.5884
   88MOL0     H11850  10.367   1.939   6.431  0.9715  1.3279 -0.4172
   88MOL0     H11851  10.400   2.028   6.583  2.6992 -2.9989 -0.8516
   88MOL0     H11852  10.304   2.195   6.416 -2.8297  1.6431 -0.3436
   88MOL0     H11853  10.160   2.149   6.515  0.9672  0.8273  0.4995
   88MOL0     H11854  10.136   1.967   6.327 -0.5062  0.8258 -1.7971
   88MOL0     H11855  10.100   2.137   6.293  0.4843  1.7881  2.8473
   88MOL0     H11856  10.247   2.009   6.123 -2.5882 -1.1440  1.1955
   88MOL0     H11857  10.386   2.042   6.227 -0.9154 -2.5370  0.5344
   88MOL0     H11858  10.275   2.281   6.227 -0.6560 -2.4427  1.2239
   88MOL0     H11859  10.411   2.236   6.115  0.3795  4.6023  2.6680
   88MOL0     H11860  10.117   1.377   6.563 -0.4857  1.3455 -1.0910
   88MOL0     H11861   9.947   1.212   6.645  0.1009  0.3319  0.4169
   88MOL0     H11862   9.823   1.032   7.137  1.0053  0.1766 -2.0078
   88MOL0     H11863   9.653   0.904   7.245  1.3457  3.4565  1.3496
   88MOL0     H11864   7.571   1.230   7.514  2.0788 -0.7837 -0.3175
   88MOL0     H11865   7.335   1.152   7.515 -1.7941  2.2110 -0.0972
   88MOL0     H11866   6.992   1.480   7.294 -0.0190  0.3198 -1.0574
   88MOL0     H11867   6.744   1.512   7.269 -0.9175  0.3307  1.5672
   88MOL0     H11868   6.533   1.529   7.340 -1.9694  2.8561 -1.0674
   88MOL0     H11869   6.387   1.439   7.353  0.5447  2.2309  1.4745
   88MOL0     H11870   6.558   1.476   7.101  0.0317 -1.6516  1.5410
   88MOL0     H11871   6.429   1.594   7.140 -1.4787  0.1090 -0.3308
   88MOL0     H11872   6.259   1.389   7.106 -0.5888 -5.3665 -1.9039
   88MOL0     H11873   6.397   1.285   7.091  0.3817  0.0391  1.6973
   88MOL0     H11874   6.452   1.450   6.882 -0.5038  0.6372 -0.4868
   88MOL0     H11875   6.326   1.337   6.859 -0.4618  0.0578 -1.9525
   88MOL0     H11876   6.069   1.648   6.925 -0.0423 -0.1654 -1.0793
   88MOL0     H11877   6.675   1.091   7.327  0.8986 -0.7390 -0.3250
   88MOL0     H11878   7.009   1.022   7.442  1.1814 -0.6001 -0.8208
   88MOL0     H11879   6.859   0.951   7.384  1.4237 -0.5315  1.2661
   88MOL0     H11880   6.997   0.995   7.271  0.3317 -0.8007 -0.4862
   89MOL0     O11881   2.670   5.349  10.639 -0.2997 -0.5381 -0.5083
   89MOL0     C11882   2.595   5.318  10.734  0.1564 -0.4722 -0.2494
   89MOL0     O11883   2.626   5.224  10.835  0.7490 -0.9983 -0.4325
   89MOL0     C11884   2.747   5.156  10.845  0.1314  0.2088  0.6982
   89MOL0     C11885   2.744   5.059  10.944  0.3924  1.0334  0.2685
   89MOL0     C11886   2.844   4.959  10.937 -0.4505  0.0818  0.6188
   89MOL0     C11887   2.950   4.967  10.847 -0.5719 -0.2847  0.0210
   89MOL0     O11888   3.055   4.875  10.852 -0.0143 -0.5204 -0.0567
   89MOL0     C11889   3.139   4.848  10.733 -0.5904  0.3237 -0.5200
   89MOL0     C11890   3.210   4.715  10.747 -0.1060  0.0821  0.2042
   89MOL0     C11891   3.325   4.713  10.850  0.1927  0.2183  0.2333
   89MOL0     C11892   3.405   4.582  10.830  0.1592 -1.3040  0.2887
   89MOL0     C11893   3.531   4.590  10.913 -0.1563  0.3131  0.0506
   89MOL0     C11894   3.554   4.491  11.021 -0.0792  0.0478 -0.2664
   89MOL0     C11895   3.605   4.357  10.967 -0.1487  0.7800  0.5241
   89MOL0     C11896   3.632   4.258  11.084  0.9802 -1.1300 -0.1603
   89MOL0     N11897   3.766   4.284  11.147  0.2272 -0.0619 -0.7488
   89MOL0     C11898   3.888   4.240  11.102  0.3265 -0.4327  0.0979
   89MOL0     C11899   3.973   4.274  11.199  0.1607  0.1633  0.0331
   89MOL0     C11900   4.112   4.233  11.206 -0.1398 -0.3258 -0.9309
   89MOL0     C11901   4.175   4.271  11.346 -0.2647 -0.0869 -0.2202
   89MOL0     C11902   4.247   4.409  11.325  0.1040 -0.4451  0.4608
   89MOL0     C11903   4.332   4.446  11.452 -1.2471 -0.4919 -0.2919
   89MOL0     O11904   4.436   4.353  11.470 -0.4171  0.9061  0.4642
   89MOL0     C11905   4.541   4.387  11.553 -0.7182  0.0301 -0.3446
   89MOL0     C11906   4.603   4.281  11.611  0.3955 -0.3137  0.4881
   89MOL0     C11907   4.702   4.298  11.707 -0.6966  0.8565  0.0604
   89MOL0     C11908   4.760   4.429  11.726  0.1073 -0.0030 -0.3944
   89MOL0     C11909   4.878   4.440  11.818  0.0546  0.5848 -0.9663
   89MOL0     O11910   4.898   4.338  11.909  0.3781  0.4801 -0.5456
   89MOL0     C11911   5.001   4.326  11.992 -0.2536 -0.3214  0.1394
   89MOL0     C11912   5.133   4.382  11.983  0.7460 -0.0788  0.6208
   89MOL0     C11913   5.235   4.343  12.070  0.6402 -0.9476  0.6796
   89MOL0     C11914   5.209   4.246  12.173  0.6988 -0.4345  0.1387
   89MOL0     O11915   5.292   4.197  12.260 -0.3011  0.2230  0.3109
   89MOL0     C11916   5.403   4.272  12.293 -0.8271 -0.0440  0.1616
   89MOL0     C11917   5.480   4.214  12.408  0.6379  0.1901 -0.3223
   89MOL0     C11918   5.605   4.132  12.371 -0.3711 -0.3692  0.3484
   89MOL0     C11919   5.686   4.079  12.494 -0.5108 -0.3411  0.5032
   89MOL0     C11920   5.814   4.005  12.452 -0.9063  0.4770 -0.5900
   89MOL0     C11921   5.886   3.936  12.567  0.1647  0.1456  0.4130
   89MOL0     C11922   5.824   3.816  12.628  0.5864  0.4373 -0.2534
   89MOL0     C11923   5.800   3.708  12.523  0.3488  1.0471 -0.5588
   89MOL0    Cl11924   5.952   3.655  12.454 -0.1808  0.3756 -0.0617
   89MOL0     C11925   5.083   4.197  12.179 -0.2269  0.5793 -0.8549
   89MOL0     C11926   4.983   4.232  12.096 -0.3581 -0.2998  0.1599
   89MOL0     O11927   4.952   4.539  11.802  0.5345  0.3513  0.2279
   89MOL0     C11928   4.709   4.536  11.651  0.7292 -0.1106  0.1420
   89MOL0     C11929   4.596   4.517  11.570 -0.3007 -0.0696 -0.2394
   89MOL0     N11930   3.908   4.355  11.290  0.2652 -0.3102  0.1259
   89MOL0     N11931   3.782   4.349  11.269  0.6718 -0.5564  0.5999
   89MOL0     C11932   2.965   5.085  10.770 -0.5994 -0.6287  0.5912
   89MOL0     C11933   2.860   5.175  10.760 -0.7528  0.2638 -0.2234
   89MOL0     C11934   2.461   5.388  10.741 -0.0577 -0.5099  0.8526
   89MOL0     C11935   2.459   5.517  10.682  0.5676  0.2125  0.6187
   89MOL0     C11936   2.349   5.601  10.692  0.0922  0.8307 -0.3404
   89MOL0     C11937   2.230   5.548  10.746  0.0807 -0.1940  0.8734
   89MOL0     O11938   2.110   5.616  10.762  0.1630  0.4290 -0.5185
   89MOL0     C11939   2.081   5.736  10.689  0.0277  0.1850  0.1022
   89MOL0     C11940   2.142   5.854  10.765 -0.7143  0.0121 -0.3177
   89MOL0     C11941   2.154   5.980  10.678  0.8659  1.2452  0.0414
   89MOL0     C11942   2.193   6.098  10.769 -0.3288 -0.4734 -0.2401
   89MOL0     C11943   2.230   6.210  10.684 -0.3463 -0.1612 -0.1458
   89MOL0     C11944   2.244   6.312  10.619  0.5723  0.0920 -0.0101
   89MOL0     C11945   2.229   5.416  10.790 -0.2000  0.4846 -0.5217
   89MOL0     C11946   2.341   5.329  10.791  0.5279 -0.7200  0.2421
   89MOL0     C11947   2.330   5.189  10.838  0.2159 -0.2440 -0.1125
   89MOL0     H11948   2.672   5.056  11.025 -1.0121  0.2343 -0.9657
   89MOL0     H11949   2.838   4.875  11.006  2.4712 -0.2998  0.5285
   89MOL0     H11950   3.081   4.845  10.641  1.5719 -1.5107 -1.9145
   89MOL0     H11951   3.215   4.927  10.725  2.1319 -1.8281  1.8941
   89MOL0     H11952   3.235   4.691  10.643 -2.5834 -0.2187 -0.3734
   89MOL0     H11953   3.133   4.642  10.773 -0.1832 -0.7454 -2.1178
   89MOL0     H11954   3.284   4.706  10.951 -2.0421  4.0265 -0.1930
   89MOL0     H11955   3.392   4.800  10.846 -1.0017  1.1668  0.2007
   89MOL0     H11956   3.348   4.494  10.860  0.6271 -2.1059 -1.0474
   89MOL0     H11957   3.421   4.573  10.722  1.6062  1.4331  0.1908
   89MOL0     H11958   3.614   4.585  10.842 -1.6895  3.1958 -2.1738
   89MOL0     H11959   3.545   4.689  10.957  1.0637  1.0387 -1.8443
   89MOL0     H11960   3.627   4.529  11.094 -0.3244 -1.8391  1.0500
   89MOL0     H11961   3.462   4.481  11.079 -0.2826 -1.3113 -0.7817
   89MOL0     H11962   3.697   4.364  10.908 -1.5309 -0.1552 -1.8812
   89MOL0     H11963   3.534   4.312  10.897 -0.2987  0.1853  1.0499
   89MOL0     H11964   3.557   4.268  11.163  2.0023  0.1533  0.7033
   89MOL0     H11965   3.624   4.155  11.048  0.8112 -1.8013  1.6526
   89MOL0     H11966   3.901   4.185  11.009 -2.0394 -2.7454  1.0137
   89MOL0     H11967   4.113   4.125  11.189 -0.3547 -0.4375 -0.2568
   89MOL0     H11968   4.163   4.277  11.120  3.5344  0.0047  1.2322
   89MOL0     H11969   4.106   4.273  11.431  0.6676 -1.5184  0.6205
   89MOL0     H11970   4.257   4.201  11.368  0.8542  1.2133 -0.1352
   89MOL0     H11971   4.165   4.480  11.314 -0.2486 -1.1209 -1.6300
   89MOL0     H11972   4.302   4.420  11.232 -0.8312 -0.0531 -0.0577
   89MOL0     H11973   4.270   4.459  11.541  0.2275  3.0736  0.3860
   89MOL0     H11974   4.368   4.548  11.439  0.7051 -0.5404  3.5456
   89MOL0     H11975   4.564   4.180  11.601 -1.2236  0.4461 -1.8749
   89MOL0     H11976   4.739   4.217  11.769  3.3510  0.9914 -1.8773
   89MOL0     H11977   5.159   4.457  11.909  0.4401 -0.7332 -0.1657
   89MOL0     H11978   5.323   4.405  12.055 -0.1697  0.2189  0.5644
   89MOL0     H11979   5.472   4.275  12.208  0.2092 -0.0450  0.9838
   89MOL0     H11980   5.375   4.376  12.311  2.3529  1.1612 -1.0343
   89MOL0     H11981   5.504   4.295  12.477  1.0825 -0.6712  0.5474
   89MOL0     H11982   5.410   4.146  12.457  1.1498  0.1227  0.3148
   89MOL0     H11983   5.567   4.043  12.320  1.6699  0.1421 -2.2475
   89MOL0     H11984   5.672   4.186  12.304  0.8424 -2.8130 -0.5333
   89MOL0     H11985   5.618   4.017  12.553 -2.0889  0.2806 -0.5932
   89MOL0     H11986   5.710   4.169  12.550 -0.7659 -0.0309  0.1180
   89MOL0     H11987   5.884   4.074  12.403  2.1694 -1.6321  0.5581
   89MOL0     H11988   5.801   3.923  12.381  0.2621  0.7123 -1.1077
   89MOL0     H11989   5.986   3.906  12.534  0.0573  0.5766 -0.3327
   89MOL0     H11990   5.907   4.011  12.644  1.0262 -0.2776  0.6074
   89MOL0     H11991   5.732   3.843  12.682  0.2800  2.0166 -1.4918
   89MOL0     H11992   5.883   3.778  12.712 -2.4676 -1.1237  1.3602
   89MOL0     H11993   5.761   3.623  12.579  1.2093  1.2266  0.3504
   89MOL0     H11994   5.727   3.735  12.446 -3.9841 -2.2757  1.8858
   89MOL0     H11995   5.062   4.126  12.259  2.3973 -0.0620 -0.6209
   89MOL0     H11996   4.883   4.192  12.112 -0.9183  0.0640 -2.0757
   89MOL0     H11997   4.742   4.637  11.674  0.9254  0.3413 -1.9183
   89MOL0     H11998   4.549   4.600  11.518 -1.5570 -0.1079  0.7884
   89MOL0     H11999   3.050   5.091  10.703  0.0480 -3.7189  0.9788
   89MOL0     H12000   2.871   5.248  10.680 -0.3850  2.2474  1.5272
   89MOL0     H12001   2.552   5.555  10.641  0.8337 -0.1125  0.9115
   89MOL0     H12002   2.330   5.699  10.649 -2.5592  0.9332  0.8494
   89MOL0     H12003   1.975   5.757  10.677 -0.0536 -0.3731 -0.1729
   89MOL0     H12004   2.119   5.738  10.587  1.2855  1.2600  0.5530
   89MOL0     H12005   2.241   5.825  10.801 -0.6179 -0.9062 -1.2774
   89MOL0     H12006   2.083   5.879  10.854 -1.6515  1.9854 -1.4162
   89MOL0     H12007   2.057   6.002  10.634 -0.8965 -1.6876  2.1302
   89MOL0     H12008   2.235   5.972  10.605  1.9464  1.4554  1.1682
   89MOL0     H12009   2.117   6.138  10.837 -1.1265  0.9182 -1.8809
   89MOL0     H12010   2.282   6.070  10.826  1.2262  0.6776 -2.0022
   89MOL0     H12011   2.227   6.408  10.573  3.2795  1.0432  0.7905
   89MOL0     H12012   2.140   5.382  10.841  0.6351  0.8018  1.2012
   89MOL0     H12013   2.386   5.109  10.788  0.3386  0.3042 -0.8734
   89MOL0     H12014   2.366   5.179  10.941  1.6882 -1.3443 -0.6909
   89MOL0     H12015   2.224   5.168  10.854  0.0378  0.9688  0.3366
   90MOL0     O12016   7.180   7.592   6.469 -0.0320  0.1820 -0.6907
   90MOL0     C12017   7.194   7.607   6.348 -0.1334 -0.3227 -0.2111
   90MOL0     O12018   7.323   7.609   6.290 -0.2202  0.1719 -0.4778
   90MOL0     C12019   7.426   7.609   6.377  0.0525 -0.2919  0.1807
   90MOL0     C12020   7.461   7.496   6.445 -0.3384  0.0977 -0.1958
   90MOL0     C12021   7.565   7.512   6.539  0.3852  0.2627 -0.4960
   90MOL0     C12022   7.617   7.634   6.583  0.2699 -0.2544  0.0001
   90MOL0     O12023   7.701   7.620   6.691  0.5836  0.3154 -0.1768
   90MOL0     C12024   7.755   7.744   6.733 -0.5131 -0.2358 -0.0317
   90MOL0     C12025   7.881   7.766   6.643  0.0198  0.4089 -0.3070
   90MOL0     C12026   7.984   7.850   6.711 -0.4362 -0.3585  0.2578
   90MOL0     C12027   8.098   7.865   6.612  0.3348 -0.2298  0.5914
   90MOL0     C12028   8.209   7.952   6.669  0.0186 -0.1584  1.0605
   90MOL0     C12029   8.320   7.988   6.569 -0.6303 -0.2248  0.0050
   90MOL0     C12030   8.412   8.099   6.618  0.0403 -0.4456  0.8019
   90MOL0     C12031   8.545   8.042   6.684 -0.2821  0.1337 -0.6327
   90MOL0     N12032   8.639   8.003   6.579  0.7661 -0.1126 -0.3482
   90MOL0     C12033   8.710   8.085   6.502  0.5889 -0.2698  0.0094
   90MOL0     C12034   8.772   8.011   6.410 -0.0319  0.7445 -0.2632
   90MOL0     C12035   8.874   8.061   6.305  0.2618  0.2316 -0.3878
   90MOL0     C12036   8.866   8.201   6.252 -0.0434 -0.1199  0.3723
   90MOL0     C12037   8.978   8.232   6.154 -0.4655  0.0847  1.0206
   90MOL0     C12038   8.987   8.369   6.088  0.7367  0.0249 -0.3201
   90MOL0     O12039   9.065   8.467   6.157  0.1222  0.2592  0.4572
   90MOL0     C12040   9.196   8.483   6.120  0.4069  0.4396  1.3665
   90MOL0     C12041   9.232   8.559   6.012  0.4254  0.2549  0.6122
   90MOL0     C12042   9.364   8.581   5.984  0.1625  0.2877 -0.1341
   90MOL0     C12043   9.468   8.521   6.061 -0.9023 -0.2713 -0.9551
   90MOL0     C12044   9.607   8.526   6.030 -0.4556  0.3569 -0.4130
   90MOL0     O12045   9.697   8.496   6.121 -0.9078 -0.0181  0.2030
   90MOL0     C12046   9.822   8.533   6.088  0.0116  0.6381 -0.4475
   90MOL0     C12047   9.888   8.639   6.149  1.1626 -0.2458  0.2823
   90MOL0     C12048  10.018   8.671   6.115  0.3106 -0.5180  0.1337
   90MOL0     C12049  10.095   8.601   6.034 -0.5871  0.8096  0.6261
   90MOL0     O12050  10.227   8.630   6.008 -0.0661 -0.1325 -0.1832
   90MOL0     C12051  10.257   8.760   5.964  0.7912  0.2241 -0.3914
   90MOL0     C12052  10.413   8.769   5.969 -0.0364  0.4429  0.3713
   90MOL0     C12053  10.461   8.873   5.865  0.2866  0.1127  0.3703
   90MOL0     C12054  10.589   8.838   5.786 -0.6880  0.2076 -0.2336
   90MOL0     C12055  10.555   8.772   5.655 -1.1497  0.0227  1.0790
   90MOL0     C12056  10.675   8.752   5.555 -0.4580 -0.1483 -0.7367
   90MOL0     C12057  10.667   8.630   5.467 -0.8110  0.4698  0.1284
   90MOL0     C12058  10.810   8.582   5.414 -0.3266  0.1757  0.0529
   90MOL0    Cl12059  10.915   8.717   5.363  0.0097  0.3415  0.1889
   90MOL0     C12060  10.031   8.493   5.966  0.1175 -0.4328 -0.0291
   90MOL0     C12061   9.898   8.466   5.988  0.4172 -0.5512 -1.3356
   90MOL0     O12062   9.627   8.564   5.915 -0.1553 -0.3343  0.3800
   90MOL0     C12063   9.427   8.458   6.173 -0.3541 -0.4777  0.3081
   90MOL0     C12064   9.292   8.429   6.198 -0.9577 -0.2586  0.0424
   90MOL0     N12065   8.741   7.881   6.438 -0.0777 -1.0254 -0.0156
   90MOL0     N12066   8.656   7.883   6.531  0.1817  0.4675 -0.7777
   90MOL0     C12067   7.580   7.745   6.503 -0.7749  0.7210 -0.9812
   90MOL0     C12068   7.488   7.731   6.403 -0.1498 -0.4953  0.6684
   90MOL0     C12069   7.076   7.652   6.265  0.8325  0.2433 -0.2058
   90MOL0     C12070   7.098   7.702   6.144  0.0414 -0.1802  0.2367
   90MOL0     C12071   7.002   7.749   6.056 -1.2359  0.2377 -0.3280
   90MOL0     C12072   6.867   7.742   6.087 -0.7514  0.2109  0.5369
   90MOL0     O12073   6.763   7.786   6.007  0.0340 -0.3679  0.4601
   90MOL0     C12074   6.628   7.781   6.044  0.0423 -0.2658 -0.6156
   90MOL0     C12075   6.541   7.870   5.960 -0.7653 -0.2461 -0.3182
   90MOL0     C12076   6.494   7.985   6.035 -0.0116  0.0986  0.0249
   90MOL0     C12077   6.420   8.090   5.963 -0.6720 -0.0187 -0.0841
   90MOL0     C12078   6.302   8.038   5.900  0.9997 -0.6556 -0.4094
   90MOL0     C12079   6.202   7.998   5.842 -0.6607  0.3772  0.4045
   90MOL0     C12080   6.839   7.684   6.209  0.5768 -0.3118  0.2457
   90MOL0     C12081   6.938   7.649   6.301 -0.5650  0.6746  0.6056
   90MOL0     C12082   6.892   7.590   6.430 -0.3335 -0.0741  0.1494
   90MOL0     H12083   7.421   7.400   6.414  0.2094 -0.2974  0.3035
   90MOL0     H12084   7.590   7.420   6.590 -1.7984 -0.0230  0.1974
   90MOL0     H12085   7.687   7.830   6.724 -2.4888 -1.9038 -2.5822
   90MOL0     H12086   7.790   7.734   6.836 -2.0400 -1.4282  0.4052
   90MOL0     H12087   7.846   7.816   6.551 -1.0792  0.6646  0.2393
   90MOL0     H12088   7.923   7.669   6.617  0.5858  0.1024  1.6245
   90MOL0     H12089   8.026   7.813   6.805  0.3541  2.0029  0.9065
   90MOL0     H12090   7.942   7.948   6.732  0.3590  0.4222 -1.6024
   90MOL0     H12091   8.135   7.768   6.578 -1.8957 -0.9147 -0.0862
   90MOL0     H12092   8.062   7.912   6.520  0.1628 -0.8845  0.3191
   90MOL0     H12093   8.157   8.043   6.698  0.9691  1.3522 -1.5715
   90MOL0     H12094   8.257   7.901   6.753 -0.4774 -2.4687  0.0350
   90MOL0     H12095   8.372   7.897   6.536 -0.4552 -0.2686  0.3918
   90MOL0     H12096   8.267   8.028   6.483 -0.7308 -2.8321 -1.2561
   90MOL0     H12097   8.362   8.157   6.696 -0.9343 -0.6300  0.3337
   90MOL0     H12098   8.431   8.174   6.541 -0.4467  0.1138  1.2227
   90MOL0     H12099   8.597   8.125   6.733  2.6330 -0.8638 -1.8439
   90MOL0     H12100   8.519   7.967   6.759 -0.7248  0.9343  0.0234
   90MOL0     H12101   8.714   8.191   6.525  0.1956 -0.4399  0.9053
   90MOL0     H12102   8.975   8.047   6.345  0.5971 -0.7147 -1.5164
   90MOL0     H12103   8.868   7.994   6.219  1.1062 -1.9389  1.1725
   90MOL0     H12104   8.774   8.232   6.201  1.3373  3.2931 -0.3488
   90MOL0     H12105   8.875   8.277   6.330  3.7718  1.6026 -1.4417
   90MOL0     H12106   8.973   8.162   6.071  0.9283 -2.9609  3.3182
   90MOL0     H12107   9.076   8.210   6.196 -0.7569 -0.8559  1.2287
   90MOL0     H12108   8.885   8.405   6.075  0.8975  0.5317 -0.1750
   90MOL0     H12109   9.017   8.365   5.983  0.1357  0.5983 -0.5241
   90MOL0     H12110   9.153   8.596   5.946  2.0395  3.0138  0.0600
   90MOL0     H12111   9.392   8.646   5.901 -1.4093  1.0188 -0.1381
   90MOL0     H12112   9.832   8.706   6.214  3.3852  0.6454  1.3792
   90MOL0     H12113  10.070   8.749   6.169  1.2588 -2.5696  2.3377
   90MOL0     H12114  10.217   8.762   5.863 -0.9924  0.4468  0.2798
   90MOL0     H12115  10.204   8.836   6.022 -1.3596 -1.0642 -0.5784
   90MOL0     H12116  10.445   8.812   6.064  0.5007 -2.7407  1.7620
   90MOL0     H12117  10.468   8.675   5.954  3.2861  1.7022  3.3696
   90MOL0     H12118  10.380   8.896   5.795 -1.2404 -1.1955  1.6562
   90MOL0     H12119  10.482   8.965   5.920 -1.5417  0.3640  0.6905
   90MOL0     H12120  10.649   8.765   5.840  0.8791  2.4203  1.1959
   90MOL0     H12121  10.643   8.930   5.763  0.5919 -0.4666  0.0367
   90MOL0     H12122  10.474   8.824   5.604 -0.7021 -0.9031 -0.6570
   90MOL0     H12123  10.517   8.671   5.673 -0.5484 -0.5370 -0.5822
   90MOL0     H12124  10.681   8.843   5.494  0.2744  2.3698  2.7509
   90MOL0     H12125  10.761   8.747   5.622 -2.5073 -1.1967  2.0233
   90MOL0     H12126  10.615   8.661   5.376  2.4514  0.4081 -1.9298
   90MOL0     H12127  10.626   8.541   5.517  2.3307 -0.7259  0.8166
   90MOL0     H12128  10.860   8.528   5.495 -0.0963  1.8090  1.0355
   90MOL0     H12129  10.802   8.514   5.328 -0.5638  1.8950 -1.3255
   90MOL0     H12130  10.081   8.437   5.887 -0.5128 -1.4495  0.2686
   90MOL0     H12131   9.849   8.385   5.935 -1.2358 -0.5148  0.0620
   90MOL0     H12132   9.501   8.410   6.236  0.1383 -1.4389 -0.9576
   90MOL0     H12133   9.268   8.368   6.285  0.4690  1.9340  2.1014
   90MOL0     H12134   7.618   7.844   6.529 -0.4154  0.4478 -0.4452
   90MOL0     H12135   7.454   7.816   6.344  2.4546  0.2296  0.1044
   90MOL0     H12136   7.197   7.715   6.102  0.9375  1.9995  2.7833
   90MOL0     H12137   7.053   7.791   5.970  0.7995 -1.2946  0.0452
   90MOL0     H12138   6.606   7.787   6.151 -2.1181 -1.7097 -0.9286
   90MOL0     H12139   6.607   7.676   6.021 -0.8417  0.2452 -2.3604
   90MOL0     H12140   6.460   7.801   5.933  0.1188 -0.6536 -1.9948
   90MOL0     H12141   6.588   7.902   5.868  0.7117 -0.5162  0.3188
   90MOL0     H12142   6.583   8.033   6.077 -0.0107 -1.2142  1.6468
   90MOL0     H12143   6.422   7.947   6.108 -0.1912  1.7991  0.8001
   90MOL0     H12144   6.396   8.166   6.038 -3.1922  0.3009 -1.1172
   90MOL0     H12145   6.480   8.145   5.890  2.2821  0.1286  2.2541
   90MOL0     H12146   6.118   7.965   5.784  0.1808 -0.0995 -0.5848
   90MOL0     H12147   6.739   7.678   6.250  0.5830  3.0013  0.9712
   90MOL0     H12148   6.791   7.623   6.454 -0.1518  2.4755 -2.0586
   90MOL0     H12149   6.888   7.481   6.433 -0.4291 -0.0606  0.5572
   90MOL0     H12150   6.946   7.617   6.521  0.3133 -0.4739 -0.1028
   91MOL0     O12151   1.961   0.016   0.279  0.0958 -0.6716  0.4706
   91MOL0     C12152   1.950  -0.033   0.166  0.2393  0.0075 -0.1504
   91MOL0     O12153   2.059  -0.061   0.077 -0.1195 -0.2557 -0.2415
   91MOL0     C12154   2.191  -0.066   0.105 -0.0307  0.2078  0.4110
   91MOL0     C12155   2.276  -0.081  -0.008  0.9798 -0.2502  0.2883
   91MOL0     C12156   2.413  -0.092  -0.003  0.0406 -0.0877 -0.4791
   91MOL0     C12157   2.480  -0.096   0.118  0.0099  0.1159 -0.5639
   91MOL0     O12158   2.612  -0.127   0.110  0.2381  0.2056 -0.3323
   91MOL0     C12159   2.654  -0.220   0.209  0.7392 -0.9140 -1.1524
   91MOL0     C12160   2.728  -0.149   0.323  0.2810  0.1973 -0.4431
   91MOL0     C12161   2.877  -0.182   0.324 -0.0070 -0.6806  0.3878
   91MOL0     C12162   2.944  -0.093   0.226  0.6106  0.0797  0.3355
   91MOL0     C12163   3.088  -0.146   0.204 -0.2019  0.3077 -0.2233
   91MOL0     C12164   3.171  -0.112   0.340  0.5826  0.1395  0.8174
   91MOL0     C12165   3.313  -0.097   0.306  0.0798 -0.0546  0.3202
   91MOL0     C12166   3.402  -0.079   0.433  0.5209 -0.4153 -0.0296
   91MOL0     N12167   3.548  -0.061   0.390  0.2175  0.5208 -0.0401
   91MOL0     C12168   3.597   0.032   0.300  0.8384  0.5349 -0.1882
   91MOL0     C12169   3.723   0.002   0.292  0.3721  0.3436 -0.0515
   91MOL0     C12170   3.821   0.077   0.214 -0.6117 -0.2414  0.1690
   91MOL0     C12171   3.964   0.080   0.277 -0.4366 -0.5172 -0.7245
   91MOL0     C12172   4.059   0.171   0.210 -1.0890 -0.2836  0.1476
   91MOL0     C12173   4.203   0.164   0.273 -0.4370  0.0817  0.3798
   91MOL0     O12174   4.265   0.038   0.257  0.3895  0.1243 -0.0641
   91MOL0     C12175   4.403   0.035   0.254 -0.0334  0.4337  0.2194
   91MOL0     C12176   4.464  -0.090   0.228 -0.6277 -0.2399  0.8082
   91MOL0     C12177   4.604  -0.104   0.233  0.5789  1.0458 -0.5790
   91MOL0     C12178   4.686   0.005   0.262 -0.0727 -0.3076  0.0000
   91MOL0     C12179   4.836  -0.001   0.254 -0.4317  0.0370  0.0880
   91MOL0     O12180   4.893  -0.124   0.246 -0.3090  0.6296  0.4021
   91MOL0     C12181   5.024  -0.133   0.207  0.4188 -0.6197  0.2497
   91MOL0     C12182   5.123  -0.188   0.290  0.3540 -0.0553  0.0140
   91MOL0     C12183   5.251  -0.202   0.245  0.3479 -0.8361  0.5996
   91MOL0     C12184   5.292  -0.156   0.121 -0.4210  0.4824  0.3786
   91MOL0     O12185   5.422  -0.177   0.079 -0.0105  0.1282 -0.2326
   91MOL0     C12186   5.448  -0.239  -0.054  0.5824 -0.7184 -0.4308
   91MOL0     C12187   5.583  -0.294  -0.065  0.3202  0.2929 -0.3500
   91MOL0     C12188   5.604  -0.361  -0.201  1.0662 -0.0749  0.4018
   91MOL0     C12189   5.576  -0.518  -0.192  0.1441 -0.9327 -0.3458
   91MOL0     C12190   5.516  -0.575  -0.317  0.1064  0.5864  0.8179
   91MOL0     C12191   5.375  -0.525  -0.354  0.4934  0.8561  0.0806
   91MOL0     C12192   5.272  -0.554  -0.250  0.2208  0.0597  0.1334
   91MOL0     C12193   5.139  -0.485  -0.278  0.3172 -0.0990  0.1343
   91MOL0    Cl12194   5.149  -0.309  -0.233 -0.6446  0.2713  0.0681
   91MOL0     C12195   5.200  -0.098   0.038 -0.6294  0.2349  0.0991
   91MOL0     C12196   5.069  -0.090   0.073 -0.0473  0.2897  0.4874
   91MOL0     O12197   4.901   0.107   0.262  0.6162 -0.0312  0.1504
   91MOL0     C12198   4.629   0.129   0.293 -0.0538 -0.1538 -0.4221
   91MOL0     C12199   4.486   0.140   0.290 -0.0416 -0.4876  0.3967
   91MOL0     N12200   3.755  -0.094   0.386  0.1764  1.5598 -0.1803
   91MOL0     N12201   3.649  -0.128   0.446 -0.1367  0.3962  0.2007
   91MOL0     C12202   2.404  -0.079   0.239  0.3716  0.0310  0.1559
   91MOL0     C12203   2.259  -0.064   0.236 -0.6703  0.8375 -0.4532
   91MOL0     C12204   1.815  -0.082   0.123 -0.0163  0.3460  1.0452
   91MOL0     C12205   1.784  -0.092  -0.019 -0.0400  0.4150  0.2367
   91MOL0     C12206   1.647  -0.116  -0.059 -0.1389 -0.4614 -0.0605
   91MOL0     C12207   1.545  -0.148   0.031  0.0714  0.5911  0.3426
   91MOL0     O12208   1.413  -0.197   0.006 -0.2159 -0.0387 -0.3104
   91MOL0     C12209   1.379  -0.230  -0.131  0.3160  0.2482  0.4127
   91MOL0     C12210   1.230  -0.270  -0.130 -0.1919  0.3174  0.7717
   91MOL0     C12211   1.135  -0.155  -0.094 -0.3254  0.2962  0.2612
   91MOL0     C12212   1.130  -0.119   0.053 -0.5855 -0.3307  0.1070
   91MOL0     C12213   1.049  -0.209   0.137 -0.4185  0.7176  0.7816
   91MOL0     C12214   0.986  -0.293   0.190  0.0819 -0.7052  0.2238
   91MOL0     C12215   1.586  -0.156   0.162 -0.3834 -0.5608 -0.1664
   91MOL0     C12216   1.716  -0.115   0.208  1.0546 -0.0534 -0.5385
   91MOL0     C12217   1.728  -0.107   0.359  0.2915 -0.1176  0.2532
   91MOL0     H12218   2.227  -0.101  -0.102  1.6614 -0.8474  0.0564
   91MOL0     H12219   2.461  -0.121  -0.096 -3.1631 -1.2267 -1.9229
   91MOL0     H12220   2.573  -0.284   0.245 -2.0751  2.6705 -0.5876
   91MOL0     H12221   2.720  -0.292   0.158  0.6756 -2.9355  1.3930
   91MOL0     H12222   2.685  -0.175   0.421  4.0650 -1.2664  1.0110
   91MOL0     H12223   2.707  -0.042   0.315 -0.4330 -0.1227 -4.6621
   91MOL0     H12224   2.888  -0.288   0.302  1.1943 -1.1226  2.8203
   91MOL0     H12225   2.916  -0.172   0.426 -1.2957 -1.1127  0.9482
   91MOL0     H12226   2.890  -0.102   0.131  1.5432  0.0298 -0.1967
   91MOL0     H12227   2.942   0.009   0.266 -1.5471 -0.0873  0.7911
   91MOL0     H12228   3.070  -0.251   0.180  1.1020 -0.0512  0.3039
   91MOL0     H12229   3.135  -0.104   0.115  1.3809 -1.9253 -0.5292
   91MOL0     H12230   3.145  -0.014   0.382 -1.8388  0.0844 -0.3782
   91MOL0     H12231   3.163  -0.194   0.412  3.4933 -1.4562 -0.5150
   91MOL0     H12232   3.326  -0.007   0.244 -1.0097  1.9073  2.7794
   91MOL0     H12233   3.345  -0.187   0.252 -0.1168  0.5011 -0.7570
   91MOL0     H12234   3.374   0.015   0.482 -0.9730  0.4126 -2.3062
   91MOL0     H12235   3.393  -0.163   0.502  0.3040  1.4611  2.4030
   91MOL0     H12236   3.540   0.119   0.271 -2.7883 -1.1325  1.2715
   91MOL0     H12237   3.828   0.017   0.122 -0.8304 -4.2143  2.5446
   91MOL0     H12238   3.782   0.177   0.194 -0.5971 -0.1704  0.4958
   91MOL0     H12239   3.949   0.101   0.383 -1.3670  1.5640 -1.2136
   91MOL0     H12240   3.997  -0.024   0.266 -1.5121 -0.7864 -1.5275
   91MOL0     H12241   4.030   0.275   0.223 -0.4102 -0.3192  2.3626
   91MOL0     H12242   4.052   0.142   0.105  0.1706 -2.2237  0.5427
   91MOL0     H12243   4.193   0.185   0.380  1.2961  1.1388  0.3794
   91MOL0     H12244   4.264   0.234   0.215 -0.3601  1.7165  2.2995
   91MOL0     H12245   4.401  -0.173   0.197 -2.1284  0.8950  0.6733
   91MOL0     H12246   4.643  -0.198   0.196 -2.4432 -0.2148 -0.8320
   91MOL0     H12247   5.101  -0.233   0.386  0.0880  2.5603  1.2660
   91MOL0     H12248   5.332  -0.237   0.309  0.2543  1.3375  1.9855
   91MOL0     H12249   5.378  -0.323  -0.064  0.9141 -0.8214 -2.1739
   91MOL0     H12250   5.431  -0.164  -0.131 -1.4287 -0.1974  0.4537
   91MOL0     H12251   5.648  -0.206  -0.062 -2.3611  2.3946 -0.3364
   91MOL0     H12252   5.614  -0.361   0.016 -0.4445 -0.6834 -0.8475
   91MOL0     H12253   5.535  -0.320  -0.275  2.1184  0.0566 -0.5510
   91MOL0     H12254   5.709  -0.342  -0.226  0.8459 -1.1622 -1.5798
   91MOL0     H12255   5.512  -0.528  -0.104 -0.3816  0.0347 -0.6030
   91MOL0     H12256   5.677  -0.549  -0.164  2.0104  4.4774  0.2722
   91MOL0     H12257   5.508  -0.683  -0.300 -0.4901  0.5822  0.5286
   91MOL0     H12258   5.580  -0.563  -0.406  0.3774  2.0434  1.1852
   91MOL0     H12259   5.380  -0.415  -0.358  2.7515  0.8429  0.8207
   91MOL0     H12260   5.349  -0.577  -0.446 -0.3226  0.4924  0.5094
   91MOL0     H12261   5.293  -0.509  -0.153  2.0150 -1.8704  0.7063
   91MOL0     H12262   5.249  -0.660  -0.241 -0.8523  0.1143 -1.4722
   91MOL0     H12263   5.109  -0.495  -0.383  0.3951  1.5509 -0.0704
   91MOL0     H12264   5.061  -0.532  -0.217 -0.7505 -1.2855 -2.0541
   91MOL0     H12265   5.237  -0.043  -0.047 -0.9058  2.6971  1.4834
   91MOL0     H12266   4.998  -0.036   0.011 -0.0532 -1.1839 -0.8700
   91MOL0     H12267   4.695   0.212   0.316  0.5942 -1.1389  1.4844
   91MOL0     H12268   4.452   0.231   0.338  2.3192 -0.0434  1.4064
   91MOL0     H12269   2.455  -0.079   0.335  0.6892  3.3276  0.0941
   91MOL0     H12270   2.194  -0.058   0.323  0.7167  0.1005  0.7004
   91MOL0     H12271   1.862  -0.079  -0.093  0.8069 -0.5862  0.9203
   91MOL0     H12272   1.628  -0.112  -0.166  3.7719  0.9141 -0.8933
   91MOL0     H12273   1.444  -0.313  -0.161 -1.1079  0.3045 -3.4572
   91MOL0     H12274   1.384  -0.146  -0.200 -1.0403  0.9411  1.1152
   91MOL0     H12275   1.206  -0.352  -0.062 -1.3286 -0.9860 -1.1089
   91MOL0     H12276   1.203  -0.308  -0.229 -2.0930 -0.9165  1.7119
   91MOL0     H12277   1.027  -0.170  -0.103 -0.9068  2.7806  1.8434
   91MOL0     H12278   1.171  -0.068  -0.150 -1.0267  0.1837 -0.3865
   91MOL0     H12279   1.230  -0.117   0.098 -0.1379  1.2186 -0.9010
   91MOL0     H12280   1.096  -0.017   0.070 -0.8611 -0.6315  1.5394
   91MOL0     H12281   0.923  -0.365   0.238  0.7844 -0.4150  1.6087
   91MOL0     H12282   1.512  -0.198   0.229  0.3591  1.4825  2.0986
   91MOL0     H12283   1.646  -0.159   0.409  0.0688  1.5799  1.7860
   91MOL0     H12284   1.822  -0.151   0.391  0.6590  0.3175 -0.2081
   91MOL0     H12285   1.724  -0.002   0.389  1.1400 -0.7929  3.0006
   92MOL0     O12286   8.031   3.101   4.617  0.0857  0.4147  0.2396
   92MOL0     C12287   7.952   3.009   4.582 -0.6334  1.0331 -0.1642
   92MOL0     O12288   7.996   2.889   4.534  0.6671  0.1332  0.8330
   92MOL0     C12289   8.133   2.873   4.512 -1.6287  0.3661 -0.9668
   92MOL0     C12290   8.173   2.907   4.381  0.2379  0.2305 -0.3334
   92MOL0     C12291   8.307   2.897   4.345  0.7168 -1.8095 -0.4914
   92MOL0     C12292   8.403   2.880   4.444  0.2968  0.4814  0.1426
   92MOL0     O12293   8.533   2.878   4.412 -0.4031  0.1005 -0.3899
   92MOL0     C12294   8.634   2.862   4.507 -0.3669 -0.4351  0.2444
   92MOL0     C12295   8.769   2.878   4.432  0.6340  0.2872 -0.6893
   92MOL0     C12296   8.870   2.960   4.513 -0.3725 -0.9720 -0.3262
   92MOL0     C12297   8.908   2.912   4.651 -0.5650  0.8795 -0.0706
   92MOL0     C12298   9.018   2.989   4.727 -0.3303  0.2544 -0.3686
   92MOL0     C12299   9.085   2.922   4.851  0.5671 -0.4069 -0.4860
   92MOL0     C12300   9.184   3.014   4.914 -0.2312 -0.3439 -0.2205
   92MOL0     C12301   9.328   2.969   4.880 -0.4643 -0.5608  0.3122
   92MOL0     N12302   9.413   3.071   4.940 -0.2438  0.4415  0.4994
   92MOL0     C12303   9.499   3.167   4.888  0.5626  0.4494 -0.1334
   92MOL0     C12304   9.575   3.204   4.995  0.9057 -0.6812  0.5180
   92MOL0     C12305   9.693   3.294   5.003  1.3227 -0.3836  0.2325
   92MOL0     C12306   9.812   3.220   5.067 -0.5032  0.1193  1.1184
   92MOL0     C12307   9.946   3.271   5.006  0.0139  0.3660  0.4673
   92MOL0     C12308  10.069   3.208   5.082  0.0680  0.5990  0.0690
   92MOL0     O12309  10.182   3.287   5.067  0.1078 -0.1571  0.0553
   92MOL0     C12310  10.291   3.278   5.155  0.3713  0.8591  0.4696
   92MOL0     C12311  10.306   3.180   5.258  0.4645  0.4464 -0.2706
   92MOL0     C12312  10.426   3.189   5.332  0.3765 -0.0041 -0.3635
   92MOL0     C12313  10.524   3.284   5.314 -0.4943  0.0858  0.0317
   92MOL0     C12314  10.659   3.277   5.373  0.5067  0.3505  0.8168
   92MOL0     O12315  10.679   3.171   5.454  0.0850  0.4568 -0.3821
   92MOL0     C12316  10.811   3.147   5.494  0.5271 -0.2164  0.2358
   92MOL0     C12317  10.869   3.201   5.615 -0.0171 -0.2390 -0.5240
   92MOL0     C12318  10.999   3.166   5.655 -0.6541 -0.7786 -0.5779
   92MOL0     C12319  11.079   3.080   5.574  0.3488  0.2047  0.4485
   92MOL0     O12320  11.211   3.059   5.615 -0.0597  0.2932  0.0505
   92MOL0     C12321  11.309   3.021   5.514 -0.8341 -0.0600  0.3994
   92MOL0     C12322  11.448   2.997   5.581  0.0758  0.5993 -0.6706
   92MOL0     C12323  11.574   2.975   5.498 -0.2072 -0.2562  0.4180
   92MOL0     C12324  11.627   3.101   5.420 -0.0470 -0.3902 -0.4968
   92MOL0     C12325  11.723   3.058   5.302 -0.1329  0.1471  0.6650
   92MOL0     C12326  11.654   2.979   5.195 -0.6377 -0.0001  0.1759
   92MOL0     C12327  11.742   2.972   5.067  0.2970  0.5190  0.5641
   92MOL0     C12328  11.864   2.879   5.074 -0.5325 -0.5247  0.0310
   92MOL0    Cl12329  11.999   2.983   5.129 -0.2952  0.1800  0.2496
   92MOL0     C12330  11.024   3.041   5.448  0.3435  0.0017 -0.5208
   92MOL0     C12331  10.891   3.072   5.410 -0.2174 -0.9168  0.3965
   92MOL0     O12332  10.743   3.365   5.350  0.3820 -0.4390 -0.5786
   92MOL0     C12333  10.493   3.375   5.214 -0.4560 -0.6792 -0.1451
   92MOL0     C12334  10.382   3.379   5.132  0.1187  0.0734 -0.0280
   92MOL0     N12335   9.523   3.145   5.106  0.9436 -0.0573 -0.4115
   92MOL0     N12336   9.428   3.071   5.073  0.5400  0.2462  0.7020
   92MOL0     C12337   8.362   2.848   4.574 -0.0638 -0.8170 -0.0787
   92MOL0     C12338   8.233   2.841   4.608  0.1667  1.0393  0.4340
   92MOL0     C12339   7.808   3.033   4.576 -0.2946  0.3462  0.3397
   92MOL0     C12340   7.722   2.942   4.634  0.2757 -0.6873 -0.1355
   92MOL0     C12341   7.583   2.969   4.645 -0.7138 -1.1806  0.0236
   92MOL0     C12342   7.527   3.092   4.600  0.4228  0.5567 -0.4977
   92MOL0     O12343   7.396   3.105   4.626 -0.1067 -0.0069  0.2080
   92MOL0     C12344   7.365   3.236   4.665 -0.5113 -0.4240  0.0468
   92MOL0     C12345   7.219   3.240   4.717 -0.7357  0.4616 -0.4814
   92MOL0     C12346   7.191   3.373   4.786  0.3244 -0.0403 -0.0330
   92MOL0     C12347   7.041   3.375   4.841 -0.2573  0.2579  0.8410
   92MOL0     C12348   6.940   3.414   4.744  0.1806  0.0228 -0.7812
   92MOL0     C12349   6.869   3.460   4.657  0.9469 -0.0840 -0.5559
   92MOL0     C12350   7.618   3.184   4.552  0.2965 -0.3723 -0.5124
   92MOL0     C12351   7.754   3.160   4.528  0.8875 -0.8066 -0.2230
   92MOL0     C12352   7.836   3.258   4.451 -0.5620 -0.1242 -0.0476
   92MOL0     H12353   8.098   2.926   4.306 -0.0269 -2.9697 -1.0314
   92MOL0     H12354   8.341   2.929   4.247  0.6758  2.2670  0.6243
   92MOL0     H12355   8.625   2.936   4.587 -1.2105  0.5315 -0.7105
   92MOL0     H12356   8.638   2.764   4.555 -0.1869  0.1393  1.4286
   92MOL0     H12357   8.755   2.915   4.330 -0.1229 -0.7818 -0.9853
   92MOL0     H12358   8.788   2.772   4.418 -3.4244 -0.4345 -1.9563
   92MOL0     H12359   8.837   3.064   4.520  1.9021 -0.1808 -0.7062
   92MOL0     H12360   8.960   2.961   4.451 -1.3000  1.1853 -1.7351
   92MOL0     H12361   8.816   2.903   4.710 -2.1128 -3.2343 -2.6451
   92MOL0     H12362   8.948   2.810   4.644  0.4553  1.2335  0.3314
   92MOL0     H12363   9.094   3.011   4.652 -0.4596 -0.9334 -0.8637
   92MOL0     H12364   8.977   3.083   4.765  1.1705  0.6481  0.3500
   92MOL0     H12365   9.011   2.895   4.926  2.6179 -0.8724  1.4779
   92MOL0     H12366   9.134   2.825   4.835  0.8135 -0.2493 -0.7146
   92MOL0     H12367   9.178   3.006   5.023  0.2329  0.7681 -0.1018
   92MOL0     H12368   9.166   3.120   4.897 -0.9910 -0.3867  0.2347
   92MOL0     H12369   9.354   2.868   4.913  1.5951 -0.3109 -0.4260
   92MOL0     H12370   9.345   2.970   4.772 -1.5905 -2.1468  0.0767
   92MOL0     H12371   9.512   3.191   4.783 -0.8945 -3.1963 -1.3125
   92MOL0     H12372   9.707   3.335   4.903 -2.6814  0.1800 -0.2253
   92MOL0     H12373   9.672   3.373   5.076  2.1932 -2.3817  2.8184
   92MOL0     H12374   9.812   3.232   5.175  0.2657  1.0857  1.0185
   92MOL0     H12375   9.801   3.113   5.043 -4.4028  0.5978 -0.0648
   92MOL0     H12376   9.956   3.377   5.032  4.5898 -0.6520  4.3310
   92MOL0     H12377   9.949   3.265   4.897 -1.6413 -0.9549  0.4601
   92MOL0     H12378  10.085   3.103   5.059  0.5050  0.0171  2.7041
   92MOL0     H12379  10.046   3.214   5.189 -0.3379  2.5481 -0.0787
   92MOL0     H12380  10.244   3.095   5.286  0.3962  1.1697  1.9601
   92MOL0     H12381  10.443   3.113   5.408  2.3766  1.6505  0.9736
   92MOL0     H12382  10.812   3.265   5.682  0.4269 -0.4316  0.0451
   92MOL0     H12383  11.040   3.208   5.746 -2.9189  1.1290 -0.3199
   92MOL0     H12384  11.263   2.930   5.475 -1.8190  0.6640 -0.1898
   92MOL0     H12385  11.318   3.094   5.433  0.4367 -1.2025 -0.5211
   92MOL0     H12386  11.482   3.087   5.632  0.5386 -0.0270  0.1613
   92MOL0     H12387  11.428   2.917   5.654 -2.1562  0.4118 -1.3971
   92MOL0     H12388  11.648   2.929   5.564 -0.9456 -1.8956  0.1601
   92MOL0     H12389  11.552   2.893   5.429  0.6523 -2.7677  2.9209
   92MOL0     H12390  11.675   3.172   5.488 -0.4595 -0.6783  0.1067
   92MOL0     H12391  11.538   3.152   5.382 -2.0374 -2.3556  1.2309
   92MOL0     H12392  11.812   3.007   5.340  0.2574 -1.6226 -2.3071
   92MOL0     H12393  11.752   3.154   5.258 -0.5904 -0.6433 -1.4776
   92MOL0     H12394  11.630   2.880   5.234  2.5100 -0.8048  0.3921
   92MOL0     H12395  11.565   3.038   5.172 -1.3257 -1.3267 -0.6923
   92MOL0     H12396  11.772   3.071   5.030 -1.0866  0.8615  0.2740
   92MOL0     H12397  11.673   2.931   4.993 -1.7867 -0.2976  2.8102
   92MOL0     H12398  11.851   2.796   5.144  0.8372 -1.4217 -0.7257
   92MOL0     H12399  11.888   2.839   4.975  2.0063 -1.4617  0.9551
   92MOL0     H12400  11.081   2.991   5.370 -0.2985 -0.9165 -0.4232
   92MOL0     H12401  10.850   3.047   5.313  0.9507  2.1150 -1.0180
   92MOL0     H12402  10.554   3.464   5.200 -0.6969 -0.3560  0.7876
   92MOL0     H12403  10.374   3.458   5.059  1.2688  0.2228 -0.0110
   92MOL0     H12404   8.442   2.844   4.648 -0.3204  1.7232  0.4114
   92MOL0     H12405   8.203   2.808   4.707 -0.5197 -1.9081 -0.6652
   92MOL0     H12406   7.763   2.848   4.669 -0.7343 -0.9599  0.3459
   92MOL0     H12407   7.517   2.894   4.686 -0.4565 -0.7716  1.2145
   92MOL0     H12408   7.373   3.307   4.582 -1.1152  0.9218  1.0945
   92MOL0     H12409   7.443   3.265   4.736  1.1739  1.1968 -2.3017
   92MOL0     H12410   7.203   3.151   4.779  4.6798  0.0485  0.7632
   92MOL0     H12411   7.147   3.247   4.635 -2.4733  0.4977  0.9809
   92MOL0     H12412   7.214   3.458   4.721 -0.6181 -0.2500 -0.6644
   92MOL0     H12413   7.257   3.383   4.872  0.4685 -1.7586  0.0878
   92MOL0     H12414   7.003   3.277   4.871  2.4516 -1.0290  0.3807
   92MOL0     H12415   7.039   3.438   4.930 -3.2984 -1.1518  1.9017
   92MOL0     H12416   6.802   3.503   4.586 -2.4425 -3.0210  0.5309
   92MOL0     H12417   7.574   3.279   4.524  0.6112  0.0881  0.5132
   92MOL0     H12418   7.921   3.294   4.509  0.3685  2.2558 -2.6855
   92MOL0     H12419   7.883   3.201   4.370  1.4003 -0.9982  1.6250
   92MOL0     H12420   7.786   3.349   4.417  0.8459  0.6900  0.0275
   93MOL0     O12421  11.088   5.954   3.357  0.8296 -0.1770 -0.0671
   93MOL0     C12422  11.019   5.916   3.449  1.3283 -0.2109  0.3800
   93MOL0     O12423  11.070   5.870   3.569  0.2928 -1.0534 -0.2936
   93MOL0     C12424  11.203   5.890   3.600 -0.3726 -0.8422  0.0085
   93MOL0     C12425  11.259   6.017   3.640  0.3248  0.2220  0.8893
   93MOL0     C12426  11.393   6.033   3.685  0.3489  1.0204 -0.2572
   93MOL0     C12427  11.484   5.914   3.689  0.3088  0.3312  0.2600
   93MOL0     O12428  11.615   5.913   3.731  0.5609 -1.2091 -0.3287
   93MOL0     C12429  11.676   6.050   3.753 -0.1526  0.2009  0.0936
   93MOL0     C12430  11.824   6.027   3.774  0.5030  0.1963 -0.0345
   93MOL0     C12431  11.901   6.158   3.800 -0.3125 -0.4295  1.0332
   93MOL0     C12432  12.041   6.117   3.858 -0.1676 -0.2321  0.1843
   93MOL0     C12433  12.129   6.241   3.878  0.2354  0.1752 -0.5272
   93MOL0     C12434  12.250   6.200   3.962  0.4388  0.7230  0.3226
   93MOL0     C12435  12.363   6.304   3.970  0.3786 -0.4704  0.4417
   93MOL0     C12436  12.477   6.237   4.041  0.1178 -0.3008 -0.0234
   93MOL0     N12437  12.589   6.329   4.039  0.4035  0.1727  0.4003
   93MOL0     C12438  12.656   6.376   3.925  0.1390 -0.5339  0.0282
   93MOL0     C12439  12.727   6.487   3.965  0.5961 -0.0211 -0.5771
   93MOL0     C12440  12.806   6.568   3.865  0.3858 -0.0436  0.3347
   93MOL0     C12441  12.952   6.529   3.870 -0.1095 -0.9247 -0.0498
   93MOL0     C12442  13.028   6.631   3.783  0.2747  0.3257 -0.3852
   93MOL0     C12443  13.172   6.615   3.766  0.1133  0.9072 -0.7660
   93MOL0     O12444  13.239   6.699   3.670 -0.0002  0.1472 -0.2390
   93MOL0     C12445  13.378   6.694   3.670 -0.2930  0.4085  0.4558
   93MOL0     C12446  13.456   6.621   3.757  0.3063 -0.6275  0.2216
   93MOL0     C12447  13.594   6.626   3.734 -0.3189  0.2845  0.0907
   93MOL0     C12448  13.655   6.678   3.627 -0.0866 -0.2952 -0.2040
   93MOL0     C12449  13.800   6.662   3.598  0.6841  0.5681 -0.1653
   93MOL0     O12450  13.859   6.755   3.522 -0.3494  0.1650 -0.6161
   93MOL0     C12451  13.985   6.728   3.472 -0.4831  0.2645  0.2779
   93MOL0     C12452  14.019   6.748   3.337 -0.5279  0.6447 -0.2430
   93MOL0     C12453  14.142   6.765   3.291 -0.3717  0.2066 -0.6583
   93MOL0     C12454  14.247   6.748   3.375 -0.8267  0.2179 -0.6146
   93MOL0     O12455  14.376   6.748   3.321 -0.9786 -0.5338 -0.7991
   93MOL0     C12456  14.430   6.881   3.307 -0.0163  0.7368 -0.4618
   93MOL0     C12457  14.568   6.888   3.239  0.2093 -0.4697 -0.9104
   93MOL0     C12458  14.658   6.964   3.337 -0.0214  0.4219 -0.2418
   93MOL0     C12459  14.796   6.983   3.276  0.3980 -0.0143  0.7224
   93MOL0     C12460  14.883   7.092   3.359  0.1219 -0.5479  0.0804
   93MOL0     C12461  15.013   7.125   3.289 -0.2111 -0.3751 -0.3134
   93MOL0     C12462  15.093   7.010   3.222 -0.2974 -0.2439  0.1223
   93MOL0     C12463  15.206   7.083   3.135  0.1161 -0.6926 -0.0800
   93MOL0    Cl12464  15.326   7.159   3.250  0.2344  0.4095  0.3261
   93MOL0     C12465  14.226   6.721   3.509 -0.1654 -0.6462 -0.8080
   93MOL0     C12466  14.100   6.711   3.563 -0.0943 -0.2184  1.3113
   93MOL0     O12467  13.861   6.568   3.649  0.0414 -0.2364 -0.1392
   93MOL0     C12468  13.574   6.749   3.546  0.0264 -1.1233  0.5090
   93MOL0     C12469  13.436   6.766   3.568 -0.1055 -0.3844  1.0290
   93MOL0     N12470  12.731   6.488   4.102  0.2291  0.9354  0.3968
   93MOL0     N12471  12.642   6.396   4.143 -0.2601  0.7957 -0.3912
   93MOL0     C12472  11.425   5.789   3.644  0.8851 -0.2532 -0.2330
   93MOL0     C12473  11.290   5.777   3.601  0.3756 -0.4693 -0.2702
   93MOL0     C12474  10.863   5.906   3.431 -0.5607 -0.0423  0.3507
   93MOL0     C12475  10.790   5.842   3.532  0.2441  0.0183  0.5484
   93MOL0     C12476  10.658   5.810   3.506  0.3683 -0.3805  0.2512
   93MOL0     C12477  10.588   5.860   3.399  1.0645  0.0508  0.4276
   93MOL0     O12478  10.454   5.837   3.383 -0.0277 -0.5408  0.3280
   93MOL0     C12479  10.354   5.928   3.339 -0.0316  0.5106 -0.2600
   93MOL0     C12480  10.322   5.915   3.192  0.2985 -0.4349  0.9586
   93MOL0     C12481  10.222   5.804   3.170 -0.1089 -0.6966 -0.5759
   93MOL0     C12482  10.217   5.757   3.023  0.5114  0.4136 -0.0914
   93MOL0     C12483  10.110   5.664   2.993  0.8574 -0.4937  0.2852
   93MOL0     C12484  10.013   5.590   2.978  0.4448  0.0208 -0.1985
   93MOL0     C12485  10.657   5.933   3.308 -0.0296  0.7961  0.1580
   93MOL0     C12486  10.793   5.943   3.315 -0.1003  0.1206 -0.3407
   93MOL0     C12487  10.859   6.023   3.201  0.0760  0.2938  0.2068
   93MOL0     H12488  11.187   6.098   3.629 -1.2697 -1.4303 -2.2357
   93MOL0     H12489  11.414   6.135   3.716  1.5452 -0.3925  4.3440
   93MOL0     H12490  11.655   6.108   3.663  1.1555 -0.1624 -0.4748
   93MOL0     H12491  11.630   6.097   3.840 -2.0116  0.9673 -1.2563
   93MOL0     H12492  11.857   5.987   3.679 -1.1305 -0.2218 -0.4636
   93MOL0     H12493  11.849   5.946   3.844 -0.4458 -0.8019 -0.8240
   93MOL0     H12494  11.858   6.224   3.876  0.7151 -0.6111  1.7896
   93MOL0     H12495  11.911   6.213   3.706 -0.7171  1.5820  2.0972
   93MOL0     H12496  12.031   6.075   3.959  1.0016 -1.6053 -0.2197
   93MOL0     H12497  12.091   6.047   3.790 -0.2755  0.6044 -0.7720
   93MOL0     H12498  12.157   6.279   3.779  0.8125 -0.4968 -0.6298
   93MOL0     H12499  12.071   6.317   3.931 -0.8300 -2.8264  3.0585
   93MOL0     H12500  12.206   6.170   4.058 -2.9809 -1.5451 -1.7225
   93MOL0     H12501  12.296   6.109   3.924 -0.1607  0.2422  0.7209
   93MOL0     H12502  12.324   6.392   4.021  1.6770 -0.2691  1.1188
   93MOL0     H12503  12.393   6.348   3.875 -0.5268  0.0871  0.3976
   93MOL0     H12504  12.459   6.213   4.146 -1.7203  0.4011 -0.1455
   93MOL0     H12505  12.508   6.153   3.978 -1.2414  1.6648 -3.5941
   93MOL0     H12506  12.639   6.342   3.823  0.4971  0.4021 -0.3513
   93MOL0     H12507  12.758   6.549   3.769  1.4820  0.1071 -0.2601
   93MOL0     H12508  12.799   6.671   3.900  1.7856  0.6592 -1.3163
   93MOL0     H12509  12.989   6.527   3.973  2.0335 -0.6192 -0.7577
   93MOL0     H12510  12.966   6.435   3.817  0.2803 -0.4478 -0.7993
   93MOL0     H12511  13.020   6.731   3.826 -0.8540  0.7360 -1.5087
   93MOL0     H12512  12.982   6.620   3.685  0.3987 -2.8565 -0.1902
   93MOL0     H12513  13.194   6.509   3.747  1.0959  1.0974 -0.7235
   93MOL0     H12514  13.227   6.639   3.857  1.4918  1.0632 -1.6118
   93MOL0     H12515  13.422   6.557   3.838  2.1379 -0.6767  1.0002
   93MOL0     H12516  13.651   6.554   3.792 -1.4560 -0.4865  0.2856
   93MOL0     H12517  13.939   6.762   3.264 -0.7755  2.1107  0.2705
   93MOL0     H12518  14.159   6.783   3.186 -0.1318 -0.3596 -0.7167
   93MOL0     H12519  14.362   6.931   3.237 -0.3324 -0.3664 -0.9761
   93MOL0     H12520  14.431   6.930   3.404  0.0010  4.1668 -2.0537
   93MOL0     H12521  14.618   6.792   3.240  0.2400 -0.5988  3.3538
   93MOL0     H12522  14.573   6.930   3.138  1.3801 -0.4432 -0.8537
   93MOL0     H12523  14.613   7.063   3.349  0.2417  0.6054 -0.7428
   93MOL0     H12524  14.659   6.908   3.431 -0.2357  0.9194  0.0599
   93MOL0     H12525  14.781   7.010   3.171 -2.9303  0.3256  1.1577
   93MOL0     H12526  14.856   6.892   3.279 -0.6323 -0.7005  1.5972
   93MOL0     H12527  14.900   7.053   3.460  0.6850 -0.8366 -0.1216
   93MOL0     H12528  14.822   7.182   3.375  1.1348  0.1618  0.0302
   93MOL0     H12529  14.984   7.189   3.204  3.3538 -0.3914 -1.7276
   93MOL0     H12530  15.071   7.191   3.354  1.3979 -0.7065 -1.3585
   93MOL0     H12531  15.030   6.948   3.157 -1.1323  0.2061  0.4859
   93MOL0     H12532  15.131   6.944   3.301 -0.3030  0.9549  1.1589
   93MOL0     H12533  15.258   7.009   3.073  0.7931  1.0658 -1.6818
   93MOL0     H12534  15.166   7.151   3.060  0.7506  1.2026  1.2258
   93MOL0     H12535  14.313   6.712   3.573 -0.8936 -1.5125  0.0920
   93MOL0     H12536  14.080   6.711   3.670 -0.5219  3.8460  1.4011
   93MOL0     H12537  13.595   6.798   3.451  3.5755 -0.1613  1.6481
   93MOL0     H12538  13.370   6.823   3.504  0.8230 -0.5974 -0.1533
   93MOL0     H12539  11.481   5.697   3.632 -1.0197 -1.6879  1.2717
   93MOL0     H12540  11.252   5.687   3.553  0.9770 -1.4849  1.1009
   93MOL0     H12541  10.827   5.809   3.628 -1.6010  2.1771  2.1049
   93MOL0     H12542  10.610   5.740   3.574 -1.5089 -2.1260 -2.6484
   93MOL0     H12543  10.392   6.031   3.344  0.6270  0.2805 -0.4490
   93MOL0     H12544  10.263   5.916   3.399 -0.4817  0.0761 -1.0189
   93MOL0     H12545  10.413   5.885   3.139 -1.7454 -2.8146 -1.5290
   93MOL0     H12546  10.293   6.012   3.151  0.3835 -0.2363  1.3635
   93MOL0     H12547  10.121   5.827   3.203  0.2793 -0.9359  0.8255
   93MOL0     H12548  10.246   5.721   3.237 -1.4443  0.5324  1.5263
   93MOL0     H12549  10.223   5.842   2.955  0.1875  0.5380  0.0350
   93MOL0     H12550  10.310   5.702   3.002 -0.5503 -0.9276 -1.5979
   93MOL0     H12551   9.946   5.509   2.959 -0.1889  0.1306  1.3655
   93MOL0     H12552  10.603   5.968   3.220 -0.2082  0.7106  0.2347
   93MOL0     H12553  10.931   5.965   3.143 -0.7493 -2.2339  1.5529
   93MOL0     H12554  10.782   6.069   3.138 -0.7185 -1.1557  0.0592
   93MOL0     H12555  10.916   6.108   3.239 -0.5271  0.9419 -0.3225
   94MOL0     O12556   9.887   2.015   2.840  0.0305  0.7015 -0.0186
   94MOL0     C12557   9.771   1.970   2.842 -0.1340  0.4100  0.4069
   94MOL0     O12558   9.710   1.900   2.943 -0.0157  0.0490 -0.4100
   94MOL0     C12559   9.790   1.872   3.049 -0.0642  0.1666 -0.2810
   94MOL0     C12560   9.868   1.759   3.050  0.2665  0.2275 -0.2873
   94MOL0     C12561   9.968   1.742   3.143 -0.0011 -0.8635  0.1864
   94MOL0     C12562   9.985   1.831   3.252 -0.5062 -0.5181  0.0587
   94MOL0     O12563  10.071   1.814   3.359  0.1118  0.5408 -0.6196
   94MOL0     C12564  10.213   1.807   3.318 -0.3792  0.1226 -0.2306
   94MOL0     C12565  10.274   1.931   3.249  0.5129 -0.0561 -0.1023
   94MOL0     C12566  10.279   2.046   3.351 -0.7709  0.1964  0.1224
   94MOL0     C12567  10.270   2.186   3.294  0.3083 -0.6645  0.5539
   94MOL0     C12568  10.326   2.294   3.397 -0.3122  0.1223  0.1501
   94MOL0     C12569  10.454   2.365   3.336  0.3607 -0.1731 -0.6227
   94MOL0     C12570  10.575   2.277   3.319  0.4177  0.1646 -1.0864
   94MOL0     C12571  10.641   2.300   3.181 -0.7605  0.0447 -0.0200
   94MOL0     N12572  10.736   2.405   3.184 -0.2516  0.1312  0.0037
   94MOL0     C12573  10.724   2.535   3.222 -0.0734  0.0710  1.0977
   94MOL0     C12574  10.848   2.591   3.212  0.0151 -0.1075  0.1547
   94MOL0     C12575  10.887   2.726   3.249 -0.0636  0.2527  0.6057
   94MOL0     C12576  10.848   2.831   3.138 -0.0183 -0.3140  0.7679
   94MOL0     C12577  10.732   2.922   3.171 -0.0076  1.0350 -0.3489
   94MOL0     C12578  10.745   3.014   3.281 -0.6409  0.0288 -0.3804
   94MOL0     O12579  10.858   3.102   3.257  0.1775 -0.3941 -0.5778
   94MOL0     C12580  10.908   3.175   3.362 -0.0050 -0.2574 -0.5099
   94MOL0     C12581  10.849   3.176   3.487  0.2487 -0.4231 -1.0741
   94MOL0     C12582  10.908   3.251   3.595  0.3674 -0.3600 -0.0276
   94MOL0     C12583  11.029   3.323   3.569  0.9060 -0.5832  0.0582
   94MOL0     C12584  11.081   3.404   3.673 -0.0251  0.2308 -0.3535
   94MOL0     O12585  11.204   3.451   3.647 -0.1084 -1.6448  0.3357
   94MOL0     C12586  11.298   3.458   3.738 -0.4280  0.3224  0.2317
   94MOL0     C12587  11.426   3.443   3.676 -0.4936 -0.0840  0.1330
   94MOL0     C12588  11.540   3.476   3.756 -0.1073 -0.3367  0.2527
   94MOL0     C12589  11.535   3.504   3.890 -0.1215  0.2460 -0.1153
   94MOL0     O12590  11.647   3.525   3.972  0.3679  0.1489  0.1421
   94MOL0     C12591  11.741   3.615   3.925 -0.6979 -0.5618  0.6252
   94MOL0     C12592  11.839   3.640   4.038  0.4322 -0.3298 -0.2018
   94MOL0     C12593  11.935   3.523   4.060 -0.1467 -0.1024 -0.3325
   94MOL0     C12594  12.010   3.538   4.185  0.2862 -0.5251  0.6117
   94MOL0     C12595  12.143   3.448   4.188  1.3240 -0.1588 -0.7153
   94MOL0     C12596  12.247   3.487   4.294 -0.2889  1.0026 -0.1981
   94MOL0     C12597  12.204   3.528   4.435 -1.0619  0.3327 -0.0876
   94MOL0     C12598  12.264   3.657   4.479  0.1006 -0.8658  0.4913
   94MOL0    Cl12599  12.440   3.657   4.489  0.4275 -0.4589 -0.3899
   94MOL0     C12600  11.408   3.504   3.947  0.9675  0.1624 -0.4274
   94MOL0     C12601  11.295   3.484   3.872 -0.4387  0.2016  0.3877
   94MOL0     O12602  11.022   3.409   3.779  0.2738 -0.6471 -0.0291
   94MOL0     C12603  11.086   3.320   3.439 -0.3749 -0.0124 -0.7080
   94MOL0     C12604  11.022   3.249   3.334  0.3227  0.1734 -0.1466
   94MOL0     N12605  10.933   2.496   3.157  0.1854  0.7657  0.5396
   94MOL0     N12606  10.866   2.385   3.144  0.1226 -0.0029  0.3744
   94MOL0     C12607   9.894   1.938   3.260  0.3558 -0.2731  0.1105
   94MOL0     C12608   9.795   1.949   3.166 -0.9527 -0.4871 -0.1754
   94MOL0     C12609   9.675   2.000   2.729  0.6443  0.1869  0.1423
   94MOL0     C12610   9.541   1.948   2.735  0.5774 -0.5023 -0.3248
   94MOL0     C12611   9.436   1.975   2.650 -0.5606 -0.0857  0.4779
   94MOL0     C12612   9.466   2.061   2.543  0.0388 -0.4017 -0.2646
   94MOL0     O12613   9.359   2.081   2.461  0.6407 -0.3595  0.0068
   94MOL0     C12614   9.369   2.138   2.329  0.2266 -0.1006 -0.4923
   94MOL0     C12615   9.236   2.117   2.244  0.0386  0.5893 -0.9631
   94MOL0     C12616   9.173   1.971   2.274 -0.2315  0.8036 -0.1650
   94MOL0     C12617   9.057   1.965   2.171 -0.3826  0.8742  0.1890
   94MOL0     C12618   9.027   1.823   2.146  0.1283 -0.7436 -1.1942
   94MOL0     C12619   8.997   1.710   2.130  0.0519  1.0523 -0.2942
   94MOL0     C12620   9.602   2.110   2.526  0.1937  0.3758 -0.2046
   94MOL0     C12621   9.709   2.077   2.611  0.0978  0.7548 -0.7617
   94MOL0     C12622   9.843   2.127   2.576  0.4465  0.9544  0.2434
   94MOL0     H12623   9.854   1.687   2.970  2.0807  0.1500 -0.5925
   94MOL0     H12624  10.031   1.654   3.150  0.4742 -0.3996  3.8557
   94MOL0     H12625  10.272   1.787   3.408 -0.0409 -1.8423 -0.8552
   94MOL0     H12626  10.232   1.727   3.247 -0.0404 -0.0185  0.0155
   94MOL0     H12627  10.222   1.952   3.155  1.5256 -0.3800 -0.7620
   94MOL0     H12628  10.377   1.914   3.216  0.7412  2.2613 -0.7306
   94MOL0     H12629  10.378   2.044   3.398  0.2211  1.4486 -1.8169
   94MOL0     H12630  10.192   2.034   3.417 -0.7065  0.5834  0.2758
   94MOL0     H12631  10.331   2.175   3.204 -1.1656 -0.5104 -0.4994
   94MOL0     H12632  10.171   2.220   3.261  0.4706  1.6237  2.2244
   94MOL0     H12633  10.237   2.357   3.411 -0.9039 -0.3442 -1.2879
   94MOL0     H12634  10.338   2.250   3.496  0.3833  0.9248  0.4352
   94MOL0     H12635  10.419   2.412   3.243  1.1647  2.1146  0.1592
   94MOL0     H12636  10.480   2.449   3.401 -0.9948 -1.1205  1.2029
   94MOL0     H12637  10.548   2.171   3.323 -1.5396  0.6550  0.2320
   94MOL0     H12638  10.652   2.295   3.395 -0.7480  0.3239  0.0864
   94MOL0     H12639  10.684   2.207   3.143 -0.8742 -0.4317  0.9838
   94MOL0     H12640  10.562   2.324   3.110 -0.3723 -0.9471 -0.8019
   94MOL0     H12641  10.638   2.576   3.274 -0.7228  2.1313 -1.3944
   94MOL0     H12642  10.845   2.746   3.347  0.6849  0.1955  0.9468
   94MOL0     H12643  10.996   2.731   3.257  0.5578 -2.8012 -2.7869
   94MOL0     H12644  10.931   2.888   3.097 -2.5315  3.0830 -0.0780
   94MOL0     H12645  10.822   2.777   3.047  0.8792  2.5626 -1.3372
   94MOL0     H12646  10.653   2.850   3.195  1.8145 -0.6232  1.0088
   94MOL0     H12647  10.689   2.983   3.091  2.3081  1.5186 -1.3054
   94MOL0     H12648  10.766   2.949   3.366 -0.2856  0.4047 -0.1767
   94MOL0     H12649  10.646   3.056   3.304 -1.1650 -0.3132 -1.9132
   94MOL0     H12650  10.762   3.122   3.521 -0.6006 -0.8322 -3.6531
   94MOL0     H12651  10.863   3.252   3.693  0.6732  2.0139  0.1586
   94MOL0     H12652  11.446   3.429   3.571 -1.1253  3.6007 -0.6353
   94MOL0     H12653  11.631   3.475   3.697 -1.2426  1.1510 -1.6203
   94MOL0     H12654  11.795   3.573   3.840  0.8965  3.3875 -0.5310
   94MOL0     H12655  11.693   3.710   3.902  0.8906  0.5158  1.6472
   94MOL0     H12656  11.894   3.730   4.011 -2.3532  1.7853  0.6084
   94MOL0     H12657  11.793   3.657   4.136  2.1270  0.8095  0.4450
   94MOL0     H12658  11.884   3.426   4.052  0.4735 -0.3122 -2.0744
   94MOL0     H12659  12.009   3.525   3.980  0.3706  2.5493  0.1331
   94MOL0     H12660  11.956   3.506   4.275  1.3035 -0.0843  1.3986
   94MOL0     H12661  12.042   3.642   4.184 -0.8796 -0.1290 -1.4834
   94MOL0     H12662  12.188   3.449   4.088  0.4832 -0.0701 -1.0922
   94MOL0     H12663  12.106   3.345   4.192  1.7693 -0.2968  2.3474
   94MOL0     H12664  12.303   3.393   4.300 -0.8421  0.6486 -0.5064
   94MOL0     H12665  12.313   3.564   4.251  2.9536 -1.5489 -0.1982
   94MOL0     H12666  12.241   3.447   4.499 -0.2289 -0.6579 -1.7357
   94MOL0     H12667  12.097   3.513   4.447 -0.8961  0.0231  1.1122
   94MOL0     H12668  12.230   3.734   4.409 -1.9577 -1.6895  0.5212
   94MOL0     H12669  12.235   3.676   4.583 -1.7679 -2.3406  0.2824
   94MOL0     H12670  11.382   3.531   4.049 -0.6976  4.6226 -1.8071
   94MOL0     H12671  11.195   3.489   3.916  0.5538  2.0667  2.6046
   94MOL0     H12672  11.177   3.372   3.413 -0.8623  0.7714 -0.8834
   94MOL0     H12673  11.057   3.247   3.231 -0.7975  0.3914 -0.5443
   94MOL0     H12674   9.888   2.009   3.342 -1.1404 -0.0095 -0.2042
   94MOL0     H12675   9.725   2.032   3.161 -3.2264 -2.0793  2.3925
   94MOL0     H12676   9.520   1.873   2.811 -2.9256 -0.1179 -0.7572
   94MOL0     H12677   9.338   1.930   2.663  0.7721 -3.7330 -0.8526
   94MOL0     H12678   9.453   2.097   2.272  0.8480  0.9784 -0.3799
   94MOL0     H12679   9.389   2.246   2.333 -0.5614  0.1026 -1.5794
   94MOL0     H12680   9.260   2.129   2.138  0.1195  0.6044 -0.9436
   94MOL0     H12681   9.167   2.198   2.269  0.6380  0.2691  2.1722
   94MOL0     H12682   9.115   1.971   2.366  0.1022 -0.4969  0.0712
   94MOL0     H12683   9.237   1.884   2.256 -1.2709  0.2525 -1.2500
   94MOL0     H12684   8.965   2.015   2.204 -1.5729 -1.1098  0.0389
   94MOL0     H12685   9.098   2.006   2.079  3.8021 -0.2799  1.2762
   94MOL0     H12686   8.971   1.608   2.112 -2.0394  1.8615 -2.4041
   94MOL0     H12687   9.612   2.183   2.446  0.9740 -0.2303 -0.6709
   94MOL0     H12688   9.895   2.181   2.656  2.4355  0.9033 -0.9466
   94MOL0     H12689   9.910   2.046   2.545  1.4218  1.3295  1.2585
   94MOL0     H12690   9.848   2.189   2.487  0.5593 -0.6510 -0.9065
   95MOL0     O12691   2.990  10.788   8.808 -0.4193  0.7215 -0.6458
   95MOL0     C12692   3.044  10.726   8.900  0.4436 -0.0602 -0.0329
   95MOL0     O12693   2.986  10.689   9.017  0.7332  0.0414  0.1801
   95MOL0     C12694   2.857  10.708   9.050 -0.1303 -0.9418  0.3269
   95MOL0     C12695   2.826  10.710   9.186  0.0374 -0.2753 -0.2329
   95MOL0     C12696   2.692  10.736   9.231 -1.0713 -0.5949  0.3437
   95MOL0     C12697   2.586  10.748   9.140  0.1785  0.1277  0.8152
   95MOL0     O12698   2.459  10.786   9.183  0.0774  0.1515  0.3782
   95MOL0     C12699   2.351  10.754   9.094  0.5361  0.1223 -0.4227
   95MOL0     C12700   2.242  10.695   9.178  0.0613 -0.0474  0.6161
   95MOL0     C12701   2.103  10.720   9.102 -0.4632  0.4808 -0.4674
   95MOL0     C12702   2.039  10.856   9.130 -0.0214  0.6227 -0.4313
   95MOL0     C12703   2.112  10.979   9.076 -0.8976 -0.1530  0.1550
   95MOL0     C12704   2.016  11.104   9.087 -0.5276  0.2225 -0.2128
   95MOL0     C12705   2.088  11.234   9.084  0.3348 -0.5606 -0.4219
   95MOL0     C12706   2.149  11.277   8.949  0.3290  0.2994  0.2094
   95MOL0     N12707   2.248  11.187   8.895 -0.0865  0.1721  0.2025
   95MOL0     C12708   2.377  11.191   8.928  0.3911  0.2160  0.0847
   95MOL0     C12709   2.441  11.121   8.832  0.7654  0.0055  0.1234
   95MOL0     C12710   2.583  11.085   8.844 -0.6342  0.2520 -0.0046
   95MOL0     C12711   2.665  11.094   8.711 -0.1288 -0.2869  0.0471
   95MOL0     C12712   2.781  10.997   8.713 -0.1256  0.3420  0.7443
   95MOL0     C12713   2.855  10.986   8.581 -0.8603  0.3127  0.2288
   95MOL0     O12714   2.946  11.084   8.550 -0.1801 -0.4163  0.1080
   95MOL0     C12715   3.048  11.054   8.464 -0.5631  0.9868  0.3363
   95MOL0     C12716   3.166  11.137   8.464  0.8167 -0.4414  0.0131
   95MOL0     C12717   3.273  11.097   8.382 -0.0869 -0.6550  0.2155
   95MOL0     C12718   3.272  10.978   8.308  0.0415  0.7801  0.5904
   95MOL0     C12719   3.389  10.927   8.238  0.9304  0.1905  0.2405
   95MOL0     O12720   3.465  11.018   8.183 -1.1734 -0.2898  0.5519
   95MOL0     C12721   3.569  10.975   8.098 -0.7559  0.0818  0.6750
   95MOL0     C12722   3.565  11.005   7.962 -0.4562 -0.2355  0.2597
   95MOL0     C12723   3.664  10.968   7.870 -0.6421 -0.1109 -0.6665
   95MOL0     C12724   3.780  10.903   7.916  0.0218  0.0744 -0.2946
   95MOL0     O12725   3.887  10.870   7.833 -0.0399  0.6370  0.1751
   95MOL0     C12726   3.942  10.737   7.836 -0.6228  0.0587  0.1102
   95MOL0     C12727   4.022  10.720   7.711  0.9440 -0.0772  1.2604
   95MOL0     C12728   4.107  10.595   7.699 -0.5117 -0.3450  0.3311
   95MOL0     C12729   4.224  10.583   7.803  0.1041  0.1552  0.0032
   95MOL0     C12730   4.325  10.692   7.773 -0.4910  0.0694 -0.1625
   95MOL0     C12731   4.455  10.661   7.855 -0.2061 -0.3768 -1.3373
   95MOL0     C12732   4.551  10.783   7.858 -0.0440 -0.4826 -0.5048
   95MOL0     C12733   4.681  10.753   7.948  0.4028 -0.2719 -0.0896
   95MOL0    Cl12734   4.620  10.741   8.114  0.2232  0.4442 -0.2843
   95MOL0     C12735   3.781  10.860   8.045  0.0628  0.0004  0.3445
   95MOL0     C12736   3.678  10.897   8.133 -0.2443 -0.6693 -0.2305
   95MOL0     O12737   3.412  10.806   8.230  0.2905  0.7202 -0.8190
   95MOL0     C12738   3.150  10.897   8.303 -0.0870 -0.3234  0.7951
   95MOL0     C12739   3.042  10.939   8.379 -0.0263 -0.2255  0.1348
   95MOL0     N12740   2.352  11.085   8.732 -0.3772  0.5869 -0.4363
   95MOL0     N12741   2.241  11.128   8.774 -0.4177 -0.4375 -0.2969
   95MOL0     C12742   2.624  10.742   9.000  0.5575 -0.1264 -0.4857
   95MOL0     C12743   2.755  10.725   8.952 -0.4626  0.1015 -0.4013
   95MOL0     C12744   3.200  10.715   8.895 -0.4567 -0.2110  0.4631
   95MOL0     C12745   3.269  10.669   9.007 -0.4849 -0.3048  0.1385
   95MOL0     C12746   3.408  10.649   9.012 -0.1534  0.8976  0.1563
   95MOL0     C12747   3.480  10.674   8.893 -0.0170 -0.6605 -0.4353
   95MOL0     O12748   3.617  10.675   8.879  0.5818 -0.0610  0.4552
   95MOL0     C12749   3.698  10.617   8.972 -0.1248  0.2204  0.7013
   95MOL0     C12750   3.741  10.717   9.085  0.1067 -0.6228  1.3819
   95MOL0     C12751   3.850  10.659   9.180  0.3786 -1.0658 -0.1436
   95MOL0     C12752   3.839  10.718   9.323 -0.6323 -0.2409  0.7508
   95MOL0     C12753   3.887  10.860   9.319  0.2928 -0.4114  0.2644
   95MOL0     C12754   3.936  10.972   9.326  0.4977  0.6565  0.5965
   95MOL0     C12755   3.413  10.727   8.789 -0.2101 -0.0795  0.1235
   95MOL0     C12756   3.275  10.757   8.781 -0.1424  0.3744  0.4360
   95MOL0     C12757   3.229  10.821   8.645  0.5252 -0.2234 -0.3183
   95MOL0     H12758   2.916  10.695   9.246  2.3570  2.9598 -2.5776
   95MOL0     H12759   2.667  10.751   9.336 -0.7278  2.3608  0.0945
   95MOL0     H12760   2.318  10.848   9.050  0.2055  0.9409  1.4921
   95MOL0     H12761   2.370  10.680   9.016 -2.0752  0.0976 -1.1306
   95MOL0     H12762   2.239  10.750   9.273 -0.4397  2.3781 -0.7352
   95MOL0     H12763   2.250  10.586   9.184 -2.2660 -0.5344 -2.5292
   95MOL0     H12764   2.033  10.641   9.132 -0.0285  0.1094 -0.4204
   95MOL0     H12765   2.112  10.690   8.997  0.8237 -5.5244  0.9671
   95MOL0     H12766   1.940  10.843   9.086 -1.9749  0.6433  3.4965
   95MOL0     H12767   2.018  10.871   9.236  0.6056 -1.2642  0.0003
   95MOL0     H12768   2.201  10.989   9.139 -1.4807 -2.4948  1.4712
   95MOL0     H12769   2.138  10.969   8.970  0.4278  0.9803  0.3455
   95MOL0     H12770   1.945  11.108   9.003  1.1834  2.7245 -1.6686
   95MOL0     H12771   1.947  11.099   9.172 -3.1420  0.2674 -2.2101
   95MOL0     H12772   2.164  11.241   9.163  0.0461 -1.6049 -0.0344
   95MOL0     H12773   2.014  11.306   9.118 -1.2602 -1.7842 -1.1541
   95MOL0     H12774   2.068  11.260   8.877 -0.0186  0.0948  0.6442
   95MOL0     H12775   2.180  11.381   8.958 -1.7792  1.0995 -0.9937
   95MOL0     H12776   2.418  11.231   9.020  1.3448  1.0811 -0.6876
   95MOL0     H12777   2.632  11.161   8.906 -0.1771 -0.1265  0.1011
   95MOL0     H12778   2.590  10.989   8.895  0.4101  0.0292 -0.5384
   95MOL0     H12779   2.597  11.072   8.628  0.0372  1.6842 -0.6655
   95MOL0     H12780   2.701  11.196   8.697 -1.4517  0.2218  0.2153
   95MOL0     H12781   2.730  10.901   8.728 -1.9876  0.6657 -2.5031
   95MOL0     H12782   2.847  11.013   8.799 -0.2855 -2.5910  1.5070
   95MOL0     H12783   2.775  10.992   8.507 -1.0616 -0.1834  0.4036
   95MOL0     H12784   2.903  10.888   8.584 -0.9399  0.2732  0.2201
   95MOL0     H12785   3.173  11.233   8.515 -0.5853 -0.3694  0.1179
   95MOL0     H12786   3.362  11.159   8.388  0.3769 -1.1890 -0.8779
   95MOL0     H12787   3.482  11.064   7.924  0.9017  2.8061  1.6441
   95MOL0     H12788   3.652  10.990   7.764  0.4773 -0.3307 -0.8548
   95MOL0     H12789   4.012  10.731   7.920 -0.5109 -0.5733 -0.0190
   95MOL0     H12790   3.873  10.652   7.841  1.1493 -1.4135  3.4110
   95MOL0     H12791   3.952  10.729   7.628  1.0852  2.2530  1.3171
   95MOL0     H12792   4.086  10.809   7.705 -1.4871  1.6599 -3.8164
   95MOL0     H12793   4.056  10.502   7.722  2.4164 -1.6558  2.0306
   95MOL0     H12794   4.147  10.593   7.597  1.5753  0.0326  1.0990
   95MOL0     H12795   4.276  10.488   7.789  1.6726  0.3463  3.5075
   95MOL0     H12796   4.188  10.586   7.907  0.3977  1.9537  0.0874
   95MOL0     H12797   4.276  10.788   7.790  1.9807  2.0154 -2.9130
   95MOL0     H12798   4.354  10.689   7.668 -1.1669 -0.4836 -0.3400
   95MOL0     H12799   4.432  10.625   7.956 -0.8249 -0.1240 -1.3835
   95MOL0     H12800   4.504  10.576   7.806 -0.3427 -1.5710  0.4832
   95MOL0     H12801   4.506  10.874   7.898 -1.1256 -1.1759 -0.1183
   95MOL0     H12802   4.590  10.807   7.758 -0.4974  2.1586 -0.1326
   95MOL0     H12803   4.711  10.653   7.917 -3.2754 -1.8658  0.9725
   95MOL0     H12804   4.765  10.823   7.938  0.7745 -0.7298 -0.2165
   95MOL0     H12805   3.867  10.801   8.073 -0.0530  0.6009  2.0534
   95MOL0     H12806   3.685  10.871   8.238 -0.4656  1.3898  0.3444
   95MOL0     H12807   3.137  10.809   8.242  0.2627  0.8688 -1.0828
   95MOL0     H12808   2.947  10.888   8.366 -0.5992  1.0354 -0.8956
   95MOL0     H12809   2.539  10.747   8.932 -0.5996 -0.1929  0.9106
   95MOL0     H12810   2.782  10.727   8.847 -1.4556  0.3706 -0.6628
   95MOL0     H12811   3.214  10.640   9.095 -0.8844 -0.6963 -0.2362
   95MOL0     H12812   3.456  10.622   9.105 -1.5847 -0.5523  0.5309
   95MOL0     H12813   3.782  10.584   8.911 -0.9969  0.1217 -0.4952
   95MOL0     H12814   3.645  10.533   9.018 -2.9694  2.5185  1.9547
   95MOL0     H12815   3.649  10.746   9.137 -2.4223 -2.4219 -1.7338
   95MOL0     H12816   3.777  10.809   9.039 -0.2885 -0.0553  2.1766
   95MOL0     H12817   3.949  10.667   9.136 -0.2969  3.5054 -1.3791
   95MOL0     H12818   3.826  10.553   9.182 -0.6014 -0.8522  0.0862
   95MOL0     H12819   3.738  10.712   9.365 -0.2593  0.1783  1.7196
   95MOL0     H12820   3.903  10.656   9.385  0.1705 -0.9306 -0.7107
   95MOL0     H12821   3.990  11.064   9.329 -2.0033  2.6198 -4.1777
   95MOL0     H12822   3.478  10.767   8.713 -1.8107  1.4698 -0.4847
   95MOL0     H12823   3.129  10.798   8.606  0.5865 -0.6127 -0.2465
   95MOL0     H12824   3.249  10.928   8.658  1.7992 -0.6965  2.1266
   95MOL0     H12825   3.299  10.782   8.570 -0.3934  0.5948 -1.6439
   96MOL0     O12826   2.889   4.972   1.432 -0.0028 -0.3434 -0.0187
   96MOL0     C12827   2.849   4.996   1.317  0.5778 -0.5042  0.2898
   96MOL0     O12828   2.921   5.061   1.215 -0.1972 -0.0514  0.6080
   96MOL0     C12829   3.056   5.044   1.211 -0.3289 -0.5177 -0.0422
   96MOL0     C12830   3.133   5.161   1.241  0.5790 -0.2223  0.0871
   96MOL0     C12831   3.263   5.162   1.204 -0.2036  1.1714 -0.2558
   96MOL0     C12832   3.331   5.048   1.161  0.3383  0.1930  0.0877
   96MOL0     O12833   3.461   5.078   1.118  1.0934 -0.4275  0.1256
   96MOL0     C12834   3.544   4.971   1.086 -0.4347  0.0947 -0.3812
   96MOL0     C12835   3.667   5.026   1.027  0.2696  0.1956  0.7466
   96MOL0     C12836   3.736   5.126   1.123  0.5623 -0.3243 -0.4641
   96MOL0     C12837   3.813   5.048   1.231 -1.3862  0.4177 -0.1180
   96MOL0     C12838   3.912   5.137   1.325  0.7071  0.6252 -0.0669
   96MOL0     C12839   4.021   5.185   1.236 -0.7520 -0.2426  0.6117
   96MOL0     C12840   4.107   5.284   1.308  0.2887  0.6530 -0.3429
   96MOL0     C12841   4.216   5.208   1.394 -0.5086 -0.4586  1.4970
   96MOL0     N12842   4.243   5.280   1.511 -0.1889  0.0667  0.4591
   96MOL0     C12843   4.298   5.407   1.508 -0.1607 -0.6201  0.2219
   96MOL0     C12844   4.322   5.444   1.634 -1.4775  0.0472 -0.2883
   96MOL0     C12845   4.386   5.571   1.668  0.2042 -0.3319 -0.1228
   96MOL0     C12846   4.540   5.560   1.653 -0.5491 -0.4878  0.3186
   96MOL0     C12847   4.607   5.698   1.624 -0.2924 -0.6826  0.5624
   96MOL0     C12848   4.761   5.680   1.642  0.6773  0.5972  0.6364
   96MOL0     O12849   4.819   5.811   1.640 -0.5060 -0.0220 -0.6665
   96MOL0     C12850   4.949   5.811   1.688  0.6968  0.1652 -0.1056
   96MOL0     C12851   5.043   5.716   1.651 -0.3526 -0.9254  0.1742
   96MOL0     C12852   5.175   5.733   1.689  0.4228  0.1458  0.0248
   96MOL0     C12853   5.220   5.849   1.761  0.4155 -0.5784 -0.0153
   96MOL0     C12854   5.360   5.877   1.784 -0.3809  0.0579  1.2946
   96MOL0     O12855   5.452   5.791   1.740  0.5678 -0.2062  0.0861
   96MOL0     C12856   5.587   5.816   1.761  0.4450  0.4349  0.4599
   96MOL0     C12857   5.658   5.713   1.829 -0.6363  0.1490 -0.7514
   96MOL0     C12858   5.793   5.722   1.858 -0.0650  0.1783 -0.7116
   96MOL0     C12859   5.857   5.839   1.813  0.2108  0.0101  0.4753
   96MOL0     O12860   5.991   5.855   1.848  0.3517  0.3406 -0.0430
   96MOL0     C12861   6.064   5.973   1.836 -0.4966  0.2155 -0.7722
   96MOL0     C12862   6.195   5.961   1.922  0.9085  0.3092 -0.1553
   96MOL0     C12863   6.291   5.853   1.868  0.6282 -0.0419 -0.3648
   96MOL0     C12864   6.396   5.835   1.977  0.3939 -0.4983  0.0726
   96MOL0     C12865   6.508   5.732   1.935 -0.5185  0.0217 -0.9831
   96MOL0     C12866   6.582   5.757   1.812 -0.0618  0.1922 -0.2453
   96MOL0     C12867   6.694   5.652   1.804 -0.2902 -0.0745  0.1617
   96MOL0     C12868   6.739   5.649   1.657  0.5583  0.8764 -0.4420
   96MOL0    Cl12869   6.861   5.535   1.629  0.0490  0.0519  0.2377
   96MOL0     C12870   5.791   5.941   1.750  0.0377  0.1054  0.3536
   96MOL0     C12871   5.658   5.920   1.722 -0.5604 -0.3987 -0.6324
   96MOL0     O12872   5.392   5.975   1.849  0.0896  0.4962  0.1482
   96MOL0     C12873   5.123   5.940   1.803 -0.5132  0.4679  0.1666
   96MOL0     C12874   4.982   5.918   1.769  0.4770 -0.4988  0.4392
   96MOL0     N12875   4.291   5.334   1.713 -0.2307  1.0440  0.1057
   96MOL0     N12876   4.242   5.237   1.633 -0.3870  0.6197  0.0122
   96MOL0     C12877   3.252   4.937   1.136 -0.2024 -0.2950 -0.7669
   96MOL0     C12878   3.120   4.933   1.170  1.3781  0.3833  0.5836
   96MOL0     C12879   2.706   4.969   1.291  0.1196 -0.7248  0.3473
   96MOL0     C12880   2.652   4.849   1.337 -0.1535  0.2065 -0.8550
   96MOL0     C12881   2.521   4.816   1.308  0.0792 -0.3296 -0.5693
   96MOL0     C12882   2.436   4.900   1.239  0.1221 -0.6447  0.7089
   96MOL0     O12883   2.307   4.859   1.216 -0.1768  0.5477 -0.2824
   96MOL0     C12884   2.201   4.948   1.195  0.2755 -0.2384  0.7156
   96MOL0     C12885   2.087   4.861   1.130  0.5019  0.3893  0.0305
   96MOL0     C12886   2.025   4.769   1.231 -0.2470  0.4611 -0.3370
   96MOL0     C12887   1.914   4.692   1.168 -0.1176 -0.1857  0.0308
   96MOL0     C12888   1.791   4.774   1.156 -0.7277 -0.2609 -0.5125
   96MOL0     C12889   1.697   4.844   1.144 -0.4193 -0.7019 -0.1009
   96MOL0     C12890   2.484   5.019   1.188 -0.3597  0.2509 -0.3247
   96MOL0     C12891   2.613   5.056   1.214 -0.3389  0.1592  1.0798
   96MOL0     C12892   2.663   5.186   1.160 -0.2731  0.6739 -0.1041
   96MOL0     H12893   3.079   5.248   1.277 -0.2967 -0.8796  0.4045
   96MOL0     H12894   3.315   5.256   1.219  2.3297  0.1575 -1.8889
   96MOL0     H12895   3.577   4.918   1.176 -0.6833  2.3906  1.1259
   96MOL0     H12896   3.498   4.898   1.019 -3.1032 -0.7162  2.1205
   96MOL0     H12897   3.640   5.080   0.936 -0.9553  1.1552  1.6312
   96MOL0     H12898   3.730   4.941   1.002  1.5202  1.9005 -2.4080
   96MOL0     H12899   3.664   5.194   1.170 -1.6800 -2.5972 -0.3891
   96MOL0     H12900   3.798   5.186   1.056  0.2513 -0.4595 -0.8828
   96MOL0     H12901   3.738   5.015   1.304 -0.1829 -1.3995  0.3549
   96MOL0     H12902   3.868   4.962   1.193 -2.9499 -1.3840  1.4440
   96MOL0     H12903   3.862   5.221   1.373 -0.2929 -0.9132  1.7495
   96MOL0     H12904   3.946   5.077   1.409 -0.3933  1.8795  1.3186
   96MOL0     H12905   4.085   5.101   1.209  1.7563  1.1017  1.9860
   96MOL0     H12906   3.974   5.232   1.149  1.4408  4.0794  1.5045
   96MOL0     H12907   4.048   5.340   1.381 -0.2296 -0.7964  0.4074
   96MOL0     H12908   4.157   5.352   1.239  1.4341  0.0139 -0.1638
   96MOL0     H12909   4.179   5.110   1.425  2.8978 -1.5531  2.4538
   96MOL0     H12910   4.303   5.171   1.340 -0.7694 -0.5632  1.1410
   96MOL0     H12911   4.316   5.464   1.417  0.1970 -0.1910  0.5584
   96MOL0     H12912   4.344   5.645   1.600 -2.1875  1.7957  3.3233
   96MOL0     H12913   4.355   5.608   1.766 -3.1385 -0.0200 -1.1636
   96MOL0     H12914   4.583   5.525   1.747 -0.0684  3.5672  1.8240
   96MOL0     H12915   4.564   5.502   1.563 -1.1421  1.0032 -0.8490
   96MOL0     H12916   4.579   5.769   1.703  2.4083  1.7491 -0.4839
   96MOL0     H12917   4.592   5.738   1.523  1.2729  2.2325  1.3852
   96MOL0     H12918   4.796   5.611   1.565  1.9900  1.2877  0.5870
   96MOL0     H12919   4.779   5.628   1.737  1.4146 -3.1166 -1.3234
   96MOL0     H12920   5.016   5.628   1.594 -1.6553 -0.9270  0.7742
   96MOL0     H12921   5.244   5.653   1.665  0.3970 -1.0008  3.2606
   96MOL0     H12922   5.615   5.617   1.853  1.1727 -0.4166  0.4584
   96MOL0     H12923   5.841   5.638   1.907 -2.3474 -0.1672  1.0982
   96MOL0     H12924   6.088   5.994   1.731 -1.2138 -1.4313 -1.3132
   96MOL0     H12925   6.010   6.060   1.874 -2.1764 -1.4724  0.8975
   96MOL0     H12926   6.261   6.049   1.926  1.9857 -0.2463 -3.2027
   96MOL0     H12927   6.157   5.935   2.021 -0.4443  2.5483 -0.0186
   96MOL0     H12928   6.241   5.759   1.843  0.0700  0.3451 -0.7280
   96MOL0     H12929   6.326   5.892   1.771 -2.8209  1.5648 -1.1421
   96MOL0     H12930   6.361   5.801   2.075 -1.6405 -2.3817 -1.2315
   96MOL0     H12931   6.439   5.930   2.010 -2.0463  0.6042  0.2824
   96MOL0     H12932   6.461   5.633   1.927 -1.3374  0.2297  0.8258
   96MOL0     H12933   6.580   5.732   2.017 -1.5436  2.7008  0.0266
   96MOL0     H12934   6.514   5.758   1.727  0.0117  3.9584 -0.4440
   96MOL0     H12935   6.633   5.853   1.821  2.1351 -0.8536 -0.7631
   96MOL0     H12936   6.655   5.552   1.826  0.4011 -0.4460 -0.2632
   96MOL0     H12937   6.780   5.680   1.865  2.3764 -2.8146 -2.0025
   96MOL0     H12938   6.651   5.629   1.596  2.4079  2.9846 -4.1781
   96MOL0     H12939   6.774   5.747   1.622  1.8107  0.2156 -1.1260
   96MOL0     H12940   5.828   6.042   1.734 -0.0176  0.2690  1.2422
   96MOL0     H12941   5.594   6.000   1.687 -1.0642  0.0562  1.2262
   96MOL0     H12942   5.158   6.017   1.870  2.8513 -0.5673 -0.2273
   96MOL0     H12943   4.908   5.986   1.811  0.7923 -2.2608  4.2346
   96MOL0     H12944   3.296   4.857   1.077 -2.2563 -1.0176 -1.3935
   96MOL0     H12945   3.052   4.851   1.151 -2.6446  2.9009  2.5765
   96MOL0     H12946   2.718   4.781   1.390 -0.3324  2.7031  2.9128
   96MOL0     H12947   2.467   4.727   1.339 -2.3604  1.5719  1.0942
   96MOL0     H12948   2.231   5.042   1.149  1.0481  0.1860  2.0089
   96MOL0     H12949   2.177   4.979   1.297 -0.6161  1.7201 -0.0582
   96MOL0     H12950   2.128   4.825   1.035  1.2765  1.6729 -0.1416
   96MOL0     H12951   2.005   4.927   1.103 -1.1153 -2.6987 -3.4088
   96MOL0     H12952   1.986   4.832   1.311  1.3880 -0.8862  1.5997
   96MOL0     H12953   2.094   4.707   1.288 -1.5285  0.4380  1.2780
   96MOL0     H12954   1.941   4.651   1.071  0.7077  0.6914 -0.1225
   96MOL0     H12955   1.895   4.604   1.230 -1.1087  1.5847  2.4132
   96MOL0     H12956   1.619   4.917   1.132 -1.1484 -1.6227 -1.1104
   96MOL0     H12957   2.429   5.083   1.120  0.2685  0.3474 -0.7571
   96MOL0     H12958   2.733   5.231   1.231  2.7536 -0.6930 -2.0237
   96MOL0     H12959   2.710   5.159   1.065 -0.8092  0.8230 -0.4144
   96MOL0     H12960   2.588   5.264   1.145 -0.6507  0.9426  2.6137
   97MOL0     O12961   9.179   6.384   8.603 -0.0818  0.2876  0.8218
   97MOL0     C12962   9.099   6.440   8.529  0.1473 -0.2101  0.4293
   97MOL0     O12963   9.117   6.559   8.471 -0.6114 -0.4147  0.2147
   97MOL0     C12964   9.237   6.625   8.466 -0.8839 -0.1338 -0.2317
   97MOL0     C12965   9.362   6.565   8.445 -0.4204 -0.2415 -0.9846
   97MOL0     C12966   9.470   6.649   8.416 -0.6220 -0.5187 -0.3850
   97MOL0     C12967   9.459   6.787   8.439 -0.5837 -0.9797  0.6638
   97MOL0     O12968   9.578   6.842   8.427  0.3535 -0.4428 -0.0341
   97MOL0     C12969   9.589   6.972   8.487  0.7887 -0.3941  0.2728
   97MOL0     C12970   9.744   7.011   8.501  0.3835  0.1006  0.1603
   97MOL0     C12971   9.826   6.934   8.610 -0.2806  0.0449  0.2174
   97MOL0     C12972   9.970   6.984   8.610 -0.6841 -0.8830  0.0090
   97MOL0     C12973   9.978   7.125   8.679  0.0514 -0.8217  0.0689
   97MOL0     C12974  10.131   7.185   8.679 -0.4818  0.4069 -0.0219
   97MOL0     C12975  10.128   7.328   8.736  0.8633 -0.4426 -0.3077
   97MOL0     C12976  10.262   7.396   8.766  0.1111  0.4994 -0.4246
   97MOL0     N12977  10.345   7.425   8.644 -0.3051 -1.0974  0.2226
   97MOL0     C12978  10.441   7.347   8.586 -0.4677 -0.2112  0.6428
   97MOL0     C12979  10.507   7.422   8.497  0.1650 -0.0338  0.1734
   97MOL0     C12980  10.620   7.374   8.408  0.3694 -0.5113  0.8314
   97MOL0     C12981  10.675   7.483   8.313  0.1881 -0.3477 -0.3176
   97MOL0     C12982  10.801   7.426   8.231 -0.2137 -0.6612  0.4549
   97MOL0     C12983  10.882   7.526   8.151  0.3113  0.4001  0.1898
   97MOL0     O12984  11.001   7.455   8.105 -0.4377 -0.1366 -0.2299
   97MOL0     C12985  11.102   7.530   8.056 -0.1813  1.0755 -0.2791
   97MOL0     C12986  11.112   7.673   8.060 -0.1503 -0.2110 -0.5535
   97MOL0     C12987  11.223   7.741   8.006 -0.6698 -0.5110  0.2334
   97MOL0     C12988  11.333   7.663   7.953  0.1010 -0.4215 -0.4374
   97MOL0     C12989  11.443   7.731   7.879  0.1239 -0.0443 -0.2697
   97MOL0     O12990  11.525   7.655   7.806  0.4872  0.6264 -0.1839
   97MOL0     C12991  11.638   7.690   7.735  1.3237  0.2988 -0.0474
   97MOL0     C12992  11.704   7.570   7.696 -0.8278 -0.5486 -0.1149
   97MOL0     C12993  11.816   7.577   7.622  0.1158  0.5921  0.1736
   97MOL0     C12994  11.852   7.713   7.576 -0.8825  0.6763  0.0806
   97MOL0     O12995  11.974   7.720   7.507  0.6944  0.1902 -0.9453
   97MOL0     C12996  12.008   7.828   7.413  0.2846 -0.6996 -0.5158
   97MOL0     C12997  12.124   7.790   7.319 -0.2204  0.1945 -0.0647
   97MOL0     C12998  12.245   7.804   7.396  0.3815  0.1563 -0.2037
   97MOL0     C12999  12.320   7.670   7.388  0.0426  0.8831  0.2852
   97MOL0     C13000  12.447   7.668   7.458  0.3931 -1.0600 -0.0285
   97MOL0     C13001  12.560   7.735   7.367 -0.6033  0.7019  0.5426
   97MOL0     C13002  12.693   7.725   7.444  0.1985  0.0102 -0.0891
   97MOL0     C13003  12.754   7.587   7.414  0.7609  0.2921  0.1699
   97MOL0    Cl13004  12.907   7.581   7.519 -0.7533 -0.1294 -0.4977
   97MOL0     C13005  11.777   7.830   7.608 -0.0642 -0.3939 -0.1759
   97MOL0     C13006  11.673   7.821   7.689 -0.6652 -0.2524 -0.1540
   97MOL0     O13007  11.452   7.847   7.892 -0.5761  0.2326  0.7073
   97MOL0     C13008  11.333   7.527   7.975  0.3449  0.5516 -0.5943
   97MOL0     C13009  11.216   7.460   8.010  0.5688 -0.3234  0.0039
   97MOL0     N13010  10.447   7.548   8.491 -0.2158 -1.2038 -0.1387
   97MOL0     N13011  10.343   7.545   8.579  0.1854  0.8053 -0.5010
   97MOL0     C13012   9.332   6.849   8.457  0.3316 -0.1437 -0.0303
   97MOL0     C13013   9.227   6.760   8.470  0.3564 -0.1235 -0.0581
   97MOL0     C13014   8.970   6.374   8.494  0.0077 -0.0877  0.1991
   97MOL0     C13015   8.862   6.450   8.441 -0.1348 -0.5577  0.3890
   97MOL0     C13016   8.740   6.397   8.397  0.4903  0.8472 -0.3395
   97MOL0     C13017   8.723   6.256   8.405 -0.0955  1.0344  0.2969
   97MOL0     O13018   8.596   6.212   8.379  0.4423 -0.1544 -0.0256
   97MOL0     C13019   8.550   6.097   8.446 -0.0926  0.3175 -0.5557
   97MOL0     C13020   8.528   6.128   8.602  0.7131 -0.4910 -0.2422
   97MOL0     C13021   8.410   6.237   8.620  0.1360 -0.2498 -0.0105
   97MOL0     C13022   8.430   6.321   8.739  0.0780 -0.0916 -0.4296
   97MOL0     C13023   8.316   6.413   8.761 -0.3139 -0.1331 -1.0762
   97MOL0     C13024   8.215   6.475   8.768  0.2273 -0.5872  0.6850
   97MOL0     C13025   8.830   6.179   8.453 -0.8942  0.2286 -0.0976
   97MOL0     C13026   8.951   6.237   8.499 -0.5298 -0.2308  0.4974
   97MOL0     C13027   9.065   6.137   8.526  0.0412 -1.3108 -0.1663
   97MOL0     H13028   9.379   6.458   8.448 -2.5141 -0.5929  1.0148
   97MOL0     H13029   9.567   6.606   8.393 -0.1677 -1.8108  3.3162
   97MOL0     H13030   9.533   7.042   8.425  1.0266 -0.8794 -0.5051
   97MOL0     H13031   9.561   6.972   8.592  2.2028  0.2057  0.6770
   97MOL0     H13032   9.747   7.117   8.525  0.4030  0.0051  0.5941
   97MOL0     H13033   9.790   7.000   8.403 -0.9674 -0.3002 -0.4505
   97MOL0     H13034   9.819   6.826   8.593  0.0018  0.1974 -0.9267
   97MOL0     H13035   9.777   6.955   8.705 -1.6994  2.9794 -1.0474
   97MOL0     H13036  10.030   6.928   8.682 -0.6441  1.6405  2.0893
   97MOL0     H13037  10.010   7.000   8.509  1.4526  1.8684  1.1597
   97MOL0     H13038   9.917   7.204   8.633  3.4752  1.7779 -0.4565
   97MOL0     H13039   9.943   7.113   8.782 -1.6609  0.3058 -0.3298
   97MOL0     H13040  10.191   7.119   8.742 -0.0747 -0.2819 -1.1042
   97MOL0     H13041  10.166   7.190   8.575 -3.3061  1.6316 -1.0070
   97MOL0     H13042  10.069   7.324   8.828  1.0515 -1.3502 -0.2205
   97MOL0     H13043  10.070   7.391   8.668  1.7481 -0.6140 -1.2487
   97MOL0     H13044  10.256   7.489   8.823  1.9779  1.4318 -1.6380
   97MOL0     H13045  10.313   7.336   8.841 -1.3747  1.7957  1.7500
   97MOL0     H13046  10.468   7.244   8.608  3.4456  0.4588 -0.1743
   97MOL0     H13047  10.697   7.319   8.463 -0.0510 -1.3207  0.6252
   97MOL0     H13048  10.569   7.305   8.339  0.5459  1.3289 -1.2785
   97MOL0     H13049  10.603   7.525   8.242  0.5046  1.4319  0.3511
   97MOL0     H13050  10.704   7.576   8.364 -0.1577  0.9859 -2.4031
   97MOL0     H13051  10.763   7.342   8.172  0.4162 -0.2410 -0.5806
   97MOL0     H13052  10.870   7.387   8.306  0.9878 -1.2795 -0.9241
   97MOL0     H13053  10.898   7.610   8.219 -3.2528  1.5635 -0.1665
   97MOL0     H13054  10.816   7.561   8.072 -2.2516 -1.7392  1.2145
   97MOL0     H13055  11.028   7.738   8.080 -0.1307 -0.5650  0.7963
   97MOL0     H13056  11.223   7.844   7.973  0.2763 -1.1594 -2.0312
   97MOL0     H13057  11.670   7.473   7.731  0.4958 -1.3121 -0.8540
   97MOL0     H13058  11.869   7.485   7.601 -2.8401 -1.0333 -0.6559
   97MOL0     H13059  11.922   7.853   7.350 -1.0276 -0.7512  1.2003
   97MOL0     H13060  12.037   7.918   7.468  0.9743 -0.0747 -1.8532
   97MOL0     H13061  12.096   7.690   7.284 -1.3158  0.0046  1.2616
   97MOL0     H13062  12.122   7.861   7.236 -2.8759  0.4167  0.1245
   97MOL0     H13063  12.292   7.886   7.342  1.5128 -0.2697  0.1120
   97MOL0     H13064  12.219   7.826   7.500 -0.6077 -1.1519 -0.1466
   97MOL0     H13065  12.334   7.650   7.281  0.1770 -0.2395  0.5091
   97MOL0     H13066  12.248   7.597   7.425 -0.3101  2.1820  2.2789
   97MOL0     H13067  12.481   7.565   7.465  1.4704 -0.7878 -1.0634
   97MOL0     H13068  12.439   7.721   7.554 -0.6069 -0.9871 -0.1421
   97MOL0     H13069  12.571   7.694   7.266 -1.1729 -0.3424  0.8917
   97MOL0     H13070  12.535   7.841   7.355 -1.5350  0.3472 -0.9248
   97MOL0     H13071  12.676   7.729   7.552  0.2310 -1.7948  0.0048
   97MOL0     H13072  12.763   7.800   7.407  0.5512  0.1782  0.8979
   97MOL0     H13073  12.683   7.510   7.445  2.7593 -1.5993  0.3316
   97MOL0     H13074  12.779   7.582   7.307  1.1692 -1.2585  0.3216
   97MOL0     H13075  11.810   7.926   7.569 -2.0269  0.0205 -0.9679
   97MOL0     H13076  11.615   7.904   7.728 -1.0834 -1.5182  2.0867
   97MOL0     H13077  11.419   7.463   7.957  1.0524  1.0742  0.7544
   97MOL0     H13078  11.212   7.352   8.025 -0.2825 -0.2357  0.4899
   97MOL0     H13079   9.322   6.956   8.471  0.6833 -0.2530  1.1705
   97MOL0     H13080   9.123   6.785   8.490  0.9419  4.2479 -1.5420
   97MOL0     H13081   8.874   6.558   8.443 -0.0030 -0.5766  1.5978
   97MOL0     H13082   8.658   6.457   8.358 -0.8101  0.9443  2.3198
   97MOL0     H13083   8.615   6.009   8.443 -0.0711  0.3149 -0.1322
   97MOL0     H13084   8.451   6.075   8.406 -0.5161 -0.8445  1.0323
   97MOL0     H13085   8.620   6.169   8.647 -0.8367  2.6934  0.3069
   97MOL0     H13086   8.504   6.036   8.655  0.7166  0.8822  2.3203
   97MOL0     H13087   8.320   6.175   8.624 -0.5786  0.7980  3.8470
   97MOL0     H13088   8.414   6.295   8.527 -1.5327  1.9629  1.2135
   97MOL0     H13089   8.434   6.256   8.827 -1.4393  0.6191  0.2019
   97MOL0     H13090   8.519   6.382   8.726 -1.1035  1.9524  0.6295
   97MOL0     H13091   8.119   6.523   8.778  0.4997  0.1920 -0.3011
   97MOL0     H13092   8.825   6.072   8.441  0.4647  0.3522 -2.4093
   97MOL0     H13093   9.151   6.171   8.467  0.0575  2.6252  1.8127
   97MOL0     H13094   9.086   6.139   8.634  0.5892  0.2262 -0.2742
   97MOL0     H13095   9.043   6.032   8.503  0.0681 -2.1142  2.9904
   98MOL0     O13096   1.490   4.155   2.952  0.0410  0.8385  0.4344
   98MOL0     C13097   1.488   4.184   2.831  0.2771  0.6185 -0.4126
   98MOL0     O13098   1.567   4.274   2.763  0.2071  0.2662 -0.3388
   98MOL0     C13099   1.693   4.301   2.810 -0.0839 -0.2204 -0.0939
   98MOL0     C13100   1.805   4.255   2.739  0.9597  0.6212 -0.2761
   98MOL0     C13101   1.933   4.296   2.775 -0.3844  0.1980 -0.1801
   98MOL0     C13102   1.960   4.375   2.882 -0.3062 -0.9910  0.4096
   98MOL0     O13103   2.091   4.403   2.938 -0.6864  0.2070  0.2427
   98MOL0     C13104   2.202   4.360   2.862  0.4957 -0.3934 -0.0933
   98MOL0     C13105   2.346   4.398   2.926 -0.8047  0.3047  0.1065
   98MOL0     C13106   2.463   4.300   2.888  0.6727  0.0291 -0.4654
   98MOL0     C13107   2.597   4.367   2.907 -0.3867  0.3437 -0.0705
   98MOL0     C13108   2.643   4.374   3.047  0.1112 -0.0130  0.2444
   98MOL0     C13109   2.781   4.447   3.063  0.2316 -0.2980  0.1957
   98MOL0     C13110   2.889   4.358   3.001 -0.3821 -0.3013  0.7749
   98MOL0     C13111   3.016   4.446   2.995 -0.1993  0.1376 -0.0573
   98MOL0     N13112   3.138   4.372   2.979 -0.7641 -0.3182  0.2413
   98MOL0     C13113   3.262   4.435   2.968  0.0255 -0.8848 -0.3057
   98MOL0     C13114   3.345   4.348   2.910  0.4803  0.9290 -0.0179
   98MOL0     C13115   3.493   4.350   2.867  0.8752 -0.5721  0.1954
   98MOL0     C13116   3.580   4.371   2.987  0.5998 -0.5865 -0.0652
   98MOL0     C13117   3.571   4.516   3.048 -0.4029  0.2565 -0.3671
   98MOL0     C13118   3.581   4.503   3.202 -0.4488  0.1257  0.1123
   98MOL0     O13119   3.468   4.430   3.245 -0.1982  0.2155 -0.2177
   98MOL0     C13120   3.346   4.484   3.292  0.0800  0.1200  0.3822
   98MOL0     C13121   3.249   4.401   3.331  0.2797 -0.1479 -0.0410
   98MOL0     C13122   3.122   4.448   3.382 -0.2799  0.1407  0.9486
   98MOL0     C13123   3.093   4.586   3.371 -0.0601 -0.0039  0.1932
   98MOL0     C13124   2.963   4.637   3.412  0.3696  0.5881 -0.3793
   98MOL0     O13125   2.878   4.545   3.476  0.1586  0.6884  0.1119
   98MOL0     C13126   2.746   4.570   3.490  0.0077 -0.4950  0.6123
   98MOL0     C13127   2.652   4.463   3.503 -0.4756 -0.5412 -0.8760
   98MOL0     C13128   2.517   4.481   3.546  0.3894  0.0556 -0.1535
   98MOL0     C13129   2.469   4.609   3.553  0.3440 -1.0288 -0.2008
   98MOL0     O13130   2.334   4.634   3.584 -0.3519 -0.4760 -0.7740
   98MOL0     C13131   2.246   4.560   3.500 -0.4488  0.6080  0.1301
   98MOL0     C13132   2.114   4.633   3.527  0.5164 -0.5847 -0.0469
   98MOL0     C13133   1.989   4.594   3.445 -0.4597  0.1472  0.4223
   98MOL0     C13134   1.866   4.681   3.482 -0.3563  0.0622 -0.9876
   98MOL0     C13135   1.756   4.683   3.372 -0.3591  0.6894 -0.0665
   98MOL0     C13136   1.638   4.762   3.430  0.0841  0.3842  0.0054
   98MOL0     C13137   1.531   4.793   3.321 -0.2839  0.0333  0.5498
   98MOL0     C13138   1.414   4.853   3.383 -0.2834  0.3559  0.4195
   98MOL0    Cl13139   1.313   4.729   3.465 -0.1778  0.0522 -0.3146
   98MOL0     C13140   2.563   4.716   3.543  0.5296  1.1055  1.3869
   98MOL0     C13141   2.697   4.695   3.514  0.1073  0.1142  0.0232
   98MOL0     O13142   2.938   4.750   3.375 -1.3764  0.3296 -0.2945
   98MOL0     C13143   3.198   4.678   3.342 -0.2646  0.5416 -0.6900
   98MOL0     C13144   3.323   4.623   3.299 -0.3677  0.2543 -0.6324
   98MOL0     N13145   3.277   4.229   2.900 -0.2068  0.4599  0.6705
   98MOL0     N13146   3.157   4.242   2.933  0.1988 -0.8593 -0.5313
   98MOL0     C13147   1.850   4.426   2.963 -0.0295  0.2553  0.8361
   98MOL0     C13148   1.715   4.385   2.926 -0.5728 -0.0055  0.4862
   98MOL0     C13149   1.373   4.131   2.756 -0.1449 -1.1498  0.1910
   98MOL0     C13150   1.250   4.201   2.782  0.1957  0.1483  0.7806
   98MOL0     C13151   1.147   4.174   2.690  0.1328  0.0948  0.1206
   98MOL0     C13152   1.155   4.076   2.592 -0.8221  0.7326  0.3416
   98MOL0     O13153   1.039   4.059   2.523  0.2861 -0.8758  0.4935
   98MOL0     C13154   1.035   3.974   2.401  0.4311  0.2207 -0.1143
   98MOL0     C13155   0.899   3.940   2.345 -0.4571 -0.1788  0.1114
   98MOL0     C13156   0.810   3.860   2.441 -0.5387  0.3999  0.6188
   98MOL0     C13157   0.721   3.955   2.522 -0.5467  0.4042 -0.1192
   98MOL0     C13158   0.647   3.874   2.620  0.0604 -0.7742 -0.5699
   98MOL0     C13159   0.600   3.805   2.715 -1.1198 -0.2967 -0.2762
   98MOL0     C13160   1.275   4.002   2.577  0.0723  0.3492 -0.9793
   98MOL0     C13161   1.382   4.029   2.660  1.1645 -0.4460  0.8892
   98MOL0     C13162   1.511   3.959   2.640  0.4381  1.1514 -0.1136
   98MOL0     H13163   1.792   4.196   2.649 -0.5155  0.3950  0.0472
   98MOL0     H13164   2.015   4.245   2.726 -0.1922 -1.6762  1.9502
   98MOL0     H13165   2.191   4.252   2.846 -1.8659 -0.6669  2.6887
   98MOL0     H13166   2.197   4.410   2.765  0.1866  2.9292  1.4886
   98MOL0     H13167   2.337   4.396   3.035  3.4071  2.5619  0.7267
   98MOL0     H13168   2.361   4.503   2.900 -1.8089  0.7018  1.0465
   98MOL0     H13169   2.454   4.275   2.782  0.9316  0.7576 -0.6672
   98MOL0     H13170   2.458   4.206   2.943  0.6880 -1.4468 -2.8194
   98MOL0     H13171   2.667   4.303   2.852 -1.7749 -0.4529 -0.9865
   98MOL0     H13172   2.602   4.467   2.864 -0.0393  0.5273  0.3888
   98MOL0     H13173   2.570   4.411   3.119  0.1013  1.0564 -0.2937
   98MOL0     H13174   2.650   4.267   3.069 -0.8261  0.0927  1.1259
   98MOL0     H13175   2.773   4.547   3.018 -2.8960  0.5524  2.2458
   98MOL0     H13176   2.800   4.457   3.170  1.0805 -2.7518  0.3266
   98MOL0     H13177   2.853   4.333   2.901 -0.9659  0.6762  0.7246
   98MOL0     H13178   2.904   4.277   3.073 -1.5514 -1.3874 -0.1771
   98MOL0     H13179   3.003   4.512   2.908  2.6746 -0.3499 -0.9545
   98MOL0     H13180   3.014   4.498   3.091 -2.1535 -1.7182  1.0146
   98MOL0     H13181   3.271   4.541   2.991 -2.5099 -0.2737 -1.7449
   98MOL0     H13182   3.529   4.257   2.823 -0.5882 -0.8029 -0.5908
   98MOL0     H13183   3.502   4.434   2.797 -0.4929 -0.4334  0.1526
   98MOL0     H13184   3.558   4.295   3.062  0.8896 -1.1128 -0.5002
   98MOL0     H13185   3.684   4.357   2.958  0.5119 -1.8467  0.1939
   98MOL0     H13186   3.481   4.566   3.012  0.5223  2.8805  0.7041
   98MOL0     H13187   3.659   4.567   3.009  0.2706 -0.6287 -0.0315
   98MOL0     H13188   3.592   4.594   3.262 -2.2303  0.4329  0.0324
   98MOL0     H13189   3.669   4.441   3.221 -0.5861 -0.5249 -1.2519
   98MOL0     H13190   3.276   4.296   3.326 -0.0037 -0.3862  2.3303
   98MOL0     H13191   3.048   4.377   3.417 -0.7462  1.4457  2.7800
   98MOL0     H13192   2.674   4.357   3.492  0.2571 -0.3769 -1.0443
   98MOL0     H13193   2.464   4.390   3.571  0.3088 -0.3215 -1.5670
   98MOL0     H13194   2.278   4.562   3.395  0.2830 -1.0317  0.2974
   98MOL0     H13195   2.250   4.454   3.527  0.3408  0.7852  0.7330
   98MOL0     H13196   2.094   4.637   3.635 -0.6394  2.6343 -0.2695
   98MOL0     H13197   2.129   4.736   3.494 -0.9184 -0.1818  0.4694
   98MOL0     H13198   1.996   4.608   3.337 -1.1431  1.6793  0.5621
   98MOL0     H13199   1.966   4.488   3.462 -1.7497 -0.1219 -2.3449
   98MOL0     H13200   1.902   4.782   3.508 -0.2650  0.4599 -2.5869
   98MOL0     H13201   1.820   4.641   3.573 -1.6016  0.5264 -1.3902
   98MOL0     H13202   1.730   4.580   3.346  0.2427 -1.0130  5.0147
   98MOL0     H13203   1.796   4.738   3.286 -1.6352  0.1655 -1.0242
   98MOL0     H13204   1.606   4.710   3.521  0.0273 -0.6110 -0.5788
   98MOL0     H13205   1.679   4.853   3.475 -1.4252  0.8670  0.4535
   98MOL0     H13206   1.503   4.698   3.274 -0.9200  1.3154 -1.8517
   98MOL0     H13207   1.575   4.855   3.242  2.1155 -0.9618  1.0056
   98MOL0     H13208   1.452   4.936   3.443 -1.4819  0.5199  0.9859
   98MOL0     H13209   1.345   4.883   3.303  0.6746  0.4689 -0.3794
   98MOL0     H13210   2.524   4.815   3.561 -2.0397  0.3667  0.3294
   98MOL0     H13211   2.762   4.781   3.522  0.6336 -0.3757  1.3381
   98MOL0     H13212   3.188   4.786   3.353  1.8372  0.7910 -0.8989
   98MOL0     H13213   3.411   4.685   3.284  0.3377 -0.4261  0.5907
   98MOL0     H13214   1.861   4.487   3.053  0.1337  1.3299  0.1074
   98MOL0     H13215   1.624   4.422   2.971  0.3136  2.6944  0.2631
   98MOL0     H13216   1.241   4.274   2.861  2.4269  0.7781  0.5329
   98MOL0     H13217   1.054   4.228   2.701  0.9457  1.3324  1.2318
   98MOL0     H13218   1.078   3.877   2.425 -0.0239  0.0920  0.2042
   98MOL0     H13219   1.095   4.024   2.325  0.5590  1.9676  1.0701
   98MOL0     H13220   0.918   3.886   2.251 -2.0539  2.6317 -2.0144
   98MOL0     H13221   0.851   4.034   2.314  0.1258  0.3591  0.8027
   98MOL0     H13222   0.865   3.799   2.513 -1.4930 -0.8618  0.3178
   98MOL0     H13223   0.747   3.793   2.382  1.8988  0.7744 -2.7450
   98MOL0     H13224   0.778   4.030   2.577 -0.7164  0.5822 -0.1857
   98MOL0     H13225   0.654   3.997   2.447  0.2444 -0.0179 -1.0816
   98MOL0     H13226   0.562   3.747   2.796  0.9203  0.3577  1.2191
   98MOL0     H13227   1.281   3.920   2.507  1.0769 -1.4783  1.1092
   98MOL0     H13228   1.564   3.945   2.735  0.0791 -1.8187 -0.2449
   98MOL0     H13229   1.491   3.860   2.597 -1.7656  0.5260  2.1052
   98MOL0     H13230   1.575   4.020   2.576 -1.4509 -0.3181 -3.7319
   99MOL0     O13231   7.973   2.149  11.247 -0.1901 -0.6326 -0.2800
   99MOL0     C13232   7.883   2.099  11.315 -0.2440 -0.5220  0.0405
   99MOL0     O13233   7.898   1.998  11.412  0.0360 -0.1174  0.1614
   99MOL0     C13234   8.008   1.926  11.402  0.0946  0.0323 -0.5185
   99MOL0     C13235   7.993   1.792  11.369 -0.3103 -0.7565  0.3632
   99MOL0     C13236   8.112   1.711  11.360 -0.4834 -0.3452  0.8502
   99MOL0     C13237   8.242   1.766  11.373  0.5397 -0.1571  0.3824
   99MOL0     O13238   8.352   1.690  11.344  0.2566  0.3605 -0.8047
   99MOL0     C13239   8.485   1.730  11.383 -0.5519  0.2204 -0.2019
   99MOL0     C13240   8.571   1.598  11.401  0.3018  0.1363  0.0105
   99MOL0     C13241   8.719   1.630  11.410  1.3193  0.5009  0.3322
   99MOL0     C13242   8.788   1.542  11.517  0.5118  0.7378  0.1439
   99MOL0     C13243   8.925   1.599  11.562  0.0942 -0.3205  0.2256
   99MOL0     C13244   9.044   1.596  11.462 -0.3265  0.5347  0.3178
   99MOL0     C13245   9.175   1.647  11.524  0.4734  0.9225 -0.2964
   99MOL0     C13246   9.302   1.658  11.440 -0.7910  0.0794 -1.7914
   99MOL0     N13247   9.294   1.758  11.340 -0.1096 -0.2007  0.0919
   99MOL0     C13248   9.334   1.890  11.346  0.1416 -0.1765 -0.1183
   99MOL0     C13249   9.301   1.952  11.230 -0.2258 -0.5176  0.3365
   99MOL0     C13250   9.342   2.094  11.190  0.0648  0.2701 -0.4639
   99MOL0     C13251   9.349   2.192  11.313 -0.3004 -0.4603 -0.6504
   99MOL0     C13252   9.379   2.335  11.275  0.5931 -0.0656  0.1391
   99MOL0     C13253   9.391   2.407  11.412 -0.4516  0.1391  1.1030
   99MOL0     O13254   9.274   2.398  11.493  0.4003 -0.3275  0.2346
   99MOL0     C13255   9.162   2.477  11.479 -0.4426 -0.2800 -0.4459
   99MOL0     C13256   9.063   2.446  11.576 -1.0676 -0.1421 -0.7061
   99MOL0     C13257   8.940   2.505  11.567  0.4583  0.3852 -0.2515
   99MOL0     C13258   8.911   2.598  11.466  0.6721  0.7991  0.0399
   99MOL0     C13259   8.772   2.654  11.456  0.6771 -0.1079  0.4727
   99MOL0     O13260   8.684   2.631  11.566  0.1502  0.0552 -0.0705
   99MOL0     C13261   8.576   2.723  11.571 -0.9689  0.4432 -0.2433
   99MOL0     C13262   8.568   2.812  11.679 -1.2632  0.4208  0.2216
   99MOL0     C13263   8.458   2.900  11.700 -0.4393  0.1150  0.2689
   99MOL0     C13264   8.360   2.905  11.605  0.4364 -0.0494 -0.0441
   99MOL0     O13265   8.253   2.982  11.623  0.8432 -0.4590 -0.7653
   99MOL0     C13266   8.165   2.929  11.729  0.9882 -0.1237 -0.5029
   99MOL0     C13267   8.064   2.835  11.675 -0.1892 -0.7510 -0.0968
   99MOL0     C13268   7.975   2.902  11.560 -0.6134  0.4264  0.3604
   99MOL0     C13269   7.863   2.806  11.508 -0.6417 -0.5927  0.0850
   99MOL0     C13270   7.830   2.852  11.367 -0.2201 -0.0107  0.4386
   99MOL0     C13271   7.701   2.784  11.322 -0.4861 -0.1663 -0.0222
   99MOL0     C13272   7.657   2.824  11.178  0.2898 -0.0571  0.5399
   99MOL0     C13273   7.520   2.751  11.143 -0.7133 -0.0765 -0.6527
   99MOL0    Cl13274   7.378   2.835  11.200  0.2554 -0.2228 -0.3481
   99MOL0     C13275   8.362   2.820  11.491 -0.8183  0.3731  0.3598
   99MOL0     C13276   8.470   2.726  11.474 -0.1621  0.0209 -0.7947
   99MOL0     O13277   8.740   2.700  11.341 -0.3418 -0.7061 -0.4381
   99MOL0     C13278   9.010   2.630  11.375  0.2776  0.4908  0.6784
   99MOL0     C13279   9.130   2.569  11.382 -0.2269 -0.4221 -0.3115
   99MOL0     N13280   9.248   1.857  11.147  0.1121  0.3117 -0.0143
   99MOL0     N13281   9.246   1.745  11.211  0.1946  0.2547 -0.6557
   99MOL0     C13282   8.255   1.901  11.413 -0.2441  0.4385 -0.8127
   99MOL0     C13283   8.136   1.983  11.425 -1.2666 -0.2229 -0.4416
   99MOL0     C13284   7.743   2.152  11.314  0.0662  0.0730  0.2896
   99MOL0     C13285   7.631   2.072  11.349 -0.3252  0.0613 -0.2165
   99MOL0     C13286   7.503   2.115  11.330  0.0047 -0.0998 -0.0945
   99MOL0     C13287   7.472   2.234  11.267 -0.1585  0.0312 -0.5038
   99MOL0     O13288   7.341   2.254  11.234  0.1026  0.2461 -0.2030
   99MOL0     C13289   7.319   2.356  11.133 -0.8465 -0.3797 -0.1738
   99MOL0     C13290   7.176   2.401  11.117  0.2021 -0.0246  0.3065
   99MOL0     C13291   7.166   2.511  11.009  1.1117  0.6348  0.0753
   99MOL0     C13292   7.029   2.589  11.006 -1.2561  0.0789 -0.7615
   99MOL0     C13293   7.038   2.712  10.931  0.9109  0.9761  0.5095
   99MOL0     C13294   7.037   2.807  10.859 -0.1459 -0.1149  0.5737
   99MOL0     C13295   7.578   2.319  11.238  0.3343  0.1364  0.2156
   99MOL0     C13296   7.714   2.279  11.258 -0.1010 -0.0757  0.0625
   99MOL0     C13297   7.824   2.376  11.219  0.7854  0.2396  0.3024
   99MOL0     H13298   7.895   1.748  11.360  0.7354 -2.9562 -1.1380
   99MOL0     H13299   8.102   1.607  11.329 -0.1726 -0.6303  1.6732
   99MOL0     H13300   8.542   1.786  11.308 -0.2707  0.8394  0.4631
   99MOL0     H13301   8.484   1.793  11.472 -2.5142 -1.3863  0.9849
   99MOL0     H13302   8.543   1.539  11.313  0.3413  1.0952 -0.6627
   99MOL0     H13303   8.537   1.551  11.493  2.6107 -2.1428 -0.1855
   99MOL0     H13304   8.721   1.734  11.443  0.5292  0.0123  2.0517
   99MOL0     H13305   8.765   1.621  11.311  0.4599  1.0910 -0.1345
   99MOL0     H13306   8.714   1.531  11.596 -1.4941 -0.3246 -1.7685
   99MOL0     H13307   8.810   1.447  11.467 -2.8598 -0.5792  0.9157
   99MOL0     H13308   8.916   1.702  11.598 -1.1775 -0.3311 -0.0088
   99MOL0     H13309   8.950   1.538  11.649 -0.0008 -1.1748 -0.3329
   99MOL0     H13310   9.058   1.492  11.431 -0.5782  0.4885  0.3494
   99MOL0     H13311   9.015   1.652  11.372 -2.1287 -1.1263 -0.2249
   99MOL0     H13312   9.204   1.586  11.610  0.4604  1.3417  0.0093
   99MOL0     H13313   9.147   1.743  11.569 -0.3885  0.6717 -0.2645
   99MOL0     H13314   9.387   1.674  11.507 -0.3009  0.4842 -2.5011
   99MOL0     H13315   9.324   1.562  11.394  4.1996  0.5385 -0.8571
   99MOL0     H13316   9.375   1.938  11.434 -2.4724  1.7099  0.1751
   99MOL0     H13317   9.437   2.091  11.137 -1.0169  2.1140 -2.6544
   99MOL0     H13318   9.265   2.126  11.120 -1.2466 -1.5600  0.0541
   99MOL0     H13319   9.254   2.174  11.364  0.9759 -0.8952  1.7555
   99MOL0     H13320   9.423   2.150  11.382 -0.8422 -3.0862 -1.5423
   99MOL0     H13321   9.299   2.382  11.217 -0.3932 -1.4776  0.3166
   99MOL0     H13322   9.463   2.362  11.209 -0.9733  0.0363 -1.9222
   99MOL0     H13323   9.414   2.511  11.385 -1.5656  0.8772  2.8459
   99MOL0     H13324   9.482   2.374  11.464 -1.6821 -0.3835  2.9922
   99MOL0     H13325   9.075   2.378  11.659 -0.7209  1.7054  0.8247
   99MOL0     H13326   8.862   2.487  11.641 -0.2772 -1.0798 -1.3196
   99MOL0     H13327   8.649   2.810  11.752 -0.9959  0.3969 -0.0713
   99MOL0     H13328   8.461   2.962  11.789  0.3521 -1.2297  1.2105
   99MOL0     H13329   8.224   2.884  11.809 -1.1185 -1.9290  0.1500
   99MOL0     H13330   8.117   3.006  11.789  0.8730  0.0359 -0.7968
   99MOL0     H13331   8.118   2.749  11.634  0.6662 -1.6992  2.7653
   99MOL0     H13332   8.001   2.792  11.754 -1.3279 -1.4151 -1.3221
   99MOL0     H13333   7.936   2.996  11.600 -0.1818  0.4769  0.6593
   99MOL0     H13334   8.048   2.923  11.481  4.0060  1.0722  4.3424
   99MOL0     H13335   7.776   2.807  11.574  0.3971  2.6719  1.6287
   99MOL0     H13336   7.901   2.703  11.506  0.1705 -0.2910 -0.1946
   99MOL0     H13337   7.909   2.833  11.294 -0.6714 -0.7358  0.1253
   99MOL0     H13338   7.813   2.960  11.370  1.5346  0.3365 -0.7264
   99MOL0     H13339   7.708   2.676  11.336 -3.0294 -0.1011  2.9310
   99MOL0     H13340   7.614   2.808  11.385  0.5516  1.5484  0.8567
   99MOL0     H13341   7.731   2.774  11.114 -0.4534 -1.2525  0.5926
   99MOL0     H13342   7.660   2.933  11.171  0.2053 -0.1537 -1.4806
   99MOL0     H13343   7.507   2.743  11.035  1.6921 -0.5143 -0.9557
   99MOL0     H13344   7.531   2.655  11.193 -1.5109 -0.2071 -0.7235
   99MOL0     H13345   8.280   2.829  11.420  0.3657 -0.8887 -1.2623
   99MOL0     H13346   8.470   2.656  11.392  0.0003 -0.8201 -0.0933
   99MOL0     H13347   8.997   2.703  11.295  3.3834  4.7481  3.6392
   99MOL0     H13348   9.203   2.592  11.305 -0.7726 -3.0637 -1.7208
   99MOL0     H13349   8.350   1.952  11.418 -1.1198  2.2309 -1.5824
   99MOL0     H13350   8.154   2.085  11.458  0.8752 -1.2517  1.8404
   99MOL0     H13351   7.645   1.975  11.396 -0.6770 -0.9330 -2.0775
   99MOL0     H13352   7.421   2.052  11.364  0.4680 -2.2396 -2.6443
   99MOL0     H13353   7.350   2.318  11.035 -2.7816  1.4071 -1.5844
   99MOL0     H13354   7.381   2.443  11.155 -0.2493 -0.8152 -0.1074
   99MOL0     H13355   7.147   2.444  11.214 -0.7321  1.5962 -0.6313
   99MOL0     H13356   7.120   2.314  11.081  1.9157 -1.2973  0.6299
   99MOL0     H13357   7.182   2.461  10.913  1.0862  3.0031 -1.2354
   99MOL0     H13358   7.257   2.570  11.021  0.4224  1.6574  0.3737
   99MOL0     H13359   6.948   2.524  10.970 -0.2961 -1.4804 -0.2268
   99MOL0     H13360   7.008   2.623  11.108  1.7655 -0.0271 -0.0000
   99MOL0     H13361   7.031   2.878  10.779 -1.6594 -0.0330  0.7246
   99MOL0     H13362   7.576   2.416  11.191  1.7677 -0.5443 -1.3280
   99MOL0     H13363   7.862   2.364  11.117  2.3989  1.7967  0.6674
   99MOL0     H13364   7.801   2.482  11.230 -1.8829 -0.5315  3.4225
   99MOL0     H13365   7.902   2.364  11.295 -1.4933 -2.0188  2.5065
  100MOL0     O13366  10.171   8.530   7.253 -0.3113 -0.6621  0.5422
  100MOL0     C13367  10.181   8.619   7.335  0.2216  0.1190  0.0294
  100MOL0     O13368  10.278   8.710   7.340 -0.3897  0.4513  0.3865
  100MOL0     C13369  10.407   8.691   7.291  0.4776 -0.9513  0.1531
  100MOL0     C13370  10.497   8.793   7.332  0.3487 -0.0087  0.2531
  100MOL0     C13371  10.633   8.795   7.291  1.0277  0.1810  0.3168
  100MOL0     C13372  10.672   8.694   7.196  1.2909  0.2863 -0.5336
  100MOL0     O13373  10.796   8.686   7.144  0.5786  0.1564 -0.2362
  100MOL0     C13374  10.852   8.811   7.113 -0.5372 -0.2717  0.0747
  100MOL0     C13375  10.981   8.800   7.024 -0.0096  0.1169  0.6800
  100MOL0     C13376  11.047   8.942   7.010 -0.0210 -0.1364  0.3787
  100MOL0     C13377  11.180   8.942   6.932  0.7747 -0.0060  0.6399
  100MOL0     C13378  11.145   8.963   6.785  0.1498  0.2163  0.1448
  100MOL0     C13379  11.257   8.929   6.693 -0.3231 -0.4596 -0.5611
  100MOL0     C13380  11.376   9.029   6.718  0.2657  1.3904  0.0677
  100MOL0     C13381  11.462   9.034   6.603 -0.7762 -0.4083 -0.6436
  100MOL0     N13382  11.551   8.916   6.610  0.6952  0.2422 -0.3729
  100MOL0     C13383  11.660   8.894   6.695  1.3757 -0.0557 -0.2780
  100MOL0     C13384  11.701   8.771   6.692 -0.0588  0.1710  1.4083
  100MOL0     C13385  11.819   8.722   6.773  1.1658 -0.6382 -0.2591
  100MOL0     C13386  11.864   8.584   6.718 -0.2313 -0.0128 -0.1031
  100MOL0     C13387  11.988   8.520   6.787  0.0902  0.0668  0.6189
  100MOL0     C13388  12.115   8.605   6.758 -0.3793  0.3303  0.4427
  100MOL0     O13389  12.229   8.554   6.825  0.0985  0.2408  0.5839
  100MOL0     C13390  12.347   8.591   6.776 -1.0826  0.1038 -0.5540
  100MOL0     C13391  12.452   8.503   6.819  0.5609  0.2857 -0.5936
  100MOL0     C13392  12.584   8.530   6.799  0.5167  0.9702 -0.7055
  100MOL0     C13393  12.616   8.649   6.733  0.3463 -0.2127  0.0445
  100MOL0     C13394  12.756   8.681   6.709  0.1634  0.4924 -0.4746
  100MOL0     O13395  12.842   8.585   6.741  0.1782  0.3733  0.0274
  100MOL0     C13396  12.977   8.602   6.750 -0.4838 -0.5930 -0.5480
  100MOL0     C13397  13.042   8.702   6.829 -0.0279  0.4444 -0.0665
  100MOL0     C13398  13.179   8.716   6.841  0.2649 -0.0999  0.0565
  100MOL0     C13399  13.262   8.622   6.782 -0.0043  0.5160 -0.6869
  100MOL0     O13400  13.399   8.632   6.795 -0.0877 -1.3563 -0.1675
  100MOL0     C13401  13.482   8.545   6.723 -0.7743 -0.3804 -0.4060
  100MOL0     C13402  13.635   8.587   6.732  0.2179  0.0964  0.0934
  100MOL0     C13403  13.720   8.483   6.652 -0.0221 -0.0507 -0.0175
  100MOL0     C13404  13.860   8.517   6.679  0.2070 -0.0719  0.5900
  100MOL0     C13405  13.945   8.403   6.632 -0.6330  0.4671  0.3584
  100MOL0     C13406  14.097   8.404   6.655 -0.0986 -0.7747  0.3012
  100MOL0     C13407  14.180   8.296   6.582  1.0968 -0.0952  0.3827
  100MOL0     C13408  14.319   8.282   6.647  0.6652  0.3932 -0.0031
  100MOL0    Cl13409  14.413   8.134   6.610  0.1135 -0.0317 -0.2097
  100MOL0     C13410  13.207   8.519   6.710 -0.1650  0.2430 -0.2356
  100MOL0     C13411  13.067   8.520   6.686 -0.0944  1.1740 -0.2659
  100MOL0     O13412  12.783   8.787   6.660 -0.3143  0.2460 -0.0999
  100MOL0     C13413  12.513   8.733   6.683 -0.9961 -0.7535  0.2433
  100MOL0     C13414  12.376   8.701   6.698 -0.5039 -0.5398  0.3262
  100MOL0     N13415  11.631   8.717   6.589 -0.1855 -0.3256  0.1444
  100MOL0     N13416  11.546   8.798   6.536  0.2893  0.2128  0.4941
  100MOL0     C13417  10.580   8.595   7.155  0.7043 -0.1573 -0.6644
  100MOL0     C13418  10.449   8.597   7.205  0.3849 -0.6767  0.1241
  100MOL0     C13419  10.081   8.640   7.451  0.2692  0.0065  0.0068
  100MOL0     C13420  10.093   8.742   7.555  0.0215  0.3736  0.9070
  100MOL0     C13421  10.007   8.754   7.667  0.3535  0.6404  0.2963
  100MOL0     C13422   9.898   8.673   7.674 -0.7570 -0.5958 -0.1664
  100MOL0     O13423   9.816   8.676   7.783  0.0916 -0.3545  0.3616
  100MOL0     C13424   9.798   8.801   7.852  0.2438 -0.3944 -0.6879
  100MOL0     C13425   9.670   8.777   7.930 -0.0431  0.0570 -0.3106
  100MOL0     C13426   9.647   8.890   8.024 -0.3388 -0.4576  0.4910
  100MOL0     C13427   9.514   8.880   8.107 -0.7288 -0.2076  0.0748
  100MOL0     C13428   9.496   8.749   8.175 -0.7091 -0.4643 -0.2935
  100MOL0     C13429   9.504   8.632   8.213 -0.4316 -0.4555  0.1233
  100MOL0     C13430   9.870   8.576   7.576  0.8444  0.1144 -0.1468
  100MOL0     C13431   9.961   8.559   7.464  0.0377 -0.7087  0.5511
  100MOL0     C13432   9.919   8.452   7.363  0.6548  0.1677  0.6883
  100MOL0     H13433  10.459   8.863   7.405 -0.4657 -0.0277 -0.1414
  100MOL0     H13434  10.700   8.873   7.325  1.0374  0.4947 -0.4166
  100MOL0     H13435  10.787   8.875   7.053  2.4888  2.1098 -0.9445
  100MOL0     H13436  10.884   8.856   7.207  0.8318 -0.7081 -0.1566
  100MOL0     H13437  10.943   8.773   6.925 -0.4097 -1.2870  1.1994
  100MOL0     H13438  11.040   8.717   7.064 -0.1271 -0.2861  0.0311
  100MOL0     H13439  11.074   8.973   7.111  0.5852  0.0013  0.1799
  100MOL0     H13440  10.974   9.015   6.977 -0.6178 -0.7617  0.2979
  100MOL0     H13441  11.251   9.020   6.960 -0.7693  1.5426  0.4064
  100MOL0     H13442  11.226   8.844   6.946  2.1388  0.3775 -0.8748
  100MOL0     H13443  11.052   8.913   6.756 -0.0502  0.5969  0.1258
  100MOL0     H13444  11.132   9.069   6.764 -0.7830 -0.0141 -0.5105
  100MOL0     H13445  11.285   8.823   6.698  0.3118 -0.4542 -2.7934
  100MOL0     H13446  11.226   8.940   6.588 -2.5930 -1.6236 -0.0757
  100MOL0     H13447  11.426   8.998   6.810  3.5952  0.1270 -1.9924
  100MOL0     H13448  11.350   9.135   6.729  0.2356  1.3853  0.0489
  100MOL0     H13449  11.413   9.035   6.505 -0.9552 -1.2394 -0.5730
  100MOL0     H13450  11.534   9.116   6.609  0.4141 -1.4864  0.7456
  100MOL0     H13451  11.706   8.965   6.763  3.2620 -2.0739  0.6969
  100MOL0     H13452  11.904   8.791   6.777  0.6744 -0.0290 -0.1665
  100MOL0     H13453  11.787   8.721   6.878  1.0179 -0.5252 -0.3020
  100MOL0     H13454  11.786   8.511   6.738  0.7701 -0.9132  0.6445
  100MOL0     H13455  11.869   8.592   6.609 -1.8627  1.3673 -0.1217
  100MOL0     H13456  12.004   8.420   6.746 -3.1736 -1.1942  2.0873
  100MOL0     H13457  11.964   8.510   6.893  0.5405 -0.4505  0.6735
  100MOL0     H13458  12.109   8.709   6.791  2.8142  0.7668  0.0179
  100MOL0     H13459  12.123   8.602   6.649 -1.6371 -0.4015  0.3546
  100MOL0     H13460  12.415   8.411   6.863 -0.5915  0.0479 -1.9866
  100MOL0     H13461  12.660   8.455   6.821  0.8432  1.1432 -1.2353
  100MOL0     H13462  12.987   8.779   6.881  1.8042  2.2626 -0.6721
  100MOL0     H13463  13.228   8.798   6.893  1.3196 -0.6255 -0.0804
  100MOL0     H13464  13.476   8.450   6.775 -0.9634 -0.7038 -1.0106
  100MOL0     H13465  13.459   8.538   6.616 -0.2397 -1.1193 -0.4760
  100MOL0     H13466  13.640   8.689   6.692 -2.8733  1.6166  3.0326
  100MOL0     H13467  13.667   8.588   6.836  3.4724 -1.4585 -0.7676
  100MOL0     H13468  13.699   8.385   6.697 -0.0077  0.2718  0.7134
  100MOL0     H13469  13.696   8.486   6.546  2.2978  0.5066 -0.5709
  100MOL0     H13470  13.867   8.551   6.782 -0.2449  0.1253  0.5591
  100MOL0     H13471  13.879   8.602   6.612 -4.0679  1.2953  0.8061
  100MOL0     H13472  13.933   8.401   6.524 -0.4234  2.1166  0.2836
  100MOL0     H13473  13.911   8.309   6.676 -0.5862 -0.5058 -1.6142
  100MOL0     H13474  14.140   8.497   6.617 -0.3336 -0.8339 -0.1164
  100MOL0     H13475  14.120   8.391   6.761  1.0686 -1.6590 -0.0419
  100MOL0     H13476  14.193   8.336   6.481 -0.1051  1.1912  0.7003
  100MOL0     H13477  14.124   8.202   6.577 -1.8836  1.5542 -3.4178
  100MOL0     H13478  14.371   8.370   6.612  1.6247 -0.5383 -0.9833
  100MOL0     H13479  14.315   8.297   6.756  0.1774  0.7373 -0.0641
  100MOL0     H13480  13.267   8.446   6.657  2.4738  1.1073  1.3629
  100MOL0     H13481  13.039   8.440   6.617  1.1768 -0.2506  0.8068
  100MOL0     H13482  12.542   8.822   6.628 -1.8091 -0.3687  0.4177
  100MOL0     H13483  12.305   8.777   6.666  0.2220  0.1761  0.3705
  100MOL0     H13484  10.609   8.512   7.093  1.1787 -1.2156  0.9073
  100MOL0     H13485  10.388   8.517   7.165 -1.8557 -0.1519  2.2699
  100MOL0     H13486  10.185   8.798   7.548  0.7115 -0.6107  1.7150
  100MOL0     H13487  10.035   8.825   7.744 -0.6741 -1.4189  2.7024
  100MOL0     H13488   9.791   8.894   7.793  0.9800 -0.2587 -0.5691
  100MOL0     H13489   9.878   8.821   7.923  0.5010  0.2141 -1.1299
  100MOL0     H13490   9.688   8.680   7.978  2.2864 -1.5002 -3.8534
  100MOL0     H13491   9.577   8.777   7.872 -0.0757 -1.7757 -0.3398
  100MOL0     H13492   9.659   8.980   7.962 -0.1428  0.1413  1.3803
  100MOL0     H13493   9.735   8.899   8.089  1.0062 -2.1239 -1.0021
  100MOL0     H13494   9.507   8.953   8.189 -0.4746 -1.8317  1.6208
  100MOL0     H13495   9.431   8.907   8.042 -0.0805  1.8706  0.0591
  100MOL0     H13496   9.522   8.530   8.239  0.2680 -0.4093 -0.1686
  100MOL0     H13497   9.780   8.516   7.589  0.4934  0.1202 -2.2549
  100MOL0     H13498   9.911   8.490   7.260  0.0220 -1.0265  0.2717
  100MOL0     H13499   9.985   8.365   7.364 -0.2594 -0.5774 -0.6421
  100MOL0     H13500   9.817   8.415   7.380 -0.6909  1.6836 -2.8766
  101MOL0     O13501   7.339   4.235   8.794 -0.0528 -0.4994  0.1797
  101MOL0     C13502   7.247   4.220   8.876  0.7451  0.2117  0.6729
  101MOL0     O13503   7.263   4.159   9.000  0.3990 -0.0663  0.2179
  101MOL0     C13504   7.383   4.103   9.035  0.0302  0.0309 -0.0675
  101MOL0     C13505   7.488   4.186   9.075  0.4241 -0.0579  0.1202
  101MOL0     C13506   7.607   4.137   9.122 -0.2270 -0.0782  0.1738
  101MOL0     C13507   7.633   4.000   9.122  0.5776 -0.0866  0.7805
  101MOL0     O13508   7.756   3.953   9.153 -0.0490 -0.2600 -0.0353
  101MOL0     C13509   7.779   3.811   9.181  0.8433  0.8675 -0.0907
  101MOL0     C13510   7.927   3.817   9.224 -0.5227 -0.0321  0.7658
  101MOL0     C13511   7.972   3.676   9.201  0.1506  0.1049  0.1702
  101MOL0     C13512   8.114   3.657   9.239 -0.6323  0.2000  0.3783
  101MOL0     C13513   8.140   3.507   9.295  0.2801 -0.4407  0.6990
  101MOL0     C13514   8.082   3.475   9.431 -0.2708  0.2281 -0.2940
  101MOL0     C13515   8.090   3.328   9.457 -0.2602 -0.7012 -0.5909
  101MOL0     C13516   8.108   3.300   9.610  0.4752  0.5923  0.4588
  101MOL0     N13517   8.241   3.312   9.669 -0.0459 -1.1545  0.1839
  101MOL0     C13518   8.275   3.288   9.802 -0.4271 -0.7838  0.0196
  101MOL0     C13519   8.402   3.324   9.820  0.1125  0.6721  1.0716
  101MOL0     C13520   8.491   3.341   9.943 -0.1824  0.3574  0.5350
  101MOL0     C13521   8.432   3.253  10.064 -0.1414 -0.0740  0.6170
  101MOL0     C13522   8.533   3.265  10.179 -0.6687 -0.1281 -0.8202
  101MOL0     C13523   8.469   3.197  10.298  0.5686 -0.1630 -0.2722
  101MOL0     O13524   8.524   3.252  10.420  0.1292 -0.6237 -0.0790
  101MOL0     C13525   8.654   3.214  10.456 -0.3193 -0.3284  0.2836
  101MOL0     C13526   8.738   3.123  10.392 -0.1688  0.3189 -0.1491
  101MOL0     C13527   8.872   3.102  10.438  0.1824  0.0679  0.3783
  101MOL0     C13528   8.915   3.164  10.561  0.2912  0.6513  0.3342
  101MOL0     C13529   9.057   3.146  10.604  0.0499 -0.2501 -0.0305
  101MOL0     O13530   9.087   3.214  10.717 -0.1545 -0.1991 -0.0246
  101MOL0     C13531   9.222   3.209  10.750 -0.4529  0.7683 -0.7749
  101MOL0     C13532   9.270   3.110  10.839  0.7371 -0.7220 -1.6378
  101MOL0     C13533   9.401   3.108  10.876 -0.5755  0.0975 -0.2730
  101MOL0     C13534   9.493   3.207  10.834 -0.2127 -0.8852 -0.0733
  101MOL0     O13535   9.620   3.222  10.871 -0.2218 -0.6477  0.1245
  101MOL0     C13536   9.685   3.109  10.939  0.5727  0.0447 -0.1822
  101MOL0     C13537   9.836   3.149  10.952  0.0003 -0.4892  0.2670
  101MOL0     C13538   9.923   3.036  10.993  0.0523 -0.3935  0.1397
  101MOL0     C13539  10.071   3.045  10.963 -0.4597 -0.3607  0.0531
  101MOL0     C13540  10.132   2.909  10.994  0.1034  0.1294  0.0597
  101MOL0     C13541  10.282   2.913  11.031  0.4538 -0.0045  0.3236
  101MOL0     C13542  10.338   2.767  11.056 -0.2061 -0.5584 -0.6166
  101MOL0     C13543  10.474   2.779  11.125  0.7212  0.7157 -0.1084
  101MOL0    Cl13544  10.581   2.892  11.037 -0.0697  0.4308 -0.5540
  101MOL0     C13545   9.446   3.312  10.753 -0.3733  0.3329  0.9399
  101MOL0     C13546   9.310   3.304  10.710 -0.2471  0.0318  0.7811
  101MOL0     O13547   9.138   3.075  10.538  0.0209  0.0991  0.5428
  101MOL0     C13548   8.821   3.236  10.629 -0.0476  0.6785 -0.9426
  101MOL0     C13549   8.698   3.263  10.571  0.6443 -0.6679 -0.0849
  101MOL0     N13550   8.451   3.366   9.701 -0.0758 -0.6640 -0.3409
  101MOL0     N13551   8.362   3.362   9.614 -0.1982 -0.0040  0.6101
  101MOL0     C13552   7.531   3.912   9.073  0.6506 -0.7270 -0.6295
  101MOL0     C13553   7.402   3.966   9.037  0.2051  0.9350  0.2764
  101MOL0     C13554   7.115   4.288   8.847 -0.4523  0.2832 -0.8047
  101MOL0     C13555   7.095   4.362   8.728 -0.0150 -0.2754  0.1130
  101MOL0     C13556   6.967   4.403   8.681 -0.6706 -0.2582  0.7287
  101MOL0     C13557   6.859   4.365   8.763 -0.6237 -0.3730 -0.2784
  101MOL0     O13558   6.731   4.386   8.717 -0.3323 -0.8676  0.9291
  101MOL0     C13559   6.674   4.517   8.734 -0.1436  1.2304 -0.1160
  101MOL0     C13560   6.536   4.515   8.666  0.1102  0.2041  0.0438
  101MOL0     C13561   6.463   4.649   8.673  0.1677  0.1895  0.5304
  101MOL0     C13562   6.335   4.643   8.588 -0.5340  0.4705  0.7551
  101MOL0     C13563   6.237   4.554   8.650 -0.5637 -0.7169  0.1222
  101MOL0     C13564   6.155   4.498   8.708 -0.0370 -0.5971 -0.7549
  101MOL0     C13565   6.882   4.307   8.885  0.2918  0.1055  0.4269
  101MOL0     C13566   7.001   4.262   8.933  0.2433 -0.0189  0.1620
  101MOL0     C13567   6.998   4.192   9.069 -0.3840  0.7834  0.8687
  101MOL0     H13568   7.467   4.292   9.074 -3.0921 -0.6233 -1.1960
  101MOL0     H13569   7.688   4.203   9.151  1.6982 -0.4172 -3.7950
  101MOL0     H13570   7.715   3.765   9.257  2.5457 -3.1164 -0.8197
  101MOL0     H13571   7.766   3.754   9.089 -3.8419  0.1823  0.7503
  101MOL0     H13572   7.948   3.842   9.328  3.7808  1.0220 -0.1171
  101MOL0     H13573   7.977   3.893   9.162 -1.3620  0.3808  0.5866
  101MOL0     H13574   7.962   3.662   9.093 -2.6995  0.4416  0.3204
  101MOL0     H13575   7.908   3.609   9.259 -0.4033 -0.3124 -0.8900
  101MOL0     H13576   8.182   3.683   9.157  2.3485 -0.9162  2.3266
  101MOL0     H13577   8.145   3.724   9.319 -1.3851  3.9425 -2.1930
  101MOL0     H13578   8.102   3.434   9.223  1.0336  1.0561 -1.3042
  101MOL0     H13579   8.249   3.498   9.300  0.2097 -1.8712  0.1796
  101MOL0     H13580   8.143   3.525   9.508 -0.3056  0.1742 -0.2309
  101MOL0     H13581   7.985   3.520   9.451  0.4060  1.7744 -0.3148
  101MOL0     H13582   8.164   3.282   9.390 -1.9251 -0.7308 -2.5134
  101MOL0     H13583   7.993   3.286   9.428  0.6816 -3.1403 -0.4477
  101MOL0     H13584   8.032   3.355   9.666  0.8186 -1.2649  2.8535
  101MOL0     H13585   8.086   3.194   9.619  1.5040  0.3636  0.4573
  101MOL0     H13586   8.204   3.272   9.883 -1.9953 -0.8322 -1.3178
  101MOL0     H13587   8.593   3.319   9.912 -0.5701 -1.6411  0.5540
  101MOL0     H13588   8.482   3.448   9.968 -1.1203  0.6761 -1.0237
  101MOL0     H13589   8.334   3.280  10.104  0.0927 -0.6614  1.6133
  101MOL0     H13590   8.426   3.149  10.030  0.0133  0.4373 -1.0746
  101MOL0     H13591   8.549   3.371  10.199 -0.3947  0.2711 -2.8907
  101MOL0     H13592   8.628   3.215  10.160  0.4651 -0.0615  3.5869
  101MOL0     H13593   8.480   3.088  10.290 -0.0193 -0.3485  1.1497
  101MOL0     H13594   8.361   3.215  10.303 -0.1200 -3.5972  4.3993
  101MOL0     H13595   8.701   3.064  10.309 -0.8334 -1.0066  1.0263
  101MOL0     H13596   8.936   3.042  10.374 -0.1777  3.0568 -3.1208
  101MOL0     H13597   9.208   3.031  10.879  1.6454  0.3074  2.2710
  101MOL0     H13598   9.434   3.032  10.946 -2.7843  0.4338  1.2301
  101MOL0     H13599   9.638   3.094  11.037  0.5550 -0.8045 -0.3160
  101MOL0     H13600   9.681   3.015  10.885 -1.7757  0.1657 -0.3100
  101MOL0     H13601   9.870   3.163  10.848  0.3072 -3.9353 -0.2121
  101MOL0     H13602   9.846   3.243  11.007  3.1887 -0.0929 -0.7540
  101MOL0     H13603   9.926   3.033  11.103  0.4761  0.5572  0.1630
  101MOL0     H13604   9.887   2.942  10.950  1.3543  0.4772 -3.1551
  101MOL0     H13605  10.124   3.123  11.019  1.8457 -0.7501 -1.4209
  101MOL0     H13606  10.084   3.064  10.856 -0.5181 -0.1774  0.0786
  101MOL0     H13607  10.116   2.835  10.915 -1.7126 -0.7486  1.1846
  101MOL0     H13608  10.073   2.862  11.073 -2.9244 -1.4271 -2.8878
  101MOL0     H13609  10.336   2.971  10.956  0.3042 -0.0999  0.1406
  101MOL0     H13610  10.296   2.962  11.127  2.9322 -2.1717  1.2150
  101MOL0     H13611  10.343   2.703  10.967  2.3691 -1.3711  0.0207
  101MOL0     H13612  10.266   2.719  11.123  1.4727 -1.0068  0.9744
  101MOL0     H13613  10.461   2.803  11.231 -1.5482 -1.5182  0.2242
  101MOL0     H13614  10.522   2.681  11.131  1.2083  1.0030  0.7947
  101MOL0     H13615   9.512   3.394  10.728  1.1543 -0.3333  2.6132
  101MOL0     H13616   9.279   3.386  10.647  2.1888 -0.6318 -1.4514
  101MOL0     H13617   8.840   3.265  10.732 -1.7547 -3.1114  0.6283
  101MOL0     H13618   8.624   3.308  10.636 -0.6481 -2.0400 -0.5352
  101MOL0     H13619   7.537   3.806   9.053 -1.2172 -0.7113 -1.5335
  101MOL0     H13620   7.332   3.895   8.993 -0.2364  3.4449 -3.6157
  101MOL0     H13621   7.182   4.384   8.667 -0.3986 -1.7583 -1.0485
  101MOL0     H13622   6.953   4.462   8.591  3.0001 -0.8303 -0.3784
  101MOL0     H13623   6.739   4.579   8.672 -0.5349  0.4069 -1.4133
  101MOL0     H13624   6.673   4.547   8.839 -0.5325  3.4746 -0.7011
  101MOL0     H13625   6.464   4.452   8.720 -2.0195  2.2159 -0.2623
  101MOL0     H13626   6.550   4.482   8.563  2.3367 -0.3995  0.4945
  101MOL0     H13627   6.528   4.725   8.631 -1.1525 -0.8735 -4.0922
  101MOL0     H13628   6.441   4.678   8.776  0.7112 -0.8263  0.9529
  101MOL0     H13629   6.287   4.741   8.603 -2.4855 -0.6127  2.0713
  101MOL0     H13630   6.349   4.617   8.483  0.0314 -2.9552  1.5589
  101MOL0     H13631   6.085   4.466   8.782  0.1299  3.0975  1.2796
  101MOL0     H13632   6.791   4.296   8.943 -0.2541 -0.4526 -0.5137
  101MOL0     H13633   7.079   4.223   9.136  2.2682 -0.5226 -1.5527
  101MOL0     H13634   6.902   4.211   9.118  0.3434  0.2845  2.5409
  101MOL0     H13635   7.004   4.084   9.054  3.3867  1.0325 -0.3834
  102MOL0     O13636  11.180   8.664  10.963  0.3172 -0.1105  0.6579
  102MOL0     C13637  11.074   8.694  10.903 -1.0776 -0.3100 -0.0066
  102MOL0     O13638  11.040   8.817  10.856 -0.1723 -0.1848 -1.1319
  102MOL0     C13639  11.130   8.917  10.828 -0.2929 -0.4162  0.2853
  102MOL0     C13640  11.254   8.903  10.765  0.6712 -0.7084 -0.2056
  102MOL0     C13641  11.323   9.019  10.717  0.1283  0.1352 -0.0860
  102MOL0     C13642  11.276   9.145  10.733 -0.1785 -0.8533  0.0813
  102MOL0     O13643  11.345   9.251  10.680 -0.4093 -0.1887  0.1069
  102MOL0     C13644  11.390   9.352  10.773  0.3476 -0.1572 -0.8714
  102MOL0     C13645  11.506   9.435  10.711 -0.6162 -0.6352  1.1318
  102MOL0     C13646  11.633   9.359  10.673 -0.1459  0.9035  0.1978
  102MOL0     C13647  11.732   9.338  10.795 -0.0161  0.7351 -0.1100
  102MOL0     C13648  11.874   9.300  10.757  0.1223  0.0911  0.6723
  102MOL0     C13649  11.900   9.167  10.690 -0.1869  0.2610 -0.5175
  102MOL0     C13650  12.041   9.151  10.635 -0.8209 -0.4654  0.0579
  102MOL0     C13651  12.078   9.006  10.662  0.0379  0.3817 -0.2823
  102MOL0     N13652  12.205   8.978  10.597 -0.1386 -0.5010 -0.2400
  102MOL0     C13653  12.218   8.972  10.459  0.0193 -0.2381  0.3903
  102MOL0     C13654  12.354   8.973  10.445  0.0710 -0.4929 -0.0322
  102MOL0     C13655  12.417   8.958  10.313  0.2785  0.6121  0.0663
  102MOL0     C13656  12.570   8.968  10.319 -0.2229  0.3408 -0.4483
  102MOL0     C13657  12.639   8.950  10.182  0.0723 -0.0429 -0.5887
  102MOL0     C13658  12.791   8.975  10.192 -0.1899 -0.5798  0.7264
  102MOL0     O13659  12.853   8.871  10.274  0.1805  0.2320 -0.7063
  102MOL0     C13660  12.988   8.871  10.289 -0.1871  0.4820 -0.6587
  102MOL0     C13661  13.065   8.975  10.260 -0.1674  0.7495  0.6623
  102MOL0     C13662  13.200   8.975  10.272  0.7854  0.4232  1.0896
  102MOL0     C13663  13.260   8.856  10.323  0.2662  0.5631 -0.5316
  102MOL0     C13664  13.407   8.843  10.334 -0.0541 -0.0034 -0.4687
  102MOL0     O13665  13.463   8.736  10.399  0.1171  0.6652 -0.0981
  102MOL0     C13666  13.597   8.730  10.419 -0.7954 -0.6736  0.2058
  102MOL0     C13667  13.653   8.837  10.488  0.4835  0.3008 -0.6194
  102MOL0     C13668  13.781   8.831  10.553  0.5067 -0.5276  0.3738
  102MOL0     C13669  13.860   8.716  10.530  0.7448  0.1228  0.2505
  102MOL0     O13670  13.976   8.715  10.590 -0.2259  0.0567 -0.2103
  102MOL0     C13671  14.078   8.619  10.552 -0.3690  0.3514  0.2872
  102MOL0     C13672  14.209   8.647  10.630 -0.4450 -1.1251 -0.4804
  102MOL0     C13673  14.333   8.567  10.583 -1.1526 -0.4161 -0.0053
  102MOL0     C13674  14.416   8.505  10.706  0.4820  0.3020  0.0795
  102MOL0     C13675  14.560   8.477  10.661  0.4942 -0.2366  1.2245
  102MOL0     C13676  14.573   8.365  10.557  0.3846 -0.4153 -0.1889
  102MOL0     C13677  14.724   8.322  10.535  0.2769  0.1247 -0.2809
  102MOL0     C13678  14.775   8.234  10.642 -0.5250 -0.2197  0.4962
  102MOL0    Cl13679  14.900   8.309  10.737  0.1177 -0.0343 -0.0851
  102MOL0     C13680  13.809   8.620  10.438 -0.9030 -0.1673 -0.6453
  102MOL0     C13681  13.677   8.629  10.386 -0.7143 -0.3321  0.0412
  102MOL0     O13682  13.471   8.931  10.273 -0.2712 -0.5072 -0.0186
  102MOL0     C13683  13.178   8.742  10.354 -0.5621 -0.3780 -0.2704
  102MOL0     C13684  13.038   8.751  10.332 -0.7350  0.2594 -0.1274
  102MOL0     N13685  12.415   8.976  10.568 -0.8566  0.6612  0.6848
  102MOL0     N13686  12.328   8.976  10.658 -0.0729 -0.4035 -0.4552
  102MOL0     C13687  11.151   9.163  10.791 -0.1488  0.4724 -0.2623
  102MOL0     C13688  11.090   9.052  10.835  0.8593  0.1056 -0.2444
  102MOL0     C13689  10.960   8.602  10.911  1.0664  0.7399  0.1813
  102MOL0     C13690  10.939   8.523  11.026  0.4700 -0.1158  0.3290
  102MOL0     C13691  10.836   8.440  11.031 -0.9812  0.4261  0.9119
  102MOL0     C13692  10.765   8.402  10.910  0.2490  0.4071 -0.3115
  102MOL0     O13693  10.665   8.310  10.911  0.6938 -0.0249 -0.1532
  102MOL0     C13694  10.572   8.320  11.025  0.0026  0.5669  1.3253
  102MOL0     C13695  10.427   8.273  10.982 -1.1756  0.4182 -0.3014
  102MOL0     C13696  10.408   8.125  10.949 -0.6587 -1.3328  0.1174
  102MOL0     C13697  10.269   8.096  10.889 -0.3251 -0.2611 -0.8422
  102MOL0     C13698  10.268   7.952  10.869  0.3735 -0.1225  0.5704
  102MOL0     C13699  10.291   7.834  10.846 -0.4922  0.1044  0.5601
  102MOL0     C13700  10.783   8.479  10.792 -0.0144 -0.4091 -0.0276
  102MOL0     C13701  10.878   8.585  10.797  0.4017  0.4488 -0.0142
  102MOL0     C13702  10.894   8.646  10.664  0.6423  0.3909  0.4395
  102MOL0     H13703  11.287   8.801  10.745 -0.6231 -1.4755  1.3369
  102MOL0     H13704  11.420   9.002  10.673 -0.7862  0.0310 -2.1679
  102MOL0     H13705  11.306   9.419  10.789  0.4315  0.6244 -3.3065
  102MOL0     H13706  11.428   9.309  10.866 -1.3081 -0.8934 -0.4969
  102MOL0     H13707  11.527   9.522  10.774 -3.8316  2.4981 -1.6888
  102MOL0     H13708  11.470   9.487  10.621  0.6568 -1.5178  0.0744
  102MOL0     H13709  11.682   9.406  10.587 -1.5002 -1.9019 -2.3181
  102MOL0     H13710  11.595   9.262  10.641  1.7386  0.0023  0.5770
  102MOL0     H13711  11.746   9.436  10.842 -2.4071  0.5930  1.0113
  102MOL0     H13712  11.695   9.267  10.869  0.0947  0.5838 -0.1990
  102MOL0     H13713  11.913   9.373  10.687  2.2500 -3.0994 -1.7257
  102MOL0     H13714  11.947   9.297  10.839  1.0772 -2.5144 -0.1798
  102MOL0     H13715  11.867   9.089  10.759 -0.0010  2.4118  2.2009
  102MOL0     H13716  11.829   9.152  10.608 -1.3558 -0.5651  0.6080
  102MOL0     H13717  12.115   9.221  10.676  0.7881  1.4757 -5.2713
  102MOL0     H13718  12.046   9.170  10.527  0.1649 -0.1513  0.1503
  102MOL0     H13719  12.098   9.000  10.769 -2.1268 -0.1536  0.1305
  102MOL0     H13720  11.997   8.939  10.635  0.5098  0.2765 -1.4855
  102MOL0     H13721  12.141   8.958  10.384  2.4395 -0.9079 -2.1342
  102MOL0     H13722  12.388   8.863  10.266  1.4217  0.5031 -0.4564
  102MOL0     H13723  12.376   9.041  10.255  0.7093  1.1021  0.4560
  102MOL0     H13724  12.601   9.062  10.365  2.2564 -0.9504  0.7023
  102MOL0     H13725  12.606   8.898  10.395 -0.7815  2.4888  1.9323
  102MOL0     H13726  12.607   9.037  10.123  0.9067 -0.7117 -2.0793
  102MOL0     H13727  12.611   8.859  10.128  0.7684  0.2418 -1.4635
  102MOL0     H13728  12.802   9.080  10.219 -0.0547  0.0813 -1.6172
  102MOL0     H13729  12.843   8.971  10.095  1.0706 -2.6302  1.4002
  102MOL0     H13730  13.020   9.071  10.239 -0.1832  1.0728  2.0679
  102MOL0     H13731  13.261   9.061  10.247  1.5205 -1.0360 -2.7539
  102MOL0     H13732  13.591   8.922  10.513 -1.6089 -1.2864 -0.1306
  102MOL0     H13733  13.805   8.919  10.612 -1.4265 -1.5548  2.9191
  102MOL0     H13734  14.052   8.514  10.562 -0.8323  0.3213 -1.0801
  102MOL0     H13735  14.105   8.629  10.447 -0.8865 -0.3275  0.0872
  102MOL0     H13736  14.234   8.753  10.622  1.1244 -1.4932 -0.8578
  102MOL0     H13737  14.178   8.616  10.730 -2.4884  0.7557 -0.4619
  102MOL0     H13738  14.303   8.485  10.518 -1.5192 -1.2684  1.2007
  102MOL0     H13739  14.398   8.638  10.532 -1.6051 -0.4173 -0.6034
  102MOL0     H13740  14.369   8.409  10.731  1.2950 -0.4676 -1.2136
  102MOL0     H13741  14.416   8.560  10.800  1.9085 -2.7804  2.0414
  102MOL0     H13742  14.618   8.447  10.748  0.3912 -0.6183  1.1664
  102MOL0     H13743  14.600   8.564  10.607  2.3365 -1.9161 -0.3112
  102MOL0     H13744  14.509   8.285  10.595 -2.7854  2.6612  1.3622
  102MOL0     H13745  14.530   8.400  10.463 -0.1709 -0.7325 -0.0542
  102MOL0     H13746  14.788   8.410  10.533  0.1931  0.3951  3.4234
  102MOL0     H13747  14.738   8.278  10.435  0.2323  3.3324 -1.8309
  102MOL0     H13748  14.696   8.204  10.711  0.8089  2.4159  3.3916
  102MOL0     H13749  14.810   8.141  10.597  0.5485 -0.3168  1.4916
  102MOL0     H13750  13.870   8.540  10.398  2.1601  1.8103 -0.2886
  102MOL0     H13751  13.638   8.548  10.324 -3.0477  1.3526 -0.8146
  102MOL0     H13752  13.220   8.652  10.396  1.6608  0.8798  0.3482
  102MOL0     H13753  12.967   8.671  10.350  1.1142 -1.9025 -1.7116
  102MOL0     H13754  11.103   9.261  10.793  1.2973  1.2796 -2.1191
  102MOL0     H13755  10.993   9.069  10.881  2.7770  3.3168  3.1596
  102MOL0     H13756  11.009   8.525  11.109 -0.2741 -1.2214  1.0117
  102MOL0     H13757  10.826   8.387  11.125  1.2737 -1.5224  0.1497
  102MOL0     H13758  10.566   8.418  11.074  1.7315  0.2803  2.1921
  102MOL0     H13759  10.606   8.257  11.108 -2.0834 -0.5189  1.4264
  102MOL0     H13760  10.395   8.341  10.902  2.6678  1.1831 -1.4093
  102MOL0     H13761  10.364   8.280  11.071  1.1726  0.9267  1.4142
  102MOL0     H13762  10.429   8.072  11.042  3.6087  0.9016  0.7017
  102MOL0     H13763  10.491   8.093  10.885 -1.8530  0.1683 -2.3701
  102MOL0     H13764  10.193   8.116  10.965 -0.6133 -3.7502 -0.0014
  102MOL0     H13765  10.235   8.147  10.799 -1.5827 -1.0008 -0.8115
  102MOL0     H13766  10.330   7.734  10.837  0.8236  0.5319  1.3706
  102MOL0     H13767  10.729   8.457  10.700 -0.9335  0.2472  0.3454
  102MOL0     H13768  10.819   8.619  10.589  1.2980  2.7574 -1.1903
  102MOL0     H13769  10.881   8.754  10.674 -1.9134  0.4541 -2.0914
  102MOL0     H13770  10.995   8.630  10.624  0.5733 -5.4808  1.7693
  103MOL0     O13771   6.332   4.137  11.131  0.2799 -0.1572 -0.3129
  103MOL0     C13772   6.378   4.122  11.247  1.2126  0.0879 -0.2296
  103MOL0     O13773   6.509   4.117  11.284  0.3607 -0.4638 -0.0238
  103MOL0     C13774   6.611   4.121  11.192  0.6626 -0.0380  0.0573
  103MOL0     C13775   6.720   4.040  11.232  0.7936 -0.5541  0.3986
  103MOL0     C13776   6.837   4.056  11.168 -0.5285 -0.3988  0.3539
  103MOL0     C13777   6.847   4.150  11.063 -0.1701  0.3928  0.1847
  103MOL0     O13778   6.972   4.165  11.003 -0.2031 -0.0611 -0.1672
  103MOL0     C13779   7.072   4.220  11.093  0.4291  1.5146  0.0996
  103MOL0     C13780   7.210   4.150  11.089  0.3185 -0.1395  0.8566
  103MOL0     C13781   7.328   4.247  11.147  0.0087 -0.1863  1.0847
  103MOL0     C13782   7.459   4.171  11.157  0.2174 -0.0665  0.1877
  103MOL0     C13783   7.578   4.263  11.178 -0.8055  0.0058 -0.3294
  103MOL0     C13784   7.717   4.200  11.164 -0.0945 -0.0246  0.0006
  103MOL0     C13785   7.840   4.285  11.150 -0.0808 -0.6411  0.6343
  103MOL0     C13786   7.956   4.194  11.149  0.3233  0.6584  0.3685
  103MOL0     N13787   8.079   4.271  11.153  0.0098 -0.1513  0.0219
  103MOL0     C13788   8.115   4.349  11.269 -0.4774  0.1813  0.5825
  103MOL0     C13789   8.210   4.430  11.218  0.4757  0.3427  0.0770
  103MOL0     C13790   8.291   4.521  11.301  0.6703 -0.5639  0.3301
  103MOL0     C13791   8.438   4.480  11.302  0.6233 -0.2076  0.0699
  103MOL0     C13792   8.513   4.567  11.420  0.4730  0.3897 -0.7360
  103MOL0     C13793   8.658   4.589  11.396 -0.6199  0.5804 -0.0051
  103MOL0     O13794   8.709   4.450  11.400 -0.2167  0.3326 -0.3000
  103MOL0     C13795   8.843   4.418  11.430  0.0116  0.4484 -0.0731
  103MOL0     C13796   8.877   4.286  11.479  0.3302 -0.5681 -0.1567
  103MOL0     C13797   9.011   4.257  11.513  0.0815 -0.0056  0.7172
  103MOL0     C13798   9.107   4.362  11.492  0.1960 -0.2791  0.0945
  103MOL0     C13799   9.251   4.337  11.530 -0.0309 -0.4276  0.2370
  103MOL0     O13800   9.284   4.198  11.548  0.3404 -0.3570 -0.2083
  103MOL0     C13801   9.403   4.171  11.591 -0.4746  0.6716 -0.2273
  103MOL0     C13802   9.502   4.101  11.516  0.3415  0.3547  0.1514
  103MOL0     C13803   9.627   4.065  11.571 -0.1176 -0.1170 -0.8194
  103MOL0     C13804   9.667   4.110  11.697  0.3056  0.5486 -0.0047
  103MOL0     O13805   9.795   4.076  11.738 -0.3868  0.1784 -0.3120
  103MOL0     C13806   9.826   4.075  11.877  0.2544 -0.1494  0.2191
  103MOL0     C13807   9.914   3.962  11.898  0.1766  0.6497 -0.8776
  103MOL0     C13808  10.045   3.984  11.818  0.7255 -0.4230  0.6552
  103MOL0     C13809  10.168   3.950  11.887  0.7626  0.4321 -0.4588
  103MOL0     C13810  10.285   3.999  11.816 -0.3550 -0.3375  0.8816
  103MOL0     C13811  10.416   3.970  11.895 -1.3920  0.5907 -0.5106
  103MOL0     C13812  10.535   4.061  11.850 -0.4183  0.0030 -0.6047
  103MOL0     C13813  10.666   3.979  11.856 -1.1731  0.1124  0.6733
  103MOL0    Cl13814  10.803   4.062  11.772  0.0490 -0.0600  0.6140
  103MOL0     C13815   9.581   4.201  11.768  0.6300  0.2610  0.4405
  103MOL0     C13816   9.445   4.212  11.721 -0.8961  0.6665  0.7578
  103MOL0     O13817   9.327   4.433  11.548 -0.4785  0.0722 -0.0629
  103MOL0     C13818   9.072   4.494  11.446 -0.0759  0.2500  0.1242
  103MOL0     C13819   8.943   4.519  11.417 -0.0360  0.4532 -0.8115
  103MOL0     N13820   8.229   4.403  11.085  0.5168 -0.7115  0.4307
  103MOL0     N13821   8.135   4.320  11.040  0.0738  0.2260  0.0008
  103MOL0     C13822   6.741   4.217  11.017  0.2223 -0.2770  0.4201
  103MOL0     C13823   6.615   4.202  11.082  0.4499 -0.8913  0.0679
  103MOL0     C13824   6.275   4.099  11.357  0.2753  0.4421  0.1223
  103MOL0     C13825   6.138   4.095  11.315  0.3897  0.0026 -0.5725
  103MOL0     C13826   6.037   4.071  11.416 -0.4236  0.6223  0.1763
  103MOL0     C13827   6.073   4.032  11.544 -0.0325  0.4589 -0.2866
  103MOL0     O13828   5.986   3.986  11.635  0.4777  0.1861 -0.0560
  103MOL0     C13829   5.840   3.989  11.619  0.3131  0.8467 -0.4159
  103MOL0     C13830   5.793   4.133  11.640 -0.0235  0.4133  0.5430
  103MOL0     C13831   5.652   4.164  11.576 -0.2115  0.6292  0.3967
  103MOL0     C13832   5.546   4.108  11.671 -0.6724 -0.5984  0.0655
  103MOL0     C13833   5.404   4.131  11.632 -0.0959 -0.3936  0.8149
  103MOL0     C13834   5.284   4.133  11.590 -1.0513  0.0601 -0.5279
  103MOL0     C13835   6.200   4.054  11.590  0.4060 -0.9769 -0.3772
  103MOL0     C13836   6.301   4.081  11.496 -0.4631 -0.8735 -0.2560
  103MOL0     C13837   6.443   4.092  11.556  0.2534  0.6479  0.3218
  103MOL0     H13838   6.721   3.985  11.326  2.3436  0.8473  1.2518
  103MOL0     H13839   6.930   4.012  11.203  0.9511  3.3139  1.5973
  103MOL0     H13840   7.089   4.319  11.049 -1.3107  0.4355 -3.3951
  103MOL0     H13841   7.040   4.232  11.197 -1.2752  4.2025 -0.6364
  103MOL0     H13842   7.233   4.127  10.984 -0.4618 -4.4930  1.4820
  103MOL0     H13843   7.204   4.058  11.147  0.0087 -0.8231 -0.2395
  103MOL0     H13844   7.303   4.296  11.241  1.1125 -1.0624  1.8551
  103MOL0     H13845   7.322   4.334  11.080 -2.2957  0.0726  1.5394
  103MOL0     H13846   7.454   4.108  11.246 -0.5234  1.0128  0.9363
  103MOL0     H13847   7.480   4.110  11.069 -0.4205  1.9611 -1.4542
  103MOL0     H13848   7.572   4.351  11.114 -0.3008  0.0789 -0.2833
  103MOL0     H13849   7.572   4.291  11.284 -3.8866  0.9146 -0.6551
  103MOL0     H13850   7.725   4.142  11.257  1.3188  0.5228  0.2458
  103MOL0     H13851   7.707   4.141  11.072  0.0045  1.6922 -1.1510
  103MOL0     H13852   7.850   4.366  11.223  2.4320  0.6420 -0.9662
  103MOL0     H13853   7.848   4.346  11.059 -0.1364  0.9564  1.6431
  103MOL0     H13854   7.968   4.129  11.236  1.7046  2.3639  1.5416
  103MOL0     H13855   7.950   4.136  11.056 -0.2996  1.7610 -0.3007
  103MOL0     H13856   8.083   4.343  11.372  1.5815 -1.8047  1.1863
  103MOL0     H13857   8.280   4.628  11.277  4.8342  0.0053  0.3456
  103MOL0     H13858   8.252   4.503  11.401 -0.3453 -1.7528 -0.2484
  103MOL0     H13859   8.450   4.374  11.326 -4.4167 -0.4256  3.1573
  103MOL0     H13860   8.481   4.504  11.204  1.5455  0.9067  0.7347
  103MOL0     H13861   8.487   4.525  11.517  2.3523  1.2239  0.1906
  103MOL0     H13862   8.468   4.666  11.410 -2.8600 -0.9579 -0.3557
  103MOL0     H13863   8.696   4.662  11.468  1.4771 -0.5324  0.0813
  103MOL0     H13864   8.667   4.628  11.294 -2.9612 -0.6540 -0.7548
  103MOL0     H13865   8.804   4.206  11.496  1.2563 -1.9502 -2.2797
  103MOL0     H13866   9.035   4.160  11.557  1.9409  0.3630  0.6255
  103MOL0     H13867   9.488   4.071  11.412  1.7856 -2.7038  0.7385
  103MOL0     H13868   9.698   4.009  11.511  0.2840 -0.7370  0.1961
  103MOL0     H13869   9.863   4.175  11.902 -4.8684  2.3912 -0.7500
  103MOL0     H13870   9.728   4.068  11.925 -0.2479  1.3313 -0.5213
  103MOL0     H13871   9.919   3.955  12.007 -4.8297  0.9615 -0.3804
  103MOL0     H13872   9.868   3.868  11.868 -1.2066  0.4530  1.5672
  103MOL0     H13873  10.036   3.921  11.728  3.4788  1.6460 -1.2440
  103MOL0     H13874  10.052   4.086  11.780 -1.1668  0.3751  2.2858
  103MOL0     H13875  10.178   3.842  11.898  0.1292  0.3153 -0.9846
  103MOL0     H13876  10.169   3.998  11.986 -0.0521 -0.7713  0.1518
  103MOL0     H13877  10.271   4.107  11.819  0.4051 -0.2378  3.1966
  103MOL0     H13878  10.287   3.972  11.710  1.4814  2.0093  0.2084
  103MOL0     H13879  10.397   3.992  12.000  2.0369  0.7597  0.1893
  103MOL0     H13880  10.443   3.865  11.878 -2.2708  0.3902 -0.7109
  103MOL0     H13881  10.541   4.154  11.907 -0.3315 -0.0319 -0.5570
  103MOL0     H13882  10.517   4.083  11.744 -0.5013 -3.1581 -1.3661
  103MOL0     H13883  10.690   3.949  11.958 -0.2793  0.2869  0.5206
  103MOL0     H13884  10.655   3.884  11.802 -1.2496  0.0471  0.8031
  103MOL0     H13885   9.610   4.253  11.859  0.1103  1.0301  0.1743
  103MOL0     H13886   9.370   4.249  11.790 -2.0961 -0.5940  0.1961
  103MOL0     H13887   9.152   4.565  11.427  0.4474 -0.3289  0.1183
  103MOL0     H13888   8.906   4.611  11.373 -0.9620 -0.9321 -3.0779
  103MOL0     H13889   6.746   4.284  10.932 -2.2293 -2.9661 -2.0257
  103MOL0     H13890   6.529   4.263  11.055 -0.8114 -2.1136  1.1252
  103MOL0     H13891   6.095   4.110  11.216 -0.2676  1.0947 -0.1430
  103MOL0     H13892   5.935   4.074  11.380 -0.2351  0.5664 -0.3822
  103MOL0     H13893   5.788   3.939  11.701 -0.7355 -0.2075 -1.6801
  103MOL0     H13894   5.808   3.946  11.524 -1.0064 -2.5176  1.4008
  103MOL0     H13895   5.868   4.202  11.601 -0.5893  1.4189  1.1817
  103MOL0     H13896   5.790   4.153  11.747 -0.6237  0.7488  0.4715
  103MOL0     H13897   5.649   4.104  11.485 -0.0881  0.5271  0.4616
  103MOL0     H13898   5.632   4.271  11.564 -3.3854  0.5130  3.2031
  103MOL0     H13899   5.561   4.000  11.679 -1.1473 -0.7663 -1.1058
  103MOL0     H13900   5.562   4.157  11.767  0.8380 -3.3722  1.3449
  103MOL0     H13901   5.180   4.113  11.572 -1.3865 -1.0937  2.1830
  103MOL0     H13902   6.217   4.041  11.696 -0.8999  2.9050  0.4659
  103MOL0     H13903   6.444   4.089  11.665  0.6821  0.1798  0.3054
  103MOL0     H13904   6.496   4.007  11.511 -1.4663  0.3767 -1.3569
  103MOL0     H13905   6.487   4.189  11.533 -1.3524  1.4136  0.2900
  104MOL0     O13906   1.768   4.670   6.568 -0.3351 -0.2787 -0.0335
  104MOL0     C13907   1.687   4.763   6.574 -0.2243  0.1685  0.3665
  104MOL0     O13908   1.725   4.889   6.603 -0.4116 -0.1306 -0.2951
  104MOL0     C13909   1.848   4.930   6.647  0.2558  0.5935  0.4952
  104MOL0     C13910   1.906   4.863   6.752  0.5531 -0.2067 -0.0404
  104MOL0     C13911   2.035   4.902   6.782  0.2053 -0.3576 -0.3531
  104MOL0     C13912   2.088   5.025   6.733  0.2368  1.3177 -0.1873
  104MOL0     O13913   2.211   5.079   6.764  0.2740  0.3180  0.5116
  104MOL0     C13914   2.273   5.051   6.886  0.1461 -0.2492  0.1226
  104MOL0     C13915   2.386   5.148   6.916 -0.1626 -0.5065  0.3738
  104MOL0     C13916   2.473   5.194   6.797  0.8022  0.3608  0.2233
  104MOL0     C13917   2.610   5.263   6.839 -0.2674  0.6736  0.2797
  104MOL0     C13918   2.673   5.333   6.720  0.4066 -0.1670  0.0750
  104MOL0     C13919   2.805   5.403   6.759 -0.0436 -0.0117  0.3367
  104MOL0     C13920   2.901   5.401   6.637 -0.3134  0.3168  0.0675
  104MOL0     C13921   3.037   5.460   6.682 -0.3331  1.4033  0.7159
  104MOL0     N13922   3.036   5.602   6.722  0.1843 -0.0266  0.1217
  104MOL0     C13923   3.008   5.718   6.649 -0.0892 -0.1033  1.0004
  104MOL0     C13924   2.981   5.815   6.747 -0.5501 -0.2922 -0.4699
  104MOL0     C13925   2.965   5.954   6.714 -0.8513 -0.0356  0.0229
  104MOL0     C13926   3.103   6.016   6.703 -0.0762 -0.2899 -0.4920
  104MOL0     C13927   3.100   6.155   6.638  0.6494  0.1190  0.1958
  104MOL0     C13928   3.246   6.208   6.620 -0.4225  0.0960 -0.7615
  104MOL0     O13929   3.307   6.221   6.748 -0.6745  0.1559 -0.5088
  104MOL0     C13930   3.445   6.247   6.740 -0.0482 -0.3874 -0.4844
  104MOL0     C13931   3.532   6.175   6.662 -0.1410 -0.8172 -0.0343
  104MOL0     C13932   3.665   6.213   6.640 -0.4582  0.1545  0.3437
  104MOL0     C13933   3.717   6.336   6.701  0.3175  0.0459 -0.6447
  104MOL0     C13934   3.858   6.375   6.689  0.1524 -0.1793  1.0465
  104MOL0     O13935   3.904   6.477   6.764 -0.2404 -0.4321 -0.1139
  104MOL0     C13936   4.035   6.497   6.792 -0.1914  0.5835  1.3672
  104MOL0     C13937   4.060   6.560   6.916  0.0583  0.0774 -0.2257
  104MOL0     C13938   4.193   6.586   6.952  0.0883  0.2793  0.7986
  104MOL0     C13939   4.303   6.550   6.872  0.2616  0.1221 -0.6423
  104MOL0     O13940   4.430   6.570   6.912  0.0305  0.3836  0.7783
  104MOL0     C13941   4.450   6.667   7.019 -0.1661  0.8860 -0.4932
  104MOL0     C13942   4.601   6.695   7.038 -1.3257  1.2907  0.6432
  104MOL0     C13943   4.687   6.580   7.094 -0.7099  1.0627  0.9416
  104MOL0     C13944   4.837   6.618   7.100 -0.2089 -0.6155  0.2375
  104MOL0     C13945   4.925   6.528   7.183  0.6719 -0.2292 -0.4550
  104MOL0     C13946   5.069   6.545   7.137 -0.0610  0.6287  0.0484
  104MOL0     C13947   5.133   6.677   7.173 -0.1616 -1.3678 -0.5161
  104MOL0     C13948   5.149   6.693   7.327 -0.1195  0.9795  0.1014
  104MOL0    Cl13949   5.283   6.585   7.384 -0.8913 -0.2504  0.0820
  104MOL0     C13950   4.274   6.495   6.748  0.4852  0.9781 -0.1680
  104MOL0     C13951   4.140   6.473   6.709  0.8557 -0.5085 -1.4604
  104MOL0     O13952   3.930   6.302   6.620  0.1845  0.4894  0.2040
  104MOL0     C13953   3.627   6.406   6.781 -0.1050  0.0230 -1.1859
  104MOL0     C13954   3.494   6.366   6.799 -0.0866 -0.5171  0.2111
  104MOL0     N13955   3.001   5.762   6.875 -0.7109  0.4534  0.4434
  104MOL0     N13956   3.039   5.639   6.855  0.7987 -0.0903 -0.3264
  104MOL0     C13957   2.020   5.096   6.640  0.5137 -0.5191  0.6012
  104MOL0     C13958   1.902   5.041   6.593  0.1301 -0.0168 -0.8482
  104MOL0     C13959   1.543   4.735   6.542  0.3607  0.7095  0.8737
  104MOL0     C13960   1.468   4.851   6.530 -0.0203 -0.0311 -0.7102
  104MOL0     C13961   1.329   4.841   6.511  0.2293  0.7269  0.7362
  104MOL0     C13962   1.271   4.716   6.498  0.1189  1.0512 -0.2956
  104MOL0     O13963   1.136   4.693   6.515 -0.4726 -0.2545 -0.2313
  104MOL0     C13964   1.055   4.722   6.408  0.4894 -1.1256  0.8369
  104MOL0     C13965   1.068   4.610   6.302  0.2905  0.5732 -0.2696
  104MOL0     C13966   1.017   4.472   6.340  0.1877 -0.0970  0.0450
  104MOL0     C13967   1.061   4.355   6.253  0.6665  0.6021  0.0943
  104MOL0     C13968   1.198   4.311   6.286 -1.0630  0.2070  0.4659
  104MOL0     C13969   1.317   4.273   6.320  0.5291  0.1495 -0.4255
  104MOL0     C13970   1.341   4.605   6.498 -0.2053  0.4806 -0.1121
  104MOL0     C13971   1.476   4.604   6.520  0.3185 -0.5655 -0.8533
  104MOL0     C13972   1.551   4.479   6.521 -0.4208 -0.1609  0.8157
  104MOL0     H13973   1.868   4.776   6.804  0.2532  0.6509  1.2126
  104MOL0     H13974   2.094   4.852   6.858  3.5953  2.5412 -0.8197
  104MOL0     H13975   2.196   5.065   6.963  0.4098 -0.9950  0.5307
  104MOL0     H13976   2.322   4.955   6.865 -0.3633 -0.4768 -0.0211
  104MOL0     H13977   2.455   5.113   6.994  1.7206  2.7436  0.3491
  104MOL0     H13978   2.345   5.242   6.955 -1.0200 -0.8997  0.4329
  104MOL0     H13979   2.409   5.255   6.733 -1.0073 -1.2313  0.4303
  104MOL0     H13980   2.499   5.105   6.740 -0.2342 -1.1987  2.0774
  104MOL0     H13981   2.599   5.325   6.929  0.4187 -2.3854  2.6197
  104MOL0     H13982   2.674   5.179   6.866  1.7204  2.1724  0.4282
  104MOL0     H13983   2.693   5.253   6.649  0.8776  0.5528 -0.6278
  104MOL0     H13984   2.603   5.405   6.676  0.8050  0.9706  1.2313
  104MOL0     H13985   2.778   5.508   6.779 -3.1193 -0.4765 -0.8714
  104MOL0     H13986   2.851   5.355   6.846 -1.2877 -1.6457  0.1392
  104MOL0     H13987   2.861   5.461   6.554  1.9689 -0.1374 -1.4343
  104MOL0     H13988   2.910   5.298   6.600 -0.9084  1.1676 -2.6715
  104MOL0     H13989   3.079   5.396   6.759 -0.2880 -0.1939 -0.5853
  104MOL0     H13990   3.101   5.451   6.593 -0.0292 -1.2326  1.1275
  104MOL0     H13991   2.997   5.724   6.542  0.1721 -2.6892  0.7684
  104MOL0     H13992   2.912   5.964   6.619  0.8205  1.3153 -0.8210
  104MOL0     H13993   2.908   6.006   6.791  0.5325  0.3965  0.7963
  104MOL0     H13994   3.144   6.015   6.804 -3.6824  0.9590  1.1621
  104MOL0     H13995   3.169   5.953   6.643 -0.1179 -0.7961 -0.0097
  104MOL0     H13996   3.051   6.238   6.690  3.6454  0.6611  2.4625
  104MOL0     H13997   3.059   6.160   6.537  4.7100 -0.3463 -1.6866
  104MOL0     H13998   3.230   6.310   6.584 -0.1486 -0.3295 -2.1559
  104MOL0     H13999   3.297   6.141   6.550  0.3929  1.2331 -1.2899
  104MOL0     H14000   3.497   6.088   6.607 -1.1944 -0.2879 -0.2242
  104MOL0     H14001   3.726   6.149   6.577 -1.1640 -2.1206  1.8393
  104MOL0     H14002   3.980   6.588   6.983 -0.8917  3.0419 -2.3713
  104MOL0     H14003   4.212   6.640   7.045  3.3119  0.1761  0.3280
  104MOL0     H14004   4.409   6.766   6.997 -1.1787  0.0619 -2.5554
  104MOL0     H14005   4.409   6.625   7.111  0.1333 -1.9854 -1.5666
  104MOL0     H14006   4.649   6.714   6.942  0.5420 -2.2792  0.7057
  104MOL0     H14007   4.614   6.787   7.096  0.3989  0.5398  1.5204
  104MOL0     H14008   4.645   6.533   7.183 -0.6463 -0.3840  0.2341
  104MOL0     H14009   4.677   6.502   7.018 -0.0233  0.7484  1.1649
  104MOL0     H14010   4.836   6.716   7.148  0.0890 -0.4171 -0.1598
  104MOL0     H14011   4.865   6.618   6.995 -2.3783 -1.7129 -0.4016
  104MOL0     H14012   4.898   6.423   7.169 -1.1677  0.2017 -0.3721
  104MOL0     H14013   4.909   6.571   7.282  0.0957  3.0533 -1.8285
  104MOL0     H14014   5.136   6.470   7.180  1.5175  1.7848 -0.2896
  104MOL0     H14015   5.087   6.526   7.030  0.4511  1.1794  0.0298
  104MOL0     H14016   5.073   6.759   7.131  1.5172  0.0748 -0.2360
  104MOL0     H14017   5.232   6.692   7.127 -0.5299 -0.7778 -1.1482
  104MOL0     H14018   5.179   6.796   7.347  1.3163  1.0500 -2.0885
  104MOL0     H14019   5.053   6.672   7.375 -0.1403  0.2884 -0.2307
  104MOL0     H14020   4.358   6.453   6.694  0.8782  2.5142 -0.7926
  104MOL0     H14021   4.119   6.441   6.608 -1.0076  0.5622 -1.4683
  104MOL0     H14022   3.663   6.494   6.834 -0.3771 -0.6997  0.2371
  104MOL0     H14023   3.433   6.437   6.853 -3.1603 -1.1808 -2.0612
  104MOL0     H14024   2.061   5.183   6.590  1.8956  0.2539  2.9084
  104MOL0     H14025   1.850   5.096   6.516  1.2251 -0.0952 -1.6562
  104MOL0     H14026   1.508   4.951   6.543  2.3654 -1.3147  3.7739
  104MOL0     H14027   1.269   4.931   6.516 -0.4929  0.2607  0.5747
  104MOL0     H14028   1.085   4.818   6.366 -1.2933  0.1566  2.3177
  104MOL0     H14029   0.949   4.726   6.435 -0.0736 -1.2674 -1.1809
  104MOL0     H14030   1.174   4.612   6.275  0.5576  0.7100  0.7591
  104MOL0     H14031   1.017   4.649   6.213  3.1652  1.9815 -1.4654
  104MOL0     H14032   0.908   4.470   6.327  0.1580  1.5940 -0.1583
  104MOL0     H14033   1.045   4.456   6.444  1.9296 -0.2469 -0.4165
  104MOL0     H14034   1.005   4.262   6.271 -2.1556  2.4423  1.5514
  104MOL0     H14035   1.044   4.388   6.151 -0.9150  3.1672  1.1019
  104MOL0     H14036   1.411   4.247   6.364 -0.6706 -0.3373  2.0459
  104MOL0     H14037   1.290   4.509   6.506  1.1035 -0.1368  1.2886
  104MOL0     H14038   1.492   4.388   6.539  0.7536 -1.1670 -0.1696
  104MOL0     H14039   1.596   4.471   6.421  1.3732 -1.1440  1.6375
  104MOL0     H14040   1.635   4.485   6.592  0.0462 -0.8354  0.3345
  105MOL0     O14041   5.083   2.463   2.974 -0.0049 -0.3993  0.4537
  105MOL0     C14042   5.042   2.578   2.961 -0.2707 -0.0552 -0.2942
  105MOL0     O14043   5.131   2.686   2.930 -0.0124  0.3764 -0.1145
  105MOL0     C14044   5.261   2.649   2.894  0.6659  0.4474  0.0530
  105MOL0     C14045   5.360   2.622   2.982  0.1032  0.4433  0.2335
  105MOL0     C14046   5.477   2.577   2.934 -0.2858  0.2523 -0.6922
  105MOL0     C14047   5.510   2.560   2.795 -0.2005 -0.1171  0.1195
  105MOL0     O14048   5.634   2.510   2.764 -0.2280 -0.0624  0.1873
  105MOL0     C14049   5.670   2.521   2.626 -0.5676  0.4654 -0.1169
  105MOL0     C14050   5.698   2.677   2.601 -0.6981  1.0761 -0.3612
  105MOL0     C14051   5.827   2.707   2.684  0.6175  0.1431 -0.2569
  105MOL0     C14052   5.937   2.759   2.601 -0.5996 -0.7021  0.3807
  105MOL0     C14053   5.930   2.911   2.564 -0.7355  1.4453 -0.1637
  105MOL0     C14054   6.024   2.945   2.450 -0.6358  0.1927 -0.2085
  105MOL0     C14055   6.029   3.095   2.416 -0.3943  0.2392 -0.1458
  105MOL0     C14056   6.123   3.187   2.508 -0.2516 -0.4692 -0.7853
  105MOL0     N14057   6.267   3.146   2.494  0.0737 -0.0837  0.2557
  105MOL0     C14058   6.319   3.102   2.384  0.1808  0.6886 -0.2274
  105MOL0     C14059   6.431   3.032   2.419  0.5594 -0.2838 -0.0768
  105MOL0     C14060   6.525   2.955   2.336 -0.1573  0.1589 -0.2602
  105MOL0     C14061   6.628   3.052   2.291 -0.3669 -0.0604  0.0427
  105MOL0     C14062   6.591   3.174   2.209 -0.5524 -0.8450  0.4840
  105MOL0     C14063   6.720   3.252   2.172 -0.0208 -0.0264 -0.3722
  105MOL0     O14064   6.797   3.166   2.084  0.2146 -0.6749 -0.1225
  105MOL0     C14065   6.919   3.197   2.041  0.2800  0.3539 -0.5555
  105MOL0     C14066   6.980   3.109   1.955  0.6859 -0.1150  0.3428
  105MOL0     C14067   7.108   3.130   1.909 -0.1208  0.2561 -0.6563
  105MOL0     C14068   7.186   3.227   1.955 -0.2908 -0.7040 -0.2402
  105MOL0     C14069   7.330   3.245   1.910  0.7692  1.2324 -0.9397
  105MOL0     O14070   7.400   3.342   1.969 -0.1115 -0.1850 -0.2759
  105MOL0     C14071   7.521   3.375   1.911 -0.3183  0.1736  1.5141
  105MOL0     C14072   7.630   3.390   2.002 -0.9524 -0.4624  0.3774
  105MOL0     C14073   7.750   3.439   1.954 -0.0726 -0.1444 -0.1577
  105MOL0     C14074   7.766   3.463   1.815  0.2007 -0.2631  0.0958
  105MOL0     O14075   7.869   3.522   1.751 -0.3718 -0.6558 -0.0014
  105MOL0     C14076   7.992   3.561   1.809  0.1680  0.1847 -0.0725
  105MOL0     C14077   7.988   3.684   1.908 -0.1301 -0.0440  0.3938
  105MOL0     C14078   8.129   3.738   1.947 -0.6626 -0.0305  0.0042
  105MOL0     C14079   8.174   3.834   1.837 -0.0646 -0.4872 -0.8919
  105MOL0     C14080   8.268   3.944   1.890  0.1853 -0.0173 -0.0618
  105MOL0     C14081   8.206   4.043   1.991  0.1028 -0.5258 -0.2170
  105MOL0     C14082   8.267   4.187   1.978 -0.1365  0.4543  0.2785
  105MOL0     C14083   8.203   4.281   2.076 -0.3728 -0.2115 -0.2876
  105MOL0    Cl14084   8.301   4.423   2.100  0.2549  0.4701 -0.0677
  105MOL0     C14085   7.655   3.449   1.729  0.1503  0.0523  0.3141
  105MOL0     C14086   7.537   3.398   1.771  0.1170  0.2493  0.0118
  105MOL0     O14087   7.370   3.165   1.826  0.1567  0.3470 -0.4211
  105MOL0     C14088   7.126   3.319   2.044  0.1739  0.3167  0.5942
  105MOL0     C14089   6.994   3.295   2.093  0.7189 -0.4731  0.0573
  105MOL0     N14090   6.450   3.057   2.553 -0.1332  0.3901 -0.0196
  105MOL0     N14091   6.353   3.129   2.597 -0.3864 -0.2906  0.3097
  105MOL0     C14092   5.403   2.588   2.702  0.2020  0.0321 -0.1757
  105MOL0     C14093   5.276   2.630   2.757  0.3636  0.0365  0.8073
  105MOL0     C14094   4.906   2.609   3.003  0.4531  0.4273  0.7644
  105MOL0     C14095   4.879   2.744   3.027 -0.2883  0.2012  0.5168
  105MOL0     C14096   4.750   2.787   3.060 -0.6010 -0.5020  0.0584
  105MOL0     C14097   4.647   2.696   3.092 -0.4017 -0.1464  0.6912
  105MOL0     O14098   4.520   2.728   3.137 -0.2782 -0.0058  0.5756
  105MOL0     C14099   4.422   2.706   3.028 -0.2296 -0.5678 -0.1791
  105MOL0     C14100   4.279   2.757   3.049 -0.7916 -0.5392 -0.4913
  105MOL0     C14101   4.195   2.673   3.128  0.1867 -0.0175  0.5524
  105MOL0     C14102   4.060   2.736   3.150  0.7193 -0.0076  0.2468
  105MOL0     C14103   3.975   2.637   3.216 -0.3693  0.3819  0.1169
  105MOL0     C14104   3.903   2.558   3.267 -0.3519  0.0869 -0.1872
  105MOL0     C14105   4.679   2.571   3.067  0.5610  0.4994 -0.4226
  105MOL0     C14106   4.802   2.518   3.029  0.1088 -0.0476 -0.0406
  105MOL0     C14107   4.820   2.365   3.019 -1.0625 -0.2701 -0.1812
  105MOL0     H14108   5.344   2.634   3.089  0.6776  1.6638  0.1963
  105MOL0     H14109   5.566   2.558   2.995 -0.4731  1.4381 -0.0243
  105MOL0     H14110   5.761   2.463   2.607 -0.9654 -0.1600 -0.1189
  105MOL0     H14111   5.599   2.476   2.556  1.7166 -2.5343 -0.7371
  105MOL0     H14112   5.621   2.740   2.646  0.9792  2.9716 -0.0052
  105MOL0     H14113   5.714   2.703   2.496 -2.5615 -1.4578 -1.3827
  105MOL0     H14114   5.864   2.617   2.736  1.9886  1.7266  1.6991
  105MOL0     H14115   5.800   2.777   2.763  0.4459  0.0886 -0.2678
  105MOL0     H14116   6.028   2.749   2.660 -0.3147 -2.8488 -0.3272
  105MOL0     H14117   5.946   2.700   2.509  0.2500  0.1664 -0.1116
  105MOL0     H14118   5.825   2.929   2.539 -1.4501  0.2571  1.7973
  105MOL0     H14119   5.965   2.973   2.647  0.5529  0.0034  0.4284
  105MOL0     H14120   6.122   2.904   2.475 -1.5954 -1.8620  0.4304
  105MOL0     H14121   5.988   2.891   2.362  0.0508 -0.4376 -0.1133
  105MOL0     H14122   5.929   3.140   2.408 -0.0495  0.7120 -2.5152
  105MOL0     H14123   6.065   3.103   2.313 -2.8861 -0.0139 -1.0947
  105MOL0     H14124   6.107   3.294   2.491  3.5439  0.5065  0.7348
  105MOL0     H14125   6.087   3.174   2.610 -1.9912 -3.2815 -1.6536
  105MOL0     H14126   6.285   3.127   2.284  2.2009  2.7237 -0.4855
  105MOL0     H14127   6.576   2.881   2.397 -2.0313 -2.1059 -1.2824
  105MOL0     H14128   6.477   2.902   2.254  2.0602 -1.0731 -0.8229
  105MOL0     H14129   6.682   3.085   2.380  1.3146 -1.9260 -0.2304
  105MOL0     H14130   6.708   2.995   2.243  1.3824  1.2498  1.2656
  105MOL0     H14131   6.521   3.233   2.268 -0.3778 -0.7261  0.5721
  105MOL0     H14132   6.549   3.135   2.115  0.8181  1.3306 -1.1260
  105MOL0     H14133   6.772   3.271   2.267 -1.8015 -0.7918  0.8213
  105MOL0     H14134   6.702   3.352   2.133  1.4800  0.9164  1.2141
  105MOL0     H14135   6.911   3.036   1.916 -0.1735 -0.4288  2.3476
  105MOL0     H14136   7.144   3.073   1.824  0.1650 -0.4703 -0.0591
  105MOL0     H14137   7.610   3.394   2.109  2.4524  2.5007  1.0848
  105MOL0     H14138   7.824   3.466   2.030  0.8673 -1.8802 -0.4104
  105MOL0     H14139   8.033   3.470   1.853 -0.9182 -1.5475 -2.4480
  105MOL0     H14140   8.063   3.582   1.729 -0.2372  0.1834 -0.4418
  105MOL0     H14141   7.917   3.757   1.871 -1.0849 -1.1037  0.0707
  105MOL0     H14142   7.953   3.641   2.003  1.5398 -0.7900  0.7124
  105MOL0     H14143   8.129   3.799   2.038  0.5860 -0.9558  0.6549
  105MOL0     H14144   8.207   3.662   1.959 -0.9405 -0.3218 -0.0063
  105MOL0     H14145   8.088   3.884   1.792  0.1439 -1.9021 -2.9909
  105MOL0     H14146   8.221   3.772   1.760  1.2483 -1.5285  0.6743
  105MOL0     H14147   8.304   4.005   1.807  2.0124  0.4495  1.0049
  105MOL0     H14148   8.358   3.900   1.935  0.4853  0.2111 -0.4318
  105MOL0     H14149   8.101   4.067   1.974  0.2708  0.2837 -0.1810
  105MOL0     H14150   8.228   4.000   2.089  0.5811 -1.4833 -0.7303
  105MOL0     H14151   8.257   4.227   1.876 -0.2291 -0.7500 -0.2035
  105MOL0     H14152   8.372   4.194   2.007 -0.7322  3.2261  2.1037
  105MOL0     H14153   8.099   4.304   2.052 -1.0094  0.1930  2.5083
  105MOL0     H14154   8.195   4.233   2.174 -1.8389 -1.8182 -1.1417
  105MOL0     H14155   7.669   3.477   1.625 -0.3574  0.8121  0.4448
  105MOL0     H14156   7.445   3.394   1.713 -1.3145 -0.3503  2.1815
  105MOL0     H14157   7.180   3.405   2.082  4.5349 -2.1060  0.4467
  105MOL0     H14158   6.971   3.365   2.173 -0.9273 -1.3251  0.3847
  105MOL0     H14159   5.409   2.570   2.595  2.1026 -0.7395  0.0243
  105MOL0     H14160   5.194   2.638   2.687 -0.4805 -2.0012  1.4766
  105MOL0     H14161   4.951   2.824   3.011 -1.1353  0.9018  0.1318
  105MOL0     H14162   4.710   2.887   3.073 -2.7790 -1.5487  2.2089
  105MOL0     H14163   4.417   2.600   2.998  0.1392 -0.0903 -2.0303
  105MOL0     H14164   4.453   2.764   2.941 -0.7211 -1.1516 -0.7607
  105MOL0     H14165   4.234   2.783   2.952  2.5408 -3.3256 -3.0580
  105MOL0     H14166   4.304   2.850   3.101  1.3426  0.6378 -3.3082
  105MOL0     H14167   4.248   2.650   3.221  1.3613  1.1612  0.1958
  105MOL0     H14168   4.181   2.588   3.061  1.1094  1.4584 -1.6172
  105MOL0     H14169   4.070   2.823   3.215 -1.8540  1.3076 -0.9764
  105MOL0     H14170   4.015   2.773   3.058  1.6335 -0.5372 -0.4329
  105MOL0     H14171   3.828   2.494   3.310  2.2321 -1.2740  2.6431
  105MOL0     H14172   4.600   2.498   3.086  0.0372  1.3183  0.6485
  105MOL0     H14173   4.871   2.347   2.924 -0.6878  1.6081 -0.3825
  105MOL0     H14174   4.886   2.333   3.101 -1.9443  1.1468  1.1347
  105MOL0     H14175   4.726   2.310   3.022  0.2022 -2.5619  2.3179
  106MOL0     O14176  10.204  11.054  11.114 -0.8616 -0.2933 -0.7992
  106MOL0     C14177  10.141  11.148  11.164  0.3635  0.0391  0.8990
  106MOL0     O14178  10.131  11.180  11.294 -0.5649  0.4229  0.6135
  106MOL0     C14179  10.138  11.077  11.382  0.2690 -0.2257 -0.4473
  106MOL0     C14180  10.012  11.032  11.433  0.1911  0.8071 -0.3377
  106MOL0     C14181  10.011  10.932  11.534 -0.3504 -0.2676  0.0720
  106MOL0     C14182  10.121  10.866  11.573 -0.0638 -0.9913 -0.6449
  106MOL0     O14183  10.118  10.758  11.659 -0.0193 -0.7543 -0.0594
  106MOL0     C14184  10.007  10.666  11.679 -0.0639 -0.3016  0.2093
  106MOL0     C14185  10.058  10.556  11.775 -0.0347  0.0379  0.6500
  106MOL0     C14186  10.169  10.470  11.709  0.0510 -0.1560 -0.5233
  106MOL0     C14187  10.295  10.479  11.779 -0.0090  0.5992 -0.8669
  106MOL0     C14188  10.359  10.615  11.793 -0.3423 -0.4983 -0.2211
  106MOL0     C14189  10.504  10.609  11.857  0.7053  0.1405 -0.5043
  106MOL0     C14190  10.525  10.723  11.954  0.5635 -0.1953  0.3453
  106MOL0     C14191  10.651  10.733  12.038 -0.4780  0.0241  1.0870
  106MOL0     N14192  10.763  10.753  11.944  0.1976 -0.4751  0.0315
  106MOL0     C14193  10.829  10.877  11.915  0.8340 -0.1020 -0.1740
  106MOL0     C14194  10.945  10.839  11.861 -0.3531 -0.3646  0.3917
  106MOL0     C14195  11.054  10.938  11.816 -0.8650  0.0862 -0.2772
  106MOL0     C14196  11.045  10.996  11.681 -0.1352  0.2311  0.4046
  106MOL0     C14197  10.982  10.903  11.577  0.7162  0.6462  0.4980
  106MOL0     C14198  11.079  10.807  11.509 -0.0366  0.1274  0.3103
  106MOL0     O14199  11.145  10.883  11.409  0.4379  0.5249  0.5963
  106MOL0     C14200  11.272  10.853  11.390  0.2232  0.0101 -0.6595
  106MOL0     C14201  11.300  10.762  11.290 -0.4275 -0.7864 -0.0932
  106MOL0     C14202  11.433  10.727  11.265 -0.5394  0.4682  0.1314
  106MOL0     C14203  11.540  10.786  11.334  0.6467  1.0756  0.6066
  106MOL0     C14204  11.684  10.747  11.312 -0.0134 -0.5195  0.6325
  106MOL0     O14205  11.777  10.824  11.371 -0.5883  0.4571 -0.2161
  106MOL0     C14206  11.906  10.780  11.376  1.0080 -0.7865  0.0109
  106MOL0     C14207  12.007  10.812  11.286  0.7243  0.4060 -0.1587
  106MOL0     C14208  12.135  10.754  11.297  0.5390  0.3614 -0.9554
  106MOL0     C14209  12.166  10.662  11.398 -0.8097  0.4133  0.1185
  106MOL0     O14210  12.292  10.621  11.419 -0.4719  0.0835 -0.2772
  106MOL0     C14211  12.369  10.600  11.298  0.5504 -0.3419 -0.7140
  106MOL0     C14212  12.521  10.559  11.321  0.8434  0.0034 -0.2837
  106MOL0     C14213  12.617  10.683  11.350 -0.0172  0.5107 -0.4841
  106MOL0     C14214  12.766  10.647  11.353 -0.1354 -0.9743 -0.4074
  106MOL0     C14215  12.865  10.769  11.351  0.1608  0.9244 -0.0785
  106MOL0     C14216  13.012  10.730  11.378  0.3297  0.1519  0.5570
  106MOL0     C14217  13.093  10.855  11.395 -0.0326  0.3865 -0.1632
  106MOL0     C14218  13.239  10.825  11.441 -0.3999  0.5231  0.4426
  106MOL0    Cl14219  13.327  10.673  11.369 -0.3028 -0.6173 -0.0609
  106MOL0     C14220  12.066  10.636  11.496  0.5719  0.3894  0.6341
  106MOL0     C14221  11.933  10.683  11.471 -0.9004 -0.1988 -0.4532
  106MOL0     O14222  11.706  10.644  11.251  0.0503 -0.2824  0.7741
  106MOL0     C14223  11.504  10.874  11.441 -0.1953 -0.3934  0.3305
  106MOL0     C14224  11.374  10.917  11.463 -0.1502 -0.2601  0.1603
  106MOL0     N14225  10.941  10.704  11.843  0.0677  0.2814  0.1784
  106MOL0     N14226  10.835  10.655  11.888  0.9265  0.6464  0.5048
  106MOL0     C14227  10.245  10.900  11.509 -0.2256  0.1209 -0.7092
  106MOL0     C14228  10.254  11.010  11.419  0.3048 -0.6773 -0.1820
  106MOL0     C14229  10.083  11.250  11.075  0.5329 -1.1671  0.7090
  106MOL0     C14230   9.979  11.331  11.125  0.2696  0.4800  0.3006
  106MOL0     C14231   9.923  11.438  11.060 -0.2290  0.1330 -0.0130
  106MOL0     C14232   9.957  11.464  10.929 -0.1271 -0.4529  0.3792
  106MOL0     O14233   9.917  11.574  10.858  0.6247  0.3125 -0.3754
  106MOL0     C14234   9.818  11.663  10.903 -0.1232  0.2403  0.2078
  106MOL0     C14235   9.783  11.764  10.799 -0.4477 -0.3033  0.3579
  106MOL0     C14236   9.910  11.835  10.755  0.9469 -0.9201  1.0413
  106MOL0     C14237   9.883  11.918  10.632  0.2793 -0.2497  0.2410
  106MOL0     C14238   9.813  12.043  10.657  0.0952  0.0058  0.4807
  106MOL0     C14239   9.769  12.154  10.666 -0.8408 -0.6559  1.2355
  106MOL0     C14240  10.046  11.378  10.865  0.5266  0.4231 -0.7319
  106MOL0     C14241  10.110  11.271  10.935 -0.2166  0.2993  0.6881
  106MOL0     C14242  10.201  11.192  10.846 -0.5413 -0.1178  0.0277
  106MOL0     H14243   9.918  11.077  11.403  0.2211  0.1355 -1.4991
  106MOL0     H14244   9.923  10.921  11.596 -2.5293 -1.6244 -2.9790
  106MOL0     H14245   9.920  10.714  11.725  1.4980  0.1824  2.8486
  106MOL0     H14246   9.978  10.620  11.584 -1.8914 -0.1702  0.6594
  106MOL0     H14247   9.968  10.498  11.798 -0.2673 -0.2431 -0.8749
  106MOL0     H14248  10.098  10.608  11.863 -1.3855  0.3090  1.1375
  106MOL0     H14249  10.177  10.497  11.603 -4.8516  0.0229 -1.0593
  106MOL0     H14250  10.137  10.366  11.715  1.5672 -0.6191 -0.0881
  106MOL0     H14251  10.291  10.436  11.879 -0.7025  0.1329 -1.0898
  106MOL0     H14252  10.373  10.422  11.729  0.0915 -0.7692  0.7681
  106MOL0     H14253  10.372  10.669  11.698  2.0274  0.9070  0.8175
  106MOL0     H14254  10.300  10.680  11.858 -1.9324 -0.3025 -1.8030
  106MOL0     H14255  10.511  10.515  11.913  1.6241  0.3939 -0.1734
  106MOL0     H14256  10.568  10.618  11.769 -1.8598  0.8188 -2.4360
  106MOL0     H14257  10.450  10.735  12.034  2.0066  2.4981  1.4161
  106MOL0     H14258  10.529  10.813  11.893  0.4363 -1.0835 -1.0122
  106MOL0     H14259  10.647  10.808  12.117 -1.8468  0.9720  0.1740
  106MOL0     H14260  10.665  10.639  12.091  1.6327  0.8111  2.0187
  106MOL0     H14261  10.803  10.977  11.947 -0.5029 -0.4162 -0.2285
  106MOL0     H14262  11.054  11.023  11.885 -1.5825 -0.5550  0.5398
  106MOL0     H14263  11.144  10.877  11.833 -1.2822  0.1695  3.0127
  106MOL0     H14264  10.976  11.079  11.695 -1.3509 -1.1643  3.3940
  106MOL0     H14265  11.143  11.030  11.644 -0.6995 -2.4829 -4.4665
  106MOL0     H14266  10.932  10.961  11.499  1.4481 -0.7807 -1.0966
  106MOL0     H14267  10.899  10.842  11.613 -0.1456 -1.2232 -3.9353
  106MOL0     H14268  11.029  10.720  11.466  0.8328 -1.7609  2.8651
  106MOL0     H14269  11.140  10.769  11.591 -0.6573 -0.8494  0.3305
  106MOL0     H14270  11.218  10.727  11.228 -1.7361  1.0998  0.4415
  106MOL0     H14271  11.462  10.661  11.184 -0.8547 -0.1695  0.5293
  106MOL0     H14272  11.963  10.877  11.210 -1.4193  0.9524  1.4365
  106MOL0     H14273  12.204  10.801  11.228  0.8197 -0.4999 -1.2776
  106MOL0     H14274  12.317  10.523  11.241  2.2243 -1.7502 -0.4019
  106MOL0     H14275  12.375  10.697  11.246  3.9815  1.5389  2.6510
  106MOL0     H14276  12.538  10.496  11.409  3.5345  1.0386  0.0366
  106MOL0     H14277  12.548  10.500  11.234  0.3960 -2.1226  0.9457
  106MOL0     H14278  12.592  10.761  11.277  0.8271  0.5564 -0.7306
  106MOL0     H14279  12.582  10.730  11.442 -3.6752 -2.1902 -0.2578
  106MOL0     H14280  12.785  10.583  11.267  0.2104  1.1600 -1.9926
  106MOL0     H14281  12.785  10.578  11.436  0.1768 -0.1367  0.2383
  106MOL0     H14282  12.824  10.843  11.421  0.0391  1.7431 -1.0029
  106MOL0     H14283  12.854  10.815  11.253 -2.0825  0.8980  0.0903
  106MOL0     H14284  13.020  10.674  11.472 -3.4260 -0.1384  0.8521
  106MOL0     H14285  13.044  10.665  11.295 -0.7013 -1.7694  1.5872
  106MOL0     H14286  13.042  10.918  11.469  1.4079  0.5545  0.7192
  106MOL0     H14287  13.088  10.910  11.301  4.4692 -0.5832 -1.1898
  106MOL0     H14288  13.290  10.913  11.401  2.3368 -0.9033  0.5864
  106MOL0     H14289  13.240  10.824  11.550 -0.4050  0.2506  0.4411
  106MOL0     H14290  12.068  10.569  11.582 -0.4454  2.4963  2.3922
  106MOL0     H14291  11.849  10.657  11.536  1.0639  1.2449  2.9143
  106MOL0     H14292  11.586  10.920  11.495 -1.6224  1.1674  1.2678
  106MOL0     H14293  11.355  10.984  11.546  1.6019 -1.8944  1.9901
  106MOL0     H14294  10.333  10.843  11.535 -1.0711  0.6497  4.1882
  106MOL0     H14295  10.352  11.034  11.380  0.5683 -1.4052  0.0212
  106MOL0     H14296   9.943  11.310  11.225  0.6848 -1.6260  0.0514
  106MOL0     H14297   9.849  11.498  11.111 -0.6531  0.6037 -1.1408
  106MOL0     H14298   9.842  11.713  10.997 -0.4711 -1.1152  1.0451
  106MOL0     H14299   9.726  11.609  10.928 -0.6372  1.9581  2.3646
  106MOL0     H14300   9.706  11.838  10.822 -0.4408 -0.1431 -0.1191
  106MOL0     H14301   9.741  11.710  10.714 -0.4890 -1.3559  1.0294
  106MOL0     H14302   9.988  11.762  10.734  0.3608 -1.2828  0.0504
  106MOL0     H14303   9.948  11.893  10.840  0.0992  2.2529 -0.5574
  106MOL0     H14304   9.972  11.957  10.582 -0.4328  0.4040 -0.5457
  106MOL0     H14305   9.809  11.857  10.579 -2.4428  0.8542  2.4698
  106MOL0     H14306   9.742  12.257  10.661  0.3368 -0.3250  1.3492
  106MOL0     H14307  10.085  11.399  10.766  0.2672 -1.8921 -1.3858
  106MOL0     H14308  10.132  11.126  10.792 -0.3396  1.8671 -2.8859
  106MOL0     H14309  10.253  11.254  10.772 -1.4088  2.7694  1.6795
  106MOL0     H14310  10.269  11.124  10.899 -2.4485 -1.2909  1.0857
  107MOL0     O14311   4.276  10.400   0.853  0.1793 -0.7024 -0.2544
  107MOL0     C14312   4.166  10.440   0.824 -0.0398 -0.4889  0.3485
  107MOL0     O14313   4.127  10.576   0.827 -0.0663 -0.1853 -0.5134
  107MOL0     C14314   4.206  10.656   0.907  0.5467 -0.5541 -0.3199
  107MOL0     C14315   4.260  10.620   1.035  0.2272 -0.7845  0.0901
  107MOL0     C14316   4.337  10.715   1.113  0.0221 -0.8283  0.1067
  107MOL0     C14317   4.335  10.849   1.062 -0.7025 -0.5165  0.4661
  107MOL0     O14318   4.389  10.953   1.134 -0.2345 -0.0601 -0.1755
  107MOL0     C14319   4.527  10.934   1.180  0.0216  0.7556  0.3883
  107MOL0     C14320   4.597  11.019   1.074 -0.2792  0.1008  0.1894
  107MOL0     C14321   4.745  10.985   1.076  0.3259 -0.6328  0.2308
  107MOL0     C14322   4.819  10.998   1.213  0.7318 -0.2128  0.0183
  107MOL0     C14323   4.962  10.951   1.185 -0.0473  0.6576  0.0860
  107MOL0     C14324   5.048  10.989   1.303 -0.0661  0.6513  0.6996
  107MOL0     C14325   5.193  10.938   1.274 -0.3088  0.0541 -0.9248
  107MOL0     C14326   5.296  11.012   1.361  0.5774 -0.8410 -0.5950
  107MOL0     N14327   5.434  11.001   1.304  1.0271  0.0739 -0.5586
  107MOL0     C14328   5.486  10.898   1.232  0.8245 -0.6149 -0.0623
  107MOL0     C14329   5.592  10.955   1.163  0.1063 -0.3835  0.0214
  107MOL0     C14330   5.656  10.894   1.049  0.2929  0.7901  0.3773
  107MOL0     C14331   5.807  10.877   1.067 -0.5516 -0.5819 -0.3114
  107MOL0     C14332   5.903  10.997   1.032  0.4089  0.1400  0.3202
  107MOL0     C14333   6.038  10.962   1.085  0.1339  0.0919  0.4156
  107MOL0     O14334   6.141  11.049   1.037  0.4510 -0.7015 -0.0863
  107MOL0     C14335   6.263  11.042   1.082 -0.4925 -0.5952  0.2210
  107MOL0     C14336   6.298  10.973   1.194 -0.3523  0.3778  0.1464
  107MOL0     C14337   6.425  10.969   1.244  0.0774  0.1776 -0.0634
  107MOL0     C14338   6.525  11.035   1.172 -0.4561  0.2270 -0.0889
  107MOL0     C14339   6.664  11.039   1.219 -0.0047  0.2593 -0.0159
  107MOL0     O14340   6.694  10.974   1.338  0.3693 -0.1239 -0.1202
  107MOL0     C14341   6.805  11.006   1.405 -0.4993 -0.0621  0.4744
  107MOL0     C14342   6.881  10.900   1.453 -0.2636  0.6782 -0.8557
  107MOL0     C14343   7.002  10.921   1.520 -0.7453  0.1546  0.8967
  107MOL0     C14344   7.046  11.047   1.548 -0.4544  0.4511 -0.3727
  107MOL0     O14345   7.172  11.074   1.601 -0.1849  0.0405 -0.2007
  107MOL0     C14346   7.266  10.961   1.618 -0.0548 -0.8363 -0.1062
  107MOL0     C14347   7.362  11.020   1.724  0.6430  0.4860 -0.2348
  107MOL0     C14348   7.490  10.926   1.740  0.5664  0.0188 -0.5854
  107MOL0     C14349   7.492  10.850   1.880 -0.3162  0.1072  0.2544
  107MOL0     C14350   7.630  10.788   1.922  1.0016 -0.2263  0.2102
  107MOL0     C14351   7.705  10.720   1.799  0.4628 -0.2121  0.0014
  107MOL0     C14352   7.807  10.615   1.833  0.6811  0.2910 -0.8277
  107MOL0     C14353   7.845  10.535   1.712 -0.9449 -0.3566 -0.3417
  107MOL0    Cl14354   7.959  10.391   1.749  0.0979 -0.4382 -0.0553
  107MOL0     C14355   6.972  11.157   1.507 -0.1032  0.2178 -0.7603
  107MOL0     C14356   6.851  11.140   1.429  0.0086  0.1313 -0.3119
  107MOL0     O14357   6.752  11.089   1.151  0.3317  0.0488  0.1985
  107MOL0     C14358   6.491  11.107   1.057  0.1938  0.3488  0.8044
  107MOL0     C14359   6.366  11.109   1.008 -1.0916  0.0677 -0.1189
  107MOL0     N14360   5.628  11.071   1.224 -0.4007 -0.5064 -0.2602
  107MOL0     N14361   5.539  11.100   1.307 -0.3427  0.4742 -0.6997
  107MOL0     C14362   4.283  10.881   0.934 -0.5734  0.0315 -0.2846
  107MOL0     C14363   4.224  10.787   0.860 -0.6517 -0.3602 -0.3062
  107MOL0     C14364   4.070  10.335   0.765 -0.0930  0.1044 -0.7417
  107MOL0     C14365   3.937  10.368   0.742 -0.7463  0.8936 -0.3162
  107MOL0     C14366   3.848  10.293   0.669 -0.6401 -0.1797  0.3540
  107MOL0     C14367   3.885  10.164   0.620  0.2021 -0.3689 -0.1592
  107MOL0     O14368   3.804  10.101   0.538 -0.0509  0.2497  0.3126
  107MOL0     C14369   3.856  10.001   0.450 -0.1202 -0.6837  0.5845
  107MOL0     C14370   3.767   9.979   0.322 -0.0781 -0.2663 -0.7159
  107MOL0     C14371   3.621   9.953   0.372  0.1002 -0.2033 -0.6416
  107MOL0     C14372   3.519   9.918   0.263 -0.5105  0.0918 -0.2065
  107MOL0     C14373   3.564   9.788   0.200  0.0444 -0.0840 -0.3452
  107MOL0     C14374   3.579   9.677   0.158 -0.1091  0.4339 -0.9035
  107MOL0     C14375   4.019  10.127   0.649  0.8144  0.1592 -0.4332
  107MOL0     C14376   4.110  10.202   0.727  0.6084 -0.3886  0.0101
  107MOL0     C14377   4.242  10.129   0.755 -0.4799  0.2596  0.7845
  107MOL0     H14378   4.238  10.519   1.069 -1.0900 -0.1759  1.1485
  107MOL0     H14379   4.369  10.691   1.214  0.3081  3.8335  1.3506
  107MOL0     H14380   4.540  10.976   1.280 -1.4012 -0.7407  1.2610
  107MOL0     H14381   4.558  10.829   1.179 -0.5453  0.5757 -0.9682
  107MOL0     H14382   4.577  11.125   1.091  1.3723  0.5368 -0.4055
  107MOL0     H14383   4.551  10.988   0.980 -0.1485 -2.3960  0.8649
  107MOL0     H14384   4.799  11.047   1.004  0.5206  1.4183  2.0294
  107MOL0     H14385   4.760  10.880   1.048  0.8206 -0.9878  1.7337
  107MOL0     H14386   4.817  11.097   1.261 -1.9686  0.2776 -0.9037
  107MOL0     H14387   4.771  10.932   1.286  3.0408  0.2906  2.1305
  107MOL0     H14388   4.962  10.842   1.175  3.3997  0.0725  3.5602
  107MOL0     H14389   5.004  10.987   1.091 -2.5630  1.8655 -0.6544
  107MOL0     H14390   5.050  11.098   1.307  0.1812  0.6339  0.9976
  107MOL0     H14391   5.005  10.945   1.394  0.3456 -1.5974 -0.1153
  107MOL0     H14392   5.225  10.958   1.171  0.7713  0.1332 -0.5918
  107MOL0     H14393   5.205  10.832   1.296 -2.1155  0.1699  0.7941
  107MOL0     H14394   5.288  11.120   1.345 -0.7511 -0.1638  3.4958
  107MOL0     H14395   5.300  10.996   1.469  0.0230  1.6714 -0.1245
  107MOL0     H14396   5.440  10.802   1.209  0.5272 -0.1144 -1.7398
  107MOL0     H14397   5.610  10.800   1.017  3.1478 -0.4372 -0.3718
  107MOL0     H14398   5.644  10.961   0.963  3.5732 -1.2429 -1.9169
  107MOL0     H14399   5.830  10.838   1.167  1.9773 -1.2252 -1.0754
  107MOL0     H14400   5.832  10.784   1.013 -0.5676 -1.8817  1.7908
  107MOL0     H14401   5.863  11.089   1.076  0.9719  0.0514  1.0254
  107MOL0     H14402   5.929  11.015   0.927  1.3918  1.1667  0.7196
  107MOL0     H14403   6.066  10.861   1.055 -1.2841 -0.6517  1.4384
  107MOL0     H14404   6.032  10.972   1.194  1.1762  1.3835  0.3799
  107MOL0     H14405   6.231  10.910   1.251  1.3421 -3.6920 -1.9873
  107MOL0     H14406   6.439  10.907   1.332 -3.6405 -2.9897 -1.3697
  107MOL0     H14407   6.853  10.796   1.441 -0.5040  0.3567  1.8694
  107MOL0     H14408   7.054  10.829   1.544 -0.2009  0.6101  1.5104
  107MOL0     H14409   7.225  10.868   1.658  0.4470 -2.0154 -2.1930
  107MOL0     H14410   7.322  10.951   1.525  1.7564  4.4663  0.0404
  107MOL0     H14411   7.394  11.118   1.689  0.1426  1.1910  1.1934
  107MOL0     H14412   7.312  11.050   1.817 -0.8870 -0.9145 -0.5454
  107MOL0     H14413   7.490  10.860   1.653  1.1012  0.9651 -1.3155
  107MOL0     H14414   7.572  10.997   1.737  2.3207 -1.9091 -0.4002
  107MOL0     H14415   7.430  10.760   1.872 -1.9786  1.1444  0.9066
  107MOL0     H14416   7.448  10.916   1.956 -1.1015  0.8695 -0.8305
  107MOL0     H14417   7.609  10.722   2.006  2.3632 -0.8649  0.0751
  107MOL0     H14418   7.696  10.867   1.958 -1.1111  1.0994  1.3666
  107MOL0     H14419   7.626  10.662   1.750 -0.1628  0.7728 -0.1711
  107MOL0     H14420   7.738  10.791   1.722 -3.7169  0.7163 -1.1638
  107MOL0     H14421   7.763  10.543   1.903 -1.8985  0.5450 -2.0722
  107MOL0     H14422   7.895  10.663   1.876  0.9085  0.0485 -1.0211
  107MOL0     H14423   7.752  10.506   1.663 -2.1848  1.4490  0.8370
  107MOL0     H14424   7.901  10.609   1.654  2.6576 -1.2551  1.6494
  107MOL0     H14425   6.997  11.256   1.544  2.4502 -0.7623  0.3761
  107MOL0     H14426   6.793  11.223   1.392  0.8028  1.0685  0.4811
  107MOL0     H14427   6.564  11.167   1.003 -0.6136 -2.8543 -4.7191
  107MOL0     H14428   6.346  11.163   0.917  1.0056  0.2841 -0.4893
  107MOL0     H14429   4.291  10.985   0.904  1.0566 -0.2732 -1.0018
  107MOL0     H14430   4.196  10.813   0.759  1.3467 -0.9890 -1.0589
  107MOL0     H14431   3.912  10.465   0.783 -0.8202 -0.0426  2.0396
  107MOL0     H14432   3.746  10.327   0.657 -1.2506 -2.1352 -0.4333
  107MOL0     H14433   3.873   9.899   0.486  0.8828 -1.1345 -1.0685
  107MOL0     H14434   3.955  10.035   0.418 -0.4453  0.6476  0.9586
  107MOL0     H14435   3.809   9.902   0.257  1.2516  0.1629 -0.3855
  107MOL0     H14436   3.772  10.074   0.267 -2.2572  0.9492  1.0379
  107MOL0     H14437   3.589  10.042   0.428  0.5771 -1.2324  1.3710
  107MOL0     H14438   3.619   9.870   0.444 -0.9944  0.4662  0.1285
  107MOL0     H14439   3.418   9.920   0.305 -1.5425  1.4642 -2.5589
  107MOL0     H14440   3.532   9.997   0.189  0.5399 -0.4212 -0.5937
  107MOL0     H14441   3.586   9.577   0.120  2.3566  0.8384 -1.7418
  107MOL0     H14442   4.053  10.026   0.625  2.4964  0.4828  0.4133
  107MOL0     H14443   4.300  10.159   0.843  1.3383 -0.6219 -0.0562
  107MOL0     H14444   4.218  10.023   0.757 -1.0650  0.3404 -0.8222
  107MOL0     H14445   4.302  10.145   0.664 -2.3155  1.9886 -0.1955
  108MOL0     O14446   2.384   7.281   0.354 -0.2156 -0.2128 -0.8429
  108MOL0     C14447   2.318   7.236   0.265  0.1695  0.9311  0.8382
  108MOL0     O14448   2.362   7.161   0.155  0.6841 -0.0836  0.2196
  108MOL0     C14449   2.496   7.154   0.130 -0.9633  0.2112 -0.3548
  108MOL0     C14450   2.599   7.255   0.119  0.2612  0.0565  0.4032
  108MOL0     C14451   2.725   7.228   0.077 -0.8268  0.9943  0.2504
  108MOL0     C14452   2.771   7.089   0.080  0.5163 -0.6794 -0.5403
  108MOL0     O14453   2.900   7.061   0.033  0.8334 -0.2805 -0.1344
  108MOL0     C14454   2.988   6.983   0.116 -0.2511  0.4607 -0.3922
  108MOL0     C14455   3.121   6.954   0.048 -0.8142 -0.0601  0.0447
  108MOL0     C14456   3.109   6.864  -0.068  0.2249  0.0914 -0.2220
  108MOL0     C14457   3.205   6.749  -0.064  0.4159  0.1585 -0.3481
  108MOL0     C14458   3.199   6.646  -0.175  0.3823  0.0005 -0.6472
  108MOL0     C14459   3.299   6.542  -0.142 -0.6657 -0.2157 -0.4410
  108MOL0     C14460   3.334   6.455  -0.265 -0.6037  0.1319  0.5735
  108MOL0     C14461   3.449   6.348  -0.258  0.7809 -0.1760 -0.9015
  108MOL0     N14462   3.431   6.248  -0.148  0.5695  0.2565 -0.5051
  108MOL0     C14463   3.325   6.169  -0.125  0.5617  0.8569 -0.2461
  108MOL0     C14464   3.334   6.120   0.001  0.0158 -0.3187  0.4350
  108MOL0     C14465   3.245   6.030   0.081  0.1049 -0.0289 -0.0767
  108MOL0     C14466   3.102   6.046   0.028 -0.0362  0.0554 -0.0261
  108MOL0     C14467   3.000   6.017   0.131 -0.2529 -0.2258 -0.0552
  108MOL0     C14468   2.853   6.065   0.092  0.5873  0.4370 -1.0912
  108MOL0     O14469   2.757   5.996   0.184  0.3159  0.4451 -0.6105
  108MOL0     C14470   2.622   6.024   0.176  0.8327 -0.0053 -0.2486
  108MOL0     C14471   2.534   5.953   0.254  0.2384 -0.3493  0.0836
  108MOL0     C14472   2.398   5.990   0.259 -0.1897 -0.2344 -0.4077
  108MOL0     C14473   2.351   6.104   0.197  0.0995  0.1774 -0.3567
  108MOL0     C14474   2.212   6.151   0.220 -0.0796  0.3976 -0.8924
  108MOL0     O14475   2.130   6.078   0.300  0.5506 -0.2901 -0.4861
  108MOL0     C14476   2.001   6.127   0.316 -0.0893 -0.4655 -0.6772
  108MOL0     C14477   1.919   6.138   0.205  0.8979 -0.1646  0.9644
  108MOL0     C14478   1.789   6.188   0.222  0.3055 -0.4373 -0.7298
  108MOL0     C14479   1.744   6.237   0.343  0.4144 -0.0753  0.0930
  108MOL0     O14480   1.617   6.286   0.353  0.1577  0.1958 -0.0339
  108MOL0     C14481   1.559   6.315   0.478  0.1811  0.2707 -0.3432
  108MOL0     C14482   1.406   6.346   0.456 -0.0780  0.2391  0.5255
  108MOL0     C14483   1.313   6.221   0.456  0.4012 -0.5155 -0.2852
  108MOL0     C14484   1.230   6.214   0.587  0.0954 -0.1720 -0.4766
  108MOL0     C14485   1.129   6.098   0.577 -0.3865  0.2685 -0.1432
  108MOL0     C14486   1.032   6.109   0.466 -0.4152 -1.0084 -0.1444
  108MOL0     C14487   0.906   6.030   0.504 -0.6364 -0.4656  0.1012
  108MOL0     C14488   0.801   6.019   0.393 -0.0640  0.0468  0.8820
  108MOL0    Cl14489   0.629   5.985   0.455 -0.1200 -0.4866 -0.3420
  108MOL0     C14490   1.819   6.216   0.451  0.1977  0.3076  0.8907
  108MOL0     C14491   1.945   6.156   0.445  0.5488 -0.4379 -0.6905
  108MOL0     O14492   2.178   6.257   0.167  0.0581  0.3752  0.1009
  108MOL0     C14493   2.437   6.172   0.104  0.3344  0.7001 -0.1397
  108MOL0     C14494   2.568   6.130   0.099  0.4633 -0.1704  0.7334
  108MOL0     N14495   3.453   6.165   0.053  0.7553 -0.6450 -0.3914
  108MOL0     N14496   3.506   6.244  -0.036  0.1193 -0.7207 -0.8850
  108MOL0     C14497   2.677   6.991   0.102  0.2897  0.5553  0.1795
  108MOL0     C14498   2.546   7.026   0.121  0.3968  0.7510  0.2338
  108MOL0     C14499   2.171   7.237   0.288 -0.6730  1.0708 -0.2727
  108MOL0     C14500   2.109   7.113   0.254  0.3962  0.4083 -0.6308
  108MOL0     C14501   1.970   7.104   0.277  0.0699 -0.9168  0.4013
  108MOL0     C14502   1.901   7.209   0.345 -0.1469  0.1591  0.3587
  108MOL0     O14503   1.770   7.175   0.390  0.0612 -0.0708  0.6866
  108MOL0     C14504   1.688   7.281   0.439 -0.8402 -0.0754 -0.2009
  108MOL0     C14505   1.560   7.231   0.488  1.0504  0.3836 -0.3213
  108MOL0     C14506   1.459   7.339   0.543 -0.1346  0.1208  0.1924
  108MOL0     C14507   1.326   7.284   0.568  0.3428  0.0368 -0.2605
  108MOL0     C14508   1.231   7.393   0.603  0.0534 -0.6891  0.4430
  108MOL0     C14509   1.167   7.489   0.623  0.0531  1.1310 -0.4069
  108MOL0     C14510   1.970   7.333   0.373 -0.1085 -0.9029 -0.3057
  108MOL0     C14511   2.104   7.349   0.338  0.0427 -1.0454 -0.0174
  108MOL0     C14512   2.164   7.481   0.363 -0.4997  0.2439 -0.7909
  108MOL0     H14513   2.565   7.358   0.125  0.2084  0.6146 -4.6319
  108MOL0     H14514   2.786   7.314   0.049 -0.7394  0.4305 -1.3753
  108MOL0     H14515   2.999   7.024   0.217  0.2916 -2.0686  0.6451
  108MOL0     H14516   2.940   6.886   0.133 -0.4722  0.7367  0.6112
  108MOL0     H14517   3.192   6.922   0.125 -1.1290  0.4455  0.5525
  108MOL0     H14518   3.161   7.047   0.007 -1.5264  0.4227  0.4230
  108MOL0     H14519   3.129   6.926  -0.156  4.1450  1.1341  1.2184
  108MOL0     H14520   3.008   6.826  -0.087 -0.5875  1.2920  1.4265
  108MOL0     H14521   3.310   6.778  -0.059 -0.2300  2.5641  0.0600
  108MOL0     H14522   3.182   6.700   0.031 -1.9646  0.3276 -0.7791
  108MOL0     H14523   3.099   6.605  -0.190  0.0114  0.9558 -0.8915
  108MOL0     H14524   3.217   6.699  -0.269 -2.1566 -1.6020 -2.1265
  108MOL0     H14525   3.390   6.586  -0.102 -1.0919  0.5184 -0.2658
  108MOL0     H14526   3.255   6.480  -0.063 -0.7534  0.0719 -0.2639
  108MOL0     H14527   3.350   6.514  -0.356 -0.3320 -0.2977  0.3370
  108MOL0     H14528   3.241   6.402  -0.290  0.4202 -2.0389  1.1243
  108MOL0     H14529   3.449   6.306  -0.359 -3.2432 -0.2467 -1.0313
  108MOL0     H14530   3.542   6.404  -0.246 -0.7642  2.0280  1.9214
  108MOL0     H14531   3.247   6.148  -0.198 -0.7420 -3.3300  2.0260
  108MOL0     H14532   3.278   5.926   0.081  2.5974  0.6384  1.7906
  108MOL0     H14533   3.241   6.062   0.186  0.2860  1.1512 -0.4126
  108MOL0     H14534   3.084   6.146  -0.011  1.6114 -0.5124 -2.4752
  108MOL0     H14535   3.072   5.980  -0.054 -2.2206 -0.7688  1.3453
  108MOL0     H14536   3.028   6.085   0.213 -1.4773  1.6521 -1.1383
  108MOL0     H14537   2.990   5.910   0.151 -1.0634 -0.1160  0.1425
  108MOL0     H14538   2.830   6.042  -0.012 -2.1200  2.3484 -0.9971
  108MOL0     H14539   2.847   6.174   0.100  2.0290  0.4133  1.6214
  108MOL0     H14540   2.572   5.872   0.316  2.3190  1.8303  1.7949
  108MOL0     H14541   2.329   5.926   0.313  0.5319 -1.2746 -0.7046
  108MOL0     H14542   1.946   6.108   0.105 -0.9171 -0.5252  0.5501
  108MOL0     H14543   1.722   6.175   0.137 -0.2490 -1.0030 -0.2126
  108MOL0     H14544   1.560   6.227   0.543  0.7313  0.1156 -0.5578
  108MOL0     H14545   1.605   6.405   0.520  1.7518  0.8508 -3.0711
  108MOL0     H14546   1.386   6.419   0.534 -1.1367  2.0657 -1.3521
  108MOL0     H14547   1.396   6.401   0.362  1.2863  2.1403  1.4375
  108MOL0     H14548   1.244   6.237   0.373  2.7363  3.3338 -1.7495
  108MOL0     H14549   1.387   6.141   0.448  0.5286 -0.2625 -2.1144
  108MOL0     H14550   1.172   6.307   0.589  0.4952  0.1234  2.7201
  108MOL0     H14551   1.299   6.215   0.672  1.7654 -0.2556 -1.7795
  108MOL0     H14552   1.067   6.100   0.667  2.4714  0.0156  2.0041
  108MOL0     H14553   1.171   5.998   0.593 -1.7773 -0.0119  2.2868
  108MOL0     H14554   1.002   6.213   0.459  2.5095 -0.0858 -0.6457
  108MOL0     H14555   1.066   6.075   0.367 -0.4927 -1.0534 -0.1556
  108MOL0     H14556   0.857   6.085   0.584 -2.6054 -0.3339 -1.1230
  108MOL0     H14557   0.928   5.928   0.536  1.2475 -0.0912  0.0843
  108MOL0     H14558   0.804   6.110   0.332  1.2461 -1.4650 -1.4707
  108MOL0     H14559   0.841   5.945   0.322  1.2499  0.4069  1.2090
  108MOL0     H14560   1.785   6.236   0.552 -2.6006 -4.1416  1.0721
  108MOL0     H14561   2.004   6.128   0.531  0.9761  0.8398 -0.5528
  108MOL0     H14562   2.406   6.258   0.047 -1.9500 -0.7302 -1.2474
  108MOL0     H14563   2.639   6.187   0.040  0.8603 -0.6563  0.7333
  108MOL0     H14564   2.694   6.884   0.100  1.5540  0.7506 -1.1859
  108MOL0     H14565   2.469   6.952   0.141  0.7149  0.5081  0.5597
  108MOL0     H14566   2.171   7.031   0.219 -0.5364 -1.9863  2.8158
  108MOL0     H14567   1.916   7.011   0.258 -0.6603 -0.0472 -2.2474
  108MOL0     H14568   1.667   7.355   0.362  1.2915  0.6931 -0.1128
  108MOL0     H14569   1.744   7.325   0.522  1.3907  0.4314 -1.8833
  108MOL0     H14570   1.581   7.160   0.569 -2.0585  2.3015  2.4182
  108MOL0     H14571   1.520   7.182   0.399  1.2029  1.1748 -0.8324
  108MOL0     H14572   1.462   7.418   0.468  0.0638  0.4901  0.5900
  108MOL0     H14573   1.492   7.378   0.640 -0.0074  1.7843 -0.4913
  108MOL0     H14574   1.297   7.225   0.480  2.2727  0.7472 -1.4184
  108MOL0     H14575   1.333   7.212   0.651 -3.6439 -0.7121 -0.3508
  108MOL0     H14576   1.116   7.581   0.642 -0.9705  0.5670 -0.3310
  108MOL0     H14577   1.921   7.414   0.426  1.4054  0.8224 -1.4305
  108MOL0     H14578   2.267   7.502   0.334  0.2165 -0.7295  0.8966
  108MOL0     H14579   2.108   7.560   0.312  0.3486  2.2605  1.2361
  108MOL0     H14580   2.148   7.502   0.469  2.5114 -1.1550  0.0478
  109MOL0     O14581   0.741   0.004   8.152 -0.2221  0.1446  0.7018
  109MOL0     C14582   0.674   0.100   8.178 -0.5747 -0.2454  0.1670
  109MOL0     O14583   0.702   0.187   8.288 -0.1291 -0.1272  0.1095
  109MOL0     C14584   0.833   0.197   8.344 -1.5005 -0.1192 -0.6076
  109MOL0     C14585   0.843   0.212   8.487 -0.8178 -0.5861 -0.4994
  109MOL0     C14586   0.971   0.209   8.556  1.0130  0.0357 -0.1340
  109MOL0     C14587   1.087   0.199   8.474 -0.0289  0.0472 -0.7191
  109MOL0     O14588   1.210   0.189   8.543  0.2456 -0.6291 -0.4507
  109MOL0     C14589   1.314   0.267   8.482  0.2732 -0.5495  0.8648
  109MOL0     C14590   1.422   0.287   8.588  0.6700 -0.1184 -0.4585
  109MOL0     C14591   1.400   0.409   8.676  0.3292 -0.0493  0.0397
  109MOL0     C14592   1.513   0.429   8.781 -0.1801 -0.1021  0.5602
  109MOL0     C14593   1.521   0.578   8.826  0.2994  0.3102  1.0252
  109MOL0     C14594   1.623   0.605   8.941 -0.1847 -0.5665 -0.7808
  109MOL0     C14595   1.764   0.590   8.895 -0.2719 -0.8627 -0.7321
  109MOL0     C14596   1.872   0.642   8.991  0.4311 -0.2536 -0.2337
  109MOL0     N14597   2.004   0.614   8.935  0.1597 -0.7172  0.0973
  109MOL0     C14598   2.056   0.490   8.902  0.9400 -0.3730 -0.0378
  109MOL0     C14599   2.166   0.521   8.826  0.0293  0.1286 -0.4233
  109MOL0     C14600   2.234   0.410   8.750 -0.5839 -0.0227  0.9196
  109MOL0     C14601   2.366   0.456   8.685 -0.1051  0.7734 -0.0725
  109MOL0     C14602   2.407   0.373   8.562 -0.0391 -0.1713 -0.3104
  109MOL0     C14603   2.548   0.415   8.513 -0.1697 -0.3655  0.1862
  109MOL0     O14604   2.648   0.329   8.572 -1.6149  0.0750  0.1904
  109MOL0     C14605   2.768   0.317   8.506  0.6822  0.1547  0.2126
  109MOL0     C14606   2.816   0.427   8.427 -0.4311 -0.2721  0.5280
  109MOL0     C14607   2.939   0.418   8.359  0.1485 -0.2300 -0.0081
  109MOL0     C14608   3.019   0.311   8.372 -0.7276 -0.8526 -0.9010
  109MOL0     C14609   3.158   0.305   8.323 -0.2814 -1.0116 -0.5263
  109MOL0     O14610   3.242   0.198   8.355 -0.2314  0.7293  0.5250
  109MOL0     C14611   3.374   0.192   8.304 -0.2867 -0.4015 -0.2632
  109MOL0     C14612   3.474   0.281   8.331  0.1326 -0.4231  0.2244
  109MOL0     C14613   3.603   0.261   8.277 -0.2006  0.2974  0.4962
  109MOL0     C14614   3.639   0.148   8.200  0.0299  0.2186  0.3008
  109MOL0     O14615   3.770   0.122   8.173 -0.6030 -0.0416  0.0766
  109MOL0     C14616   3.798  -0.018   8.165  0.2539  0.7501  0.2629
  109MOL0     C14617   3.947  -0.032   8.141  0.7848 -0.6395 -0.7985
  109MOL0     C14618   3.982  -0.183   8.128 -0.2988 -0.2401  0.0930
  109MOL0     C14619   4.131  -0.197   8.142 -0.9704 -0.0846 -0.7833
  109MOL0     C14620   4.167  -0.342   8.159  0.9449  0.4133  0.4534
  109MOL0     C14621   4.316  -0.365   8.145 -0.4170  0.2951 -0.2672
  109MOL0     C14622   4.395  -0.302   8.259  0.0223  0.6667  0.3394
  109MOL0     C14623   4.460  -0.178   8.207  0.5570  0.7752 -0.1026
  109MOL0    Cl14624   4.584  -0.215   8.085  0.0786  0.3124 -0.5245
  109MOL0     C14625   3.531   0.064   8.161 -0.8767  0.2705 -0.3576
  109MOL0     C14626   3.410   0.082   8.214 -0.4353  0.0751  0.3097
  109MOL0     O14627   3.189   0.417   8.269  0.0202  0.2202 -0.6189
  109MOL0     C14628   2.965   0.197   8.432  0.4634 -0.8526  0.0778
  109MOL0     C14629   2.840   0.199   8.501 -0.0961 -0.6322  0.0618
  109MOL0     N14630   2.173   0.660   8.817 -0.0774  0.3729  0.3409
  109MOL0     N14631   2.077   0.706   8.877  0.3914 -0.5534 -0.3916
  109MOL0     C14632   1.075   0.181   8.334  0.8607 -0.2662  0.0174
  109MOL0     C14633   0.950   0.187   8.268  0.4145  0.1479  0.0013
  109MOL0     C14634   0.556   0.111   8.093  0.0112 -0.0369  0.6980
  109MOL0     C14635   0.523   0.006   8.008 -0.3557  0.8600 -0.7723
  109MOL0     C14636   0.406   0.011   7.930 -0.0410 -0.1519  0.9724
  109MOL0     C14637   0.321   0.129   7.935 -0.3138  0.3732  0.7011
  109MOL0     O14638   0.201   0.150   7.870 -0.5906 -0.1654 -0.6469
  109MOL0     C14639   0.159   0.053   7.775 -0.6424  0.8485 -0.6255
  109MOL0     C14640   0.043   0.093   7.687 -0.4422  0.5429  0.8859
  109MOL0     C14641   0.031  -0.014   7.574  0.3899  0.2033  1.0931
  109MOL0     C14642  -0.093   0.010   7.484 -0.0093  0.0487 -0.2718
  109MOL0     C14643  -0.218  -0.020   7.558  0.8583 -0.3242  1.3083
  109MOL0     C14644  -0.325  -0.037   7.608 -0.6896  0.2368  0.4600
  109MOL0     C14645   0.356   0.233   8.012  0.1422 -0.3691  0.0333
  109MOL0     C14646   0.471   0.231   8.088 -0.7031  0.6332 -0.3200
  109MOL0     C14647   0.511   0.358   8.158  0.3568 -0.1744 -0.1701
  109MOL0     H14648   0.752   0.219   8.545  0.0664 -0.0112  0.8630
  109MOL0     H14649   0.979   0.217   8.664 -0.7120  2.8649 -0.1147
  109MOL0     H14650   1.363   0.214   8.400 -0.1556  0.9571 -0.4120
  109MOL0     H14651   1.273   0.359   8.441  0.9369 -0.7652 -0.3105
  109MOL0     H14652   1.517   0.294   8.535  1.5645 -0.5443  1.0044
  109MOL0     H14653   1.431   0.203   8.659 -1.3209 -1.0715 -1.2582
  109MOL0     H14654   1.301   0.402   8.722 -0.8070 -2.6615 -2.4994
  109MOL0     H14655   1.397   0.500   8.616  0.3489  0.3946  0.7003
  109MOL0     H14656   1.500   0.363   8.868 -2.0416 -1.2363 -0.5047
  109MOL0     H14657   1.607   0.401   8.734 -1.2975 -0.2253 -1.7283
  109MOL0     H14658   1.531   0.644   8.739 -5.7717 -0.0746 -0.3716
  109MOL0     H14659   1.423   0.605   8.866 -0.0690 -0.4891  0.6742
  109MOL0     H14660   1.613   0.704   8.987  2.3995 -0.3802 -0.5228
  109MOL0     H14661   1.608   0.529   9.019  2.6847 -2.0630 -1.5688
  109MOL0     H14662   1.782   0.657   8.810  1.4877 -1.3522 -0.7833
  109MOL0     H14663   1.772   0.486   8.861 -1.5539 -0.7876 -1.3500
  109MOL0     H14664   1.868   0.748   9.018  1.0264  0.0043 -1.1205
  109MOL0     H14665   1.859   0.591   9.088  2.9079  0.2806  0.4428
  109MOL0     H14666   2.022   0.390   8.923  1.2126 -0.2392  1.0599
  109MOL0     H14667   2.250   0.321   8.811 -0.0670 -0.3057  0.3797
  109MOL0     H14668   2.168   0.384   8.667  1.2486  0.1890 -0.6801
  109MOL0     H14669   2.350   0.561   8.656 -1.9847  0.6700  0.4877
  109MOL0     H14670   2.443   0.454   8.763  1.5872  1.8029 -1.6506
  109MOL0     H14671   2.334   0.390   8.483  0.7044 -0.4870 -1.0758
  109MOL0     H14672   2.405   0.267   8.586  0.9742 -0.2870 -0.7175
  109MOL0     H14673   2.566   0.521   8.535 -1.4295 -0.2536  0.7715
  109MOL0     H14674   2.538   0.410   8.404 -2.4669 -0.2697  0.3408
  109MOL0     H14675   2.761   0.520   8.411 -1.0436 -0.9009 -1.2464
  109MOL0     H14676   2.971   0.503   8.299  0.0825  0.5935  1.1074
  109MOL0     H14677   3.453   0.364   8.399  0.3347 -1.4096  1.5239
  109MOL0     H14678   3.680   0.331   8.309  0.7504 -1.0991  1.3985
  109MOL0     H14679   3.775  -0.071   8.258 -0.8242  1.5251  0.4620
  109MOL0     H14680   3.742  -0.048   8.076  0.5174  2.3362 -0.4703
  109MOL0     H14681   3.981   0.026   8.055  2.2424 -0.1332  0.0874
  109MOL0     H14682   4.004   0.008   8.226  0.5638 -0.9333 -0.5060
  109MOL0     H14683   3.936  -0.252   8.199  0.6428 -1.2134 -0.2186
  109MOL0     H14684   3.952  -0.207   8.026  1.3038 -0.0598 -0.4507
  109MOL0     H14685   4.154  -0.135   8.229  1.3889 -2.0324  0.1099
  109MOL0     H14686   4.168  -0.159   8.047  0.2544  0.7940  0.0241
  109MOL0     H14687   4.121  -0.404   8.081 -0.5931  0.7217  1.0756
  109MOL0     H14688   4.125  -0.372   8.255 -1.3019  0.1323 -0.5417
  109MOL0     H14689   4.333  -0.473   8.151  1.7584  0.2709 -4.0393
  109MOL0     H14690   4.363  -0.335   8.051  2.9574  0.6198  1.3645
  109MOL0     H14691   4.466  -0.382   8.283  0.3989  1.1253  0.7697
  109MOL0     H14692   4.339  -0.271   8.348 -0.4729 -0.5861  0.4894
  109MOL0     H14693   4.386  -0.114   8.157  1.3869  1.8849  0.0717
  109MOL0     H14694   4.503  -0.118   8.287 -0.1724 -0.3370  1.1697
  109MOL0     H14695   3.542  -0.022   8.095 -1.7236  0.5013 -0.8071
  109MOL0     H14696   3.340   0.007   8.177  0.4631 -0.3164 -0.6522
  109MOL0     H14697   3.014   0.101   8.436  0.3106 -0.9355 -0.0322
  109MOL0     H14698   2.816   0.102   8.542  1.0842 -0.8615  0.2523
  109MOL0     H14699   1.163   0.170   8.271  1.8078 -0.1639  1.2914
  109MOL0     H14700   0.935   0.165   8.162 -1.6752  0.1084  0.2629
  109MOL0     H14701   0.594  -0.074   7.990 -0.7085  0.3170  0.1724
  109MOL0     H14702   0.389  -0.070   7.859 -2.7964 -0.2814  1.6811
  109MOL0     H14703   0.136  -0.037   7.833  0.6956  2.0779  1.9966
  109MOL0     H14704   0.245   0.042   7.709 -0.1267  0.6052  0.0739
  109MOL0     H14705   0.062   0.192   7.643  0.8190  0.3304  0.9278
  109MOL0     H14706  -0.041   0.097   7.756 -1.2374  0.8897 -0.0750
  109MOL0     H14707   0.025  -0.116   7.613 -0.3985 -0.2281 -0.1135
  109MOL0     H14708   0.123  -0.009   7.514 -0.2713 -0.4256 -0.0100
  109MOL0     H14709  -0.104   0.112   7.445  1.4512  0.1977 -0.3605
  109MOL0     H14710  -0.077  -0.056   7.398  4.2640  1.8351 -1.1278
  109MOL0     H14711  -0.416  -0.060   7.661 -0.6947 -0.2567  0.2426
  109MOL0     H14712   0.283   0.313   8.020 -0.1486 -0.7744  1.9951
  109MOL0     H14713   0.619   0.373   8.146  0.2924 -0.2438 -0.8858
  109MOL0     H14714   0.456   0.440   8.111 -1.0398 -0.2777  1.2138
  109MOL0     H14715   0.481   0.353   8.263 -0.3694  1.7328 -0.2552
  110MOL0     O14716   6.855   0.907   2.883  0.1478 -0.0925 -0.2593
  110MOL0     C14717   6.783   0.883   2.785  0.5919 -0.6329 -0.3147
  110MOL0     O14718   6.827   0.830   2.669 -0.0969 -0.8842  0.3847
  110MOL0     C14719   6.951   0.768   2.662 -0.0786 -0.3879  0.5884
  110MOL0     C14720   7.038   0.814   2.559  0.5427 -0.6378 -0.5538
  110MOL0     C14721   7.178   0.777   2.555  1.0709  0.0983 -0.3069
  110MOL0     C14722   7.222   0.691   2.648 -0.4274  0.8944  0.0691
  110MOL0     O14723   7.357   0.649   2.647  0.5765  0.2508  0.4440
  110MOL0     C14724   7.460   0.731   2.590 -0.5812 -0.0676 -0.2315
  110MOL0     C14725   7.590   0.663   2.587 -0.3008  0.1074 -1.4649
  110MOL0     C14726   7.694   0.738   2.500 -0.0073 -0.3816  0.1949
  110MOL0     C14727   7.835   0.668   2.530  0.3277  0.5221  0.2479
  110MOL0     C14728   7.959   0.749   2.479  0.4320 -0.0909 -0.4971
  110MOL0     C14729   8.079   0.652   2.475 -0.4072  0.1336 -0.2425
  110MOL0     C14730   8.189   0.679   2.379  0.6816  0.0487 -0.4258
  110MOL0     C14731   8.328   0.614   2.392 -0.4096  0.2832 -0.2115
  110MOL0     N14732   8.415   0.694   2.309 -0.4815  0.2794 -0.1787
  110MOL0     C14733   8.417   0.714   2.169  0.6949  0.1002 -0.1633
  110MOL0     C14734   8.521   0.801   2.146 -0.3349 -0.0211  0.6192
  110MOL0     C14735   8.563   0.846   2.012 -0.3115 -0.4259  0.0634
  110MOL0     C14736   8.714   0.893   2.019  0.1996  0.5238 -0.0687
  110MOL0     C14737   8.771   0.937   1.881 -0.3922 -0.7457 -0.2332
  110MOL0     C14738   8.923   0.961   1.882 -0.0457 -0.2169 -0.4758
  110MOL0     O14739   8.991   0.839   1.918 -0.2134  0.0884  0.6422
  110MOL0     C14740   9.128   0.847   1.919 -0.3620  0.1731  0.5556
  110MOL0     C14741   9.201   0.962   1.886 -0.2407  0.0773  0.0053
  110MOL0     C14742   9.339   0.970   1.887  0.3238 -0.6683 -0.3589
  110MOL0     C14743   9.410   0.862   1.944  0.5896  0.5784 -0.1146
  110MOL0     C14744   9.555   0.876   1.957 -0.2389  0.5087 -0.4157
  110MOL0     O14745   9.612   0.986   1.898  0.3751 -0.1934  0.4099
  110MOL0     C14746   9.729   1.025   1.945 -0.2876 -0.0338 -0.1011
  110MOL0     C14747   9.834   1.028   1.854  0.2062  0.0395  0.1779
  110MOL0     C14748   9.968   1.069   1.881 -0.0476 -0.2231 -0.3093
  110MOL0     C14749   9.993   1.118   2.006  0.9699  0.4244 -0.3352
  110MOL0     O14750  10.114   1.158   2.032 -0.0507  1.2743  0.3817
  110MOL0     C14751  10.152   1.119   2.166 -0.0544 -0.1708 -0.0813
  110MOL0     C14752  10.304   1.147   2.194 -0.2043 -0.0510  0.4421
  110MOL0     C14753  10.368   1.261   2.124  0.4384 -0.7336  0.6905
  110MOL0     C14754  10.519   1.239   2.114  0.5282 -0.4955  0.3889
  110MOL0     C14755  10.594   1.358   2.061  0.1686 -0.7106 -0.0982
  110MOL0     C14756  10.674   1.435   2.172 -0.2811 -0.8524  0.4355
  110MOL0     C14757  10.822   1.460   2.135 -0.6386 -0.4356  0.0428
  110MOL0     C14758  10.906   1.332   2.130 -0.1771 -0.5674  0.2939
  110MOL0    Cl14759  10.909   1.249   2.293 -0.2921  0.1237  0.1177
  110MOL0     C14760   9.883   1.134   2.093  0.2353 -0.3359  0.4991
  110MOL0     C14761   9.756   1.085   2.072  0.3759 -0.4312  0.2637
  110MOL0     O14762   9.615   0.806   2.040 -0.2062 -0.4442 -0.2754
  110MOL0     C14763   9.340   0.742   1.986 -0.9357  0.2376 -0.3335
  110MOL0     C14764   9.200   0.735   1.964 -0.1930  0.0356 -0.1638
  110MOL0     N14765   8.581   0.835   2.266  0.4339  0.5203 -0.2223
  110MOL0     N14766   8.516   0.776   2.359 -0.2591 -0.6274 -0.6032
  110MOL0     C14767   7.130   0.643   2.745  0.2505  0.0793 -0.1355
  110MOL0     C14768   7.001   0.683   2.763  0.7431  0.0945 -0.2299
  110MOL0     C14769   6.635   0.931   2.781 -0.7536 -0.8489  0.7089
  110MOL0     C14770   6.561   0.916   2.662 -0.2487 -0.4543  0.4571
  110MOL0     C14771   6.425   0.955   2.667 -0.0384 -0.6613  0.6227
  110MOL0     C14772   6.359   1.011   2.776 -0.6912 -0.7155 -0.3098
  110MOL0     O14773   6.227   1.041   2.761  0.5538  0.3854  0.2680
  110MOL0     C14774   6.161   1.084   2.880  0.4950  0.0407 -0.3744
  110MOL0     C14775   6.011   1.120   2.864  0.4738  0.4325  0.6298
  110MOL0     C14776   5.943   1.159   3.001  0.0716 -0.1949 -0.1896
  110MOL0     C14777   5.802   1.198   3.002  0.1720  0.3039  0.1661
  110MOL0     C14778   5.721   1.077   2.994 -1.0476  0.5003  0.2854
  110MOL0     C14779   5.640   0.988   2.981 -0.7191 -0.5716 -0.7293
  110MOL0     C14780   6.440   1.030   2.886  0.5730 -0.6851  0.7281
  110MOL0     C14781   6.574   0.991   2.893 -0.4517 -0.8079 -0.1693
  110MOL0     C14782   6.635   1.010   3.028 -0.5340 -0.1573  1.2892
  110MOL0     H14783   6.991   0.887   2.493 -1.2085  1.6708  2.9571
  110MOL0     H14784   7.230   0.817   2.469 -2.0938  0.7938 -2.0400
  110MOL0     H14785   7.437   0.763   2.488  2.0886 -3.9700 -2.3209
  110MOL0     H14786   7.483   0.822   2.646  1.2431 -0.1679 -0.7520
  110MOL0     H14787   7.561   0.567   2.545  0.5494 -0.3302 -1.0836
  110MOL0     H14788   7.624   0.646   2.690  1.2675 -2.3984 -2.2974
  110MOL0     H14789   7.702   0.841   2.535  0.7121 -0.5929  0.6772
  110MOL0     H14790   7.683   0.734   2.391 -0.6753  0.2945  0.2296
  110MOL0     H14791   7.849   0.646   2.636 -2.1991  1.0494  0.7584
  110MOL0     H14792   7.838   0.569   2.483  1.0228  0.0152  1.3170
  110MOL0     H14793   7.939   0.778   2.375  1.8412 -2.4062 -1.5052
  110MOL0     H14794   7.976   0.840   2.537 -1.8536 -0.4315  0.8599
  110MOL0     H14795   8.115   0.651   2.578 -3.9114  0.8761  1.1092
  110MOL0     H14796   8.048   0.550   2.453 -0.0678 -0.2178  0.8455
  110MOL0     H14797   8.209   0.786   2.375 -0.7621  0.3504 -0.1276
  110MOL0     H14798   8.153   0.643   2.282  1.1173 -2.4024  0.2367
  110MOL0     H14799   8.352   0.619   2.499  0.5025  0.8983 -0.4380
  110MOL0     H14800   8.328   0.507   2.370 -0.4235  0.2609 -0.1043
  110MOL0     H14801   8.351   0.668   2.096  1.3121  1.2689 -1.5040
  110MOL0     H14802   8.555   0.767   1.937  0.3136  0.3286 -0.8145
  110MOL0     H14803   8.502   0.931   1.982 -4.0884 -2.3097  1.7167
  110MOL0     H14804   8.719   0.985   2.077  0.6744  0.4272  0.0459
  110MOL0     H14805   8.784   0.830   2.074 -0.4682  0.4006  0.6541
  110MOL0     H14806   8.727   1.034   1.856 -1.9354 -1.3761 -0.0475
  110MOL0     H14807   8.751   0.863   1.802  2.5038 -0.5707 -1.2612
  110MOL0     H14808   8.951   1.042   1.949 -2.6767  2.4286 -2.3064
  110MOL0     H14809   8.962   1.006   1.790  2.4638  2.2626  1.6096
  110MOL0     H14810   9.159   1.054   1.849  0.8179  0.2234 -0.8766
  110MOL0     H14811   9.388   1.058   1.848  0.2793 -0.5350 -0.1138
  110MOL0     H14812   9.816   1.002   1.750  0.3676  1.0009 -0.0938
  110MOL0     H14813  10.056   1.061   1.818  1.0901 -0.4660  1.2425
  110MOL0     H14814  10.096   1.180   2.237 -1.2038 -1.0296 -0.2383
  110MOL0     H14815  10.126   1.015   2.185  1.8016 -0.1564  3.3260
  110MOL0     H14816  10.320   1.144   2.302  0.6104 -0.3767  0.3170
  110MOL0     H14817  10.359   1.057   2.164 -0.3996 -0.8408  2.3049
  110MOL0     H14818  10.329   1.283   2.024  1.3859  1.1536  0.6954
  110MOL0     H14819  10.353   1.356   2.176  2.0726  1.3426 -2.2840
  110MOL0     H14820  10.544   1.153   2.051  2.0604  0.2142 -0.0265
  110MOL0     H14821  10.554   1.207   2.212  1.6639 -0.5808 -0.0379
  110MOL0     H14822  10.515   1.426   2.027  1.4250  0.4576 -0.7819
  110MOL0     H14823  10.650   1.332   1.971  0.2010  1.5625 -0.8106
  110MOL0     H14824  10.627   1.533   2.186 -1.5922 -1.6225  1.6259
  110MOL0     H14825  10.664   1.372   2.260 -2.0362 -3.0889 -1.2425
  110MOL0     H14826  10.870   1.527   2.207  0.2730  0.1091 -1.0297
  110MOL0     H14827  10.828   1.507   2.036  0.1838  1.2125  0.8256
  110MOL0     H14828  10.865   1.269   2.052  1.6503 -0.7553 -0.5677
  110MOL0     H14829  11.006   1.364   2.100  0.7386 -3.2671  0.2215
  110MOL0     H14830   9.899   1.172   2.194  0.2664 -0.4628  0.5423
  110MOL0     H14831   9.679   1.091   2.148  0.5409  1.1952  0.3297
  110MOL0     H14832   9.387   0.658   2.036 -4.3871 -1.1091  0.9717
  110MOL0     H14833   9.149   0.641   1.983  0.9887 -0.6958 -0.5175
  110MOL0     H14834   7.175   0.569   2.811  1.1605 -1.0741 -1.9873
  110MOL0     H14835   6.932   0.657   2.842  0.7831 -1.9628 -0.8007
  110MOL0     H14836   6.596   0.869   2.570 -0.7511  0.3217 -0.1466
  110MOL0     H14837   6.359   0.933   2.583  0.4145 -0.7271  0.2807
  110MOL0     H14838   6.213   1.171   2.921  1.1578 -0.7127  0.4233
  110MOL0     H14839   6.164   0.997   2.946  1.7257  0.4891  0.2090
  110MOL0     H14840   5.955   1.041   2.813 -0.1048  1.1022  0.2199
  110MOL0     H14841   6.016   1.209   2.802  1.1016 -1.1182 -1.6882
  110MOL0     H14842   5.997   1.249   3.030  0.9259 -0.7361 -0.0724
  110MOL0     H14843   5.966   1.090   3.083 -2.4847 -0.7754  0.1464
  110MOL0     H14844   5.770   1.262   3.084 -0.2590 -1.6513  1.6037
  110MOL0     H14845   5.775   1.253   2.911 -2.1921 -0.5119  0.3037
  110MOL0     H14846   5.579   0.901   2.972  0.1664 -1.1888 -0.8766
  110MOL0     H14847   6.400   1.076   2.976  1.5002 -1.4759  1.5701
  110MOL0     H14848   6.554   1.031   3.098 -1.1044  1.8841  0.1007
  110MOL0     H14849   6.690   0.922   3.063 -1.2508 -0.4022  1.8204
  110MOL0     H14850   6.706   1.093   3.028 -1.2138  0.4441  2.1471
  111MOL0     O14851   7.824   1.006  10.373 -0.0201 -0.2661  0.3879
  111MOL0     C14852   7.715   1.072  10.382 -0.7506 -0.0383  0.4698
  111MOL0     O14853   7.701   1.203  10.350 -0.0644  0.1827  0.3697
  111MOL0     C14854   7.804   1.277  10.292  0.7694  0.7455 -0.1436
  111MOL0     C14855   7.789   1.319  10.161  0.0430  0.1310 -0.7159
  111MOL0     C14856   7.895   1.392  10.109  0.2021 -0.3985 -0.6384
  111MOL0     C14857   8.005   1.434  10.186 -0.4727 -0.1421 -0.2492
  111MOL0     O14858   8.103   1.510  10.130  0.6114  0.2187 -0.1982
  111MOL0     C14859   8.177   1.459  10.021  0.3574 -0.4791 -0.2701
  111MOL0     C14860   8.303   1.547  10.009 -0.5319 -0.5465  0.8670
  111MOL0     C14861   8.269   1.694   9.974  0.3832  0.2299 -0.7957
  111MOL0     C14862   8.399   1.778   9.971 -0.4088  0.1794 -0.2123
  111MOL0     C14863   8.384   1.918   9.928  0.3729 -0.0498  0.3483
  111MOL0     C14864   8.513   1.985   9.929  0.1375  0.0296 -0.4005
  111MOL0     C14865   8.519   2.121   9.871  0.7358  0.7735 -0.2875
  111MOL0     C14866   8.506   2.128   9.720 -0.0246  0.6940 -0.2259
  111MOL0     N14867   8.617   2.053   9.642 -0.3791  0.0271 -0.4004
  111MOL0     C14868   8.747   2.046   9.671  0.6491  0.3980 -0.6671
  111MOL0     C14869   8.813   1.988   9.562  0.1961 -0.3983 -0.3087
  111MOL0     C14870   8.959   1.948   9.553 -0.1885 -0.0664  0.3586
  111MOL0     C14871   9.006   1.870   9.676 -0.3780 -0.2614  0.7333
  111MOL0     C14872   9.154   1.850   9.697 -0.0580  0.6941 -0.4414
  111MOL0     C14873   9.246   1.968   9.664 -0.9591 -0.0804  0.3518
  111MOL0     O14874   9.383   1.943   9.700  0.4266  0.0298  0.4174
  111MOL0     C14875   9.470   1.889   9.612  0.0724  0.5874  0.1664
  111MOL0     C14876   9.438   1.833   9.492 -0.2200  0.5121  0.2412
  111MOL0     C14877   9.538   1.774   9.418 -0.5437  0.5689 -0.2182
  111MOL0     C14878   9.668   1.763   9.470 -0.0028  0.0781 -0.7265
  111MOL0     C14879   9.775   1.696   9.395  0.3347  0.1170  0.3789
  111MOL0     O14880   9.738   1.608   9.294  0.8464 -0.7130  0.5613
  111MOL0     C14881   9.835   1.541   9.241 -0.2388 -0.0370  0.5306
  111MOL0     C14882   9.923   1.605   9.146 -0.2121  0.5023  0.4796
  111MOL0     C14883  10.002   1.528   9.060 -0.2588 -0.7421 -0.0017
  111MOL0     C14884   9.998   1.390   9.063  0.2949 -0.1992 -0.0640
  111MOL0     O14885  10.079   1.308   8.987  0.4591 -0.1030 -0.7471
  111MOL0     C14886  10.206   1.281   9.048 -0.1494  0.8883  0.4621
  111MOL0     C14887  10.264   1.162   8.973  0.3838 -0.2452  0.5410
  111MOL0     C14888  10.417   1.153   9.003 -0.3380 -0.4493 -0.0910
  111MOL0     C14889  10.476   1.029   8.942  0.4484 -0.2334 -0.1117
  111MOL0     C14890  10.621   0.992   8.978  0.5148  0.8091 -0.8205
  111MOL0     C14891  10.639   0.960   9.130 -0.4321  0.0751 -0.9088
  111MOL0     C14892  10.759   0.869   9.147  0.2809  0.6677 -0.3978
  111MOL0     C14893  10.835   0.880   9.278  0.3757 -0.4400 -0.5921
  111MOL0    Cl14894  10.987   0.787   9.270  0.0959  0.1238  0.3360
  111MOL0     C14895   9.917   1.331   9.165 -0.0751 -0.1711 -0.2674
  111MOL0     C14896   9.837   1.403   9.252  0.9557  0.0028  0.7346
  111MOL0     O14897   9.893   1.708   9.431  0.1020  0.3773 -0.1525
  111MOL0     C14898   9.702   1.821   9.598  1.0739  0.4164  0.0471
  111MOL0     C14899   9.601   1.880   9.662  0.5141 -0.2581 -0.4142
  111MOL0     N14900   8.714   1.950   9.472  0.2441 -0.5752 -0.5961
  111MOL0     N14901   8.596   1.997   9.521 -0.3085 -0.2699 -0.4174
  111MOL0     C14902   8.007   1.407  10.327  0.5454  0.1025  0.6701
  111MOL0     C14903   7.904   1.320  10.374 -0.9397 -1.4624 -0.3729
  111MOL0     C14904   7.596   1.004  10.428  0.1459  0.5621 -1.0892
  111MOL0     C14905   7.482   1.074  10.452  0.7348  0.0767 -0.1080
  111MOL0     C14906   7.364   1.013  10.508  0.8005 -0.0014  0.4922
  111MOL0     C14907   7.357   0.882  10.546  0.1634  0.1297 -0.0287
  111MOL0     O14908   7.244   0.822  10.603 -1.1415 -0.2320  0.0709
  111MOL0     C14909   7.226   0.677  10.580  0.2654 -0.1635 -0.7129
  111MOL0     C14910   7.078   0.645  10.566 -0.2734  0.0522 -0.7162
  111MOL0     C14911   6.996   0.646  10.702 -1.0449  1.3416 -0.9446
  111MOL0     C14912   6.849   0.682  10.672 -0.8678  0.0437  1.0465
  111MOL0     C14913   6.795   0.595  10.564  0.4358  0.2899 -0.7315
  111MOL0     C14914   6.760   0.522  10.475 -0.1012  0.2283 -0.0519
  111MOL0     C14915   7.472   0.807  10.517  0.0523 -0.0686 -0.5455
  111MOL0     C14916   7.592   0.861  10.458 -0.5071 -0.5104 -0.6475
  111MOL0     C14917   7.715   0.769  10.443  0.9849 -0.3507 -0.1368
  111MOL0     H14918   7.704   1.298  10.097  1.6736 -1.8772 -2.3991
  111MOL0     H14919   7.899   1.425  10.005  1.0614  0.8702 -0.2246
  111MOL0     H14920   8.197   1.355  10.048 -1.6585 -0.4957  1.4367
  111MOL0     H14921   8.109   1.459   9.935 -0.5005 -1.4254  0.3843
  111MOL0     H14922   8.369   1.511   9.930  0.6324  0.5917  1.2895
  111MOL0     H14923   8.369   1.547  10.097  2.3356 -1.2425 -1.1479
  111MOL0     H14924   8.206   1.742  10.049  2.0451  3.2181 -1.1309
  111MOL0     H14925   8.217   1.705   9.878 -0.8695  0.1017 -0.1523
  111MOL0     H14926   8.441   1.783  10.072  1.0093  0.4995 -0.8004
  111MOL0     H14927   8.472   1.728   9.907 -1.1006 -0.0562 -0.8250
  111MOL0     H14928   8.340   1.921   9.827  0.1405 -0.3077  0.4398
  111MOL0     H14929   8.313   1.982   9.983 -0.7064 -0.1398 -0.8789
  111MOL0     H14930   8.543   1.996  10.033  0.6607 -0.3364 -0.5070
  111MOL0     H14931   8.592   1.927   9.880  0.2310 -0.4048  0.2650
  111MOL0     H14932   8.618   2.163   9.891  0.7569  0.2930  0.6714
  111MOL0     H14933   8.446   2.186   9.920 -1.0690  0.7484 -2.7408
  111MOL0     H14934   8.407   2.086   9.696  1.3019 -2.2708 -1.0550
  111MOL0     H14935   8.511   2.233   9.692  1.3771  1.3808  2.3164
  111MOL0     H14936   8.784   2.082   9.766  0.1944  2.8537 -1.3385
  111MOL0     H14937   8.974   1.888   9.463  4.2121  1.3628 -0.0824
  111MOL0     H14938   9.023   2.035   9.536  1.2570 -1.2084 -0.2728
  111MOL0     H14939   8.970   1.928   9.762  3.5036  1.2697  1.5337
  111MOL0     H14940   8.947   1.778   9.682 -1.7039  0.4361 -0.8505
  111MOL0     H14941   9.191   1.767   9.636  2.8786  1.7267 -0.2303
  111MOL0     H14942   9.162   1.831   9.804  2.0271  0.0325 -0.6697
  111MOL0     H14943   9.199   2.050   9.720  0.2158 -0.1896  1.5342
  111MOL0     H14944   9.241   1.996   9.558  0.5447  1.1376  0.5721
  111MOL0     H14945   9.341   1.833   9.443  0.0872  1.9496 -0.4212
  111MOL0     H14946   9.525   1.735   9.317  0.0399  2.0022 -0.8739
  111MOL0     H14947   9.931   1.712   9.135 -1.5299  0.5167 -0.6448
  111MOL0     H14948  10.062   1.571   8.981 -2.9507  0.0846 -1.7359
  111MOL0     H14949  10.271   1.369   9.050  0.0448  0.7387  1.0628
  111MOL0     H14950  10.193   1.255   9.153  0.4463  2.1433  0.8701
  111MOL0     H14951  10.211   1.068   8.994 -1.4178  0.3539 -1.1006
  111MOL0     H14952  10.257   1.164   8.864  1.9286 -0.8741  0.3957
  111MOL0     H14953  10.474   1.242   8.974  1.6268 -0.9006  2.0770
  111MOL0     H14954  10.420   1.145   9.112  0.9484 -2.3082 -0.2103
  111MOL0     H14955  10.472   1.038   8.833  0.1119 -1.7288 -0.2392
  111MOL0     H14956  10.411   0.943   8.960  0.4065 -0.0867  0.4548
  111MOL0     H14957  10.685   1.075   8.947  1.1830  0.7563  0.3499
  111MOL0     H14958  10.642   0.901   8.921  1.6023 -0.9855  2.1917
  111MOL0     H14959  10.649   1.048   9.194  2.9588 -1.0775  0.3729
  111MOL0     H14960  10.561   0.899   9.176  1.3326 -1.7512 -0.2474
  111MOL0     H14961  10.837   0.894   9.075  2.1403  0.6102  1.5025
  111MOL0     H14962  10.734   0.763   9.138  1.2834  0.2554  1.2751
  111MOL0     H14963  10.860   0.987   9.278 -1.3874  0.0155  0.5641
  111MOL0     H14964  10.781   0.852   9.369  2.4526 -0.8850  0.5414
  111MOL0     H14965   9.923   1.223   9.166 -0.6586 -0.2492 -2.0770
  111MOL0     H14966   9.761   1.355   9.312 -1.8236  1.7053 -1.1984
  111MOL0     H14967   9.798   1.830   9.647  1.9227 -1.3099 -1.1535
  111MOL0     H14968   9.623   1.932   9.754 -1.4282 -0.5898  0.2912
  111MOL0     H14969   8.088   1.440  10.390  0.5142 -0.6639  1.1295
  111MOL0     H14970   7.899   1.290  10.478  2.1363 -1.0740 -0.0223
  111MOL0     H14971   7.462   1.176  10.422 -2.4228 -0.4321 -0.1356
  111MOL0     H14972   7.282   1.075  10.542  1.8866  0.2272  2.8564
  111MOL0     H14973   7.266   0.618  10.663 -0.7647 -0.3504 -0.3285
  111MOL0     H14974   7.262   0.638  10.484 -0.4068 -2.2286 -0.1783
  111MOL0     H14975   7.068   0.546  10.521 -0.4718 -1.2461  1.9863
  111MOL0     H14976   7.032   0.724  10.505  0.0564  0.0345 -0.9922
  111MOL0     H14977   7.038   0.715  10.775 -0.7521  0.7275 -0.5329
  111MOL0     H14978   7.000   0.549  10.752 -1.2454  1.5099 -0.6000
  111MOL0     H14979   6.803   0.670  10.770 -0.2297  0.1312  1.3586
  111MOL0     H14980   6.848   0.788  10.644  2.6786  0.3118  1.4374
  111MOL0     H14981   6.737   0.485  10.378 -0.0268  3.5646 -1.4814
  111MOL0     H14982   7.482   0.704  10.550  3.4481  0.3227  0.0539
  111MOL0     H14983   7.690   0.663  10.455  1.7783 -0.7922 -1.9461
  111MOL0     H14984   7.762   0.774  10.344 -0.0192 -3.1717 -0.8617
  111MOL0     H14985   7.793   0.784  10.518 -3.1086  1.6937  4.2166
  112MOL0     O14986   5.117   8.624   2.026 -0.3375  0.1411 -0.3340
  112MOL0     C14987   5.062   8.602   2.132 -0.0423 -0.0778 -0.4407
  112MOL0     O14988   5.115   8.608   2.257 -0.0778 -0.1761  0.8457
  112MOL0     C14989   5.243   8.615   2.276  0.1465 -0.3859 -0.4860
  112MOL0     C14990   5.323   8.507   2.241  0.1933 -1.0070 -0.6244
  112MOL0     C14991   5.460   8.513   2.241 -0.4209 -0.6002  0.5227
  112MOL0     C14992   5.524   8.634   2.286 -0.2167  0.6144 -0.6732
  112MOL0     O14993   5.661   8.647   2.291 -0.7827 -0.0472  0.1587
  112MOL0     C14994   5.742   8.534   2.329  0.6295 -0.3538 -0.0902
  112MOL0     C14995   5.868   8.594   2.386  0.5828 -0.4579  0.1425
  112MOL0     C14996   5.968   8.485   2.419  0.6464 -0.6852 -0.1421
  112MOL0     C14997   6.092   8.569   2.461 -0.0188  0.0878  0.5355
  112MOL0     C14998   6.192   8.465   2.514 -0.9364 -0.2189  0.4680
  112MOL0     C14999   6.329   8.521   2.470  0.4902 -0.7688  0.2508
  112MOL0     C15000   6.449   8.450   2.544 -0.0581 -0.8058 -0.2811
  112MOL0     C15001   6.463   8.296   2.495 -0.7407 -0.1599  0.7739
  112MOL0     N15002   6.605   8.251   2.517  0.0935 -0.4861  0.0367
  112MOL0     C15003   6.728   8.302   2.476  0.2151 -0.7069 -1.0116
  112MOL0     C15004   6.821   8.223   2.527  0.7079  0.0600 -0.9304
  112MOL0     C15005   6.971   8.244   2.521 -1.0081 -0.1133  0.3547
  112MOL0     C15006   7.024   8.200   2.388 -0.0219  0.8459  0.5339
  112MOL0     C15007   7.145   8.284   2.354 -0.1452  0.1359 -0.7327
  112MOL0     C15008   7.208   8.264   2.216 -0.8880 -0.3407 -0.2579
  112MOL0     O15009   7.117   8.252   2.099 -0.3736  0.0833  0.1505
  112MOL0     C15010   7.182   8.224   1.978  0.4958  0.4764 -1.2542
  112MOL0     C15011   7.112   8.163   1.880 -0.1706  0.3136 -0.0967
  112MOL0     C15012   7.168   8.132   1.760 -1.1713 -0.7433 -0.5351
  112MOL0     C15013   7.308   8.145   1.734  0.4175  0.0069 -0.7747
  112MOL0     C15014   7.374   8.100   1.609 -0.7780  0.0510 -0.0246
  112MOL0     O15015   7.512   8.089   1.604  0.6590  0.5428  0.0046
  112MOL0     C15016   7.559   8.026   1.493 -0.5964  0.0074  0.6621
  112MOL0     C15017   7.509   7.903   1.441 -0.9977 -0.3413 -0.0571
  112MOL0     C15018   7.572   7.845   1.333  0.9278  0.2154  0.0279
  112MOL0     C15019   7.673   7.911   1.265  0.1209 -0.5932 -0.1214
  112MOL0     O15020   7.742   7.858   1.161 -0.2188  0.6236 -0.2503
  112MOL0     C15021   7.672   7.757   1.086 -0.1317 -0.1078 -0.3349
  112MOL0     C15022   7.741   7.739   0.948  0.1859 -0.0848 -0.4293
  112MOL0     C15023   7.865   7.644   0.948  0.3451 -0.6163  0.1225
  112MOL0     C15024   7.944   7.658   0.825  0.5853 -0.3513  0.1498
  112MOL0     C15025   8.077   7.600   0.850 -0.2249  0.7818 -0.2923
  112MOL0     C15026   8.180   7.648   0.741  0.7144  1.4702 -0.0113
  112MOL0     C15027   8.212   7.792   0.758 -0.2403  0.0837 -0.1029
  112MOL0     C15028   8.340   7.829   0.681  0.0820 -0.3504  0.2516
  112MOL0    Cl15029   8.472   7.728   0.734  0.5007 -0.1153  0.1182
  112MOL0     C15030   7.712   8.032   1.306 -0.5501 -0.8235 -0.6131
  112MOL0     C15031   7.667   8.089   1.428  0.2229 -0.9395  0.3746
  112MOL0     O15032   7.293   8.088   1.522  0.2104  0.5348  0.3501
  112MOL0     C15033   7.382   8.208   1.843 -0.5952  0.2014  0.0477
  112MOL0     C15034   7.318   8.246   1.952  0.5007 -0.2324  0.2604
  112MOL0     N15035   6.755   8.126   2.604 -0.3283 -0.1591 -0.3407
  112MOL0     N15036   6.625   8.144   2.602 -0.4769 -0.0781 -0.0570
  112MOL0     C15037   5.444   8.747   2.328  0.4506  0.8205 -0.0388
  112MOL0     C15038   5.307   8.728   2.321  0.5103 -0.3961  1.2240
  112MOL0     C15039   4.918   8.559   2.128 -0.9373  1.3957  0.6092
  112MOL0     C15040   4.856   8.528   2.244 -0.7174  0.6298  0.0104
  112MOL0     C15041   4.728   8.475   2.262 -0.0944 -0.9574 -0.3856
  112MOL0     C15042   4.668   8.430   2.149  0.0959 -0.0034  0.8302
  112MOL0     O15043   4.550   8.361   2.151 -0.0191  0.5857 -0.5449
  112MOL0     C15044   4.489   8.311   2.270  0.3245  0.2243  0.6520
  112MOL0     C15045   4.403   8.192   2.223  0.1021 -0.2268  0.0920
  112MOL0     C15046   4.321   8.135   2.334 -0.4705 -0.3498  0.2939
  112MOL0     C15047   4.196   8.214   2.376  0.7076  0.3382 -0.2482
  112MOL0     C15048   4.136   8.159   2.497  0.2191  0.1108  0.1217
  112MOL0     C15049   4.098   8.111   2.601 -0.6555  0.1584 -0.3839
  112MOL0     C15050   4.724   8.473   2.022 -0.8102 -0.6575 -0.4616
  112MOL0     C15051   4.844   8.539   2.012  0.0075  0.7207 -0.2801
  112MOL0     C15052   4.891   8.571   1.876  0.4661  0.0578  0.8008
  112MOL0     H15053   5.269   8.421   2.204 -2.1876  1.7152 -4.1142
  112MOL0     H15054   5.508   8.423   2.204  1.7879  0.7274 -0.0388
  112MOL0     H15055   5.682   8.467   2.392 -1.2007  1.0701 -0.2219
  112MOL0     H15056   5.767   8.468   2.245  0.6843  0.6423 -0.8718
  112MOL0     H15057   5.823   8.642   2.473  0.3303 -1.2406  0.4594
  112MOL0     H15058   5.915   8.665   2.318  2.3489 -2.0128 -0.3774
  112MOL0     H15059   5.984   8.421   2.331  2.1574 -0.4190 -0.0910
  112MOL0     H15060   5.922   8.427   2.499 -0.1295 -0.9559 -0.7716
  112MOL0     H15061   6.127   8.618   2.370 -0.7626  0.8179  0.6256
  112MOL0     H15062   6.071   8.648   2.534 -0.9645 -1.0117  1.5123
  112MOL0     H15063   6.181   8.459   2.623 -3.1471  0.3733  0.3237
  112MOL0     H15064   6.182   8.368   2.466  0.5710  0.0296 -0.4163
  112MOL0     H15065   6.330   8.512   2.361  0.4940  0.3596  0.1518
  112MOL0     H15066   6.342   8.625   2.500  0.6672 -1.1541  1.5601
  112MOL0     H15067   6.442   8.465   2.652 -0.1862  1.0282 -0.4962
  112MOL0     H15068   6.540   8.502   2.514  0.2733 -1.3601 -0.2460
  112MOL0     H15069   6.403   8.240   2.567 -2.5187  1.5595  0.7299
  112MOL0     H15070   6.433   8.276   2.392  0.2399  2.4557 -0.1213
  112MOL0     H15071   6.734   8.384   2.405 -1.4448 -0.8847 -1.3945
  112MOL0     H15072   6.994   8.351   2.525 -0.9611 -0.1483  3.6805
  112MOL0     H15073   7.025   8.194   2.602 -0.4703 -1.7369 -0.9481
  112MOL0     H15074   7.054   8.095   2.400 -1.7294  0.3363  0.7041
  112MOL0     H15075   6.953   8.209   2.305 -0.2150  0.9040  0.7067
  112MOL0     H15076   7.218   8.282   2.436 -2.6503  1.9107  1.7445
  112MOL0     H15077   7.102   8.384   2.350 -2.3322 -0.3369  4.0702
  112MOL0     H15078   7.256   8.167   2.229 -1.6208 -0.6012  0.6305
  112MOL0     H15079   7.273   8.349   2.194 -3.0059  0.7832 -2.7653
  112MOL0     H15080   7.009   8.133   1.892  0.1009 -0.3470  0.6572
  112MOL0     H15081   7.100   8.086   1.689 -0.6062 -1.7874 -0.4116
  112MOL0     H15082   7.434   7.850   1.498 -0.3467 -0.0959  1.0697
  112MOL0     H15083   7.546   7.745   1.301  1.1189  0.5573 -1.2443
  112MOL0     H15084   7.676   7.661   1.139  2.6188  0.8181  1.3433
  112MOL0     H15085   7.571   7.785   1.054  0.6012 -0.4150 -3.2228
  112MOL0     H15086   7.665   7.701   0.879 -0.0614  0.1870 -0.3094
  112MOL0     H15087   7.769   7.838   0.912 -2.4617  0.5361 -0.9977
  112MOL0     H15088   7.924   7.669   1.037  1.4615 -1.2693 -0.4125
  112MOL0     H15089   7.838   7.538   0.957  2.8446 -1.1255  4.0275
  112MOL0     H15090   7.953   7.766   0.811  1.0234 -0.3623  0.3271
  112MOL0     H15091   7.896   7.606   0.741 -0.3607  0.7242  0.0111
  112MOL0     H15092   8.071   7.490   0.852 -1.0810  0.7656 -1.8724
  112MOL0     H15093   8.118   7.622   0.949 -0.1200  1.1470 -0.4163
  112MOL0     H15094   8.268   7.583   0.749  3.1639  4.7224  1.8149
  112MOL0     H15095   8.129   7.634   0.645 -0.8593 -0.8787  1.0611
  112MOL0     H15096   8.239   7.816   0.862 -4.0484  0.6112  0.9092
  112MOL0     H15097   8.133   7.849   0.708 -0.3213  0.3421  0.3146
  112MOL0     H15098   8.325   7.816   0.574 -1.1589  0.0322  0.3667
  112MOL0     H15099   8.364   7.934   0.701  0.1110 -0.2700 -0.2051
  112MOL0     H15100   7.802   8.076   1.264 -0.5955  0.8804  0.9331
  112MOL0     H15101   7.703   8.180   1.476 -0.0075 -0.7752  0.2375
  112MOL0     H15102   7.484   8.244   1.833 -0.8119  0.4999 -1.1978
  112MOL0     H15103   7.378   8.296   2.028  0.0550 -1.2785  1.3182
  112MOL0     H15104   5.497   8.834   2.365 -1.6021  2.5765 -1.0877
  112MOL0     H15105   5.235   8.806   2.346  3.4244  1.9541  2.9903
  112MOL0     H15106   4.901   8.553   2.340 -2.2697 -2.0026  1.5697
  112MOL0     H15107   4.706   8.440   2.362 -1.6544  0.7487 -0.0731
  112MOL0     H15108   4.424   8.383   2.322  0.8014  0.7829  0.4791
  112MOL0     H15109   4.566   8.272   2.337  1.2840  2.0745  0.6731
  112MOL0     H15110   4.474   8.119   2.183  1.0375  0.4152  0.5358
  112MOL0     H15111   4.344   8.227   2.139  0.4207 -1.4755 -0.6866
  112MOL0     H15112   4.392   8.114   2.415  2.5085 -0.8762 -2.2563
  112MOL0     H15113   4.296   8.036   2.295 -2.4782 -1.0405  3.0805
  112MOL0     H15114   4.226   8.315   2.406  3.4916 -1.0326  2.1623
  112MOL0     H15115   4.127   8.215   2.291  0.8110 -0.4037 -0.3473
  112MOL0     H15116   4.052   8.083   2.693 -2.2561  0.7712 -0.9465
  112MOL0     H15117   4.672   8.453   1.929 -0.3113  3.9280 -1.9784
  112MOL0     H15118   4.836   8.525   1.793  0.3710  2.7322 -0.7679
  112MOL0     H15119   4.909   8.677   1.856  1.6660 -0.5423 -1.6332
  112MOL0     H15120   4.980   8.513   1.852 -1.0983 -2.0307 -0.2760
  113MOL0     O15121   6.426   8.257   7.532 -0.0428 -0.0700  0.3252
  113MOL0     C15122   6.390   8.348   7.603 -1.1410 -0.1699 -0.3182
  113MOL0     O15123   6.454   8.474   7.616  0.1723 -1.0253  0.0234
  113MOL0     C15124   6.576   8.475   7.560 -0.1134 -1.2693 -0.1861
  113MOL0     C15125   6.586   8.510   7.424 -0.5516  0.2524 -0.0835
  113MOL0     C15126   6.716   8.510   7.372  0.6554 -0.9241 -0.0836
  113MOL0     C15127   6.835   8.494   7.447 -0.5850 -0.1036 -1.0649
  113MOL0     O15128   6.961   8.495   7.401 -0.2668  0.3607 -0.2433
  113MOL0     C15129   6.999   8.551   7.268  0.5573 -0.3488 -1.3072
  113MOL0     C15130   7.135   8.519   7.218 -0.4412 -0.2800  1.2883
  113MOL0     C15131   7.246   8.595   7.307  0.1158  0.3305  0.0954
  113MOL0     C15132   7.388   8.564   7.254  0.0037  0.2121 -0.4165
  113MOL0     C15133   7.488   8.641   7.336 -0.0382 -0.2229 -0.6311
  113MOL0     C15134   7.629   8.583   7.321  0.1453 -0.7169  1.0561
  113MOL0     C15135   7.696   8.592   7.189  0.3907  0.1559  0.1909
  113MOL0     C15136   7.846   8.584   7.206  0.2412 -0.2612  0.3949
  113MOL0     N15137   7.910   8.636   7.085  0.8689 -0.2357 -0.1182
  113MOL0     C15138   7.921   8.767   7.042  0.2030  0.8350  0.0444
  113MOL0     C15139   8.009   8.766   6.937 -0.3349 -0.3125 -0.0176
  113MOL0     C15140   8.054   8.892   6.865  0.3875  0.0614  0.7009
  113MOL0     C15141   8.096   9.009   6.958  0.8250  0.4255  0.0631
  113MOL0     C15142   8.223   8.965   7.038 -0.4310 -0.1773 -0.5082
  113MOL0     C15143   8.342   9.042   6.981 -0.4070 -0.1586  0.7404
  113MOL0     O15144   8.386   8.979   6.862 -0.3447 -0.2723  0.0643
  113MOL0     C15145   8.510   9.012   6.807  0.2406  0.6024 -0.4465
  113MOL0     C15146   8.586   9.118   6.840 -0.4656 -0.5250 -0.1052
  113MOL0     C15147   8.710   9.145   6.785 -0.0610 -0.0853  0.8721
  113MOL0     C15148   8.756   9.058   6.686 -0.3395  0.4106 -0.2828
  113MOL0     C15149   8.901   9.076   6.635 -0.3072 -0.6636  0.0619
  113MOL0     O15150   8.972   9.184   6.683 -0.1787  0.3047  0.3752
  113MOL0     C15151   9.094   9.227   6.645  0.2514  0.2876  0.0365
  113MOL0     C15152   9.185   9.240   6.752 -0.3733  0.4419 -0.0925
  113MOL0     C15153   9.310   9.294   6.728  0.6099  0.1162 -0.1919
  113MOL0     C15154   9.342   9.331   6.602 -0.3271  0.1402 -0.2665
  113MOL0     O15155   9.468   9.384   6.576  0.3230  0.0866 -0.8015
  113MOL0     C15156   9.524   9.468   6.673 -0.0065 -0.0337 -0.1817
  113MOL0     C15157   9.657   9.507   6.611 -0.1972 -0.7945  0.2773
  113MOL0     C15158   9.718   9.611   6.712  0.1602  0.7432 -0.4258
  113MOL0     C15159   9.866   9.627   6.689 -0.3922 -0.8099  0.2079
  113MOL0     C15160   9.934   9.743   6.782 -0.3194  0.8684  0.1876
  113MOL0     C15161  10.063   9.801   6.723 -0.3950  0.3216  0.3784
  113MOL0     C15162  10.100   9.936   6.783  0.9944 -0.1242 -0.6036
  113MOL0     C15163  10.254   9.946   6.794  0.0913 -1.0585 -0.3053
  113MOL0    Cl15164  10.324  10.119   6.775 -0.7394 -0.3654 -0.3743
  113MOL0     C15165   9.253   9.309   6.494  0.2211  0.0117 -0.0462
  113MOL0     C15166   9.130   9.254   6.511  0.4268 -0.1555 -0.0395
  113MOL0     O15167   8.945   8.999   6.544  0.3268 -0.2024  0.0405
  113MOL0     C15168   8.672   8.950   6.638 -0.1539 -0.0479 -0.5500
  113MOL0     C15169   8.545   8.933   6.701  0.3594  0.5619 -0.5391
  113MOL0     N15170   8.056   8.636   6.912  0.6311  0.4494  0.0619
  113MOL0     N15171   7.994   8.567   7.005 -0.3180 -0.6150  0.1238
  113MOL0     C15172   6.819   8.455   7.576 -0.2850 -0.7745  0.1006
  113MOL0     C15173   6.692   8.445   7.632  0.7594  0.9526 -0.4878
  113MOL0     C15174   6.266   8.351   7.674 -0.4576  0.4547 -0.4170
  113MOL0     C15175   6.157   8.339   7.599  1.1100  0.6957  0.0127
  113MOL0     C15176   6.025   8.367   7.649 -0.2516  0.2665  0.1815
  113MOL0     C15177   6.004   8.398   7.787  0.1641 -0.1429  0.2712
  113MOL0     O15178   5.887   8.429   7.851 -0.4867  0.1196  0.2296
  113MOL0     C15179   5.768   8.459   7.777 -1.0205 -0.2176  0.4319
  113MOL0     C15180   5.640   8.417   7.838  0.1762 -0.2335 -0.5081
  113MOL0     C15181   5.524   8.447   7.742  0.7206 -1.1413 -0.2260
  113MOL0     C15182   5.402   8.358   7.782  0.3234  0.8464  1.3131
  113MOL0     C15183   5.349   8.397   7.911 -0.5870  0.4712  0.0532
  113MOL0     C15184   5.316   8.434   8.023  1.2909  0.1182  0.5137
  113MOL0     C15185   6.120   8.388   7.862  0.1255 -0.0515 -0.8077
  113MOL0     C15186   6.251   8.383   7.812  0.3795  0.2940  0.7747
  113MOL0     C15187   6.371   8.401   7.902 -0.3598 -0.2314 -0.5264
  113MOL0     H15188   6.504   8.533   7.357  0.0073  0.8126 -0.5917
  113MOL0     H15189   6.732   8.522   7.265  4.0308  0.1137  0.4215
  113MOL0     H15190   6.924   8.501   7.206  0.6829 -1.9994 -0.1835
  113MOL0     H15191   6.981   8.659   7.277  0.9726 -0.2959 -1.1000
  113MOL0     H15192   7.135   8.564   7.118 -0.2866  1.5760  2.0830
  113MOL0     H15193   7.148   8.411   7.212 -0.6481 -0.2429 -0.0668
  113MOL0     H15194   7.246   8.556   7.409 -4.4934  1.0602  0.5877
  113MOL0     H15195   7.223   8.702   7.304  1.1235  0.5893 -3.2033
  113MOL0     H15196   7.398   8.455   7.256 -1.0053  0.0277 -2.7341
  113MOL0     H15197   7.390   8.591   7.149 -0.0131 -0.1231 -0.5061
  113MOL0     H15198   7.477   8.742   7.294 -2.9650 -0.4233 -0.5245
  113MOL0     H15199   7.465   8.647   7.443  1.6273 -0.2764 -0.2484
  113MOL0     H15200   7.689   8.631   7.399  1.7561 -0.7663 -0.0960
  113MOL0     H15201   7.616   8.478   7.351 -1.3611 -0.6031  0.8773
  113MOL0     H15202   7.673   8.688   7.140  0.4937  1.6504  2.8594
  113MOL0     H15203   7.666   8.507   7.127  2.4167 -1.4323  1.2891
  113MOL0     H15204   7.889   8.648   7.285  1.2797  1.4914 -1.4900
  113MOL0     H15205   7.880   8.482   7.225 -1.6226 -0.4986  2.9079
  113MOL0     H15206   7.892   8.858   7.094  1.6411  1.4803 -0.2440
  113MOL0     H15207   8.125   8.867   6.785  1.1250  2.1828  0.6493
  113MOL0     H15208   7.961   8.922   6.817  0.2335 -1.6805 -0.1896
  113MOL0     H15209   8.108   9.104   6.906  3.5409 -1.6244 -3.5898
  113MOL0     H15210   8.013   9.025   7.028 -0.5048 -1.8806 -0.8771
  113MOL0     H15211   8.240   8.857   7.034  2.1195  0.1936 -1.8522
  113MOL0     H15212   8.207   8.996   7.142 -1.6487  1.8502 -1.2384
  113MOL0     H15213   8.416   9.032   7.061 -0.0371 -0.8327  0.3218
  113MOL0     H15214   8.311   9.147   6.967  0.0644  0.0422  1.1658
  113MOL0     H15215   8.554   9.176   6.926 -0.4887 -0.5078 -0.1252
  113MOL0     H15216   8.778   9.223   6.818  0.5287 -1.0475  2.0148
  113MOL0     H15217   9.157   9.224   6.856  0.0741 -0.2793 -0.0813
  113MOL0     H15218   9.385   9.305   6.806  1.9495  0.0170 -1.4315
  113MOL0     H15219   9.457   9.553   6.689 -1.3633 -1.2068  0.6081
  113MOL0     H15220   9.531   9.418   6.770 -0.0386 -1.9696 -1.1382
  113MOL0     H15221   9.728   9.425   6.597  0.6655 -0.2828  1.5306
  113MOL0     H15222   9.627   9.550   6.515 -2.9143  2.5787  2.3962
  113MOL0     H15223   9.668   9.708   6.713  1.6755  1.6027  2.2313
  113MOL0     H15224   9.708   9.566   6.811 -0.4295 -1.7813 -1.5356
  113MOL0     H15225   9.890   9.654   6.585  0.8302  1.6955  1.0535
  113MOL0     H15226   9.919   9.532   6.695  2.3246  0.4102 -1.9258
  113MOL0     H15227   9.952   9.706   6.884 -0.2180  0.8671  0.1699
  113MOL0     H15228   9.868   9.828   6.797  0.0919  1.5248 -1.5355
  113MOL0     H15229  10.150   9.735   6.730  0.6278  1.3363 -1.6376
  113MOL0     H15230  10.048   9.817   6.616  0.4782 -0.1748  0.1710
  113MOL0     H15231  10.060   9.947   6.884  1.0189 -1.4248 -0.4396
  113MOL0     H15232  10.051  10.023   6.739  3.0404  2.2991  1.6050
  113MOL0     H15233  10.275   9.908   6.894 -0.5790 -0.3338  0.1174
  113MOL0     H15234  10.296   9.887   6.712  0.6392  1.0526 -1.6194
  113MOL0     H15235   9.290   9.333   6.395 -0.7714  2.4107  0.0985
  113MOL0     H15236   9.067   9.229   6.427  0.6505 -0.6302 -0.0662
  113MOL0     H15237   8.716   8.890   6.559 -0.7777 -1.0012 -0.1812
  113MOL0     H15238   8.477   8.853   6.672  1.3882 -0.5394 -0.0241
  113MOL0     H15239   6.912   8.429   7.625 -0.8075  1.0652  2.2481
  113MOL0     H15240   6.671   8.410   7.732  2.2348 -1.0694 -0.8163
  113MOL0     H15241   6.160   8.299   7.498 -2.1608  0.3149 -0.0513
  113MOL0     H15242   5.942   8.353   7.580 -0.5739 -0.0326  0.6211
  113MOL0     H15243   5.774   8.425   7.673 -2.2831  0.5770  0.0841
  113MOL0     H15244   5.772   8.568   7.765 -0.4692 -0.1115  1.4338
  113MOL0     H15245   5.632   8.461   7.938  2.0078 -0.2288 -0.3280
  113MOL0     H15246   5.641   8.312   7.869  0.2892  0.4529  1.9702
  113MOL0     H15247   5.539   8.422   7.637 -0.8227  1.5961 -1.1969
  113MOL0     H15248   5.504   8.554   7.746  0.2648 -1.2417  0.4554
  113MOL0     H15249   5.330   8.376   7.702  1.1555  1.5227  0.6878
  113MOL0     H15250   5.419   8.250   7.787 -1.4110  0.3233 -1.6411
  113MOL0     H15251   5.280   8.473   8.116 -3.2603  0.7735 -1.2423
  113MOL0     H15252   6.126   8.396   7.970  0.5582 -1.5503 -0.7112
  113MOL0     H15253   6.336   8.420   8.004 -0.7583  2.2653 -1.0623
  113MOL0     H15254   6.437   8.314   7.905 -1.3039 -0.9580  2.3419
  113MOL0     H15255   6.424   8.487   7.860 -0.5664  0.2973  0.2886
  114MOL0     O15256   2.236   5.627   4.124 -0.1738 -0.5555  0.0996
  114MOL0     C15257   2.135   5.691   4.099  0.2311 -0.0745  0.3249
  114MOL0     O15258   2.136   5.803   4.019 -0.1044 -0.0537 -0.6489
  114MOL0     C15259   2.253   5.877   4.006 -0.0199  0.3955  0.4397
  114MOL0     C15260   2.321   5.881   3.882  0.7807 -0.4011 -0.5218
  114MOL0     C15261   2.441   5.940   3.868 -1.1378 -0.4492 -0.7713
  114MOL0     C15262   2.495   6.012   3.976  0.0993  0.0420  0.5527
  114MOL0     O15263   2.624   6.073   3.969 -0.3517 -0.6202 -0.3847
  114MOL0     C15264   2.738   5.994   3.925  0.2128 -0.1936 -0.5622
  114MOL0     C15265   2.861   6.028   4.015  0.7746  0.0820 -0.2357
  114MOL0     C15266   2.983   5.946   3.965  0.1906 -0.4283  0.1174
  114MOL0     C15267   3.103   5.973   4.068 -0.7376  0.7181 -0.1108
  114MOL0     C15268   3.237   5.942   4.010  0.3448 -0.5238  0.2375
  114MOL0     C15269   3.356   5.970   4.099 -0.9662  0.4408  0.0139
  114MOL0     C15270   3.390   5.874   4.217  0.1964  0.3704 -0.5444
  114MOL0     C15271   3.529   5.807   4.199 -0.5053 -0.7808  0.1518
  114MOL0     N15272   3.642   5.906   4.223  0.5853  1.0439  0.4088
  114MOL0     C15273   3.767   5.889   4.179 -0.2372  0.4879 -0.8556
  114MOL0     C15274   3.845   5.989   4.228  0.2531  0.0487  0.6145
  114MOL0     C15275   3.995   6.011   4.201  0.5664  0.0585  0.2385
  114MOL0     C15276   4.067   6.070   4.323  0.4086  0.4000 -0.2826
  114MOL0     C15277   4.048   5.986   4.461  0.2546  0.6081  0.3082
  114MOL0     C15278   4.042   6.065   4.579  0.6228 -0.2223 -0.1920
  114MOL0     O15279   4.012   5.982   4.697  0.2560 -0.3611  0.0863
  114MOL0     C15280   3.882   5.960   4.735 -0.1128  0.1503 -0.0901
  114MOL0     C15281   3.772   6.032   4.688 -0.6763  0.3316  0.5956
  114MOL0     C15282   3.643   6.005   4.731 -0.5729 -0.3345  0.3339
  114MOL0     C15283   3.616   5.901   4.825 -0.6701  0.0054  0.0100
  114MOL0     C15284   3.479   5.877   4.876 -0.3663 -0.0267 -0.3334
  114MOL0     O15285   3.479   5.813   4.997  0.0042 -0.6252 -0.1030
  114MOL0     C15286   3.358   5.796   5.064  0.1156 -0.0604  0.0140
  114MOL0     C15287   3.295   5.913   5.119  0.2297 -0.2622  0.0845
  114MOL0     C15288   3.175   5.902   5.190  0.0590 -0.3667  0.4285
  114MOL0     C15289   3.119   5.777   5.224  0.0399 -0.8054 -0.1035
  114MOL0     O15290   3.001   5.765   5.294  0.4171  0.1774 -0.4684
  114MOL0     C15291   2.924   5.884   5.316  0.9041 -0.0814 -0.1782
  114MOL0     C15292   2.781   5.852   5.345  0.5487  0.3089 -0.5368
  114MOL0     C15293   2.768   5.769   5.473  0.7487  0.4516 -0.0134
  114MOL0     C15294   2.623   5.722   5.471  0.7833 -0.5616 -0.4787
  114MOL0     C15295   2.518   5.807   5.550 -0.3541  0.1582 -0.1286
  114MOL0     C15296   2.385   5.734   5.560 -0.2674 -0.0997  0.0662
  114MOL0     C15297   2.290   5.832   5.625  0.3198 -0.3270 -0.3371
  114MOL0     C15298   2.145   5.791   5.635 -0.8865 -0.5912 -0.9985
  114MOL0    Cl15299   2.038   5.912   5.712  0.2398  0.1411  0.5736
  114MOL0     C15300   3.179   5.662   5.169 -0.1796  0.3423  0.0385
  114MOL0     C15301   3.305   5.672   5.088  0.0912  0.4536  0.2109
  114MOL0     O15302   3.381   5.929   4.822  0.0421  0.8743 -0.4869
  114MOL0     C15303   3.726   5.818   4.862 -1.1026 -0.3846 -0.4377
  114MOL0     C15304   3.855   5.850   4.826  0.1616  0.5035 -0.5809
  114MOL0     N15305   3.758   6.067   4.303 -1.0419  1.0093 -0.3766
  114MOL0     N15306   3.636   6.024   4.285 -0.4341 -0.0098 -0.1481
  114MOL0     C15307   2.429   6.009   4.096  0.4439  0.6268  0.3133
  114MOL0     C15308   2.302   5.949   4.108  0.4794 -0.4913 -0.6434
  114MOL0     C15309   2.007   5.648   4.156  0.0476  0.2729 -0.0820
  114MOL0     C15310   1.919   5.757   4.198 -0.4532  0.2276  0.3978
  114MOL0     C15311   1.796   5.722   4.260  0.8530  0.4870  0.9401
  114MOL0     C15312   1.750   5.597   4.282  0.3244  0.1490  0.7180
  114MOL0     O15313   1.626   5.574   4.339 -0.2586  0.5003 -0.0361
  114MOL0     C15314   1.582   5.438   4.349  0.1055 -0.5545  0.7589
  114MOL0     C15315   1.461   5.439   4.443 -0.9439 -0.0069  0.0976
  114MOL0     C15316   1.353   5.550   4.421 -0.2636 -0.7013  0.1621
  114MOL0     C15317   1.223   5.508   4.486  0.5069  0.5522 -0.1748
  114MOL0     C15318   1.146   5.417   4.406  0.2312  1.2076 -0.5971
  114MOL0     C15319   1.070   5.348   4.334  0.1178 -0.4509 -0.5249
  114MOL0     C15320   1.836   5.494   4.246  0.0153 -0.2317  0.0814
  114MOL0     C15321   1.954   5.519   4.169 -0.1032 -0.8790  0.3896
  114MOL0     C15322   2.031   5.400   4.108  0.5803  0.5669  0.0848
  114MOL0     H15323   2.274   5.832   3.797  1.5890  0.8509 -1.7309
  114MOL0     H15324   2.505   5.927   3.781  3.1027  1.5041  1.7417
  114MOL0     H15325   2.717   5.887   3.914  0.3202 -0.2769 -0.0295
  114MOL0     H15326   2.758   6.031   3.824  3.7966  1.5692  0.5978
  114MOL0     H15327   2.833   6.001   4.117 -2.1618  0.5609 -0.8360
  114MOL0     H15328   2.873   6.136   3.999 -3.1429  1.1624  2.6281
  114MOL0     H15329   3.013   5.968   3.863 -0.3642 -0.6855 -0.1072
  114MOL0     H15330   2.951   5.841   3.965 -2.0444  0.0386  4.5163
  114MOL0     H15331   3.112   6.080   4.092  0.9955  0.8490 -1.1484
  114MOL0     H15332   3.088   5.913   4.158  0.0634  0.4253 -0.1636
  114MOL0     H15333   3.231   5.839   3.973  0.0478 -0.0937 -0.9446
  114MOL0     H15334   3.248   6.009   3.925 -0.4427  1.4178  1.5928
  114MOL0     H15335   3.449   5.974   4.043 -0.2770  0.9682  1.1587
  114MOL0     H15336   3.343   6.069   4.142 -1.4300  0.0825  0.7296
  114MOL0     H15337   3.316   5.798   4.246 -0.4592  2.1550  3.0671
  114MOL0     H15338   3.370   5.938   4.303 -0.9012  2.0912 -2.0192
  114MOL0     H15339   3.546   5.721   4.264  1.9733 -0.0448  0.5763
  114MOL0     H15340   3.532   5.775   4.094 -1.7910 -2.4754  0.5843
  114MOL0     H15341   3.803   5.805   4.121  0.5476  1.5162 -1.8948
  114MOL0     H15342   4.041   5.914   4.183 -1.4585 -1.2697  1.6859
  114MOL0     H15343   4.011   6.078   4.116  2.7718 -0.4390  0.2214
  114MOL0     H15344   4.174   6.068   4.300  0.3284 -0.6931 -0.6024
  114MOL0     H15345   4.026   6.171   4.334 -1.9594 -0.6811  2.0523
  114MOL0     H15346   4.127   5.911   4.459 -0.2343  0.0408 -2.3682
  114MOL0     H15347   3.950   5.937   4.457 -0.5256  1.9343  1.8768
  114MOL0     H15348   3.979   6.152   4.558  0.6783 -0.0929  0.1702
  114MOL0     H15349   4.141   6.109   4.592  0.7225 -0.2862 -0.7244
  114MOL0     H15350   3.782   6.103   4.607 -0.7185 -2.4690 -2.0643
  114MOL0     H15351   3.554   6.061   4.704 -1.6280 -2.1744 -0.1670
  114MOL0     H15352   3.346   6.007   5.099  0.7803 -0.1850  1.6908
  114MOL0     H15353   3.132   5.987   5.241  1.3308 -1.3790  3.4378
  114MOL0     H15354   2.976   5.940   5.394  1.5057 -1.0883  0.1632
  114MOL0     H15355   2.927   5.948   5.227  1.8629 -0.4628 -0.4356
  114MOL0     H15356   2.719   5.942   5.354 -1.1910 -1.0190  1.7304
  114MOL0     H15357   2.742   5.804   5.255  0.8592  0.7073 -0.8885
  114MOL0     H15358   2.834   5.682   5.463  1.1986  0.8700 -0.8107
  114MOL0     H15359   2.792   5.823   5.565 -0.3127 -0.8372  1.0614
  114MOL0     H15360   2.621   5.633   5.533  0.9355  0.4114  0.9795
  114MOL0     H15361   2.583   5.689   5.374 -1.3538 -0.3768  0.2936
  114MOL0     H15362   2.503   5.896   5.488 -1.5187  0.5292  0.6699
  114MOL0     H15363   2.561   5.826   5.649  1.2702 -1.7220 -0.4153
  114MOL0     H15364   2.347   5.709   5.460 -0.8063  2.8931 -0.5832
  114MOL0     H15365   2.395   5.639   5.614  1.9961 -0.5155 -0.9562
  114MOL0     H15366   2.303   5.924   5.568  2.1658  1.0549  2.0950
  114MOL0     H15367   2.317   5.851   5.729 -2.5412  0.4556  0.3475
  114MOL0     H15368   2.114   5.760   5.535 -0.1565 -1.8166 -0.8673
  114MOL0     H15369   2.138   5.704   5.700 -1.5685  0.1871 -0.0005
  114MOL0     H15370   3.128   5.569   5.191  1.5219 -0.6908 -0.1738
  114MOL0     H15371   3.363   5.584   5.059 -0.3660 -0.1461  1.0650
  114MOL0     H15372   3.704   5.732   4.926 -2.5217 -0.4846 -1.0146
  114MOL0     H15373   3.945   5.802   4.863  0.8051  2.5366  0.6590
  114MOL0     H15374   2.485   6.058   4.175 -0.8095  3.0812 -0.2093
  114MOL0     H15375   2.252   5.951   4.205 -0.7802  0.0191 -1.2847
  114MOL0     H15376   1.944   5.862   4.188  0.5156  0.0091  0.3787
  114MOL0     H15377   1.727   5.797   4.297 -0.4392 -0.4381  0.4624
  114MOL0     H15378   1.659   5.382   4.403  1.3797  1.6514  1.3523
  114MOL0     H15379   1.550   5.404   4.250 -0.5049  2.1577 -0.0474
  114MOL0     H15380   1.500   5.458   4.543  2.3565 -0.7860 -0.9343
  114MOL0     H15381   1.415   5.339   4.447  0.6692 -0.7763  0.3346
  114MOL0     H15382   1.331   5.565   4.315 -1.5254  3.0907  0.7858
  114MOL0     H15383   1.386   5.645   4.463 -0.8375 -1.2359  1.9126
  114MOL0     H15384   1.243   5.462   4.583 -0.8435  1.4458  0.5747
  114MOL0     H15385   1.158   5.594   4.509  0.6912  0.2732  1.5759
  114MOL0     H15386   0.999   5.280   4.290  0.2926 -0.9133 -0.1093
  114MOL0     H15387   1.817   5.387   4.256  0.3049 -0.1763  1.4801
  114MOL0     H15388   1.973   5.309   4.128  1.1861 -0.8175 -3.7055
  114MOL0     H15389   2.054   5.401   4.001 -1.4850 -0.3556 -0.4233
  114MOL0     H15390   2.116   5.377   4.172  0.2261  4.0967  2.0893
  115MOL0     O15391   3.213   1.157  10.795  0.1770 -0.1191  0.1862
  115MOL0     C15392   3.196   1.208  10.903 -0.1033  0.9429 -0.3383
  115MOL0     O15393   3.293   1.246  10.979 -0.3521 -0.3553 -0.1164
  115MOL0     C15394   3.432   1.206  10.956 -0.8686  0.5109 -0.7927
  115MOL0     C15395   3.524   1.285  11.037 -0.6463 -0.4571  0.5517
  115MOL0     C15396   3.663   1.282  11.011  0.3530  0.0483  0.1655
  115MOL0     C15397   3.714   1.201  10.917  0.4516  0.3653  0.0711
  115MOL0     O15398   3.851   1.210  10.911 -0.2115  0.1287  0.9718
  115MOL0     C15399   3.927   1.141  10.811 -0.1967 -0.1728  0.2069
  115MOL0     C15400   4.068   1.198  10.791 -0.3427  0.1375  0.4172
  115MOL0     C15401   4.065   1.351  10.763 -0.4661  0.5900 -0.2660
  115MOL0     C15402   4.197   1.425  10.788  0.2686 -0.2775 -0.2860
  115MOL0     C15403   4.306   1.409  10.678 -0.2769 -0.1663 -0.1870
  115MOL0     C15404   4.404   1.532  10.695 -0.4059  0.0372 -0.3389
  115MOL0     C15405   4.525   1.508  10.598  0.5881  1.3054  0.3684
  115MOL0     C15406   4.632   1.621  10.617 -0.0546  0.1754 -0.7422
  115MOL0     N15407   4.632   1.712  10.502 -0.1184  0.5399 -0.0746
  115MOL0     C15408   4.661   1.671  10.371 -0.3507 -0.3162  0.2666
  115MOL0     C15409   4.632   1.776  10.299 -0.0371 -0.0309 -0.4998
  115MOL0     C15410   4.614   1.788  10.153 -0.4666  0.0974 -0.0658
  115MOL0     C15411   4.494   1.700  10.104  0.2579 -0.1185  0.1028
  115MOL0     C15412   4.359   1.779  10.089 -0.8837  0.0712 -0.3764
  115MOL0     C15413   4.291   1.823  10.215  0.0021  0.4156 -0.9744
  115MOL0     O15414   4.217   1.716  10.268 -0.0151 -0.1622 -0.3496
  115MOL0     C15415   4.131   1.746  10.367  0.3295 -0.3272  0.4632
  115MOL0     C15416   4.115   1.873  10.421  0.5016  0.0077 -0.3654
  115MOL0     C15417   4.028   1.891  10.524 -0.1805  0.3765 -0.4386
  115MOL0     C15418   3.954   1.785  10.576  0.1157 -0.9717  0.9921
  115MOL0     C15419   3.871   1.814  10.692  0.0298 -0.0720 -0.2349
  115MOL0     O15420   3.860   1.952  10.727 -0.4226  0.3868 -0.0992
  115MOL0     C15421   3.785   1.974  10.836  0.0354 -0.7443 -0.0072
  115MOL0     C15422   3.652   1.999  10.814 -0.2723 -0.3092  0.7864
  115MOL0     C15423   3.562   2.019  10.908  0.7152 -0.6062  0.6236
  115MOL0     C15424   3.603   2.043  11.042  0.1875 -0.2417 -0.1188
  115MOL0     O15425   3.513   2.054  11.146 -0.0200  0.0336 -0.5002
  115MOL0     C15426   3.509   2.194  11.177 -0.3290 -0.4517 -0.4067
  115MOL0     C15427   3.417   2.213  11.296 -0.3472 -0.7398 -0.1655
  115MOL0     C15428   3.265   2.199  11.241 -0.2978 -0.1252 -0.3346
  115MOL0     C15429   3.165   2.149  11.339 -0.2104 -0.5730 -0.3134
  115MOL0     C15430   3.031   2.106  11.269  0.4517 -0.0485 -1.0599
  115MOL0     C15431   2.919   2.075  11.369  0.8373 -0.4692 -0.0349
  115MOL0     C15432   2.815   1.989  11.297  0.4390  0.4185 -0.3281
  115MOL0     C15433   2.717   1.932  11.400  0.2999  1.1148 -0.0721
  115MOL0    Cl15434   2.601   1.828  11.312  0.2076 -0.0075  0.1334
  115MOL0     C15435   3.740   2.024  11.067  0.2805  0.1872 -0.0403
  115MOL0     C15436   3.829   1.985  10.968 -0.1624 -0.2193  0.3515
  115MOL0     O15437   3.825   1.715  10.752  0.3717  0.2628  0.0091
  115MOL0     C15438   3.977   1.655  10.526  0.1143 -0.1132 -0.0937
  115MOL0     C15439   4.058   1.636  10.411 -0.6342 -0.0392  0.1357
  115MOL0     N15440   4.625   1.883  10.382  0.5165 -0.8486  0.3954
  115MOL0     N15441   4.619   1.846  10.503 -0.4758  0.5341 -0.4187
  115MOL0     C15442   3.625   1.111  10.843 -0.6022 -0.5180 -0.7046
  115MOL0     C15443   3.484   1.112  10.865 -0.3673 -0.1655  0.0452
  115MOL0     C15444   3.057   1.229  10.953 -0.0323 -0.4046  1.1472
  115MOL0     C15445   3.003   1.147  11.047 -0.7634 -0.3517  0.7225
  115MOL0     C15446   2.871   1.161  11.088  0.5366  0.2540 -1.1457
  115MOL0     C15447   2.796   1.266  11.044 -0.6081 -0.5931 -0.2578
  115MOL0     O15448   2.668   1.285  11.104  0.1638  1.1159 -0.2825
  115MOL0     C15449   2.569   1.210  11.036 -1.0567 -0.3290 -0.4074
  115MOL0     C15450   2.443   1.246  11.106 -0.4969  0.0416  0.1322
  115MOL0     C15451   2.332   1.146  11.064 -0.0444 -0.1788  0.5430
  115MOL0     C15452   2.200   1.181  11.133 -0.0843  0.7958  0.0700
  115MOL0     C15453   2.195   1.144  11.277 -0.1043  0.1142 -0.7852
  115MOL0     C15454   2.187   1.102  11.393 -0.7696 -0.5195 -0.3485
  115MOL0     C15455   2.854   1.355  10.949  0.2502 -1.2274 -0.1721
  115MOL0     C15456   2.986   1.338  10.899  0.4603  0.2741 -0.0169
  115MOL0     C15457   3.040   1.436  10.794  0.5224  0.4228  0.2195
  115MOL0     H15458   3.469   1.343  11.110 -0.5051  3.1709 -1.9779
  115MOL0     H15459   3.736   1.344  11.063  0.8962 -1.8502  1.7726
  115MOL0     H15460   3.957   1.039  10.836  3.3366 -0.4739 -3.9951
  115MOL0     H15461   3.878   1.146  10.713 -0.1822 -0.4887  0.1820
  115MOL0     H15462   4.122   1.141  10.715  0.6358 -0.1118  1.2640
  115MOL0     H15463   4.121   1.182  10.886  2.6952  0.4943 -1.0976
  115MOL0     H15464   3.991   1.402  10.826  0.8570 -0.5974  2.4538
  115MOL0     H15465   4.051   1.359  10.655  0.5273 -0.2008 -0.4778
  115MOL0     H15466   4.177   1.532  10.796  0.0447 -0.4201  1.4665
  115MOL0     H15467   4.244   1.399  10.883  1.9970 -0.6061 -1.1800
  115MOL0     H15468   4.364   1.317  10.682  0.2278  0.0830 -1.2038
  115MOL0     H15469   4.264   1.406  10.577  2.6423 -2.4427 -1.4778
  115MOL0     H15470   4.358   1.627  10.666 -2.7912 -2.3900 -6.0001
  115MOL0     H15471   4.435   1.549  10.798 -1.9463  4.1162 -0.3684
  115MOL0     H15472   4.477   1.511  10.500 -4.2648 -1.8662  2.2728
  115MOL0     H15473   4.576   1.411  10.603  0.7841  1.4043  0.3230
  115MOL0     H15474   4.630   1.679  10.710  1.9434 -0.6834 -0.1009
  115MOL0     H15475   4.731   1.577  10.624  0.2044  0.3843 -2.6879
  115MOL0     H15476   4.682   1.571  10.333 -1.6793 -0.6756  0.4225
  115MOL0     H15477   4.608   1.889  10.112 -1.2708  0.1936  0.2770
  115MOL0     H15478   4.709   1.746  10.116  0.3820  2.0429 -0.1978
  115MOL0     H15479   4.522   1.677  10.000  2.7375 -1.2565  0.9577
  115MOL0     H15480   4.481   1.609  10.163  1.2732 -0.2979  0.0574
  115MOL0     H15481   4.302   1.716  10.021 -0.9865  3.5477 -3.8792
  115MOL0     H15482   4.365   1.862  10.019 -0.3180 -0.4004 -0.8978
  115MOL0     H15483   4.217   1.900  10.192 -1.6646 -0.6284  0.5644
  115MOL0     H15484   4.363   1.871  10.283 -2.4747  3.5516 -0.3191
  115MOL0     H15485   4.181   1.955  10.395  0.8680  0.0993  0.7969
  115MOL0     H15486   4.029   1.985  10.580 -0.2082 -0.6623  1.3910
  115MOL0     H15487   3.622   2.005  10.710  1.7092  1.8421  0.2361
  115MOL0     H15488   3.459   2.034  10.877  1.1706 -2.0119 -1.8268
  115MOL0     H15489   3.612   2.219  11.203  0.4980 -3.1428 -0.8018
  115MOL0     H15490   3.480   2.253  11.089  1.1535 -0.5271 -0.9708
  115MOL0     H15491   3.431   2.134  11.371 -2.2005 -1.1087 -0.1418
  115MOL0     H15492   3.439   2.309  11.342 -1.7005 -1.7286  2.8203
  115MOL0     H15493   3.231   2.302  11.222 -0.1457  0.0337  0.2460
  115MOL0     H15494   3.279   2.137  11.152  2.2066 -1.3196  0.7902
  115MOL0     H15495   3.139   2.234  11.402 -2.6921 -1.2884 -0.2406
  115MOL0     H15496   3.210   2.080  11.411 -1.9275 -0.5337  0.8813
  115MOL0     H15497   3.061   2.015  11.216 -3.4709 -1.5885 -0.9393
  115MOL0     H15498   2.988   2.175  11.195 -2.1915 -0.1450  0.3083
  115MOL0     H15499   2.947   2.024  11.462 -1.5903 -0.8373  0.5471
  115MOL0     H15500   2.871   2.170  11.392 -1.0747 -1.2026 -0.7485
  115MOL0     H15501   2.866   1.900  11.260  0.1686 -0.6256  1.6740
  115MOL0     H15502   2.769   2.057  11.224 -0.4781 -0.5040 -0.6481
  115MOL0     H15503   2.772   1.870  11.472  0.6537  0.6121 -0.7697
  115MOL0     H15504   2.663   2.010  11.455 -0.6218  0.3408  0.1469
  115MOL0     H15505   3.775   2.040  11.169  0.1764  1.7496 -0.2304
  115MOL0     H15506   3.932   1.962  10.991  0.0219  0.7064  0.4902
  115MOL0     H15507   3.923   1.573  10.572 -1.9723  1.7942  1.0791
  115MOL0     H15508   4.078   1.535  10.378 -1.0267  0.7892 -2.9467
  115MOL0     H15509   3.667   1.065  10.754  1.9671  0.3952 -0.0649
  115MOL0     H15510   3.418   1.051  10.804  1.5322 -0.8859 -1.4007
  115MOL0     H15511   3.074   1.084  11.099 -0.0355  0.6583  0.9815
  115MOL0     H15512   2.824   1.097  11.161 -0.1267  0.5571 -1.2952
  115MOL0     H15513   2.594   1.104  11.040  1.3352  0.2241  2.3035
  115MOL0     H15514   2.567   1.248  10.933  3.6450 -1.2362 -1.0366
  115MOL0     H15515   2.419   1.350  11.082 -1.9915 -0.0078  1.2843
  115MOL0     H15516   2.459   1.240  11.214 -3.0879 -1.7292  0.4930
  115MOL0     H15517   2.359   1.045  11.095  0.1959 -1.1249 -2.4071
  115MOL0     H15518   2.311   1.148  10.956 -1.5278  0.4167  0.8203
  115MOL0     H15519   2.188   1.290  11.131  1.8232  1.0212 -1.6591
  115MOL0     H15520   2.121   1.127  11.081 -0.0687  0.2227  0.6217
  115MOL0     H15521   2.179   1.057  11.490  2.4034 -0.7364 -0.0741
  115MOL0     H15522   2.792   1.442  10.930  0.2583 -1.3453 -0.7608
  115MOL0     H15523   3.091   1.516  10.849 -3.5838  2.1269  1.9398
  115MOL0     H15524   3.110   1.382  10.729  1.4750 -1.3369  2.5407
  115MOL0     H15525   2.953   1.466  10.735 -1.2274  1.2418  3.0516
  116MOL0     O15526   7.289  10.786   6.613  0.3413  0.3035 -0.5698
  116MOL0     C15527   7.238  10.878   6.671  0.1117  0.4992  0.1729
  116MOL0     O15528   7.295  10.997   6.682  0.1540  0.3128  0.2728
  116MOL0     C15529   7.428  11.003   6.659  1.0692 -0.6187  0.4338
  116MOL0     C15530   7.473  11.061   6.539  0.9286 -0.1104 -0.7788
  116MOL0     C15531   7.609  11.069   6.507  0.4930  0.1200 -0.5033
  116MOL0     C15532   7.698  11.028   6.602  0.2260 -0.5254 -0.6303
  116MOL0     O15533   7.829  11.033   6.580 -0.5020 -1.0521 -0.3320
  116MOL0     C15534   7.884  11.160   6.545 -0.3835  0.5012 -0.0633
  116MOL0     C15535   8.019  11.105   6.496 -0.1400  0.2624  0.1772
  116MOL0     C15536   8.024  11.038   6.359  0.0058  0.4318 -0.0652
  116MOL0     C15537   8.167  10.994   6.340 -0.3805  0.0918  0.0174
  116MOL0     C15538   8.217  10.968   6.203 -0.3159 -0.0834  0.4892
  116MOL0     C15539   8.130  10.874   6.124 -0.0080 -0.4137 -1.1200
  116MOL0     C15540   8.202  10.846   5.994 -0.2638  0.2704  0.3162
  116MOL0     C15541   8.219  10.956   5.892  0.1163  0.1580 -0.5838
  116MOL0     N15542   8.271  10.893   5.773  0.3021 -0.5127  0.0724
  116MOL0     C15543   8.402  10.858   5.748  0.1271 -0.4552  0.6634
  116MOL0     C15544   8.400  10.788   5.631  0.5221  0.0209  1.0173
  116MOL0     C15545   8.523  10.725   5.566 -0.2878 -0.4043 -0.5103
  116MOL0     C15546   8.568  10.803   5.441  0.3169 -0.0596  0.2306
  116MOL0     C15547   8.671  10.714   5.358 -0.3797  0.6604  0.0086
  116MOL0     C15548   8.708  10.791   5.228  0.4327  0.5887 -0.2766
  116MOL0     O15549   8.772  10.712   5.130 -0.3892  0.4239  0.2735
  116MOL0     C15550   8.910  10.681   5.130 -0.0879  1.0202 -0.4448
  116MOL0     C15551   9.003  10.719   5.231 -0.2838 -0.8501 -0.3079
  116MOL0     C15552   9.138  10.687   5.212 -0.2245 -0.9892  0.6132
  116MOL0     C15553   9.181  10.614   5.095  0.8671  0.8479  0.0772
  116MOL0     C15554   9.317  10.566   5.071 -0.8259 -0.0470  0.2225
  116MOL0     O15555   9.408  10.607   5.168 -0.0109 -0.2507  0.2795
  116MOL0     C15556   9.539  10.565   5.150 -0.0295  0.1929 -0.0670
  116MOL0     C15557   9.623  10.584   5.038  0.6437  0.1481 -0.2327
  116MOL0     C15558   9.752  10.535   5.036 -0.3978  0.9453  0.7439
  116MOL0     C15559   9.802  10.456   5.138 -0.2688  0.1030 -0.3480
  116MOL0     O15560   9.935  10.417   5.132  0.3924 -0.0359 -0.2028
  116MOL0     C15561   9.971  10.287   5.186  0.9011  0.0237  0.0235
  116MOL0     C15562  10.118  10.254   5.165 -0.1334 -0.4630 -0.0866
  116MOL0     C15563  10.217  10.365   5.149  0.4327 -0.4146  0.6913
  116MOL0     C15564  10.366  10.323   5.160 -0.3528  0.2136  0.0490
  116MOL0     C15565  10.455  10.447   5.154  0.0550  0.2461  0.0426
  116MOL0     C15566  10.607  10.411   5.135  1.0651  0.2702 -0.6033
  116MOL0     C15567  10.689  10.521   5.069 -0.0079 -0.2679  0.2813
  116MOL0     C15568  10.841  10.502   5.098 -0.7436  1.0159  0.0355
  116MOL0    Cl15569  10.927  10.623   4.998  0.2764  0.4453 -0.0003
  116MOL0     C15570   9.727  10.436   5.247  0.4693 -0.2745 -0.9451
  116MOL0     C15571   9.599  10.489   5.256 -0.1505  1.0604  0.9139
  116MOL0     O15572   9.340  10.482   4.986  0.2075 -0.4548 -0.2999
  116MOL0     C15573   9.090  10.578   4.999  0.0927  0.0000  0.2915
  116MOL0     C15574   8.955  10.610   5.017 -0.2434  0.2443  0.0099
  116MOL0     N15575   8.269  10.771   5.594 -0.0404 -0.8262  0.2807
  116MOL0     N15576   8.197  10.843   5.673 -0.0413 -1.0645  0.0876
  116MOL0     C15577   7.657  10.977   6.727 -0.3071 -0.2665  0.2516
  116MOL0     C15578   7.518  10.961   6.754 -0.1021  0.3379  0.6326
  116MOL0     C15579   7.104  10.870   6.715  0.1338  0.1232 -0.5423
  116MOL0     C15580   7.047  10.986   6.750 -0.2562 -0.5040 -0.7578
  116MOL0     C15581   6.914  10.999   6.796 -0.0970  0.5733  0.3834
  116MOL0     C15582   6.836  10.877   6.804 -0.8872  0.0832 -0.6541
  116MOL0     O15583   6.713  10.863   6.849  0.5705 -0.3918  0.1725
  116MOL0     C15584   6.635  10.978   6.879  0.0414 -0.5015 -0.0527
  116MOL0     C15585   6.578  11.041   6.750 -0.0388 -0.2844 -0.0412
  116MOL0     C15586   6.472  10.939   6.701 -0.8259 -0.0584  0.0151
  116MOL0     C15587   6.400  10.994   6.572  0.6442  0.5506  0.1558
  116MOL0     C15588   6.485  10.979   6.457 -0.2711  0.1361  0.7576
  116MOL0     C15589   6.541  10.966   6.351  0.1378  0.3318  1.0494
  116MOL0     C15590   6.903  10.756   6.775 -0.0803  0.2229  0.5239
  116MOL0     C15591   7.030  10.750   6.727  0.5666  0.1132  0.3981
  116MOL0     C15592   7.091  10.604   6.709 -0.4316 -0.2881  0.7326
  116MOL0     H15593   7.401  11.082   6.461  0.6431  2.3724  0.0732
  116MOL0     H15594   7.642  11.093   6.406 -0.0655  0.4383 -0.6187
  116MOL0     H15595   7.832  11.211   6.463 -0.7411  3.0586  1.6564
  116MOL0     H15596   7.893  11.224   6.633 -1.6792 -1.6335  1.7114
  116MOL0     H15597   8.064  11.036   6.568  0.0078 -0.0826 -0.2426
  116MOL0     H15598   8.092  11.187   6.495  0.6411 -0.4103  0.1650
  116MOL0     H15599   7.997  11.108   6.279 -2.8866 -2.3227 -1.7388
  116MOL0     H15600   7.960  10.951   6.344  0.8985 -0.2909  0.2737
  116MOL0     H15601   8.232  11.070   6.386  2.0291 -1.2644 -0.9438
  116MOL0     H15602   8.186  10.905   6.401 -0.6079  0.0489  0.0246
  116MOL0     H15603   8.216  11.061   6.146  1.9130  0.9859  2.0510
  116MOL0     H15604   8.324  10.946   6.208  0.1350  1.5885 -0.7882
  116MOL0     H15605   8.111  10.789   6.191 -1.1045  2.3425  2.3803
  116MOL0     H15606   8.035  10.920   6.099  0.3416 -1.0592 -4.0819
  116MOL0     H15607   8.144  10.759   5.959  2.0581 -1.6744  1.0189
  116MOL0     H15608   8.307  10.820   6.009  0.2006  3.1709  3.3086
  116MOL0     H15609   8.116  10.990   5.884  0.0594  0.1500  0.0189
  116MOL0     H15610   8.288  11.039   5.910 -0.4735  0.2148  1.7978
  116MOL0     H15611   8.495  10.871   5.804  0.3945 -2.6326  0.8052
  116MOL0     H15612   8.608  10.724   5.634 -1.4768 -0.7124  1.0170
  116MOL0     H15613   8.498  10.623   5.535 -1.4818 -0.7002  1.3007
  116MOL0     H15614   8.482  10.833   5.380  1.4819  0.1071 -1.4137
  116MOL0     H15615   8.619  10.897   5.464  1.5585  0.0867 -2.6716
  116MOL0     H15616   8.640  10.611   5.339  0.8189  0.2164  0.3945
  116MOL0     H15617   8.765  10.704   5.412  0.3155 -0.3464 -1.3233
  116MOL0     H15618   8.770  10.877   5.252  2.2330 -0.7957  0.1947
  116MOL0     H15619   8.618  10.825   5.174  2.5057  2.5348 -2.7893
  116MOL0     H15620   8.954  10.770   5.313 -0.6434  1.3287 -1.7616
  116MOL0     H15621   9.213  10.708   5.288  0.5658 -0.7400 -0.2213
  116MOL0     H15622   9.586  10.653   4.963  0.2241  1.3591  1.0521
  116MOL0     H15623   9.814  10.570   4.953 -1.5025  1.6406  0.1952
  116MOL0     H15624   9.951  10.287   5.294 -0.0097 -0.2030 -0.1373
  116MOL0     H15625   9.905  10.213   5.139  2.2072 -0.5072 -1.0296
  116MOL0     H15626  10.151  10.190   5.247  2.7995  0.1638 -0.6775
  116MOL0     H15627  10.128  10.194   5.073 -1.2827 -0.7901 -0.0234
  116MOL0     H15628  10.202  10.424   5.059 -1.7476  0.6150  1.6654
  116MOL0     H15629  10.190  10.434   5.230 -2.4243 -0.0979 -0.3934
  116MOL0     H15630  10.394  10.256   5.078  1.9599  1.7779 -0.5276
  116MOL0     H15631  10.390  10.279   5.258 -0.2240  1.7948  0.7646
  116MOL0     H15632  10.439  10.517   5.236  1.3877 -0.4697  0.9532
  116MOL0     H15633  10.427  10.506   5.067 -0.0439  1.8598  1.1308
  116MOL0     H15634  10.646  10.380   5.233  0.7641  0.1001 -0.5371
  116MOL0     H15635  10.611  10.321   5.073 -2.6751 -0.1517 -0.4814
  116MOL0     H15636  10.658  10.622   5.098 -5.1316 -0.5235 -3.0871
  116MOL0     H15637  10.673  10.524   4.961 -3.3581  1.0605  0.7176
  116MOL0     H15638  10.863  10.520   5.204 -0.7317  1.2729 -0.0113
  116MOL0     H15639  10.878  10.401   5.081 -0.2113  1.4624 -1.5731
  116MOL0     H15640   9.758  10.384   5.337  0.4963  2.1142  0.5166
  116MOL0     H15641   9.544  10.473   5.348  1.0520 -1.6513  1.2503
  116MOL0     H15642   9.128  10.529   4.909 -1.4037 -0.5880 -0.0507
  116MOL0     H15643   8.881  10.577   4.945  1.5326  1.3701 -2.4473
  116MOL0     H15644   7.730  10.945   6.801 -0.3353  2.4766  1.5807
  116MOL0     H15645   7.481  10.907   6.840 -1.7881  1.2117  0.4910
  116MOL0     H15646   7.088  11.083   6.723 -0.1181 -0.4144 -0.2429
  116MOL0     H15647   6.875  11.094   6.833 -1.7088  0.1047 -0.0695
  116MOL0     H15648   6.690  11.058   6.931 -0.2599  0.3330 -0.9767
  116MOL0     H15649   6.547  10.958   6.941 -1.0238  0.7256 -1.1048
  116MOL0     H15650   6.657  11.050   6.675  0.3993 -0.5951  0.3698
  116MOL0     H15651   6.546  11.142   6.777  1.7713 -0.4607  3.3050
  116MOL0     H15652   6.397  10.941   6.780  1.6017 -0.9813  2.4928
  116MOL0     H15653   6.507  10.836   6.692  0.8875  0.0712  3.6188
  116MOL0     H15654   6.307  10.939   6.558  2.0202 -1.8682 -0.1530
  116MOL0     H15655   6.380  11.100   6.590 -0.6143 -0.0073  2.2987
  116MOL0     H15656   6.596  10.953   6.260 -3.0014 -0.4531 -0.8615
  116MOL0     H15657   6.850  10.661   6.774  1.6604 -0.8221 -1.9291
  116MOL0     H15658   7.194  10.587   6.743  0.4103  0.0053 -1.4870
  116MOL0     H15659   7.026  10.531   6.758  2.6014 -2.4940  1.7366
  116MOL0     H15660   7.088  10.588   6.601 -2.3957 -0.7219  0.8172
  117MOL0     O15661   9.108  11.224   7.287 -0.3828  0.3652  0.2454
  117MOL0     C15662   9.006  11.292   7.265 -0.3051 -0.5495 -0.2626
  117MOL0     O15663   9.013  11.416   7.214 -0.3163  0.2574  0.2710
  117MOL0     C15664   9.132  11.473   7.183 -0.3868  0.2878 -0.2716
  117MOL0     C15665   9.224  11.485   7.282 -0.5395  0.0121  1.0196
  117MOL0     C15666   9.349  11.529   7.247  0.1633 -0.4818  0.2718
  117MOL0     C15667   9.386  11.571   7.118 -0.1289 -0.2065 -0.2153
  117MOL0     O15668   9.512  11.621   7.089 -0.0258 -0.1120 -0.0323
  117MOL0     C15669   9.523  11.730   6.996 -0.5595 -0.6940 -0.1152
  117MOL0     C15670   9.662  11.793   6.988 -0.0793 -0.5100 -0.7658
  117MOL0     C15671   9.680  11.902   6.883  0.8347 -0.6037 -0.3020
  117MOL0     C15672   9.822  11.949   6.889  0.6011  0.5586  0.1803
  117MOL0     C15673   9.847  12.059   6.784  0.5651  0.0875  0.3671
  117MOL0     C15674   9.990  12.102   6.810  0.1994 -0.3548  0.1520
  117MOL0     C15675  10.031  12.174   6.685 -0.2954 -0.6111 -0.2110
  117MOL0     C15676  10.153  12.261   6.714 -0.1267 -0.4357  0.7178
  117MOL0     N15677  10.203  12.324   6.584  0.4413  0.3933  0.2719
  117MOL0     C15678  10.332  12.326   6.554 -0.3588  0.0266  1.1047
  117MOL0     C15679  10.343  12.398   6.438  0.2879 -0.0399 -0.4698
  117MOL0     C15680  10.466  12.411   6.352  0.3823  0.8784 -0.1065
  117MOL0     C15681  10.447  12.466   6.209 -0.0309 -0.2500  0.7548
  117MOL0     C15682  10.427  12.356   6.108  0.7977  0.2212  0.4859
  117MOL0     C15683  10.286  12.299   6.133 -0.1985  0.4953  0.7662
  117MOL0     O15684  10.300  12.183   6.221 -0.3326  0.0525  0.0136
  117MOL0     C15685  10.187  12.127   6.277  0.2862 -0.1317  0.6835
  117MOL0     C15686  10.199  12.005   6.342 -0.0115 -0.3487 -0.4084
  117MOL0     C15687  10.087  11.936   6.392  0.2185 -0.4226  0.0113
  117MOL0     C15688   9.959  11.998   6.379  0.3471  0.0505 -0.0284
  117MOL0     C15689   9.847  11.921   6.430 -0.4360  0.6373  0.8892
  117MOL0     O15690   9.862  11.782   6.442 -0.2676  0.4484  0.1157
  117MOL0     C15691   9.761  11.713   6.500 -0.4281 -0.5602 -0.0139
  117MOL0     C15692   9.779  11.651   6.628 -0.2395 -0.0607  0.3134
  117MOL0     C15693   9.670  11.573   6.685 -0.6591 -0.2005 -0.0094
  117MOL0     C15694   9.542  11.570   6.624  0.6781  0.2631  0.4236
  117MOL0     O15695   9.443  11.511   6.690  0.0719  1.4775  0.7968
  117MOL0     C15696   9.319  11.489   6.615  0.2517 -0.1955 -0.5630
  117MOL0     C15697   9.332  11.369   6.509 -0.7417 -0.2864 -0.7312
  117MOL0     C15698   9.190  11.306   6.482 -0.2057  0.2476 -0.1385
  117MOL0     C15699   9.190  11.161   6.436  0.4632  0.1295 -0.2677
  117MOL0     C15700   9.050  11.118   6.398  0.9118  0.3762  0.9537
  117MOL0     C15701   9.070  10.961   6.369  0.1527  0.1111 -0.3981
  117MOL0     C15702   8.946  10.895   6.309  0.3882  0.4976 -0.1982
  117MOL0     C15703   8.839  10.884   6.417 -0.6873  0.3992  0.7979
  117MOL0    Cl15704   8.669  10.883   6.346  0.6032  0.1296 -0.1878
  117MOL0     C15705   9.530  11.623   6.495 -0.6773 -0.7604 -0.1543
  117MOL0     C15706   9.641  11.697   6.435 -0.3564  0.6974  0.6409
  117MOL0     O15707   9.743  11.983   6.447 -1.0701  0.4439 -0.3589
  117MOL0     C15708   9.939  12.114   6.303 -0.2031  0.6816  0.0339
  117MOL0     C15709  10.057  12.179   6.257  0.4068  0.7869  0.9580
  117MOL0     N15710  10.217  12.454   6.420  0.7263 -0.0199  0.3113
  117MOL0     N15711  10.131  12.407   6.508 -0.4709  0.2280  0.3043
  117MOL0     C15712   9.289  11.548   7.022  0.3586 -0.2758  1.0689
  117MOL0     C15713   9.165  11.504   7.052 -0.1724  0.2983 -0.1811
  117MOL0     C15714   8.878  11.239   7.303 -0.6015 -0.1694 -0.2877
  117MOL0     C15715   8.778  11.283   7.224  0.1634 -0.6603  0.5729
  117MOL0     C15716   8.651  11.242   7.229 -0.2054 -1.0410 -0.6942
  117MOL0     C15717   8.615  11.145   7.325  0.0607  0.0094 -0.2995
  117MOL0     O15718   8.484  11.112   7.335 -0.4492 -0.1591  0.3428
  117MOL0     C15719   8.435  11.090   7.464  0.1623  0.1914 -0.0769
  117MOL0     C15720   8.282  11.125   7.460 -0.0279  0.4773 -0.1559
  117MOL0     C15721   8.223  11.153   7.602  0.4054 -0.4758 -0.0875
  117MOL0     C15722   8.144  11.039   7.659  0.4736  0.1194 -0.8909
  117MOL0     C15723   8.233  10.925   7.679  0.1107 -0.5399 -0.0027
  117MOL0     C15724   8.314  10.840   7.697 -0.8228  0.3659  1.1346
  117MOL0     C15725   8.714  11.102   7.415  0.1684  0.3313  0.4577
  117MOL0     C15726   8.844  11.135   7.396  0.4151  0.4827  0.3895
  117MOL0     C15727   8.937  11.055   7.480  0.6497  0.1636  0.5240
  117MOL0     H15728   9.195  11.465   7.384  0.8037  0.0781  1.4312
  117MOL0     H15729   9.417  11.534   7.331 -3.3622  4.2511  3.4107
  117MOL0     H15730   9.499  11.693   6.896 -1.5915 -0.8002  0.1578
  117MOL0     H15731   9.453  11.806   7.030  0.8348 -0.4591  2.5295
  117MOL0     H15732   9.736  11.717   6.963  0.5430  0.1905 -1.1050
  117MOL0     H15733   9.684  11.839   7.084  1.0754  1.1753 -1.7879
  117MOL0     H15734   9.608  11.983   6.899  1.4713  0.1114 -0.9567
  117MOL0     H15735   9.663  11.853   6.787 -3.2557  1.2215 -0.7166
  117MOL0     H15736   9.835  11.981   6.993 -2.4010  0.5612  0.6467
  117MOL0     H15737   9.890  11.864   6.874 -0.9022 -0.6201 -0.3153
  117MOL0     H15738   9.820  12.019   6.686 -0.7817  1.6235  0.0696
  117MOL0     H15739   9.770  12.136   6.793 -0.4125 -0.8663  0.4374
  117MOL0     H15740   9.986  12.163   6.900 -1.7786  0.1901 -0.2558
  117MOL0     H15741  10.055  12.014   6.807 -1.7476 -1.8191 -0.7318
  117MOL0     H15742   9.946  12.240   6.666  1.4721  2.4500  1.6741
  117MOL0     H15743  10.056  12.109   6.601  3.3075  3.4089 -2.6488
  117MOL0     H15744  10.129  12.339   6.786  2.9177 -0.1383  1.5022
  117MOL0     H15745  10.240  12.210   6.756  1.6841  1.4175 -0.5937
  117MOL0     H15746  10.411  12.257   6.583  1.4219  1.0394 -1.0159
  117MOL0     H15747  10.550  12.462   6.400  1.3152 -1.2435  0.6017
  117MOL0     H15748  10.488  12.305   6.340 -0.9042  0.2018  2.7061
  117MOL0     H15749  10.370  12.544   6.201 -0.1734 -0.4366  0.2970
  117MOL0     H15750  10.532  12.527   6.178 -0.8003  0.4898  0.0543
  117MOL0     H15751  10.500  12.277   6.120 -0.1852 -0.6202  1.1424
  117MOL0     H15752  10.428  12.394   6.005 -1.4336 -3.0964 -0.9174
  117MOL0     H15753  10.256  12.257   6.036  0.9319 -3.2159  1.8619
  117MOL0     H15754  10.215  12.376   6.167  0.4688  1.1172  0.7932
  117MOL0     H15755  10.292  11.954   6.363  0.0136 -1.1294 -2.1900
  117MOL0     H15756  10.101  11.843   6.447  0.6407 -0.1882  0.3089
  117MOL0     H15757   9.875  11.656   6.678 -0.0447 -2.3103  0.2574
  117MOL0     H15758   9.675  11.521   6.780  3.0659  3.5100  2.1582
  117MOL0     H15759   9.243  11.452   6.684 -0.6878  1.6780 -0.5516
  117MOL0     H15760   9.265  11.577   6.580 -3.0727 -1.0238  2.0230
  117MOL0     H15761   9.380  11.408   6.419  1.9090 -0.3196  0.5962
  117MOL0     H15762   9.395  11.289   6.549  1.4242  2.0974  0.8988
  117MOL0     H15763   9.124  11.313   6.569 -3.5937  1.1761 -2.5583
  117MOL0     H15764   9.133  11.367   6.411  0.1150 -2.2980 -2.7997
  117MOL0     H15765   9.222  11.092   6.514  0.6225 -0.7657 -1.1017
  117MOL0     H15766   9.270  11.158   6.362  1.0769 -0.4124  0.4129
  117MOL0     H15767   9.026  11.171   6.305 -2.7348  1.0633  2.1182
  117MOL0     H15768   8.970  11.141   6.469  0.1771  3.0043 -0.5995
  117MOL0     H15769   9.150  10.963   6.294 -0.1802 -0.4909 -0.7702
  117MOL0     H15770   9.102  10.898   6.452  2.4671 -1.5194 -2.3730
  117MOL0     H15771   8.969  10.796   6.268 -1.3413 -1.0016  2.1883
  117MOL0     H15772   8.907  10.951   6.223  1.5735  1.0776 -0.3657
  117MOL0     H15773   8.850  10.792   6.475  0.0281  0.4597  0.7656
  117MOL0     H15774   8.845  10.962   6.493 -0.7491 -1.2724  2.6011
  117MOL0     H15775   9.433  11.647   6.452  0.3983  0.1820 -2.2085
  117MOL0     H15776   9.616  11.752   6.344 -0.8565 -0.3213  0.1467
  117MOL0     H15777   9.833  12.135   6.288 -1.0210 -4.4187 -4.6472
  117MOL0     H15778  10.042  12.256   6.183  2.6558 -0.0033 -0.4018
  117MOL0     H15779   9.314  11.557   6.917 -0.2622  0.6019  0.9877
  117MOL0     H15780   9.096  11.485   6.970  0.6222 -1.9705 -0.4087
  117MOL0     H15781   8.787  11.364   7.152 -1.6888  0.3977  1.4491
  117MOL0     H15782   8.578  11.263   7.152 -0.6404  1.4776  0.3032
  117MOL0     H15783   8.487  11.158   7.532 -1.7288  2.0728 -0.4001
  117MOL0     H15784   8.442  10.988   7.503  0.3670  0.2630  0.0739
  117MOL0     H15785   8.225  11.050   7.405  0.3912  0.6949 -0.9019
  117MOL0     H15786   8.278  11.219   7.403  1.5663  0.1818 -0.8231
  117MOL0     H15787   8.145  11.226   7.583  2.1931  1.8628  1.0918
  117MOL0     H15788   8.291  11.191   7.679 -1.6774  1.1573  1.0255
  117MOL0     H15789   8.112  11.073   7.758  0.1721 -0.1068 -0.9081
  117MOL0     H15790   8.049  11.014   7.610 -0.0043 -1.2010  0.6142
  117MOL0     H15791   8.394  10.769   7.689  0.2025  1.6239 -0.7959
  117MOL0     H15792   8.690  11.029   7.492  0.2715  1.3156  1.4492
  117MOL0     H15793   9.029  11.023   7.430  0.3578 -1.7175  1.1145
  117MOL0     H15794   8.986  11.119   7.554  0.0618  1.8100 -0.4514
  117MOL0     H15795   8.893  10.965   7.524 -1.3539  0.2779 -1.1102
  118MOL0     O15796   5.372   3.371  11.210  0.5654 -0.1288 -0.5697
  118MOL0     C15797   5.404   3.458  11.127 -0.0382  0.7933 -0.3957
  118MOL0     O15798   5.532   3.488  11.095  0.1953  0.2502  0.1404
  118MOL0     C15799   5.635   3.424  11.153 -0.3918 -0.0145 -0.2605
  118MOL0     C15800   5.643   3.414  11.296  0.6421  0.6992 -0.8146
  118MOL0     C15801   5.752   3.354  11.364  0.0941  0.4319 -0.2718
  118MOL0     C15802   5.861   3.316  11.287 -0.6283  0.4707  0.6457
  118MOL0     O15803   5.963   3.243  11.351 -0.2102  0.6344 -0.0744
  118MOL0     C15804   6.095   3.313  11.369  0.7143 -0.1080 -0.5372
  118MOL0     C15805   6.167   3.228  11.467  0.5770 -0.6512  0.4687
  118MOL0     C15806   6.309   3.293  11.479  0.0462  0.6933 -0.6500
  118MOL0     C15807   6.400   3.253  11.361 -0.3949 -0.2284  0.1659
  118MOL0     C15808   6.545   3.297  11.394 -0.5175 -0.1252 -0.7448
  118MOL0     C15809   6.607   3.235  11.523  0.0313 -0.1478  0.0270
  118MOL0     C15810   6.756   3.269  11.531  0.2613  1.0197  0.0887
  118MOL0     C15811   6.844   3.143  11.516 -0.0372  0.7879 -0.3801
  118MOL0     N15812   6.985   3.167  11.558  0.2524 -0.1647  0.6271
  118MOL0     C15813   7.057   3.281  11.539  0.0800 -0.1869 -0.0967
  118MOL0     C15814   7.187   3.246  11.568  0.8949 -0.1898 -0.1920
  118MOL0     C15815   7.305   3.333  11.563 -0.3959  0.0873 -0.3104
  118MOL0     C15816   7.349   3.396  11.696  0.2065  0.6259  0.5789
  118MOL0     C15817   7.407   3.295  11.796 -0.2483 -0.0375  0.2942
  118MOL0     C15818   7.497   3.192  11.731  0.4035 -0.6141  0.0625
  118MOL0     O15819   7.585   3.126  11.825 -0.3577  0.5266  0.2312
  118MOL0     C15820   7.713   3.168  11.852 -0.1910 -1.2968 -0.0857
  118MOL0     C15821   7.788   3.077  11.925  0.5184 -0.1715  0.8973
  118MOL0     C15822   7.919   3.103  11.959  0.4033  0.1152 -0.1006
  118MOL0     C15823   7.971   3.233  11.926 -0.4838  0.8029  0.1666
  118MOL0     C15824   8.108   3.268  11.973 -0.2696 -0.4936  0.4028
  118MOL0     O15825   8.196   3.156  12.000 -0.1441 -0.7323 -0.1402
  118MOL0     C15826   8.325   3.178  12.044  0.3491  0.1775 -0.2981
  118MOL0     C15827   8.409   3.293  12.029 -0.8132 -0.0507 -0.3464
  118MOL0     C15828   8.538   3.292  12.077 -0.6119  0.5045  0.8042
  118MOL0     C15829   8.595   3.181  12.129  0.1262  0.6127 -1.2367
  118MOL0     O15830   8.723   3.191  12.168 -0.1480  0.8830  0.1525
  118MOL0     C15831   8.794   3.074  12.211  0.6063 -1.4103 -1.5601
  118MOL0     C15832   8.938   3.121  12.227 -0.0552  0.2581  0.5606
  118MOL0     C15833   9.037   3.005  12.251  0.4105 -1.0725 -0.3330
  118MOL0     C15834   9.168   3.046  12.318  0.1262 -0.5489 -0.0518
  118MOL0     C15835   9.240   2.920  12.347  0.3399 -0.2974 -0.1137
  118MOL0     C15836   9.381   2.951  12.375 -0.2227 -0.5676  0.1745
  118MOL0     C15837   9.451   2.838  12.449 -0.0979 -0.1644 -0.0371
  118MOL0     C15838   9.606   2.850  12.441 -0.5319  0.1714  0.7711
  118MOL0    Cl15839   9.668   3.010  12.474 -0.1896 -0.5478  0.4319
  118MOL0     C15840   8.520   3.062  12.142 -0.1564 -0.4031 -0.4976
  118MOL0     C15841   8.388   3.060  12.092 -0.1562 -1.0182  0.5684
  118MOL0     O15842   8.136   3.387  11.964 -0.8875  0.2517  0.5333
  118MOL0     C15843   7.895   3.324  11.856  0.3005  0.2411 -0.0974
  118MOL0     C15844   7.763   3.295  11.819 -0.1468 -0.1403  0.1172
  118MOL0     N15845   7.186   3.109  11.614 -0.4574 -0.0711  0.4717
  118MOL0     N15846   7.069   3.070  11.599 -0.1592  0.1842  1.0402
  118MOL0     C15847   5.854   3.326  11.149  0.0739  1.2303  0.4502
  118MOL0     C15848   5.743   3.371  11.081 -0.5212 -0.3884  0.1254
  118MOL0     C15849   5.303   3.532  11.056  0.1431 -0.4299  0.6591
  118MOL0     C15850   5.317   3.672  11.064 -0.0219  0.4990  0.4090
  118MOL0     C15851   5.234   3.752  10.989  0.8936 -0.6640 -1.1623
  118MOL0     C15852   5.132   3.706  10.907 -0.2835  0.5570 -0.7373
  118MOL0     O15853   5.061   3.800  10.846 -0.4115  0.8125  0.2253
  118MOL0     C15854   4.981   3.775  10.731 -0.2248 -0.2398  0.1459
  118MOL0     C15855   5.059   3.775  10.596 -0.2592  0.2953  0.2529
  118MOL0     C15856   4.952   3.792  10.472 -0.2264  0.2852 -0.4559
  118MOL0     C15857   5.027   3.759  10.342  0.3082 -0.0896  0.2608
  118MOL0     C15858   5.155   3.833  10.332  1.0689  0.2081 -0.0386
  118MOL0     C15859   5.263   3.885  10.310 -0.4553  0.0004  0.4811
  118MOL0     C15860   5.112   3.566  10.900  0.5792  0.4289  0.3026
  118MOL0     C15861   5.194   3.470  10.975  0.0669  0.0071 -0.5631
  118MOL0     C15862   5.177   3.316  10.959  0.8735 -1.0911  0.0452
  118MOL0     H15863   5.569   3.451  11.366  2.8563 -0.6798  2.4845
  118MOL0     H15864   5.750   3.344  11.472  3.0605  0.8889 -0.1101
  118MOL0     H15865   6.146   3.319  11.273  1.1685  1.4659 -0.2240
  118MOL0     H15866   6.085   3.418  11.396 -0.9154 -0.3899  0.1248
  118MOL0     H15867   6.175   3.124  11.435  0.7771 -1.3307  2.5816
  118MOL0     H15868   6.115   3.223  11.563  1.4498 -0.6175  0.9523
  118MOL0     H15869   6.340   3.251  11.575 -0.6772  0.1708 -0.6414
  118MOL0     H15870   6.301   3.402  11.492 -0.9061  0.5053  0.5173
  118MOL0     H15871   6.385   3.151  11.325  0.0895  1.0701 -4.3615
  118MOL0     H15872   6.381   3.318  11.274  0.0631 -0.2552  0.0444
  118MOL0     H15873   6.602   3.284  11.301  0.0164 -1.8160 -0.2173
  118MOL0     H15874   6.542   3.405  11.410  1.0406  0.0154 -1.2077
  118MOL0     H15875   6.561   3.279  11.612  0.9692 -0.3530  0.6373
  118MOL0     H15876   6.598   3.126  11.525 -0.5171 -0.1042 -0.1456
  118MOL0     H15877   6.782   3.312  11.628 -0.7615 -1.4839  1.5734
  118MOL0     H15878   6.780   3.354  11.467 -0.5696  0.2980 -1.2509
  118MOL0     H15879   6.798   3.058  11.568  2.1826  0.8272  1.8297
  118MOL0     H15880   6.857   3.124  11.409 -2.8240  1.4500 -0.9297
  118MOL0     H15881   7.023   3.376  11.499 -1.5647  0.1921  2.0089
  118MOL0     H15882   7.382   3.267  11.522 -1.2522  0.4300 -2.6012
  118MOL0     H15883   7.281   3.416  11.496 -3.2044 -0.6399 -0.3312
  118MOL0     H15884   7.415   3.477  11.665 -0.1590  0.5538 -0.4376
  118MOL0     H15885   7.262   3.439  11.747  0.6534  2.2958 -0.0208
  118MOL0     H15886   7.326   3.248  11.853 -0.0865 -0.1569  0.4256
  118MOL0     H15887   7.467   3.353  11.866  0.6276 -0.7079  0.1134
  118MOL0     H15888   7.562   3.223  11.648  1.3163 -1.4080  0.4582
  118MOL0     H15889   7.432   3.118  11.683  0.2092 -0.5984  0.3045
  118MOL0     H15890   7.737   2.981  11.929  0.6305 -0.3559 -0.9709
  118MOL0     H15891   7.992   3.038  12.005  0.2685  0.5900  0.8143
  118MOL0     H15892   8.373   3.382  11.979 -1.5299  1.4032  2.5263
  118MOL0     H15893   8.614   3.368  12.064  0.9008 -0.7858  1.6770
  118MOL0     H15894   8.752   3.035  12.305  0.1104  1.8632 -0.3067
  118MOL0     H15895   8.789   3.000  12.130  0.4582 -2.3420 -0.7196
  118MOL0     H15896   8.978   3.171  12.138  0.6402 -0.0448  0.6972
  118MOL0     H15897   8.945   3.200  12.303 -0.1589 -1.2324  2.1801
  118MOL0     H15898   9.000   2.922  12.313  1.2617 -0.9948  0.2904
  118MOL0     H15899   9.057   2.961  12.153  3.1418 -0.7521  0.0126
  118MOL0     H15900   9.146   3.114  12.401 -0.7756  1.6774 -1.9901
  118MOL0     H15901   9.210   3.119  12.248  0.7331  1.2572  2.0660
  118MOL0     H15902   9.243   2.865  12.252  1.2094  1.2588 -1.0434
  118MOL0     H15903   9.190   2.855  12.419 -0.5904 -0.6315 -1.0244
  118MOL0     H15904   9.433   2.972  12.281 -1.6142 -0.6604 -0.6455
  118MOL0     H15905   9.385   3.037  12.443 -1.4399 -0.4350  0.1059
  118MOL0     H15906   9.412   2.742  12.413 -0.1234 -0.6596  1.2646
  118MOL0     H15907   9.426   2.844  12.555  0.1773 -1.2971  0.1092
  118MOL0     H15908   9.640   2.775  12.513  1.2959 -0.8935 -1.0777
  118MOL0     H15909   9.645   2.833  12.340  0.9023 -1.1267  1.4946
  118MOL0     H15910   8.571   2.972  12.175  0.1057 -0.8224 -1.9871
  118MOL0     H15911   8.333   2.967  12.103 -1.2232 -0.4035  0.5997
  118MOL0     H15912   7.936   3.419  11.823  1.0578 -0.7734 -2.1919
  118MOL0     H15913   7.711   3.371  11.762  1.5892  1.8789  1.0694
  118MOL0     H15914   5.944   3.306  11.092  0.4300  1.0232  1.0790
  118MOL0     H15915   5.752   3.359  10.974 -4.3918  4.0704 -1.0180
  118MOL0     H15916   5.397   3.721  11.117  1.8115 -1.1817 -0.6565
  118MOL0     H15917   5.256   3.858  10.989 -1.8956  0.0110 -0.9173
  118MOL0     H15918   4.912   3.860  10.728 -1.3071 -1.1135 -2.3350
  118MOL0     H15919   4.916   3.687  10.735 -2.1892  1.1921  2.1752
  118MOL0     H15920   5.137   3.698  10.590 -0.5110  0.1547 -2.0907
  118MOL0     H15921   5.127   3.860  10.598  0.4625 -0.2389 -0.8491
  118MOL0     H15922   4.897   3.887  10.479  0.8540  1.3388 -4.1972
  118MOL0     H15923   4.881   3.710  10.482  2.5009 -2.3169 -1.3299
  118MOL0     H15924   5.058   3.654  10.340 -0.3099 -0.2590 -1.1514
  118MOL0     H15925   4.957   3.781  10.261  0.3963  2.2069  0.7529
  118MOL0     H15926   5.362   3.922  10.292 -0.1908  0.6235  2.9678
  118MOL0     H15927   5.045   3.526  10.825  3.4258 -0.1329 -2.1373
  118MOL0     H15928   5.272   3.263  10.973  2.5935  1.8166  0.3069
  118MOL0     H15929   5.104   3.282  11.033 -0.3962  0.0597 -0.6388
  118MOL0     H15930   5.143   3.292  10.858 -0.5502  0.1831  0.1929
  119MOL0     O15931   7.022   1.292   2.711  0.3724  0.1291 -0.6019
  119MOL0     C15932   7.071   1.256   2.824 -1.1809  0.3807  0.5591
  119MOL0     O15933   7.206   1.238   2.840  0.5424  0.0090 -0.4077
  119MOL0     C15934   7.302   1.242   2.740 -0.3588 -0.9538  0.3203
  119MOL0     C15935   7.276   1.198   2.604  0.1518 -0.0137 -0.3129
  119MOL0     C15936   7.384   1.206   2.512 -0.2039  0.9361  0.6701
  119MOL0     C15937   7.518   1.243   2.548  0.6847 -0.3188 -0.0573
  119MOL0     O15938   7.608   1.243   2.449 -0.6434 -0.3965 -0.0325
  119MOL0     C15939   7.748   1.258   2.483 -0.3365 -0.4141  0.2354
  119MOL0     C15940   7.836   1.225   2.361  0.1791 -0.1653  1.3335
  119MOL0     C15941   7.976   1.268   2.400 -0.5851  0.7176 -0.0315
  119MOL0     C15942   8.076   1.190   2.318 -0.3808 -0.2517  0.0397
  119MOL0     C15943   8.214   1.246   2.342 -0.7930 -0.6471  0.1272
  119MOL0     C15944   8.309   1.130   2.304  0.3641  0.1036  0.1737
  119MOL0     C15945   8.455   1.179   2.275  0.3469 -0.4211  0.7295
  119MOL0     C15946   8.531   1.165   2.414  0.0695 -0.7963  0.2321
  119MOL0     N15947   8.675   1.200   2.415  0.6122 -0.9855  0.0077
  119MOL0     C15948   8.767   1.107   2.394  0.1048 -0.1083 -0.0388
  119MOL0     C15949   8.886   1.170   2.420 -0.8325  0.7765 -0.3118
  119MOL0     C15950   9.017   1.096   2.411  0.6992  0.0094  0.1779
  119MOL0     C15951   9.043   1.029   2.271 -0.7394 -0.7743 -0.5622
  119MOL0     C15952   9.169   0.942   2.273 -0.2605  0.8393 -0.0994
  119MOL0     C15953   9.288   1.013   2.307 -0.0692 -0.1128 -0.2751
  119MOL0     O15954   9.400   0.922   2.313 -0.1025 -0.1149 -0.2638
  119MOL0     C15955   9.524   0.975   2.363  0.8762 -0.7830 -0.8241
  119MOL0     C15956   9.544   1.096   2.425 -0.0572  0.2956  0.5165
  119MOL0     C15957   9.671   1.137   2.466 -0.3512 -0.4380 -1.2761
  119MOL0     C15958   9.786   1.059   2.459 -0.2773  0.4539  0.1980
  119MOL0     C15959   9.917   1.111   2.499 -0.6076  1.2925  0.0833
  119MOL0     O15960   9.931   1.237   2.538  0.4623 -0.0202 -0.4786
  119MOL0     C15961  10.059   1.279   2.551  0.3879  0.0666  0.2860
  119MOL0     C15962  10.130   1.364   2.459 -0.5460 -0.5536 -0.2225
  119MOL0     C15963  10.268   1.395   2.479 -0.8382  0.5214  0.1217
  119MOL0     C15964  10.332   1.339   2.598  0.4380 -0.3586  0.1108
  119MOL0     O15965  10.464   1.363   2.620  0.0101 -0.0660  0.0132
  119MOL0     C15966  10.525   1.475   2.563 -0.1516  0.0878 -0.4847
  119MOL0     C15967  10.662   1.486   2.621  0.3436 -0.1315 -0.3813
  119MOL0     C15968  10.744   1.607   2.567 -0.2114  0.1315 -1.1125
  119MOL0     C15969  10.673   1.731   2.632 -0.3152  0.1264  0.6934
  119MOL0     C15970  10.751   1.866   2.607  0.2593  0.0172  0.1988
  119MOL0     C15971  10.873   1.878   2.687  0.7130 -0.0602  0.1270
  119MOL0     C15972  10.907   2.019   2.705 -0.3629  0.0849  0.2973
  119MOL0     C15973  11.042   2.051   2.763  0.2662 -0.4415 -0.1738
  119MOL0    Cl15974  11.169   2.032   2.629 -0.0044  0.2746 -0.0699
  119MOL0     C15975  10.256   1.269   2.689  0.6702  0.5731  0.5460
  119MOL0     C15976  10.119   1.243   2.674  0.1400 -0.2438  0.9520
  119MOL0     O15977  10.006   1.027   2.496  0.4668  0.3890  0.5804
  119MOL0     C15978   9.763   0.934   2.392 -0.1052 -0.2841  0.1426
  119MOL0     C15979   9.634   0.894   2.349 -0.2902  0.0343  0.1312
  119MOL0     N15980   8.864   1.301   2.445  0.6104 -0.7699  0.1553
  119MOL0     N15981   8.735   1.327   2.429  0.2991  0.3895 -0.8792
  119MOL0     C15982   7.544   1.277   2.679 -0.3688  0.3623 -0.6368
  119MOL0     C15983   7.439   1.275   2.765 -0.5859  0.8282 -0.6105
  119MOL0     C15984   6.995   1.270   2.950  0.1438  0.6136 -0.4383
  119MOL0     C15985   7.053   1.237   3.071  0.0584  0.8785  0.9937
  119MOL0     C15986   6.997   1.244   3.198  0.8771  0.4830 -0.7502
  119MOL0     C15987   6.867   1.293   3.208  0.2084 -0.8506 -0.0474
  119MOL0     O15988   6.806   1.294   3.333  0.1305  0.0268  0.2878
  119MOL0     C15989   6.690   1.370   3.356 -0.2140 -0.2937  0.6134
  119MOL0     C15990   6.663   1.378   3.508 -0.0735 -1.0810  0.0798
  119MOL0     C15991   6.517   1.405   3.545 -0.5339 -0.0988  0.4160
  119MOL0     C15992   6.459   1.537   3.491 -0.0875 -0.4027 -0.4589
  119MOL0     C15993   6.361   1.587   3.591  0.2432 -0.9025  0.3079
  119MOL0     C15994   6.276   1.627   3.673 -0.4189  0.9655 -0.3520
  119MOL0     C15995   6.797   1.335   3.089  0.3784 -0.5814 -0.5780
  119MOL0     C15996   6.861   1.326   2.963  0.8558 -0.4204  0.4269
  119MOL0     C15997   6.784   1.385   2.845 -0.8939  0.6899  0.2620
  119MOL0     H15998   7.182   1.157   2.567  1.2040 -1.0174 -1.9854
  119MOL0     H15999   7.373   1.187   2.406  2.5246 -0.0349  0.4861
  119MOL0     H16000   7.774   1.358   2.519  1.9116 -0.4328 -1.1325
  119MOL0     H16001   7.775   1.188   2.563 -0.0898  3.1834  3.6076
  119MOL0     H16002   7.800   1.286   2.277 -0.3288  0.4638  2.0008
  119MOL0     H16003   7.826   1.122   2.325  1.6110 -0.0003  0.3729
  119MOL0     H16004   8.002   1.241   2.503  1.6614  0.5141 -0.6080
  119MOL0     H16005   7.985   1.377   2.390  2.5028  0.3881 -2.0329
  119MOL0     H16006   8.067   1.089   2.359  0.1259  0.2982  1.5949
  119MOL0     H16007   8.042   1.202   2.215  0.6645  0.2393 -0.2550
  119MOL0     H16008   8.234   1.332   2.277 -0.3034  0.0745  1.2073
  119MOL0     H16009   8.230   1.280   2.444  1.1280  0.5490 -0.5216
  119MOL0     H16010   8.317   1.050   2.378  2.3146 -1.7813 -1.9258
  119MOL0     H16011   8.262   1.088   2.214 -0.4303  0.9152  0.2074
  119MOL0     H16012   8.449   1.281   2.237 -0.5443  0.3047  2.6566
  119MOL0     H16013   8.512   1.112   2.210 -1.7897 -2.3202  0.6704
  119MOL0     H16014   8.483   1.233   2.484  1.7733 -0.2795  0.9612
  119MOL0     H16015   8.517   1.066   2.456 -3.5627 -0.4185  0.2210
  119MOL0     H16016   8.753   1.000   2.381  1.0637 -0.5878  2.2685
  119MOL0     H16017   9.095   1.169   2.434  0.7122 -0.0390  0.2874
  119MOL0     H16018   9.004   1.023   2.491  0.2885  0.8271  0.8773
  119MOL0     H16019   8.966   0.958   2.239  0.3299 -1.3873 -1.8862
  119MOL0     H16020   9.041   1.103   2.190 -1.1454 -1.4503 -1.1828
  119MOL0     H16021   9.181   0.880   2.184  0.9152 -3.3839  2.7060
  119MOL0     H16022   9.154   0.871   2.354  0.7471 -1.7364 -2.0474
  119MOL0     H16023   9.286   1.058   2.406  1.2217  0.3429 -0.4376
  119MOL0     H16024   9.300   1.088   2.228 -2.0272  1.8933  1.2020
  119MOL0     H16025   9.464   1.161   2.458 -1.1097 -0.8216  0.2469
  119MOL0     H16026   9.684   1.234   2.514 -2.2996 -0.4135 -0.7149
  119MOL0     H16027  10.080   1.408   2.373  0.6525  1.7576  0.1730
  119MOL0     H16028  10.312   1.460   2.404 -1.1793  0.5147 -0.0888
  119MOL0     H16029  10.536   1.472   2.454  1.4292 -1.5440 -0.3174
  119MOL0     H16030  10.464   1.564   2.579  1.6291  1.6393 -1.8234
  119MOL0     H16031  10.659   1.486   2.730 -1.2710 -0.8961 -0.3911
  119MOL0     H16032  10.712   1.396   2.583 -1.2330 -1.5152  0.6912
  119MOL0     H16033  10.849   1.597   2.595 -0.4406  0.2506 -0.1834
  119MOL0     H16034  10.743   1.626   2.459  0.7245 -0.2129 -1.1923
  119MOL0     H16035  10.686   1.716   2.740 -0.2546 -0.0602  0.6594
  119MOL0     H16036  10.567   1.731   2.607 -0.5265 -0.6942  1.5459
  119MOL0     H16037  10.693   1.954   2.635 -0.1234 -0.8740  2.4129
  119MOL0     H16038  10.770   1.872   2.499 -1.3370 -1.8800 -0.2482
  119MOL0     H16039  10.862   1.822   2.781  1.8622 -3.2512 -1.4724
  119MOL0     H16040  10.957   1.831   2.635  4.0031  3.5267  1.7263
  119MOL0     H16041  10.839   2.055   2.783 -3.6633  0.4190 -2.4600
  119MOL0     H16042  10.886   2.070   2.611  0.8204 -2.5858 -1.5245
  119MOL0     H16043  11.038   2.152   2.806 -0.0484 -0.2850 -0.5686
  119MOL0     H16044  11.060   1.973   2.838 -0.1960  1.5850  2.1775
  119MOL0     H16045  10.306   1.241   2.782  0.8134  1.2164  0.6636
  119MOL0     H16046  10.068   1.189   2.753  1.3989  0.8919  2.6202
  119MOL0     H16047   9.844   0.862   2.381  0.3534  0.4271 -1.4917
  119MOL0     H16048   9.623   0.792   2.312 -2.9269 -0.0197  0.8651
  119MOL0     H16049   7.643   1.311   2.708 -0.4659  1.2459 -1.2723
  119MOL0     H16050   7.466   1.309   2.865  1.8487 -0.9986 -0.5662
  119MOL0     H16051   7.152   1.192   3.073  0.8036  2.3758 -0.0870
  119MOL0     H16052   7.053   1.216   3.287 -0.7264 -0.9762 -0.1379
  119MOL0     H16053   6.601   1.324   3.312 -1.1012  1.2749  0.7328
  119MOL0     H16054   6.700   1.474   3.325 -4.4857  0.4378  1.1196
  119MOL0     H16055   6.728   1.454   3.551 -2.0946  0.7658  0.1079
  119MOL0     H16056   6.683   1.286   3.563 -1.4630 -1.1551  0.5211
  119MOL0     H16057   6.517   1.414   3.654 -0.0258  0.0591  0.4066
  119MOL0     H16058   6.453   1.324   3.508 -1.1765  1.0993 -1.2257
  119MOL0     H16059   6.535   1.614   3.475 -1.7226  1.8221  1.7128
  119MOL0     H16060   6.410   1.519   3.395  0.6211  0.3219 -0.9755
  119MOL0     H16061   6.196   1.648   3.742 -1.5103  0.5803 -1.4606
  119MOL0     H16062   6.695   1.369   3.106  0.7121 -1.1702  3.5974
  119MOL0     H16063   6.761   1.307   2.771  0.6418 -1.1328  1.5938
  119MOL0     H16064   6.683   1.423   2.858 -1.0294  0.5395 -0.3069
  119MOL0     H16065   6.841   1.457   2.786 -0.8536 -0.5684 -1.3168
  120MOL0     O16066   0.414   1.572   8.093  0.8213 -0.4055  0.5119
  120MOL0     C16067   0.333   1.472   8.093 -0.2566  0.3874 -0.6735
  120MOL0     O16068   0.366   1.353   8.164 -0.0380  0.7019  0.1325
  120MOL0     C16069   0.399   1.361   8.299 -0.2468 -0.2999 -0.0335
  120MOL0     C16070   0.480   1.265   8.356  0.2966  0.5780 -0.3166
  120MOL0     C16071   0.520   1.279   8.488  0.0521 -0.4833  0.0777
  120MOL0     C16072   0.486   1.395   8.562  0.0324  0.3020 -0.2335
  120MOL0     O16073   0.541   1.424   8.686 -0.3583 -0.4118 -0.4934
  120MOL0     C16074   0.681   1.398   8.698  1.3140 -0.1977 -0.0392
  120MOL0     C16075   0.716   1.504   8.796  0.1334 -0.7116 -0.2899
  120MOL0     C16076   0.857   1.484   8.854 -0.0815 -0.1724 -0.1530
  120MOL0     C16077   0.965   1.541   8.762  0.1134 -0.0975  0.9346
  120MOL0     C16078   1.104   1.529   8.835  0.6726  0.2837  0.1474
  120MOL0     C16079   1.216   1.602   8.756 -0.5603  0.2943  0.5293
  120MOL0     C16080   1.331   1.648   8.842 -0.5248  0.2717 -0.4530
  120MOL0     C16081   1.413   1.768   8.797 -1.0645  0.0587  0.2171
  120MOL0     N16082   1.534   1.796   8.871 -0.5212 -0.0205  0.7003
  120MOL0     C16083   1.628   1.702   8.917  0.8050 -0.1378  0.5328
  120MOL0     C16084   1.713   1.783   8.991  0.3926  0.1621 -0.3300
  120MOL0     C16085   1.830   1.739   9.083 -0.1255  0.3847 -0.3090
  120MOL0     C16086   1.910   1.639   9.003  0.2935 -0.1541  0.0771
  120MOL0     C16087   1.985   1.707   8.890 -0.4386  0.5983 -0.7762
  120MOL0     C16088   2.104   1.637   8.844 -0.1794  0.4820 -0.5817
  120MOL0     O16089   2.210   1.654   8.951 -0.4697 -0.2901 -0.2774
  120MOL0     C16090   2.338   1.602   8.944 -0.2085 -0.7873  0.5417
  120MOL0     C16091   2.424   1.627   9.053 -1.2717 -0.4123  0.3298
  120MOL0     C16092   2.549   1.561   9.054 -0.5811  0.4244  0.0095
  120MOL0     C16093   2.589   1.485   8.949  0.1532  0.2139  0.4943
  120MOL0     C16094   2.729   1.431   8.950  0.2219  0.1751 -0.1006
  120MOL0     O16095   2.809   1.461   9.060  0.2667  0.2585 -0.2577
  120MOL0     C16096   2.943   1.425   9.068 -0.3829 -0.4810 -0.2376
  120MOL0     C16097   3.005   1.389   9.189 -0.2261 -0.1033  0.2938
  120MOL0     C16098   3.141   1.349   9.197  0.6750 -0.0186 -0.2879
  120MOL0     C16099   3.220   1.355   9.075 -0.4349 -1.1069 -0.0340
  120MOL0     O16100   3.348   1.302   9.091  0.0242  0.2555 -0.4670
  120MOL0     C16101   3.441   1.307   8.981  0.3860 -0.9563 -0.6724
  120MOL0     C16102   3.578   1.317   9.040  0.8314  0.1072 -0.8688
  120MOL0     C16103   3.632   1.178   9.088  0.0618 -0.3053  0.5096
  120MOL0     C16104   3.717   1.190   9.213  0.3923  0.3052  0.4837
  120MOL0     C16105   3.762   1.046   9.251  0.3990  0.6765 -0.0606
  120MOL0     C16106   3.860   0.990   9.147 -0.0449  0.5742 -0.1557
  120MOL0     C16107   3.937   0.863   9.206  0.2772 -0.3086  0.0978
  120MOL0     C16108   4.085   0.888   9.226 -1.0619  0.4044  0.5855
  120MOL0    Cl16109   4.166   0.942   9.076 -0.3746 -0.3094 -0.0396
  120MOL0     C16110   3.159   1.402   8.961 -0.2213 -0.0358  0.7640
  120MOL0     C16111   3.023   1.434   8.948  0.4076  0.4695 -0.4265
  120MOL0     O16112   2.767   1.369   8.850  0.1721  0.2283 -0.2208
  120MOL0     C16113   2.510   1.466   8.833  0.7924  0.0291  0.4082
  120MOL0     C16114   2.380   1.528   8.833 -1.0520 -0.0159 -0.1578
  120MOL0     N16115   1.679   1.913   8.977 -0.2886  0.8439 -0.1758
  120MOL0     N16116   1.568   1.917   8.919 -0.3530  0.5850  0.1759
  120MOL0     C16117   0.398   1.478   8.508  0.9230 -0.3614  0.5801
  120MOL0     C16118   0.358   1.473   8.383 -0.1259  1.0647  1.0507
  120MOL0     C16119   0.211   1.475   8.014  0.0450  0.0035 -0.0092
  120MOL0     C16120   0.142   1.591   8.006  0.3561 -0.7442  0.2960
  120MOL0     C16121   0.022   1.595   7.930  0.3473 -0.1060  0.4106
  120MOL0     C16122  -0.029   1.486   7.865  0.2939  0.3140 -0.2776
  120MOL0     O16123  -0.137   1.505   7.786 -0.3862 -0.0528 -0.2412
  120MOL0     C16124  -0.218   1.389   7.762  0.0496  0.0803  0.1253
  120MOL0     C16125  -0.362   1.412   7.725 -0.2043 -0.5276 -0.1230
  120MOL0     C16126  -0.445   1.509   7.823 -1.0899  0.1273  0.2116
  120MOL0     C16127  -0.555   1.443   7.901 -0.0578  0.0501  0.7769
  120MOL0     C16128  -0.631   1.539   7.976  0.1594  0.1342  0.1476
  120MOL0     C16129  -0.695   1.621   8.036  0.0217 -0.2132  0.1108
  120MOL0     C16130   0.039   1.367   7.873  0.1389  0.0135  0.3093
  120MOL0     C16131   0.161   1.361   7.944 -0.4544 -0.4548 -0.0007
  120MOL0     C16132   0.225   1.224   7.950  0.1688 -0.1544 -0.5235
  120MOL0     H16133   0.509   1.176   8.301 -2.8911  0.8063 -2.6833
  120MOL0     H16134   0.604   1.215   8.513  2.1718  0.8950 -2.7852
  120MOL0     H16135   0.694   1.301   8.746 -0.2561  0.5647  2.1083
  120MOL0     H16136   0.740   1.397   8.606  3.3457  1.4955  1.1621
  120MOL0     H16137   0.648   1.498   8.881 -1.4492 -0.2754 -1.4854
  120MOL0     H16138   0.705   1.609   8.768 -2.4466 -0.4951  1.2503
  120MOL0     H16139   0.881   1.380   8.874 -2.4242 -0.5821  0.8747
  120MOL0     H16140   0.868   1.542   8.946  1.4164  0.2427 -0.5604
  120MOL0     H16141   0.975   1.484   8.669 -0.7659  0.7945  0.2693
  120MOL0     H16142   0.941   1.646   8.741  0.0566 -0.4999 -1.2124
  120MOL0     H16143   1.098   1.577   8.934 -0.0704 -2.2927  1.4385
  120MOL0     H16144   1.130   1.426   8.858 -1.2192 -0.2948 -0.1619
  120MOL0     H16145   1.247   1.537   8.673 -2.6359 -0.2189  0.0958
  120MOL0     H16146   1.171   1.693   8.716 -0.0436  1.1277  1.7817
  120MOL0     H16147   1.390   1.557   8.855 -2.0174 -0.6179  0.3526
  120MOL0     H16148   1.297   1.665   8.944  2.0930 -0.8669  0.7145
  120MOL0     H16149   1.443   1.760   8.692  0.3478 -3.2137  0.7742
  120MOL0     H16150   1.351   1.857   8.812  2.8501  2.5784  3.5093
  120MOL0     H16151   1.629   1.594   8.907  1.7795 -0.1904  1.1302
  120MOL0     H16152   1.892   1.822   9.116 -1.2362  1.4274 -0.7446
  120MOL0     H16153   1.798   1.686   9.173  1.4246 -2.2511 -1.1948
  120MOL0     H16154   1.985   1.607   9.077  0.2191 -2.5092 -0.7687
  120MOL0     H16155   1.843   1.560   8.967  0.6569  0.2395 -1.5111
  120MOL0     H16156   2.021   1.802   8.929 -2.8884  1.7512 -1.1085
  120MOL0     H16157   1.916   1.724   8.806 -0.6571 -1.0137 -0.9653
  120MOL0     H16158   2.136   1.681   8.749  2.8335  0.8060  0.4689
  120MOL0     H16159   2.069   1.535   8.826 -2.3805  0.6495  2.1416
  120MOL0     H16160   2.389   1.695   9.129 -1.2310  0.2868 -0.2673
  120MOL0     H16161   2.610   1.566   9.144  3.7566  1.1826 -2.6431
  120MOL0     H16162   2.944   1.399   9.278  0.2838 -0.6598  0.7132
  120MOL0     H16163   3.185   1.316   9.290 -0.6076 -0.5345  0.1650
  120MOL0     H16164   3.431   1.218   8.917 -1.9464 -0.0311 -1.6883
  120MOL0     H16165   3.423   1.386   8.908  2.7065 -1.5780 -2.0221
  120MOL0     H16166   3.646   1.368   8.971  0.3713  1.0635 -0.6370
  120MOL0     H16167   3.575   1.385   9.126 -3.9799  0.2586 -0.9013
  120MOL0     H16168   3.543   1.115   9.101 -0.7842  1.0355  1.5616
  120MOL0     H16169   3.691   1.137   9.006 -1.2618 -0.1078 -0.5901
  120MOL0     H16170   3.649   1.230   9.289 -0.6008 -0.8249  0.2213
  120MOL0     H16171   3.802   1.257   9.195 -0.5481  0.8290 -2.5878
  120MOL0     H16172   3.676   0.979   9.261  0.3207  0.7440 -0.2845
  120MOL0     H16173   3.816   1.052   9.346  0.3841 -0.6093  0.0490
  120MOL0     H16174   3.815   0.966   9.050 -0.5144 -1.4962  0.5130
  120MOL0     H16175   3.932   1.071   9.134 -0.5787  1.1588  0.5201
  120MOL0     H16176   3.925   0.773   9.144 -0.1709 -0.5498  0.5297
  120MOL0     H16177   3.902   0.842   9.307  2.6503  1.6834  1.4507
  120MOL0     H16178   4.098   0.964   9.304  0.2310  2.5994 -1.6189
  120MOL0     H16179   4.137   0.799   9.262 -1.4670 -0.3158 -0.5815
  120MOL0     H16180   3.224   1.420   8.876  0.3864  2.9736  1.7532
  120MOL0     H16181   2.988   1.484   8.858  2.6842  0.8137 -1.1832
  120MOL0     H16182   2.547   1.401   8.754 -0.6942  0.5488 -0.7700
  120MOL0     H16183   2.305   1.515   8.756  0.9585 -1.0337 -2.0366
  120MOL0     H16184   0.369   1.564   8.568 -0.2999  0.0337 -0.5288
  120MOL0     H16185   0.278   1.534   8.343  2.0209  1.1718 -3.8120
  120MOL0     H16186   0.177   1.676   8.064 -1.4129  0.3961 -0.2092
  120MOL0     H16187  -0.042   1.682   7.920  0.7954  0.3233  1.1593
  120MOL0     H16188  -0.237   1.331   7.853 -1.0110 -1.1392 -0.8386
  120MOL0     H16189  -0.172   1.323   7.688 -1.9506 -2.9529  1.4187
  120MOL0     H16190  -0.407   1.313   7.733  0.4998 -0.7793  0.9358
  120MOL0     H16191  -0.364   1.461   7.627  1.8698  2.0983  1.0109
  120MOL0     H16192  -0.475   1.603   7.775 -3.5443 -0.3942  0.6100
  120MOL0     H16193  -0.376   1.548   7.898 -1.7919 -0.1130  0.9965
  120MOL0     H16194  -0.627   1.419   7.823 -0.7020  2.9517  0.3772
  120MOL0     H16195  -0.524   1.357   7.962  1.7649  0.7187  0.8476
  120MOL0     H16196  -0.739   1.700   8.094 -1.0650  0.3917 -1.4759
  120MOL0     H16197   0.006   1.278   7.820  1.3720  1.0316 -2.3173
  120MOL0     H16198   0.334   1.225   7.945  0.3052 -2.7025  0.3165
  120MOL0     H16199   0.184   1.175   8.039 -2.1548  2.8787  0.2348
  120MOL0     H16200   0.190   1.164   7.865 -1.0844 -2.7368  1.6615
  121MOL0     O16201   5.115   2.706   3.565  0.5497  0.7105 -0.6119
  121MOL0     C16202   5.038   2.773   3.501 -0.6048  0.1680 -0.1007
  121MOL0     O16203   5.065   2.833   3.385  0.2544  0.0873  0.1991
  121MOL0     C16204   5.197   2.862   3.351 -0.3164  0.4848  0.0935
  121MOL0     C16205   5.300   2.879   3.443  0.7538 -0.1385  0.0491
  121MOL0     C16206   5.436   2.892   3.406 -0.0160 -0.4846  1.3720
  121MOL0     C16207   5.473   2.903   3.268 -0.4883  0.5373  0.0554
  121MOL0     O16208   5.608   2.916   3.258  0.0487 -0.0335 -0.2940
  121MOL0     C16209   5.667   2.921   3.125  0.2003 -0.0693 -0.8064
  121MOL0     C16210   5.809   2.974   3.131 -0.8816 -0.4089  0.4508
  121MOL0     C16211   5.891   2.940   3.005  0.1156 -0.0877 -0.1838
  121MOL0     C16212   6.022   3.014   3.006 -0.0548 -0.1924  1.0808
  121MOL0     C16213   6.121   2.975   3.120  0.0053 -0.8465 -0.0534
  121MOL0     C16214   6.268   3.025   3.097  0.3743 -0.2497  0.7451
  121MOL0     C16215   6.361   2.987   3.204 -0.0646 -0.0181  0.0783
  121MOL0     C16216   6.512   3.026   3.180  0.1863 -0.0095 -0.1001
  121MOL0     N16217   6.584   2.946   3.075 -0.0794  0.0318  0.1356
  121MOL0     C16218   6.579   2.963   2.937 -0.7157  0.7277 -0.1078
  121MOL0     C16219   6.666   2.871   2.882  0.3455 -0.2129 -0.1149
  121MOL0     C16220   6.687   2.858   2.732 -0.1829 -0.0069  0.1826
  121MOL0     C16221   6.821   2.791   2.687 -0.1290 -0.3305  0.2287
  121MOL0     C16222   6.795   2.659   2.633 -0.7323  1.1153  0.2415
  121MOL0     C16223   6.919   2.592   2.571  0.5867  0.0459 -0.0742
  121MOL0     O16224   7.017   2.568   2.678  0.0388  0.3719 -0.0338
  121MOL0     C16225   7.148   2.602   2.662  0.7750  0.6330  0.0216
  121MOL0     C16226   7.241   2.505   2.673  1.1956 -0.1331 -0.9775
  121MOL0     C16227   7.374   2.540   2.662 -0.1876 -0.2483  0.3112
  121MOL0     C16228   7.409   2.671   2.633 -0.0248  0.5561  0.5934
  121MOL0     C16229   7.558   2.709   2.614 -0.1691  0.6278 -0.4494
  121MOL0     O16230   7.587   2.840   2.605 -0.2324 -0.3476  0.6926
  121MOL0     C16231   7.720   2.875   2.578  0.3796 -0.7786 -0.4875
  121MOL0     C16232   7.806   2.949   2.667 -0.0955  0.8353  0.4388
  121MOL0     C16233   7.940   2.985   2.640  0.8435  0.9623  0.1020
  121MOL0     C16234   7.988   2.932   2.521  0.0568  0.3052  1.0959
  121MOL0     O16235   8.115   2.969   2.476  0.1898  0.1724  0.9408
  121MOL0     C16236   8.203   3.063   2.544  0.1514  0.7213  0.9214
  121MOL0     C16237   8.294   2.993   2.637 -0.6996 -0.3126  0.1518
  121MOL0     C16238   8.369   3.112   2.704  0.8578 -0.2261 -0.4269
  121MOL0     C16239   8.510   3.063   2.762 -0.1900 -0.1236  0.3319
  121MOL0     C16240   8.605   3.169   2.818  0.4588 -0.0606  0.1812
  121MOL0     C16241   8.550   3.221   2.951  0.0862 -0.2173 -0.2496
  121MOL0     C16242   8.643   3.294   3.046 -0.0400  0.1004 -0.3972
  121MOL0     C16243   8.771   3.222   3.076  0.1063  0.4515  0.4006
  121MOL0    Cl16244   8.734   3.067   3.157 -0.2364  0.2088  0.5586
  121MOL0     C16245   7.910   2.865   2.430  0.0365  0.7197  0.0039
  121MOL0     C16246   7.773   2.842   2.454  0.2221 -0.5332  0.5913
  121MOL0     O16247   7.643   2.618   2.609  0.4589  0.3314 -0.0237
  121MOL0     C16248   7.313   2.766   2.621 -0.7172  0.0244  0.3735
  121MOL0     C16249   7.177   2.736   2.640  0.0501 -0.1774  0.5887
  121MOL0     N16250   6.718   2.797   2.989  0.8753  0.3024 -0.1658
  121MOL0     N16251   6.664   2.838   3.101 -0.6572 -0.0252  0.1267
  121MOL0     C16252   5.366   2.898   3.178 -0.4698  0.5646  0.1237
  121MOL0     C16253   5.234   2.868   3.217 -1.2391  0.7091  0.0127
  121MOL0     C16254   4.892   2.775   3.546  0.0221  0.3038  0.8011
  121MOL0     C16255   4.809   2.844   3.456  0.1301 -0.3394  0.3048
  121MOL0     C16256   4.666   2.852   3.473 -0.4803  0.0940  0.7277
  121MOL0     C16257   4.616   2.780   3.580  0.2906  0.5996 -0.2694
  121MOL0     O16258   4.480   2.770   3.616 -0.1412 -1.0558 -0.6035
  121MOL0     C16259   4.363   2.772   3.524  0.0249 -0.5086 -0.7254
  121MOL0     C16260   4.279   2.904   3.520  0.0611  0.0760  0.6184
  121MOL0     C16261   4.209   2.936   3.649  0.0608  0.7875  0.2768
  121MOL0     C16262   4.150   3.075   3.640 -0.5466 -0.6340  0.5912
  121MOL0     C16263   4.032   3.076   3.548 -0.0350 -0.8332 -0.1467
  121MOL0     C16264   3.927   3.075   3.490  0.5365  0.4795  1.0085
  121MOL0     C16265   4.703   2.727   3.678 -0.2219  0.8045  0.1905
  121MOL0     C16266   4.841   2.719   3.668 -0.0242 -0.7775  0.0672
  121MOL0     C16267   4.919   2.668   3.782 -0.3584  0.1242 -1.3564
  121MOL0     H16268   5.272   2.879   3.548 -0.5621 -3.6368 -0.1573
  121MOL0     H16269   5.518   2.887   3.477  2.2672 -0.8314 -1.1282
  121MOL0     H16270   5.671   2.815   3.098 -1.9011 -0.7494  1.2278
  121MOL0     H16271   5.606   2.981   3.056 -0.2284 -1.8038 -1.9994
  121MOL0     H16272   5.847   2.920   3.218 -1.2035 -2.8332 -0.8265
  121MOL0     H16273   5.817   3.081   3.149 -2.9912  0.0513 -1.0109
  121MOL0     H16274   5.842   2.972   2.913  0.2517  0.1559 -0.1732
  121MOL0     H16275   5.905   2.832   2.996 -2.0717 -0.2655 -2.8483
  121MOL0     H16276   6.072   3.001   2.909  2.0590 -0.3515  2.1346
  121MOL0     H16277   5.997   3.120   3.018  1.2093 -0.0532  3.0070
  121MOL0     H16278   6.086   3.015   3.216 -0.3870  0.4222 -0.6959
  121MOL0     H16279   6.129   2.868   3.137 -0.8772 -0.9470 -0.2647
  121MOL0     H16280   6.302   2.989   2.999 -2.0590  1.4492 -0.8350
  121MOL0     H16281   6.263   3.133   3.083  0.1086 -0.6495 -3.8309
  121MOL0     H16282   6.366   2.879   3.217 -0.3431  0.0668  0.8971
  121MOL0     H16283   6.331   3.039   3.295 -2.2217  1.5675 -1.4287
  121MOL0     H16284   6.530   3.132   3.165  0.7052 -0.0982 -0.1235
  121MOL0     H16285   6.558   3.008   3.278 -1.2874  1.8115  1.0002
  121MOL0     H16286   6.512   3.031   2.886 -0.9890  0.9812  0.5825
  121MOL0     H16287   6.606   2.801   2.685 -1.5532  0.9290  1.3257
  121MOL0     H16288   6.696   2.955   2.684  3.6388 -2.0607 -4.0074
  121MOL0     H16289   6.865   2.854   2.608  0.3255 -1.2071 -0.2256
  121MOL0     H16290   6.887   2.802   2.773  0.6056  2.4395 -0.5590
  121MOL0     H16291   6.716   2.668   2.557 -0.4786  0.1726 -0.1481
  121MOL0     H16292   6.765   2.588   2.711  3.3423  0.5738  1.5593
  121MOL0     H16293   6.968   2.657   2.498 -2.5376 -0.4601 -2.8050
  121MOL0     H16294   6.873   2.508   2.519 -3.6864  0.9020  1.9009
  121MOL0     H16295   7.218   2.401   2.690  0.1613 -0.0000 -1.4736
  121MOL0     H16296   7.452   2.464   2.661  1.9595  1.8237 -1.7602
  121MOL0     H16297   7.757   2.980   2.759  0.6814 -2.6513  2.1931
  121MOL0     H16298   7.992   3.043   2.716 -0.4937 -0.3707  2.1528
  121MOL0     H16299   8.274   3.116   2.480  0.0525  2.2850  2.0365
  121MOL0     H16300   8.146   3.146   2.588  1.7682  1.2819  2.0566
  121MOL0     H16301   8.256   2.932   2.720  0.2544  1.3318  1.8550
  121MOL0     H16302   8.370   2.931   2.589  0.2674  0.6336  0.4287
  121MOL0     H16303   8.397   3.177   2.620  0.3665 -2.5552 -2.5041
  121MOL0     H16304   8.321   3.163   2.788  3.0445 -1.3858  1.6507
  121MOL0     H16305   8.560   3.023   2.673 -0.4516 -0.6813  0.4314
  121MOL0     H16306   8.495   2.984   2.836 -1.2833 -0.8022 -0.5717
  121MOL0     H16307   8.602   3.263   2.762  0.7855  0.0656  0.3771
  121MOL0     H16308   8.706   3.130   2.825 -0.1923 -2.0425 -0.8200
  121MOL0     H16309   8.461   3.282   2.930 -0.3871  0.0400  2.1867
  121MOL0     H16310   8.516   3.135   3.010  1.2632 -0.2691  0.3921
  121MOL0     H16311   8.596   3.312   3.143 -0.1929 -2.4964  0.1059
  121MOL0     H16312   8.660   3.390   2.997 -2.9979  2.8960  3.5226
  121MOL0     H16313   8.832   3.193   2.990 -0.7578 -3.6645  0.9412
  121MOL0     H16314   8.838   3.283   3.137  1.2984  1.6881 -2.0142
  121MOL0     H16315   7.943   2.839   2.330 -0.5618  0.5710 -0.1586
  121MOL0     H16316   7.705   2.792   2.386 -0.7087  2.4060 -0.7916
  121MOL0     H16317   7.342   2.865   2.587 -1.1191  0.3263  0.9058
  121MOL0     H16318   7.103   2.814   2.630 -0.0559  0.3024  3.9979
  121MOL0     H16319   5.387   2.901   3.071  4.2131  0.6729  0.8549
  121MOL0     H16320   5.158   2.867   3.139 -1.6042 -0.2926  0.3537
  121MOL0     H16321   4.849   2.906   3.376 -1.2674  2.6356  1.7364
  121MOL0     H16322   4.601   2.906   3.406  0.2350 -3.2532 -3.0706
  121MOL0     H16323   4.304   2.692   3.570  0.9046  0.4655  2.3954
  121MOL0     H16324   4.387   2.744   3.421 -1.5450 -1.7378 -0.8018
  121MOL0     H16325   4.220   2.909   3.428 -0.3309 -0.4191  0.8425
  121MOL0     H16326   4.361   2.977   3.509  1.0216 -1.2271 -1.8665
  121MOL0     H16327   4.272   2.936   3.739 -0.5098  0.5852  0.6827
  121MOL0     H16328   4.130   2.862   3.669  0.0559  0.6113 -0.3797
  121MOL0     H16329   4.119   3.099   3.742  0.8118 -0.6738  1.0363
  121MOL0     H16330   4.221   3.154   3.613  0.1339 -1.2597  0.5185
  121MOL0     H16331   3.835   3.075   3.435  1.8450 -1.4377 -1.4137
  121MOL0     H16332   4.642   2.692   3.761 -0.9465 -0.7951 -0.9746
  121MOL0     H16333   5.020   2.710   3.790 -0.8390  0.8872  1.8800
  121MOL0     H16334   4.860   2.686   3.871 -0.9868 -0.9542 -1.5368
  121MOL0     H16335   4.930   2.559   3.773  0.1727 -0.1002  1.2145
  122MOL0     O16336   7.709   1.756  10.440  0.3351  0.0720  1.0519
  122MOL0     C16337   7.663   1.690  10.531  0.4105 -1.0260  0.2279
  122MOL0     O16338   7.707   1.686  10.657  0.4358 -0.3810  0.5962
  122MOL0     C16339   7.843   1.701  10.683 -0.7510  0.9784  0.0683
  122MOL0     C16340   7.879   1.737  10.812 -0.6012  1.0003 -0.1624
  122MOL0     C16341   8.015   1.742  10.853  0.1377  0.4439 -0.3374
  122MOL0     C16342   8.115   1.724  10.751  0.0286 -0.6661 -0.5918
  122MOL0     O16343   8.250   1.741  10.770 -0.2172  0.3297  0.4788
  122MOL0     C16344   8.306   1.752  10.907 -0.1237  0.2767  0.2476
  122MOL0     C16345   8.459   1.721  10.896  0.2170  0.4251 -0.3928
  122MOL0     C16346   8.522   1.814  10.790 -0.1819  0.7958 -0.4517
  122MOL0     C16347   8.670   1.815  10.816 -0.2608  0.4015 -0.7856
  122MOL0     C16348   8.743   1.897  10.701 -0.5546  0.0867 -0.3157
  122MOL0     C16349   8.894   1.920  10.722  0.2944  0.1443  0.1667
  122MOL0     C16350   8.989   1.797  10.727  0.2232 -0.1776 -0.1679
  122MOL0     C16351   9.000   1.715  10.592  0.8198 -0.4164 -0.1221
  122MOL0     N16352   9.076   1.766  10.487 -0.1980 -0.1993 -0.0866
  122MOL0     C16353   9.206   1.735  10.456 -0.2665  0.4524 -0.1759
  122MOL0     C16354   9.240   1.816  10.355  0.4184 -0.3541  0.3290
  122MOL0     C16355   9.367   1.812  10.282  0.0341 -0.6143 -0.0345
  122MOL0     C16356   9.484   1.886  10.355  0.2211  0.0848  0.6852
  122MOL0     C16357   9.605   1.882  10.268  0.5546  0.2042 -0.0423
  122MOL0     C16358   9.728   1.904  10.358  0.1977  0.2351  0.0654
  122MOL0     O16359   9.736   1.804  10.453  0.4385  0.3236  0.6765
  122MOL0     C16360   9.859   1.756  10.484  0.3031 -0.1708 -0.1419
  122MOL0     C16361   9.890   1.757  10.625 -0.4146  0.9410  0.0818
  122MOL0     C16362  10.004   1.694  10.676  0.4211  0.1005 -0.2162
  122MOL0     C16363  10.099   1.629  10.595 -0.3018 -0.9333  0.0719
  122MOL0     C16364  10.222   1.579  10.647 -0.3503  0.6034  0.4622
  122MOL0     O16365  10.328   1.566  10.557 -0.2971  0.1631 -0.2644
  122MOL0     C16366  10.456   1.535  10.598  0.0864 -0.4481  0.1608
  122MOL0     C16367  10.489   1.401  10.632 -0.7957 -1.8475  0.9049
  122MOL0     C16368  10.618   1.369  10.672  1.0944  0.6242  0.3355
  122MOL0     C16369  10.719   1.459  10.676 -0.3293 -0.1334 -0.0364
  122MOL0     O16370  10.849   1.407  10.714  0.1525  0.8626  0.1592
  122MOL0     C16371  10.962   1.494  10.682 -0.0268 -0.2802 -0.5924
  122MOL0     C16372  11.085   1.440  10.746 -0.2877  0.4808  0.2400
  122MOL0     C16373  11.140   1.323  10.662 -0.3322  0.0108  0.3577
  122MOL0     C16374  11.217   1.366  10.539 -0.4248 -0.9660  0.6013
  122MOL0     C16375  11.304   1.263  10.469  0.6638 -0.3930 -0.7777
  122MOL0     C16376  11.441   1.244  10.535 -0.5543  0.0098 -0.3224
  122MOL0     C16377  11.544   1.360  10.547  0.2562 -0.0152 -0.4865
  122MOL0     C16378  11.604   1.378  10.405  0.6637 -0.7525  0.6238
  122MOL0    Cl16379  11.728   1.510  10.411 -0.4808  0.0695  0.5822
  122MOL0     C16380  10.685   1.597  10.654  0.5001  0.4421  1.7542
  122MOL0     C16381  10.562   1.631  10.610 -0.5097 -0.2482  0.2576
  122MOL0     O16382  10.231   1.564  10.771 -0.4935  0.3115  0.3780
  122MOL0     C16383  10.070   1.628  10.464  0.0779  0.3951  0.0251
  122MOL0     C16384   9.952   1.683  10.407  0.1848  0.1707 -0.2162
  122MOL0     N16385   9.133   1.908  10.341 -0.4114  0.0375 -0.1983
  122MOL0     N16386   9.034   1.876  10.415  0.8862  0.4141  0.1139
  122MOL0     C16387   8.077   1.681  10.623  0.4876  0.5697  0.0050
  122MOL0     C16388   7.945   1.669  10.588  0.1421 -0.8437  0.3229
  122MOL0     C16389   7.549   1.602  10.490  0.8253 -0.0460 -0.2587
  122MOL0     C16390   7.554   1.528  10.366 -0.2017  1.0057  0.3005
  122MOL0     C16391   7.444   1.436  10.331 -0.2787 -0.8120  0.4634
  122MOL0     C16392   7.340   1.413  10.422 -0.6807 -0.3117  1.0463
  122MOL0     O16393   7.229   1.342  10.401 -0.1691  0.2427  0.0252
  122MOL0     C16394   7.206   1.293  10.267  0.3252  0.1013  0.3400
  122MOL0     C16395   7.052   1.287  10.241  0.0319  0.4960  0.0446
  122MOL0     C16396   6.993   1.153  10.287 -0.8716 -0.0017 -0.1177
  122MOL0     C16397   6.855   1.109  10.237 -0.9195 -0.2204 -0.5412
  122MOL0     C16398   6.816   0.989  10.298  0.2454 -0.6529  0.0279
  122MOL0     C16399   6.791   0.870  10.329 -0.7592 -0.3662  0.6276
  122MOL0     C16400   7.349   1.484  10.541  0.2243  0.8882 -0.5553
  122MOL0     C16401   7.446   1.584  10.573  0.0825 -0.1108  0.1058
  122MOL0     C16402   7.428   1.648  10.713 -0.1014  0.1344 -0.5293
  122MOL0     H16403   7.801   1.757  10.885 -0.6810 -1.5760  0.5677
  122MOL0     H16404   8.036   1.780  10.952 -2.5368  0.2552  0.3914
  122MOL0     H16405   8.300   1.852  10.950  1.1870  0.1325  0.7908
  122MOL0     H16406   8.257   1.673  10.966 -2.0477  1.2624  0.0596
  122MOL0     H16407   8.475   1.615  10.873  2.3055  0.6781 -0.3015
  122MOL0     H16408   8.509   1.740  10.992  0.2951  0.8901 -0.5254
  122MOL0     H16409   8.468   1.909  10.789  1.2783  1.6806  0.9027
  122MOL0     H16410   8.505   1.769  10.692 -1.9805  3.7682 -1.6517
  122MOL0     H16411   8.685   1.866  10.912 -0.5446 -0.1338 -0.4552
  122MOL0     H16412   8.711   1.714  10.820 -1.1829  0.0440  0.7094
  122MOL0     H16413   8.738   1.853  10.601 -0.4231 -0.8679  0.0860
  122MOL0     H16414   8.692   1.994  10.692 -1.9640 -0.0383  4.0045
  122MOL0     H16415   8.932   1.978  10.638 -0.6248  2.8234  1.4849
  122MOL0     H16416   8.911   1.977  10.813 -0.7606  0.6388  0.0657
  122MOL0     H16417   8.939   1.738  10.804 -0.2943  0.9967  0.4230
  122MOL0     H16418   9.090   1.824  10.758 -0.2685  1.8780 -0.1846
  122MOL0     H16419   9.053   1.623  10.619  0.5927 -0.0786  1.5330
  122MOL0     H16420   8.900   1.679  10.565  0.4400 -0.0294  0.7395
  122MOL0     H16421   9.265   1.665  10.513 -0.7096  1.3452  1.4385
  122MOL0     H16422   9.395   1.706  10.272  0.5733 -0.3979 -0.9326
  122MOL0     H16423   9.349   1.864  10.188  1.9491  2.3767  1.1183
  122MOL0     H16424   9.460   1.989  10.384  1.4799  0.6442 -0.1743
  122MOL0     H16425   9.498   1.822  10.443  2.4664  1.0568  1.0914
  122MOL0     H16426   9.588   1.959  10.192  1.6638  0.7914  0.2947
  122MOL0     H16427   9.606   1.793  10.204 -1.4578  1.2231 -1.6182
  122MOL0     H16428   9.739   2.002  10.404  1.5867 -0.5907  1.6349
  122MOL0     H16429   9.806   1.893  10.282 -0.1823  2.7095 -0.7632
  122MOL0     H16430   9.818   1.811  10.686 -0.3327  0.9168  0.1986
  122MOL0     H16431  10.020   1.705  10.782  2.1145 -3.6074  0.0947
  122MOL0     H16432  10.418   1.321  10.615 -2.3532 -0.8769  2.4747
  122MOL0     H16433  10.634   1.263  10.689 -1.5008  0.2597  1.0204
  122MOL0     H16434  10.977   1.528  10.579  2.9584 -0.8299 -0.4252
  122MOL0     H16435  10.927   1.586  10.729 -2.2888 -1.0568 -0.6294
  122MOL0     H16436  11.157   1.521  10.759  0.0198  0.9415 -3.2719
  122MOL0     H16437  11.057   1.411  10.847  2.3349 -0.3365  0.8184
  122MOL0     H16438  11.212   1.271  10.726 -0.2125 -0.7423 -0.3670
  122MOL0     H16439  11.060   1.254  10.634 -1.8594  2.5403 -2.0084
  122MOL0     H16440  11.276   1.455  10.562 -0.9494 -0.6952  0.9180
  122MOL0     H16441  11.149   1.411  10.466  1.3016  1.0857  0.1252
  122MOL0     H16442  11.311   1.277  10.361  2.1844 -1.6343 -0.8631
  122MOL0     H16443  11.247   1.170  10.470 -0.7021  0.3764  1.2309
  122MOL0     H16444  11.433   1.204  10.637 -1.4679 -0.7220 -0.6556
  122MOL0     H16445  11.489   1.162  10.480  0.0340  2.0240 -2.9662
  122MOL0     H16446  11.623   1.316  10.608 -0.8035 -2.8623 -0.9765
  122MOL0     H16447  11.504   1.453  10.587  0.0009 -1.3076  2.5096
  122MOL0     H16448  11.643   1.282  10.370 -0.5281 -1.4708  1.2002
  122MOL0     H16449  11.530   1.404  10.329  2.1901  0.1835 -0.5894
  122MOL0     H16450  10.758   1.678  10.653  0.2833  0.7334 -1.5023
  122MOL0     H16451  10.542   1.736  10.590 -4.5395 -1.2351 -2.0775
  122MOL0     H16452  10.135   1.571  10.399 -0.8523 -0.6482 -0.0264
  122MOL0     H16453   9.937   1.668  10.300 -0.6891 -1.6763  0.1291
  122MOL0     H16454   8.162   1.670  10.557  0.1989  1.3226 -0.4959
  122MOL0     H16455   7.928   1.650  10.483 -1.2572  0.7704  0.2081
  122MOL0     H16456   7.639   1.536  10.299  0.0869 -1.1035  0.3559
  122MOL0     H16457   7.437   1.396  10.230  0.1283  0.0676  0.0740
  122MOL0     H16458   7.254   1.195  10.260 -2.1355 -1.1893  0.3081
  122MOL0     H16459   7.249   1.351  10.185 -1.0600 -1.1015 -1.3282
  122MOL0     H16460   7.029   1.293  10.134 -3.4462  1.3265  0.7052
  122MOL0     H16461   6.997   1.373  10.282 -0.2804  0.2486  0.1510
  122MOL0     H16462   7.000   1.152  10.396 -1.7183  1.5333 -0.0263
  122MOL0     H16463   7.059   1.073  10.252 -2.4120 -1.5088  0.3361
  122MOL0     H16464   6.787   1.192  10.259  0.1555  0.4632  0.3271
  122MOL0     H16465   6.846   1.107  10.128  0.0890  1.7887 -0.7051
  122MOL0     H16466   6.783   0.765  10.343  3.8181 -1.3258 -1.9202
  122MOL0     H16467   7.263   1.461  10.603  0.4661  2.2430  0.3082
  122MOL0     H16468   7.437   1.757  10.704  0.3658  0.0919 -0.6202
  122MOL0     H16469   7.330   1.630  10.756 -0.1504  1.5047 -0.0112
  122MOL0     H16470   7.505   1.616  10.784 -1.5304  1.6101  1.7982
  123MOL0     O16471   9.637   9.906  10.550 -0.4126 -0.4743 -0.4088
  123MOL0     C16472   9.595   9.805  10.502  0.7548 -0.3685 -0.3320
  123MOL0     O16473   9.645   9.740  10.394 -0.2158 -0.9933  0.3580
  123MOL0     C16474   9.766   9.784  10.349 -0.1056  0.7843  0.8081
  123MOL0     C16475   9.778   9.871  10.238  0.2775 -0.9631  0.1485
  123MOL0     C16476   9.904   9.905  10.187 -0.6742 -0.1093 -0.1336
  123MOL0     C16477  10.020   9.863  10.257 -0.4349 -0.0901 -0.4851
  123MOL0     O16478  10.143   9.895  10.201 -0.2667 -0.2681  0.2556
  123MOL0     C16479  10.252   9.911  10.291 -0.2250 -0.8324 -0.1056
  123MOL0     C16480  10.353   9.977  10.195 -0.4433  0.1431 -0.0350
  123MOL0     C16481  10.401   9.882  10.084  0.1285  0.4567  0.7061
  123MOL0     C16482  10.536   9.916  10.022  0.3334 -0.1405 -0.2600
  123MOL0     C16483  10.593   9.850   9.892 -0.0469  0.6587 -0.0412
  123MOL0     C16484  10.612   9.696   9.899  0.3507  1.1169  0.1619
  123MOL0     C16485  10.645   9.638   9.762 -0.2630 -0.8910 -0.5252
  123MOL0     C16486  10.757   9.708   9.689 -0.1185  0.1890  0.0429
  123MOL0     N16487  10.875   9.724   9.766  0.5158  0.3683 -0.7671
  123MOL0     C16488  10.958   9.633   9.833  0.2159 -0.0904  0.4298
  123MOL0     C16489  11.061   9.702   9.877 -0.1459  0.0276  0.0032
  123MOL0     C16490  11.185   9.663   9.953 -0.4840 -0.1821 -0.1058
  123MOL0     C16491  11.300   9.650   9.859  0.3353  0.5540 -0.1973
  123MOL0     C16492  11.439   9.645   9.925  0.9248 -0.0094 -0.2115
  123MOL0     C16493  11.532   9.619   9.799 -0.7234 -0.5890 -0.7869
  123MOL0     O16494  11.665   9.618   9.855  0.4660  0.6327 -0.4891
  123MOL0     C16495  11.771   9.563   9.786  0.5703 -0.0050  0.8232
  123MOL0     C16496  11.898   9.586   9.839  0.5835 -0.5560 -0.5313
  123MOL0     C16497  12.011   9.521   9.794  0.2102  0.3768  0.2079
  123MOL0     C16498  12.004   9.437   9.677 -0.5992  0.2544 -0.1916
  123MOL0     C16499  12.117   9.356   9.624 -0.1374  0.7718 -0.3508
  123MOL0     O16500  12.236   9.360   9.690 -0.4090 -0.2068  0.4507
  123MOL0     C16501  12.354   9.377   9.624  0.5302 -0.4343  0.0762
  123MOL0     C16502  12.391   9.298   9.517 -0.6271 -0.3961 -0.2315
  123MOL0     C16503  12.526   9.320   9.462  0.2354  0.2115  0.5733
  123MOL0     C16504  12.611   9.408   9.518 -0.4422  0.3739 -0.4644
  123MOL0     O16505  12.737   9.415   9.467  0.1589  1.0074  0.5429
  123MOL0     C16506  12.804   9.538   9.484 -0.5812 -0.0443 -1.0631
  123MOL0     C16507  12.921   9.539   9.383 -0.3378 -0.9645 -0.0149
  123MOL0     C16508  13.034   9.647   9.415 -0.4126 -0.9848 -0.0550
  123MOL0     C16509  13.145   9.626   9.312  1.1415 -0.0440 -0.3977
  123MOL0     C16510  13.268   9.711   9.343 -0.5746 -0.9399  0.2840
  123MOL0     C16511  13.388   9.700   9.242 -0.4304 -0.0102  0.0056
  123MOL0     C16512  13.340   9.729   9.100  0.3750 -0.8807  0.4641
  123MOL0     C16513  13.458   9.757   9.005 -0.2957 -0.7593  0.5933
  123MOL0    Cl16514  13.561   9.615   8.987 -0.2069  0.7566 -0.0466
  123MOL0     C16515  12.565   9.491   9.625 -0.6874  0.1691  0.4047
  123MOL0     C16516  12.442   9.470   9.679 -0.1459  0.0537 -0.0109
  123MOL0     O16517  12.093   9.288   9.527  0.1690  0.0407  0.6839
  123MOL0     C16518  11.878   9.429   9.615  0.2584  0.8424 -0.7598
  123MOL0     C16519  11.766   9.486   9.669  0.1314 -0.1588  0.1083
  123MOL0     N16520  11.033   9.835   9.860 -0.0673 -0.2063 -0.0447
  123MOL0     N16521  10.927   9.849   9.801 -0.4013  1.5200  0.3324
  123MOL0     C16522  10.006   9.785  10.369 -0.1510  0.7135  0.0896
  123MOL0     C16523   9.883   9.742  10.411  0.4211 -0.5151 -0.3848
  123MOL0     C16524   9.470   9.748  10.563  0.2386 -0.0104  0.9260
  123MOL0     C16525   9.385   9.671  10.482 -0.0315 -0.2437 -1.9806
  123MOL0     C16526   9.258   9.617  10.526 -0.2590 -0.2480  0.5268
  123MOL0     C16527   9.239   9.619  10.664 -0.1949 -0.5934 -0.6637
  123MOL0     O16528   9.141   9.537  10.724  0.6343 -0.3078  0.3259
  123MOL0     C16529   9.061   9.433  10.657  0.1642  0.0803 -1.0356
  123MOL0     C16530   8.945   9.490  10.569  0.0571  0.0445  0.0143
  123MOL0     C16531   8.830   9.528  10.665 -0.2579 -0.5416 -0.0610
  123MOL0     C16532   8.699   9.459  10.638 -0.4501  0.6475  0.6616
  123MOL0     C16533   8.708   9.312  10.648  1.4760  0.0380  0.6069
  123MOL0     C16534   8.706   9.189  10.648 -0.5480  0.2289  0.0932
  123MOL0     C16535   9.326   9.687  10.750 -0.2899 -0.0590  0.1041
  123MOL0     C16536   9.436   9.756  10.700  0.8951 -0.0684 -0.5876
  123MOL0     C16537   9.516   9.837  10.797  0.2675 -0.4230 -0.5562
  123MOL0     H16538   9.684   9.900  10.193  1.0493 -0.7760 -1.4007
  123MOL0     H16539   9.922   9.962  10.097  0.1287 -1.4484 -0.8439
  123MOL0     H16540  10.225   9.975  10.376 -2.1075  1.3666 -2.1990
  123MOL0     H16541  10.297   9.820  10.331 -2.6840 -2.7475 -1.4194
  123MOL0     H16542  10.441  10.005  10.253  0.7364 -1.4985 -0.9512
  123MOL0     H16543  10.301  10.064  10.152  0.1264  0.6357  0.2572
  123MOL0     H16544  10.336   9.898   9.998 -1.5397 -2.0018  1.4042
  123MOL0     H16545  10.400   9.776  10.111  0.8789 -0.1442 -1.4843
  123MOL0     H16546  10.536  10.023   9.997  0.3414  0.3157  1.5177
  123MOL0     H16547  10.606   9.917  10.107  0.3839  1.8157 -0.2691
  123MOL0     H16548  10.518   9.875   9.816  1.6241  0.9200 -1.6443
  123MOL0     H16549  10.683   9.895   9.850 -0.4378  0.8745 -0.6577
  123MOL0     H16550  10.688   9.673   9.975 -0.7051  0.6072  1.0866
  123MOL0     H16551  10.521   9.653   9.942  0.3355  0.5982 -0.3710
  123MOL0     H16552  10.560   9.657   9.695 -0.2507 -0.3323 -0.3933
  123MOL0     H16553  10.662   9.531   9.774 -1.5226 -1.1986 -1.3416
  123MOL0     H16554  10.769   9.660   9.591  0.6990 -0.5613  0.4967
  123MOL0     H16555  10.725   9.807   9.655 -0.8304 -1.1157 -3.5113
  123MOL0     H16556  10.942   9.526   9.825 -0.1738  0.0763 -1.6137
  123MOL0     H16557  11.212   9.751  10.011 -0.7756  1.1409 -1.9033
  123MOL0     H16558  11.179   9.577  10.020 -0.1905 -0.2114 -0.1170
  123MOL0     H16559  11.277   9.563   9.798  1.0957  0.6798 -0.6846
  123MOL0     H16560  11.313   9.744   9.804 -0.1645  1.6737  1.4892
  123MOL0     H16561  11.437   9.564   9.998 -0.1373 -1.1079 -1.4060
  123MOL0     H16562  11.464   9.745   9.963  1.9552 -0.3765  0.0877
  123MOL0     H16563  11.522   9.696   9.722  0.6231  0.0762 -0.3201
  123MOL0     H16564  11.492   9.524   9.762 -1.0784 -1.5427  1.8725
  123MOL0     H16565  11.912   9.652   9.924  3.5214  0.3469 -1.5811
  123MOL0     H16566  12.105   9.542   9.845  0.8140  0.0453 -0.7402
  123MOL0     H16567  12.323   9.218   9.491 -1.6349 -0.2224  1.6932
  123MOL0     H16568  12.574   9.252   9.391  1.3728  1.0790  0.4846
  123MOL0     H16569  12.754   9.635   9.488  1.5851  1.0865  1.1691
  123MOL0     H16570  12.848   9.545   9.584 -4.8011  1.2869  0.9281
  123MOL0     H16571  12.970   9.441   9.390  0.5684 -0.4041  2.0625
  123MOL0     H16572  12.879   9.562   9.284 -0.8356  1.3246  0.6773
  123MOL0     H16573  12.992   9.745   9.392  3.1184  0.6356 -0.1652
  123MOL0     H16574  13.077   9.643   9.515  3.4044  0.8159 -1.4262
  123MOL0     H16575  13.101   9.632   9.212  0.0200 -3.2251 -0.2251
  123MOL0     H16576  13.175   9.521   9.319 -0.1137 -0.5210 -1.5731
  123MOL0     H16577  13.307   9.690   9.443 -1.2618 -1.1116  0.5241
  123MOL0     H16578  13.241   9.817   9.346 -0.9954 -1.0285 -0.3197
  123MOL0     H16579  13.473   9.757   9.278 -1.0066 -0.6471  2.6029
  123MOL0     H16580  13.436   9.602   9.241 -3.1144 -1.4177 -0.3164
  123MOL0     H16581  13.269   9.812   9.092  1.1797 -0.3113 -1.4754
  123MOL0     H16582  13.287   9.638   9.069 -4.3549  1.1591  1.7794
  123MOL0     H16583  13.417   9.787   8.908 -2.6027 -1.5366  1.2721
  123MOL0     H16584  13.524   9.835   9.046 -2.0878  2.1280 -1.5912
  123MOL0     H16585  12.626   9.564   9.677 -0.3937 -1.5761  2.6458
  123MOL0     H16586  12.421   9.523   9.772 -0.3045  0.8884 -0.5108
  123MOL0     H16587  11.861   9.367   9.528 -2.1313  0.3268 -0.0271
  123MOL0     H16588  11.673   9.462   9.619  0.1814  2.8622 -1.7271
  123MOL0     H16589  10.092   9.755  10.428  0.8132  0.6509 -1.3020
  123MOL0     H16590   9.874   9.687  10.504  2.0222  1.2898  0.9264
  123MOL0     H16591   9.418   9.646  10.381 -0.9385 -0.1547 -2.3041
  123MOL0     H16592   9.197   9.554  10.463 -0.5807  1.5168 -1.0423
  123MOL0     H16593   9.013   9.355  10.718  0.4602  1.7215  1.4661
  123MOL0     H16594   9.132   9.385  10.589  0.7826  0.8532 -0.9550
  123MOL0     H16595   8.913   9.421  10.491  1.0942  0.8668 -1.1882
  123MOL0     H16596   8.993   9.567  10.507  3.4636 -2.7171 -1.1402
  123MOL0     H16597   8.826   9.637  10.653  0.2650 -0.6156 -0.9360
  123MOL0     H16598   8.847   9.518  10.773  0.2871  0.9585  0.0165
  123MOL0     H16599   8.623   9.497  10.705 -1.0487 -1.7186  1.4022
  123MOL0     H16600   8.656   9.482  10.540  1.6884 -1.3013 -0.8707
  123MOL0     H16601   8.694   9.083  10.647 -1.2900  0.2697 -2.0814
  123MOL0     H16602   9.317   9.682  10.858  0.3589 -2.2844  0.0965
  123MOL0     H16603   9.625   9.828  10.789  0.5799  0.9902  1.3203
  123MOL0     H16604   9.492   9.944  10.798  2.7658  0.2534  2.1217
  123MOL0     H16605   9.481   9.804  10.895 -2.8418 -1.7200 -1.9758
  124MOL0     O16606   5.740   9.248   6.587  0.4355  0.4765  0.4832
  124MOL0     C16607   5.656   9.316   6.643 -0.2707  0.8659 -0.7002
  124MOL0     O16608   5.676   9.385   6.759 -0.2830 -0.0317  0.2024
  124MOL0     C16609   5.808   9.406   6.800 -0.3807  0.7304  0.8898
  124MOL0     C16610   5.891   9.303   6.843  0.3070  0.1389 -0.2616
  124MOL0     C16611   6.031   9.326   6.852  1.2803 -0.4271  0.1720
  124MOL0     C16612   6.086   9.456   6.813 -0.5915  0.6696  0.7193
  124MOL0     O16613   6.221   9.486   6.827 -0.0628 -0.4409 -0.0783
  124MOL0     C16614   6.313   9.385   6.864 -0.8275  0.3990 -0.4593
  124MOL0     C16615   6.453   9.457   6.852 -0.6276 -0.5123  0.5899
  124MOL0     C16616   6.572   9.354   6.856  0.2980 -1.8196 -0.2568
  124MOL0     C16617   6.709   9.426   6.857  0.8317  0.3742  0.0070
  124MOL0     C16618   6.822   9.318   6.865 -0.1024  0.3590  0.6398
  124MOL0     C16619   6.955   9.363   6.928 -0.6319  1.1610  0.5639
  124MOL0     C16620   6.930   9.450   7.054  0.0743 -0.6338  0.4578
  124MOL0     C16621   7.048   9.463   7.150 -1.0380 -0.0126 -0.1765
  124MOL0     N16622   7.159   9.528   7.080  0.1181  0.0087  1.9386
  124MOL0     C16623   7.155   9.663   7.061  0.2537 -0.3451 -0.0183
  124MOL0     C16624   7.270   9.700   7.009 -0.2072  0.5229  0.3919
  124MOL0     C16625   7.316   9.847   7.000 -0.3624  0.8080  0.6804
  124MOL0     C16626   7.406   9.873   6.878 -0.3708 -0.2848 -0.3498
  124MOL0     C16627   7.319   9.853   6.749  0.1368  0.2441  0.2963
  124MOL0     C16628   7.408   9.836   6.614  0.1920 -0.0122 -0.5021
  124MOL0     O16629   7.476   9.962   6.592  0.2333  0.4701  0.9572
  124MOL0     C16630   7.582   9.955   6.500  1.2392 -0.0973 -0.3515
  124MOL0     C16631   7.665  10.067   6.493  1.2958  0.0509  0.1340
  124MOL0     C16632   7.769  10.068   6.407  0.1644 -0.5773 -0.8622
  124MOL0     C16633   7.787   9.971   6.305  0.3688  0.3791  1.0599
  124MOL0     C16634   7.890   9.987   6.204 -0.7388 -0.2263 -0.2772
  124MOL0     O16635   7.901   9.885   6.107  0.9174 -0.0298  0.2364
  124MOL0     C16636   7.990   9.896   6.004  0.2089  0.0085 -0.4362
  124MOL0     C16637   8.127   9.925   6.020 -1.0319 -0.2014  0.3844
  124MOL0     C16638   8.219   9.923   5.908  0.4952  0.5620 -0.7233
  124MOL0     C16639   8.166   9.882   5.783 -0.4834 -0.0479  0.8479
  124MOL0     O16640   8.250   9.859   5.667  0.1515 -0.4238  0.5378
  124MOL0     C16641   8.385   9.910   5.675  0.3436  1.2681  0.2883
  124MOL0     C16642   8.450   9.899   5.542 -0.0462 -0.2565 -0.0590
  124MOL0     C16643   8.587   9.981   5.533  0.7544 -0.2350 -0.1997
  124MOL0     C16644   8.628   9.984   5.379  0.7085  0.7432 -0.2712
  124MOL0     C16645   8.649   9.838   5.321  0.4973 -0.1944 -0.4033
  124MOL0     C16646   8.722   9.848   5.190 -0.6695  0.0071 -0.5928
  124MOL0     C16647   8.761   9.720   5.129  1.2797  0.7545  0.4000
  124MOL0     C16648   8.642   9.658   5.049  0.2128 -0.1076  0.0700
  124MOL0    Cl16649   8.681   9.494   4.977  0.2445 -0.4730  0.2880
  124MOL0     C16650   8.028   9.857   5.766 -0.0441  0.0488  0.3983
  124MOL0     C16651   7.937   9.866   5.875 -0.0501 -0.7414  0.1831
  124MOL0     O16652   7.963  10.082   6.209 -0.1778 -0.2027  0.4879
  124MOL0     C16653   7.704   9.858   6.306  0.0982 -0.1140 -0.0944
  124MOL0     C16654   7.608   9.849   6.411 -0.2329 -0.3217 -0.1914
  124MOL0     N16655   7.338   9.583   6.983 -0.5895 -0.1805 -0.0218
  124MOL0     N16656   7.275   9.478   7.027 -0.2765 -0.0184 -0.4823
  124MOL0     C16657   5.998   9.556   6.774  0.6659  0.0804 -0.1706
  124MOL0     C16658   5.859   9.528   6.769  0.3206 -0.0831  0.3013
  124MOL0     C16659   5.527   9.309   6.595 -0.9719 -0.9530  0.8109
  124MOL0     C16660   5.503   9.395   6.487 -0.6873  0.6085 -0.0071
  124MOL0     C16661   5.376   9.401   6.425  0.0904  0.4726 -0.8775
  124MOL0     C16662   5.270   9.318   6.472  0.4205 -0.2397  0.2982
  124MOL0     O16663   5.139   9.330   6.432  0.2178  0.5584 -0.5018
  124MOL0     C16664   5.103   9.405   6.317  0.3478  0.1269 -0.6477
  124MOL0     C16665   4.952   9.407   6.323  0.6958 -0.6086  0.1451
  124MOL0     C16666   4.916   9.523   6.409 -0.4112  0.6715 -0.2028
  124MOL0     C16667   4.767   9.535   6.444 -0.0015  0.5047 -0.1986
  124MOL0     C16668   4.675   9.522   6.331 -0.0556  0.0536 -0.0570
  124MOL0     C16669   4.598   9.506   6.236  0.5709  0.8135  0.0655
  124MOL0     C16670   5.299   9.241   6.581 -0.5849  0.9410  0.4088
  124MOL0     C16671   5.426   9.239   6.652 -0.2959  0.5062  0.0360
  124MOL0     C16672   5.457   9.160   6.776  0.1645  0.0680 -0.0267
  124MOL0     H16673   5.845   9.208   6.867 -1.4592  0.4706 -2.0771
  124MOL0     H16674   6.094   9.246   6.891  0.6236 -1.5040 -0.9012
  124MOL0     H16675   6.301   9.344   6.965  1.2982 -1.4528 -0.8884
  124MOL0     H16676   6.311   9.301   6.795  0.3568 -0.5422  0.6052
  124MOL0     H16677   6.468   9.533   6.928  1.1027  3.4612 -3.2819
  124MOL0     H16678   6.448   9.513   6.758 -1.0010  0.9998  1.4926
  124MOL0     H16679   6.568   9.290   6.767 -0.0955  0.4489 -1.9631
  124MOL0     H16680   6.573   9.299   6.950  0.8618 -2.0442 -0.3922
  124MOL0     H16681   6.722   9.493   6.771  0.2411 -0.3727 -0.6799
  124MOL0     H16682   6.702   9.503   6.935 -2.7200  2.9591 -2.4949
  124MOL0     H16683   6.795   9.224   6.914  0.9725  0.4212  1.3606
  124MOL0     H16684   6.855   9.293   6.763  2.4067  0.0649  1.4612
  124MOL0     H16685   7.008   9.271   6.956 -2.3388  0.0038  0.1395
  124MOL0     H16686   7.001   9.436   6.861 -0.8180  2.2011  1.5544
  124MOL0     H16687   6.839   9.406   7.096  0.2398 -1.9504 -0.5078
  124MOL0     H16688   6.910   9.556   7.034 -1.7424 -1.0500 -0.1553
  124MOL0     H16689   7.018   9.529   7.232  1.2842 -1.3191  1.8966
  124MOL0     H16690   7.086   9.364   7.180  0.0102 -0.5505 -2.9953
  124MOL0     H16691   7.083   9.737   7.094 -0.3340 -0.6136 -0.6829
  124MOL0     H16692   7.227   9.911   6.994 -0.0716  1.1578  0.0139
  124MOL0     H16693   7.363   9.878   7.093  1.0147  1.5626 -0.2334
  124MOL0     H16694   7.443   9.976   6.883 -0.8346 -0.1506  0.5335
  124MOL0     H16695   7.495   9.810   6.883 -0.4148 -0.2247  2.1707
  124MOL0     H16696   7.248   9.934   6.731  2.7590  2.6416  0.1120
  124MOL0     H16697   7.269   9.757   6.765  1.8923 -0.6194  0.8397
  124MOL0     H16698   7.348   9.804   6.528  1.6721 -0.9424 -1.2379
  124MOL0     H16699   7.476   9.754   6.639  0.3609  0.0110 -0.8774
  124MOL0     H16700   7.642  10.156   6.550 -1.1035  1.0010 -2.0900
  124MOL0     H16701   7.849  10.141   6.405 -1.2562  1.0266 -1.9801
  124MOL0     H16702   8.156   9.950   6.122  1.4986 -1.1750 -0.0297
  124MOL0     H16703   8.326   9.936   5.911  0.6006 -0.1125 -1.3144
  124MOL0     H16704   8.392  10.016   5.700 -0.1036  1.4089 -0.1619
  124MOL0     H16705   8.452   9.864   5.749  0.7490  3.3451  1.2659
  124MOL0     H16706   8.466   9.795   5.514 -1.5669 -1.0368  1.7251
  124MOL0     H16707   8.378   9.926   5.464  0.1218  0.9650  0.1873
  124MOL0     H16708   8.567  10.087   5.553 -3.5302 -0.9117 -0.1236
  124MOL0     H16709   8.669   9.935   5.590  0.2021 -0.3726  0.4919
  124MOL0     H16710   8.723  10.037   5.371  0.8801  0.2588 -1.6311
  124MOL0     H16711   8.556  10.036   5.315 -0.2598  1.3495  1.2541
  124MOL0     H16712   8.559   9.777   5.309 -0.3558  0.9088  0.1627
  124MOL0     H16713   8.711   9.781   5.391 -2.2239 -2.1203  0.5976
  124MOL0     H16714   8.653   9.909   5.131 -1.8793  2.3612  2.9481
  124MOL0     H16715   8.806   9.916   5.206 -2.0798  1.4693  1.0270
  124MOL0     H16716   8.788   9.639   5.198 -0.6519 -3.0190 -2.8627
  124MOL0     H16717   8.847   9.725   5.060  1.1605 -2.7408 -0.2243
  124MOL0     H16718   8.557   9.649   5.118  0.1480 -4.4638 -0.2932
  124MOL0     H16719   8.624   9.729   4.968 -2.4737  1.4343  1.8668
  124MOL0     H16720   7.990   9.813   5.675 -0.9128  0.6822  0.4303
  124MOL0     H16721   7.832   9.845   5.860  0.2619 -1.6082 -0.9205
  124MOL0     H16722   7.716   9.773   6.239  0.9817 -1.0198  1.1617
  124MOL0     H16723   7.550   9.758   6.412  0.1850 -0.5899 -0.3472
  124MOL0     H16724   6.037   9.656   6.757  2.8191 -0.8071 -0.7968
  124MOL0     H16725   5.800   9.611   6.732  1.8143  0.6413 -0.5502
  124MOL0     H16726   5.586   9.460   6.464 -2.1632  2.5217 -0.2046
  124MOL0     H16727   5.347   9.472   6.348 -0.9462  1.5430  0.4210
  124MOL0     H16728   5.127   9.340   6.233  0.8933  2.3001 -2.2745
  124MOL0     H16729   5.140   9.507   6.300  1.2777 -0.2354 -0.8491
  124MOL0     H16730   4.910   9.315   6.364  1.3181 -2.1573 -2.4291
  124MOL0     H16731   4.916   9.420   6.220 -1.7857 -5.3811  0.1168
  124MOL0     H16732   4.942   9.619   6.364 -0.9971  0.8799 -0.0995
  124MOL0     H16733   4.978   9.529   6.499 -0.0702 -1.3004 -0.2729
  124MOL0     H16734   4.744   9.458   6.518  1.9842  0.2643  0.2231
  124MOL0     H16735   4.758   9.636   6.485  0.3127  0.8853 -1.0407
  124MOL0     H16736   4.528   9.493   6.156 -1.4404 -1.3587  2.0123
  124MOL0     H16737   5.223   9.180   6.629  0.5228 -3.1677 -2.5242
  124MOL0     H16738   5.373   9.093   6.796  0.7829 -0.4700  0.8571
  124MOL0     H16739   5.547   9.098   6.763  1.1342  0.8928  2.3108
  124MOL0     H16740   5.462   9.233   6.857  0.2765 -0.6888  0.6600
  125MOL0     O16741   1.077   7.240   2.654 -0.2553 -1.0737 -0.5002
  125MOL0     C16742   0.974   7.294   2.704 -0.4203  0.0984  0.4709
  125MOL0     O16743   0.965   7.405   2.780  0.2351 -0.7617  0.7535
  125MOL0     C16744   1.069   7.494   2.774  0.3689  0.0678 -0.0923
  125MOL0     C16745   1.189   7.466   2.822 -0.0351 -0.1085  0.0004
  125MOL0     C16746   1.296   7.561   2.817  0.4896 -0.7221  0.0562
  125MOL0     C16747   1.275   7.693   2.771 -0.0813  0.0962 -0.5280
  125MOL0     O16748   1.387   7.775   2.767  0.6826 -0.1567  0.2824
  125MOL0     C16749   1.357   7.916   2.784 -0.1638 -1.1035  0.4762
  125MOL0     C16750   1.475   8.008   2.765 -0.6362 -0.1617 -0.7670
  125MOL0     C16751   1.597   7.958   2.830  0.9774  0.8251  0.1396
  125MOL0     C16752   1.697   8.075   2.852  0.6548 -0.0075 -0.1511
  125MOL0     C16753   1.832   8.026   2.902 -1.0173 -0.1669  0.7355
  125MOL0     C16754   1.930   8.126   2.959  0.1951 -0.3738 -0.0486
  125MOL0     C16755   2.046   8.057   3.023 -0.1613  0.4361 -0.0311
  125MOL0     C16756   2.132   8.163   3.088 -0.9229 -0.0918 -0.4423
  125MOL0     N16757   2.234   8.102   3.171  0.0932 -0.1656 -0.8444
  125MOL0     C16758   2.345   8.032   3.135  0.1325  0.3836 -0.4369
  125MOL0     C16759   2.405   7.992   3.250 -1.1370  0.7418 -0.6143
  125MOL0     C16760   2.521   7.899   3.253  0.0316 -0.5579  0.6251
  125MOL0     C16761   2.605   7.922   3.382  0.0985 -0.2432 -0.0631
  125MOL0     C16762   2.721   7.828   3.378 -0.8804 -0.6032  1.3967
  125MOL0     C16763   2.805   7.796   3.501  0.4068  0.8203  0.0474
  125MOL0     O16764   2.867   7.925   3.513  1.1044 -0.6333 -0.5388
  125MOL0     C16765   2.953   7.938   3.616 -0.3051 -0.5322 -0.6125
  125MOL0     C16766   3.030   8.059   3.617  0.2200  0.4223  0.1267
  125MOL0     C16767   3.142   8.080   3.698  0.0659  0.8474 -0.3250
  125MOL0     C16768   3.182   7.978   3.794  0.4040 -0.0573  1.7247
  125MOL0     C16769   3.299   7.994   3.882 -0.0700  0.1111  0.6079
  125MOL0     O16770   3.335   8.120   3.915 -0.3572  0.2627  0.0445
  125MOL0     C16771   3.452   8.162   3.982  0.0182  0.5186  0.1118
  125MOL0     C16772   3.469   8.304   3.996  0.0861  0.7855  0.6666
  125MOL0     C16773   3.581   8.366   4.064  0.1353  0.4978  0.5549
  125MOL0     C16774   3.685   8.280   4.109 -0.4857  0.2711 -0.2616
  125MOL0     O16775   3.802   8.320   4.173 -0.1743  0.0824  0.3113
  125MOL0     C16776   3.797   8.455   4.226  0.1660 -1.1597 -0.8232
  125MOL0     C16777   3.910   8.490   4.323  0.2047 -0.1519 -0.6810
  125MOL0     C16778   3.903   8.399   4.451 -0.2957 -0.2782  0.7789
  125MOL0     C16779   3.980   8.453   4.572 -0.0461  0.1171  0.3806
  125MOL0     C16780   3.952   8.393   4.700  0.0078  0.9155 -0.7442
  125MOL0     C16781   3.960   8.237   4.694 -0.0513 -0.1916 -0.7221
  125MOL0     C16782   3.945   8.154   4.830  0.0397  0.6266 -0.2809
  125MOL0     C16783   3.969   8.008   4.812 -0.2835 -0.5099 -0.7478
  125MOL0    Cl16784   3.862   7.924   4.925 -0.2342  0.4860 -0.4327
  125MOL0     C16785   3.661   8.140   4.097 -0.1248 -0.0488  0.0192
  125MOL0     C16786   3.557   8.087   4.030 -0.2215  1.1431 -0.7517
  125MOL0     O16787   3.359   7.891   3.917  0.2564  0.1719  0.1653
  125MOL0     C16788   3.112   7.856   3.792 -0.4800 -0.7406  0.0599
  125MOL0     C16789   3.004   7.840   3.709 -0.1673  0.0804 -0.4228
  125MOL0     N16790   2.345   8.040   3.359 -0.2414  0.3879 -0.8710
  125MOL0     N16791   2.237   8.103   3.313 -0.7323  0.0664  0.0697
  125MOL0     C16792   1.146   7.731   2.727 -0.4834  0.5603 -0.6018
  125MOL0     C16793   1.044   7.632   2.738  0.9406 -0.2754 -0.0606
  125MOL0     C16794   0.844   7.219   2.704 -0.3021 -0.8548  0.2762
  125MOL0     C16795   0.740   7.272   2.782  0.4529  0.5202  0.2329
  125MOL0     C16796   0.615   7.205   2.794  0.6925  0.0577  0.6513
  125MOL0     C16797   0.587   7.090   2.723 -0.2353  0.5742  0.2283
  125MOL0     O16798   0.463   7.037   2.741 -0.2479  0.3094  1.2865
  125MOL0     C16799   0.423   6.917   2.666  0.6702  0.0543  0.3301
  125MOL0     C16800   0.270   6.900   2.663  0.4730  0.3659 -0.1526
  125MOL0     C16801   0.216   6.799   2.550 -0.1004 -0.2574  0.0583
  125MOL0     C16802   0.061   6.816   2.533 -0.2695 -0.2831 -0.4069
  125MOL0     C16803  -0.027   6.763   2.638  0.1333  0.3670  0.0778
  125MOL0     C16804  -0.104   6.712   2.722  0.0204  0.3157  0.5549
  125MOL0     C16805   0.687   7.042   2.640  0.3036  0.5653 -0.1123
  125MOL0     C16806   0.810   7.099   2.632 -0.2651 -0.9060  0.0791
  125MOL0     C16807   0.904   7.051   2.520  0.3451 -0.1281  0.4733
  125MOL0     H16808   1.202   7.366   2.863  0.8252 -0.2068 -0.5030
  125MOL0     H16809   1.397   7.544   2.853  1.9035  0.1984 -3.1201
  125MOL0     H16810   1.277   7.952   2.719 -1.3545 -3.2392  0.6842
  125MOL0     H16811   1.324   7.925   2.888 -1.1318  0.5399  0.0631
  125MOL0     H16812   1.437   8.106   2.795 -0.4941 -0.3696  0.1331
  125MOL0     H16813   1.490   8.016   2.657  0.8014 -0.5385 -0.6200
  125MOL0     H16814   1.651   7.887   2.766  0.4402 -0.5222  1.1247
  125MOL0     H16815   1.561   7.905   2.918 -0.1375  2.5579  0.7788
  125MOL0     H16816   1.701   8.135   2.761 -2.9784  0.7587  0.0428
  125MOL0     H16817   1.656   8.151   2.919 -0.5016 -0.6965 -0.0487
  125MOL0     H16818   1.798   7.948   2.971 -2.2861 -0.7637 -0.5232
  125MOL0     H16819   1.885   7.965   2.828  0.2105 -1.0635  2.2878
  125MOL0     H16820   1.974   8.189   2.881  5.9540 -0.6280  2.4873
  125MOL0     H16821   1.880   8.190   3.032  0.5432 -1.1408  0.8720
  125MOL0     H16822   2.098   7.994   2.949 -1.3170 -0.0466 -0.4536
  125MOL0     H16823   2.007   7.991   3.102 -0.3347  0.5916  0.0120
  125MOL0     H16824   2.177   8.228   3.012 -1.0816  0.3732 -0.1408
  125MOL0     H16825   2.077   8.236   3.148 -0.2712 -0.6840  0.8938
  125MOL0     H16826   2.371   8.004   3.033  0.1552 -3.5214  0.4775
  125MOL0     H16827   2.480   7.798   3.240 -0.8537 -0.1780  0.4726
  125MOL0     H16828   2.584   7.918   3.165 -1.5608 -0.6531 -0.5758
  125MOL0     H16829   2.640   8.025   3.392 -1.0131  0.0017  1.6014
  125MOL0     H16830   2.546   7.902   3.471 -0.1711  1.6727  0.2164
  125MOL0     H16831   2.783   7.862   3.294 -1.1979 -0.1140  1.3618
  125MOL0     H16832   2.678   7.733   3.344  0.6068 -1.6221  2.2345
  125MOL0     H16833   2.868   7.714   3.465  0.9387  0.8962  0.7727
  125MOL0     H16834   2.738   7.765   3.582 -1.0087  0.7723 -1.1193
  125MOL0     H16835   2.992   8.138   3.553  1.4935  0.7625 -0.2411
  125MOL0     H16836   3.182   8.181   3.694 -0.9960  1.2763 -0.5495
  125MOL0     H16837   3.386   8.367   3.968 -0.7909 -0.1706  1.0391
  125MOL0     H16838   3.577   8.474   4.077 -2.7869  0.2318  3.1176
  125MOL0     H16839   3.813   8.532   4.151 -0.8757  0.7837  0.8558
  125MOL0     H16840   3.698   8.471   4.268  1.6890  0.9024  2.3739
  125MOL0     H16841   4.007   8.468   4.276  0.8632 -2.3490  1.4581
  125MOL0     H16842   3.907   8.597   4.344 -0.7885  0.5196 -3.7326
  125MOL0     H16843   3.797   8.385   4.474 -0.0131 -1.1488  1.6340
  125MOL0     H16844   3.930   8.296   4.427 -1.3442 -0.9865  2.4724
  125MOL0     H16845   3.970   8.562   4.582  0.4233  0.4298 -2.1272
  125MOL0     H16846   4.088   8.439   4.564  0.1749  2.5735 -3.7241
  125MOL0     H16847   3.857   8.429   4.740  0.3194 -1.3814  2.4413
  125MOL0     H16848   4.029   8.419   4.773 -1.9106 -3.6978  3.4909
  125MOL0     H16849   3.873   8.211   4.633  0.2853 -1.4212 -0.7015
  125MOL0     H16850   4.057   8.211   4.650  1.3481  0.2799  1.8392
  125MOL0     H16851   3.844   8.164   4.873  1.1387  3.4509  2.0143
  125MOL0     H16852   4.019   8.186   4.904  0.5333  0.9866 -0.9220
  125MOL0     H16853   3.934   7.982   4.712 -3.2575 -0.9172  0.2999
  125MOL0     H16854   4.076   7.988   4.825 -0.1422  0.7328  0.2349
  125MOL0     H16855   3.729   8.077   4.153  1.4835  1.1028 -0.5684
  125MOL0     H16856   3.549   7.979   4.021  1.0065  1.0715 -1.1183
  125MOL0     H16857   3.140   7.773   3.855 -2.9102 -1.3299  0.4595
  125MOL0     H16858   2.969   7.737   3.712 -0.0218 -0.0052 -1.3600
  125MOL0     H16859   1.118   7.826   2.683  2.4519  2.4419  1.2732
  125MOL0     H16860   0.942   7.663   2.720  1.4179  1.6336  0.2094
  125MOL0     H16861   0.752   7.361   2.843  0.8977  0.5868  0.0486
  125MOL0     H16862   0.535   7.256   2.847 -0.7222  0.4058 -1.6739
  125MOL0     H16863   0.475   6.834   2.716 -0.4089 -0.0016  1.3910
  125MOL0     H16864   0.461   6.920   2.563  1.0222  0.7680  0.4690
  125MOL0     H16865   0.221   6.997   2.653 -0.9932 -0.3878 -0.6645
  125MOL0     H16866   0.235   6.852   2.755  0.1763 -2.4053 -1.5771
  125MOL0     H16867   0.249   6.699   2.579 -0.1813 -0.5071 -0.6901
  125MOL0     H16868   0.260   6.813   2.451  0.1188 -1.6881 -0.0639
  125MOL0     H16869   0.030   6.917   2.506  3.2142  2.4288  4.1535
  125MOL0     H16870   0.033   6.756   2.446  1.6814 -0.5192 -0.9331
  125MOL0     H16871  -0.177   6.685   2.796 -3.0556  2.4701 -1.4047
  125MOL0     H16872   0.667   6.954   2.580  0.2261 -0.4412  1.3437
  125MOL0     H16873   0.936   7.135   2.458 -1.2915  0.5288  0.4501
  125MOL0     H16874   0.992   7.010   2.570  0.2915  0.8511  1.4044
  125MOL0     H16875   0.856   6.971   2.463  1.8650 -0.7483  0.0042
  126MOL0     O16876   5.825   2.915   3.914  0.4240  0.5558 -0.6431
  126MOL0     C16877   5.795   2.857   3.811  0.4247 -0.5475 -0.4539
  126MOL0     O16878   5.671   2.845   3.761 -0.3701  0.8614  0.0914
  126MOL0     C16879   5.561   2.926   3.787 -0.0444  0.6443  0.6068
  126MOL0     C16880   5.437   2.868   3.763  0.6599  0.0681 -0.4168
  126MOL0     C16881   5.310   2.911   3.801 -0.4131  0.4033 -0.9224
  126MOL0     C16882   5.302   3.044   3.847 -0.2401 -0.4312 -0.3892
  126MOL0     O16883   5.188   3.109   3.864 -0.5017 -0.5149 -0.5082
  126MOL0     C16884   5.070   3.050   3.815  1.0065 -0.2637  0.7080
  126MOL0     C16885   4.943   3.145   3.814 -0.2511  0.1366  0.0433
  126MOL0     C16886   4.954   3.250   3.711  0.2202 -0.3132 -0.1426
  126MOL0     C16887   4.960   3.209   3.562 -0.0246 -0.4783  0.0594
  126MOL0     C16888   4.980   3.335   3.466 -0.4202 -0.3303  0.3988
  126MOL0     C16889   4.847   3.416   3.466  0.2043 -0.3621  0.0637
  126MOL0     C16890   4.860   3.546   3.390 -0.0432 -0.5906 -0.2427
  126MOL0     C16891   4.949   3.644   3.464  0.5492  0.9577 -0.0865
  126MOL0     N16892   4.958   3.784   3.409  0.2822  0.4731 -0.0671
  126MOL0     C16893   5.072   3.865   3.402 -0.0782  0.9085  0.6882
  126MOL0     C16894   5.043   3.972   3.328 -0.1881 -0.1950  0.3243
  126MOL0     C16895   5.130   4.084   3.286 -0.3607 -0.2750 -0.1252
  126MOL0     C16896   5.272   4.041   3.242 -0.1167  0.4189 -0.6350
  126MOL0     C16897   5.343   4.147   3.166 -1.2700  0.5351  0.0769
  126MOL0     C16898   5.471   4.102   3.092  0.3909  0.5221  0.5269
  126MOL0     O16899   5.566   4.080   3.190 -0.1069  0.0128 -0.5523
  126MOL0     C16900   5.705   4.063   3.162  0.1512 -1.0387 -0.5281
  126MOL0     C16901   5.798   4.063   3.264  0.3604 -1.0323 -0.4315
  126MOL0     C16902   5.927   4.045   3.228 -0.5397 -0.2440 -0.6964
  126MOL0     C16903   5.976   4.024   3.099  0.3026 -0.4164 -0.5629
  126MOL0     C16904   6.120   3.995   3.076 -0.2233  0.4889  0.1712
  126MOL0     O16905   6.189   3.922   3.168  0.0503  0.3485  0.1935
  126MOL0     C16906   6.314   3.874   3.128  0.4258  0.1675  0.7855
  126MOL0     C16907   6.321   3.764   3.036 -0.2201 -0.1992  0.9278
  126MOL0     C16908   6.448   3.713   2.995  0.1284  0.1729 -0.8064
  126MOL0     C16909   6.568   3.763   3.056  0.1066 -0.6058  0.7450
  126MOL0     O16910   6.696   3.721   3.039  0.1490 -0.9627 -0.3151
  126MOL0     C16911   6.712   3.609   2.953 -0.2426 -0.6977  0.5810
  126MOL0     C16912   6.860   3.588   2.920 -0.3818  0.2476 -0.1563
  126MOL0     C16913   6.923   3.704   2.858  0.5837  0.6561  0.1946
  126MOL0     C16914   7.065   3.674   2.806 -0.6063  0.0565  0.5364
  126MOL0     C16915   7.174   3.712   2.907 -0.2059 -0.5842 -0.2959
  126MOL0     C16916   7.198   3.600   3.011  0.2060  0.0169 -0.1244
  126MOL0     C16917   7.330   3.628   3.093 -0.0293 -1.5210  0.1373
  126MOL0     C16918   7.450   3.679   3.020  0.2551 -0.4176  0.7138
  126MOL0    Cl16919   7.595   3.697   3.129  0.2635 -0.1547  0.0538
  126MOL0     C16920   6.563   3.872   3.133  0.3596 -0.4806 -0.3541
  126MOL0     C16921   6.440   3.929   3.173 -0.0837  0.5638  0.1395
  126MOL0     O16922   6.161   4.027   2.962  0.6341  0.0333  0.5775
  126MOL0     C16923   5.888   4.037   2.996  0.2893  0.3212  0.1960
  126MOL0     C16924   5.751   4.059   3.025  0.4347  0.5772  0.4802
  126MOL0     N16925   4.912   3.955   3.284  0.3951 -0.3696  0.8556
  126MOL0     N16926   4.866   3.845   3.333 -0.1876 -0.2526 -0.7134
  126MOL0     C16927   5.422   3.112   3.884  0.7391  0.4606  0.4510
  126MOL0     C16928   5.554   3.050   3.864 -0.2026  0.0239  0.7020
  126MOL0     C16929   5.906   2.808   3.733 -0.4059 -0.0055  0.1488
  126MOL0     C16930   5.993   2.710   3.791 -0.2203 -0.6081  0.3755
  126MOL0     C16931   6.109   2.667   3.730  0.7110 -0.2874  0.8616
  126MOL0     C16932   6.141   2.713   3.599 -1.1278 -0.3742  0.6688
  126MOL0     O16933   6.261   2.686   3.537 -0.7840  0.7464  0.6506
  126MOL0     C16934   6.332   2.569   3.578 -0.0305  0.4551  0.6621
  126MOL0     C16935   6.437   2.543   3.473  0.0147  0.4639  0.1304
  126MOL0     C16936   6.548   2.640   3.503  0.0641 -0.8230 -0.4869
  126MOL0     C16937   6.669   2.634   3.411 -0.1415 -0.3620  0.9043
  126MOL0     C16938   6.768   2.735   3.458 -0.1557  0.0220  0.9147
  126MOL0     C16939   6.851   2.818   3.488 -0.1579 -0.1491 -0.3880
  126MOL0     C16940   6.055   2.801   3.536  0.1040  0.8930  0.1575
  126MOL0     C16941   5.938   2.856   3.601  0.0438 -0.4954 -0.3976
  126MOL0     C16942   5.865   2.958   3.525  0.7365  0.2524 -0.5180
  126MOL0     H16943   5.444   2.767   3.722 -0.1609 -0.2140  0.1079
  126MOL0     H16944   5.222   2.853   3.776 -1.0578  0.8150  0.3208
  126MOL0     H16945   5.088   3.014   3.714 -3.5310 -0.9472 -0.1065
  126MOL0     H16946   5.048   2.959   3.872  1.9743 -0.9444  0.0218
  126MOL0     H16947   4.935   3.189   3.914  3.4638 -0.8430  0.9391
  126MOL0     H16948   4.857   3.078   3.802  0.2003 -0.1664 -1.6797
  126MOL0     H16949   5.042   3.309   3.737 -0.3046  0.4304 -0.0338
  126MOL0     H16950   4.860   3.304   3.721  0.0784 -0.2022 -1.8192
  126MOL0     H16951   5.037   3.136   3.536  0.8698  0.9367 -1.4866
  126MOL0     H16952   4.863   3.167   3.532  0.4220 -0.2899 -1.7874
  126MOL0     H16953   5.065   3.390   3.506 -0.5987 -1.9552  3.3198
  126MOL0     H16954   5.011   3.305   3.366 -0.9855 -0.0052  0.1185
  126MOL0     H16955   4.760   3.356   3.435 -2.2040  3.4336 -1.2217
  126MOL0     H16956   4.834   3.450   3.569  1.9319  2.2220 -0.4788
  126MOL0     H16957   4.759   3.589   3.385  0.0144 -0.3516  0.5426
  126MOL0     H16958   4.900   3.531   3.289 -0.5817  0.2077 -0.5817
  126MOL0     H16959   4.917   3.647   3.568 -1.8128 -0.7264 -0.6946
  126MOL0     H16960   5.049   3.597   3.462  0.0744 -0.0811 -1.1610
  126MOL0     H16961   5.171   3.840   3.438 -1.5850 -3.0542  2.7060
  126MOL0     H16962   5.073   4.137   3.209 -2.4774 -0.0260  1.5253
  126MOL0     H16963   5.148   4.161   3.362 -0.0928 -1.7051  1.3154
  126MOL0     H16964   5.332   4.026   3.332 -1.5573  0.5170  0.3727
  126MOL0     H16965   5.262   3.948   3.185  1.4807 -0.7334  0.8418
  126MOL0     H16966   5.378   4.224   3.235 -1.5237  0.8915 -0.1899
  126MOL0     H16967   5.277   4.201   3.097  1.4144  3.5914 -0.3430
  126MOL0     H16968   5.519   4.189   3.045  0.5861 -0.8174 -1.9291
  126MOL0     H16969   5.450   4.015   3.029  0.8980  1.4170 -0.9285
  126MOL0     H16970   5.775   4.086   3.368  1.8751 -0.2589 -0.2394
  126MOL0     H16971   5.994   4.065   3.312 -0.5199  0.0933 -0.7879
  126MOL0     H16972   6.230   3.723   2.994  0.5549  1.7246 -3.1359
  126MOL0     H16973   6.460   3.638   2.916  0.1125 -0.5242 -0.1593
  126MOL0     H16974   6.674   3.517   3.000 -2.3347 -0.8867 -1.3005
  126MOL0     H16975   6.672   3.630   2.853  1.6679  2.1077  0.2851
  126MOL0     H16976   6.912   3.553   3.009 -1.7419 -1.5228 -0.0042
  126MOL0     H16977   6.859   3.497   2.859 -0.0861 -0.6000  1.0647
  126MOL0     H16978   6.871   3.722   2.763 -1.2071  2.7451  1.4788
  126MOL0     H16979   6.919   3.796   2.917 -1.6390  0.2780  0.7461
  126MOL0     H16980   7.084   3.715   2.706  0.8932 -0.5169  0.5671
  126MOL0     H16981   7.076   3.569   2.778  1.0481  0.1094  0.8981
  126MOL0     H16982   7.157   3.805   2.962  1.6871 -0.5143  0.2338
  126MOL0     H16983   7.264   3.722   2.847 -1.4779 -0.8527 -2.3352
  126MOL0     H16984   7.114   3.602   3.081 -1.6284 -1.2398 -2.1653
  126MOL0     H16985   7.197   3.504   2.958 -3.4758  0.0258 -0.3605
  126MOL0     H16986   7.363   3.536   3.142  2.4462  0.2513  2.0526
  126MOL0     H16987   7.304   3.703   3.168 -0.8276  0.8213 -2.3239
  126MOL0     H16988   7.464   3.601   2.945 -0.1819  1.8485 -1.8898
  126MOL0     H16989   7.424   3.775   2.973 -0.7173  0.6465  3.2300
  126MOL0     H16990   6.656   3.907   3.176  1.3893 -1.4013 -1.7431
  126MOL0     H16991   6.453   4.010   3.244  1.7458  1.5170 -1.1982
  126MOL0     H16992   5.919   4.032   2.892 -0.5635 -1.4709 -0.0174
  126MOL0     H16993   5.673   4.052   2.950 -1.4438 -0.3173  2.4220
  126MOL0     H16994   5.411   3.218   3.905 -0.1118 -0.0302  2.7623
  126MOL0     H16995   5.645   3.104   3.887  2.5797 -4.0657  0.5010
  126MOL0     H16996   5.967   2.662   3.885  0.5611  1.3541  1.6597
  126MOL0     H16997   6.165   2.595   3.787  2.0275 -1.7467 -2.0317
  126MOL0     H16998   6.265   2.482   3.576  1.2188 -0.5505 -2.0577
  126MOL0     H16999   6.374   2.587   3.677 -0.5025  1.3831  0.6984
  126MOL0     H17000   6.397   2.554   3.372  1.7428  1.1156 -0.5058
  126MOL0     H17001   6.478   2.443   3.485 -0.8838  0.2706  1.9446
  126MOL0     H17002   6.587   2.633   3.604 -0.8148  3.8487  0.3965
  126MOL0     H17003   6.510   2.743   3.500 -1.0535 -1.1635  1.0529
  126MOL0     H17004   6.716   2.536   3.399  1.0327  0.1347  1.3531
  126MOL0     H17005   6.637   2.657   3.309  1.8171 -3.5073 -0.5865
  126MOL0     H17006   6.932   2.883   3.515  2.1986 -1.8762 -2.7715
  126MOL0     H17007   6.078   2.831   3.435  3.7820 -0.4433  0.4594
  126MOL0     H17008   5.928   3.043   3.500  0.2399  0.9494  0.5381
  126MOL0     H17009   5.833   2.911   3.431 -0.8342  0.4969 -0.1383
  126MOL0     H17010   5.771   2.992   3.569  0.7158 -0.6338  0.1704
  127MOL0     O17011   4.537   4.097   0.582 -0.4986 -0.5323 -0.0288
  127MOL0     C17012   4.495   4.017   0.667 -0.0220 -0.6155  0.3353
  127MOL0     O17013   4.571   3.944   0.757 -0.0711  0.6562 -0.0083
  127MOL0     C17014   4.708   3.939   0.755 -0.1974  0.6619  0.3176
  127MOL0     C17015   4.790   3.958   0.639  0.4954 -0.6033 -0.0744
  127MOL0     C17016   4.930   3.946   0.641  0.8792  0.0917 -0.4756
  127MOL0     C17017   4.992   3.896   0.760 -0.0788 -0.7551 -0.8569
  127MOL0     O17018   5.127   3.881   0.777 -1.1893 -0.4562 -0.0662
  127MOL0     C17019   5.214   3.934   0.675  0.1560  0.1676 -0.0573
  127MOL0     C17020   5.362   3.933   0.710  0.6372 -1.2322 -0.8870
  127MOL0     C17021   5.421   3.789   0.739  0.6499  0.1757  0.3597
  127MOL0     C17022   5.434   3.696   0.613 -0.0327  0.2024 -0.3544
  127MOL0     C17023   5.445   3.550   0.658  0.0801  0.1573 -0.8990
  127MOL0     C17024   5.579   3.509   0.718  0.0281 -0.2828  0.0259
  127MOL0     C17025   5.601   3.359   0.696  0.2433  0.3534 -0.4650
  127MOL0     C17026   5.728   3.307   0.770  0.0215 -0.0576 -0.2944
  127MOL0     N17027   5.855   3.378   0.736  0.0763  0.1069  0.6483
  127MOL0     C17028   5.919   3.376   0.607  0.3969  0.1111 -0.5946
  127MOL0     C17029   6.032   3.445   0.629 -0.1921 -0.8453 -0.1047
  127MOL0     C17030   6.132   3.496   0.539 -0.2269 -0.0287  0.2046
  127MOL0     C17031   6.144   3.650   0.527 -0.8189 -0.4828  0.5011
  127MOL0     C17032   6.210   3.693   0.403  0.4034 -0.1264 -0.1184
  127MOL0     C17033   6.362   3.663   0.398  0.4315 -0.8667  1.1978
  127MOL0     O17034   6.409   3.644   0.260 -0.0571 -0.0072 -0.4889
  127MOL0     C17035   6.539   3.654   0.228 -0.2420  0.7361  0.4387
  127MOL0     C17036   6.572   3.651   0.091 -0.0860  0.3346 -0.6788
  127MOL0     C17037   6.705   3.668   0.056  0.5063 -0.8581 -0.5624
  127MOL0     C17038   6.806   3.686   0.148 -0.0781 -0.5115 -0.0103
  127MOL0     C17039   6.949   3.718   0.108 -0.5975  1.3067 -0.5136
  127MOL0     O17040   7.050   3.704   0.206  0.0860  0.7761 -0.4909
  127MOL0     C17041   7.190   3.698   0.187  0.3591 -0.3768 -1.0123
  127MOL0     C17042   7.271   3.695   0.302  0.5197  0.3978 -0.7572
  127MOL0     C17043   7.405   3.717   0.300 -0.7513 -0.2943 -0.2628
  127MOL0     C17044   7.466   3.712   0.182 -0.0102  0.2302  0.2001
  127MOL0     O17045   7.601   3.710   0.188 -0.0929  0.3471  0.0382
  127MOL0     C17046   7.676   3.807   0.110 -0.7847  0.2172  1.2786
  127MOL0     C17047   7.814   3.819   0.178 -0.8589  1.2177 -0.1950
  127MOL0     C17048   7.930   3.860   0.093 -0.2160 -0.3203 -0.5774
  127MOL0     C17049   8.050   3.860   0.177  0.5321 -0.5198  0.0460
  127MOL0     C17050   8.158   3.957   0.119  0.0726 -0.4798 -0.0578
  127MOL0     C17051   8.268   3.982   0.219  0.2786  0.5023  0.2734
  127MOL0     C17052   8.367   4.091   0.163  0.4424  0.2426 -0.1460
  127MOL0     C17053   8.492   4.101   0.251  0.3804 -0.1824 -0.5108
  127MOL0    Cl17054   8.577   3.937   0.245 -0.0352 -0.0550  0.2691
  127MOL0     C17055   7.404   3.715   0.056 -0.0987 -0.0911 -0.2534
  127MOL0     C17056   7.261   3.707   0.058  0.3185  0.1311 -0.1362
  127MOL0     O17057   6.963   3.752  -0.011  0.1629 -0.0320  0.0757
  127MOL0     C17058   6.776   3.681   0.282  0.0923  0.3483 -0.0161
  127MOL0     C17059   6.646   3.666   0.320  0.7355  0.6626  0.5495
  127MOL0     N17060   6.038   3.485   0.761  0.5892  0.1588 -0.5106
  127MOL0     N17061   5.940   3.428   0.828 -0.2820 -0.6078  0.1770
  127MOL0     C17062   4.912   3.877   0.873  0.5420 -0.6533 -0.6732
  127MOL0     C17063   4.774   3.894   0.866  0.0458 -0.0840 -0.7773
  127MOL0     C17064   4.355   3.980   0.656  0.4812 -0.0416  0.4068
  127MOL0     C17065   4.317   3.852   0.714  0.4884 -0.5123  0.2903
  127MOL0     C17066   4.185   3.804   0.712  0.5121 -0.3602 -0.7087
  127MOL0     C17067   4.092   3.873   0.637  0.2144 -0.5150 -0.0590
  127MOL0     O17068   3.969   3.817   0.631 -0.4049  0.3552  0.1543
  127MOL0     C17069   3.919   3.810   0.499 -0.1137 -0.4315  0.6255
  127MOL0     C17070   3.809   3.911   0.481  0.8429 -0.1108 -0.5255
  127MOL0     C17071   3.745   3.920   0.338  0.2462 -0.2072 -1.2728
  127MOL0     C17072   3.647   4.036   0.315 -0.1264 -0.5658  0.0827
  127MOL0     C17073   3.722   4.165   0.309  0.4118  0.0481 -0.4357
  127MOL0     C17074   3.787   4.259   0.290 -0.2483 -0.8424 -0.3614
  127MOL0     C17075   4.119   3.995   0.584 -0.4968 -0.5562  1.1031
  127MOL0     C17076   4.253   4.050   0.591 -0.6275  0.3197 -0.3609
  127MOL0     C17077   4.282   4.173   0.517  0.0300 -0.2064  0.3584
  127MOL0     H17078   4.738   3.995   0.551 -1.0171  2.9158  2.0923
  127MOL0     H17079   4.990   3.980   0.556  0.8788  2.9273  0.5657
  127MOL0     H17080   5.194   3.874   0.586  0.4221  2.2075 -1.5842
  127MOL0     H17081   5.168   4.033   0.663 -2.4882 -1.1541 -1.8267
  127MOL0     H17082   5.374   3.994   0.800 -1.3516 -0.6055 -0.9925
  127MOL0     H17083   5.414   3.993   0.635  1.9194  1.5090  1.9601
  127MOL0     H17084   5.359   3.746   0.819  0.7639  0.5378  0.6463
  127MOL0     H17085   5.507   3.804   0.804  0.3200 -1.5838  1.2653
  127MOL0     H17086   5.357   3.721   0.540 -1.7608 -0.4238  1.2026
  127MOL0     H17087   5.530   3.721   0.567 -1.3087  2.0520 -2.1843
  127MOL0     H17088   5.370   3.530   0.734 -0.5336 -3.2779 -2.2104
  127MOL0     H17089   5.427   3.488   0.570  0.0190  0.5079 -1.1369
  127MOL0     H17090   5.651   3.575   0.669  0.3943 -0.9603 -0.3656
  127MOL0     H17091   5.586   3.535   0.824  1.6832  0.7341 -0.3055
  127MOL0     H17092   5.610   3.347   0.587  0.8686 -2.2352 -0.2072
  127MOL0     H17093   5.510   3.306   0.724  1.2955 -0.2869  1.9709
  127MOL0     H17094   5.715   3.319   0.877 -3.5922  1.6875 -0.7863
  127MOL0     H17095   5.741   3.203   0.740  0.7688  0.2827 -1.2228
  127MOL0     H17096   5.888   3.325   0.516  0.6461  0.1641 -0.7083
  127MOL0     H17097   6.228   3.453   0.570 -0.4027 -0.6159 -0.0541
  127MOL0     H17098   6.109   3.460   0.438  0.6446  2.7553 -1.0946
  127MOL0     H17099   6.044   3.694   0.530  0.0649  1.5798  1.6371
  127MOL0     H17100   6.197   3.694   0.612 -4.1533  1.1959  1.9222
  127MOL0     H17101   6.177   3.796   0.388 -0.5480 -0.4500 -0.3398
  127MOL0     H17102   6.170   3.636   0.318 -1.2414 -2.3060  1.9909
  127MOL0     H17103   6.387   3.571   0.452 -2.5287 -0.7319  3.0428
  127MOL0     H17104   6.418   3.747   0.441  0.7272  0.8380 -2.2015
  127MOL0     H17105   6.492   3.628   0.022  0.5307 -1.9229 -0.7141
  127MOL0     H17106   6.733   3.665  -0.048 -0.2534  2.4455 -0.9606
  127MOL0     H17107   7.207   3.706   0.389 -0.7671  0.6192 -1.7051
  127MOL0     H17108   7.466   3.731   0.389 -0.2480  3.2384 -1.0280
  127MOL0     H17109   7.684   3.779   0.005  0.5239 -1.5168  1.7920
  127MOL0     H17110   7.620   3.901   0.117 -1.4971 -0.0197 -0.6835
  127MOL0     H17111   7.806   3.886   0.265  0.3354 -1.5538  2.2228
  127MOL0     H17112   7.842   3.721   0.217 -0.0474 -0.0760 -3.7245
  127MOL0     H17113   7.943   3.793   0.008 -0.0792  2.1380 -2.6109
  127MOL0     H17114   7.914   3.964   0.063  1.9543  0.4343  0.6747
  127MOL0     H17115   8.093   3.760   0.188 -1.3705 -1.2926  1.0267
  127MOL0     H17116   8.027   3.897   0.277  2.8097  1.0115  0.0743
  127MOL0     H17117   8.109   4.050   0.087  1.1890 -1.1076 -4.2550
  127MOL0     H17118   8.202   3.911   0.029  0.8777 -2.1857  1.1583
  127MOL0     H17119   8.230   4.021   0.314  1.7142  0.5495  0.8637
  127MOL0     H17120   8.323   3.890   0.239 -0.0649  0.1339 -0.4519
  127MOL0     H17121   8.313   4.186   0.170 -0.9219 -0.4366 -1.1235
  127MOL0     H17122   8.386   4.071   0.058  0.7487  0.2593 -0.0949
  127MOL0     H17123   8.552   4.186   0.218  1.5557 -0.7334  0.1381
  127MOL0     H17124   8.458   4.127   0.352  0.0788  1.3170 -0.9760
  127MOL0     H17125   7.455   3.723  -0.040 -3.1706  0.4363 -1.9758
  127MOL0     H17126   7.212   3.698  -0.039  1.2320  1.5305 -0.7508
  127MOL0     H17127   6.846   3.699   0.363  2.2332 -2.0953 -1.1953
  127MOL0     H17128   6.621   3.675   0.425  0.7674 -1.4682  0.7720
  127MOL0     H17129   4.967   3.846   0.961  1.6843  1.3333 -0.6362
  127MOL0     H17130   4.718   3.859   0.952  1.6835 -2.8334 -0.6849
  127MOL0     H17131   4.392   3.795   0.767  1.2142  0.3051  0.1693
  127MOL0     H17132   4.158   3.712   0.764  1.1752  0.4207  1.0677
  127MOL0     H17133   3.873   3.711   0.498  0.1341 -0.6107  2.3392
  127MOL0     H17134   3.995   3.816   0.422 -0.4279  0.3963  0.3598
  127MOL0     H17135   3.835   4.009   0.523 -1.1585  0.4182 -0.4104
  127MOL0     H17136   3.719   3.882   0.537  0.3545 -0.9294 -1.7072
  127MOL0     H17137   3.694   3.831   0.299  0.8202 -0.4117 -1.5601
  127MOL0     H17138   3.828   3.942   0.271  0.3997  3.4777 -0.1216
  127MOL0     H17139   3.585   4.032   0.225  0.7716  3.3633 -0.8976
  127MOL0     H17140   3.577   4.034   0.400  0.8679  1.8609  1.0663
  127MOL0     H17141   3.843   4.348   0.266 -0.7150 -0.4463 -0.0133
  127MOL0     H17142   4.039   4.048   0.534  1.9355  3.9021  1.3930
  127MOL0     H17143   4.354   4.147   0.439 -0.5549  0.5686 -0.4631
  127MOL0     H17144   4.196   4.221   0.468 -0.0728 -0.6530  0.0963
  127MOL0     H17145   4.329   4.251   0.578  1.2511  0.8839 -1.8434
  128MOL0     O17146   7.756   1.754   3.168 -0.5442  0.3254 -0.6396
  128MOL0     C17147   7.724   1.853   3.222 -0.1543 -0.7778 -0.2797
  128MOL0     O17148   7.795   1.971   3.223 -0.1468 -0.0158  0.1585
  128MOL0     C17149   7.911   1.961   3.153  0.5757  0.4926 -0.1778
  128MOL0     C17150   8.031   1.981   3.226  0.1111  0.3114  0.1151
  128MOL0     C17151   8.150   1.951   3.172  0.6052  0.2571  1.3030
  128MOL0     C17152   8.169   1.933   3.036 -1.1363 -0.4524 -0.4019
  128MOL0     O17153   8.302   1.926   2.983  0.0663  0.5164  0.2865
  128MOL0     C17154   8.413   1.910   3.073 -0.8021 -0.1961 -0.0263
  128MOL0     C17155   8.538   1.912   2.989  1.3431  0.3285  0.3228
  128MOL0     C17156   8.667   1.911   3.071  0.3029 -0.2196 -0.3850
  128MOL0     C17157   8.781   1.922   2.969  0.2616  1.1495  0.0067
  128MOL0     C17158   8.914   1.928   3.046  0.0335 -0.9755  0.6093
  128MOL0     C17159   9.028   1.892   2.942  0.4291 -0.1914 -0.8278
  128MOL0     C17160   9.164   1.879   3.013  0.1833  0.0104 -0.4316
  128MOL0     C17161   9.171   1.753   3.101 -0.3947 -0.4339  0.5949
  128MOL0     N17162   9.313   1.721   3.141  0.3868  0.3729 -0.1621
  128MOL0     C17163   9.359   1.709   3.271  0.0100  0.5231 -0.3895
  128MOL0     C17164   9.487   1.672   3.257  0.7561 -0.6503  0.5046
  128MOL0     C17165   9.575   1.645   3.375 -0.0341  0.7557  0.1270
  128MOL0     C17166   9.659   1.518   3.365  0.1782 -0.7710  0.7156
  128MOL0     C17167   9.734   1.483   3.499  0.6066 -0.5494  1.2388
  128MOL0     C17168   9.816   1.357   3.474 -0.1261  0.1145 -0.3978
  128MOL0     O17169   9.870   1.324   3.606  0.0213 -0.2260  0.8061
  128MOL0     C17170  10.008   1.341   3.635  0.3523 -0.4026  0.5962
  128MOL0     C17171  10.081   1.235   3.685 -0.1978 -1.1910 -0.9411
  128MOL0     C17172  10.225   1.243   3.697 -0.4424  0.3331  0.3422
  128MOL0     C17173  10.299   1.351   3.630  0.4890  0.8427 -0.9238
  128MOL0     C17174  10.448   1.354   3.630  0.0394 -0.4471  0.4903
  128MOL0     O17175  10.508   1.230   3.656  0.0459  0.2947 -0.0669
  128MOL0     C17176  10.638   1.219   3.617  0.6393  0.7172  0.6969
  128MOL0     C17177  10.671   1.192   3.485 -0.5012  1.1082 -0.2903
  128MOL0     C17178  10.813   1.182   3.456 -0.3994  0.2549 -0.6291
  128MOL0     C17179  10.910   1.196   3.553 -0.0920 -0.5248 -0.1256
  128MOL0     O17180  11.035   1.206   3.509 -0.0423  0.2025 -0.3194
  128MOL0     C17181  11.131   1.282   3.584  0.1116 -0.0693 -0.0522
  128MOL0     C17182  11.254   1.316   3.496  0.1408 -0.0743  0.3683
  128MOL0     C17183  11.332   1.201   3.427  0.5175 -1.2856 -0.2125
  128MOL0     C17184  11.464   1.256   3.354  0.1406  0.1191  0.3775
  128MOL0     C17185  11.522   1.153   3.274 -0.1384 -0.7060  0.4109
  128MOL0     C17186  11.659   1.184   3.219  0.5613 -0.0058  0.1059
  128MOL0     C17187  11.719   1.076   3.123  0.5876  0.9839  0.4732
  128MOL0     C17188  11.805   1.149   3.021  0.1354  0.1141  0.1610
  128MOL0    Cl17189  11.957   1.191   3.099 -0.4705 -0.0579 -0.1587
  128MOL0     C17190  10.873   1.224   3.681  0.3603  0.0491 -0.5218
  128MOL0     C17191  10.735   1.231   3.711 -0.6901 -0.8326  0.2941
  128MOL0     O17192  10.500   1.452   3.577  0.3310  0.2223 -0.6393
  128MOL0     C17193  10.221   1.454   3.578 -0.3833 -0.2084  0.2426
  128MOL0     C17194  10.087   1.448   3.591  0.1221  0.9066 -0.1413
  128MOL0     N17195   9.520   1.658   3.121 -0.3925  0.2128 -0.0519
  128MOL0     N17196   9.412   1.682   3.059 -0.0058 -0.1861  0.0676
  128MOL0     C17197   8.052   1.936   2.960  0.7462 -0.0134  0.0106
  128MOL0     C17198   7.926   1.949   3.017 -0.2912  0.6435  0.1912
  128MOL0     C17199   7.608   1.848   3.309  1.1091  0.7175 -0.7772
  128MOL0     C17200   7.510   1.751   3.294 -0.4342 -0.4540  0.4699
  128MOL0     C17201   7.391   1.764   3.359 -0.3690 -0.2020 -0.1253
  128MOL0     C17202   7.363   1.854   3.458  0.2367 -0.4884 -0.5336
  128MOL0     O17203   7.235   1.871   3.521  0.4754  0.3505  0.5173
  128MOL0     C17204   7.193   1.769   3.603  0.2448 -0.1716 -0.4582
  128MOL0     C17205   7.217   1.819   3.749 -0.5464  0.1156  0.2449
  128MOL0     C17206   7.101   1.916   3.799 -0.1291  1.3474 -0.4625
  128MOL0     C17207   7.137   1.996   3.914  0.1664 -0.2562 -0.0574
  128MOL0     C17208   7.029   2.094   3.913 -0.1677  0.4040 -0.0389
  128MOL0     C17209   6.929   2.164   3.893  0.1255 -0.6244  0.3741
  128MOL0     C17210   7.467   1.944   3.485  0.7564 -0.4527  0.3752
  128MOL0     C17211   7.590   1.948   3.408 -0.1356 -0.0968 -0.3619
  128MOL0     C17212   7.688   2.050   3.458 -0.2225  0.0866 -0.4523
  128MOL0     H17213   8.015   1.998   3.332  1.5309 -0.7685  0.5288
  128MOL0     H17214   8.231   1.975   3.240  2.5071  1.1371 -1.1308
  128MOL0     H17215   8.412   2.002   3.132  1.0551 -0.5389  0.5811
  128MOL0     H17216   8.413   1.819   3.133  2.4364  0.5328  1.2644
  128MOL0     H17217   8.535   1.992   2.915  2.2912 -1.7750 -2.1474
  128MOL0     H17218   8.541   1.817   2.934  2.0273  0.1331  0.6887
  128MOL0     H17219   8.661   1.814   3.122 -0.5671 -1.1942 -2.2199
  128MOL0     H17220   8.688   1.992   3.141 -1.8612  0.0987 -0.0186
  128MOL0     H17221   8.766   1.829   2.913 -3.2163 -1.6468  4.7916
  128MOL0     H17222   8.767   2.016   2.914 -3.1566  2.6318  2.9313
  128MOL0     H17223   8.938   2.025   3.091  3.0319 -0.2828 -2.0997
  128MOL0     H17224   8.911   1.857   3.129 -1.1094 -0.7394  0.7914
  128MOL0     H17225   9.003   1.803   2.885  1.4310  0.0425 -1.6513
  128MOL0     H17226   9.029   1.973   2.869  0.1656 -2.1414 -3.1052
  128MOL0     H17227   9.188   1.968   3.072  0.4976 -0.3112 -0.0691
  128MOL0     H17228   9.232   1.872   2.928 -1.0732 -2.7461 -1.3422
  128MOL0     H17229   9.109   1.763   3.191 -1.1983 -0.6307  0.0672
  128MOL0     H17230   9.125   1.674   3.043 -0.5950  0.1802 -0.0902
  128MOL0     H17231   9.313   1.700   3.370  1.8369  2.0298  0.6619
  128MOL0     H17232   9.656   1.717   3.392  1.0525  0.2800 -2.5575
  128MOL0     H17233   9.511   1.630   3.462  0.0415 -3.0536 -0.3348
  128MOL0     H17234   9.600   1.426   3.351 -0.8667 -0.2135  1.3331
  128MOL0     H17235   9.733   1.538   3.287 -0.3282  0.2491  0.4780
  128MOL0     H17236   9.653   1.466   3.571 -2.8034  1.5359 -1.7563
  128MOL0     H17237   9.806   1.562   3.519  0.0296  0.7241 -1.3270
  128MOL0     H17238   9.893   1.388   3.402  2.1701  0.8946  2.1911
  128MOL0     H17239   9.768   1.266   3.437 -0.9408 -1.1656  3.3899
  128MOL0     H17240  10.031   1.148   3.726  0.6641 -0.4562  1.9288
  128MOL0     H17241  10.277   1.156   3.734 -0.1950 -1.2623 -3.3166
  128MOL0     H17242  10.592   1.188   3.411 -0.5400  1.8882 -0.2974
  128MOL0     H17243  10.856   1.174   3.357  0.2003 -1.5518 -0.2593
  128MOL0     H17244  11.090   1.374   3.627  2.9980  0.3743  2.0248
  128MOL0     H17245  11.165   1.223   3.669  0.4586 -1.9933 -1.4507
  128MOL0     H17246  11.211   1.383   3.420 -1.6992 -0.4015  1.0567
  128MOL0     H17247  11.316   1.375   3.564 -1.2760 -0.2595  1.8898
  128MOL0     H17248  11.353   1.124   3.502 -0.3096 -1.4420 -0.1364
  128MOL0     H17249  11.270   1.164   3.345  0.9616  1.6254 -2.0021
  128MOL0     H17250  11.533   1.291   3.432 -0.4086 -1.4523  1.6188
  128MOL0     H17251  11.441   1.344   3.294  0.0923 -1.2170 -1.6412
  128MOL0     H17252  11.465   1.123   3.186 -1.3068  1.8372  0.2005
  128MOL0     H17253  11.534   1.067   3.340  0.1108 -0.7661  0.2889
  128MOL0     H17254  11.646   1.279   3.167 -2.0964 -1.1084 -1.4373
  128MOL0     H17255  11.736   1.198   3.296  0.8833 -0.0619 -0.2069
  128MOL0     H17256  11.645   1.019   3.068  0.9079 -1.9177  2.7841
  128MOL0     H17257  11.776   0.999   3.176  0.4032  1.6075  1.6307
  128MOL0     H17258  11.814   1.078   2.938 -0.7952  1.0206 -0.7562
  128MOL0     H17259  11.758   1.241   2.986  0.1889  0.8235  1.8579
  128MOL0     H17260  10.934   1.219   3.770  0.3110 -0.9097 -0.5340
  128MOL0     H17261  10.693   1.260   3.807  0.3859  1.9343  0.0166
  128MOL0     H17262  10.264   1.545   3.536 -1.4122  0.7101  1.1134
  128MOL0     H17263  10.028   1.538   3.580  0.3141  0.7966 -2.4996
  128MOL0     H17264   8.059   1.925   2.852 -1.3207  2.3297 -0.4691
  128MOL0     H17265   7.836   1.936   2.957  0.5848 -0.4097 -0.9445
  128MOL0     H17266   7.524   1.692   3.204  2.0859 -0.9624  1.1193
  128MOL0     H17267   7.325   1.682   3.336 -0.8435 -0.7105  2.6788
  128MOL0     H17268   7.250   1.676   3.595 -0.3706 -0.4538 -2.0263
  128MOL0     H17269   7.094   1.738   3.569  0.0961 -5.2723  3.4783
  128MOL0     H17270   7.317   1.865   3.743 -1.1948  1.4666 -3.3818
  128MOL0     H17271   7.207   1.734   3.816 -2.7481  1.1828  1.3946
  128MOL0     H17272   7.031   1.844   3.841  0.4987 -0.0351 -1.6901
  128MOL0     H17273   7.055   1.959   3.709 -0.3118 -1.8138 -2.0082
  128MOL0     H17274   7.135   1.938   4.007  1.0981  0.8008  0.6398
  128MOL0     H17275   7.235   2.044   3.912  0.2065 -0.3199  0.2384
  128MOL0     H17276   6.838   2.220   3.879 -1.2753 -2.6713  0.7249
  128MOL0     H17277   7.441   2.025   3.552 -0.7138 -1.1686  0.7180
  128MOL0     H17278   7.668   2.087   3.559  0.6535 -0.1315 -0.1918
  128MOL0     H17279   7.786   2.002   3.463 -0.2059  0.0047 -1.4114
  128MOL0     H17280   7.692   2.134   3.388 -0.7135 -1.6529 -2.6457
  129MOL0     O17281   6.672   0.295  10.164  1.1179  0.1436  0.4235
  129MOL0     C17282   6.724   0.212  10.227 -0.0759  0.2115  0.6639
  129MOL0     O17283   6.852   0.210  10.256  0.5524  0.0365 -0.0515
  129MOL0     C17284   6.935   0.314  10.223 -0.1389  0.3397 -0.3756
  129MOL0     C17285   6.909   0.447  10.188 -1.8448 -0.0472  0.2796
  129MOL0     C17286   7.017   0.536  10.168  0.0745  0.1949  0.5230
  129MOL0     C17287   7.149   0.493  10.172  0.2761 -1.0175 -0.3206
  129MOL0     O17288   7.256   0.572  10.151  0.5421 -0.9401  0.3052
  129MOL0     C17289   7.238   0.712  10.179  0.8720  0.4508 -0.4467
  129MOL0     C17290   7.372   0.770  10.208 -0.4662  0.3951 -0.0001
  129MOL0     C17291   7.449   0.768  10.076 -0.7091 -0.6028 -0.0204
  129MOL0     C17292   7.592   0.817  10.092  0.6657 -0.6952  0.1864
  129MOL0     C17293   7.666   0.832   9.962  0.5879  0.3685  0.5749
  129MOL0     C17294   7.790   0.935   9.965  0.9849 -0.0103 -0.1946
  129MOL0     C17295   7.915   0.876  10.049 -0.2180 -0.0839  0.7894
  129MOL0     C17296   8.013   0.989  10.080 -0.0412 -0.2235  0.1297
  129MOL0     N17297   8.068   1.046   9.957  0.0772  0.4214 -0.0815
  129MOL0     C17298   8.188   1.008   9.904 -0.0964 -0.8337  0.7447
  129MOL0     C17299   8.209   1.097   9.801 -0.1212 -0.5161 -0.1103
  129MOL0     C17300   8.334   1.118   9.716  0.5646  0.3020 -0.4274
  129MOL0     C17301   8.430   1.219   9.794  0.6345 -0.4587 -0.8444
  129MOL0     C17302   8.584   1.215   9.781  0.4981  0.5975  0.4601
  129MOL0     C17303   8.641   1.080   9.783  0.1868 -0.4698  0.4160
  129MOL0     O17304   8.641   1.014   9.659  0.2819 -0.1785  0.8860
  129MOL0     C17305   8.741   1.004   9.565  0.8262  1.0103 -0.5022
  129MOL0     C17306   8.698   0.939   9.449  0.1292  0.3837  0.5486
  129MOL0     C17307   8.788   0.919   9.338  0.9194 -0.5665  0.1439
  129MOL0     C17308   8.915   0.975   9.335  0.1382  0.7388  0.1615
  129MOL0     C17309   9.011   0.962   9.217 -0.1770 -0.1158  0.0402
  129MOL0     O17310   9.103   1.066   9.194 -0.3056 -0.7186 -0.7418
  129MOL0     C17311   9.191   1.065   9.087  0.5101  0.1316 -0.2405
  129MOL0     C17312   9.205   1.187   9.024  0.5076  0.2276  0.6043
  129MOL0     C17313   9.286   1.199   8.910 -0.5399 -1.0513 -0.5372
  129MOL0     C17314   9.373   1.092   8.872  0.0296  0.6257 -0.2515
  129MOL0     O17315   9.478   1.092   8.784  0.2631 -0.1608 -0.6003
  129MOL0     C17316   9.517   1.211   8.725 -0.5038  0.3500 -0.1323
  129MOL0     C17317   9.647   1.196   8.659  0.0290 -0.6689  0.2306
  129MOL0     C17318   9.691   1.343   8.613  0.2477  0.0307  0.1708
  129MOL0     C17319   9.798   1.332   8.505 -0.1761 -0.4460 -0.1548
  129MOL0     C17320   9.864   1.467   8.475  0.0007 -0.3254 -0.4193
  129MOL0     C17321   9.775   1.558   8.391  0.0449  0.0509 -0.2079
  129MOL0     C17322   9.837   1.691   8.374  0.6488 -0.1930  0.2018
  129MOL0     C17323   9.812   1.765   8.241  0.2741 -0.3682 -0.1092
  129MOL0    Cl17324   9.872   1.670   8.102  0.2619  0.0173  0.2062
  129MOL0     C17325   9.362   0.973   8.945 -0.5117 -0.8022 -0.7657
  129MOL0     C17326   9.272   0.958   9.047  0.4433 -1.1702 -0.7069
  129MOL0     O17327   8.985   0.873   9.139 -0.1694  0.5133 -0.1274
  129MOL0     C17328   8.946   1.048   9.453 -0.9473 -0.1768  0.0306
  129MOL0     C17329   8.869   1.053   9.579 -0.9704 -0.7490  0.7924
  129MOL0     N17330   8.097   1.182   9.795 -0.3197 -0.5006 -0.8506
  129MOL0     N17331   8.014   1.156   9.893  0.5574  0.1478  0.0614
  129MOL0     C17332   7.167   0.368  10.219 -0.2181  0.6857 -0.2320
  129MOL0     C17333   7.065   0.279  10.246 -0.0130  0.3636  0.0322
  129MOL0     C17334   6.653   0.074  10.239 -0.4206 -0.8370 -0.8323
  129MOL0     C17335   6.734  -0.039  10.245 -0.4150 -0.2815  0.3218
  129MOL0     C17336   6.676  -0.161  10.244 -0.5412 -0.0800 -0.3350
  129MOL0     C17337   6.542  -0.180  10.235  0.1693 -0.1699  0.4892
  129MOL0     O17338   6.478  -0.305  10.233  0.7579 -0.2256 -0.4872
  129MOL0     C17339   6.553  -0.428  10.225  0.8221 -1.1067  0.0268
  129MOL0     C17340   6.464  -0.558  10.260 -0.2223 -0.6058 -0.2338
  129MOL0     C17341   6.309  -0.551  10.223  0.1060 -0.2175 -0.0254
  129MOL0     C17342   6.217  -0.519  10.338  0.8919  0.1813 -0.8052
  129MOL0     C17343   6.072  -0.533  10.301 -1.2335 -0.2449  0.6940
  129MOL0     C17344   5.952  -0.549  10.282  0.3582  0.2701 -0.0027
  129MOL0     C17345   6.465  -0.065  10.227 -0.0301 -0.1102  0.2455
  129MOL0     C17346   6.518   0.061  10.248  0.5598 -0.7568  0.1026
  129MOL0     C17347   6.417   0.170  10.265  0.5758 -0.5443  0.3284
  129MOL0     H17348   6.805   0.477  10.179 -2.8566 -2.8800  1.4070
  129MOL0     H17349   6.990   0.634  10.130  1.3751 -0.8784 -3.7422
  129MOL0     H17350   7.178   0.768  10.106  0.7770  1.0664  0.0935
  129MOL0     H17351   7.178   0.728  10.269  0.9864  3.4401 -0.7944
  129MOL0     H17352   7.418   0.700  10.279  1.1360  1.2303 -0.1639
  129MOL0     H17353   7.374   0.868  10.258 -2.5405 -0.1051  1.1787
  129MOL0     H17354   7.396   0.822   9.997  0.4070 -0.8459 -0.9663
  129MOL0     H17355   7.456   0.663  10.047  1.5951  0.3240 -3.4838
  129MOL0     H17356   7.591   0.913  10.144  1.1041 -1.0392  0.8420
  129MOL0     H17357   7.646   0.749  10.159 -1.5963 -2.0475  0.7526
  129MOL0     H17358   7.702   0.732   9.938 -1.3219 -0.2898  0.2503
  129MOL0     H17359   7.587   0.869   9.895 -0.2385 -1.8903  0.1862
  129MOL0     H17360   7.815   0.973   9.866  3.0139  0.4617  0.4343
  129MOL0     H17361   7.751   1.025  10.014  0.9218  0.4968 -1.1616
  129MOL0     H17362   7.961   0.799   9.986  3.5942  1.9865  0.7181
  129MOL0     H17363   7.887   0.829  10.144 -2.6686 -0.3770 -0.0130
  129MOL0     H17364   7.950   1.067  10.124 -0.6967 -0.5754 -0.1594
  129MOL0     H17365   8.094   0.962  10.148 -0.3693  0.5690  0.8427
  129MOL0     H17366   8.259   0.930   9.932  1.2275  0.9214  2.5536
  129MOL0     H17367   8.380   1.022   9.694  1.6292  0.5256  0.7309
  129MOL0     H17368   8.298   1.165   9.624  1.1190 -0.3631 -0.9989
  129MOL0     H17369   8.396   1.318   9.763  0.7038 -0.3563 -0.5943
  129MOL0     H17370   8.405   1.213   9.900 -0.4698  1.1706 -0.9732
  129MOL0     H17371   8.625   1.272   9.865 -1.5390  0.5141  1.5670
  129MOL0     H17372   8.606   1.269   9.688 -1.6909 -0.3045 -0.6479
  129MOL0     H17373   8.589   1.017   9.854 -0.9831  0.3253  0.2892
  129MOL0     H17374   8.742   1.086   9.825  0.3554  0.0091 -0.0365
  129MOL0     H17375   8.603   0.888   9.433  0.7394 -0.8702  0.8219
  129MOL0     H17376   8.743   0.869   9.253  0.3078 -0.5981  0.4761
  129MOL0     H17377   9.139   1.265   9.059 -0.3573 -1.1817  2.2067
  129MOL0     H17378   9.286   1.292   8.854 -2.3239 -1.8025 -1.8584
  129MOL0     H17379   9.446   1.248   8.650  1.0349 -1.4464 -2.6136
  129MOL0     H17380   9.528   1.292   8.797  1.6629  0.8290 -0.9215
  129MOL0     H17381   9.724   1.160   8.728  2.3275  0.4804 -1.5657
  129MOL0     H17382   9.645   1.124   8.577  1.1699 -1.4491  0.8592
  129MOL0     H17383   9.611   1.407   8.576  1.1424  0.5754 -0.8755
  129MOL0     H17384   9.732   1.403   8.696 -0.3605  1.5293 -0.5702
  129MOL0     H17385   9.752   1.290   8.415  2.1640 -0.5016 -1.3955
  129MOL0     H17386   9.867   1.256   8.542  1.1184  0.2195 -1.1271
  129MOL0     H17387   9.965   1.458   8.434  0.7358  2.2231  0.6428
  129MOL0     H17388   9.882   1.511   8.573  0.8393  1.0553 -1.1532
  129MOL0     H17389   9.759   1.508   8.295 -1.7431  1.5873 -0.7760
  129MOL0     H17390   9.671   1.564   8.425 -0.0265 -0.0654 -0.4006
  129MOL0     H17391   9.944   1.693   8.397  0.5611  1.6781  0.5418
  129MOL0     H17392   9.793   1.747   8.457 -2.9387  0.9318 -2.2157
  129MOL0     H17393   9.703   1.772   8.234  0.2146 -0.4584  0.6370
  129MOL0     H17394   9.848   1.868   8.243  3.8182 -1.4954  1.2641
  129MOL0     H17395   9.439   0.897   8.932 -0.1136 -0.5467  0.0038
  129MOL0     H17396   9.270   0.864   9.101 -1.3435 -1.4629 -1.2194
  129MOL0     H17397   9.045   1.092   9.450  0.1657 -2.1622  2.8400
  129MOL0     H17398   8.906   1.112   9.661  0.7965  0.1745 -0.6236
  129MOL0     H17399   7.269   0.330  10.229 -0.2265  0.9191  0.8008
  129MOL0     H17400   7.087   0.180  10.285 -3.2021  1.1340  4.5213
  129MOL0     H17401   6.842  -0.025  10.240 -0.4984  0.0030 -2.2390
  129MOL0     H17402   6.749  -0.241  10.231 -2.2262 -1.8586  0.6089
  129MOL0     H17403   6.643  -0.425  10.287 -0.3247 -0.7293  1.7284
  129MOL0     H17404   6.583  -0.440  10.120  2.6780  1.2795  0.1999
  129MOL0     H17405   6.471  -0.580  10.367 -0.7715 -0.0760 -0.0827
  129MOL0     H17406   6.500  -0.645  10.204 -3.0053 -1.1341 -1.3625
  129MOL0     H17407   6.285  -0.652  10.190 -1.5277  0.3069 -0.5334
  129MOL0     H17408   6.291  -0.474  10.147  1.3907  0.1562  0.0351
  129MOL0     H17409   6.229  -0.593  10.418 -0.3625 -1.0776 -1.7452
  129MOL0     H17410   6.244  -0.419  10.372  1.4506 -0.5940  1.1538
  129MOL0     H17411   5.845  -0.541  10.270  0.2994  0.1295  0.4189
  129MOL0     H17412   6.363  -0.083  10.197  0.6447 -0.2432 -2.1661
  129MOL0     H17413   6.408   0.214  10.165  0.7304 -1.6360 -0.1748
  129MOL0     H17414   6.322   0.128  10.301 -0.0430 -0.7321 -1.4297
  129MOL0     H17415   6.450   0.247  10.335  3.3729  2.1246 -3.4809
  130MOL0     O17416   0.692   3.154  10.391 -0.5704 -0.1066 -0.9073
  130MOL0     C17417   0.643   3.128  10.284 -0.0719  0.7155  0.5376
  130MOL0     O17418   0.707   3.059  10.185  0.3475  0.9703 -0.3633
  130MOL0     C17419   0.811   2.984  10.228 -0.8025 -0.2730  1.0915
  130MOL0     C17420   0.941   3.006  10.171 -0.1042  0.1599  0.7747
  130MOL0     C17421   1.054   2.933  10.219 -0.3979 -0.0942  0.6788
  130MOL0     C17422   1.040   2.831  10.313 -0.1665 -0.7234  0.6282
  130MOL0     O17423   1.125   2.745  10.368 -0.4204 -0.0702  0.4508
  130MOL0     C17424   1.248   2.804  10.418 -0.6556  0.1817 -0.0575
  130MOL0     C17425   1.358   2.701  10.398 -0.3352 -0.3003 -0.5505
  130MOL0     C17426   1.455   2.687  10.517 -0.7106  0.3081  1.0747
  130MOL0     C17427   1.450   2.557  10.603  0.0650  1.2138 -0.3102
  130MOL0     C17428   1.338   2.552  10.703  0.2367 -0.0550 -0.2234
  130MOL0     C17429   1.198   2.528  10.644 -0.6531  0.1529  0.6729
  130MOL0     C17430   1.106   2.492  10.760  0.9520 -0.6867 -0.4993
  130MOL0     C17431   0.978   2.424  10.721 -0.0756  0.3253 -0.6690
  130MOL0     N17432   0.990   2.287  10.672 -0.3472  0.9337  0.3704
  130MOL0     C17433   1.007   2.172  10.746 -0.4406 -0.0834  0.0547
  130MOL0     C17434   0.995   2.078  10.646 -0.4182  0.2236  0.1866
  130MOL0     C17435   1.012   1.931  10.667 -0.7953  0.3062  1.0790
  130MOL0     C17436   0.893   1.838  10.622  0.1033  0.2915  0.4777
  130MOL0     C17437   0.788   1.861  10.731 -1.0619 -0.5250 -0.6569
  130MOL0     C17438   0.644   1.816  10.686  0.6658 -0.1541  0.8773
  130MOL0     O17439   0.557   1.890  10.771  0.2897 -0.3737 -0.0346
  130MOL0     C17440   0.421   1.864  10.767 -1.3342 -0.5014  0.0612
  130MOL0     C17441   0.352   1.887  10.890  0.6062  0.1644 -0.6110
  130MOL0     C17442   0.213   1.873  10.901  0.4077  0.1644  0.6866
  130MOL0     C17443   0.142   1.810  10.793  0.1259 -0.3571  1.0873
  130MOL0     C17444  -0.005   1.808  10.807  0.0098  0.1855  0.5433
  130MOL0     O17445  -0.066   1.834  10.926 -0.3418 -0.4189  0.0915
  130MOL0     C17446  -0.195   1.810  10.943  0.1579 -0.4481 -0.1278
  130MOL0     C17447  -0.233   1.696  11.017  0.7755 -0.3938  0.8749
  130MOL0     C17448  -0.362   1.671  11.048 -0.3510 -0.1165  0.5612
  130MOL0     C17449  -0.467   1.761  11.004 -1.1150  0.4098 -0.9770
  130MOL0     O17450  -0.598   1.751  11.044  0.5227 -0.0087  0.0396
  130MOL0     C17451  -0.672   1.631  11.018 -0.4637 -0.4353  0.1364
  130MOL0     C17452  -0.740   1.576  11.143 -0.3294  0.2523 -0.4289
  130MOL0     C17453  -0.789   1.433  11.131 -0.0110  0.4381  0.0396
  130MOL0     C17454  -0.909   1.424  11.040 -0.1453 -0.0325 -0.5470
  130MOL0     C17455  -0.937   1.275  10.992  0.4180 -0.5439 -0.5591
  130MOL0     C17456  -0.923   1.177  11.114  0.0623 -0.2747  0.6285
  130MOL0     C17457  -0.970   1.038  11.090 -0.1856 -0.9212 -0.0728
  130MOL0     C17458  -0.953   0.958  11.212 -0.0768 -0.0506  0.2872
  130MOL0    Cl17459  -0.789   0.904  11.234  0.2606  0.3352  0.2891
  130MOL0     C17460  -0.429   1.886  10.945 -0.2777 -0.1952  0.3024
  130MOL0     C17461  -0.292   1.907  10.912 -0.1267 -0.7890  0.3215
  130MOL0     O17462  -0.068   1.766  10.700  0.4746 -0.5454  0.0109
  130MOL0     C17463   0.217   1.758  10.683  0.0301  0.0189 -0.7237
  130MOL0     C17464   0.353   1.804  10.661  0.0447 -0.7259  0.7954
  130MOL0     N17465   0.978   2.137  10.522  0.3344 -0.1390  0.4590
  130MOL0     N17466   0.978   2.266  10.531 -0.5560 -0.4130  0.2892
  130MOL0     C17467   0.905   2.804  10.355 -0.1455  0.0939  0.3991
  130MOL0     C17468   0.790   2.871  10.314  0.0177 -0.0057 -0.3052
  130MOL0     C17469   0.499   3.159  10.269  0.1360 -0.1873 -0.2250
  130MOL0     C17470   0.436   3.150  10.139 -0.6327  0.1009 -0.9323
  130MOL0     C17471   0.304   3.188  10.114  0.5724  0.3585  0.6870
  130MOL0     C17472   0.228   3.233  10.220  0.2779 -0.8998  0.3475
  130MOL0     O17473   0.098   3.254  10.192  0.3977  0.4700 -0.4058
  130MOL0     C17474   0.017   3.341  10.267 -0.2543 -0.5050 -1.0369
  130MOL0     C17475   0.071   3.487  10.272  0.0646 -0.1525 -0.1271
  130MOL0     C17476   0.148   3.535  10.148  0.3653  0.1236  0.1441
  130MOL0     C17477   0.160   3.689  10.155  0.6087  0.1183  0.5045
  130MOL0     C17478   0.038   3.753  10.115  0.6102  0.3912  0.4675
  130MOL0     C17479  -0.059   3.818  10.081  0.5671 -0.5579  0.1829
  130MOL0     C17480   0.277   3.228  10.351 -0.1803 -0.1290 -0.2760
  130MOL0     C17481   0.406   3.190  10.373 -0.1494 -0.6364  0.6054
  130MOL0     C17482   0.447   3.183  10.518  0.7976  1.4074  0.3357
  130MOL0     H17483   0.950   3.086  10.098  1.4754 -0.8620 -0.2047
  130MOL0     H17484   1.150   2.954  10.173 -2.2366 -0.7095 -3.9121
  130MOL0     H17485   1.266   2.898  10.364 -0.0057  1.0426  1.6020
  130MOL0     H17486   1.253   2.827  10.524 -0.8376 -1.5989  0.3572
  130MOL0     H17487   1.410   2.721  10.304 -2.0920 -3.7001 -2.4048
  130MOL0     H17488   1.316   2.601  10.387  1.7951 -1.1333 -1.7097
  130MOL0     H17489   1.445   2.772  10.585  0.2535  0.1230  1.4494
  130MOL0     H17490   1.553   2.679  10.469 -1.0850 -1.0568  0.4929
  130MOL0     H17491   1.437   2.469  10.540 -1.0763  0.7053  0.6102
  130MOL0     H17492   1.542   2.537  10.659 -0.6568 -1.2835  0.0867
  130MOL0     H17493   1.358   2.470  10.771  1.6884  0.3560 -0.1221
  130MOL0     H17494   1.321   2.644  10.759 -0.3901  1.6410 -2.9697
  130MOL0     H17495   1.153   2.617  10.599  2.2911  2.8060  2.5705
  130MOL0     H17496   1.209   2.442  10.576  2.9796 -1.0062  2.4610
  130MOL0     H17497   1.078   2.586  10.807 -0.7947 -0.8879 -1.0802
  130MOL0     H17498   1.151   2.420  10.829 -1.0342  0.3293  2.0055
  130MOL0     H17499   0.913   2.417  10.809  0.6057  1.3279 -0.0739
  130MOL0     H17500   0.930   2.483  10.643  1.3784  1.8870 -0.4308
  130MOL0     H17501   1.038   2.160  10.850  2.5304 -1.4204 -0.8913
  130MOL0     H17502   1.098   1.903  10.606 -1.1793  0.2941  0.5335
  130MOL0     H17503   1.032   1.921  10.774  1.6382 -2.9463  0.4822
  130MOL0     H17504   0.850   1.852  10.522  2.4078 -2.0442 -0.9845
  130MOL0     H17505   0.924   1.734  10.621  1.2960  0.4713  4.2065
  130MOL0     H17506   0.779   1.966  10.759  0.3091 -1.2294  2.9293
  130MOL0     H17507   0.816   1.816  10.827 -1.2506 -0.0608 -0.3826
  130MOL0     H17508   0.631   1.708  10.677  1.8634 -0.3442  1.2458
  130MOL0     H17509   0.618   1.853  10.587  0.1080 -4.0321 -0.6013
  130MOL0     H17510   0.396   1.924  10.983 -2.6542  3.7088 -0.1939
  130MOL0     H17511   0.161   1.906  10.991 -1.2591  3.0500 -1.1923
  130MOL0     H17512  -0.152   1.625  11.034 -0.1272 -1.5694  0.4323
  130MOL0     H17513  -0.379   1.586  11.113  2.2403 -0.1170  1.3628
  130MOL0     H17514  -0.749   1.649  10.943 -1.1619  0.7682  1.0968
  130MOL0     H17515  -0.605   1.552  10.985  1.3208  1.4169 -0.9086
  130MOL0     H17516  -0.666   1.573  11.223 -1.5788 -0.6844  0.7316
  130MOL0     H17517  -0.818   1.641  11.182 -2.2645 -0.7803 -2.3520
  130MOL0     H17518  -0.701   1.372  11.109 -0.1594 -0.7775  2.4436
  130MOL0     H17519  -0.818   1.392  11.228  0.4423  1.9707  0.8563
  130MOL0     H17520  -0.894   1.483  10.949  2.7547 -0.7526 -0.6199
  130MOL0     H17521  -1.001   1.462  11.085  0.0071 -1.3080  0.9126
  130MOL0     H17522  -0.871   1.246  10.909 -3.2291  0.6554 -4.1964
  130MOL0     H17523  -1.037   1.269  10.949 -0.9508 -0.7819  2.4333
  130MOL0     H17524  -0.816   1.173  11.139  0.1887 -0.6010  0.0576
  130MOL0     H17525  -0.985   1.218  11.194  1.1211 -1.4340  2.1253
  130MOL0     H17526  -0.903   0.993  11.016  1.5380  0.2810  0.7002
  130MOL0     H17527  -1.071   1.042  11.048 -1.0944  0.2449  2.1079
  130MOL0     H17528  -1.005   0.999  11.299 -1.1716  0.5163 -0.6086
  130MOL0     H17529  -1.005   0.864  11.197  0.7164 -0.2859 -1.1238
  130MOL0     H17530  -0.505   1.954  10.911 -1.4392 -1.5403  0.1056
  130MOL0     H17531  -0.259   2.002  10.871  0.6076 -0.7498  0.9777
  130MOL0     H17532   0.167   1.693  10.613  0.0749 -0.7379 -0.0616
  130MOL0     H17533   0.392   1.776  10.564 -1.6118 -2.1399  0.4972
  130MOL0     H17534   0.891   2.709  10.405  2.1469 -0.1483  0.7138
  130MOL0     H17535   0.697   2.841  10.359  0.5526 -3.7406 -1.3759
  130MOL0     H17536   0.490   3.101  10.058  1.1788 -3.0161  1.9046
  130MOL0     H17537   0.262   3.179  10.015 -0.7224  0.7228  1.1837
  130MOL0     H17538   0.003   3.307  10.370 -0.9407 -1.2880 -1.3724
  130MOL0     H17539  -0.080   3.342  10.217  0.1376 -0.4498 -1.8247
  130MOL0     H17540   0.137   3.507  10.356 -1.6813  1.0647  1.0226
  130MOL0     H17541  -0.012   3.556  10.289  0.9799  0.5187  1.8618
  130MOL0     H17542   0.089   3.511  10.059  0.1049 -0.0871  0.3729
  130MOL0     H17543   0.248   3.491  10.135  0.7279  1.0330 -0.2769
  130MOL0     H17544   0.169   3.714  10.261 -2.1222 -1.4079  1.1952
  130MOL0     H17545   0.248   3.721  10.098 -1.1309  0.5824 -2.0845
  130MOL0     H17546  -0.133   3.895  10.071  1.0381  0.0216  1.0124
  130MOL0     H17547   0.205   3.259  10.426 -1.5588  1.7751 -2.2505
  130MOL0     H17548   0.501   3.090  10.539  0.9853  0.7189 -2.7163
  130MOL0     H17549   0.510   3.268  10.545  4.3686 -1.5630  2.3401
  130MOL0     H17550   0.354   3.168  10.573  0.1789  1.5891 -0.6489
  131MOL0     O17551   1.820   4.628   7.303  0.4717 -0.4670  0.5379
  131MOL0     C17552   1.721   4.670   7.363 -1.1695  0.4011  0.1876
  131MOL0     O17553   1.716   4.788   7.434 -0.5200 -0.0216  0.5210
  131MOL0     C17554   1.826   4.833   7.507  0.4511  0.2734 -0.2980
  131MOL0     C17555   1.963   4.806   7.498  0.2638  0.1165  0.4599
  131MOL0     C17556   2.049   4.885   7.578  0.8304 -0.0267 -0.7341
  131MOL0     C17557   1.992   4.970   7.679  0.1520  0.1200 -1.5253
  131MOL0     O17558   2.074   5.031   7.772  0.5280 -0.4427  0.2001
  131MOL0     C17559   2.117   5.154   7.721  0.4515 -0.2252 -0.6830
  131MOL0     C17560   2.256   5.143   7.665 -0.0244  0.2662 -0.7684
  131MOL0     C17561   2.313   5.281   7.624 -0.0568 -0.6024  0.2590
  131MOL0     C17562   2.464   5.293   7.616 -1.1959  0.8972  0.1282
  131MOL0     C17563   2.521   5.431   7.583 -0.1897 -0.6342 -0.4875
  131MOL0     C17564   2.671   5.431   7.595  0.1672  0.5553  0.0914
  131MOL0     C17565   2.741   5.560   7.554  0.0145 -0.2830  0.1010
  131MOL0     C17566   2.733   5.684   7.644 -1.0065 -0.1212 -0.0654
  131MOL0     N17567   2.803   5.800   7.584  0.4040  0.1521  0.1151
  131MOL0     C17568   2.914   5.805   7.505 -0.4167  0.1608 -0.5964
  131MOL0     C17569   2.950   5.937   7.488  0.4994  0.2944 -0.5841
  131MOL0     C17570   3.077   5.980   7.413 -0.3204  0.5700 -0.1523
  131MOL0     C17571   3.149   6.078   7.502 -0.2824 -0.2303  0.1639
  131MOL0     C17572   3.278   6.142   7.445 -0.0125 -1.0311 -0.0096
  131MOL0     C17573   3.345   6.224   7.559  0.1106 -0.0201  0.1720
  131MOL0     O17574   3.455   6.285   7.499 -1.2418  0.2943  0.5529
  131MOL0     C17575   3.564   6.324   7.575 -0.0763 -0.6052 -0.4384
  131MOL0     C17576   3.686   6.330   7.512 -1.0125 -0.0447 -0.4198
  131MOL0     C17577   3.796   6.376   7.583 -0.3545 -0.5521  0.2198
  131MOL0     C17578   3.796   6.421   7.711  0.2774  0.3037  0.6036
  131MOL0     C17579   3.909   6.444   7.800  0.4016 -0.0020  0.0029
  131MOL0     O17580   3.878   6.488   7.925 -1.0524 -0.0794 -1.1034
  131MOL0     C17581   3.971   6.538   8.021 -0.1541  0.0764  0.0342
  131MOL0     C17582   3.913   6.592   8.134 -1.1422  1.8353 -0.7061
  131MOL0     C17583   3.995   6.640   8.238 -0.0452  0.5625  0.0228
  131MOL0     C17584   4.135   6.628   8.234  0.6879  0.0368  0.5439
  131MOL0     O17585   4.206   6.666   8.342  0.4198 -0.5411 -0.5070
  131MOL0     C17586   4.342   6.698   8.325  0.1581 -0.1188 -0.4271
  131MOL0     C17587   4.384   6.791   8.435 -0.1660  0.4787  0.1494
  131MOL0     C17588   4.301   6.920   8.457  0.2001  1.0865  0.1132
  131MOL0     C17589   4.376   7.022   8.541 -0.5201  1.0254 -0.0492
  131MOL0     C17590   4.279   7.085   8.635  0.7401  0.1802 -0.3614
  131MOL0     C17591   4.175   7.178   8.566 -0.3820  0.5863  0.3161
  131MOL0     C17592   4.220   7.310   8.502 -0.6311 -0.3183 -0.3378
  131MOL0     C17593   4.201   7.434   8.594 -0.3989 -0.3863 -0.4025
  131MOL0    Cl17594   4.341   7.463   8.716 -0.2211  0.2046  0.3788
  131MOL0     C17595   4.191   6.591   8.111  0.4036  1.1694  0.2810
  131MOL0     C17596   4.113   6.538   8.009 -0.2821 -0.3454 -0.2375
  131MOL0     O17597   4.022   6.437   7.751 -0.4231  0.0740 -0.1869
  131MOL0     C17598   3.666   6.426   7.769 -0.6446 -0.0856 -0.0269
  131MOL0     C17599   3.554   6.375   7.704  0.3349  0.8305 -0.5080
  131MOL0     N17600   2.852   6.013   7.554  0.7599 -0.2009 -0.4162
  131MOL0     N17601   2.765   5.927   7.610 -0.1212 -0.7769  0.8824
  131MOL0     C17602   1.862   4.984   7.686  0.4293 -0.3688  0.5007
  131MOL0     C17603   1.778   4.930   7.592 -0.2196  0.1147 -0.5011
  131MOL0     C17604   1.599   4.589   7.340 -0.6826 -0.3782 -0.2431
  131MOL0     C17605   1.471   4.646   7.374  0.2368 -0.1852 -1.0160
  131MOL0     C17606   1.357   4.577   7.348  0.5080 -0.3869  1.0968
  131MOL0     C17607   1.354   4.453   7.296  0.2779  0.2736 -0.0533
  131MOL0     O17608   1.225   4.405   7.268  0.3960  0.3517  0.4461
  131MOL0     C17609   1.195   4.341   7.140  0.4261 -0.6365 -0.2534
  131MOL0     C17610   1.138   4.196   7.150 -0.6932  0.5187 -0.3093
  131MOL0     C17611   0.989   4.178   7.189  0.6179 -0.1080  0.2721
  131MOL0     C17612   0.948   4.031   7.158  0.7193  0.3801 -0.4724
  131MOL0     C17613   0.820   4.020   7.080  0.0623  0.2364 -0.1700
  131MOL0     C17614   0.718   4.003   7.010 -0.2230  0.2469 -0.2217
  131MOL0     C17615   1.474   4.388   7.267 -0.0736 -0.4632  0.6679
  131MOL0     C17616   1.597   4.458   7.280 -1.2412 -0.1806 -0.1842
  131MOL0     C17617   1.723   4.390   7.229 -0.5696  0.0746 -0.1618
  131MOL0     H17618   2.004   4.738   7.425  1.8798 -1.4244  2.6690
  131MOL0     H17619   2.156   4.877   7.565  0.9860 -3.1096  1.2533
  131MOL0     H17620   2.048   5.203   7.652  0.1180 -0.8857 -0.8268
  131MOL0     H17621   2.125   5.218   7.809  0.2912 -0.0499 -0.7942
  131MOL0     H17622   2.257   5.070   7.584  2.2297 -1.7953  0.9867
  131MOL0     H17623   2.320   5.102   7.743 -0.8806  1.2794  0.5005
  131MOL0     H17624   2.273   5.360   7.688  0.9698  1.5629 -1.6086
  131MOL0     H17625   2.273   5.318   7.529 -0.0923  0.5243  0.6942
  131MOL0     H17626   2.512   5.262   7.709 -1.1817 -1.1167 -0.4857
  131MOL0     H17627   2.489   5.224   7.534 -1.0304  1.4895 -0.3287
  131MOL0     H17628   2.485   5.456   7.482 -2.4092 -3.9443 -0.7026
  131MOL0     H17629   2.466   5.496   7.652 -0.4658 -0.6974 -0.6452
  131MOL0     H17630   2.701   5.400   7.695 -2.1305  1.0497  1.0085
  131MOL0     H17631   2.706   5.345   7.537  1.4123  1.4432 -0.5160
  131MOL0     H17632   2.695   5.591   7.459  1.0006  2.3045  0.3842
  131MOL0     H17633   2.844   5.532   7.530 -1.0371 -2.2878 -2.6225
  131MOL0     H17634   2.626   5.705   7.652 -1.1480 -1.1651  0.9309
  131MOL0     H17635   2.767   5.666   7.746  1.2513  1.1636 -0.5307
  131MOL0     H17636   2.971   5.719   7.469  1.1515  1.1555 -0.5869
  131MOL0     H17637   3.139   5.891   7.402 -2.4278 -1.1613  1.0851
  131MOL0     H17638   3.055   6.011   7.310  0.4291 -1.0744 -0.8520
  131MOL0     H17639   3.078   6.159   7.519 -1.5655 -1.7415  2.7012
  131MOL0     H17640   3.164   6.031   7.600 -0.7692 -0.4118  0.1526
  131MOL0     H17641   3.250   6.214   7.368 -0.0174 -1.0464 -0.0227
  131MOL0     H17642   3.346   6.073   7.395 -1.2060 -1.8471 -0.5677
  131MOL0     H17643   3.380   6.162   7.642 -0.5842 -0.5178  0.0981
  131MOL0     H17644   3.272   6.294   7.600 -1.4102 -1.5512  0.1791
  131MOL0     H17645   3.684   6.302   7.407 -0.3488  1.9710 -1.0120
  131MOL0     H17646   3.892   6.383   7.534 -0.6187 -1.6601 -0.5066
  131MOL0     H17647   3.805   6.597   8.136 -1.7940 -4.3373 -0.1148
  131MOL0     H17648   3.934   6.682   8.317 -3.5422 -3.8236  0.0399
  131MOL0     H17649   4.406   6.610   8.331  1.7426  0.8755 -1.7774
  131MOL0     H17650   4.365   6.746   8.229 -0.0456  0.5234 -0.1589
  131MOL0     H17651   4.390   6.733   8.527 -0.6603  2.1616  1.3025
  131MOL0     H17652   4.485   6.819   8.402  0.1335 -0.4509  0.2666
  131MOL0     H17653   4.286   6.972   8.362  0.5495  1.2009  0.1211
  131MOL0     H17654   4.205   6.897   8.503  0.5814  1.2366  1.0034
  131MOL0     H17655   4.419   7.095   8.472 -1.2640  0.2089 -1.4247
  131MOL0     H17656   4.453   6.976   8.603  0.9356  2.7460 -0.5135
  131MOL0     H17657   4.325   7.147   8.713  0.9990 -0.4771  0.0155
  131MOL0     H17658   4.222   7.006   8.685  0.0152  1.3036  0.6391
  131MOL0     H17659   4.130   7.115   8.488  1.4468 -1.7538  1.0590
  131MOL0     H17660   4.097   7.199   8.639 -0.3495  0.6518  0.3316
  131MOL0     H17661   4.160   7.341   8.416 -0.0192  0.7937 -0.3747
  131MOL0     H17662   4.324   7.310   8.469 -0.3055  1.1581  0.6141
  131MOL0     H17663   4.209   7.514   8.519  2.9852 -1.7932 -1.7427
  131MOL0     H17664   4.105   7.445   8.644  0.1560  0.5437  0.5115
  131MOL0     H17665   4.297   6.599   8.090  0.6412  1.6385  1.6068
  131MOL0     H17666   4.169   6.494   7.927 -0.2367  0.8566 -0.8827
  131MOL0     H17667   3.663   6.465   7.870  1.6942  2.5553 -0.8480
  131MOL0     H17668   3.461   6.395   7.756 -0.4637 -1.3970 -0.9753
  131MOL0     H17669   1.825   5.049   7.765 -0.5480  1.2755 -1.2372
  131MOL0     H17670   1.671   4.941   7.607 -0.0931 -0.8275  1.3592
  131MOL0     H17671   1.475   4.740   7.428 -0.8195 -1.5251  1.5450
  131MOL0     H17672   1.264   4.623   7.380 -0.1446 -1.1149  0.3090
  131MOL0     H17673   1.293   4.337   7.090  0.4528  0.6764 -0.3276
  131MOL0     H17674   1.125   4.404   7.085  0.2188 -0.2514  0.4440
  131MOL0     H17675   1.200   4.140   7.220 -0.5792 -0.6785 -1.3308
  131MOL0     H17676   1.166   4.149   7.055  2.4715 -0.0881  0.8103
  131MOL0     H17677   0.940   4.251   7.124 -2.1929  0.0195  2.3499
  131MOL0     H17678   0.971   4.198   7.295 -0.6708 -0.2119  0.0904
  131MOL0     H17679   1.021   3.967   7.108  1.6951  0.9600  0.1667
  131MOL0     H17680   0.922   3.984   7.253 -1.0259  1.4962 -0.3542
  131MOL0     H17681   0.639   3.970   6.946  1.1148 -1.1782 -1.2302
  131MOL0     H17682   1.465   4.288   7.225 -1.9549  0.6707 -1.7912
  131MOL0     H17683   1.797   4.368   7.307  1.1863 -0.7547 -1.9719
  131MOL0     H17684   1.698   4.287   7.202  0.2454 -1.1781  3.2967
  131MOL0     H17685   1.768   4.448   7.148 -1.7140 -1.9507 -2.3499
  132MOL0     O17686   5.259  10.716   9.377 -0.5955 -0.4957 -0.0427
  132MOL0     C17687   5.191  10.714   9.480 -0.1679  1.4592 -0.2373
  132MOL0     O17688   5.239  10.693   9.608 -0.0845 -0.5138  0.7087
  132MOL0     C17689   5.375  10.680   9.621 -0.3571 -0.3331 -0.0106
  132MOL0     C17690   5.452  10.799   9.650 -0.7272 -0.3802  0.8164
  132MOL0     C17691   5.589  10.789   9.659 -0.0795 -0.5897 -0.4928
  132MOL0     C17692   5.654  10.668   9.636 -0.1538 -0.0393 -0.5212
  132MOL0     O17693   5.798  10.665   9.647 -0.7510  0.0807  0.2088
  132MOL0     C17694   5.879  10.779   9.694  0.5371  0.6289 -0.8126
  132MOL0     C17695   6.018  10.731   9.710  1.2842 -0.2876  0.3287
  132MOL0     C17696   6.039  10.677   9.853 -0.2246 -0.0976  0.5991
  132MOL0     C17697   6.025  10.525   9.862  0.9506 -0.0170  0.5057
  132MOL0     C17698   6.143  10.438   9.813  0.2777 -0.9840 -0.1278
  132MOL0     C17699   6.273  10.471   9.888 -0.0767 -0.1153 -0.4947
  132MOL0     C17700   6.395  10.393   9.844  0.2457  0.5987  1.2184
  132MOL0     C17701   6.514  10.432   9.928 -0.7907  0.5018 -0.0249
  132MOL0     N17702   6.624  10.333   9.898 -0.2226  0.7876 -0.1265
  132MOL0     C17703   6.680  10.328   9.774 -0.0687  0.7415  0.8518
  132MOL0     C17704   6.770  10.226   9.773 -0.0030 -0.4071  0.8348
  132MOL0     C17705   6.848  10.169   9.653 -1.1640 -0.2460 -0.9879
  132MOL0     C17706   7.004  10.195   9.659  0.2936 -0.2591  0.4046
  132MOL0     C17707   7.052  10.332   9.676 -0.4293 -0.5776 -0.0443
  132MOL0     C17708   7.194  10.370   9.634  0.6650 -0.4807  0.0223
  132MOL0     O17709   7.298  10.309   9.705  0.0577  0.1943  0.1361
  132MOL0     C17710   7.425  10.334   9.659 -0.1794  0.6327 -0.1062
  132MOL0     C17711   7.461  10.426   9.564 -0.5190  0.3500  0.1957
  132MOL0     C17712   7.592  10.457   9.542  0.3980  0.2657 -0.6233
  132MOL0     C17713   7.693  10.380   9.596  0.5485  1.0627 -0.1267
  132MOL0     C17714   7.834  10.428   9.589 -0.4040 -0.1479 -0.7411
  132MOL0     O17715   7.866  10.536   9.509 -0.5274  0.6548 -0.5013
  132MOL0     C17716   7.988  10.566   9.479 -0.3501 -0.2892  0.2939
  132MOL0     C17717   8.025  10.520   9.352  0.1700 -0.2043 -0.1650
  132MOL0     C17718   8.156  10.550   9.303 -0.5696 -0.0562 -0.7895
  132MOL0     C17719   8.244  10.624   9.383 -1.2948  0.5020 -0.1804
  132MOL0     O17720   8.365  10.681   9.338 -0.9937  0.4435 -0.1964
  132MOL0     C17721   8.353  10.749   9.213 -0.2177  0.0951  0.2996
  132MOL0     C17722   8.486  10.827   9.197 -0.3868 -0.6550  0.1660
  132MOL0     C17723   8.605  10.740   9.140 -0.0768  0.0077 -0.8436
  132MOL0     C17724   8.710  10.827   9.082  0.5612 -0.2342  0.3044
  132MOL0     C17725   8.832  10.741   9.049  0.0705 -0.0443  0.6226
  132MOL0     C17726   8.933  10.820   8.975 -0.4544  0.6422 -1.1800
  132MOL0     C17727   9.054  10.726   8.938 -0.1150 -0.3103 -0.6189
  132MOL0     C17728   9.172  10.799   8.866 -0.1652 -0.0653  0.8982
  132MOL0    Cl17729   9.312  10.686   8.845  0.0503  0.1856  0.1197
  132MOL0     C17730   8.214  10.658   9.517 -0.2308  0.1183 -0.0297
  132MOL0     C17731   8.083  10.629   9.564  0.0162 -1.2110  0.3782
  132MOL0     O17732   7.915  10.364   9.657 -0.2402  0.5703  0.5735
  132MOL0     C17733   7.649  10.271   9.676 -0.2001  0.2337 -0.5733
  132MOL0     C17734   7.520  10.250   9.704 -0.7513 -0.0738 -0.4795
  132MOL0     N17735   6.767  10.168   9.898  0.2322 -0.1220 -1.0171
  132MOL0     N17736   6.668  10.228   9.967  0.5773  0.2497  0.3674
  132MOL0     C17737   5.581  10.554   9.611  1.1160 -0.6613  0.3789
  132MOL0     C17738   5.438  10.556   9.603  0.2093  0.3188  0.8704
  132MOL0     C17739   5.039  10.707   9.469 -0.2314 -0.5286  1.3962
  132MOL0     C17740   4.966  10.654   9.573  0.4251  0.5472  0.9565
  132MOL0     C17741   4.827  10.659   9.562  0.7193 -0.5459 -0.0080
  132MOL0     C17742   4.762  10.695   9.447  1.4531  0.0418 -0.1257
  132MOL0     O17743   4.628  10.669   9.431 -0.5351  0.9824 -0.5312
  132MOL0     C17744   4.542  10.677   9.545  0.0564 -0.3974  0.2944
  132MOL0     C17745   4.409  10.734   9.512  0.4535 -0.2938 -0.2051
  132MOL0     C17746   4.323  10.627   9.453 -0.7912  0.6763  0.3489
  132MOL0     C17747   4.191  10.680   9.394 -0.5882  0.1660  0.1801
  132MOL0     C17748   4.216  10.766   9.272 -0.4543  1.1770  0.2157
  132MOL0     C17749   4.228  10.837   9.173  0.3327  0.2892 -0.0857
  132MOL0     C17750   4.839  10.743   9.340  0.1019  0.0362 -0.0260
  132MOL0     C17751   4.975  10.752   9.348  0.3086 -0.3594 -0.6276
  132MOL0     C17752   5.041  10.790   9.222 -0.4780  0.1720  0.7638
  132MOL0     H17753   5.414  10.898   9.671  3.8579  1.3159  2.6029
  132MOL0     H17754   5.644  10.880   9.680 -3.1669  1.5708 -1.0722
  132MOL0     H17755   5.876  10.866   9.627 -1.9690  1.2367 -0.0437
  132MOL0     H17756   5.828  10.805   9.787 -2.5862 -0.1119 -2.1724
  132MOL0     H17757   6.082  10.818   9.693 -0.0277  0.1745 -2.9340
  132MOL0     H17758   6.049  10.656   9.637  0.9427  2.6405 -3.0645
  132MOL0     H17759   5.968  10.719   9.925  1.5777  0.8935  1.8678
  132MOL0     H17760   6.137  10.715   9.882  0.5823 -0.1600 -1.8567
  132MOL0     H17761   6.022  10.486   9.965 -0.0233  1.8636  1.2262
  132MOL0     H17762   5.935  10.485   9.817  2.2897 -2.6444 -0.0321
  132MOL0     H17763   6.113  10.334   9.826  0.8998 -1.2072 -0.3997
  132MOL0     H17764   6.166  10.447   9.706  0.3820 -1.6824 -0.1751
  132MOL0     H17765   6.296  10.577   9.875 -1.1619  0.2374  0.2441
  132MOL0     H17766   6.253  10.457   9.995 -1.1000  1.9786 -0.3494
  132MOL0     H17767   6.414  10.397   9.736  2.0312 -0.2960  1.4722
  132MOL0     H17768   6.380  10.287   9.867  1.8319  0.0439 -0.1192
  132MOL0     H17769   6.538  10.534   9.900  0.5542  0.5946  1.3588
  132MOL0     H17770   6.490  10.431  10.035 -0.0841 -0.7977  0.1482
  132MOL0     H17771   6.654  10.395   9.692  2.6635  0.6389 -0.2339
  132MOL0     H17772   6.819  10.064   9.644  0.7450 -1.1180  1.5399
  132MOL0     H17773   6.809  10.224   9.567  2.8368  1.1403 -2.1210
  132MOL0     H17774   7.041  10.144   9.749 -1.2807 -0.3053  1.0696
  132MOL0     H17775   7.042  10.151   9.567  2.2890  1.1722  0.4884
  132MOL0     H17776   7.044  10.356   9.782  0.5349 -1.0467  0.1399
  132MOL0     H17777   6.979  10.401   9.632 -0.7200  0.2165  1.5937
  132MOL0     H17778   7.187  10.477   9.654 -5.6329 -0.4029 -0.5793
  132MOL0     H17779   7.204  10.355   9.526  1.4838  1.4720 -0.2205
  132MOL0     H17780   7.389  10.485   9.507  1.3884  0.9145 -1.7639
  132MOL0     H17781   7.624  10.537   9.476  1.4465  0.3660 -0.0282
  132MOL0     H17782   7.961  10.460   9.289  1.6427 -2.3535  0.2834
  132MOL0     H17783   8.184  10.519   9.203 -3.2434  1.6427 -2.1687
  132MOL0     H17784   8.327  10.707   9.116 -2.6531  0.8851  0.5319
  132MOL0     H17785   8.277  10.823   9.238  0.3326  1.1088 -0.9463
  132MOL0     H17786   8.459  10.913   9.134  1.3262  1.2323  1.8604
  132MOL0     H17787   8.515  10.870   9.293 -1.1471  0.5655 -0.1312
  132MOL0     H17788   8.646  10.675   9.219 -0.8339  0.9217  0.3427
  132MOL0     H17789   8.570  10.677   9.058 -1.0679  0.5155 -0.8205
  132MOL0     H17790   8.737  10.912   9.146  1.6013 -1.0421  0.9632
  132MOL0     H17791   8.658  10.865   8.993  0.7018  0.5331  0.5379
  132MOL0     H17792   8.813  10.651   8.990 -0.2601  1.3337 -1.4587
  132MOL0     H17793   8.876  10.720   9.147 -1.0852  0.4910  1.2747
  132MOL0     H17794   8.885  10.865   8.888 -2.3693  0.0371 -0.4925
  132MOL0     H17795   8.971  10.892   9.049 -1.2530 -0.4291  0.3302
  132MOL0     H17796   9.017  10.636   8.889 -0.6393 -0.4032 -0.0574
  132MOL0     H17797   9.100  10.691   9.031  0.0928 -1.1885 -1.0363
  132MOL0     H17798   9.142  10.824   8.764  2.0677 -1.9315 -0.2989
  132MOL0     H17799   9.216  10.879   8.925  4.5588 -2.3767  0.9652
  132MOL0     H17800   8.295  10.701   9.576  1.0591  0.0506 -1.6525
  132MOL0     H17801   8.068  10.645   9.670 -0.9194 -0.0867  0.0941
  132MOL0     H17802   7.720  10.199   9.716 -0.0221 -1.4451 -3.5993
  132MOL0     H17803   7.483  10.166   9.763  0.5124 -1.5731 -1.7126
  132MOL0     H17804   5.616  10.451   9.605 -1.8497 -1.7314 -0.4950
  132MOL0     H17805   5.384  10.467   9.570  1.9926 -1.0943  1.5921
  132MOL0     H17806   5.022  10.623   9.661  1.8052 -0.4282 -0.2106
  132MOL0     H17807   4.767  10.627   9.647 -0.6274 -2.5381 -1.6028
  132MOL0     H17808   4.596  10.752   9.602 -0.5866  0.5045 -0.2541
  132MOL0     H17809   4.534  10.587   9.607  3.3742 -0.7031  0.4587
  132MOL0     H17810   4.419  10.827   9.455 -0.3957  0.5180  0.9170
  132MOL0     H17811   4.356  10.758   9.605 -0.7666 -0.3066 -0.8751
  132MOL0     H17812   4.293  10.561   9.535  1.6865 -1.7735 -0.5582
  132MOL0     H17813   4.389  10.580   9.379  0.9274  3.2000  0.1711
  132MOL0     H17814   4.131  10.592   9.367 -0.8074  0.2349  0.4445
  132MOL0     H17815   4.135  10.735   9.469 -2.3230 -0.4670 -0.5859
  132MOL0     H17816   4.238  10.899   9.086 -0.1548  1.4440  0.6541
  132MOL0     H17817   4.780  10.766   9.252  1.6535  0.7205 -0.9286
  132MOL0     H17818   5.123  10.861   9.232  1.0966 -1.2008 -1.3470
  132MOL0     H17819   5.092  10.701   9.182  1.3586  1.3486  0.3578
  132MOL0     H17820   4.976  10.838   9.148  1.9362  0.5867 -1.2376
  133MOL0     O17821   0.308   1.821   5.139  0.0322 -0.0948  0.1683
  133MOL0     C17822   0.230   1.769   5.218  0.0768 -0.3156 -0.5218
  133MOL0     O17823   0.260   1.691   5.318  0.2584 -0.3134  0.3152
  133MOL0     C17824   0.392   1.649   5.333 -0.1306  0.1174  0.6585
  133MOL0     C17825   0.506   1.736   5.338 -0.3107  0.1909 -0.3474
  133MOL0     C17826   0.633   1.680   5.357 -0.3326  0.0708 -0.4282
  133MOL0     C17827   0.655   1.542   5.383 -0.2895 -0.1350 -0.4384
  133MOL0     O17828   0.770   1.483   5.427 -0.4489 -0.6107  0.2591
  133MOL0     C17829   0.867   1.575   5.480 -0.6105  0.2575  0.0502
  133MOL0     C17830   0.960   1.481   5.561 -0.0572  0.3309 -0.3807
  133MOL0     C17831   1.054   1.560   5.648 -0.2868 -1.1596 -0.0117
  133MOL0     C17832   1.133   1.479   5.748  0.7366 -0.5908 -1.0289
  133MOL0     C17833   1.184   1.591   5.856 -0.2040  0.0629 -0.8040
  133MOL0     C17834   1.288   1.523   5.962 -0.1018 -0.8308  0.0084
  133MOL0     C17835   1.432   1.590   5.940 -0.2884 -1.1801  0.1895
  133MOL0     C17836   1.549   1.513   6.014  1.4523 -1.1033 -0.2680
  133MOL0     N17837   1.680   1.577   6.006 -0.5612  0.0828  0.4315
  133MOL0     C17838   1.750   1.595   5.886 -0.5157  1.1909  0.4264
  133MOL0     C17839   1.849   1.678   5.910 -0.8536 -0.1831  0.0157
  133MOL0     C17840   1.948   1.740   5.806  0.2040 -0.0394 -0.4981
  133MOL0     C17841   2.082   1.766   5.865 -0.2752 -0.7027 -0.3440
  133MOL0     C17842   2.158   1.647   5.918  1.0119 -0.0203  0.5821
  133MOL0     C17843   2.176   1.534   5.815 -0.9627  0.1758  0.8081
  133MOL0     O17844   2.259   1.558   5.700 -0.3736  0.1655 -0.8070
  133MOL0     C17845   2.393   1.550   5.717 -1.0984 -0.4608  0.0939
  133MOL0     C17846   2.462   1.601   5.603 -0.2146  0.7065  0.1710
  133MOL0     C17847   2.599   1.599   5.605 -0.0279  0.7565  0.6777
  133MOL0     C17848   2.672   1.556   5.716  0.3036  0.8429  0.4200
  133MOL0     C17849   2.823   1.558   5.728  0.3806  0.7459 -0.2451
  133MOL0     O17850   2.873   1.672   5.670 -0.1885 -0.3376  0.4148
  133MOL0     C17851   3.013   1.681   5.653  0.0945 -0.1372  0.0868
  133MOL0     C17852   3.086   1.606   5.559 -0.4276  0.2561  0.4000
  133MOL0     C17853   3.228   1.600   5.558 -0.4285 -1.2087 -0.2165
  133MOL0     C17854   3.299   1.679   5.653 -0.6380  0.3506 -0.2248
  133MOL0     O17855   3.436   1.665   5.660  0.3568 -0.3986 -0.8031
  133MOL0     C17856   3.502   1.570   5.585 -0.7842 -0.5011 -0.1971
  133MOL0     C17857   3.653   1.567   5.627  0.2503 -0.3148 -0.3991
  133MOL0     C17858   3.666   1.512   5.765  0.3066  0.1221  0.0029
  133MOL0     C17859   3.797   1.558   5.848 -0.0183  0.0293 -0.2627
  133MOL0     C17860   3.929   1.525   5.779  0.4763 -0.6860  0.7128
  133MOL0     C17861   4.051   1.543   5.873  0.8452  0.3089 -0.5450
  133MOL0     C17862   4.185   1.490   5.818 -0.1590 -0.7231 -0.3836
  133MOL0     C17863   4.301   1.568   5.864 -0.2031 -0.4773  0.3519
  133MOL0    Cl17864   4.296   1.597   6.039 -0.0706  0.0813  0.8296
  133MOL0     C17865   3.231   1.764   5.737  0.1818 -0.3782  0.5827
  133MOL0     C17866   3.094   1.762   5.739 -0.0051  0.0201 -0.2168
  133MOL0     O17867   2.894   1.464   5.768 -0.4479 -0.4447  0.1867
  133MOL0     C17868   2.608   1.514   5.837 -0.3937  0.8121  0.8959
  133MOL0     C17869   2.465   1.510   5.833  0.5610 -0.3276 -0.1443
  133MOL0     N17870   1.849   1.702   6.053 -0.5893  0.7837  0.3898
  133MOL0     N17871   1.750   1.638   6.106 -0.1577  0.6874  0.7072
  133MOL0     C17872   0.546   1.459   5.372 -0.4024 -0.5669 -0.8557
  133MOL0     C17873   0.417   1.510   5.338  0.2240  0.2061 -0.2038
  133MOL0     C17874   0.079   1.773   5.183  0.4455 -0.2887  0.4673
  133MOL0     C17875  -0.003   1.668   5.232  0.7597 -0.4705 -0.0725
  133MOL0     C17876  -0.137   1.679   5.205  0.0354  0.4985  0.8645
  133MOL0     C17877  -0.199   1.781   5.133 -0.4931  0.7806 -0.0092
  133MOL0     O17878  -0.335   1.763   5.107  1.0209  0.0856  0.3352
  133MOL0     C17879  -0.390   1.825   4.993 -0.3951  0.1060 -1.5839
  133MOL0     C17880  -0.512   1.756   4.929  0.1856 -0.5501 -0.1543
  133MOL0     C17881  -0.605   1.681   5.022 -0.6135  0.1146  0.2494
  133MOL0     C17882  -0.734   1.649   4.964 -0.2589 -0.1810  0.2434
  133MOL0     C17883  -0.829   1.616   5.072 -0.0968  0.2353 -0.9390
  133MOL0     C17884  -0.904   1.590   5.160 -0.0970  0.0737 -0.8341
  133MOL0     C17885  -0.120   1.889   5.092  0.0110 -0.3160 -0.5430
  133MOL0     C17886   0.019   1.884   5.118 -0.1085  0.5920 -0.3409
  133MOL0     C17887   0.078   2.007   5.061  0.1090 -0.7227 -0.6119
  133MOL0     H17888   0.485   1.843   5.335 -0.3041  0.1768 -2.5981
  133MOL0     H17889   0.717   1.748   5.368  2.4338 -3.2660  0.6287
  133MOL0     H17890   0.910   1.638   5.402 -2.2149  0.4818 -0.7003
  133MOL0     H17891   0.820   1.637   5.557 -4.1360 -2.2976  0.2055
  133MOL0     H17892   1.020   1.412   5.502  2.8510  1.9906  0.4221
  133MOL0     H17893   0.895   1.427   5.630  0.9057 -0.4545 -0.0727
  133MOL0     H17894   1.010   1.647   5.696  1.6508 -0.0899 -0.0694
  133MOL0     H17895   1.123   1.616   5.584 -1.9769  0.4077 -0.5526
  133MOL0     H17896   1.067   1.406   5.797 -2.3404  1.6426 -1.5266
  133MOL0     H17897   1.221   1.441   5.697  1.8491  2.5337 -1.6466
  133MOL0     H17898   1.232   1.674   5.803  0.3131  0.3271  0.0545
  133MOL0     H17899   1.110   1.644   5.917 -0.2100  0.0003 -0.7564
  133MOL0     H17900   1.255   1.537   6.065 -0.0909 -1.9617  0.1768
  133MOL0     H17901   1.300   1.415   5.949 -0.0009 -0.9824  1.3074
  133MOL0     H17902   1.429   1.693   5.978  0.4673 -0.5730 -1.3163
  133MOL0     H17903   1.449   1.598   5.833  0.9735 -0.8152  0.3993
  133MOL0     H17904   1.516   1.492   6.117 -0.4963  0.6972 -0.4503
  133MOL0     H17905   1.564   1.418   5.963 -0.1947 -0.8963 -1.2004
  133MOL0     H17906   1.711   1.555   5.793 -1.8571 -1.3027  1.9691
  133MOL0     H17907   1.956   1.667   5.724 -3.2621  2.2149 -3.1692
  133MOL0     H17908   1.905   1.836   5.775 -0.9938 -0.0937  0.8967
  133MOL0     H17909   2.148   1.816   5.793  0.8763  0.6223  1.5522
  133MOL0     H17910   2.075   1.836   5.948  1.4563 -0.4279 -0.3824
  133MOL0     H17911   2.103   1.605   6.003 -0.3498 -1.2400 -0.8273
  133MOL0     H17912   2.254   1.684   5.955  1.6764  1.6425 -2.4821
  133MOL0     H17913   2.076   1.509   5.778 -1.7373  3.1890  0.6302
  133MOL0     H17914   2.212   1.442   5.863  0.1589 -0.6451 -1.4526
  133MOL0     H17915   2.396   1.635   5.525 -0.3736  0.9959  0.4310
  133MOL0     H17916   2.656   1.629   5.517  1.0257  0.2775  1.1851
  133MOL0     H17917   3.021   1.560   5.485 -0.9196 -0.6794  1.3745
  133MOL0     H17918   3.272   1.530   5.487  0.4335 -0.5827 -0.3093
  133MOL0     H17919   3.463   1.469   5.603  0.4303 -0.8613  0.6076
  133MOL0     H17920   3.506   1.599   5.480 -1.3668 -0.0950 -0.1084
  133MOL0     H17921   3.704   1.505   5.553  2.2117 -1.8526  2.0738
  133MOL0     H17922   3.702   1.665   5.618 -0.5365  0.3072  1.4909
  133MOL0     H17923   3.574   1.552   5.810  0.8526  1.8384 -0.3107
  133MOL0     H17924   3.650   1.405   5.776 -0.2258  0.3542  1.6741
  133MOL0     H17925   3.790   1.509   5.945 -0.4890  1.1973  0.3065
  133MOL0     H17926   3.793   1.665   5.872  1.5471 -0.1629  1.0700
  133MOL0     H17927   3.944   1.588   5.691 -0.1866 -1.3732  0.0931
  133MOL0     H17928   3.934   1.424   5.738 -0.9449 -0.6638  0.4528
  133MOL0     H17929   4.062   1.648   5.902  1.4271 -0.6890  3.2864
  133MOL0     H17930   4.023   1.474   5.953  1.1594 -2.5966 -2.7650
  133MOL0     H17931   4.183   1.497   5.709  1.0850 -0.0522 -0.3838
  133MOL0     H17932   4.183   1.382   5.835 -1.3177 -0.9941 -2.0431
  133MOL0     H17933   4.390   1.511   5.834 -0.8617 -0.3287 -2.0651
  133MOL0     H17934   4.303   1.666   5.817  3.4677  0.8854  2.8719
  133MOL0     H17935   3.288   1.824   5.806 -1.7579  1.0918  0.9993
  133MOL0     H17936   3.035   1.811   5.816 -2.5077 -1.0844 -1.3469
  133MOL0     H17937   2.667   1.489   5.925 -1.8273 -0.9958  1.4117
  133MOL0     H17938   2.426   1.463   5.923  2.5347 -4.5349 -1.1903
  133MOL0     H17939   0.551   1.352   5.385 -2.8065 -0.8201 -1.5400
  133MOL0     H17940   0.335   1.439   5.324  0.4103 -0.1622  0.5373
  133MOL0     H17941   0.038   1.574   5.267  2.9905  0.0576 -1.1081
  133MOL0     H17942  -0.199   1.597   5.240  3.1820 -2.0702  0.8436
  133MOL0     H17943  -0.312   1.829   4.917  0.9151 -0.9039 -0.3306
  133MOL0     H17944  -0.415   1.931   5.006 -0.0890  0.0979 -0.9226
  133MOL0     H17945  -0.481   1.688   4.849  0.6991 -2.4572  1.5838
  133MOL0     H17946  -0.571   1.837   4.885 -1.7464 -0.8915  1.6359
  133MOL0     H17947  -0.628   1.753   5.101 -0.1455  0.0899  0.4096
  133MOL0     H17948  -0.545   1.597   5.057  1.6699  1.7516  0.4992
  133MOL0     H17949  -0.780   1.741   4.925 -1.1707 -0.8211 -0.2122
  133MOL0     H17950  -0.725   1.572   4.887  1.0155  2.5864 -2.5993
  133MOL0     H17951  -0.960   1.575   5.250  1.1244  3.4603  0.6615
  133MOL0     H17952  -0.163   1.973   5.039  1.5779  1.8749  1.4509
  133MOL0     H17953   0.020   2.092   5.099  1.6542 -0.0135  0.2798
  133MOL0     H17954   0.184   2.026   5.080 -0.4132  1.9011  0.1766
  133MOL0     H17955   0.060   2.018   4.954  0.3625 -0.7308 -0.6554
  134MOL0     O17956   4.006  10.414   8.028 -0.4174  0.1653  0.0853
  134MOL0     C17957   4.053  10.396   8.138  0.6995  0.1513  0.4699
  134MOL0     O17958   4.141  10.301   8.173  0.1533 -0.3718  0.4770
  134MOL0     C17959   4.179  10.224   8.071  0.2460 -0.1308  0.1328
  134MOL0     C17960   4.102  10.124   8.011  0.3002 -0.3379 -0.3674
  134MOL0     C17961   4.143  10.057   7.900 -0.9158 -0.1265 -0.3471
  134MOL0     C17962   4.275  10.084   7.847  0.8635 -0.3314 -0.6840
  134MOL0     O17963   4.309  10.010   7.742 -0.1987  0.1191  0.0822
  134MOL0     C17964   4.442   9.959   7.719 -0.5513  0.3954  0.5948
  134MOL0     C17965   4.442   9.843   7.614 -0.4133  0.3018  0.4100
  134MOL0     C17966   4.578   9.819   7.547 -0.1331 -0.1423 -0.1430
  134MOL0     C17967   4.683   9.754   7.647  0.3237 -0.3610  0.0562
  134MOL0     C17968   4.824   9.770   7.607 -0.6132  1.4287 -0.4364
  134MOL0     C17969   4.879   9.907   7.580 -0.5988  0.4841 -1.0768
  134MOL0     C17970   4.853  10.017   7.685 -0.1987 -0.4235 -0.4439
  134MOL0     C17971   4.966  10.089   7.765 -0.0130  0.0570  0.5896
  134MOL0     N17972   5.049   9.999   7.850  0.3343 -0.5972 -0.7131
  134MOL0     C17973   5.152   9.926   7.805  0.7100 -0.0745 -0.1148
  134MOL0     C17974   5.203   9.861   7.911  0.2427  0.2852 -0.0573
  134MOL0     C17975   5.305   9.746   7.903 -0.3458  0.2882  0.3349
  134MOL0     C17976   5.452   9.793   7.934  0.4238 -0.3563  0.0189
  134MOL0     C17977   5.559   9.678   7.904  0.5269 -0.8090  0.3980
  134MOL0     C17978   5.689   9.707   7.957  0.5370 -0.0111 -0.4247
  134MOL0     O17979   5.784   9.626   7.894  0.3850  0.7033  0.3871
  134MOL0     C17980   5.915   9.633   7.940  0.1330  0.9365 -0.9036
  134MOL0     C17981   6.010   9.538   7.897  0.2417  0.2764  0.7665
  134MOL0     C17982   6.142   9.542   7.937 -0.7428 -0.3021  0.0728
  134MOL0     C17983   6.182   9.642   8.028  0.4801  0.2909 -0.2708
  134MOL0     C17984   6.320   9.641   8.082 -0.0459 -0.3626  0.0072
  134MOL0     O17985   6.396   9.537   8.049 -1.0534  0.6869  0.3399
  134MOL0     C17986   6.528   9.533   8.063 -0.6176 -0.1190 -0.2222
  134MOL0     C17987   6.614   9.512   7.948 -0.1556 -0.6545 -0.0652
  134MOL0     C17988   6.751   9.500   7.960 -0.3173 -0.2385 -0.0615
  134MOL0     C17989   6.812   9.506   8.089 -0.0761 -0.0706 -0.1775
  134MOL0     O17990   6.954   9.502   8.101  0.1330  0.1178 -0.1237
  134MOL0     C17991   7.023   9.512   7.980 -1.0533  0.3256  0.1798
  134MOL0     C17992   7.167   9.535   8.029 -0.4959 -0.0947 -0.3341
  134MOL0     C17993   7.296   9.536   7.936  0.4643 -0.1215 -0.4610
  134MOL0     C17994   7.327   9.681   7.906 -1.4987 -0.0610 -0.1333
  134MOL0     C17995   7.392   9.686   7.774 -0.0862 -0.3510 -0.7719
  134MOL0     C17996   7.517   9.604   7.775  0.2794  0.3148  0.0971
  134MOL0     C17997   7.616   9.634   7.662 -0.4779 -1.0048 -0.0058
  134MOL0     C17998   7.717   9.517   7.643 -0.3885 -0.7001  0.0005
  134MOL0    Cl17999   7.836   9.567   7.529 -0.1289 -0.1032  0.1676
  134MOL0     C18000   6.726   9.518   8.205  0.5104  0.7358 -0.0861
  134MOL0     C18001   6.589   9.538   8.192  0.8024  0.1482  0.3015
  134MOL0     O18002   6.360   9.739   8.149  0.2270 -0.0967 -0.4222
  134MOL0     C18003   6.092   9.740   8.070 -0.0008  0.3836  0.1291
  134MOL0     C18004   5.961   9.733   8.031 -0.3374  0.8466 -0.3756
  134MOL0     N18005   5.130   9.909   8.016  0.4434 -0.4924 -0.1353
  134MOL0     N18006   5.038   9.992   7.987  0.5986 -1.2774  0.5700
  134MOL0     C18007   4.351  10.184   7.911  0.3900  0.8644  0.8175
  134MOL0     C18008   4.303  10.263   8.014  0.4856  0.2550  0.2033
  134MOL0     C18009   4.014  10.494   8.254 -0.0158  0.2258 -0.0470
  134MOL0     C18010   4.113  10.533   8.345 -0.3537 -0.0029 -0.2555
  134MOL0     C18011   4.094  10.636   8.432 -1.3460 -0.0724 -0.3020
  134MOL0     C18012   3.962  10.683   8.454  0.2850 -0.9904  0.2871
  134MOL0     O18013   3.944  10.780   8.543 -0.5456  0.6145  0.3064
  134MOL0     C18014   3.828  10.861   8.534  0.3648 -0.4016 -0.1642
  134MOL0     C18015   3.843  10.979   8.629 -0.2793 -0.2674  0.9483
  134MOL0     C18016   3.950  11.085   8.610 -0.3659 -0.1762  0.2973
  134MOL0     C18017   4.058  11.062   8.514  0.1144 -1.0929  0.6947
  134MOL0     C18018   4.145  11.181   8.519 -0.1853 -0.3351 -0.0838
  134MOL0     C18019   4.234  11.263   8.508 -0.2796 -0.8723 -0.8930
  134MOL0     C18020   3.862  10.649   8.357 -0.4210 -0.3170  0.1225
  134MOL0     C18021   3.890  10.562   8.254  0.5091 -0.0236  0.2052
  134MOL0     C18022   3.785  10.529   8.150  0.9823  0.1933  0.0764
  134MOL0     H18023   4.009  10.097   8.060 -0.4039  0.2693 -1.3384
  134MOL0     H18024   4.095   9.974   7.849 -0.0734 -1.7187  1.3210
  134MOL0     H18025   4.501  10.045   7.686  0.5971 -0.1678  1.1218
  134MOL0     H18026   4.484   9.920   7.813  0.5593  2.3994  0.9919
  134MOL0     H18027   4.371   9.871   7.535 -0.1060  1.4612  0.5299
  134MOL0     H18028   4.417   9.755   7.675  1.8328  0.1375  1.1957
  134MOL0     H18029   4.613   9.920   7.524  1.7479  0.0811  3.0030
  134MOL0     H18030   4.572   9.754   7.459 -3.0668 -0.7089  0.3695
  134MOL0     H18031   4.671   9.789   7.750  4.2117  0.6232  0.3398
  134MOL0     H18032   4.665   9.646   7.648  0.9347 -0.6034 -3.3715
  134MOL0     H18033   4.884   9.727   7.688 -0.7053 -0.2641 -1.2181
  134MOL0     H18034   4.836   9.722   7.510 -1.2863  0.6612 -0.1494
  134MOL0     H18035   4.987   9.903   7.562 -0.4846  3.4520 -1.5367
  134MOL0     H18036   4.833   9.936   7.485  1.0448 -2.2639 -2.8382
  134MOL0     H18037   4.785   9.989   7.766  0.4484  1.4756  0.8347
  134MOL0     H18038   4.794  10.088   7.626  1.0637  1.1861  0.1404
  134MOL0     H18039   5.034  10.123   7.687  0.6142 -1.1586  0.5744
  134MOL0     H18040   4.928  10.175   7.820 -2.7422 -1.1808  0.7759
  134MOL0     H18041   5.173   9.910   7.700  1.5046 -1.4311  0.2330
  134MOL0     H18042   5.289   9.661   7.971 -0.0370 -1.8558 -2.1147
  134MOL0     H18043   5.313   9.709   7.800  1.1827 -3.5076  1.6271
  134MOL0     H18044   5.480   9.880   7.873  1.1348 -1.9680 -2.0521
  134MOL0     H18045   5.462   9.814   8.041 -1.7581  0.3836  0.1226
  134MOL0     H18046   5.577   9.663   7.797  1.8360  1.8251  0.1491
  134MOL0     H18047   5.520   9.586   7.948  1.7856 -0.6915  1.8397
  134MOL0     H18048   5.675   9.682   8.062 -0.2796  1.7810 -0.0780
  134MOL0     H18049   5.712   9.814   7.944 -0.5079  0.0250 -2.4176
  134MOL0     H18050   5.987   9.455   7.831  0.1524 -1.4097  2.8002
  134MOL0     H18051   6.212   9.465   7.908  0.8836  0.8978  0.6211
  134MOL0     H18052   6.577   9.521   7.847  0.6758  1.7981 -0.2140
  134MOL0     H18053   6.808   9.479   7.870  1.3919  1.8689  0.4534
  134MOL0     H18054   7.026   9.431   7.906  1.2435 -0.3197  0.8791
  134MOL0     H18055   6.998   9.610   7.938  0.2239  0.9275  0.7546
  134MOL0     H18056   7.162   9.625   8.091 -2.3581 -1.1585  1.1534
  134MOL0     H18057   7.184   9.455   8.102 -1.1477 -0.7342 -0.8686
  134MOL0     H18058   7.377   9.503   8.003 -1.2261  1.6645  2.6853
  134MOL0     H18059   7.284   9.474   7.847  3.2291  0.7216 -1.5515
  134MOL0     H18060   7.392   9.714   7.987  0.6637  1.1921 -2.2355
  134MOL0     H18061   7.236   9.741   7.901 -1.5535 -0.2090 -0.9900
  134MOL0     H18062   7.426   9.788   7.755  0.8526 -0.8239 -1.7741
  134MOL0     H18063   7.323   9.654   7.695 -0.4805 -2.4249  0.3505
  134MOL0     H18064   7.573   9.623   7.867 -1.2259 -1.5093  1.4793
  134MOL0     H18065   7.500   9.496   7.771 -0.2677  0.4064 -0.2844
  134MOL0     H18066   7.676   9.724   7.679 -0.6583 -0.5112 -1.8145
  134MOL0     H18067   7.572   9.650   7.563 -0.6717  0.7972  0.3392
  134MOL0     H18068   7.773   9.493   7.735  0.9331 -1.4325 -0.9635
  134MOL0     H18069   7.669   9.426   7.605  0.7508 -1.9276  1.3305
  134MOL0     H18070   6.761   9.493   8.305  1.5579  1.4054 -0.2667
  134MOL0     H18071   6.517   9.546   8.272  2.2577  3.5110  1.4377
  134MOL0     H18072   6.123   9.822   8.135 -0.6499  1.3798 -0.7877
  134MOL0     H18073   5.885   9.796   8.075 -0.5129  0.7969 -0.6065
  134MOL0     H18074   4.440  10.215   7.857 -1.2405  0.2765 -2.4582
  134MOL0     H18075   4.359  10.350   8.047 -0.7216  1.3577 -0.5634
  134MOL0     H18076   4.209  10.488   8.322  0.2416  1.6695 -1.1671
  134MOL0     H18077   4.172  10.683   8.490  0.1169  1.2304 -3.0916
  134MOL0     H18078   3.733  10.817   8.564 -2.3541  3.7689 -1.8200
  134MOL0     H18079   3.823  10.912   8.438 -2.2439  0.2260  0.2380
  134MOL0     H18080   3.848  10.951   8.734 -2.9260  2.9348  2.0870
  134MOL0     H18081   3.750  11.036   8.623  0.1909  0.3914 -0.9952
  134MOL0     H18082   3.985  11.107   8.712 -0.1221  4.8038 -0.6036
  134MOL0     H18083   3.905  11.178   8.577  1.7058  1.2056  1.1223
  134MOL0     H18084   4.115  10.973   8.543  1.8062  0.2611  1.6589
  134MOL0     H18085   4.034  11.041   8.409  1.2291 -0.7591  0.3589
  134MOL0     H18086   4.314  11.335   8.515  0.6432 -1.9852  3.5426
  134MOL0     H18087   3.764  10.695   8.359  0.0850  0.7970  0.8269
  134MOL0     H18088   3.806  10.582   8.057  0.0045  0.7526  0.1609
  134MOL0     H18089   3.771  10.420   8.149  0.2837  0.2784 -1.2450
  134MOL0     H18090   3.683  10.562   8.171  0.1109 -1.0668 -1.8205
  135MOL0     O18091  10.992  10.489   8.213 -1.0635 -0.4338 -0.8172
  135MOL0     C18092  10.935  10.383   8.227 -0.8570 -0.5549 -0.1044
  135MOL0     O18093  10.973  10.254   8.181  0.2784 -0.2695  0.1855
  135MOL0     C18094  11.098  10.216   8.131  0.1889 -0.3977 -0.4377
  135MOL0     C18095  11.100  10.101   8.052 -0.1166 -0.3330  0.2745
  135MOL0     C18096  11.226  10.061   8.004 -0.6638  0.6842 -1.1783
  135MOL0     C18097  11.341  10.128   8.051 -0.6808 -0.0627  0.5006
  135MOL0     O18098  11.460  10.085   8.016 -0.5155  0.1920  0.5402
  135MOL0     C18099  11.490   9.941   8.026 -0.4206  0.3968  1.1484
  135MOL0     C18100  11.614   9.932   8.116 -0.7081 -0.0763 -0.0251
  135MOL0     C18101  11.748   9.981   8.051  1.0568  0.5384  0.8993
  135MOL0     C18102  11.827   9.863   7.974  0.0919  0.0096 -0.4550
  135MOL0     C18103  11.962   9.889   7.920 -1.0097 -0.2632 -0.0593
  135MOL0     C18104  12.059   9.955   8.023  0.1637 -0.5043 -0.3852
  135MOL0     C18105  12.202   9.944   7.994 -0.1876  0.0832 -0.3900
  135MOL0     C18106  12.241  10.002   7.859  0.3165 -1.2562 -0.4102
  135MOL0     N18107  12.200  10.143   7.831  0.5719  0.3942  0.8519
  135MOL0     C18108  12.244  10.258   7.890 -0.5854  0.0576 -0.1321
  135MOL0     C18109  12.193  10.357   7.813 -0.2928 -0.7212 -0.7051
  135MOL0     C18110  12.216  10.505   7.811  0.4344  0.2274 -0.2904
  135MOL0     C18111  12.365  10.532   7.786 -0.1680 -0.1050  0.6736
  135MOL0     C18112  12.411  10.676   7.834 -0.3350  0.5609  0.5338
  135MOL0     C18113  12.547  10.723   7.794 -0.7503  1.0346 -0.4512
  135MOL0     O18114  12.641  10.638   7.861  0.2212 -0.7679  0.3510
  135MOL0     C18115  12.773  10.658   7.841 -0.3642  0.4257 -0.0920
  135MOL0     C18116  12.829  10.765   7.767  0.0273 -0.0005  0.3205
  135MOL0     C18117  12.968  10.778   7.752 -0.4488 -0.3573 -0.4596
  135MOL0     C18118  13.060  10.693   7.814 -0.9809  0.5320  0.2921
  135MOL0     C18119  13.208  10.720   7.797  0.8352  0.4182 -0.4679
  135MOL0     O18120  13.291  10.636   7.874 -0.6861 -0.1341  0.4700
  135MOL0     C18121  13.429  10.648   7.863  0.6886 -0.0481  0.2894
  135MOL0     C18122  13.508  10.759   7.902  0.0634  0.0753  0.0155
  135MOL0     C18123  13.645  10.746   7.877  0.1766  0.6110  0.3651
  135MOL0     C18124  13.709  10.637   7.827 -0.9732  0.3781 -0.3583
  135MOL0     O18125  13.846  10.634   7.826 -0.2086  0.4474  0.0899
  135MOL0     C18126  13.902  10.505   7.815  0.0130  0.0998 -0.0102
  135MOL0     C18127  14.054  10.528   7.843 -0.2480 -0.0019  0.8120
  135MOL0     C18128  14.124  10.642   7.783  0.6924 -0.6216  0.0418
  135MOL0     C18129  14.241  10.664   7.880 -0.0531  1.0911  0.4393
  135MOL0     C18130  14.347  10.754   7.812 -0.0893 -0.1082  0.5600
  135MOL0     C18131  14.484  10.752   7.863  0.0360  0.0086  0.1825
  135MOL0     C18132  14.549  10.613   7.881 -0.8497 -0.3252 -0.3833
  135MOL0     C18133  14.701  10.627   7.889 -0.2950  0.7627 -0.1578
  135MOL0    Cl18134  14.772  10.459   7.918 -0.2519  0.3788  0.5322
  135MOL0     C18135  13.631  10.529   7.785 -0.4534  0.1813  0.6484
  135MOL0     C18136  13.490  10.538   7.809 -0.2480  0.2143  0.1371
  135MOL0     O18137  13.242  10.802   7.713  0.1687  0.2838 -0.0837
  135MOL0     C18138  13.000  10.591   7.895  0.0002 -1.2310 -0.2216
  135MOL0     C18139  12.864  10.574   7.906 -0.5377 -0.1505  0.3342
  135MOL0     N18140  12.118  10.301   7.720 -0.1794 -0.5422 -0.1930
  135MOL0     N18141  12.117  10.170   7.727  0.7112  0.4732 -0.2802
  135MOL0     C18142  11.331  10.231   8.149 -0.0466 -0.2572  0.5232
  135MOL0     C18143  11.213  10.279   8.182 -0.1910  0.2405 -0.3616
  135MOL0     C18144  10.796  10.377   8.278  0.1046  0.2185 -0.7860
  135MOL0     C18145  10.755  10.258   8.333 -0.1558  1.0018 -0.4680
  135MOL0     C18146  10.623  10.237   8.376 -0.3949  0.2652 -0.0082
  135MOL0     C18147  10.533  10.346   8.365 -0.2134 -0.0095  0.3701
  135MOL0     O18148  10.405  10.341   8.409  0.5242  0.3105 -0.5067
  135MOL0     C18149  10.369  10.227   8.490  0.7002  0.4488  0.7217
  135MOL0     C18150  10.219  10.247   8.517  0.2527 -0.6225  0.0198
  135MOL0     C18151  10.155  10.132   8.596 -0.0364  0.2610 -0.7799
  135MOL0     C18152  10.001  10.147   8.589 -0.2847 -0.0295  0.7694
  135MOL0     C18153   9.943  10.054   8.690 -0.5733  0.1877  0.1427
  135MOL0     C18154   9.893   9.990   8.783  0.0629 -0.7021  0.1981
  135MOL0     C18155  10.576  10.466   8.300 -0.2200  0.7323 -0.8387
  135MOL0     C18156  10.707  10.488   8.260 -0.6725 -0.0477  0.5471
  135MOL0     C18157  10.742  10.617   8.179 -0.0889  0.0071  0.4292
  135MOL0     H18158  11.008  10.056   8.017 -1.2351  1.2508  1.1016
  135MOL0     H18159  11.236   9.985   7.928 -1.5442 -1.1105  0.4037
  135MOL0     H18160  11.412   9.886   8.079 -0.4299  0.0240  0.7584
  135MOL0     H18161  11.520   9.903   7.927  0.9737  0.3979  1.5507
  135MOL0     H18162  11.624   9.825   8.136 -0.0829  0.0190  0.2062
  135MOL0     H18163  11.598   9.988   8.209 -0.3668 -2.3166  1.4632
  135MOL0     H18164  11.817  10.016   8.128  0.9437  2.5838  0.1559
  135MOL0     H18165  11.733  10.061   7.977  0.9397 -1.4435 -1.3310
  135MOL0     H18166  11.837   9.783   8.048 -0.4229  0.6214  0.3026
  135MOL0     H18167  11.766   9.829   7.890 -0.0807  2.5015 -1.4369
  135MOL0     H18168  12.012   9.800   7.880  0.9057  1.1183 -0.9345
  135MOL0     H18169  11.958   9.949   7.828  2.5472 -0.8424 -0.7308
  135MOL0     H18170  12.044  10.062   8.036  1.5961 -0.0788 -1.8753
  135MOL0     H18171  12.041   9.919   8.125  2.8877 -0.3229  0.2578
  135MOL0     H18172  12.228   9.837   7.990  0.2728  0.1957 -0.4682
  135MOL0     H18173  12.255   9.993   8.076 -2.8612  1.2121  0.7727
  135MOL0     H18174  12.350   9.995   7.853  0.5206  1.5177 -1.6642
  135MOL0     H18175  12.199   9.939   7.780 -1.2384 -0.2930 -0.4039
  135MOL0     H18176  12.323  10.274   7.962 -0.0680  0.3888 -0.7725
  135MOL0     H18177  12.146  10.557   7.744 -1.3783  0.4620  1.6782
  135MOL0     H18178  12.192  10.550   7.908  1.3963 -0.7858  0.4304
  135MOL0     H18179  12.422  10.453   7.836 -1.4206 -2.5903 -1.5783
  135MOL0     H18180  12.388  10.521   7.680  2.1587 -1.9063  1.2824
  135MOL0     H18181  12.405  10.677   7.944 -0.4012 -1.2339  0.5767
  135MOL0     H18182  12.341  10.750   7.794 -0.4345  1.2097  1.8435
  135MOL0     H18183  12.561  10.824   7.835 -1.7330  1.3191 -0.7937
  135MOL0     H18184  12.554  10.721   7.685 -3.6143  1.2974 -0.7142
  135MOL0     H18185  12.768  10.841   7.719  0.9674  0.2781 -0.4652
  135MOL0     H18186  13.000  10.853   7.680 -0.9110  0.2662 -0.0343
  135MOL0     H18187  13.474  10.847   7.956  2.1610  0.3978  0.9193
  135MOL0     H18188  13.704  10.829   7.912  0.0311  0.3105  1.3579
  135MOL0     H18189  13.855  10.441   7.890 -2.4471  1.4014 -0.3021
  135MOL0     H18190  13.879  10.459   7.718 -0.0875 -1.4174  0.7150
  135MOL0     H18191  14.057  10.541   7.952  1.7379 -1.2752  0.9513
  135MOL0     H18192  14.117  10.447   7.807 -0.3994  0.4994 -0.6124
  135MOL0     H18193  14.148  10.626   7.677  1.8184  1.7914 -0.1379
  135MOL0     H18194  14.062  10.732   7.786 -1.6020 -1.9437 -2.9259
  135MOL0     H18195  14.285  10.565   7.895 -0.9694  0.4139 -1.0464
  135MOL0     H18196  14.212  10.705   7.978  0.6176 -1.2086  1.6824
  135MOL0     H18197  14.317  10.859   7.821  1.1889  0.3488 -0.2606
  135MOL0     H18198  14.348  10.719   7.708  1.2201 -0.7893  0.7853
  135MOL0     H18199  14.542  10.822   7.801 -0.2551  0.4455  0.4054
  135MOL0     H18200  14.476  10.803   7.959  0.3771 -1.7170  1.1667
  135MOL0     H18201  14.520  10.550   7.796  0.0778 -2.9394  1.1166
  135MOL0     H18202  14.515  10.574   7.978  1.9259  0.6685  1.1115
  135MOL0     H18203  14.747  10.646   7.792  0.1644 -1.7251 -0.4900
  135MOL0     H18204  14.733  10.697   7.967  0.6958  1.1397 -0.8831
  135MOL0     H18205  13.668  10.437   7.740 -2.1022 -1.1683  1.9303
  135MOL0     H18206  13.428  10.454   7.776  2.3646 -2.8311  2.4246
  135MOL0     H18207  13.062  10.519   7.947 -0.8604 -0.4996  1.9479
  135MOL0     H18208  12.831  10.489   7.964 -1.3765 -1.7872 -2.3427
  135MOL0     H18209  11.423  10.270   8.191  0.8782 -0.5222 -1.1405
  135MOL0     H18210  11.203  10.362   8.251  0.8022 -1.2781  1.7067
  135MOL0     H18211  10.827  10.178   8.344 -1.1688 -0.1461 -1.7321
  135MOL0     H18212  10.596  10.145   8.426  1.0418 -0.5621 -0.7199
  135MOL0     H18213  10.430  10.213   8.579  0.8340 -2.7670  0.2528
  135MOL0     H18214  10.375  10.133   8.434 -0.3481 -1.6881  3.9144
  135MOL0     H18215  10.164  10.254   8.423  1.3724 -1.4887 -0.7244
  135MOL0     H18216  10.195  10.345   8.558  0.7719 -0.5290  0.1095
  135MOL0     H18217  10.192  10.133   8.698 -0.6710 -1.7069 -0.4885
  135MOL0     H18218  10.179  10.038   8.544  0.4774  0.0608 -0.2005
  135MOL0     H18219   9.966  10.250   8.599 -2.7224 -0.6453 -0.5671
  135MOL0     H18220   9.969  10.118   8.488  0.5999 -1.8453  0.9734
  135MOL0     H18221   9.868   9.924   8.863  0.5029 -2.0300 -0.7134
  135MOL0     H18222  10.506  10.549   8.294  1.1241  1.8988 -0.9354
  135MOL0     H18223  10.780  10.603   8.077  2.5554 -2.6128  1.6321
  135MOL0     H18224  10.646  10.668   8.164 -1.0594 -2.1782 -1.3946
  135MOL0     H18225  10.797  10.682   8.248 -3.3943  3.3695  0.2035
  136MOL0     O18226   4.793   8.892   5.756 -0.5867 -0.2207 -0.5429
  136MOL0     C18227   4.757   8.962   5.656  0.4436 -0.3816 -0.6176
  136MOL0     O18228   4.837   9.036   5.581 -0.0913  0.0076  0.2750
  136MOL0     C18229   4.973   9.040   5.616  0.1547  0.3199  1.1635
  136MOL0     C18230   5.031   9.050   5.745  0.2700  0.5119 -0.1939
  136MOL0     C18231   5.171   9.056   5.765  0.2488  0.4060 -0.1404
  136MOL0     C18232   5.254   9.061   5.645  0.3460 -0.2278  0.3472
  136MOL0     O18233   5.388   9.057   5.680  0.2226  0.2972 -0.3034
  136MOL0     C18234   5.486   9.068   5.579 -0.7884 -0.7454 -0.1059
  136MOL0     C18235   5.605   9.151   5.648 -1.1301  0.1702  1.5052
  136MOL0     C18236   5.744   9.090   5.637  0.8396  0.4471  0.2053
  136MOL0     C18237   5.853   9.151   5.721 -0.1806  0.8956 -1.0181
  136MOL0     C18238   5.975   9.058   5.738  0.0559 -0.3176  0.1460
  136MOL0     C18239   6.102   9.139   5.767  0.0696  0.7919  0.2624
  136MOL0     C18240   6.225   9.042   5.782  0.1924 -0.5999  0.3135
  136MOL0     C18241   6.345   9.134   5.816  0.0056 -0.1148 -0.3445
  136MOL0     N18242   6.459   9.064   5.868 -0.3622 -0.0822 -0.4988
  136MOL0     C18243   6.586   9.062   5.818  0.4114  0.6026 -0.5364
  136MOL0     C18244   6.650   8.994   5.920  0.2384  0.1979  0.7177
  136MOL0     C18245   6.796   8.970   5.932  0.2176 -0.2261 -0.9465
  136MOL0     C18246   6.836   8.836   5.879  0.7545  0.0359  0.1839
  136MOL0     C18247   6.824   8.824   5.728  0.8249  0.4298  0.3956
  136MOL0     C18248   6.812   8.682   5.676  0.0239  0.8845 -0.6856
  136MOL0     O18249   6.728   8.675   5.567  0.5979  0.1417 -0.6054
  136MOL0     C18250   6.594   8.666   5.594  0.9767 -0.0602 -0.5585
  136MOL0     C18251   6.509   8.628   5.488 -0.1859  0.3644 -0.2652
  136MOL0     C18252   6.370   8.633   5.491 -0.2270 -1.0557 -0.4228
  136MOL0     C18253   6.312   8.674   5.609 -0.1968 -0.2285 -0.5355
  136MOL0     C18254   6.167   8.696   5.616  0.7493 -0.8762 -0.3594
  136MOL0     O18255   6.108   8.714   5.743 -0.3039  0.2736  0.7493
  136MOL0     C18256   5.970   8.726   5.768 -0.1530 -0.7161 -0.0611
  136MOL0     C18257   5.867   8.751   5.667 -0.6558  1.2132 -0.7174
  136MOL0     C18258   5.733   8.728   5.702  0.3512 -1.0285 -0.5338
  136MOL0     C18259   5.695   8.730   5.836 -0.8592  0.3335 -0.1924
  136MOL0     O18260   5.567   8.736   5.877  0.6753 -0.3702  0.1709
  136MOL0     C18261   5.457   8.714   5.786 -0.1133  0.4566  0.0809
  136MOL0     C18262   5.330   8.710   5.874 -0.1026  0.4063 -0.2857
  136MOL0     C18263   5.215   8.662   5.788  0.0298  0.0287  0.0660
  136MOL0     C18264   5.075   8.685   5.862  0.4003  0.2034 -0.2649
  136MOL0     C18265   4.961   8.586   5.827  0.8493 -0.1402 -0.2392
  136MOL0     C18266   4.858   8.589   5.941 -0.1564 -0.9121 -0.0540
  136MOL0     C18267   4.742   8.489   5.901  0.0989 -0.0606  0.1468
  136MOL0     C18268   4.625   8.505   5.997  0.0255 -0.5226  0.8706
  136MOL0    Cl18269   4.488   8.415   5.936 -0.3140  0.1185 -0.0971
  136MOL0     C18270   5.792   8.726   5.937  0.8277  0.5102  0.4126
  136MOL0     C18271   5.925   8.718   5.898 -1.2394  0.2411 -0.9914
  136MOL0     O18272   6.107   8.685   5.512 -0.4901  1.2405  0.5330
  136MOL0     C18273   6.388   8.701   5.724 -0.8490  0.6669  0.2897
  136MOL0     C18274   6.529   8.687   5.719  0.3098  0.1704  0.0060
  136MOL0     N18275   6.565   8.960   6.023 -0.7552  0.2435 -0.8839
  136MOL0     N18276   6.448   9.009   5.991 -0.9472 -0.2341  0.3405
  136MOL0     C18277   5.191   9.051   5.522 -0.4270 -0.9573 -0.4555
  136MOL0     C18278   5.056   9.049   5.506 -0.3795  0.1465 -0.5218
  136MOL0     C18279   4.622   8.958   5.608  0.5667 -0.5464  0.4949
  136MOL0     C18280   4.602   8.933   5.471 -0.0125  0.1648  0.1410
  136MOL0     C18281   4.477   8.907   5.415 -0.2336  1.0004  0.3149
  136MOL0     C18282   4.363   8.904   5.499 -0.3493 -0.7543  0.2339
  136MOL0     O18283   4.230   8.886   5.447 -0.0194  0.9886 -0.2468
  136MOL0     C18284   4.209   8.814   5.322 -1.0098 -0.2140 -0.0316
  136MOL0     C18285   4.059   8.763   5.309 -0.5781 -0.3134  0.2415
  136MOL0     C18286   4.004   8.715   5.451  0.5925 -0.4003 -0.2253
  136MOL0     C18287   3.862   8.661   5.438  0.2380  0.4574  0.4774
  136MOL0     C18288   3.827   8.562   5.539  0.4176  0.5143 -0.6132
  136MOL0     C18289   3.797   8.476   5.624  0.9023  0.2592 -0.0663
  136MOL0     C18290   4.376   8.936   5.635  0.1716  0.1928 -0.1002
  136MOL0     C18291   4.506   8.964   5.692 -0.1100 -0.1365 -0.2673
  136MOL0     C18292   4.513   8.995   5.839  0.3379 -0.1464  0.2670
  136MOL0     H18293   4.977   9.046   5.839  1.8195  0.3788  0.7155
  136MOL0     H18294   5.213   9.048   5.865  0.0999 -1.1079 -0.1725
  136MOL0     H18295   5.529   8.970   5.554  3.0412  0.2856  1.8005
  136MOL0     H18296   5.448   9.129   5.497 -1.5242 -0.1712  0.6499
  136MOL0     H18297   5.580   9.181   5.750 -2.0335  0.8245  1.1016
  136MOL0     H18298   5.610   9.242   5.589 -3.5699 -1.3956 -1.4058
  136MOL0     H18299   5.768   9.094   5.530 -1.2911 -2.4022 -0.4840
  136MOL0     H18300   5.739   8.983   5.658  0.0415  0.3713 -0.3294
  136MOL0     H18301   5.877   9.241   5.664  0.4251  1.4255  0.0334
  136MOL0     H18302   5.815   9.185   5.818 -1.2938  0.6947 -1.3782
  136MOL0     H18303   5.943   8.993   5.821 -0.8671  1.5357  1.3254
  136MOL0     H18304   5.990   8.995   5.650 -1.3694 -2.8540  1.5623
  136MOL0     H18305   6.114   9.202   5.680  0.8502 -0.2279 -0.3888
  136MOL0     H18306   6.086   9.196   5.859 -0.2762 -0.0969  0.7707
  136MOL0     H18307   6.242   8.999   5.682 -2.5482  1.8397 -1.3726
  136MOL0     H18308   6.209   8.964   5.857  4.6562  1.4804  3.9127
  136MOL0     H18309   6.380   9.183   5.725  1.6856 -1.9497 -0.7726
  136MOL0     H18310   6.314   9.213   5.885  1.4899  0.1921  0.0161
  136MOL0     H18311   6.627   9.107   5.729 -0.3546  2.2439 -0.0940
  136MOL0     H18312   6.844   9.056   5.884 -1.1733  1.8084  1.0893
  136MOL0     H18313   6.817   8.972   6.039 -1.9437 -2.6058 -0.4078
  136MOL0     H18314   6.937   8.816   5.916  0.6423 -0.2943  0.3083
  136MOL0     H18315   6.757   8.773   5.919 -0.9017  1.9160  0.0312
  136MOL0     H18316   6.913   8.874   5.689  2.7421 -0.8899  2.7811
  136MOL0     H18317   6.745   8.885   5.682  0.4332 -1.3195 -1.4035
  136MOL0     H18318   6.789   8.609   5.755 -0.3240  1.1881 -0.5074
  136MOL0     H18319   6.912   8.653   5.639 -0.2121 -0.6164 -0.2166
  136MOL0     H18320   6.555   8.587   5.398 -1.1948 -0.1514 -0.5624
  136MOL0     H18321   6.323   8.610   5.396  1.6633  0.3212 -1.7536
  136MOL0     H18322   5.891   8.769   5.563  0.7775  4.4793  0.0373
  136MOL0     H18323   5.661   8.746   5.622  1.6925  0.6382 -1.4530
  136MOL0     H18324   5.450   8.796   5.715 -2.1300  1.5894  1.4687
  136MOL0     H18325   5.464   8.618   5.734 -2.8439 -0.2683  0.8711
  136MOL0     H18326   5.353   8.638   5.954  2.5867  1.4765  0.0253
  136MOL0     H18327   5.311   8.809   5.918  0.4546  0.4752 -0.1872
  136MOL0     H18328   5.216   8.714   5.692  1.2391 -0.0510  0.0198
  136MOL0     H18329   5.231   8.554   5.780  2.4378 -0.1299  4.0577
  136MOL0     H18330   5.039   8.787   5.842 -0.6005 -0.1457 -0.2818
  136MOL0     H18331   5.092   8.676   5.970  1.3760  0.9270 -0.3354
  136MOL0     H18332   4.987   8.480   5.821  0.9645 -0.0583 -1.3826
  136MOL0     H18333   4.922   8.618   5.730 -2.4392  0.6746  1.2068
  136MOL0     H18334   4.917   8.568   6.031  1.0741  1.0251 -0.3417
  136MOL0     H18335   4.821   8.692   5.948 -0.6674 -1.0913 -0.1028
  136MOL0     H18336   4.784   8.389   5.916  1.0210 -0.3235 -3.3294
  136MOL0     H18337   4.712   8.504   5.797 -1.7137 -0.8924  0.5183
  136MOL0     H18338   4.645   8.481   6.102 -0.1127 -0.1703  0.9798
  136MOL0     H18339   4.590   8.609   6.005 -2.3223 -1.0025 -1.6807
  136MOL0     H18340   5.748   8.717   6.036 -0.0422 -2.5791 -0.1718
  136MOL0     H18341   5.998   8.707   5.976 -1.2715  1.8464 -0.7016
  136MOL0     H18342   6.335   8.715   5.817 -3.1885 -1.0782 -0.6613
  136MOL0     H18343   6.575   8.704   5.816  0.1986 -0.1578  0.1165
  136MOL0     H18344   5.262   9.055   5.440 -0.2381 -0.8535 -0.2884
  136MOL0     H18345   5.027   9.058   5.401 -1.1728  2.5188 -0.1499
  136MOL0     H18346   4.688   8.930   5.405  0.1243  2.6852  0.1068
  136MOL0     H18347   4.480   8.886   5.309 -0.9647  1.4288  0.2049
  136MOL0     H18348   4.280   8.732   5.322 -1.0413 -0.2506  0.8824
  136MOL0     H18349   4.236   8.888   5.246 -0.9396  1.6852  1.7109
  136MOL0     H18350   4.045   8.697   5.223 -1.8803  1.5756 -1.0806
  136MOL0     H18351   3.993   8.840   5.268 -0.7889 -1.2555 -1.2640
  136MOL0     H18352   4.002   8.797   5.524 -2.0199  0.4353 -1.1321
  136MOL0     H18353   4.063   8.633   5.493 -1.9853 -1.2512  2.0132
  136MOL0     H18354   3.789   8.743   5.434  0.9656  1.0795 -1.8601
  136MOL0     H18355   3.851   8.599   5.348  0.3584  0.9745  0.1006
  136MOL0     H18356   3.760   8.411   5.700  2.5998 -0.5389  0.1168
  136MOL0     H18357   4.287   8.939   5.697 -1.6791 -3.7736 -2.1810
  136MOL0     H18358   4.418   9.028   5.882 -0.7557 -2.6548 -0.0372
  136MOL0     H18359   4.548   8.907   5.895  1.5584 -0.1687 -0.4894
  136MOL0     H18360   4.591   9.067   5.862  0.4599 -0.4397  0.7944
  137MOL0     O18361   7.224   1.634   0.090 -0.4525  0.1869 -0.2915
  137MOL0     C18362   7.181   1.655  -0.022  0.5134  0.0740 -0.4130
  137MOL0     O18363   7.256   1.650  -0.130 -0.2314  0.0219 -0.2818
  137MOL0     C18364   7.390   1.636  -0.124  0.4068 -0.2180  0.4721
  137MOL0     C18365   7.442   1.520  -0.187 -0.9751 -0.0058  0.8763
  137MOL0     C18366   7.583   1.500  -0.185  0.2903  0.6793 -0.0829
  137MOL0     C18367   7.668   1.592  -0.127 -0.2100  0.0095 -1.2111
  137MOL0     O18368   7.806   1.593  -0.132 -0.3952 -0.3209 -0.1612
  137MOL0     C18369   7.869   1.487  -0.208 -0.6555  0.3316 -0.8119
  137MOL0     C18370   7.920   1.388  -0.100  1.0464 -0.0779  0.5647
  137MOL0     C18371   8.010   1.274  -0.163 -0.1091  0.4746 -0.9107
  137MOL0     C18372   8.077   1.191  -0.053 -0.2477  0.5387  0.1128
  137MOL0     C18373   8.212   1.257   0.002 -0.6189 -0.5821 -0.0021
  137MOL0     C18374   8.274   1.169   0.104 -0.5517 -0.1844  0.0671
  137MOL0     C18375   8.413   1.218   0.140  0.4808 -0.1076  0.0899
  137MOL0     C18376   8.482   1.151   0.254  0.3936 -0.5737  0.0902
  137MOL0     N18377   8.627   1.174   0.258 -0.3809 -0.9186 -0.0417
  137MOL0     C18378   8.711   1.145   0.155 -0.4934  0.0264  0.0753
  137MOL0     C18379   8.842   1.159   0.199  0.3685  0.4719 -0.8398
  137MOL0     C18380   8.971   1.145   0.117 -0.0063 -0.3581  0.1306
  137MOL0     C18381   8.995   1.003   0.068  1.5330 -0.5613 -0.1355
  137MOL0     C18382   9.122   1.001  -0.010 -0.2302  0.3887  0.7371
  137MOL0     C18383   9.178   0.864  -0.065 -0.3695  0.8699 -0.8108
  137MOL0     O18384   9.218   0.775   0.043  0.0771 -0.0174  0.5511
  137MOL0     C18385   9.143   0.662   0.064  0.6460 -0.6605 -0.0606
  137MOL0     C18386   9.009   0.639   0.020  1.0557  0.1562  0.4166
  137MOL0     C18387   8.934   0.518   0.051  0.9464 -0.5909 -0.3778
  137MOL0     C18388   8.996   0.431   0.145  0.0911  0.0292 -0.9089
  137MOL0     C18389   8.911   0.318   0.188 -0.5794  0.0634 -0.1574
  137MOL0     O18390   8.782   0.302   0.140 -0.4518 -0.0076 -0.0777
  137MOL0     C18391   8.724   0.184   0.176  0.7796 -0.1517  0.1274
  137MOL0     C18392   8.740   0.064   0.103  0.2590  1.0381  0.1411
  137MOL0     C18393   8.678  -0.060   0.152 -0.3124  0.1627  1.2825
  137MOL0     C18394   8.592  -0.053   0.263 -0.6494 -0.3828 -0.9905
  137MOL0     O18395   8.513  -0.156   0.315  0.8384 -0.4953  0.4562
  137MOL0     C18396   8.499  -0.270   0.229  0.7735 -0.2272 -0.3938
  137MOL0     C18397   8.403  -0.376   0.293  0.2739 -0.0829  0.0619
  137MOL0     C18398   8.404  -0.382   0.444  0.1803  0.1716  0.5920
  137MOL0     C18399   8.319  -0.500   0.504  0.6510 -1.2886  0.0149
  137MOL0     C18400   8.331  -0.515   0.660  0.1181  0.3214 -0.0976
  137MOL0     C18401   8.226  -0.408   0.715  0.2555  0.2058 -0.3213
  137MOL0     C18402   8.205  -0.426   0.869 -0.7990 -0.2406 -1.0698
  137MOL0     C18403   8.098  -0.331   0.925  0.3366 -0.1633  1.1375
  137MOL0    Cl18404   7.946  -0.367   0.853 -0.1402 -0.5334 -0.2271
  137MOL0     C18405   8.575   0.068   0.328  1.0861 -0.1272  0.1167
  137MOL0     C18406   8.638   0.185   0.292 -0.1359 -0.2331  0.6866
  137MOL0     O18407   8.967   0.245   0.275 -0.0049  0.0180  0.4379
  137MOL0     C18408   9.133   0.452   0.188 -0.2176 -0.5202 -0.2952
  137MOL0     C18409   9.206   0.568   0.154  0.3586  0.0862  0.5248
  137MOL0     N18410   8.837   1.206   0.329  0.9484 -0.3176 -0.3979
  137MOL0     N18411   8.708   1.216   0.362 -0.1501 -0.6656  0.3946
  137MOL0     C18412   7.608   1.695  -0.056 -0.0823  0.1397  0.6655
  137MOL0     C18413   7.465   1.724  -0.058 -0.2579 -0.7192  0.1394
  137MOL0     C18414   7.033   1.683  -0.042  0.9325 -0.1486 -0.1273
  137MOL0     C18415   6.963   1.740   0.067 -0.1770 -0.7379  0.2661
  137MOL0     C18416   6.828   1.794   0.055 -0.2991  0.2922 -0.2332
  137MOL0     C18417   6.762   1.787  -0.068  0.6978  0.2409 -0.4517
  137MOL0     O18418   6.632   1.835  -0.071 -0.2174 -1.1663 -0.6897
  137MOL0     C18419   6.535   1.810  -0.175 -0.0262  0.1630 -0.4495
  137MOL0     C18420   6.501   1.936  -0.252 -1.1553  0.9113  0.0630
  137MOL0     C18421   6.449   2.051  -0.168  0.0639  0.2342  0.9424
  137MOL0     C18422   6.326   2.012  -0.082 -0.3797 -0.2261 -1.2357
  137MOL0     C18423   6.217   1.944  -0.158 -0.7199 -0.5379 -0.7634
  137MOL0     C18424   6.115   1.898  -0.206  0.7405 -0.4911 -0.2458
  137MOL0     C18425   6.829   1.724  -0.181  0.6550 -0.6044 -0.1550
  137MOL0     C18426   6.965   1.683  -0.169 -0.0033 -0.2196 -0.4897
  137MOL0     C18427   7.031   1.643  -0.301  0.6796 -0.4914 -0.0615
  137MOL0     H18428   7.377   1.445  -0.232  0.4022 -0.6896 -0.0244
  137MOL0     H18429   7.624   1.425  -0.251 -1.8397  0.6995 -1.5154
  137MOL0     H18430   7.816   1.445  -0.294 -1.9209  1.0417 -0.4108
  137MOL0     H18431   7.965   1.522  -0.246 -0.0037 -1.6614 -1.1417
  137MOL0     H18432   7.833   1.340  -0.054  0.4377 -0.6809 -1.1418
  137MOL0     H18433   7.982   1.445  -0.029 -0.8586 -0.4478  2.6501
  137MOL0     H18434   8.092   1.311  -0.225  1.1303  0.3349  0.5865
  137MOL0     H18435   7.949   1.199  -0.213  0.3064 -0.3645 -0.1913
  137MOL0     H18436   8.012   1.170   0.033 -0.0210 -0.1752  0.1199
  137MOL0     H18437   8.104   1.089  -0.082 -1.2082 -0.4551  2.4063
  137MOL0     H18438   8.278   1.261  -0.086 -0.7915  2.1389 -0.0863
  137MOL0     H18439   8.196   1.361   0.033 -3.9107 -0.9707 -0.0319
  137MOL0     H18440   8.217   1.157   0.197  0.9129 -0.6069  0.9530
  137MOL0     H18441   8.290   1.070   0.062  0.2253 -0.5732  1.2053
  137MOL0     H18442   8.409   1.324   0.169 -0.1683  0.5813 -2.2557
  137MOL0     H18443   8.474   1.208   0.050  0.7255 -2.5148  0.4562
  137MOL0     H18444   8.442   1.191   0.348  1.4017  1.1179 -0.1565
  137MOL0     H18445   8.463   1.044   0.265 -4.2177  0.0804  0.5080
  137MOL0     H18446   8.676   1.109   0.059 -3.3546 -0.0561  1.0438
  137MOL0     H18447   8.952   1.209   0.030  1.4263 -0.4665 -0.2808
  137MOL0     H18448   9.050   1.189   0.179 -0.2468 -1.6316  1.3940
  137MOL0     H18449   8.999   0.935   0.154 -0.4834 -2.7560 -1.6293
  137MOL0     H18450   8.911   0.969   0.006  0.0462 -0.0598  1.5100
  137MOL0     H18451   9.208   1.050   0.035  0.6745  0.6137 -1.1237
  137MOL0     H18452   9.109   1.053  -0.106 -0.4461  1.4828  1.3433
  137MOL0     H18453   9.272   0.877  -0.118 -0.2911  2.5660 -0.2911
  137MOL0     H18454   9.113   0.814  -0.138 -0.4631  0.2586 -0.3152
  137MOL0     H18455   8.951   0.707  -0.041  1.4786 -0.7293 -1.0055
  137MOL0     H18456   8.832   0.498   0.020  0.5199 -1.5266  1.4812
  137MOL0     H18457   8.815   0.057   0.025  2.8604 -1.7723  2.6347
  137MOL0     H18458   8.703  -0.159   0.114  0.6843  0.7412  0.3780
  137MOL0     H18459   8.461  -0.243   0.130 -1.2120  1.3346  0.7196
  137MOL0     H18460   8.599  -0.315   0.231  0.6771 -0.4451  1.2462
  137MOL0     H18461   8.301  -0.370   0.253  0.3006 -3.0422 -0.7006
  137MOL0     H18462   8.442  -0.472   0.258  0.4634 -0.8082  2.1545
  137MOL0     H18463   8.505  -0.394   0.483  0.9760  2.1354 -0.6869
  137MOL0     H18464   8.359  -0.286   0.471 -2.3422 -0.5793 -0.5540
  137MOL0     H18465   8.364  -0.590   0.463  1.9265 -1.3831  1.4994
  137MOL0     H18466   8.214  -0.492   0.475  0.0259  1.3466  2.5094
  137MOL0     H18467   8.430  -0.500   0.704 -0.8906  0.1360  2.3892
  137MOL0     H18468   8.291  -0.613   0.689  1.7990 -0.7545 -1.2285
  137MOL0     H18469   8.255  -0.306   0.688  0.8561  0.0908 -0.1101
  137MOL0     H18470   8.128  -0.430   0.671 -0.3324 -1.9329  1.8396
  137MOL0     H18471   8.300  -0.397   0.914 -0.5896 -1.2174 -0.8538
  137MOL0     H18472   8.178  -0.529   0.896 -3.6572 -0.2809 -3.5153
  137MOL0     H18473   8.106  -0.347   1.033  1.2093 -0.9794  0.9651
  137MOL0     H18474   8.131  -0.234   0.887 -2.5156 -0.0889 -1.5991
  137MOL0     H18475   8.506   0.068   0.412 -0.0504  0.4043 -0.7921
  137MOL0     H18476   8.610   0.273   0.347 -1.9611 -0.5518  0.3415
  137MOL0     H18477   9.177   0.377   0.253 -0.4583 -1.9865 -1.7636
  137MOL0     H18478   9.303   0.579   0.200  0.5622 -1.4843  0.4920
  137MOL0     H18479   7.679   1.757  -0.002  1.4487 -1.1806  0.2383
  137MOL0     H18480   7.428   1.813  -0.009 -0.4691 -0.9216  0.3536
  137MOL0     H18481   7.013   1.745   0.163 -0.1291  0.2699  0.2010
  137MOL0     H18482   6.778   1.830   0.144 -0.3013 -0.3762  0.0397
  137MOL0     H18483   6.440   1.774  -0.134  0.8768 -0.2579  1.4113
  137MOL0     H18484   6.571   1.728  -0.237  0.3062 -0.2278  0.2525
  137MOL0     H18485   6.429   1.916  -0.332 -2.5607  2.9281  0.7560
  137MOL0     H18486   6.593   1.966  -0.302 -1.6041 -0.1417 -1.4607
  137MOL0     H18487   6.426   2.141  -0.226  2.1607  0.0681 -0.2494
  137MOL0     H18488   6.537   2.087  -0.113  1.3705  1.5907 -1.8196
  137MOL0     H18489   6.368   1.946  -0.007  0.6106  1.5666 -0.1504
  137MOL0     H18490   6.274   2.083  -0.017 -1.9457 -0.5128 -2.1102
  137MOL0     H18491   6.029   1.851  -0.250 -0.9718  1.6360  0.6554
  137MOL0     H18492   6.789   1.713  -0.282  1.2709 -3.2238 -0.1886
  137MOL0     H18493   7.072   1.542  -0.297  1.1537 -0.2684  1.3352
  137MOL0     H18494   6.969   1.662  -0.389  0.2840 -1.9159 -0.1171
  137MOL0     H18495   7.124   1.700  -0.304  2.8144 -3.7283  0.4492
  138MOL0     O18496   7.643   1.599   5.170 -0.4240 -0.4501 -0.4304
  138MOL0     C18497   7.725   1.613   5.259 -0.5457  0.1590  0.4839
  138MOL0     O18498   7.704   1.591   5.387  0.1467 -0.0600 -0.1766
  138MOL0     C18499   7.581   1.547   5.427  0.7410  0.3697 -0.2070
  138MOL0     C18500   7.455   1.604   5.396 -0.1512  0.5970  0.6223
  138MOL0     C18501   7.341   1.542   5.445  0.1644 -0.1014  0.0945
  138MOL0     C18502   7.347   1.441   5.544  0.5401 -0.1322  0.3343
  138MOL0     O18503   7.241   1.368   5.593 -0.1829  0.3575  0.4421
  138MOL0     C18504   7.109   1.413   5.569 -0.1650 -0.6387 -0.6227
  138MOL0     C18505   7.002   1.356   5.670  0.1720  0.6257  0.1858
  138MOL0     C18506   6.862   1.414   5.664  0.2940  0.2544 -0.4312
  138MOL0     C18507   6.765   1.343   5.762  0.2313  0.6775 -0.3169
  138MOL0     C18508   6.637   1.432   5.779 -0.0402  0.9848  0.2173
  138MOL0     C18509   6.558   1.373   5.893  0.1168  0.5576  0.2856
  138MOL0     C18510   6.413   1.441   5.916 -0.7767  0.3101 -0.3766
  138MOL0     C18511   6.336   1.363   6.024 -0.3767 -0.0149  0.3312
  138MOL0     N18512   6.370   1.394   6.167  0.0470  0.1642 -0.2908
  138MOL0     C18513   6.290   1.384   6.287 -0.2353 -0.0401 -0.4904
  138MOL0     C18514   6.371   1.431   6.385  0.7468  0.0173 -0.2353
  138MOL0     C18515   6.343   1.471   6.522  1.0571 -0.2247  0.1244
  138MOL0     C18516   6.300   1.618   6.529 -0.6745  0.5102 -0.4977
  138MOL0     C18517   6.420   1.714   6.525  0.1720  0.2120 -0.3785
  138MOL0     C18518   6.527   1.675   6.625 -0.4966 -0.0482 -0.3000
  138MOL0     O18519   6.625   1.776   6.633 -0.1696 -0.6415 -0.0634
  138MOL0     C18520   6.718   1.796   6.535  0.9074  0.2396  0.6463
  138MOL0     C18521   6.789   1.916   6.541  0.9540 -0.4602  0.5666
  138MOL0     C18522   6.892   1.949   6.450 -0.2443  0.5441 -1.1919
  138MOL0     C18523   6.924   1.861   6.343  0.4550 -1.3458  0.5361
  138MOL0     C18524   7.022   1.900   6.245 -1.0222 -0.4235  0.1832
  138MOL0     O18525   7.089   2.019   6.270 -0.7015  0.0605  0.1722
  138MOL0     C18526   7.134   2.095   6.166  0.1395 -0.4361 -0.2565
  138MOL0     C18527   7.108   2.073   6.032 -0.3344  0.1992 -0.4274
  138MOL0     C18528   7.171   2.139   5.924  0.1062 -0.0757  0.0351
  138MOL0     C18529   7.271   2.227   5.950  0.1990  0.3471  0.6077
  138MOL0     O18530   7.347   2.293   5.853  0.1498 -0.7287 -0.4480
  138MOL0     C18531   7.347   2.238   5.723 -0.2896  0.0594 -0.4031
  138MOL0     C18532   7.457   2.291   5.625 -0.1422  0.2505 -0.6276
  138MOL0     C18533   7.594   2.230   5.662 -0.4592 -0.0923 -0.3858
  138MOL0     C18534   7.699   2.300   5.577  0.9121  0.0403  1.0441
  138MOL0     C18535   7.841   2.252   5.589  0.2394 -0.9236  0.9286
  138MOL0     C18536   7.896   2.304   5.724  0.1796  0.2106  0.4755
  138MOL0     C18537   8.027   2.243   5.747  0.1102  0.1736  0.1151
  138MOL0     C18538   8.033   2.092   5.781  0.1793 -1.4925  0.1991
  138MOL0    Cl18539   7.957   2.062   5.938 -0.0879  0.1100  0.4610
  138MOL0     C18540   7.292   2.266   6.082 -0.2251 -0.1420  0.6146
  138MOL0     C18541   7.229   2.202   6.191  0.6952  0.5706 -0.7032
  138MOL0     O18542   7.063   1.822   6.155 -0.0254 -0.4404  0.4401
  138MOL0     C18543   6.856   1.736   6.339  0.7942 -0.1738 -0.0477
  138MOL0     C18544   6.756   1.701   6.433  0.2912  0.0183  0.3247
  138MOL0     N18545   6.489   1.477   6.331  0.1788  0.5377 -0.6594
  138MOL0     N18546   6.485   1.455   6.209 -0.4317 -0.2098 -0.0019
  138MOL0     C18547   7.470   1.385   5.579 -0.3030  0.0971 -0.2480
  138MOL0     C18548   7.583   1.436   5.520 -0.1363  0.0004  1.1293
  138MOL0     C18549   7.859   1.663   5.211 -0.9878 -0.0940 -0.0140
  138MOL0     C18550   7.966   1.652   5.301  0.2652 -0.9788 -0.1870
  138MOL0     C18551   8.086   1.704   5.270 -0.2729 -0.6525  0.4507
  138MOL0     C18552   8.117   1.760   5.147  0.3125  0.8691 -1.0521
  138MOL0     O18553   8.246   1.807   5.131 -0.2200  0.8128 -0.6685
  138MOL0     C18554   8.287   1.840   4.995  0.1899  0.1973 -0.0013
  138MOL0     C18555   8.314   1.996   4.989  0.1880  0.0556 -0.2008
  138MOL0     C18556   8.348   2.055   5.128 -0.3118 -0.4377 -0.1098
  138MOL0     C18557   8.389   2.205   5.112  1.0286  0.1971 -0.8918
  138MOL0     C18558   8.275   2.293   5.086  0.4703  0.3252 -0.1891
  138MOL0     C18559   8.184   2.364   5.032 -0.0383  0.0867  0.7952
  138MOL0     C18560   8.007   1.776   5.056  0.4239 -1.0476  0.5106
  138MOL0     C18561   7.887   1.711   5.081  0.4201  0.5458 -0.2533
  138MOL0     C18562   7.789   1.706   4.972 -0.7840  0.3754  0.6087
  138MOL0     H18563   7.454   1.685   5.324  0.0439 -0.4691 -0.6133
  138MOL0     H18564   7.252   1.597   5.418  1.5430  1.7579 -0.8565
  138MOL0     H18565   7.123   1.522   5.577  2.6006 -0.9114 -0.8187
  138MOL0     H18566   7.086   1.386   5.466 -1.3966 -0.0407 -0.5306
  138MOL0     H18567   7.040   1.376   5.770 -0.7046 -0.3268  0.7267
  138MOL0     H18568   6.999   1.248   5.648 -0.2835  1.0684 -2.3009
  138MOL0     H18569   6.812   1.420   5.567 -1.0414 -0.0329  0.2221
  138MOL0     H18570   6.861   1.516   5.704 -2.6517  0.0430  0.2539
  138MOL0     H18571   6.743   1.243   5.725 -0.7055  1.4623 -1.9984
  138MOL0     H18572   6.809   1.328   5.861 -0.8881  1.0156  0.2563
  138MOL0     H18573   6.668   1.526   5.824  1.3410  1.0142 -0.7393
  138MOL0     H18574   6.571   1.444   5.693 -0.6344 -0.0320  0.5081
  138MOL0     H18575   6.537   1.266   5.879  0.7215  0.5081 -0.2587
  138MOL0     H18576   6.621   1.375   5.982 -1.3805  1.3087  1.3797
  138MOL0     H18577   6.360   1.444   5.821  1.5576 -2.3418 -1.9300
  138MOL0     H18578   6.426   1.543   5.954  1.0452 -0.4805  1.3171
  138MOL0     H18579   6.231   1.390   6.018 -0.5426  0.3081  3.3094
  138MOL0     H18580   6.346   1.257   5.996  0.0715 -0.2963  1.4812
  138MOL0     H18581   6.189   1.347   6.299  1.0364 -3.3742  1.1363
  138MOL0     H18582   6.264   1.409   6.565  1.0240 -0.6315 -0.5111
  138MOL0     H18583   6.421   1.432   6.587 -1.3273 -5.3038  0.4033
  138MOL0     H18584   6.231   1.629   6.445 -3.5392 -0.6114  1.5504
  138MOL0     H18585   6.254   1.639   6.626  2.3879  0.8649  1.0183
  138MOL0     H18586   6.377   1.812   6.546 -1.2304 -0.3427 -0.5712
  138MOL0     H18587   6.459   1.717   6.423  0.6561  0.9097 -0.1796
  138MOL0     H18588   6.567   1.574   6.622 -1.4334 -0.4106 -1.5143
  138MOL0     H18589   6.480   1.682   6.724  2.4235 -1.4073  1.2997
  138MOL0     H18590   6.774   1.976   6.630 -0.7536 -1.7163  1.1780
  138MOL0     H18591   6.938   2.047   6.451 -0.6008  0.7376 -2.0775
  138MOL0     H18592   7.034   1.997   6.009  1.8628 -1.5245 -2.3138
  138MOL0     H18593   7.137   2.112   5.824  0.6272  0.8146 -0.3953
  138MOL0     H18594   7.351   2.129   5.725 -0.8337 -0.0342 -2.3768
  138MOL0     H18595   7.255   2.271   5.674  0.9788  0.7312 -2.4524
  138MOL0     H18596   7.429   2.268   5.522  0.1406 -1.2490 -0.3913
  138MOL0     H18597   7.465   2.400   5.620 -0.3422  0.2390 -1.2905
  138MOL0     H18598   7.619   2.256   5.765 -3.3429 -1.4471  0.7612
  138MOL0     H18599   7.584   2.121   5.660 -1.4243 -0.0066 -0.6623
  138MOL0     H18600   7.703   2.408   5.592  0.3277  0.3249 -0.6209
  138MOL0     H18601   7.672   2.277   5.473 -0.0732 -0.3636  1.3736
  138MOL0     H18602   7.911   2.306   5.526  0.4185  1.2906  2.8878
  138MOL0     H18603   7.836   2.144   5.570 -2.1778 -0.6211 -0.4728
  138MOL0     H18604   7.900   2.413   5.718  0.4174  0.2232  0.8351
  138MOL0     H18605   7.838   2.283   5.815  3.0116 -1.8842  1.9471
  138MOL0     H18606   8.079   2.293   5.829  1.3199 -0.0146 -0.5149
  138MOL0     H18607   8.089   2.265   5.660 -0.1715 -1.0534 -0.4176
  138MOL0     H18608   7.973   2.042   5.704  0.3610  0.9473 -1.6263
  138MOL0     H18609   8.136   2.055   5.775  0.0251 -2.6059  2.9207
  138MOL0     H18610   7.375   2.332   6.107  0.4811 -0.6497 -0.3042
  138MOL0     H18611   7.248   2.229   6.295 -2.7374 -2.8459  1.0463
  138MOL0     H18612   6.890   1.679   6.254  1.7452  2.2088 -1.3532
  138MOL0     H18613   6.705   1.606   6.420 -1.6401  0.7005  2.2165
  138MOL0     H18614   7.479   1.306   5.654 -2.8454 -0.2667 -0.2549
  138MOL0     H18615   7.683   1.395   5.531  0.3600  0.3036 -1.6465
  138MOL0     H18616   7.957   1.605   5.399  3.9282 -0.0930  0.7473
  138MOL0     H18617   8.175   1.708   5.331  0.9342 -2.8674 -1.0225
  138MOL0     H18618   8.222   1.799   4.917 -0.0439 -2.5674  1.5102
  138MOL0     H18619   8.386   1.799   4.972  0.4386  1.1537 -0.6771
  138MOL0     H18620   8.231   2.050   4.944  0.0646 -0.4626 -0.5976
  138MOL0     H18621   8.402   2.009   4.925 -0.3474  1.3050 -0.7070
  138MOL0     H18622   8.436   2.000   5.165 -0.1712  0.0154  0.2493
  138MOL0     H18623   8.265   2.051   5.199 -0.2171  1.8811  0.2011
  138MOL0     H18624   8.428   2.237   5.209 -1.3030  1.5600 -0.3263
  138MOL0     H18625   8.471   2.216   5.041  1.4364  0.4485 -0.3906
  138MOL0     H18626   8.099   2.421   5.002  0.0438  0.3879  1.1295
  138MOL0     H18627   8.013   1.836   4.965  0.3201  0.2157  1.3156
  138MOL0     H18628   7.837   1.724   4.875 -0.0111  0.2851  0.9670
  138MOL0     H18629   7.744   1.607   4.960  4.8680 -2.3717 -1.4141
  138MOL0     H18630   7.718   1.788   4.985 -2.2523 -0.8308  0.4675
  139MOL0     O18631  10.944   8.396   8.600 -0.4707 -0.4695  0.5471
  139MOL0     C18632  10.891   8.450   8.510  0.4645  0.0143  0.2490
  139MOL0     O18633  10.950   8.530   8.416 -0.3156 -0.4005  0.0293
  139MOL0     C18634  11.087   8.516   8.385  0.8676 -0.1618 -0.2757
  139MOL0     C18635  11.135   8.473   8.263 -0.3938  0.9766  0.5687
  139MOL0     C18636  11.272   8.478   8.231 -0.0907 -0.0273 -0.5382
  139MOL0     C18637  11.369   8.514   8.322 -0.0687  0.0871 -0.5096
  139MOL0     O18638  11.503   8.505   8.283  0.2576  0.1731 -0.0303
  139MOL0     C18639  11.584   8.400   8.343 -0.0465  0.4037 -0.9655
  139MOL0     C18640  11.709   8.377   8.262 -0.4130 -0.6028 -0.8848
  139MOL0     C18641  11.815   8.287   8.328  0.8640  0.0778 -0.7847
  139MOL0     C18642  11.957   8.301   8.270 -0.2689  0.0005  0.1230
  139MOL0     C18643  12.039   8.172   8.282 -0.1898  0.6029 -0.3259
  139MOL0     C18644  12.179   8.198   8.226  0.1657 -0.0951 -0.0186
  139MOL0     C18645  12.268   8.075   8.196 -0.2027  0.4920 -1.1197
  139MOL0     C18646  12.289   7.993   8.333  0.0661 -0.5717 -0.0839
  139MOL0     N18647  12.414   7.916   8.331  0.1158 -0.6212 -0.5607
  139MOL0     C18648  12.446   7.809   8.257  0.8869 -0.5014  0.0848
  139MOL0     C18649  12.566   7.767   8.297  0.7511  0.0153 -0.4534
  139MOL0     C18650  12.630   7.636   8.273 -1.1943  0.9966 -0.4699
  139MOL0     C18651  12.555   7.517   8.342  0.0920  0.3624 -0.0968
  139MOL0     C18652  12.543   7.548   8.493  0.7891  0.3371  0.5809
  139MOL0     C18653  12.662   7.519   8.577  0.3325  0.2645  0.2361
  139MOL0     O18654  12.764   7.617   8.551 -0.1213  0.5106 -0.6637
  139MOL0     C18655  12.873   7.625   8.636 -0.0074  0.2083  0.2763
  139MOL0     C18656  12.893   7.549   8.754 -0.4990  0.0049  0.2835
  139MOL0     C18657  13.009   7.552   8.839  0.8982  0.1511 -0.0066
  139MOL0     C18658  13.103   7.649   8.806  0.3592  0.9650 -0.5496
  139MOL0     C18659  13.224   7.682   8.878  0.0980  0.3952  0.3325
  139MOL0     O18660  13.305   7.781   8.821 -0.1835 -0.8742 -0.6863
  139MOL0     C18661  13.434   7.794   8.868  0.1623  0.4047 -0.4632
  139MOL0     C18662  13.471   7.925   8.897  1.1857 -0.2013 -1.1061
  139MOL0     C18663  13.602   7.953   8.939 -1.1628  0.4756 -0.1863
  139MOL0     C18664  13.700   7.851   8.946 -0.5134  1.1410 -0.4135
  139MOL0     O18665  13.833   7.886   8.980 -0.1723  0.2672 -0.0256
  139MOL0     C18666  13.938   7.791   8.987 -0.2389  0.9708  0.3543
  139MOL0     C18667  14.072   7.867   8.968 -0.0782 -0.6084 -0.0596
  139MOL0     C18668  14.187   7.760   8.962  0.1210  0.2613 -0.1866
  139MOL0     C18669  14.316   7.832   8.919 -0.2271  0.0584 -0.2380
  139MOL0     C18670  14.448   7.757   8.967  0.0198  0.0235 -0.3301
  139MOL0     C18671  14.568   7.766   8.869 -0.4702  0.1319  0.2614
  139MOL0     C18672  14.681   7.669   8.918  0.2218  0.1364  0.0342
  139MOL0     C18673  14.663   7.524   8.864 -0.8396 -0.7900  0.4140
  139MOL0    Cl18674  14.749   7.431   8.974 -0.0697 -0.5465 -0.0445
  139MOL0     C18675  13.660   7.723   8.905  0.4014  0.2987 -0.9049
  139MOL0     C18676  13.532   7.693   8.872  0.4595 -0.0316  1.4418
  139MOL0     O18677  13.254   7.605   8.970  0.1077  0.3735  0.1116
  139MOL0     C18678  13.082   7.730   8.692  0.4829 -0.1292  0.3569
  139MOL0     C18679  12.966   7.722   8.608  1.0069  0.6973 -0.4454
  139MOL0     N18680  12.608   7.855   8.386  0.7780 -0.5543  0.6840
  139MOL0     N18681  12.521   7.952   8.403 -0.4411  0.4350  0.8366
  139MOL0     C18682  11.323   8.540   8.453  0.1242 -0.4791  0.9217
  139MOL0     C18683  11.184   8.537   8.479 -1.1964 -0.0396 -0.5046
  139MOL0     C18684  10.744   8.448   8.517  0.5123  0.5850 -0.0728
  139MOL0     C18685  10.671   8.486   8.404 -0.7187 -0.4884  1.2623
  139MOL0     C18686  10.533   8.466   8.390  0.5071 -0.2954 -0.3942
  139MOL0     C18687  10.455   8.411   8.496 -0.3214 -0.7097  0.0801
  139MOL0     O18688  10.321   8.392   8.502 -0.2132 -0.6149  0.3372
  139MOL0     C18689  10.238   8.416   8.386 -0.1058 -0.1801  0.2426
  139MOL0     C18690  10.255   8.295   8.275 -0.4198 -0.6717 -0.1802
  139MOL0     C18691  10.232   8.164   8.343 -0.3867 -0.3729  0.1333
  139MOL0     C18692  10.234   8.060   8.233  0.2992  0.7568  0.8139
  139MOL0     C18693  10.240   7.918   8.276  0.2779 -0.5986  0.5044
  139MOL0     C18694  10.244   7.806   8.328 -0.9797  0.4373 -0.5620
  139MOL0     C18695  10.523   8.366   8.603 -0.6064  0.0342  0.4974
  139MOL0     C18696  10.666   8.382   8.612  0.3702 -0.2567 -0.5026
  139MOL0     C18697  10.723   8.336   8.743  0.3822  0.6647  0.5742
  139MOL0     H18698  11.058   8.447   8.191 -1.1720 -1.0047  2.0301
  139MOL0     H18699  11.300   8.448   8.130  2.2760  0.1668 -0.0033
  139MOL0     H18700  11.611   8.443   8.440 -1.2058  1.1850 -0.9753
  139MOL0     H18701  11.540   8.303   8.366  1.5876  0.3289  2.4865
  139MOL0     H18702  11.757   8.474   8.246  2.9776 -1.8087  0.8333
  139MOL0     H18703  11.677   8.340   8.164  1.8212  0.1627 -1.9813
  139MOL0     H18704  11.780   8.183   8.321  0.4558 -0.0589  2.2359
  139MOL0     H18705  11.820   8.314   8.433  0.9023 -0.8626 -0.5335
  139MOL0     H18706  11.940   8.325   8.165 -1.0351 -1.0947 -0.0301
  139MOL0     H18707  12.010   8.385   8.316 -0.3464  0.0267  0.1635
  139MOL0     H18708  12.036   8.141   8.387 -0.0104 -0.1414 -0.5316
  139MOL0     H18709  12.002   8.087   8.222  2.6843  1.3949 -3.5060
  139MOL0     H18710  12.175   8.245   8.127 -1.5810  1.0293  0.5537
  139MOL0     H18711  12.241   8.264   8.288  0.4770  0.6175 -1.0494
  139MOL0     H18712  12.365   8.110   8.158  1.0989 -1.6886 -0.0059
  139MOL0     H18713  12.221   8.015   8.117 -0.2888 -0.7626 -0.1527
  139MOL0     H18714  12.305   8.072   8.406 -0.0187 -2.3537  1.9536
  139MOL0     H18715  12.197   7.943   8.365 -0.8743  0.9066 -0.3841
  139MOL0     H18716  12.375   7.754   8.196 -0.7639  0.1432  1.3644
  139MOL0     H18717  12.635   7.626   8.164 -1.4626  0.1393 -0.4179
  139MOL0     H18718  12.735   7.636   8.301 -1.5045  1.1028  0.7416
  139MOL0     H18719  12.456   7.496   8.300 -1.7128  0.9488  3.4552
  139MOL0     H18720  12.613   7.425   8.327  0.8493  0.8797 -0.4080
  139MOL0     H18721  12.471   7.475   8.532  2.8784 -0.8546  2.4443
  139MOL0     H18722  12.512   7.652   8.509 -0.9269 -0.1591  0.6698
  139MOL0     H18723  12.690   7.414   8.570 -1.0011 -0.1939  1.3774
  139MOL0     H18724  12.631   7.525   8.682  1.0904 -1.6237  0.6079
  139MOL0     H18725  12.811   7.485   8.787 -2.5031  1.7228 -1.0923
  139MOL0     H18726  13.017   7.484   8.923  2.3562 -0.9989 -1.0186
  139MOL0     H18727  13.395   8.001   8.884 -1.6042 -2.2812  1.8070
  139MOL0     H18728  13.633   8.051   8.973 -0.6575 -1.5181  6.6051
  139MOL0     H18729  13.917   7.734   9.078  0.4465 -0.7997 -0.5528
  139MOL0     H18730  13.954   7.717   8.908  3.3235  0.6580  1.1665
  139MOL0     H18731  14.074   7.929   8.879 -1.8130 -0.5798 -0.1111
  139MOL0     H18732  14.086   7.929   9.057 -0.6978  1.2274 -1.1882
  139MOL0     H18733  14.200   7.715   9.060 -2.6510  0.2040  0.2136
  139MOL0     H18734  14.157   7.679   8.895  0.1198  0.0698  0.0431
  139MOL0     H18735  14.322   7.936   8.952  0.9274  1.3108 -3.9163
  139MOL0     H18736  14.319   7.835   8.810 -1.4459 -0.1026 -0.3000
  139MOL0     H18737  14.413   7.654   8.979 -2.0918  0.7854  0.5039
  139MOL0     H18738  14.477   7.796   9.065  0.7433 -0.3409 -0.3903
  139MOL0     H18739  14.536   7.743   8.767 -1.3808 -2.0983  0.9991
  139MOL0     H18740  14.612   7.866   8.862  0.8711 -0.4856 -0.9363
  139MOL0     H18741  14.677   7.671   9.027 -2.5006 -0.9763  0.0369
  139MOL0     H18742  14.776   7.720   8.901 -0.6715  2.3260  1.2909
  139MOL0     H18743  14.557   7.501   8.870 -1.6348  2.2773 -0.1506
  139MOL0     H18744  14.704   7.507   8.764 -1.6442  1.2762 -0.3171
  139MOL0     H18745  13.722   7.635   8.895 -2.0067 -1.5248 -0.5754
  139MOL0     H18746  13.503   7.592   8.845  0.3145  1.0592 -3.4226
  139MOL0     H18747  13.147   7.809   8.656 -1.9563  1.7876 -0.0452
  139MOL0     H18748  12.953   7.782   8.518  1.9553  2.3494  0.4726
  139MOL0     H18749  11.398   8.566   8.528 -0.7105  3.0357  0.6878
  139MOL0     H18750  11.154   8.562   8.581 -0.1951 -2.7806  0.5734
  139MOL0     H18751  10.721   8.522   8.314 -3.1089 -1.4585 -0.5940
  139MOL0     H18752  10.498   8.497   8.292  1.5267 -3.6077 -1.9842
  139MOL0     H18753  10.261   8.515   8.344  2.4113 -1.8545 -2.8334
  139MOL0     H18754  10.140   8.416   8.434  1.4012 -1.8172  3.6216
  139MOL0     H18755  10.356   8.303   8.235  0.4295  2.5653  2.2940
  139MOL0     H18756  10.178   8.311   8.198  1.8587  0.2219 -2.4029
  139MOL0     H18757  10.139   8.172   8.400  0.0318  0.5166  0.7246
  139MOL0     H18758  10.314   8.153   8.414  2.0900 -1.3084 -2.6651
  139MOL0     H18759  10.146   8.071   8.169  0.8875  1.1862  0.0540
  139MOL0     H18760  10.317   8.083   8.166  0.5326  2.0004  1.5011
  139MOL0     H18761  10.245   7.709   8.374 -0.4551 -0.3208 -2.0790
  139MOL0     H18762  10.474   8.329   8.693  3.6420 -0.1562  2.9804
  139MOL0     H18763  10.763   8.418   8.803 -0.1281  0.3184  1.4107
  139MOL0     H18764  10.652   8.289   8.812  1.3695  1.2489  2.0170
  139MOL0     H18765  10.803   8.262   8.735 -0.1808 -0.0519  1.3372
  140MOL0     O18766   3.317   5.285   2.730 -0.7597 -0.1789 -0.1704
  140MOL0     C18767   3.280   5.390   2.774 -0.4448  0.5548  0.1656
  140MOL0     O18768   3.365   5.477   2.838 -0.2232 -0.1030 -0.2128
  140MOL0     C18769   3.498   5.450   2.839  0.8032 -0.1600 -0.3282
  140MOL0     C18770   3.540   5.377   2.950 -0.1053 -0.1413 -0.2785
  140MOL0     C18771   3.673   5.333   2.947 -0.1592  0.4827 -0.2835
  140MOL0     C18772   3.767   5.360   2.842 -0.3027  0.2184  0.3658
  140MOL0     O18773   3.888   5.287   2.855  0.5212 -0.4128 -0.5917
  140MOL0     C18774   4.011   5.353   2.815  0.2370 -0.2813 -0.4760
  140MOL0     C18775   4.114   5.251   2.796 -0.8801  0.3671  0.0486
  140MOL0     C18776   4.252   5.303   2.760  0.2251 -0.7279  0.8190
  140MOL0     C18777   4.281   5.339   2.613 -0.1289 -0.0516  1.0269
  140MOL0     C18778   4.427   5.384   2.603  0.1551  0.3431  0.3029
  140MOL0     C18779   4.464   5.493   2.713 -0.6737 -0.4162  0.1398
  140MOL0     C18780   4.582   5.567   2.660 -0.0568 -0.6604  0.2177
  140MOL0     C18781   4.566   5.683   2.555 -1.2568  0.5516  0.5065
  140MOL0     N18782   4.682   5.777   2.563  0.1848  0.0941 -0.0529
  140MOL0     C18783   4.796   5.766   2.489 -0.7965 -0.2682 -0.7178
  140MOL0     C18784   4.867   5.878   2.525  0.1715  0.2315  0.0448
  140MOL0     C18785   5.007   5.916   2.493 -0.4685 -0.4347 -0.1112
  140MOL0     C18786   5.104   5.838   2.574 -0.7890  0.4334 -0.5683
  140MOL0     C18787   5.244   5.883   2.549  0.3617 -0.0795  0.2165
  140MOL0     C18788   5.345   5.796   2.616 -0.6146  0.7467 -0.6682
  140MOL0     O18789   5.484   5.834   2.591  0.7265  0.3354 -0.0204
  140MOL0     C18790   5.587   5.739   2.612  0.0816  0.2024  0.4105
  140MOL0     C18791   5.574   5.612   2.661  0.1218  0.3726  0.4384
  140MOL0     C18792   5.689   5.534   2.692  0.5934 -0.9737  0.0296
  140MOL0     C18793   5.815   5.589   2.685 -0.1859  0.2391  0.4771
  140MOL0     C18794   5.931   5.517   2.733 -0.2945  0.1596 -0.1824
  140MOL0     O18795   6.043   5.587   2.710 -0.6435 -0.1485 -0.8606
  140MOL0     C18796   6.160   5.526   2.742  1.2716 -0.7307 -0.5925
  140MOL0     C18797   6.205   5.434   2.646  0.1135  1.3323 -0.7908
  140MOL0     C18798   6.334   5.382   2.658  0.7170  0.7420 -0.7402
  140MOL0     C18799   6.429   5.425   2.752  0.7245 -0.0566  0.1412
  140MOL0     O18800   6.546   5.370   2.735 -0.1265 -0.7533  0.0578
  140MOL0     C18801   6.647   5.408   2.830  0.2382 -0.2645  0.4800
  140MOL0     C18802   6.747   5.297   2.819 -0.4114 -0.5770  0.0115
  140MOL0     C18803   6.860   5.345   2.909 -0.1684  0.5239 -0.2812
  140MOL0     C18804   6.981   5.248   2.882  0.4294 -0.0008 -0.5738
  140MOL0     C18805   7.116   5.318   2.931 -0.4907  0.5091 -0.2597
  140MOL0     C18806   7.239   5.221   2.895  0.0753 -0.4317  0.2184
  140MOL0     C18807   7.355   5.316   2.885 -0.6430 -0.5961  0.6194
  140MOL0     C18808   7.488   5.240   2.845  0.0534 -0.3629 -0.1628
  140MOL0    Cl18809   7.617   5.364   2.818  0.1445  0.3568  0.0092
  140MOL0     C18810   6.388   5.518   2.848  0.1608  0.2747  0.2487
  140MOL0     C18811   6.253   5.568   2.842  0.9606  0.1186  0.5628
  140MOL0     O18812   5.912   5.408   2.788  0.0386 -0.1453 -1.1568
  140MOL0     C18813   5.828   5.720   2.637 -0.1881  0.7233  0.1702
  140MOL0     C18814   5.717   5.792   2.592 -0.1417  0.2052 -0.1826
  140MOL0     N18815   4.788   5.942   2.618 -0.0425 -0.2911  0.3958
  140MOL0     N18816   4.681   5.881   2.647 -0.0040  0.0129  0.0034
  140MOL0     C18817   3.721   5.441   2.738  0.4321  0.4677  0.9937
  140MOL0     C18818   3.586   5.485   2.743  0.2986 -0.2588 -0.4081
  140MOL0     C18819   3.149   5.435   2.725  0.3776 -0.3723  0.1643
  140MOL0     C18820   3.129   5.576   2.709 -0.6457 -0.3611 -1.5245
  140MOL0     C18821   3.018   5.636   2.644  0.4400 -0.3561  0.6662
  140MOL0     C18822   2.919   5.556   2.591  0.7031  0.0156  1.3081
  140MOL0     O18823   2.820   5.613   2.515 -0.1025  0.0467 -0.4096
  140MOL0     C18824   2.687   5.571   2.555  0.2371  0.1561 -0.2928
  140MOL0     C18825   2.615   5.676   2.614 -0.8482 -0.5419 -0.6718
  140MOL0     C18826   2.461   5.652   2.597 -0.3432 -0.5335 -0.6689
  140MOL0     C18827   2.407   5.742   2.479 -0.1464  0.6711  0.4822
  140MOL0     C18828   2.267   5.708   2.467 -0.0220  0.8937 -0.1322
  140MOL0     C18829   2.149   5.676   2.456 -0.3447 -0.3522  0.0808
  140MOL0     C18830   2.929   5.413   2.605 -0.4080 -0.6338  0.5536
  140MOL0     C18831   3.039   5.354   2.675  0.1647  0.4130 -0.0637
  140MOL0     C18832   3.038   5.200   2.696  0.3712 -0.0857  0.2411
  140MOL0     H18833   3.474   5.357   3.034 -0.0358  1.2939  0.1384
  140MOL0     H18834   3.707   5.284   3.037 -2.5541 -0.0031  0.4218
  140MOL0     H18835   4.004   5.396   2.715  1.5176 -2.4154 -1.5654
  140MOL0     H18836   4.040   5.427   2.890 -0.0798  0.0533 -0.6795
  140MOL0     H18837   4.081   5.186   2.714  2.6770  0.1838 -1.4236
  140MOL0     H18838   4.111   5.180   2.879 -3.3030 -1.0074 -1.0828
  140MOL0     H18839   4.326   5.226   2.781 -0.7426 -1.3609  2.0598
  140MOL0     H18840   4.258   5.388   2.828 -6.8773  1.0640  0.0452
  140MOL0     H18841   4.258   5.252   2.551  4.7773 -1.7443  1.1298
  140MOL0     H18842   4.215   5.423   2.591 -1.9154 -0.3155  4.6122
  140MOL0     H18843   4.490   5.295   2.613 -0.5351 -0.5639 -2.4438
  140MOL0     H18844   4.430   5.426   2.502 -2.9957 -0.8677 -0.4215
  140MOL0     H18845   4.377   5.555   2.734 -0.0821 -0.3966  2.9299
  140MOL0     H18846   4.487   5.440   2.806  0.5859  1.6143  1.0431
  140MOL0     H18847   4.657   5.498   2.621  1.2462 -0.0544  1.5355
  140MOL0     H18848   4.635   5.612   2.744 -1.2282  0.8880  0.1723
  140MOL0     H18849   4.564   5.647   2.452  1.1114  1.5589  0.0303
  140MOL0     H18850   4.470   5.734   2.572 -2.2494 -0.4927 -1.6402
  140MOL0     H18851   4.822   5.684   2.423 -2.7001 -2.0829  0.6627
  140MOL0     H18852   5.021   5.889   2.388  0.5424 -1.6241  0.3116
  140MOL0     H18853   5.013   6.025   2.502 -1.1578 -0.3472 -0.6037
  140MOL0     H18854   5.081   5.852   2.680  1.1376  1.2833 -0.2167
  140MOL0     H18855   5.098   5.731   2.552 -1.0854  0.5236 -0.9361
  140MOL0     H18856   5.261   5.988   2.576 -0.4269 -0.0625  0.6930
  140MOL0     H18857   5.281   5.873   2.447  0.7354 -1.7941  0.4839
  140MOL0     H18858   5.336   5.699   2.567 -0.2554  0.0314  0.6395
  140MOL0     H18859   5.331   5.769   2.722 -1.5436  1.0455 -0.7046
  140MOL0     H18860   5.474   5.571   2.664  0.4919 -0.6324 -0.3653
  140MOL0     H18861   5.665   5.434   2.725 -0.7521 -0.4294  0.7774
  140MOL0     H18862   6.151   5.410   2.555  2.0329 -0.1813 -1.6261
  140MOL0     H18863   6.362   5.307   2.584 -2.0570 -0.4469 -0.7207
  140MOL0     H18864   6.684   5.508   2.809 -1.4392  0.5351  1.0931
  140MOL0     H18865   6.606   5.400   2.931  0.5303 -0.3209  0.5949
  140MOL0     H18866   6.706   5.203   2.860 -0.3572 -0.9109 -0.6872
  140MOL0     H18867   6.769   5.294   2.712  1.6049  3.2197  0.1716
  140MOL0     H18868   6.880   5.450   2.885 -1.6707  0.2500 -3.1592
  140MOL0     H18869   6.822   5.340   3.012  0.8914 -0.9508  0.0719
  140MOL0     H18870   6.995   5.215   2.778  1.8198 -0.3534 -0.2951
  140MOL0     H18871   6.970   5.161   2.947  0.2118  0.1513 -0.4083
  140MOL0     H18872   7.114   5.360   3.032 -0.0394  1.2488 -0.5469
  140MOL0     H18873   7.129   5.402   2.862 -1.3590  0.2447 -0.7689
  140MOL0     H18874   7.248   5.153   2.981 -1.1639  0.7813  1.3598
  140MOL0     H18875   7.227   5.165   2.802  1.4009  1.2932 -1.0453
  140MOL0     H18876   7.369   5.379   2.974  0.2997 -1.5051  1.1370
  140MOL0     H18877   7.343   5.387   2.802  2.0900 -1.1187 -0.3412
  140MOL0     H18878   7.518   5.181   2.932 -0.9842  2.8428  2.6019
  140MOL0     H18879   7.469   5.185   2.753  3.9803  1.9475 -2.6596
  140MOL0     H18880   6.455   5.562   2.921 -0.2348  2.2729 -0.5095
  140MOL0     H18881   6.217   5.640   2.916  1.3893  0.5851  0.3228
  140MOL0     H18882   5.922   5.766   2.608  1.5526 -2.5502  0.0981
  140MOL0     H18883   5.734   5.896   2.566 -1.0290  0.1261 -1.1600
  140MOL0     H18884   3.782   5.450   2.649 -0.3544  1.6833  0.5601
  140MOL0     H18885   3.557   5.534   2.650  1.0943  0.9963 -0.0136
  140MOL0     H18886   3.215   5.639   2.729 -1.0803 -0.3634  0.5731
  140MOL0     H18887   3.001   5.743   2.634  0.3518 -0.2832  1.4877
  140MOL0     H18888   2.681   5.486   2.624 -0.2317 -0.5809 -1.2113
  140MOL0     H18889   2.637   5.538   2.463 -0.1194  1.4702 -0.5829
  140MOL0     H18890   2.644   5.778   2.585 -1.4765 -0.2841 -0.4115
  140MOL0     H18891   2.643   5.657   2.718 -2.9840 -1.0054 -0.1344
  140MOL0     H18892   2.416   5.684   2.691  0.7131 -0.5240 -0.1460
  140MOL0     H18893   2.445   5.544   2.587 -0.7967 -1.1231  4.1312
  140MOL0     H18894   2.413   5.849   2.499  1.3345  0.6822  0.0874
  140MOL0     H18895   2.459   5.707   2.390  0.3303  0.0915  0.9741
  140MOL0     H18896   2.044   5.663   2.440 -0.2809 -0.1681 -0.5118
  140MOL0     H18897   2.856   5.350   2.556  1.5151 -2.3187 -0.2864
  140MOL0     H18898   2.957   5.152   2.640 -1.6485 -0.7542  3.4562
  140MOL0     H18899   3.134   5.164   2.659  0.6519  2.7822 -2.1919
  140MOL0     H18900   3.026   5.173   2.801  0.6662 -2.1476 -0.1974
  141MOL0     O18901   7.869  10.421   5.492  0.7695 -0.0785 -0.1230
  141MOL0     C18902   7.911  10.357   5.583 -0.7512  0.1455 -0.2781
  141MOL0     O18903   8.028  10.282   5.579 -0.2236 -0.7061  0.3208
  141MOL0     C18904   8.141  10.327   5.508 -0.0801  0.6628 -0.2428
  141MOL0     C18905   8.166  10.453   5.469  0.8246 -0.3338  0.1448
  141MOL0     C18906   8.279  10.492   5.388 -0.3681  0.7116 -0.4114
  141MOL0     C18907   8.369  10.393   5.356  0.2549  0.7950 -0.8905
  141MOL0     O18908   8.469  10.438   5.280  0.6142  0.1185 -0.2880
  141MOL0     C18909   8.425  10.434   5.141 -0.9023  0.1836  0.8115
  141MOL0     C18910   8.550  10.438   5.048 -0.4939  0.5873  0.0729
  141MOL0     C18911   8.644  10.318   5.081 -0.2399 -0.0548  0.2641
  141MOL0     C18912   8.727  10.295   4.953  0.6207 -0.2817 -0.4446
  141MOL0     C18913   8.839  10.196   4.978  0.2125 -0.6580 -0.1727
  141MOL0     C18914   8.914  10.162   4.847  0.2191 -0.5363  0.9278
  141MOL0     C18915   8.994  10.272   4.781 -0.0637 -0.1850 -0.7985
  141MOL0     C18916   9.066  10.233   4.651 -0.3264 -0.4387  0.6703
  141MOL0     N18917   9.126  10.357   4.591 -0.5572 -0.2045  0.1672
  141MOL0     C18918   9.236  10.423   4.645  0.4528  0.0341  0.1144
  141MOL0     C18919   9.242  10.539   4.572 -0.4338 -0.2019 -0.4190
  141MOL0     C18920   9.347  10.645   4.596 -0.6340 -0.1583 -0.0139
  141MOL0     C18921   9.484  10.584   4.558 -1.0825  0.2185  0.2280
  141MOL0     C18922   9.587  10.583   4.669 -0.1211 -0.2267  0.3820
  141MOL0     C18923   9.719  10.534   4.631  0.1245 -0.0617  0.3042
  141MOL0     O18924   9.815  10.579   4.728  0.7734 -0.4422  0.0128
  141MOL0     C18925   9.950  10.547   4.700  0.7442 -0.0764  0.2199
  141MOL0     C18926  10.042  10.591   4.794  0.2043  0.8855  0.1752
  141MOL0     C18927  10.182  10.574   4.768  0.3087  0.0736 -0.1357
  141MOL0     C18928  10.225  10.507   4.644 -0.1291 -0.5544  0.0914
  141MOL0     C18929  10.364  10.501   4.615 -0.1942  0.0799  0.1178
  141MOL0     O18930  10.440  10.596   4.685 -0.3323 -0.2618  0.7055
  141MOL0     C18931  10.572  10.633   4.665 -0.3102  0.1299  0.3985
  141MOL0     C18932  10.624  10.733   4.740  0.3791 -0.6811 -0.0111
  141MOL0     C18933  10.757  10.774   4.726  0.5601 -0.2279 -0.4284
  141MOL0     C18934  10.835  10.714   4.631 -0.1045 -0.0985  1.0208
  141MOL0     O18935  10.964  10.772   4.631 -0.3295  0.1947  0.4867
  141MOL0     C18936  11.043  10.744   4.506 -0.4772 -0.4545 -0.8260
  141MOL0     C18937  11.183  10.812   4.515 -0.5357  0.9429  0.5531
  141MOL0     C18938  11.281  10.758   4.404 -0.5227 -0.6693 -0.3783
  141MOL0     C18939  11.412  10.839   4.402  0.4659  0.1464  0.8445
  141MOL0     C18940  11.510  10.796   4.290 -0.4169  0.1893  0.2596
  141MOL0     C18941  11.459  10.820   4.141 -0.3204 -0.1631  0.5037
  141MOL0     C18942  11.549  10.745   4.042 -0.1265 -0.2380 -0.7857
  141MOL0     C18943  11.694  10.789   4.037 -0.2323  0.6140  1.1181
  141MOL0    Cl18944  11.794  10.717   4.180  0.0458 -0.0390  0.2937
  141MOL0     C18945  10.784  10.621   4.545  0.0201 -1.3335 -0.0519
  141MOL0     C18946  10.660  10.576   4.565  1.0656 -0.5553  0.2367
  141MOL0     O18947  10.392  10.443   4.512  0.1164 -0.1980 -0.2872
  141MOL0     C18948  10.131  10.457   4.553  0.5633 -0.1595 -0.0179
  141MOL0     C18949   9.996  10.478   4.589 -0.0747  0.3456  0.0106
  141MOL0     N18950   9.140  10.539   4.479  0.5938  0.5550 -1.0192
  141MOL0     N18951   9.072  10.432   4.495  0.4156 -0.7557 -0.1869
  141MOL0     C18952   8.345  10.263   5.398  0.4956 -0.2971  0.5270
  141MOL0     C18953   8.236  10.230   5.472  0.9883 -0.2408 -0.0921
  141MOL0     C18954   7.828  10.328   5.701  0.2979  0.3217 -0.5545
  141MOL0     C18955   7.867  10.229   5.793 -0.0699 -1.0307  0.0492
  141MOL0     C18956   7.786  10.181   5.893 -0.2464  0.0494 -0.1970
  141MOL0     C18957   7.664  10.232   5.913  0.5139 -0.8126 -0.2611
  141MOL0     O18958   7.591  10.191   6.020  0.0190  0.0082 -0.2433
  141MOL0     C18959   7.602  10.282   6.138 -0.2456 -0.2732 -0.2086
  141MOL0     C18960   7.473  10.369   6.152 -0.8247 -0.4816 -0.4983
  141MOL0     C18961   7.368  10.325   6.266 -0.0915  0.2251  0.3418
  141MOL0     C18962   7.397  10.392   6.401  0.8631  0.5070 -0.0899
  141MOL0     C18963   7.299  10.334   6.494  0.0271 -0.3731 -0.2870
  141MOL0     C18964   7.225  10.284   6.575  0.3614  0.3464 -0.6064
  141MOL0     C18965   7.620  10.333   5.838  0.7403 -0.7471  0.2363
  141MOL0     C18966   7.699  10.385   5.732  0.2764 -0.2990 -0.2239
  141MOL0     C18967   7.630  10.479   5.627  0.1918 -0.4326  0.6874
  141MOL0     H18968   8.090  10.530   5.479  0.8797 -0.2608 -0.0042
  141MOL0     H18969   8.288  10.593   5.350 -0.4348  1.0306  0.4022
  141MOL0     H18970   8.359  10.349   5.125 -1.4381  0.7908 -0.4344
  141MOL0     H18971   8.364  10.517   5.103  2.0221  2.4060  0.5625
  141MOL0     H18972   8.609  10.528   5.069 -0.9367  0.5086  1.8671
  141MOL0     H18973   8.515  10.432   4.945 -3.1660  2.9992  0.7122
  141MOL0     H18974   8.591  10.230   5.118 -1.0127  0.2223 -0.1738
  141MOL0     H18975   8.717  10.352   5.156  0.6657  1.9718 -1.4333
  141MOL0     H18976   8.675  10.245   4.871 -0.9638 -0.6604  0.7342
  141MOL0     H18977   8.766  10.392   4.922  1.9374 -0.6911 -0.1484
  141MOL0     H18978   8.918  10.238   5.042  1.3228  1.4339 -2.7237
  141MOL0     H18979   8.802  10.107   5.031 -0.8518  0.1197  0.4317
  141MOL0     H18980   8.997  10.100   4.884  1.3104  0.4112  0.1120
  141MOL0     H18981   8.849  10.118   4.771  0.5636  1.4408 -0.5895
  141MOL0     H18982   9.061  10.315   4.856  1.0418 -1.7032 -0.8612
  141MOL0     H18983   8.924  10.352   4.754 -1.3635 -1.2621 -0.6949
  141MOL0     H18984   9.148  10.163   4.674  0.0161 -0.4875 -0.6122
  141MOL0     H18985   9.002  10.189   4.575  0.5661 -2.8404  1.2106
  141MOL0     H18986   9.298  10.382   4.724  0.8975 -2.3989 -1.3780
  141MOL0     H18987   9.331  10.740   4.543  0.7652  1.4979  2.3276
  141MOL0     H18988   9.341  10.669   4.702 -0.8898  0.1009 -0.0860
  141MOL0     H18989   9.467  10.487   4.510  0.8232  0.3756 -0.8980
  141MOL0     H18990   9.531  10.648   4.482  1.4144 -3.0832 -1.3094
  141MOL0     H18991   9.554  10.519   4.751 -1.3160  1.8978  1.6490
  141MOL0     H18992   9.595  10.684   4.709 -0.9639  0.1754 -0.4358
  141MOL0     H18993   9.758  10.584   4.541 -0.5232  1.2465  0.7285
  141MOL0     H18994   9.712  10.425   4.624  1.7692 -0.1840  0.0625
  141MOL0     H18995  10.015  10.645   4.885 -0.7750  0.4708  0.1525
  141MOL0     H18996  10.251  10.617   4.839 -0.9483  2.2031 -0.1321
  141MOL0     H18997  10.569  10.788   4.817  0.6044 -2.2807  1.3462
  141MOL0     H18998  10.794  10.854   4.789 -0.1980  1.1923 -1.7032
  141MOL0     H18999  11.048  10.635   4.491  1.5299 -0.1994 -2.2941
  141MOL0     H19000  10.989  10.778   4.418  2.0943  0.8459 -1.9958
  141MOL0     H19001  11.163  10.919   4.501 -1.3264  0.5566 -1.7550
  141MOL0     H19002  11.222  10.787   4.614 -1.6773  0.4039  0.8806
  141MOL0     H19003  11.305  10.651   4.410  1.5828 -0.2703 -0.7382
  141MOL0     H19004  11.235  10.779   4.307 -3.2373  1.9812  1.3380
  141MOL0     H19005  11.462  10.828   4.498  1.4332  0.7412  0.4247
  141MOL0     H19006  11.391  10.944   4.376  0.3708  0.2151  1.1948
  141MOL0     H19007  11.551  10.698   4.313  0.6644  0.6308  0.2620
  141MOL0     H19008  11.593  10.866   4.303 -0.9486  0.8262  0.2961
  141MOL0     H19009  11.360  10.776   4.124  1.0116 -2.6751 -1.2625
  141MOL0     H19010  11.460  10.925   4.109 -0.8519 -1.0048 -2.5799
  141MOL0     H19011  11.503  10.756   3.944  1.6566 -1.2534 -1.8046
  141MOL0     H19012  11.534  10.639   4.064 -0.1081  0.0202  0.5843
  141MOL0     H19013  11.733  10.746   3.945 -1.3991  1.1590  0.3523
  141MOL0     H19014  11.702  10.897   4.017 -1.6086  0.3552 -1.1038
  141MOL0     H19015  10.834  10.586   4.455  2.5813  0.9448  0.3615
  141MOL0     H19016  10.624  10.495   4.502  0.1665 -1.4953  1.8895
  141MOL0     H19017  10.159  10.411   4.459 -1.4071 -0.5570 -0.4564
  141MOL0     H19018   9.924  10.453   4.512 -0.7456  4.0491 -0.7293
  141MOL0     H19019   8.417  10.193   5.356  1.4822  0.3346  1.1168
  141MOL0     H19020   8.218  10.128   5.504  1.7686 -0.3003  0.1742
  141MOL0     H19021   7.964  10.181   5.782 -1.7140 -4.6571 -0.3124
  141MOL0     H19022   7.823  10.095   5.948 -0.2472  0.2269  0.0779
  141MOL0     H19023   7.688  10.350   6.127 -0.5407 -0.0073 -0.9567
  141MOL0     H19024   7.617  10.220   6.227 -0.4768  0.4569  0.3435
  141MOL0     H19025   7.425  10.401   6.059 -0.5027  0.8464 -0.2351
  141MOL0     H19026   7.508  10.464   6.194 -2.0663 -1.8258  4.2785
  141MOL0     H19027   7.357  10.216   6.271 -0.2749  0.2361  0.2001
  141MOL0     H19028   7.271  10.365   6.236  0.5688  0.7614 -1.1887
  141MOL0     H19029   7.500  10.382   6.438  0.3690  1.0291  1.5120
  141MOL0     H19030   7.363  10.496   6.401 -3.4168 -0.6340  2.4422
  141MOL0     H19031   7.152  10.236   6.636  0.7854 -0.8097 -0.9855
  141MOL0     H19032   7.521  10.370   5.863  0.7625 -1.4973  1.4704
  141MOL0     H19033   7.638  10.421   5.535  0.9508 -0.3782  0.7111
  141MOL0     H19034   7.525  10.491   5.656  0.4246  0.0065  1.3808
  141MOL0     H19035   7.682  10.574   5.618  0.3386 -0.6508 -1.0154
  142MOL0     O19036   7.126   9.041   8.764  0.0492 -0.5648  0.3970
  142MOL0     C19037   7.063   8.934   8.790 -0.5033 -1.1265  0.5052
  142MOL0     O19038   7.114   8.810   8.801 -0.4641  0.5736 -1.1856
  142MOL0     C19039   7.250   8.774   8.784  0.7346  0.2638  0.8261
  142MOL0     C19040   7.295   8.650   8.843 -0.2794  0.2775  0.3798
  142MOL0     C19041   7.418   8.591   8.811  0.1680 -0.8630  0.4093
  142MOL0     C19042   7.510   8.660   8.736 -0.3675  0.7891  0.4140
  142MOL0     O19043   7.632   8.619   8.695  0.3272  0.6048  0.1419
  142MOL0     C19044   7.653   8.477   8.682  1.2566 -0.6393 -0.8200
  142MOL0     C19045   7.798   8.461   8.653  0.0084  0.0042  0.5671
  142MOL0     C19046   7.875   8.493   8.775  0.2467  0.1865 -0.6090
  142MOL0     C19047   8.021   8.491   8.734  0.1568 -0.3399 -0.2269
  142MOL0     C19048   8.100   8.530   8.859 -0.6106  0.3270 -0.7358
  142MOL0     C19049   8.244   8.500   8.825  0.0660 -0.7911  0.4254
  142MOL0     C19050   8.332   8.515   8.950  0.3151 -0.4920  0.0945
  142MOL0     C19051   8.462   8.437   8.946 -0.2237 -0.2295  0.4775
  142MOL0     N19052   8.553   8.474   9.049 -0.0843 -0.3996  0.4921
  142MOL0     C19053   8.525   8.515   9.176 -0.1509 -0.4938  0.3041
  142MOL0     C19054   8.645   8.529   9.233 -0.4755 -0.1857 -0.9362
  142MOL0     C19055   8.651   8.584   9.373 -0.2408 -0.5126  0.3469
  142MOL0     C19056   8.676   8.470   9.475  0.4265 -0.3479  0.8194
  142MOL0     C19057   8.820   8.413   9.472 -0.0721 -0.2880  0.4916
  142MOL0     C19058   8.918   8.521   9.503  0.3530  0.4240  0.4896
  142MOL0     O19059   9.050   8.452   9.499  0.1038 -0.1978  0.7207
  142MOL0     C19060   9.168   8.530   9.496  0.0246 -0.3094  0.0814
  142MOL0     C19061   9.177   8.670   9.493 -0.0400  0.5233  0.5214
  142MOL0     C19062   9.305   8.740   9.503  0.5813  0.1617 -0.5387
  142MOL0     C19063   9.422   8.668   9.540  0.7522  0.3811  0.8407
  142MOL0     C19064   9.545   8.735   9.566  0.0750 -0.6534 -1.0162
  142MOL0     O19065   9.656   8.672   9.537  0.2570  0.0791  0.3382
  142MOL0     C19066   9.776   8.714   9.599 -0.1551 -0.4607 -0.6974
  142MOL0     C19067   9.781   8.717   9.735 -0.1532 -0.2157 -0.7728
  142MOL0     C19068   9.907   8.751   9.800  0.5244  0.7512 -0.1390
  142MOL0     C19069  10.028   8.768   9.724 -0.4246  0.2414 -0.3122
  142MOL0     O19070  10.152   8.799   9.762 -0.2110 -0.2478  0.5649
  142MOL0     C19071  10.213   8.727   9.870 -0.3700  0.2095  0.0766
  142MOL0     C19072  10.348   8.673   9.798  0.0424  0.4636 -0.3010
  142MOL0     C19073  10.432   8.586   9.890  0.3770  0.1202 -0.4897
  142MOL0     C19074  10.502   8.664  10.001 -0.7655 -0.3291  0.4458
  142MOL0     C19075  10.607   8.575  10.073 -0.2507  1.7598 -0.2326
  142MOL0     C19076  10.741   8.561  10.005 -0.4787 -0.2531 -1.2783
  142MOL0     C19077  10.833   8.654  10.064  0.7152 -1.0552 -0.6753
  142MOL0     C19078  10.927   8.704   9.956 -0.1671 -0.3732 -0.3195
  142MOL0    Cl19079  11.074   8.778  10.009 -0.0533 -0.1159 -0.0605
  142MOL0     C19080  10.011   8.772   9.587 -0.3839  0.7847 -0.5120
  142MOL0     C19081   9.895   8.732   9.528  0.3697 -0.7317 -0.0343
  142MOL0     O19082   9.537   8.847   9.616  0.0740 -0.8909  0.2020
  142MOL0     C19083   9.410   8.530   9.555 -0.4690  0.4535 -0.1646
  142MOL0     C19084   9.287   8.460   9.536  0.2195 -0.4899 -0.0383
  142MOL0     N19085   8.751   8.506   9.148 -0.8710  0.1350 -0.4539
  142MOL0     N19086   8.693   8.485   9.033  0.4039  1.0824 -0.4038
  142MOL0     C19087   7.471   8.781   8.676  0.8050 -0.3168  0.1362
  142MOL0     C19088   7.342   8.843   8.696 -1.0713  0.5088 -0.0158
  142MOL0     C19089   6.918   8.949   8.820 -0.1811  0.0430 -1.2248
  142MOL0     C19090   6.854   8.831   8.869  0.3055  0.4261  0.1933
  142MOL0     C19091   6.721   8.833   8.904 -0.0218  0.7498 -0.2647
  142MOL0     C19092   6.641   8.940   8.889 -0.0046 -0.3389  0.2410
  142MOL0     O19093   6.508   8.918   8.907  0.4344 -0.4481 -0.0470
  142MOL0     C19094   6.410   9.023   8.898 -0.2557  0.5292 -0.7069
  142MOL0     C19095   6.416   9.125   9.017  0.1790 -0.0548  0.8240
  142MOL0     C19096   6.353   9.051   9.140  0.5922  0.0431 -0.5290
  142MOL0     C19097   6.360   9.128   9.276 -0.4213 -0.1380  0.6582
  142MOL0     C19098   6.488   9.109   9.347 -1.0321  0.1691  0.3068
  142MOL0     C19099   6.595   9.095   9.412  0.0543 -0.3836  0.2811
  142MOL0     C19100   6.696   9.058   8.836  0.4711  0.4053 -0.2009
  142MOL0     C19101   6.832   9.070   8.812  0.2606 -0.2323  0.6980
  142MOL0     C19102   6.885   9.205   8.775 -0.5072  0.3132  0.1100
  142MOL0     H19103   7.227   8.585   8.897 -0.4013 -0.6905 -0.8865
  142MOL0     H19104   7.447   8.491   8.842  2.3329  0.1763  1.9694
  142MOL0     H19105   7.632   8.408   8.764  2.1545  1.4279  1.2452
  142MOL0     H19106   7.596   8.440   8.596 -0.7688  1.0933 -0.3243
  142MOL0     H19107   7.831   8.521   8.568  3.0945  1.6915  2.7429
  142MOL0     H19108   7.822   8.359   8.622 -0.7049 -0.0770  0.2689
  142MOL0     H19109   7.849   8.419   8.851  0.9144 -0.3601 -0.8976
  142MOL0     H19110   7.850   8.595   8.807  3.4857  1.2043 -0.9573
  142MOL0     H19111   8.057   8.400   8.685  0.1835 -0.3783 -0.1358
  142MOL0     H19112   8.042   8.572   8.663  0.7815  0.2701  0.6276
  142MOL0     H19113   8.089   8.637   8.879  0.4868  0.6825 -1.9289
  142MOL0     H19114   8.084   8.473   8.952 -0.5221 -0.5837 -1.2732
  142MOL0     H19115   8.245   8.396   8.792 -0.2171 -1.4074  2.2742
  142MOL0     H19116   8.281   8.573   8.752  1.3578 -0.4180  1.4346
  142MOL0     H19117   8.283   8.484   9.043 -0.6152 -2.7953 -1.0825
  142MOL0     H19118   8.355   8.620   8.971  2.1946 -1.2546  2.3938
  142MOL0     H19119   8.458   8.329   8.958  3.1088 -0.3436  1.7134
  142MOL0     H19120   8.502   8.458   8.846 -0.6061  0.7155  0.5069
  142MOL0     H19121   8.421   8.528   9.202 -0.3825 -1.2312 -0.2094
  142MOL0     H19122   8.723   8.666   9.373 -1.7773  0.9591 -1.9042
  142MOL0     H19123   8.556   8.626   9.408  0.6940  0.9131  1.2590
  142MOL0     H19124   8.650   8.517   9.570  1.5327  1.6143  0.1960
  142MOL0     H19125   8.607   8.387   9.453 -0.1815  0.2442  0.4604
  142MOL0     H19126   8.845   8.359   9.379  2.1486 -1.8330  1.8818
  142MOL0     H19127   8.814   8.338   9.551 -0.6682 -1.3628 -0.5283
  142MOL0     H19128   8.904   8.568   9.601 -0.9470  1.2338 -0.0545
  142MOL0     H19129   8.914   8.595   9.422 -3.5310  0.9518  0.9741
  142MOL0     H19130   9.090   8.731   9.471 -0.2135 -0.1102 -0.6490
  142MOL0     H19131   9.311   8.847   9.493 -3.4075  0.8258  1.8805
  142MOL0     H19132   9.698   8.717   9.805 -0.0485  0.2023 -0.6430
  142MOL0     H19133   9.909   8.757   9.908 -1.5781  4.6439 -0.1423
  142MOL0     H19134  10.229   8.783   9.963 -1.3629 -0.5217  0.7045
  142MOL0     H19135  10.149   8.648   9.910 -3.2489  2.6590  0.6410
  142MOL0     H19136  10.317   8.604   9.718  1.2547  2.1533 -2.3527
  142MOL0     H19137  10.406   8.753   9.751  1.4846 -1.1681 -1.4463
  142MOL0     H19138  10.361   8.518   9.939  1.1995 -0.6988 -0.4157
  142MOL0     H19139  10.499   8.528   9.827  0.7252  0.1379 -0.1373
  142MOL0     H19140  10.427   8.698  10.072 -0.8045 -0.4442  0.4600
  142MOL0     H19141  10.549   8.753   9.958  0.5699 -0.1511  2.1506
  142MOL0     H19142  10.561   8.477  10.088 -1.8294  2.5474  0.2926
  142MOL0     H19143  10.615   8.612  10.175  0.3268  0.5926  0.1546
  142MOL0     H19144  10.778   8.461  10.028 -0.0904  0.0982 -0.3260
  142MOL0     H19145  10.733   8.568   9.896 -0.3760  2.4232 -1.1777
  142MOL0     H19146  10.896   8.612  10.143  1.9078  0.5047 -0.7304
  142MOL0     H19147  10.782   8.741  10.107  2.0204  0.0280 -1.2355
  142MOL0     H19148  10.957   8.617   9.896 -3.1247 -1.2351 -0.6796
  142MOL0     H19149  10.877   8.773   9.888  1.8713  0.5116 -0.9942
  142MOL0     H19150  10.099   8.792   9.527  0.7174  0.1927  0.8543
  142MOL0     H19151   9.880   8.729   9.420 -1.0605  2.2510 -0.0167
  142MOL0     H19152   9.500   8.491   9.602  0.7179  1.3571 -1.5911
  142MOL0     H19153   9.285   8.353   9.553 -1.0277 -0.6081 -0.8586
  142MOL0     H19154   7.533   8.842   8.612  0.0191 -0.5694 -0.8922
  142MOL0     H19155   7.310   8.933   8.645 -0.3852 -0.8166 -2.9875
  142MOL0     H19156   6.901   8.734   8.878 -0.7571 -0.6783 -4.1689
  142MOL0     H19157   6.694   8.735   8.939 -0.7060  1.1861  0.4532
  142MOL0     H19158   6.313   8.974   8.892  0.1153 -0.5547  1.1160
  142MOL0     H19159   6.422   9.081   8.806  1.6092  0.8352 -0.3239
  142MOL0     H19160   6.350   9.211   9.009  0.0613 -0.0100  2.0529
  142MOL0     H19161   6.515   9.162   9.042 -0.6895  3.6593 -0.5785
  142MOL0     H19162   6.402   8.954   9.145  0.7802  0.1730  0.2401
  142MOL0     H19163   6.246   9.045   9.120  0.8160  0.6472 -2.0996
  142MOL0     H19164   6.344   9.236   9.267 -3.4171 -0.5467  0.0301
  142MOL0     H19165   6.271   9.099   9.332 -1.7370  1.3642 -0.5294
  142MOL0     H19166   6.687   9.088   9.467  0.2230  0.1557  0.0649
  142MOL0     H19167   6.635   9.147   8.829 -1.2582 -0.6657  0.4418
  142MOL0     H19168   6.805   9.254   8.720  0.3810 -1.0038 -2.5363
  142MOL0     H19169   6.916   9.258   8.866 -1.3207  1.5855 -0.3227
  142MOL0     H19170   6.973   9.197   8.710  1.1211 -0.7376  2.2932
  143MOL0     O19171   5.727   6.458   3.037  0.2063 -0.0364  0.8909
  143MOL0     C19172   5.652   6.520   2.957  1.1938  0.6098  0.1845
  143MOL0     O19173   5.552   6.609   2.999 -0.0593  0.3305  0.0644
  143MOL0     C19174   5.516   6.633   3.134  0.0373 -0.0134  0.0947
  143MOL0     C19175   5.491   6.532   3.229  0.6820 -0.2555  0.5107
  143MOL0     C19176   5.424   6.565   3.349 -0.1037 -0.0255  0.4778
  143MOL0     C19177   5.387   6.699   3.374  0.3294 -0.4767  0.4228
  143MOL0     O19178   5.319   6.725   3.489  0.2673  0.4456 -0.1819
  143MOL0     C19179   5.337   6.840   3.571  0.1133  0.3064  0.6138
  143MOL0     C19180   5.431   6.798   3.685  0.4100  0.1735 -0.0889
  143MOL0     C19181   5.574   6.761   3.648 -0.9649  0.0324 -0.3671
  143MOL0     C19182   5.667   6.712   3.762  0.2427 -0.0287  0.0459
  143MOL0     C19183   5.605   6.591   3.836  0.2793  0.0986 -1.2296
  143MOL0     C19184   5.705   6.516   3.916  0.1192  0.5145  0.4721
  143MOL0     C19185   5.792   6.591   4.010  0.4193  0.4298  0.2170
  143MOL0     C19186   5.710   6.652   4.125 -0.6634  0.3874  0.0958
  143MOL0     N19187   5.647   6.558   4.224 -0.2238 -1.0041  0.3908
  143MOL0     C19188   5.721   6.481   4.310  1.0144  0.2090  0.4219
  143MOL0     C19189   5.633   6.387   4.347  0.2274 -0.3803 -0.4264
  143MOL0     C19190   5.682   6.285   4.449  0.2403 -0.5981 -1.1839
  143MOL0     C19191   5.663   6.142   4.405  0.4259 -0.4112  0.3213
  143MOL0     C19192   5.724   6.098   4.267 -0.3218 -1.1668 -0.1493
  143MOL0     C19193   5.874   6.116   4.262 -0.0361 -0.3144 -0.0339
  143MOL0     O19194   5.920   6.198   4.149 -0.2101  0.6988 -0.9996
  143MOL0     C19195   6.058   6.189   4.129  1.1724 -0.0560 -0.1254
  143MOL0     C19196   6.147   6.088   4.176  0.0075  0.1616  0.6623
  143MOL0     C19197   6.283   6.104   4.142 -0.8745 -0.1392 -0.2041
  143MOL0     C19198   6.336   6.202   4.059 -0.7555  0.5512 -0.1986
  143MOL0     C19199   6.483   6.217   4.041  0.5478  0.3288 -0.0212
  143MOL0     O19200   6.503   6.285   3.927  0.1228 -0.4802  0.1047
  143MOL0     C19201   6.638   6.301   3.874  0.2032 -0.2131 -0.6956
  143MOL0     C19202   6.737   6.201   3.863  0.5866  0.6231 -0.2505
  143MOL0     C19203   6.870   6.227   3.818  0.7718  1.3067 -0.4837
  143MOL0     C19204   6.901   6.355   3.788 -0.1741 -0.9927  0.2268
  143MOL0     O19205   7.018   6.384   3.727 -0.0902  0.2861  0.2167
  143MOL0     C19206   7.134   6.317   3.777  0.2378 -0.1224  0.4733
  143MOL0     C19207   7.232   6.282   3.664 -0.1151  0.0364 -0.4123
  143MOL0     C19208   7.288   6.405   3.593 -0.3392  0.8541  0.6778
  143MOL0     C19209   7.364   6.366   3.464 -0.2329 -0.8463 -0.0241
  143MOL0     C19210   7.446   6.499   3.422 -0.4833  0.2018 -0.6407
  143MOL0     C19211   7.531   6.484   3.299 -0.2202  0.8268  0.0765
  143MOL0     C19212   7.659   6.406   3.324 -0.0615  0.5320  0.0827
  143MOL0     C19213   7.787   6.492   3.316  0.1890 -0.1751 -0.2281
  143MOL0    Cl19214   7.795   6.571   3.162  0.3077 -0.0050  0.4422
  143MOL0     C19215   6.809   6.451   3.797 -0.5561 -1.0211 -0.1677
  143MOL0     C19216   6.676   6.427   3.841 -0.8256 -0.9739 -0.5713
  143MOL0     O19217   6.569   6.170   4.118  0.3285  0.5927 -0.0192
  143MOL0     C19218   6.237   6.279   3.996  0.3012 -0.6379  0.3008
  143MOL0     C19219   6.103   6.277   4.033  0.0266  0.8089 -0.5640
  143MOL0     N19220   5.508   6.408   4.289  0.2345 -0.2104 -0.4793
  143MOL0     N19221   5.519   6.504   4.205 -0.2067  0.1201  0.3234
  143MOL0     C19222   5.412   6.802   3.281 -0.3271  0.6463  0.0418
  143MOL0     C19223   5.479   6.767   3.166  0.0920  0.0868  0.1582
  143MOL0     C19224   5.644   6.489   2.813 -0.1262 -0.6804 -0.5695
  143MOL0     C19225   5.534   6.531   2.747  0.5605 -0.3408  0.5565
  143MOL0     C19226   5.523   6.501   2.603 -0.2359  0.4084  0.6044
  143MOL0     C19227   5.627   6.437   2.531 -0.8734  0.3687 -0.5100
  143MOL0     O19228   5.627   6.413   2.395 -0.7730  0.1916 -0.0052
  143MOL0     C19229   5.516   6.444   2.313  0.6169  0.7098  0.0699
  143MOL0     C19230   5.519   6.577   2.249  1.1095 -1.0422 -0.5885
  143MOL0     C19231   5.651   6.607   2.182  0.1683 -0.0010 -0.6329
  143MOL0     C19232   5.668   6.738   2.103 -0.2032 -0.4154  0.5506
  143MOL0     C19233   5.671   6.849   2.199  0.3818 -0.5340  0.6396
  143MOL0     C19234   5.670   6.942   2.276  0.0380  0.2764 -0.4560
  143MOL0     C19235   5.731   6.389   2.610  0.6994 -0.3165  0.1378
  143MOL0     C19236   5.741   6.411   2.747 -0.1859  0.2665 -0.5753
  143MOL0     C19237   5.874   6.368   2.813  0.3041  0.1325 -0.4274
  143MOL0     H19238   5.511   6.426   3.218  1.4156 -0.2423  1.5792
  143MOL0     H19239   5.390   6.494   3.424 -3.0667  0.6359 -0.1035
  143MOL0     H19240   5.389   6.914   3.510  0.6055 -2.6856 -2.9846
  143MOL0     H19241   5.242   6.873   3.616 -0.0403  0.9412 -0.1586
  143MOL0     H19242   5.390   6.708   3.733  0.0731  0.7976  0.8115
  143MOL0     H19243   5.430   6.880   3.757  1.4466 -0.7475  1.0154
  143MOL0     H19244   5.621   6.842   3.592  0.0352 -0.0201  0.3694
  143MOL0     H19245   5.564   6.674   3.583 -1.2533 -1.3817  1.4715
  143MOL0     H19246   5.767   6.687   3.725  1.1348  1.7905  1.0867
  143MOL0     H19247   5.675   6.797   3.831 -1.7557 -1.1900  1.8531
  143MOL0     H19248   5.525   6.625   3.902  0.6324 -1.0698 -0.1488
  143MOL0     H19249   5.551   6.518   3.775  1.5786 -2.9025  0.9514
  143MOL0     H19250   5.657   6.434   3.971 -2.7227  2.2441  0.7628
  143MOL0     H19251   5.767   6.470   3.838  0.7308  1.4573  0.3877
  143MOL0     H19252   5.854   6.663   3.955 -0.1787 -0.7949 -2.1710
  143MOL0     H19253   5.863   6.513   4.038  0.7045  0.0904 -1.3570
  143MOL0     H19254   5.788   6.708   4.178 -0.7434 -0.8997  1.6339
  143MOL0     H19255   5.635   6.725   4.093 -2.0211  0.0779  2.3826
  143MOL0     H19256   5.816   6.498   4.360  0.3100  2.8403  0.9931
  143MOL0     H19257   5.782   6.304   4.489 -0.2518  2.3253 -1.1450
  143MOL0     H19258   5.616   6.289   4.537 -0.5749 -4.2314 -1.4514
  143MOL0     H19259   5.690   6.064   4.477  0.9277 -3.2959 -2.7476
  143MOL0     H19260   5.555   6.127   4.396  0.5100 -0.6425 -0.3646
  143MOL0     H19261   5.671   6.165   4.198  1.5272  0.8219  0.2161
  143MOL0     H19262   5.705   5.991   4.262  0.0491 -1.2394 -0.0287
  143MOL0     H19263   5.911   6.014   4.254  3.0634  0.5861  1.4727
  143MOL0     H19264   5.909   6.152   4.359  0.8059 -0.7742 -0.1555
  143MOL0     H19265   6.110   6.015   4.247  1.1977 -1.1073  0.0346
  143MOL0     H19266   6.352   6.042   4.198  0.1718 -0.3476 -1.6609
  143MOL0     H19267   6.702   6.104   3.896  1.2138  0.5540  0.2387
  143MOL0     H19268   6.939   6.145   3.804  0.9987  0.9392  2.2194
  143MOL0     H19269   7.172   6.376   3.861 -1.3835  0.7870  0.6058
  143MOL0     H19270   7.119   6.218   3.821  0.4995 -0.5875 -0.4534
  143MOL0     H19271   7.314   6.228   3.713  0.5303  0.6080 -0.8491
  143MOL0     H19272   7.182   6.225   3.585  0.6697 -1.7786  0.3484
  143MOL0     H19273   7.211   6.474   3.559  0.6500  1.9813  0.6656
  143MOL0     H19274   7.358   6.454   3.662 -2.2739  0.5699  2.9990
  143MOL0     H19275   7.300   6.333   3.381  0.9123 -0.3966 -1.1319
  143MOL0     H19276   7.432   6.283   3.484  0.4205 -0.5914 -1.1098
  143MOL0     H19277   7.501   6.531   3.510  0.6107  0.1675 -1.2943
  143MOL0     H19278   7.379   6.584   3.409 -0.0702  0.8039  0.9952
  143MOL0     H19279   7.470   6.437   3.221 -0.6158  0.3064  0.6873
  143MOL0     H19280   7.557   6.589   3.282  1.0515  0.6277  0.7047
  143MOL0     H19281   7.664   6.319   3.257 -0.9154  1.8849 -1.8482
  143MOL0     H19282   7.666   6.362   3.424 -3.9850 -0.4642  0.0684
  143MOL0     H19283   7.782   6.571   3.391  3.1187  1.0914 -1.2288
  143MOL0     H19284   7.873   6.427   3.337  0.5867  0.5462  0.4085
  143MOL0     H19285   6.840   6.554   3.780  2.2910 -1.9528 -1.0910
  143MOL0     H19286   6.613   6.513   3.859  2.5660  1.3513  1.3757
  143MOL0     H19287   6.272   6.346   3.919 -0.3834 -1.6667 -0.9280
  143MOL0     H19288   6.036   6.352   3.992 -0.0925 -0.6526 -3.2549
  143MOL0     H19289   5.374   6.898   3.312  1.5564  1.1514  0.9796
  143MOL0     H19290   5.490   6.846   3.092  2.3212 -0.6669 -0.3994
  143MOL0     H19291   5.450   6.582   2.791  0.2108  1.0764 -1.5794
  143MOL0     H19292   5.446   6.546   2.542 -1.3839 -1.5143  0.5827
  143MOL0     H19293   5.421   6.428   2.364  0.3940  1.4490 -0.1024
  143MOL0     H19294   5.519   6.365   2.237  0.2618  1.2966 -0.5678
  143MOL0     H19295   5.501   6.657   2.322 -0.6081 -0.4051 -1.6298
  143MOL0     H19296   5.447   6.578   2.166 -0.2244 -2.6580  0.4830
  143MOL0     H19297   5.667   6.530   2.107  0.3927  1.6078 -2.3062
  143MOL0     H19298   5.732   6.604   2.256 -0.4460 -0.1389  0.0559
  143MOL0     H19299   5.761   6.732   2.045 -1.7272  0.2881 -2.1285
  143MOL0     H19300   5.582   6.747   2.036  0.3400 -0.0518 -0.1124
  143MOL0     H19301   5.659   7.006   2.360  0.6827 -1.9986  1.4765
  143MOL0     H19302   5.813   6.341   2.556  1.3667  1.8088 -0.8610
  143MOL0     H19303   5.853   6.266   2.847  0.4460 -1.1403 -3.7767
  143MOL0     H19304   5.954   6.361   2.739 -0.4082 -0.6309 -1.1443
  143MOL0     H19305   5.908   6.432   2.895 -1.3199  0.1127  0.2996
  144MOL0     O19306   1.919   1.811   3.762 -0.3884 -0.2182 -0.0437
  144MOL0     C19307   1.820   1.793   3.691  0.8148  0.3047  0.0314
  144MOL0     O19308   1.824   1.788   3.558 -0.0008 -0.0257  0.2706
  144MOL0     C19309   1.950   1.790   3.498  0.0991  0.0516  0.4276
  144MOL0     C19310   1.981   1.892   3.402  0.4611 -0.3169  0.2541
  144MOL0     C19311   2.108   1.895   3.347  0.6262 -0.1280  0.7076
  144MOL0     C19312   2.202   1.799   3.379 -0.0105 -0.5377  0.1859
  144MOL0     O19313   2.319   1.812   3.319 -0.1843 -0.4940  0.8085
  144MOL0     C19314   2.433   1.769   3.389 -0.6533 -0.5164 -1.1081
  144MOL0     C19315   2.553   1.825   3.315  1.7416 -0.8617  0.1622
  144MOL0     C19316   2.687   1.811   3.381  0.3784  0.4915 -0.2401
  144MOL0     C19317   2.791   1.805   3.272  0.3874  0.0845 -0.2526
  144MOL0     C19318   2.932   1.796   3.322 -0.5331 -0.3399  0.0125
  144MOL0     C19319   3.031   1.806   3.201  0.1998  0.4369 -0.5597
  144MOL0     C19320   3.182   1.830   3.236 -0.2027 -0.6827 -0.0283
  144MOL0     C19321   3.244   1.697   3.293 -0.5408  0.1055 -0.0519
  144MOL0     N19322   3.385   1.714   3.327 -0.0668 -0.0933 -1.2602
  144MOL0     C19323   3.481   1.765   3.237 -0.2249 -0.6524  0.4055
  144MOL0     C19324   3.595   1.797   3.315  0.9999  0.4086  0.0090
  144MOL0     C19325   3.725   1.854   3.256  0.6401  0.4313  0.1068
  144MOL0     C19326   3.788   1.745   3.172 -0.1583  0.5505 -0.5130
  144MOL0     C19327   3.925   1.790   3.110  0.2300  0.0409 -0.4766
  144MOL0     C19328   4.031   1.812   3.217  0.2975  0.5178 -0.0665
  144MOL0     O19329   4.156   1.842   3.157 -0.2677 -0.0224  0.0026
  144MOL0     C19330   4.257   1.743   3.143 -0.3936 -0.1233  0.4417
  144MOL0     C19331   4.374   1.783   3.079  0.4254  0.3980  0.3056
  144MOL0     C19332   4.482   1.698   3.055 -0.0240 -0.7754  0.4536
  144MOL0     C19333   4.477   1.569   3.105  0.5932  0.3317  0.0383
  144MOL0     C19334   4.600   1.481   3.080 -0.0678 -0.2612 -0.8883
  144MOL0     O19335   4.707   1.536   3.017 -0.2324 -0.5098  0.6058
  144MOL0     C19336   4.829   1.479   2.988  0.2203  0.0862 -0.1604
  144MOL0     C19337   4.915   1.542   2.897 -0.4381 -0.1282  1.5114
  144MOL0     C19338   5.031   1.473   2.844 -0.4772 -0.8589  0.3772
  144MOL0     C19339   5.073   1.354   2.897 -0.0509  0.2157 -0.4190
  144MOL0     O19340   5.184   1.296   2.837 -0.6421 -0.5013  0.5831
  144MOL0     C19341   5.166   1.166   2.778  0.2504  0.1187 -0.4072
  144MOL0     C19342   5.297   1.086   2.754  0.3923 -0.2656  0.3363
  144MOL0     C19343   5.260   0.933   2.736 -1.0705 -0.1724  0.1413
  144MOL0     C19344   5.188   0.914   2.601 -0.8324  1.1264 -1.0829
  144MOL0     C19345   5.143   0.763   2.595 -0.0638  0.1076  0.0429
  144MOL0     C19346   5.085   0.731   2.462  0.4642 -0.4616 -0.0887
  144MOL0     C19347   4.997   0.613   2.480 -0.0648  0.0483  0.0354
  144MOL0     C19348   5.070   0.484   2.511 -0.5930 -0.2922 -0.2194
  144MOL0    Cl19349   5.155   0.421   2.369  0.0261 -0.2427 -0.3636
  144MOL0     C19350   4.992   1.300   2.997  0.1717  0.6224  0.7412
  144MOL0     C19351   4.871   1.355   3.042 -0.5413  0.2650  0.1820
  144MOL0     O19352   4.585   1.357   3.105  0.3193 -0.3895 -0.1931
  144MOL0     C19353   4.361   1.530   3.168 -0.1226  0.1447  0.5841
  144MOL0     C19354   4.252   1.610   3.182 -0.2528  0.8932 -0.0192
  144MOL0     N19355   3.556   1.768   3.447  0.5176 -0.1882  0.7012
  144MOL0     N19356   3.437   1.715   3.455  0.1540  0.0029  0.3070
  144MOL0     C19357   2.167   1.693   3.463 -0.4192 -0.3303  0.5762
  144MOL0     C19358   2.044   1.693   3.528  0.6940  0.6734  0.6162
  144MOL0     C19359   1.676   1.772   3.734 -0.2166  0.5483 -0.5148
  144MOL0     C19360   1.568   1.793   3.639 -0.2167 -0.3419  0.3462
  144MOL0     C19361   1.437   1.791   3.677 -0.2546 -1.2299  0.1142
  144MOL0     C19362   1.399   1.743   3.796  0.3402  0.6824 -0.6172
  144MOL0     O19363   1.267   1.726   3.824  0.1438  0.1015  0.1007
  144MOL0     C19364   1.228   1.601   3.886 -0.2109  0.1914  0.2432
  144MOL0     C19365   1.183   1.634   4.020  0.5687  0.0915  0.3719
  144MOL0     C19366   1.105   1.765   4.030  0.3613  0.5947 -0.3401
  144MOL0     C19367   1.047   1.789   4.167  0.8255  0.4793 -0.7187
  144MOL0     C19368   0.990   1.925   4.165  0.2459  0.4542 -0.2955
  144MOL0     C19369   0.965   2.048   4.163  0.5050  0.0127 -1.1245
  144MOL0     C19370   1.492   1.723   3.891 -1.0308  0.2923  0.2462
  144MOL0     C19371   1.634   1.729   3.864  0.4315  0.3050  0.0334
  144MOL0     C19372   1.734   1.719   3.976  0.2136  0.3105  0.0017
  144MOL0     H19373   1.919   1.980   3.387  0.0940 -0.5387  0.4461
  144MOL0     H19374   2.125   1.983   3.287 -2.8579  0.8990  0.9788
  144MOL0     H19375   2.435   1.807   3.491  1.3500 -1.2823 -0.8294
  144MOL0     H19376   2.437   1.660   3.381 -1.0663 -0.5686 -0.6186
  144MOL0     H19377   2.539   1.933   3.302  0.1980 -0.8208  1.7026
  144MOL0     H19378   2.549   1.773   3.219 -2.7414  1.6090 -1.2612
  144MOL0     H19379   2.699   1.721   3.442  1.3111  0.7517 -0.0383
  144MOL0     H19380   2.712   1.897   3.443  0.6385  1.2075 -1.3204
  144MOL0     H19381   2.771   1.718   3.208  0.8699  0.1470 -0.4900
  144MOL0     H19382   2.782   1.895   3.210 -1.4784 -0.6954 -1.2135
  144MOL0     H19383   2.950   1.883   3.385 -2.3561 -0.6251  1.0168
  144MOL0     H19384   2.947   1.709   3.386 -1.9420  1.6326  3.2675
  144MOL0     H19385   3.027   1.723   3.130  1.0100  1.9570 -2.4571
  144MOL0     H19386   3.002   1.894   3.142  1.4142 -0.0148 -1.8620
  144MOL0     H19387   3.179   1.906   3.316 -1.6772 -2.1567  1.4089
  144MOL0     H19388   3.243   1.862   3.151  2.4093 -0.3542  1.8374
  144MOL0     H19389   3.192   1.671   3.386 -0.6297  0.6682  0.0555
  144MOL0     H19390   3.227   1.615   3.222 -1.1345 -0.6629  0.9366
  144MOL0     H19391   3.466   1.775   3.130 -2.6280 -0.2899  0.7348
  144MOL0     H19392   3.700   1.945   3.202 -1.0024  0.0251  0.1120
  144MOL0     H19393   3.784   1.872   3.345  1.0741 -1.4148  0.2419
  144MOL0     H19394   3.816   1.663   3.238 -0.9327  1.4018  0.9357
  144MOL0     H19395   3.719   1.729   3.089  0.9831  1.2706 -1.6426
  144MOL0     H19396   3.913   1.886   3.058  0.2395  0.1053 -0.3588
  144MOL0     H19397   3.968   1.719   3.038  0.5098 -0.6651  0.3744
  144MOL0     H19398   4.036   1.725   3.284 -0.4887 -1.0818 -1.9872
  144MOL0     H19399   3.998   1.900   3.273  1.2631  1.2953 -0.6699
  144MOL0     H19400   4.390   1.887   3.053  2.2264  0.7434  2.4362
  144MOL0     H19401   4.571   1.733   3.004 -1.1013  1.1447 -0.1963
  144MOL0     H19402   4.885   1.641   2.863 -1.0666 -1.6171 -2.8898
  144MOL0     H19403   5.090   1.511   2.762  0.2996  3.4489  2.6676
  144MOL0     H19404   5.111   1.109   2.853  0.9865  0.5744  0.4905
  144MOL0     H19405   5.109   1.179   2.685 -0.3978 -0.0246 -0.0327
  144MOL0     H19406   5.340   1.122   2.659 -2.6064 -0.4347 -1.1903
  144MOL0     H19407   5.368   1.111   2.833  0.2652  1.5412 -0.0783
  144MOL0     H19408   5.352   0.875   2.753 -1.9504 -0.7981  3.5253
  144MOL0     H19409   5.200   0.908   2.824  1.5209  0.4661  2.2492
  144MOL0     H19410   5.257   0.942   2.521 -2.0508  1.9245 -1.9050
  144MOL0     H19411   5.101   0.979   2.584 -2.0525 -0.1128  0.2006
  144MOL0     H19412   5.069   0.761   2.675  0.8540  2.2930  1.0091
  144MOL0     H19413   5.226   0.694   2.609  0.0976 -0.3770 -2.7083
  144MOL0     H19414   5.014   0.809   2.431 -0.2418 -0.6955  0.8524
  144MOL0     H19415   5.155   0.717   2.379  1.2916 -0.2049  0.5536
  144MOL0     H19416   4.927   0.609   2.396 -1.6206  8.4604  0.0565
  144MOL0     H19417   4.930   0.630   2.566  1.3823  1.8914  0.8760
  144MOL0     H19418   5.131   0.490   2.602 -1.6048  1.2077  0.4156
  144MOL0     H19419   4.997   0.411   2.546  2.1879 -2.5580  1.2689
  144MOL0     H19420   5.016   1.201   3.032  1.1827  0.6713  0.2058
  144MOL0     H19421   4.801   1.291   3.095 -1.3232  1.5158  0.6746
  144MOL0     H19422   4.353   1.432   3.214 -1.9445 -0.0094 -0.0077
  144MOL0     H19423   4.169   1.577   3.244  1.3802  0.7109  2.1904
  144MOL0     H19424   2.233   1.607   3.470 -0.6581 -0.7888 -1.9167
  144MOL0     H19425   2.013   1.612   3.594  1.0614 -2.3395 -2.6325
  144MOL0     H19426   1.590   1.817   3.535  2.6366  0.0339  0.9507
  144MOL0     H19427   1.353   1.818   3.613  0.2402  1.1328  0.3629
  144MOL0     H19428   1.311   1.530   3.889 -0.3541 -0.0979 -1.6437
  144MOL0     H19429   1.144   1.557   3.832 -1.0480  0.6910  1.1132
  144MOL0     H19430   1.269   1.625   4.087  1.5678 -1.3155 -1.0354
  144MOL0     H19431   1.111   1.559   4.054 -0.9535  0.8501 -1.0050
  144MOL0     H19432   1.028   1.765   3.952 -1.0164 -0.8047  0.9613
  144MOL0     H19433   1.170   1.850   4.010 -0.1009  1.2281  0.7546
  144MOL0     H19434   0.964   1.720   4.184 -0.5318  1.7975 -1.7299
  144MOL0     H19435   1.118   1.794   4.250 -1.5243  1.6005  1.3374
  144MOL0     H19436   0.941   2.152   4.172 -1.8388 -0.6198  2.4788
  144MOL0     H19437   1.454   1.708   3.992 -1.0583 -1.1017  0.0459
  144MOL0     H19438   1.819   1.651   3.972  0.3963  0.3167  2.5144
  144MOL0     H19439   1.780   1.813   4.006 -1.9544  1.2286  0.6900
  144MOL0     H19440   1.688   1.683   4.068  5.9826  0.4031  3.4082
  145MOL0     O19441   2.837   9.357   8.677  0.2148  0.5262 -0.3417
  145MOL0     C19442   2.762   9.297   8.599 -0.2180  0.5297  0.0546
  145MOL0     O19443   2.805   9.196   8.506  0.1194 -0.3189  0.4364
  145MOL0     C19444   2.947   9.185   8.489  0.2308 -0.4616  0.1762
  145MOL0     C19445   3.013   9.069   8.526  1.0182  0.2234  0.0871
  145MOL0     C19446   3.155   9.052   8.522 -0.7334 -0.3582  0.3181
  145MOL0     C19447   3.231   9.163   8.491 -0.9321  0.4088 -0.7530
  145MOL0     O19448   3.363   9.155   8.510 -0.0554  0.2068 -0.1439
  145MOL0     C19449   3.433   9.272   8.550  0.0356  0.2414 -0.0185
  145MOL0     C19450   3.573   9.247   8.599 -0.0466 -0.1451 -1.1256
  145MOL0     C19451   3.657   9.373   8.640  0.5869  0.2537  0.2836
  145MOL0     C19452   3.782   9.330   8.714 -0.2708 -0.5691 -0.0248
  145MOL0     C19453   3.873   9.446   8.748  0.2286  0.2948 -0.1320
  145MOL0     C19454   4.003   9.421   8.825 -0.3830 -0.9617 -0.5416
  145MOL0     C19455   4.112   9.530   8.813  0.4915 -0.7540  0.2937
  145MOL0     C19456   4.234   9.489   8.891  0.2925  0.2291 -0.3092
  145MOL0     N19457   4.344   9.584   8.866 -0.4203  0.0759  0.7959
  145MOL0     C19458   4.357   9.706   8.929  0.2830 -0.6136  0.5338
  145MOL0     C19459   4.478   9.748   8.878 -0.3346 -0.4689 -0.3758
  145MOL0     C19460   4.566   9.870   8.923 -0.1182  0.0413  0.0456
  145MOL0     C19461   4.499   9.951   9.034 -0.0832 -0.5480 -0.0936
  145MOL0     C19462   4.580  10.077   9.064 -0.1726  0.0008  0.5518
  145MOL0     C19463   4.550  10.155   9.189 -0.3226 -0.1582  0.8865
  145MOL0     O19464   4.630  10.273   9.200 -0.3081  0.5574 -0.0858
  145MOL0     C19465   4.752  10.255   9.245  0.5260 -0.3340  0.4460
  145MOL0     C19466   4.820  10.377   9.255 -0.3914 -0.5284 -1.3364
  145MOL0     C19467   4.951  10.368   9.299  0.5169 -0.1778  0.6290
  145MOL0     C19468   5.007  10.243   9.337 -0.0934  0.4379 -0.3142
  145MOL0     C19469   5.142  10.249   9.387 -0.6549 -0.7118  0.7235
  145MOL0     O19470   5.209  10.139   9.363 -0.1947  0.2301 -0.2785
  145MOL0     C19471   5.333  10.123   9.424 -0.5303  0.4111  0.5412
  145MOL0     C19472   5.345  10.004   9.500 -0.3199 -0.5986  0.1541
  145MOL0     C19473   5.466   9.971   9.567  0.7998 -0.3803 -0.1084
  145MOL0     C19474   5.571  10.060   9.555 -0.8529 -0.4263  0.2279
  145MOL0     O19475   5.691  10.040   9.619 -0.4348 -0.2087  0.0810
  145MOL0     C19476   5.736   9.900   9.613  0.2734 -0.4011  0.0727
  145MOL0     C19477   5.856   9.893   9.699  0.5584 -0.3834  0.1279
  145MOL0     C19478   5.977   9.961   9.633  0.1973 -0.0688  0.4780
  145MOL0     C19479   6.098   9.958   9.720 -0.5213 -0.5667  0.2121
  145MOL0     C19480   6.222  10.024   9.659  0.5623 -0.3136 -0.1435
  145MOL0     C19481   6.261   9.982   9.515 -0.6533 -0.0896  0.1787
  145MOL0     C19482   6.409  10.009   9.468  0.8972  0.1291  0.3227
  145MOL0     C19483   6.427  10.159   9.481 -0.7052 -0.2095  0.6313
  145MOL0    Cl19484   6.584  10.205   9.404 -0.0779  0.2809 -0.1050
  145MOL0     C19485   5.558  10.174   9.472  0.3504  0.0537 -0.2420
  145MOL0     C19486   5.442  10.206   9.409  0.4995  0.2184 -0.3951
  145MOL0     O19487   5.179  10.351   9.443 -0.0277 -0.6968 -0.1205
  145MOL0     C19488   4.943  10.122   9.320  0.1350 -0.6400  0.0912
  145MOL0     C19489   4.812  10.125   9.268  0.8833 -0.4414  0.0595
  145MOL0     N19490   4.527   9.659   8.784 -0.0527 -0.1108  0.2062
  145MOL0     N19491   4.444   9.564   8.779  0.1126 -0.0181  0.6016
  145MOL0     C19492   3.164   9.276   8.444  0.3556  0.0356  0.2078
  145MOL0     C19493   3.025   9.282   8.437  0.6999  0.6014 -0.6587
  145MOL0     C19494   2.620   9.342   8.591 -0.0924  0.2291  0.3542
  145MOL0     C19495   2.560   9.351   8.466 -0.0132  0.4651 -0.2852
  145MOL0     C19496   2.426   9.395   8.460  0.3843  0.5204 -0.3623
  145MOL0     C19497   2.346   9.425   8.576 -0.0708  0.0913  0.9552
  145MOL0     O19498   2.210   9.452   8.559  0.1528 -0.2153 -0.4111
  145MOL0     C19499   2.140   9.520   8.666  0.1909 -0.4540  0.4707
  145MOL0     C19500   1.992   9.559   8.632  0.2874 -0.4441  0.6566
  145MOL0     C19501   1.920   9.630   8.740  0.3625  0.0344  0.0592
  145MOL0     C19502   1.772   9.659   8.712 -0.3985 -0.2014 -0.5205
  145MOL0     C19503   1.718   9.746   8.817 -0.4622  0.2183  0.0591
  145MOL0     C19504   1.681   9.820   8.905  0.3840 -0.2991 -0.0943
  145MOL0     C19505   2.416   9.423   8.695  0.2777 -0.5379  0.1652
  145MOL0     C19506   2.545   9.381   8.708  0.5205  0.3369 -0.3320
  145MOL0     C19507   2.586   9.358   8.848 -0.1273  0.2061 -0.3752
  145MOL0     H19508   2.949   8.986   8.554  1.4889  0.2849  1.3966
  145MOL0     H19509   3.198   8.957   8.549  2.1325  1.0478  1.1021
  145MOL0     H19510   3.442   9.340   8.464 -0.8389  1.7497  1.0336
  145MOL0     H19511   3.389   9.338   8.626  2.9183  0.2789  1.7910
  145MOL0     H19512   3.623   9.183   8.525  1.0201 -0.4756 -0.1336
  145MOL0     H19513   3.567   9.188   8.691  0.9218 -0.2197 -1.1009
  145MOL0     H19514   3.601   9.439   8.707  1.5286  0.2218  1.1258
  145MOL0     H19515   3.677   9.440   8.556 -2.5736  3.3291  1.6976
  145MOL0     H19516   3.764   9.271   8.804  1.5637 -0.5487  0.4024
  145MOL0     H19517   3.846   9.272   8.647 -0.5215  0.4884 -1.2248
  145MOL0     H19518   3.898   9.502   8.657  2.8928  1.1702  1.0334
  145MOL0     H19519   3.825   9.523   8.809 -0.3353  1.0341 -1.4693
  145MOL0     H19520   3.977   9.405   8.930  1.5900 -1.0809 -0.0272
  145MOL0     H19521   4.059   9.330   8.802  3.4819  1.1738 -0.5513
  145MOL0     H19522   4.067   9.625   8.842  2.3251 -0.5638  2.8100
  145MOL0     H19523   4.142   9.539   8.708 -0.0317 -1.2248  0.0926
  145MOL0     H19524   4.229   9.490   9.000  0.1036 -1.4497 -0.2733
  145MOL0     H19525   4.262   9.387   8.863 -0.0932  0.5570 -1.9861
  145MOL0     H19526   4.286   9.745   9.000 -1.8217 -1.9187 -0.7384
  145MOL0     H19527   4.654   9.820   8.965  0.4145 -0.6219 -1.7748
  145MOL0     H19528   4.597   9.938   8.843 -0.2683  1.0028  0.7852
  145MOL0     H19529   4.400   9.982   8.999 -0.5765 -1.4087  0.5171
  145MOL0     H19530   4.490   9.885   9.121 -0.8027  0.7321  0.8449
  145MOL0     H19531   4.581  10.143   8.978 -1.2710 -1.9359 -1.0320
  145MOL0     H19532   4.685  10.047   9.059  0.6041  2.6786 -1.2316
  145MOL0     H19533   4.554  10.097   9.282  0.1867  0.3623  1.1991
  145MOL0     H19534   4.448  10.195   9.185 -0.0432  0.4754 -0.0180
  145MOL0     H19535   4.780  10.469   9.213 -1.9550 -0.2677  0.5869
  145MOL0     H19536   5.014  10.456   9.311  1.5772 -0.7262 -0.6474
  145MOL0     H19537   5.270   9.927   9.512  0.0096 -1.1110 -0.9356
  145MOL0     H19538   5.475   9.882   9.629  0.8870 -0.3178 -0.0321
  145MOL0     H19539   5.662   9.832   9.658  0.2973 -0.6765 -0.2978
  145MOL0     H19540   5.758   9.869   9.511 -1.4348  0.8304 -0.7193
  145MOL0     H19541   5.834   9.941   9.794 -0.4746 -1.0193  0.2197
  145MOL0     H19542   5.880   9.788   9.714  1.2313 -0.0466  1.5460
  145MOL0     H19543   5.999   9.901   9.545  2.1956 -0.9970  1.5608
  145MOL0     H19544   5.948  10.063   9.603  2.0183  0.1381 -0.6964
  145MOL0     H19545   6.118   9.852   9.739  0.6536 -0.9721 -2.6416
  145MOL0     H19546   6.079  10.009   9.815  1.5341  0.3270  0.1999
  145MOL0     H19547   6.299  10.000   9.732  0.7770  0.3169 -0.1625
  145MOL0     H19548   6.198  10.130   9.669  2.0946  0.0139  0.2098
  145MOL0     H19549   6.251   9.873   9.509 -2.2364 -0.2317  3.2970
  145MOL0     H19550   6.193  10.031   9.446  0.0626  3.7246  1.9098
  145MOL0     H19551   6.428   9.972   9.367 -0.2866  0.3847 -0.0063
  145MOL0     H19552   6.481   9.942   9.517  1.7310  0.7640 -0.0026
  145MOL0     H19553   6.347  10.221   9.439  0.7390  0.5937 -1.0677
  145MOL0     H19554   6.432  10.192   9.586  0.2860  3.1313 -0.3335
  145MOL0     H19555   5.652  10.228   9.468  0.9813 -1.0140 -0.3092
  145MOL0     H19556   5.446  10.300   9.355 -0.9604 -0.4883 -1.8348
  145MOL0     H19557   5.001  10.033   9.340  2.9027  0.8282 -0.9104
  145MOL0     H19558   4.759  10.031   9.259 -0.0949  0.2237 -1.5781
  145MOL0     H19559   3.226   9.361   8.421  1.4121 -1.7785 -5.1350
  145MOL0     H19560   2.976   9.375   8.410  0.7393  1.8703  3.0038
  145MOL0     H19561   2.616   9.340   8.374  2.1422 -1.3709  1.1502
  145MOL0     H19562   2.367   9.379   8.371 -1.4023  1.5799  0.5779
  145MOL0     H19563   2.198   9.610   8.686 -2.7010  1.2236  1.8443
  145MOL0     H19564   2.157   9.463   8.757 -0.7835 -1.0160  0.3139
  145MOL0     H19565   1.935   9.468   8.613 -0.0241 -0.4963  1.7594
  145MOL0     H19566   1.996   9.616   8.539  2.4145  0.4107  1.2087
  145MOL0     H19567   1.974   9.722   8.765  1.0196 -0.7035  1.5190
  145MOL0     H19568   1.931   9.571   8.832  1.2360 -0.1867 -0.1843
  145MOL0     H19569   1.768   9.706   8.614  0.7118  0.3701 -0.3124
  145MOL0     H19570   1.720   9.563   8.700 -2.7349  1.0694 -1.1339
  145MOL0     H19571   1.649   9.874   8.992  0.8252  2.3141 -1.4698
  145MOL0     H19572   2.370   9.459   8.786 -0.6888 -0.0121 -0.5095
  145MOL0     H19573   2.691   9.386   8.860  0.6259 -2.9411  1.7502
  145MOL0     H19574   2.528   9.417   8.920  2.1649  0.5187  1.3677
  145MOL0     H19575   2.579   9.253   8.878  0.8824  0.4566  0.8552
  146MOL0     O19576   9.292   0.082   3.309  0.7497 -0.1632 -1.0355
  146MOL0     C19577   9.228   0.088   3.206  0.4760  0.1811  0.1648
  146MOL0     O19578   9.276   0.039   3.082 -0.0139 -0.1524 -0.4585
  146MOL0     C19579   9.392  -0.035   3.069 -0.1552  0.9414  0.7491
  146MOL0     C19580   9.424  -0.144   3.151  0.1843 -0.3360 -0.0941
  146MOL0     C19581   9.545  -0.197   3.143 -0.0429  0.4141 -0.4290
  146MOL0     C19582   9.633  -0.171   3.038  0.1217 -0.0236  0.5254
  146MOL0     O19583   9.761  -0.220   3.031 -1.0391  0.3232  0.1686
  146MOL0     C19584   9.814  -0.319   3.117  0.5158  0.4852  0.0446
  146MOL0     C19585   9.961  -0.320   3.103 -0.1463 -0.0917  0.6399
  146MOL0     C19586  10.032  -0.445   3.164  0.0046  0.4373 -0.5960
  146MOL0     C19587  10.175  -0.422   3.214  0.0314 -0.9985 -0.2029
  146MOL0     C19588  10.219  -0.554   3.278 -0.5446  0.0390 -0.3146
  146MOL0     C19589  10.369  -0.570   3.307 -0.1169  0.0820  0.0243
  146MOL0     C19590  10.409  -0.711   3.349  0.3659  0.2453  0.6064
  146MOL0     C19591  10.561  -0.724   3.353 -0.0543 -0.2249  0.4063
  146MOL0     N19592  10.628  -0.622   3.430  0.1621 -0.1852  0.3344
  146MOL0     C19593  10.750  -0.551   3.398  0.0015 -0.2610 -0.0063
  146MOL0     C19594  10.798  -0.515   3.520 -0.5021 -0.4200 -0.0911
  146MOL0     C19595  10.922  -0.447   3.536 -0.1247  0.4726  0.3837
  146MOL0     C19596  11.037  -0.501   3.461  0.0606  0.6475  0.3738
  146MOL0     C19597  11.067  -0.648   3.477 -0.2512  0.6726 -0.6479
  146MOL0     C19598  11.127  -0.673   3.621 -0.4578 -0.1750 -0.1623
  146MOL0     O19599  11.256  -0.623   3.637  0.1306 -0.9063 -0.0228
  146MOL0     C19600  11.367  -0.678   3.569  0.2721 -0.0311 -0.6278
  146MOL0     C19601  11.397  -0.812   3.560  0.3552  0.1421  0.1600
  146MOL0     C19602  11.490  -0.855   3.477 -0.5081 -0.1434 -0.3100
  146MOL0     C19603  11.582  -0.770   3.417 -0.4089  0.0752 -0.1556
  146MOL0     C19604  11.699  -0.821   3.341 -0.4226 -0.3598 -0.7160
  146MOL0     O19605  11.699  -0.948   3.305 -0.3326 -0.1983  0.9386
  146MOL0     C19606  11.814  -0.994   3.259 -0.0633 -0.8814 -0.2471
  146MOL0     C19607  11.937  -0.985   3.330  0.2650  0.5618 -0.9841
  146MOL0     C19608  12.054  -1.033   3.276 -0.2423 -0.3425 -0.0522
  146MOL0     C19609  12.057  -1.088   3.143  0.1583  0.0491  0.0911
  146MOL0     O19610  12.175  -1.133   3.095  0.4414  0.1400 -0.3189
  146MOL0     C19611  12.185  -1.215   2.975  0.0063 -0.3551 -0.4477
  146MOL0     C19612  12.328  -1.281   2.987  0.5939  0.3998 -0.0332
  146MOL0     C19613  12.382  -1.354   2.861  0.1584 -0.1608  0.4993
  146MOL0     C19614  12.519  -1.404   2.880 -0.3961 -0.1831 -0.4244
  146MOL0     C19615  12.549  -1.523   2.787  0.1955 -0.7904  0.4168
  146MOL0     C19616  12.704  -1.553   2.769  0.5320 -0.0627 -0.0016
  146MOL0     C19617  12.767  -1.519   2.630  0.1368 -0.5561  0.1209
  146MOL0     C19618  12.891  -1.598   2.629 -0.1249  0.1012 -0.4466
  146MOL0    Cl19619  13.037  -1.518   2.704  0.1335 -0.1905 -0.0905
  146MOL0     C19620  11.935  -1.099   3.072 -0.1618  0.6120 -0.2221
  146MOL0     C19621  11.816  -1.064   3.137  0.8154  0.4075  0.6601
  146MOL0     O19622  11.783  -0.735   3.312  0.1871 -0.4420  0.1203
  146MOL0     C19623  11.576  -0.636   3.439  0.8656  0.2134 -0.0776
  146MOL0     C19624  11.467  -0.586   3.517  0.5163  0.5584 -0.9534
  146MOL0     N19625  10.723  -0.557   3.621 -0.2906 -0.1921 -0.0972
  146MOL0     N19626  10.620  -0.611   3.568  0.0598 -0.3467  0.4749
  146MOL0     C19627   9.594  -0.076   2.942  0.5436  0.5639 -0.2274
  146MOL0     C19628   9.472  -0.009   2.960  0.1591 -0.0144  0.4014
  146MOL0     C19629   9.111   0.167   3.202  0.0331  0.0808 -0.2659
  146MOL0     C19630   9.090   0.258   3.101 -0.1023 -0.1163  0.3358
  146MOL0     C19631   8.981   0.350   3.095 -0.4303 -0.0711  0.6884
  146MOL0     C19632   8.891   0.346   3.203 -0.7430 -0.1714  0.2914
  146MOL0     O19633   8.781   0.422   3.198  0.1387  0.7402 -0.4005
  146MOL0     C19634   8.748   0.504   3.086 -0.1509  0.0974 -0.7627
  146MOL0     C19635   8.610   0.560   3.132 -0.7143 -0.2910 -0.2262
  146MOL0     C19636   8.547   0.651   3.027  0.4564 -0.6232  0.2737
  146MOL0     C19637   8.419   0.591   2.979 -0.2595 -0.2805  0.8278
  146MOL0     C19638   8.312   0.623   3.071 -0.4606  0.4846  0.2096
  146MOL0     C19639   8.209   0.646   3.134 -0.3548  0.1450 -0.8031
  146MOL0     C19640   8.913   0.260   3.312  0.1032  0.5891 -0.6229
  146MOL0     C19641   9.015   0.162   3.308  0.4056 -0.5693 -0.1371
  146MOL0     C19642   9.011   0.067   3.428 -1.0106  0.1443 -0.3251
  146MOL0     H19643   9.359  -0.163   3.236  1.3138  0.1276  0.9191
  146MOL0     H19644   9.575  -0.270   3.218 -0.3133  0.4537 -0.2805
  146MOL0     H19645   9.793  -0.292   3.220  2.5807  1.5562  0.2366
  146MOL0     H19646   9.778  -0.415   3.078  0.0825  0.4557  0.5143
  146MOL0     H19647  10.006  -0.229   3.145 -1.2999  0.1688  1.3578
  146MOL0     H19648   9.974  -0.315   2.994  1.0014 -0.8151  0.7231
  146MOL0     H19649  10.039  -0.511   3.078  2.9079 -0.8482  0.4977
  146MOL0     H19650   9.970  -0.498   3.238  0.4430 -1.6337 -1.6558
  146MOL0     H19651  10.239  -0.390   3.132  0.1898  1.9680  0.9366
  146MOL0     H19652  10.185  -0.348   3.294  1.6974 -2.8893  1.4594
  146MOL0     H19653  10.165  -0.561   3.372 -0.0514  0.8742  0.0401
  146MOL0     H19654  10.182  -0.636   3.215 -1.4496 -0.2011  0.5196
  146MOL0     H19655  10.423  -0.552   3.214 -2.2233  0.1929 -1.2418
  146MOL0     H19656  10.395  -0.500   3.387  0.7076 -2.3991  2.0809
  146MOL0     H19657  10.368  -0.793   3.289 -1.3920  1.3971  0.1685
  146MOL0     H19658  10.376  -0.733   3.451 -0.3509  0.8319  0.5064
  146MOL0     H19659  10.592  -0.826   3.373 -0.2409 -0.8788 -2.2032
  146MOL0     H19660  10.596  -0.710   3.250 -0.1238 -0.7201  0.3154
  146MOL0     H19661  10.787  -0.536   3.297  0.9601  2.8419  0.7172
  146MOL0     H19662  10.904  -0.346   3.497  1.5219  0.8451  0.5495
  146MOL0     H19663  10.942  -0.446   3.643 -0.7273 -0.6103  0.5143
  146MOL0     H19664  11.015  -0.487   3.355  4.0075  2.4741 -0.3728
  146MOL0     H19665  11.129  -0.448   3.488  1.6227 -1.7789  0.1012
  146MOL0     H19666  11.141  -0.685   3.405  1.2760  2.1012  0.1224
  146MOL0     H19667  10.972  -0.699   3.459  0.1297  0.8452 -3.5409
  146MOL0     H19668  11.130  -0.780   3.641 -1.8679  0.2241  2.5975
  146MOL0     H19669  11.059  -0.642   3.701  1.0619 -0.9797  1.4965
  146MOL0     H19670  11.324  -0.883   3.598  2.3212 -3.7382 -2.6928
  146MOL0     H19671  11.494  -0.963   3.467 -1.6616 -0.3180  0.8318
  146MOL0     H19672  11.936  -0.944   3.431 -0.9094 -0.9272 -0.3403
  146MOL0     H19673  12.144  -1.019   3.334 -1.8414  2.3982  2.0471
  146MOL0     H19674  12.109  -1.294   2.978  0.4504 -0.7952 -0.7536
  146MOL0     H19675  12.192  -1.161   2.880  0.0109 -2.2367 -1.5655
  146MOL0     H19676  12.398  -1.199   3.007  1.6737 -0.5931  0.3880
  146MOL0     H19677  12.320  -1.349   3.072 -0.6144  1.0865  0.4248
  146MOL0     H19678  12.317  -1.439   2.841 -1.3513  1.7735 -3.9901
  146MOL0     H19679  12.379  -1.289   2.774 -0.1440  1.9658  2.0354
  146MOL0     H19680  12.533  -1.433   2.985  0.2736  0.0412 -0.4481
  146MOL0     H19681  12.585  -1.318   2.865  0.8892 -1.0468  0.0138
  146MOL0     H19682  12.509  -1.499   2.688  0.3667 -0.3473  0.4503
  146MOL0     H19683  12.498  -1.603   2.841 -0.3316  0.0385  1.1748
  146MOL0     H19684  12.772  -1.523   2.849  1.2451 -2.3301  0.3256
  146MOL0     H19685  12.698  -1.662   2.781  0.2442  0.1275  1.9988
  146MOL0     H19686  12.801  -1.415   2.617 -0.6971 -0.5516 -2.3560
  146MOL0     H19687  12.702  -1.557   2.552  2.4423 -1.7283 -1.3223
  146MOL0     H19688  12.865  -1.696   2.671 -0.8463  0.0476 -0.9968
  146MOL0     H19689  12.912  -1.612   2.523  0.7297 -0.0308 -0.2700
  146MOL0     H19690  11.931  -1.143   2.973  1.8740 -2.8265  1.0573
  146MOL0     H19691  11.725  -1.085   3.082  1.4867  0.2284 -0.4115
  146MOL0     H19692  11.643  -0.567   3.389  1.4853  0.7685  1.4409
  146MOL0     H19693  11.453  -0.478   3.521  0.4388  0.5170  0.8387
  146MOL0     H19694   9.656  -0.054   2.856  2.2183 -1.2747  0.4408
  146MOL0     H19695   9.438   0.073   2.898 -0.7456 -0.5939  0.1075
  146MOL0     H19696   9.167   0.249   3.025 -0.8640 -4.2256 -0.1793
  146MOL0     H19697   8.966   0.412   3.008 -4.0663 -0.3223  0.9860
  146MOL0     H19698   8.742   0.438   2.998  0.5687  0.9887 -1.4935
  146MOL0     H19699   8.818   0.584   3.063  0.5569 -0.3289 -0.1103
  146MOL0     H19700   8.615   0.622   3.222 -2.5869 -1.6043  0.8483
  146MOL0     H19701   8.540   0.482   3.162  0.2134 -1.5981 -1.3328
  146MOL0     H19702   8.616   0.661   2.943  1.3337  0.9156  1.1253
  146MOL0     H19703   8.538   0.754   3.064  1.3959 -0.2603 -0.4536
  146MOL0     H19704   8.390   0.628   2.880  1.6190  0.5425  0.5399
  146MOL0     H19705   8.431   0.483   2.969  0.7691 -0.2000  1.1459
  146MOL0     H19706   8.115   0.661   3.183 -0.0156 -3.0420  1.1180
  146MOL0     H19707   8.838   0.254   3.389  1.8865 -1.7595  1.0800
  146MOL0     H19708   9.076   0.106   3.507  0.0465 -1.0743 -0.5594
  146MOL0     H19709   8.909   0.063   3.468 -1.3546  0.3859 -1.1563
  146MOL0     H19710   9.052  -0.033   3.413 -0.1695  0.4730 -0.2719
  147MOL0     O19711  10.315   1.202  10.347  0.3207  0.3647  0.4761
  147MOL0     C19712  10.384   1.287  10.281 -0.2852  0.5811 -0.6338
  147MOL0     O19713  10.516   1.294  10.276  0.5540 -0.7005 -0.8199
  147MOL0     C19714  10.601   1.196  10.324 -0.3278  0.5503 -0.1550
  147MOL0     C19715  10.583   1.057  10.318 -0.3320  0.0765 -0.3343
  147MOL0     C19716  10.683   0.977  10.351 -0.4281  0.5519 -0.2620
  147MOL0     C19717  10.805   1.028  10.407  0.5034  0.9912 -0.8289
  147MOL0     O19718  10.905   0.941  10.434 -0.1655  1.0329 -0.6452
  147MOL0     C19719  10.907   0.902  10.576  0.4359  0.5442  0.3168
  147MOL0     C19720  11.026   0.810  10.594  0.4223  0.3940 -0.6610
  147MOL0     C19721  11.159   0.872  10.551  0.4064  0.5422  0.0973
  147MOL0     C19722  11.276   0.784  10.597  0.6496  0.0906 -0.2247
  147MOL0     C19723  11.414   0.852  10.564  0.0886 -1.1029  0.0513
  147MOL0     C19724  11.534   0.763  10.593  1.0995  0.6592  0.2232
  147MOL0     C19725  11.672   0.828  10.551  0.9579 -0.8075 -0.4626
  147MOL0     C19726  11.704   0.951  10.640  1.3904  0.0163 -0.0738
  147MOL0     N19727  11.827   1.001  10.594 -0.2420 -0.4848  0.2895
  147MOL0     C19728  11.952   0.965  10.633  0.1441 -0.3067  0.4919
  147MOL0     C19729  12.044   1.035  10.557  0.4224  0.0494  0.0140
  147MOL0     C19730  12.185   1.033  10.584 -0.7539  0.0257 -0.7512
  147MOL0     C19731  12.258   0.990  10.455 -0.3136 -0.1198 -0.2014
  147MOL0     C19732  12.407   0.973  10.490  1.2457  0.5084  0.6452
  147MOL0     C19733  12.492   0.944  10.362  0.5430  0.1818  0.1300
  147MOL0     O19734  12.601   0.888  10.425 -0.6460 -0.4070 -0.9149
  147MOL0     C19735  12.716   0.879  10.352 -0.0496  0.3771 -0.4405
  147MOL0     C19736  12.831   0.836  10.418  0.3695  0.1865 -0.3848
  147MOL0     C19737  12.954   0.839  10.348  0.5757  0.4589 -0.8143
  147MOL0     C19738  12.966   0.882  10.217 -0.3782 -0.9179 -0.2977
  147MOL0     C19739  13.100   0.907  10.157  0.3047  0.0791 -0.4954
  147MOL0     O19740  13.199   0.831  10.219  0.2490  0.7310  0.2070
  147MOL0     C19741  13.328   0.862  10.219  0.3046  0.5038 -0.1622
  147MOL0     C19742  13.384   0.990  10.204  0.2515 -0.1403 -0.0648
  147MOL0     C19743  13.522   1.016  10.230 -0.5677 -0.4655  0.2161
  147MOL0     C19744  13.604   0.908  10.257 -0.0830 -0.0324  0.2403
  147MOL0     O19745  13.741   0.912  10.268 -0.2722 -0.1543  0.2215
  147MOL0     C19746  13.798   1.038  10.273 -0.3271  0.1161 -0.1122
  147MOL0     C19747  13.934   1.040  10.331 -0.8895  0.7900  0.4706
  147MOL0     C19748  14.008   1.172  10.309  0.1406 -0.3328  0.7348
  147MOL0     C19749  14.156   1.168  10.354  0.2832 -0.5241 -0.8808
  147MOL0     C19750  14.213   1.307  10.387  0.6833  0.7850  0.4126
  147MOL0     C19751  14.360   1.288  10.428  1.2212 -0.2157  0.6770
  147MOL0     C19752  14.429   1.426  10.440 -0.3216 -0.0498  0.3588
  147MOL0     C19753  14.577   1.395  10.457  0.1531 -0.7677 -0.2311
  147MOL0    Cl19754  14.668   1.323  10.313 -0.3567  0.1788  0.3360
  147MOL0     C19755  13.552   0.779  10.271  0.1168  0.1153  1.1497
  147MOL0     C19756  13.419   0.760  10.249 -0.0731 -0.0558 -0.1219
  147MOL0     O19757  13.121   0.994  10.075 -0.1962  0.1845  0.7125
  147MOL0     C19758  12.849   0.919  10.156 -0.3657 -0.1161 -1.4375
  147MOL0     C19759  12.728   0.920  10.218 -0.4453 -0.0451  0.1913
  147MOL0     N19760  11.967   1.126  10.482  0.2024 -0.3277 -0.5428
  147MOL0     N19761  11.841   1.102  10.504 -0.2668  0.2481 -0.3216
  147MOL0     C19762  10.831   1.165  10.423 -0.3417  0.6197  0.5970
  147MOL0     C19763  10.725   1.247  10.382  0.1878  0.5969  1.1707
  147MOL0     C19764  10.303   1.393  10.218  0.0229  1.3305  0.2020
  147MOL0     C19765  10.172   1.374  10.192  0.3363 -0.0039 -0.2944
  147MOL0     C19766  10.086   1.461  10.127 -0.0903 -0.0432 -0.1130
  147MOL0     C19767  10.137   1.595  10.097  0.8147 -0.4496 -0.1398
  147MOL0     O19768  10.051   1.686  10.036  0.3048  0.1719 -0.4398
  147MOL0     C19769  10.102   1.804   9.980  0.2894 -0.5043  0.4981
  147MOL0     C19770  10.145   1.778   9.837 -0.5989 -0.3970  0.7853
  147MOL0     C19771  10.218   1.905   9.774  0.1550 -0.0217 -0.7366
  147MOL0     C19772  10.304   1.876   9.658  0.4825  0.4811  0.9327
  147MOL0     C19773  10.425   1.799   9.694 -0.1959 -0.7401 -0.0563
  147MOL0     C19774  10.537   1.752   9.726  0.0015  0.1196 -0.5296
  147MOL0     C19775  10.279   1.612  10.120  0.4549  0.7368 -0.4059
  147MOL0     C19776  10.359   1.512  10.176  0.0743 -0.3375  0.5389
  147MOL0     C19777  10.507   1.551  10.182 -0.6304 -0.2575 -0.2472
  147MOL0     H19778  10.486   1.025  10.281 -0.5416 -0.1355  0.4007
  147MOL0     H19779  10.668   0.870  10.337 -0.8718  0.9059 -3.0884
  147MOL0     H19780  10.910   0.995  10.633  0.6125 -0.2416  1.6143
  147MOL0     H19781  10.813   0.851  10.598  0.8533  0.6388  2.4853
  147MOL0     H19782  11.010   0.726  10.525 -0.6450  1.1127 -1.3150
  147MOL0     H19783  11.023   0.773  10.697 -1.7010  0.9710 -0.4614
  147MOL0     H19784  11.166   0.973  10.594 -0.5574  0.9418 -0.6433
  147MOL0     H19785  11.168   0.882  10.443  1.8503 -0.6835  0.0709
  147MOL0     H19786  11.258   0.768  10.704 -0.1302 -2.2082 -0.6425
  147MOL0     H19787  11.258   0.689  10.547  0.7146 -0.7377  1.2484
  147MOL0     H19788  11.421   0.887  10.461  0.0309  0.8458  0.6701
  147MOL0     H19789  11.434   0.937  10.630 -0.2633 -0.7501 -0.2909
  147MOL0     H19790  11.528   0.743  10.700 -1.0618 -1.7775 -0.2363
  147MOL0     H19791  11.520   0.668  10.540 -1.5095  1.4458 -0.6360
  147MOL0     H19792  11.661   0.861  10.447  0.1796 -0.3477 -0.2418
  147MOL0     H19793  11.743   0.748  10.569 -1.2388 -2.2222  2.6573
  147MOL0     H19794  11.636   1.036  10.630  1.1028 -0.1258  0.6712
  147MOL0     H19795  11.701   0.927  10.746  0.2395  1.1082  0.1647
  147MOL0     H19796  11.976   0.889  10.707  1.2538  0.3178  0.8018
  147MOL0     H19797  12.219   1.128  10.627  1.2686 -0.9298 -0.0982
  147MOL0     H19798  12.212   0.959  10.660 -0.6274  0.3425 -0.4829
  147MOL0     H19799  12.219   0.901  10.406  0.6334  0.5822 -2.3429
  147MOL0     H19800  12.250   1.070  10.381 -0.8706 -2.6475 -3.0473
  147MOL0     H19801  12.415   0.882  10.551 -3.7965 -0.2744  0.5834
  147MOL0     H19802  12.450   1.060  10.541  5.7230  3.0613 -6.0776
  147MOL0     H19803  12.508   1.035  10.304 -1.2088 -0.1834 -0.9942
  147MOL0     H19804  12.450   0.867  10.296  0.1647  0.0983  0.4649
  147MOL0     H19805  12.827   0.796  10.518 -1.6625 -0.9977 -0.8879
  147MOL0     H19806  13.036   0.802  10.409  0.3070  1.8739  0.4641
  147MOL0     H19807  13.331   1.081  10.180  2.7453  1.7603  1.2081
  147MOL0     H19808  13.553   1.118  10.213 -0.8458 -0.4441 -0.1808
  147MOL0     H19809  13.791   1.082  10.173 -0.1804  0.4050  0.0036
  147MOL0     H19810  13.734   1.091  10.345 -1.4425 -2.0377  0.5703
  147MOL0     H19811  13.914   1.020  10.437 -3.3288 -0.8092 -0.1894
  147MOL0     H19812  13.998   0.964  10.287 -0.4671  0.9605  0.7824
  147MOL0     H19813  14.007   1.186  10.200 -0.9542 -1.3526  0.5958
  147MOL0     H19814  13.959   1.255  10.359 -1.9503  1.0725 -3.1871
  147MOL0     H19815  14.232   1.119  10.293  1.1865  0.7165 -0.7721
  147MOL0     H19816  14.157   1.122  10.453 -1.0709 -1.6546 -1.3551
  147MOL0     H19817  14.146   1.354  10.460 -1.4848 -1.7073  0.1913
  147MOL0     H19818  14.208   1.372  10.299  3.1447  0.5495  0.0312
  147MOL0     H19819  14.366   1.224  10.516  2.3458 -2.4423 -0.9304
  147MOL0     H19820  14.414   1.234  10.350  2.0693  1.1893  0.2574
  147MOL0     H19821  14.385   1.496  10.512 -0.6790  0.9022 -0.7406
  147MOL0     H19822  14.428   1.492  10.352  4.9383  0.5405  0.4018
  147MOL0     H19823  14.631   1.489  10.467 -2.3546  0.8843 -1.3370
  147MOL0     H19824  14.588   1.343  10.553 -3.0763  0.2279  0.7811
  147MOL0     H19825  13.621   0.698  10.292  1.1951  0.1207 -1.8781
  147MOL0     H19826  13.378   0.660  10.244  0.3892 -0.1754 -3.0240
  147MOL0     H19827  12.859   0.962  10.057  3.7265  0.2353 -1.0210
  147MOL0     H19828  12.641   0.961  10.167  0.3503 -0.9700 -2.0322
  147MOL0     H19829  10.927   1.201  10.458  1.2625 -2.3915 -0.3639
  147MOL0     H19830  10.744   1.354  10.378  0.6620  0.4796 -0.9494
  147MOL0     H19831  10.133   1.274  10.208  0.0156  0.2058  0.2814
  147MOL0     H19832   9.985   1.443  10.092 -0.0202  1.3357 -1.0903
  147MOL0     H19833  10.188   1.842  10.036  2.1780 -2.5784 -0.8337
  147MOL0     H19834  10.022   1.879   9.985  0.2552 -0.5541  0.7096
  147MOL0     H19835  10.060   1.750   9.773 -1.2078  2.8623 -0.0393
  147MOL0     H19836  10.214   1.693   9.835 -0.8605 -0.6063  0.5362
  147MOL0     H19837  10.280   1.955   9.849 -0.2717 -2.9949  1.8222
  147MOL0     H19838  10.142   1.980   9.751 -0.5386 -0.3438  0.3986
  147MOL0     H19839  10.228   1.828   9.595 -1.2362  1.1846  2.3917
  147MOL0     H19840  10.330   1.967   9.604  3.6690  0.0720  1.5396
  147MOL0     H19841  10.632   1.706   9.743  0.9295  1.7654 -1.0299
  147MOL0     H19842  10.328   1.709  10.108  1.1391  0.9385  2.8932
  147MOL0     H19843  10.535   1.651  10.149  1.9442 -1.6844 -2.7592
  147MOL0     H19844  10.537   1.554  10.287  0.7886 -1.2990 -0.5971
  147MOL0     H19845  10.568   1.483  10.123 -1.2732 -1.0459 -0.0249
  148MOL0     O19846   9.173   6.700   6.884  0.6231 -0.3448 -0.1677
  148MOL0     C19847   9.102   6.686   6.978 -0.3704 -1.0990 -0.6648
  148MOL0     O19848   9.151   6.722   7.106  0.0301 -0.1842 -0.5931
  148MOL0     C19849   9.286   6.747   7.139 -0.5034  0.2695 -0.0290
  148MOL0     C19850   9.395   6.705   7.062 -0.7816  0.1731 -0.0688
  148MOL0     C19851   9.529   6.736   7.106  0.5564  0.3197 -0.0357
  148MOL0     C19852   9.544   6.807   7.231 -0.5041  0.4906 -0.0820
  148MOL0     O19853   9.664   6.835   7.293 -0.0033  0.2827  0.2365
  148MOL0     C19854   9.794   6.816   7.227  0.3134 -0.7182 -0.1252
  148MOL0     C19855   9.924   6.832   7.317  0.6510  0.4562  0.3523
  148MOL0     C19856  10.044   6.831   7.223 -1.1804  0.0126  0.1350
  148MOL0     C19857  10.172   6.841   7.308  0.6228 -0.3785  0.3550
  148MOL0     C19858  10.304   6.777   7.252  0.4448  0.3543  0.8114
  148MOL0     C19859  10.287   6.623   7.236  0.0734  0.4859  0.2699
  148MOL0     C19860  10.420   6.537   7.258  0.2190 -0.7721  0.0927
  148MOL0     C19861  10.416   6.412   7.176 -0.2251 -0.1823 -0.2247
  148MOL0     N19862  10.560   6.360   7.156  0.7362 -0.7160 -0.3863
  148MOL0     C19863  10.597   6.287   7.048  0.9088 -0.0468 -0.2327
  148MOL0     C19864  10.732   6.267   7.064 -0.6654  0.5887  0.0321
  148MOL0     C19865  10.818   6.214   6.954 -0.2489  0.3258 -0.2984
  148MOL0     C19866  10.843   6.315   6.849 -0.5357 -0.5228  0.2250
  148MOL0     C19867  10.933   6.264   6.728  0.2793 -0.0557  0.1516
  148MOL0     C19868  11.081   6.258   6.751 -0.5126  1.3330 -0.2840
  148MOL0     O19869  11.124   6.389   6.771 -0.4624  0.1784  0.1312
  148MOL0     C19870  11.262   6.410   6.787  0.7064 -0.3835  0.7192
  148MOL0     C19871  11.295   6.542   6.807 -0.5578  0.5204 -0.5238
  148MOL0     C19872  11.431   6.578   6.828  0.1369  0.7698 -0.1301
  148MOL0     C19873  11.530   6.487   6.817  0.1830 -0.3654 -0.7087
  148MOL0     C19874  11.668   6.530   6.849 -0.2132 -0.0425 -0.7031
  148MOL0     O19875  11.766   6.435   6.827  0.6612  0.8240  0.2654
  148MOL0     C19876  11.899   6.464   6.848  0.3959 -0.0086 -0.2606
  148MOL0     C19877  11.994   6.457   6.744  0.6927 -0.3886  0.5466
  148MOL0     C19878  12.128   6.485   6.772 -0.2916 -0.1228  1.0398
  148MOL0     C19879  12.170   6.518   6.901 -0.5422  0.2111  0.3108
  148MOL0     O19880  12.294   6.556   6.937 -0.5923 -0.3843 -0.0149
  148MOL0     C19881  12.369   6.621   6.833 -0.4754 -0.1399  0.4733
  148MOL0     C19882  12.507   6.670   6.879  0.4405 -0.1072  0.1537
  148MOL0     C19883  12.578   6.744   6.758  0.1064  0.1044 -0.5971
  148MOL0     C19884  12.690   6.840   6.811 -0.1593  0.5344  0.4544
  148MOL0     C19885  12.751   6.909   6.695 -0.1266 -1.1880 -0.3578
  148MOL0     C19886  12.883   6.988   6.734 -0.1662 -0.3581  0.0902
  148MOL0     C19887  12.935   7.063   6.610 -0.1042  0.5809  0.1876
  148MOL0     C19888  13.062   7.137   6.658 -0.1709  0.3669 -0.5044
  148MOL0    Cl19889  13.165   7.206   6.510  0.6081  0.2239 -0.0986
  148MOL0     C19890  12.069   6.526   7.003  0.7213  0.5308  0.1061
  148MOL0     C19891  11.934   6.508   6.975 -0.4961  1.2073  0.1370
  148MOL0     O19892  11.690   6.644   6.884  0.2383  0.5719  0.1879
  148MOL0     C19893  11.500   6.349   6.802  0.1671 -0.2514  0.2545
  148MOL0     C19894  11.368   6.312   6.775  0.2850  0.7191  0.0027
  148MOL0     N19895  10.772   6.312   7.189  0.4841 -0.4766 -0.7113
  148MOL0     N19896  10.669   6.370   7.242  0.2292 -0.2316  0.2274
  148MOL0     C19897   9.430   6.837   7.308  0.5394  1.4029  0.3252
  148MOL0     C19898   9.304   6.807   7.264 -0.5719  0.2739 -0.0258
  148MOL0     C19899   8.966   6.643   6.947  0.2508  0.3609 -0.2415
  148MOL0     C19900   8.934   6.604   6.816 -0.0869 -0.1885 -0.3255
  148MOL0     C19901   8.803   6.575   6.780  0.3514  0.9342 -0.3409
  148MOL0     C19902   8.711   6.564   6.879  0.5168 -0.6742 -0.1950
  148MOL0     O19903   8.583   6.534   6.834  0.6824  0.3034  0.7927
  148MOL0     C19904   8.475   6.526   6.927 -0.1853  0.0510 -1.1339
  148MOL0     C19905   8.478   6.392   7.009 -0.7912 -0.6773  0.3282
  148MOL0     C19906   8.346   6.389   7.084  0.1612 -0.6104  0.1550
  148MOL0     C19907   8.327   6.252   7.153  0.9208 -0.2027 -0.1254
  148MOL0     C19908   8.191   6.233   7.217 -0.3740  0.4158  0.7041
  148MOL0     C19909   8.089   6.209   7.272 -0.3225  0.4155  0.0871
  148MOL0     C19910   8.740   6.606   7.011 -0.5127 -1.2537  0.5297
  148MOL0     C19911   8.872   6.638   7.042 -0.0949 -0.0784  0.0769
  148MOL0     C19912   8.894   6.687   7.183 -0.2435  0.1078  0.1799
  148MOL0     H19913   9.374   6.636   6.981  1.4728 -0.8160  0.1017
  148MOL0     H19914   9.616   6.702   7.051  0.7667  0.4322  0.2278
  148MOL0     H19915   9.787   6.719   7.177 -0.7652 -0.8425  0.2453
  148MOL0     H19916   9.804   6.895   7.152  2.6809  0.0386  0.8804
  148MOL0     H19917   9.912   6.748   7.386 -2.2118  0.1263 -0.4066
  148MOL0     H19918   9.914   6.926   7.373 -1.4177  1.2001 -1.1449
  148MOL0     H19919  10.052   6.919   7.159  0.3702  2.3055  3.2428
  148MOL0     H19920  10.048   6.740   7.162  0.8989  0.7832 -0.9836
  148MOL0     H19921  10.191   6.947   7.330 -0.1120  0.5810 -2.9574
  148MOL0     H19922  10.148   6.795   7.404  2.5520 -0.8477  0.6619
  148MOL0     H19923  10.337   6.814   7.155  2.1389  0.6197  1.4596
  148MOL0     H19924  10.381   6.791   7.328  0.0145 -1.0142  1.5442
  148MOL0     H19925  10.204   6.583   7.295 -0.7999  1.2911 -0.3740
  148MOL0     H19926  10.251   6.604   7.134 -2.2618 -2.7145  1.5160
  148MOL0     H19927  10.435   6.515   7.364  0.9026  0.1491  0.2020
  148MOL0     H19928  10.506   6.594   7.222  2.2901 -3.3879  0.6027
  148MOL0     H19929  10.354   6.346   7.237  1.9053  0.2336  2.6158
  148MOL0     H19930  10.362   6.433   7.083  1.8776  0.2409 -1.4154
  148MOL0     H19931  10.532   6.249   6.969 -0.0979 -2.0000  1.4516
  148MOL0     H19932  10.913   6.187   7.001 -0.2982  1.8669  0.7579
  148MOL0     H19933  10.757   6.130   6.917 -1.7988  1.4868 -0.4789
  148MOL0     H19934  10.745   6.332   6.803 -0.1663 -1.0394 -0.7776
  148MOL0     H19935  10.881   6.408   6.892  1.2138 -0.5988 -1.0779
  148MOL0     H19936  10.911   6.319   6.636 -0.9048  0.1038  0.5197
  148MOL0     H19937  10.907   6.159   6.711  5.1977 -1.3932 -0.6853
  148MOL0     H19938  11.124   6.185   6.681 -1.2863  0.2609  0.3214
  148MOL0     H19939  11.101   6.199   6.841 -0.1101  2.1245  0.1558
  148MOL0     H19940  11.224   6.623   6.815 -1.2273 -0.2008  1.2936
  148MOL0     H19941  11.461   6.681   6.849  3.9910  0.4466 -3.0912
  148MOL0     H19942  11.957   6.429   6.645 -0.2339 -2.8189  1.5025
  148MOL0     H19943  12.190   6.483   6.682 -2.3457 -1.8255 -0.4537
  148MOL0     H19944  12.395   6.545   6.758 -1.3037 -0.3628  0.3937
  148MOL0     H19945  12.314   6.707   6.795  0.3324 -0.1000 -0.6407
  148MOL0     H19946  12.492   6.742   6.959 -0.4789  0.8794 -0.8696
  148MOL0     H19947  12.570   6.584   6.903 -1.7992 -2.2142 -0.9742
  148MOL0     H19948  12.619   6.684   6.676  0.5504 -1.6260  0.8334
  148MOL0     H19949  12.496   6.799   6.711 -1.0811 -1.0452  0.0556
  148MOL0     H19950  12.767   6.774   6.853  0.0501 -0.7059 -1.6976
  148MOL0     H19951  12.663   6.913   6.887  1.6687  2.8135 -0.9564
  148MOL0     H19952  12.671   6.970   6.653  1.0399 -0.6178 -1.8349
  148MOL0     H19953  12.785   6.847   6.611  2.6067 -1.0755  0.5797
  148MOL0     H19954  12.855   7.057   6.815  0.6017 -0.1555  0.1908
  148MOL0     H19955  12.960   6.921   6.774 -0.5005 -0.3746  0.7330
  148MOL0     H19956  12.862   7.133   6.567 -0.1561  0.2441 -0.2908
  148MOL0     H19957  12.963   6.994   6.530 -1.5493 -0.7924  0.8114
  148MOL0     H19958  13.027   7.218   6.723  0.8010  1.9515 -1.8610
  148MOL0     H19959  13.124   7.070   6.718  1.0464 -0.5118 -2.6271
  148MOL0     H19960  12.102   6.558   7.101  1.2816 -1.9843  0.8253
  148MOL0     H19961  11.861   6.518   7.055 -0.5486  0.8762  0.1334
  148MOL0     H19962  11.563   6.262   6.790  2.0679  1.1138 -0.2781
  148MOL0     H19963  11.346   6.209   6.748 -1.6003  1.1070 -0.0202
  148MOL0     H19964   9.453   6.865   7.410  1.4388  0.7026  0.3266
  148MOL0     H19965   9.233   6.834   7.342  1.5521  0.1214  2.0666
  148MOL0     H19966   9.005   6.591   6.735  1.1886 -1.3502  0.9329
  148MOL0     H19967   8.777   6.550   6.678  1.7592  0.2636 -0.5602
  148MOL0     H19968   8.385   6.532   6.865 -1.2813 -0.0674  0.3722
  148MOL0     H19969   8.471   6.611   6.997 -0.7909 -0.4344 -0.5626
  148MOL0     H19970   8.561   6.380   7.079 -2.3697 -2.3183  2.0227
  148MOL0     H19971   8.482   6.311   6.935  0.6886 -0.5816  0.2784
  148MOL0     H19972   8.266   6.391   7.009 -0.2395  1.9032  0.5417
  148MOL0     H19973   8.333   6.473   7.153  1.7195 -0.1692 -0.0471
  148MOL0     H19974   8.363   6.185   7.075  0.7254  0.3967 -0.7429
  148MOL0     H19975   8.399   6.236   7.234  0.8092 -6.3424 -0.8419
  148MOL0     H19976   7.994   6.186   7.317 -0.8926 -0.3838 -1.4557
  148MOL0     H19977   8.658   6.613   7.082 -2.9132 -3.4633 -1.7819
  148MOL0     H19978   8.803   6.666   7.239  0.1217 -0.8111  0.4375
  148MOL0     H19979   8.973   6.627   7.229 -0.4110  0.0944  0.4467
  148MOL0     H19980   8.924   6.792   7.185 -0.5796  0.1872  2.3403
  149MOL0     O19981  10.755  10.639  10.902 -0.5895 -0.3858  0.3950
  149MOL0     C19982  10.813  10.706  10.984 -0.2140  0.4001 -0.5649
  149MOL0     O19983  10.929  10.660  11.049 -0.1214 -0.5306 -0.7292
  149MOL0     C19984  10.973  10.531  11.024 -0.8344 -0.9085  1.3718
  149MOL0     C19985  11.077  10.535  10.927  0.3537 -0.0447 -0.1968
  149MOL0     C19986  11.154  10.420  10.913  0.0680 -0.7235  0.8534
  149MOL0     C19987  11.112  10.301  10.976  0.1987 -0.1590  0.4642
  149MOL0     O19988  11.195  10.189  10.972 -0.4716  0.3537 -0.3527
  149MOL0     C19989  11.248  10.149  10.846  0.1717 -0.0924 -0.6051
  149MOL0     C19990  11.406  10.118  10.852  0.0767 -0.3419  1.2312
  149MOL0     C19991  11.480  10.230  10.933  0.0590  0.2152 -0.4966
  149MOL0     C19992  11.635  10.225  10.925 -1.1781 -0.2764  0.0447
  149MOL0     C19993  11.711  10.301  11.046  0.2420  0.4798 -0.8827
  149MOL0     C19994  11.861  10.287  11.026  0.0106 -0.5784 -0.6254
  149MOL0     C19995  11.936  10.319  11.156  0.1105  0.2693 -1.3100
  149MOL0     C19996  12.086  10.344  11.133  0.6287 -0.3259  0.9116
  149MOL0     N19997  12.109  10.451  11.034 -0.4512  1.0549 -1.0015
  149MOL0     C19998  12.048  10.577  11.036 -0.6944  0.0137  0.5056
  149MOL0     C19999  12.123  10.643  10.941  0.6078  0.4462 -0.9591
  149MOL0     C20000  12.109  10.792  10.904 -0.4618  0.6198 -0.8153
  149MOL0     C20001  12.251  10.860  10.906 -0.1133 -0.7160 -1.1209
  149MOL0     C20002  12.294  10.880  10.761 -0.7085 -0.3473 -0.1272
  149MOL0     C20003  12.415  10.971  10.748 -0.5761  0.5550 -0.1811
  149MOL0     O20004  12.522  10.917  10.827 -0.1734  1.3892 -0.0624
  149MOL0     C20005  12.644  10.979  10.815  0.0677  0.5696  0.1480
  149MOL0     C20006  12.759  10.913  10.863 -0.0479  0.2964 -0.6676
  149MOL0     C20007  12.886  10.968  10.877 -0.0531 -0.3608 -0.8974
  149MOL0     C20008  12.901  11.099  10.821  0.0593  0.6652 -0.7236
  149MOL0     C20009  13.031  11.165  10.818 -0.6553 -0.5714 -0.3809
  149MOL0     O20010  13.126  11.150  10.720 -0.2140 -0.0135  0.2594
  149MOL0     C20011  13.243  11.220  10.727 -0.4762 -0.3038  0.6588
  149MOL0     C20012  13.366  11.157  10.746 -0.1182  0.9374  0.1082
  149MOL0     C20013  13.481  11.237  10.733 -0.2275 -0.6165 -0.1699
  149MOL0     C20014  13.473  11.371  10.697 -0.9746 -0.0048 -0.2131
  149MOL0     O20015  13.594  11.433  10.676 -0.2177  0.0618 -0.2981
  149MOL0     C20016  13.608  11.559  10.740 -0.1168  0.0784 -0.0526
  149MOL0     C20017  13.753  11.576  10.775  0.4212 -0.1790 -0.3045
  149MOL0     C20018  13.820  11.453  10.852 -0.2156  0.6948 -0.1094
  149MOL0     C20019  13.959  11.485  10.905  0.1456  0.6008 -0.2249
  149MOL0     C20020  14.018  11.345  10.949  0.0552  0.0158 -0.5836
  149MOL0     C20021  14.169  11.341  10.975 -0.3564 -0.0368  0.5584
  149MOL0     C20022  14.216  11.420  11.096 -0.5982 -0.0217 -0.2620
  149MOL0     C20023  14.342  11.364  11.160 -0.8583 -0.8967  0.0864
  149MOL0    Cl20024  14.371  11.459  11.313  0.0499 -0.4169 -0.1045
  149MOL0     C20025  13.347  11.437  10.688 -0.6978  0.9022  0.4837
  149MOL0     C20026  13.235  11.360  10.698 -0.3546 -0.1124 -0.0377
  149MOL0     O20027  13.046  11.229  10.925  0.0543  0.2052 -0.2163
  149MOL0     C20028  12.799  11.155  10.751 -0.1269  0.0157 -0.4847
  149MOL0     C20029  12.673  11.100  10.752 -0.1611 -0.2243  0.0945
  149MOL0     N20030  12.216  10.552  10.886 -0.0058  0.3192  0.3203
  149MOL0     N20031  12.206  10.445  10.945  0.7826 -0.7285  0.4400
  149MOL0     C20032  11.007  10.294  11.070 -0.1197  0.1076  0.6235
  149MOL0     C20033  10.943  10.414  11.096 -0.1226 -0.4519  1.2084
  149MOL0     C20034  10.749  10.842  11.021 -0.3804  0.0437  0.1275
  149MOL0     C20035  10.830  10.916  11.112 -0.1025  0.6692 -0.1219
  149MOL0     C20036  10.784  11.039  11.168  0.3202 -0.2373 -0.4733
  149MOL0     C20037  10.657  11.094  11.142  0.0551  0.1998 -0.5659
  149MOL0     O20038  10.622  11.204  11.219  0.0006 -0.3205  0.0654
  149MOL0     C20039  10.527  11.288  11.152 -0.0187  0.0204 -0.5153
  149MOL0     C20040  10.587  11.360  11.028 -0.2731 -0.6391 -0.0611
  149MOL0     C20041  10.483  11.459  10.976 -0.7509 -0.5189  0.2938
  149MOL0     C20042  10.520  11.509  10.832  0.0224  0.3331 -0.6717
  149MOL0     C20043  10.398  11.562  10.772  0.4220  0.2672  0.3229
  149MOL0     C20044  10.282  11.594  10.725 -0.0470  0.3094  0.5906
  149MOL0     C20045  10.572  11.015  11.055 -0.0537 -0.2884  0.0937
  149MOL0     C20046  10.620  10.895  10.987 -0.2840  0.3142 -0.6053
  149MOL0     C20047  10.542  10.829  10.875  0.7719  0.0192 -0.7013
  149MOL0     H20048  11.093  10.626  10.870  1.4777 -0.5867 -0.7956
  149MOL0     H20049  11.249  10.430  10.863  0.6408  0.2211  2.0897
  149MOL0     H20050  11.204  10.054  10.817 -0.9167 -0.2621  1.4609
  149MOL0     H20051  11.228  10.217  10.763  1.8914 -1.6990 -2.4533
  149MOL0     H20052  11.454  10.112  10.754  4.6273  2.3699  2.9792
  149MOL0     H20053  11.416  10.025  10.909 -1.1462 -0.3281  1.5148
  149MOL0     H20054  11.453  10.225  11.039 -1.1901 -0.8652 -0.8326
  149MOL0     H20055  11.442  10.329  10.907  0.3529  0.3170 -0.5429
  149MOL0     H20056  11.662  10.119  10.933 -4.1384 -1.1713 -0.6311
  149MOL0     H20057  11.671  10.270  10.832  1.7010 -0.8998  0.7510
  149MOL0     H20058  11.683  10.407  11.045 -1.2256  0.1109 -1.1236
  149MOL0     H20059  11.673  10.254  11.137  0.6431 -0.7073 -1.3127
  149MOL0     H20060  11.880  10.183  10.997 -0.4817 -0.6060 -0.8681
  149MOL0     H20061  11.891  10.360  10.949  1.5126 -2.2394 -1.7069
  149MOL0     H20062  11.916  10.233  11.220 -0.6820  0.8106 -0.8089
  149MOL0     H20063  11.893  10.399  11.218  0.8918 -1.4506  1.6453
  149MOL0     H20064  12.132  10.358  11.231  1.1876  1.0069  0.4776
  149MOL0     H20065  12.127  10.252  11.090 -3.0646 -1.1599 -1.2650
  149MOL0     H20066  11.971  10.615  11.102  1.0075  2.5560  1.1381
  149MOL0     H20067  12.046  10.809  10.816  0.3990  0.2355 -1.5091
  149MOL0     H20068  12.051  10.834  10.987  0.9672 -0.4462  0.7696
  149MOL0     H20069  12.240  10.957  10.956 -3.8502 -1.9474  0.8441
  149MOL0     H20070  12.325  10.795  10.952 -1.3557 -2.0369 -0.9007
  149MOL0     H20071  12.209  10.925  10.709 -0.3328 -1.6263 -1.9883
  149MOL0     H20072  12.309  10.787  10.705  2.4252  0.9376 -1.6972
  149MOL0     H20073  12.390  11.067  10.795  0.2708  0.7513 -0.1049
  149MOL0     H20074  12.441  10.978  10.642  0.5096  1.0851  0.1046
  149MOL0     H20075  12.738  10.812  10.896 -4.5327  1.3800  0.5129
  149MOL0     H20076  12.976  10.916  10.906 -0.0649  0.8014  1.4565
  149MOL0     H20077  13.365  11.051  10.769 -1.0954  1.1346  1.1067
  149MOL0     H20078  13.578  11.190  10.747  1.1453  1.5260 -1.7462
  149MOL0     H20079  13.586  11.644  10.675  0.0509  0.3249  0.2108
  149MOL0     H20080  13.554  11.575  10.833  0.2708  1.4787 -0.0526
  149MOL0     H20081  13.809  11.592  10.682 -0.3849  1.1586 -0.5791
  149MOL0     H20082  13.771  11.670  10.827 -2.2594  0.5384 -0.5367
  149MOL0     H20083  13.744  11.409  10.917  2.4208 -0.5297  2.3823
  149MOL0     H20084  13.829  11.370  10.782 -1.7445  1.1353 -0.8608
  149MOL0     H20085  13.949  11.548  10.993  0.8653 -0.0266  0.3159
  149MOL0     H20086  14.025  11.528  10.829  1.5242 -1.8607 -0.5225
  149MOL0     H20087  13.995  11.266  10.876  0.9175  2.5884 -3.8890
  149MOL0     H20088  13.977  11.310  11.044  0.0369 -1.1855 -1.0131
  149MOL0     H20089  14.205  11.238  10.980  0.3000 -0.1666 -3.4138
  149MOL0     H20090  14.219  11.369  10.881 -1.3889 -0.5240 -0.1546
  149MOL0     H20091  14.146  11.402  11.178  0.5997 -0.2143  0.7489
  149MOL0     H20092  14.210  11.527  11.073  2.1626 -0.0668 -1.5683
  149MOL0     H20093  14.341  11.259  11.192 -0.0156 -0.1013  3.0865
  149MOL0     H20094  14.420  11.384  11.087 -1.2132 -1.0048 -0.3270
  149MOL0     H20095  13.344  11.543  10.667  0.7957  1.2551  1.8157
  149MOL0     H20096  13.144  11.410  10.667 -1.1565 -1.0811  0.7021
  149MOL0     H20097  12.813  11.246  10.694  2.0479  0.2137  0.2897
  149MOL0     H20098  12.596  11.156  10.699  0.0631 -1.0969 -1.2247
  149MOL0     H20099  11.000  10.198  11.121 -1.2027 -1.2722 -1.9249
  149MOL0     H20100  10.862  10.410  11.168 -1.5268 -1.2449 -0.3415
  149MOL0     H20101  10.924  10.878  11.151 -0.8964 -0.4190  0.8145
  149MOL0     H20102  10.857  11.083  11.236  0.6796  1.3169 -1.7854
  149MOL0     H20103  10.494  11.362  11.225 -0.2911 -0.9411  0.3630
  149MOL0     H20104  10.442  11.230  11.116  0.0312 -1.1924  1.1896
  149MOL0     H20105  10.621  11.290  10.951  0.6705 -0.0539 -0.1890
  149MOL0     H20106  10.676  11.420  11.048 -0.8322  0.5403 -1.0433
  149MOL0     H20107  10.459  11.542  11.042 -2.8398 -1.0153  0.2299
  149MOL0     H20108  10.385  11.411  10.976 -1.5283  0.9860  1.0613
  149MOL0     H20109  10.593  11.589  10.843  2.1349 -1.2993 -1.9317
  149MOL0     H20110  10.553  11.424  10.771 -1.6788 -0.6993 -0.2356
  149MOL0     H20111  10.190  11.618  10.675  0.1230  0.4794  0.3568
  149MOL0     H20112  10.469  11.046  11.040 -0.5280 -2.8457 -2.8873
  149MOL0     H20113  10.526  10.721  10.873  2.8897 -0.3312 -1.3467
  149MOL0     H20114  10.442  10.873  10.872 -0.3368 -2.4389 -1.9430
  149MOL0     H20115  10.591  10.855  10.781 -0.5977 -0.5523 -1.5978
  150MOL0     O20116  11.042   2.182   9.876 -0.5936  0.3770  0.1993
  150MOL0     C20117  10.975   2.080   9.904 -1.1689 -0.0341  0.1350
  150MOL0     O20118  11.038   1.958   9.906  0.7709 -0.1520  0.0011
  150MOL0     C20119  11.170   1.941   9.863  0.5613 -0.1632 -0.2921
  150MOL0     C20120  11.268   1.910   9.959  0.4714 -0.1042 -0.1461
  150MOL0     C20121  11.402   1.912   9.918 -0.2568  0.7607  0.6226
  150MOL0     C20122  11.440   1.919   9.773 -0.6659 -0.5199 -0.9461
  150MOL0     O20123  11.570   1.913   9.738  0.0188  0.0791  0.0671
  150MOL0     C20124  11.673   1.862   9.822 -0.2911 -0.2354 -0.3376
  150MOL0     C20125  11.800   1.848   9.744  0.6727 -0.1377 -0.0586
  150MOL0     C20126  11.903   1.762   9.817 -0.0910 -0.5005  0.3430
  150MOL0     C20127  12.034   1.734   9.735 -0.0819 -0.2449  0.4197
  150MOL0     C20128  12.121   1.859   9.720 -1.4538 -0.5126  0.1048
  150MOL0     C20129  12.267   1.830   9.675  0.5208 -0.2963 -0.1517
  150MOL0     C20130  12.354   1.954   9.651 -0.1308 -0.4368  0.1634
  150MOL0     C20131  12.499   1.911   9.619 -0.1156  0.4425  0.3041
  150MOL0     N20132  12.558   1.822   9.723  0.0009 -0.0837  1.0094
  150MOL0     C20133  12.611   1.877   9.837 -0.4603 -0.3681  0.0848
  150MOL0     C20134  12.683   1.781   9.893  0.2312  0.2141  0.0303
  150MOL0     C20135  12.724   1.783  10.039 -0.4906  0.6086  0.1515
  150MOL0     C20136  12.870   1.729  10.043  1.0478  0.9156  0.6787
  150MOL0     C20137  12.982   1.830  10.026  0.4418  0.0911 -0.3642
  150MOL0     C20138  13.002   1.928  10.146  0.7983  0.0919  0.0881
  150MOL0     O20139  13.082   1.874  10.249 -0.1025 -0.5921 -0.3226
  150MOL0     C20140  13.218   1.892  10.243 -0.7365 -1.4330  0.5748
  150MOL0     C20141  13.283   1.838  10.349 -0.2316  0.5115  0.7232
  150MOL0     C20142  13.426   1.835  10.353 -0.5378  0.5747  0.5233
  150MOL0     C20143  13.496   1.894  10.247 -0.0596 -0.0616  0.0045
  150MOL0     C20144  13.646   1.884  10.246 -0.1158 -0.5422 -0.2158
  150MOL0     O20145  13.714   1.893  10.369 -0.2272  0.3485  0.6996
  150MOL0     C20146  13.848   1.894  10.352  0.2986 -0.3750 -1.0456
  150MOL0     C20147  13.917   1.777  10.338 -0.1763 -0.7481  0.1637
  150MOL0     C20148  14.057   1.778  10.321  0.4495  0.0132  0.2481
  150MOL0     C20149  14.132   1.903  10.315  0.5249  0.8045 -0.6186
  150MOL0     O20150  14.266   1.918  10.297 -0.3503 -0.0700 -0.0081
  150MOL0     C20151  14.337   1.829  10.204  0.4113  0.4432 -0.1230
  150MOL0     C20152  14.480   1.795  10.258  0.3996  0.9241  0.3287
  150MOL0     C20153  14.559   1.714  10.152 -0.2611  0.1548 -0.0823
  150MOL0     C20154  14.717   1.725  10.162 -0.3420  0.0340  0.0879
  150MOL0     C20155  14.777   1.659  10.045  0.2849 -0.4416 -1.2355
  150MOL0     C20156  14.925   1.643  10.054 -0.3115  0.0701  0.1283
  150MOL0     C20157  15.003   1.593   9.930  0.3724  0.2192 -0.4452
  150MOL0     C20158  15.149   1.568   9.959  0.4443 -0.6384 -0.6801
  150MOL0    Cl20159  15.216   1.683  10.071  0.2040 -0.0492 -0.0040
  150MOL0     C20160  14.053   2.030  10.327  0.2332  1.0967  0.3976
  150MOL0     C20161  13.920   2.017  10.344  0.4853  0.4776 -0.6225
  150MOL0     O20162  13.699   1.880  10.133  0.4810 -0.2300 -0.4348
  150MOL0     C20163  13.435   1.955  10.135  0.5590  0.4853 -0.8546
  150MOL0     C20164  13.294   1.954  10.136  0.6337 -0.0868 -0.2119
  150MOL0     N20165  12.667   1.668   9.817  0.2664 -0.3191 -0.1972
  150MOL0     N20166  12.589   1.693   9.713 -0.8720 -0.6490 -0.6060
  150MOL0     C20167  11.339   1.944   9.684 -0.4336  0.2854 -0.5256
  150MOL0     C20168  11.211   1.958   9.729  0.4873  0.5016  0.4414
  150MOL0     C20169  10.834   2.092   9.935 -0.0983 -0.0493 -0.5436
  150MOL0     C20170  10.761   1.977   9.979 -0.0217  0.1953  0.1267
  150MOL0     C20171  10.628   1.977  10.009  0.0182 -0.1614 -0.9192
  150MOL0     C20172  10.555   2.095  10.007 -0.3580  0.6467  0.0660
  150MOL0     O20173  10.417   2.086  10.021 -0.3819  0.4911  0.6906
  150MOL0     C20174  10.328   2.198  10.056 -0.3805 -0.3876  0.7826
  150MOL0     C20175  10.187   2.152  10.087 -0.1504 -0.2619  0.5288
  150MOL0     C20176  10.106   2.271  10.115 -0.1703 -0.3418  0.1847
  150MOL0     C20177   9.968   2.222  10.159  0.0097 -0.3702 -0.1834
  150MOL0     C20178   9.881   2.178  10.047 -0.0306 -0.1366  0.6279
  150MOL0     C20179   9.817   2.135   9.953 -0.1111  0.2462  0.9184
  150MOL0     C20180  10.614   2.214   9.970 -1.6116  0.3709 -0.6043
  150MOL0     C20181  10.749   2.216   9.936 -0.3631 -0.3428  0.7341
  150MOL0     C20182  10.811   2.343   9.886 -1.0135 -0.7628  0.3538
  150MOL0     H20183  11.246   1.914  10.065 -0.5419  1.4934 -0.3754
  150MOL0     H20184  11.480   1.903   9.993 -0.3494  0.0679  0.6387
  150MOL0     H20185  11.693   1.940   9.897 -1.9116  0.6606 -0.7981
  150MOL0     H20186  11.642   1.765   9.864 -1.1406 -0.0688 -0.5597
  150MOL0     H20187  11.843   1.947   9.723 -2.3945  1.6410  1.4146
  150MOL0     H20188  11.772   1.798   9.651 -2.6350 -4.7393  3.0166
  150MOL0     H20189  11.864   1.661   9.836 -0.4604 -0.4074  0.0870
  150MOL0     H20190  11.928   1.818   9.908 -1.3866 -0.6345  0.8149
  150MOL0     H20191  12.089   1.657   9.790  1.6115 -0.3526 -1.3477
  150MOL0     H20192  12.005   1.705   9.634 -0.3172 -3.3085  1.2606
  150MOL0     H20193  12.069   1.926   9.650  1.9327  1.4259 -0.7965
  150MOL0     H20194  12.121   1.913   9.815 -0.9872 -1.2773  0.5582
  150MOL0     H20195  12.321   1.767   9.746  0.7009 -0.7564 -0.6903
  150MOL0     H20196  12.251   1.773   9.583 -1.1564  1.5154 -1.0507
  150MOL0     H20197  12.352   2.028   9.731  1.8391  0.4093 -0.5179
  150MOL0     H20198  12.311   2.006   9.565  0.9845  2.4086  1.2209
  150MOL0     H20199  12.483   1.856   9.525 -1.8116  1.0886  0.1688
  150MOL0     H20200  12.561   2.001   9.611 -0.2353  0.6498  1.5773
  150MOL0     H20201  12.583   1.975   9.875 -2.0912  0.0112 -1.8931
  150MOL0     H20202  12.706   1.872  10.100  1.4230  0.3702  1.1533
  150MOL0     H20203  12.666   1.708  10.094 -0.1456  1.0922  1.2094
  150MOL0     H20204  12.878   1.692  10.146  0.1372  1.0237  0.7983
  150MOL0     H20205  12.885   1.647   9.972 -1.8015  0.8947 -0.0131
  150MOL0     H20206  12.962   1.904   9.948 -0.6573  0.8630  0.6181
  150MOL0     H20207  13.076   1.777  10.008 -0.0585 -0.3837 -1.7102
  150MOL0     H20208  12.903   1.952  10.188 -1.5914 -0.9977 -4.2936
  150MOL0     H20209  13.049   2.022  10.114 -2.7379  1.8295 -0.5652
  150MOL0     H20210  13.235   1.791  10.434  1.0841 -1.2258  0.5556
  150MOL0     H20211  13.492   1.779  10.418  0.5139  1.1028 -0.0684
  150MOL0     H20212  13.859   1.685  10.334 -1.0965 -0.1721 -2.7391
  150MOL0     H20213  14.109   1.682  10.320 -0.4657 -0.5174  1.2477
  150MOL0     H20214  14.294   1.733  10.175  0.5587  0.2766  0.2086
  150MOL0     H20215  14.351   1.876  10.106 -2.2366  0.9142 -0.3583
  150MOL0     H20216  14.538   1.886  10.275  2.1399 -0.0874 -0.0076
  150MOL0     H20217  14.476   1.739  10.352 -1.0354  1.1086  0.4071
  150MOL0     H20218  14.538   1.610  10.180  0.7071  0.9589  4.3922
  150MOL0     H20219  14.528   1.727  10.048  0.2140 -2.2836 -0.5891
  150MOL0     H20220  14.748   1.687  10.259  6.0043  0.6720 -1.2737
  150MOL0     H20221  14.739   1.832  10.166 -0.8854  0.1601 -0.1025
  150MOL0     H20222  14.741   1.728   9.968  0.8216 -0.2123 -1.2873
  150MOL0     H20223  14.733   1.562  10.021 -0.0946 -0.5613 -0.1154
  150MOL0     H20224  14.967   1.745  10.058 -1.8956  0.8648 -1.8870
  150MOL0     H20225  14.953   1.597  10.149  0.6869  2.3510  1.0304
  150MOL0     H20226  15.003   1.670   9.852 -1.2093  0.5473 -0.1625
  150MOL0     H20227  14.963   1.501   9.888  3.3521 -1.7820  0.8248
  150MOL0     H20228  15.170   1.466   9.992  0.3279 -0.5119 -0.2059
  150MOL0     H20229  15.209   1.589   9.870  1.1881  2.0493  0.3669
  150MOL0     H20230  14.101   2.127  10.336  2.0260  0.2022  1.0579
  150MOL0     H20231  13.875   2.112  10.368 -0.9132 -0.1534 -0.6845
  150MOL0     H20232  13.489   1.998  10.051 -1.1833  2.0672 -1.2101
  150MOL0     H20233  13.242   1.992  10.048 -1.2444 -1.0212  0.4476
  150MOL0     H20234  11.353   1.962   9.578 -0.0267  1.7633 -0.2309
  150MOL0     H20235  11.135   1.988   9.658  0.7750 -0.1485 -0.1494
  150MOL0     H20236  10.794   1.877  10.006 -1.7887 -0.4497  0.0759
  150MOL0     H20237  10.582   1.881  10.029  2.3162 -0.7061  2.4260
  150MOL0     H20238  10.323   2.273   9.976 -1.3881  0.6112  1.7327
  150MOL0     H20239  10.373   2.244  10.144 -0.0430  0.4884  0.1659
  150MOL0     H20240  10.194   2.102  10.184 -0.2949 -0.9753  0.1783
  150MOL0     H20241  10.146   2.089  10.007  1.0134 -1.0901  0.5451
  150MOL0     H20242  10.100   2.333  10.025  1.3643 -0.5689 -0.1064
  150MOL0     H20243  10.148   2.331  10.197 -3.4236  0.1474  1.6557
  150MOL0     H20244   9.986   2.143  10.232 -0.0980 -1.3333 -1.1775
  150MOL0     H20245   9.914   2.306  10.205  0.1955 -0.0501 -0.5433
  150MOL0     H20246   9.757   2.111   9.868  0.2172 -0.0322  0.7611
  150MOL0     H20247  10.551   2.302   9.956 -1.4487  0.6257  0.1843
  150MOL0     H20248  10.878   2.388   9.960  0.4574 -0.6439 -0.9817
  150MOL0     H20249  10.870   2.318   9.797 -1.0588 -1.2433  0.4582
  150MOL0     H20250  10.733   2.414   9.855 -1.2593 -1.4339 -0.6047
  151MOL0     O20251   2.139  11.250   0.613  0.0213  0.5107 -0.2883
  151MOL0     C20252   2.032  11.189   0.590  0.0780  0.5514  0.0380
  151MOL0     O20253   2.019  11.055   0.549 -0.4755 -0.6560 -0.1257
  151MOL0     C20254   2.141  10.987   0.543 -0.8328  0.2053  0.3072
  151MOL0     C20255   2.205  10.938   0.654 -0.6523 -0.7361 -0.4534
  151MOL0     C20256   2.334  10.876   0.641 -0.7023 -1.1350 -0.1937
  151MOL0     C20257   2.390  10.860   0.512 -0.5096 -0.1273  0.2375
  151MOL0     O20258   2.518  10.818   0.492 -0.2165 -0.0821  0.5085
  151MOL0     C20259   2.552  10.699   0.566  0.4775 -0.9103  0.1960
  151MOL0     C20260   2.693  10.641   0.525 -0.0369 -0.1510 -0.5591
  151MOL0     C20261   2.804  10.738   0.519  0.9546 -0.7825  0.4028
  151MOL0     C20262   2.932  10.646   0.500  0.4835 -0.1605 -0.0187
  151MOL0     C20263   3.067  10.715   0.512  0.4907  0.0852 -1.2874
  151MOL0     C20264   3.185  10.612   0.495 -0.2665  0.7466  0.6914
  151MOL0     C20265   3.325  10.678   0.519 -0.1500 -0.2224  0.1735
  151MOL0     C20266   3.438  10.590   0.462 -0.3317 -0.4369 -0.1469
  151MOL0     N20267   3.568  10.623   0.530  0.4437 -0.9630 -0.0643
  151MOL0     C20268   3.623  10.752   0.521  0.0195  0.2668 -0.8805
  151MOL0     C20269   3.745  10.737   0.569  0.0733  0.0282  0.1832
  151MOL0     C20270   3.846  10.849   0.585  0.6280  0.2138 -0.4502
  151MOL0     C20271   3.866  10.877   0.738  0.5039  0.1427  0.1477
  151MOL0     C20272   3.942  11.007   0.761  0.0219  0.2072 -0.5375
  151MOL0     C20273   3.933  11.048   0.910  0.3009 -0.2408  0.3111
  151MOL0     O20274   3.822  11.121   0.948 -0.4782  0.9191 -0.2022
  151MOL0     C20275   3.695  11.082   0.927 -0.4743  0.0342  0.1769
  151MOL0     C20276   3.634  10.989   1.014  0.9108  0.5032 -0.2332
  151MOL0     C20277   3.508  10.944   0.983  0.3117 -0.3175 -0.7193
  151MOL0     C20278   3.441  10.988   0.866 -0.3915 -0.4919 -0.2462
  151MOL0     C20279   3.313  10.920   0.829 -0.4967  0.6770 -0.7555
  151MOL0     O20280   3.274  10.814   0.906 -0.6520 -0.4761 -0.4835
  151MOL0     C20281   3.145  10.769   0.907  1.0631  0.4985 -0.1867
  151MOL0     C20282   3.119  10.639   0.873 -0.1330 -0.1221  0.9139
  151MOL0     C20283   2.988  10.589   0.871  0.6576 -0.6279 -0.3728
  151MOL0     C20284   2.882  10.677   0.901  1.0128 -0.7328 -0.3426
  151MOL0     O20285   2.751  10.635   0.894  0.5518  0.2548  0.1503
  151MOL0     C20286   2.720  10.495   0.929 -0.0135 -0.2757  0.0739
  151MOL0     C20287   2.576  10.486   0.989 -0.6886 -0.2363 -0.5313
  151MOL0     C20288   2.469  10.575   0.924 -0.5755 -0.3414  0.4189
  151MOL0     C20289   2.332  10.531   0.971  0.4768 -0.0036  0.3845
  151MOL0     C20290   2.232  10.638   0.945  1.3977 -0.0968 -0.9122
  151MOL0     C20291   2.087  10.608   1.005 -0.1819 -0.6198  0.1187
  151MOL0     C20292   2.014  10.509   0.907 -0.4820  0.1736  0.2273
  151MOL0     C20293   1.873  10.485   0.963 -0.2012  0.3056  0.5269
  151MOL0    Cl20294   1.883  10.377   1.102 -0.0846 -0.6233 -0.0849
  151MOL0     C20295   2.905  10.812   0.935  0.7062  0.2565  0.1477
  151MOL0     C20296   3.041  10.851   0.946  0.7233  0.4349  0.1050
  151MOL0     O20297   3.243  10.984   0.752  0.1142  0.1903  0.3928
  151MOL0     C20298   3.503  11.083   0.790  0.9496 -0.5711 -0.1804
  151MOL0     C20299   3.628  11.130   0.813 -1.2417  0.1704  0.0715
  151MOL0     N20300   3.761  10.600   0.605 -0.1259 -0.6475 -0.0784
  151MOL0     N20301   3.650  10.536   0.583  0.0080  0.0750 -0.3718
  151MOL0     C20302   2.318  10.899   0.400 -0.2708  0.0359  0.0742
  151MOL0     C20303   2.198  10.962   0.417 -0.5426  0.3425 -0.3607
  151MOL0     C20304   1.905  11.261   0.623  0.2816 -0.7254  0.3112
  151MOL0     C20305   1.910  11.401   0.590  0.0272  0.0292  0.2031
  151MOL0     C20306   1.805  11.484   0.632  0.5424 -0.8238  0.3217
  151MOL0     C20307   1.688  11.443   0.706 -0.2332 -0.0332  0.6186
  151MOL0     O20308   1.577  11.529   0.718 -0.8621 -0.1841 -0.4575
  151MOL0     C20309   1.468  11.489   0.795 -0.2844  0.4217 -0.0051
  151MOL0     C20310   1.381  11.615   0.818 -0.8674 -0.2528 -0.4179
  151MOL0     C20311   1.275  11.624   0.704  0.1319 -0.6678 -0.0970
  151MOL0     C20312   1.173  11.726   0.765 -0.4788 -0.2470  0.4049
  151MOL0     C20313   1.079  11.763   0.661  0.8513 -0.1828  0.3590
  151MOL0     C20314   0.995  11.778   0.571  0.0726 -0.0475 -1.5498
  151MOL0     C20315   1.681  11.303   0.734  0.3504  0.0541 -0.1598
  151MOL0     C20316   1.787  11.214   0.689  0.3088 -0.0508  0.0766
  151MOL0     C20317   1.773  11.063   0.708  1.1582  0.2381 -0.0479
  151MOL0     H20318   2.156  10.946   0.750  0.0462 -2.1322  0.0564
  151MOL0     H20319   2.381  10.863   0.738 -0.2245  0.3125 -0.2077
  151MOL0     H20320   2.564  10.730   0.671  0.2720 -0.8271  0.1944
  151MOL0     H20321   2.475  10.622   0.567  0.0778 -0.5953 -1.8987
  151MOL0     H20322   2.677  10.586   0.432 -0.4062 -3.7055  1.4039
  151MOL0     H20323   2.720  10.570   0.605 -0.5808 -1.2436 -1.3148
  151MOL0     H20324   2.814  10.799   0.609  2.9659  0.8994 -0.8497
  151MOL0     H20325   2.787  10.793   0.426 -0.8590 -3.5484 -1.0355
  151MOL0     H20326   2.925  10.563   0.571 -0.7491 -0.0613 -0.0053
  151MOL0     H20327   2.926  10.613   0.396 -0.4503 -1.6249  0.4703
  151MOL0     H20328   3.075  10.803   0.447 -0.3409  0.7834 -0.4785
  151MOL0     H20329   3.070  10.748   0.617 -0.3804 -1.2264 -0.8262
  151MOL0     H20330   3.176  10.535   0.573  1.3041 -1.1327 -0.8722
  151MOL0     H20331   3.176  10.562   0.398  1.6870  1.5816  0.0431
  151MOL0     H20332   3.332  10.690   0.628  2.4911 -1.7520  0.2472
  151MOL0     H20333   3.323  10.780   0.480  0.9982 -0.2361  0.0447
  151MOL0     H20334   3.416  10.484   0.475  1.3365 -0.9407 -1.1334
  151MOL0     H20335   3.445  10.616   0.356  0.6409  2.0921  0.4670
  151MOL0     H20336   3.579  10.844   0.482 -1.9602 -0.0658  0.4177
  151MOL0     H20337   3.944  10.815   0.549  0.6350 -0.9911  0.5964
  151MOL0     H20338   3.822  10.944   0.538 -0.1701 -0.0643 -0.6126
  151MOL0     H20339   3.770  10.876   0.790  1.2524  1.7674  1.7168
  151MOL0     H20340   3.923  10.800   0.791  2.6781  0.3489 -1.7086
  151MOL0     H20341   3.894  11.084   0.700  0.2455 -0.1870 -1.2286
  151MOL0     H20342   4.048  10.992   0.741  0.1481 -3.0859  1.8647
  151MOL0     H20343   4.025  11.100   0.938 -1.4012  1.7299  2.7866
  151MOL0     H20344   3.931  10.961   0.975 -0.7228  1.2092  2.3466
  151MOL0     H20345   3.688  10.946   1.098  0.2992 -1.9755 -1.0296
  151MOL0     H20346   3.461  10.863   1.039  0.4919  0.4563  0.5787
  151MOL0     H20347   3.201  10.573   0.848 -2.3411 -2.7568  0.2016
  151MOL0     H20348   2.983  10.483   0.850  3.0801 -1.6969  3.4380
  151MOL0     H20349   2.729  10.422   0.848 -1.4360 -0.8793  0.4447
  151MOL0     H20350   2.786  10.462   1.010 -0.8565 -0.4159  0.7065
  151MOL0     H20351   2.542  10.383   0.980 -1.2122 -0.1618  0.4330
  151MOL0     H20352   2.585  10.506   1.097 -1.7247 -2.6556  0.0721
  151MOL0     H20353   2.487  10.681   0.948 -1.5977 -0.6391  2.6597
  151MOL0     H20354   2.462  10.556   0.816 -2.8159 -0.5217  0.5520
  151MOL0     H20355   2.332  10.502   1.076  1.1785 -0.6526  0.2210
  151MOL0     H20356   2.308  10.446   0.906 -1.6218  2.1884 -1.9656
  151MOL0     H20357   2.210  10.670   0.843 -0.6820  2.4264  0.2034
  151MOL0     H20358   2.274  10.725   0.997 -1.4698 -0.5382  2.5217
  151MOL0     H20359   2.088  10.566   1.107 -1.4603 -0.5444  0.1833
  151MOL0     H20360   2.028  10.700   1.013  0.3444 -0.3377  0.9081
  151MOL0     H20361   2.066  10.413   0.914  3.7624  2.2087 -0.1422
  151MOL0     H20362   2.011  10.552   0.807 -0.0359 -0.9842 -0.3064
  151MOL0     H20363   1.829  10.578   1.002  0.7875  1.4133 -0.8867
  151MOL0     H20364   1.808  10.441   0.888 -1.2837 -0.1430  1.6875
  151MOL0     H20365   2.813  10.858   0.968 -0.9954 -3.2558  0.7846
  151MOL0     H20366   3.063  10.951   0.980  0.6049 -0.3912  2.8033
  151MOL0     H20367   3.440  11.136   0.719 -0.7013 -0.1367  1.5227
  151MOL0     H20368   3.689  11.199   0.754  1.9151 -0.8261  1.9384
  151MOL0     H20369   2.370  10.897   0.304  2.4445  0.5975  1.4158
  151MOL0     H20370   2.144  10.993   0.328 -1.6078 -1.7996 -0.5484
  151MOL0     H20371   1.991  11.449   0.537  0.0781 -2.3509 -2.0771
  151MOL0     H20372   1.828  11.582   0.591  2.0515  0.9320  4.6985
  151MOL0     H20373   1.501  11.446   0.890  1.0931 -0.9033 -1.0285
  151MOL0     H20374   1.418  11.415   0.731 -0.3575  1.7406 -1.5418
  151MOL0     H20375   1.443  11.705   0.827  0.3251 -1.1685  1.1972
  151MOL0     H20376   1.328  11.598   0.913  0.8276 -1.9867  0.2912
  151MOL0     H20377   1.226  11.528   0.685 -2.4675  0.8696 -1.9967
  151MOL0     H20378   1.319  11.655   0.609  2.1733 -0.3130  0.9156
  151MOL0     H20379   1.121  11.688   0.854 -0.3231 -0.9211  0.2165
  151MOL0     H20380   1.228  11.817   0.790  2.9319 -1.6858 -1.1922
  151MOL0     H20381   0.927  11.795   0.490  1.0371  0.2896 -2.3061
  151MOL0     H20382   1.592  11.255   0.774  0.9979 -2.1641 -1.2207
  151MOL0     H20383   1.846  11.021   0.778  2.0316  1.6531 -0.0738
  151MOL0     H20384   1.671  11.037   0.738  1.0475  0.4737 -0.2193
  151MOL0     H20385   1.804  11.005   0.621  0.4613 -1.9365  1.0712
  152MOL0     O20386   9.776   0.633   5.734  0.2134 -0.3329  0.0014
  152MOL0     C20387   9.767   0.589   5.848 -0.0573  0.5355 -0.7219
  152MOL0     O20388   9.861   0.524   5.914  0.4377 -0.5289  0.1206
  152MOL0     C20389   9.994   0.557   5.884  0.0838 -0.4122  0.4799
  152MOL0     C20390  10.074   0.644   5.956  0.1530 -0.6243  1.1838
  152MOL0     C20391  10.211   0.653   5.922  1.1776  0.7447  0.4704
  152MOL0     C20392  10.267   0.579   5.815  0.0800 -0.1129 -0.1994
  152MOL0     O20393  10.398   0.582   5.760  0.3507 -0.5966  0.3337
  152MOL0     C20394  10.509   0.633   5.840  0.1744  0.0674 -0.9082
  152MOL0     C20395  10.623   0.643   5.742  0.5875 -0.4442  0.1978
  152MOL0     C20396  10.755   0.642   5.817  0.7947 -0.2138 -0.1130
  152MOL0     C20397  10.866   0.698   5.726  0.1897 -0.3573  0.0671
  152MOL0     C20398  11.007   0.686   5.783 -0.3102  0.4463 -0.4940
  152MOL0     C20399  11.103   0.773   5.691 -0.5820  0.6770 -0.1346
  152MOL0     C20400  11.253   0.724   5.715  0.3629 -0.1360  0.0210
  152MOL0     C20401  11.337   0.799   5.614  0.6478  0.1506  0.9493
  152MOL0     N20402  11.470   0.730   5.608  0.8708  0.2135 -0.2060
  152MOL0     C20403  11.526   0.656   5.712 -0.6197 -0.1121  0.0312
  152MOL0     C20404  11.649   0.629   5.673 -0.0565 -0.8987  0.7634
  152MOL0     C20405  11.763   0.584   5.769 -0.6573  0.4258  0.2820
  152MOL0     C20406  11.900   0.620   5.709 -0.4287 -0.0762  0.3317
  152MOL0     C20407  12.015   0.616   5.813  0.1782 -1.0560 -0.4075
  152MOL0     C20408  12.154   0.618   5.752  0.2157  0.4593  0.2064
  152MOL0     O20409  12.242   0.616   5.866 -0.4616 -0.2774 -0.1520
  152MOL0     C20410  12.378   0.645   5.834 -0.5686 -0.2245 -0.9223
  152MOL0     C20411  12.464   0.652   5.943 -0.2858  0.2503 -0.1262
  152MOL0     C20412  12.605   0.671   5.939 -0.0165 -0.1913  0.2803
  152MOL0     C20413  12.669   0.677   5.819 -0.6612  0.6567  0.1607
  152MOL0     C20414  12.817   0.700   5.804 -0.1526  0.2906 -0.8372
  152MOL0     O20415  12.889   0.714   5.918 -1.1349  0.5663  0.2892
  152MOL0     C20416  13.022   0.742   5.885 -0.0165 -1.0797  0.0422
  152MOL0     C20417  13.054   0.881   5.849 -0.6928  1.5384  0.1194
  152MOL0     C20418  13.191   0.893   5.813 -0.6070 -0.1700 -0.1667
  152MOL0     C20419  13.285   0.784   5.808 -0.4124  0.5194 -0.5209
  152MOL0     O20420  13.410   0.807   5.767  0.1264 -0.7611 -0.1949
  152MOL0     C20421  13.435   0.835   5.632 -0.1838  0.1652 -0.4002
  152MOL0     C20422  13.583   0.858   5.601 -0.2480  0.0677  0.3510
  152MOL0     C20423  13.671   0.735   5.624 -0.4483  0.2659 -1.2329
  152MOL0     C20424  13.819   0.764   5.587  0.2495  0.5932  0.5873
  152MOL0     C20425  13.917   0.661   5.652  0.7585  0.2950  0.1400
  152MOL0     C20426  14.069   0.696   5.649  0.8640 -0.5559  0.2245
  152MOL0     C20427  14.151   0.609   5.740 -0.1909  0.2041 -0.1683
  152MOL0     C20428  14.298   0.611   5.702  0.3670  0.5894 -0.2146
  152MOL0    Cl20429  14.391   0.484   5.791  0.0187  0.3325  0.1078
  152MOL0     C20430  13.246   0.659   5.854  0.5156  0.3808  1.1215
  152MOL0     C20431  13.115   0.633   5.896 -0.2163  0.0491  0.4298
  152MOL0     O20432  12.854   0.712   5.689  0.7219  0.3070 -0.3060
  152MOL0     C20433  12.584   0.673   5.704 -0.3524  0.1567  0.0797
  152MOL0     C20434  12.446   0.655   5.711  0.0447 -0.9877 -0.2727
  152MOL0     N20435  11.667   0.686   5.546 -0.3844 -0.4806 -0.5395
  152MOL0     N20436  11.570   0.751   5.514 -0.9112 -0.3786 -0.9414
  152MOL0     C20437  10.184   0.489   5.751 -0.1559 -0.1679 -0.2181
  152MOL0     C20438  10.047   0.483   5.777  0.2191 -0.3667 -0.2896
  152MOL0     C20439   9.638   0.613   5.918  1.3824  0.3602 -0.7238
  152MOL0     C20440   9.640   0.618   6.060 -0.6702 -0.0401 -0.4888
  152MOL0     C20441   9.525   0.643   6.134  0.4500  0.0990 -0.0446
  152MOL0     C20442   9.402   0.672   6.076 -0.1168  0.5375  0.6732
  152MOL0     O20443   9.295   0.706   6.155  0.0603 -0.1466 -0.6034
  152MOL0     C20444   9.182   0.757   6.085 -1.2427 -0.5186 -0.2096
  152MOL0     C20445   9.086   0.815   6.187  0.1446  0.2186  0.1484
  152MOL0     C20446   9.025   0.714   6.274  0.1386 -0.9412 -0.7047
  152MOL0     C20447   8.930   0.769   6.381 -0.0977 -0.4737 -0.0800
  152MOL0     C20448   8.842   0.662   6.425 -0.3726 -0.2070 -0.2090
  152MOL0     C20449   8.771   0.574   6.458  0.2672 -0.0762 -0.5342
  152MOL0     C20450   9.395   0.660   5.932  0.3829 -0.9561  0.1245
  152MOL0     C20451   9.506   0.633   5.861 -0.5791 -0.7032  0.0680
  152MOL0     C20452   9.483   0.615   5.707  0.0659 -1.4884  0.5257
  152MOL0     H20453  10.041   0.717   6.029 -1.2333  0.5192 -0.5444
  152MOL0     H20454  10.269   0.725   5.978  3.0389 -0.9812  0.8671
  152MOL0     H20455  10.488   0.730   5.886 -0.3719 -0.8364  0.8080
  152MOL0     H20456  10.533   0.566   5.923  0.9253  0.1703 -1.0373
  152MOL0     H20457  10.616   0.738   5.689 -0.0421  0.0514  1.1351
  152MOL0     H20458  10.620   0.549   5.686  1.5620 -2.6868  3.5565
  152MOL0     H20459  10.775   0.539   5.850 -0.6177 -0.7193 -0.7501
  152MOL0     H20460  10.745   0.699   5.910 -0.5974 -1.8018  0.7693
  152MOL0     H20461  10.854   0.656   5.626 -2.0772  0.8390 -0.2418
  152MOL0     H20462  10.845   0.806   5.724 -0.4945 -0.4911 -0.0551
  152MOL0     H20463  11.000   0.717   5.888 -2.0041 -3.9151  0.9005
  152MOL0     H20464  11.036   0.580   5.779 -0.1610  0.4902 -0.5740
  152MOL0     H20465  11.070   0.767   5.587 -0.0249 -0.4059 -0.2666
  152MOL0     H20466  11.088   0.879   5.715  0.5686  0.8226  0.0204
  152MOL0     H20467  11.259   0.616   5.697  4.8792 -0.2035  0.7019
  152MOL0     H20468  11.282   0.737   5.820 -0.7870 -3.3185  0.8561
  152MOL0     H20469  11.287   0.803   5.516  1.7393  1.4237  0.4192
  152MOL0     H20470  11.355   0.899   5.652 -1.4787  0.3399  1.5946
  152MOL0     H20471  11.500   0.633   5.815  0.6286 -1.7618  0.0106
  152MOL0     H20472  11.754   0.643   5.861 -0.8107  1.9862 -0.6891
  152MOL0     H20473  11.748   0.479   5.794  2.3917 -0.4172 -0.9268
  152MOL0     H20474  11.918   0.544   5.633 -1.7396  1.0468 -1.1685
  152MOL0     H20475  11.891   0.719   5.663 -0.3260  0.2638  1.0239
  152MOL0     H20476  12.002   0.527   5.875 -0.0842 -1.1586 -0.6088
  152MOL0     H20477  12.001   0.706   5.873  2.0754  0.8095 -2.5315
  152MOL0     H20478  12.166   0.708   5.691 -2.4661  0.5893 -0.2737
  152MOL0     H20479  12.168   0.533   5.685 -4.3206 -1.1478  0.9478
  152MOL0     H20480  12.424   0.654   6.044 -1.2747 -0.9558 -0.4731
  152MOL0     H20481  12.660   0.676   6.032 -2.2811  1.1077  1.6585
  152MOL0     H20482  12.988   0.967   5.842 -2.1428  0.3983 -0.9332
  152MOL0     H20483  13.225   0.988   5.773  0.0434  0.1344  1.0685
  152MOL0     H20484  13.411   0.746   5.573  1.8534 -1.2431  0.7615
  152MOL0     H20485  13.379   0.915   5.584  0.1480  1.0569  0.6700
  152MOL0     H20486  13.584   0.870   5.492 -1.8737 -0.4525  0.2571
  152MOL0     H20487  13.621   0.948   5.649  0.3134  0.4415 -0.7615
  152MOL0     H20488  13.670   0.723   5.733 -1.2946  2.4187 -0.9592
  152MOL0     H20489  13.631   0.642   5.585 -0.6909  0.0494 -0.4885
  152MOL0     H20490  13.838   0.869   5.612  2.8654  0.5573 -0.9415
  152MOL0     H20491  13.825   0.766   5.478 -2.1161  1.6935  0.4213
  152MOL0     H20492  13.901   0.560   5.615  4.0734 -0.9368  1.6822
  152MOL0     H20493  13.889   0.661   5.758  0.8553  1.6002  0.1842
  152MOL0     H20494  14.104   0.676   5.547 -0.4076 -0.5993 -0.2304
  152MOL0     H20495  14.094   0.801   5.663 -1.1121  0.6410 -3.5540
  152MOL0     H20496  14.120   0.507   5.719  1.1976  0.2757 -3.1077
  152MOL0     H20497  14.138   0.636   5.845  1.1172 -1.2738  0.4169
  152MOL0     H20498  14.311   0.594   5.595 -0.2744 -0.3835 -0.1446
  152MOL0     H20499  14.341   0.710   5.726 -0.0172  0.5652  0.6166
  152MOL0     H20500  13.305   0.568   5.854  1.8531  1.1605 -0.9145
  152MOL0     H20501  13.080   0.537   5.932 -3.3086  0.9020 -0.0141
  152MOL0     H20502  12.623   0.682   5.604  1.9419 -2.5804  0.6095
  152MOL0     H20503  12.387   0.655   5.619 -3.2042  0.1481  1.6285
  152MOL0     H20504  10.225   0.421   5.677 -2.0668 -0.6634 -0.8768
  152MOL0     H20505   9.987   0.409   5.724 -0.6314  0.8088 -1.0166
  152MOL0     H20506   9.729   0.597   6.119 -1.8132 -2.6106  0.5142
  152MOL0     H20507   9.522   0.638   6.243  0.3147  0.5428 -0.0254
  152MOL0     H20508   9.120   0.683   6.034 -0.4222 -4.0192  3.3501
  152MOL0     H20509   9.214   0.831   6.011  3.7797  0.3297  2.3384
  152MOL0     H20510   9.010   0.846   6.114 -2.3065  0.8308  2.7874
  152MOL0     H20511   9.134   0.898   6.240 -0.8887  1.4762 -0.8023
  152MOL0     H20512   9.099   0.659   6.333 -2.1748 -0.6467  2.8255
  152MOL0     H20513   8.964   0.645   6.215 -0.2060 -1.5169  0.2943
  152MOL0     H20514   8.991   0.797   6.467 -0.1569 -1.2587  0.2196
  152MOL0     H20515   8.865   0.853   6.352 -0.1427 -0.2888  0.5445
  152MOL0     H20516   8.706   0.492   6.482  0.3383  0.0020 -0.0630
  152MOL0     H20517   9.304   0.684   5.879  1.3457  0.8624 -0.7932
  152MOL0     H20518   9.540   0.529   5.672  0.6902  0.3250 -3.5341
  152MOL0     H20519   9.381   0.588   5.678  0.2305 -0.9032 -0.6584
  152MOL0     H20520   9.512   0.706   5.653  0.2695 -0.4122  2.3509
  153MOL0     O20521   5.686  10.025   0.721 -0.3176 -0.0463 -0.1717
  153MOL0     C20522   5.602   9.929   0.731 -0.7167 -0.4191  0.7592
  153MOL0     O20523   5.629   9.803   0.762 -0.2372 -0.4360 -0.4120
  153MOL0     C20524   5.757   9.782   0.805 -0.0629  0.0362  0.2927
  153MOL0     C20525   5.871   9.796   0.723  0.0408 -0.2744 -0.2385
  153MOL0     C20526   5.997   9.783   0.775  0.2502  0.2310  0.1429
  153MOL0     C20527   6.016   9.742   0.902  0.0633  0.9759 -0.1626
  153MOL0     O20528   6.146   9.733   0.944 -0.6169 -0.0807 -1.1182
  153MOL0     C20529   6.191   9.855   1.020  0.7809 -0.0770  0.5619
  153MOL0     C20530   6.337   9.835   1.073 -0.0919 -0.0032 -0.5607
  153MOL0     C20531   6.439   9.842   0.963  0.5853 -0.5119  0.1491
  153MOL0     C20532   6.572   9.926   0.972 -0.8670 -0.0828 -0.6467
  153MOL0     C20533   6.675   9.900   0.855  0.5955 -0.7840 -0.6009
  153MOL0     C20534   6.794   9.988   0.898 -0.4868 -0.4782 -0.6735
  153MOL0     C20535   6.891  10.004   0.777  0.8284  0.5227  0.2786
  153MOL0     C20536   6.964   9.868   0.767  0.0791 -0.4122  0.2671
  153MOL0     N20537   7.070   9.885   0.673 -0.2343  0.1249  0.0084
  153MOL0     C20538   7.197   9.861   0.709 -0.5333 -0.9198 -0.2392
  153MOL0     C20539   7.261   9.852   0.592  0.0294 -0.0599 -0.1454
  153MOL0     C20540   7.402   9.798   0.577 -0.0528  0.0652 -0.0308
  153MOL0     C20541   7.509   9.912   0.578  0.0606  0.5727  0.5394
  153MOL0     C20542   7.653   9.857   0.575  0.4735 -1.5715  0.2207
  153MOL0     C20543   7.754   9.965   0.536 -0.3915  0.2260  0.5747
  153MOL0     O20544   7.893   9.916   0.542  0.8993 -0.1551  0.1321
  153MOL0     C20545   7.985   9.994   0.484 -0.1699 -0.2468  0.7564
  153MOL0     C20546   8.112   9.942   0.487 -0.0678  0.9326  0.7074
  153MOL0     C20547   8.218  10.014   0.428  0.0066  0.9346  0.5820
  153MOL0     C20548   8.200  10.129   0.351  0.0974 -0.0516 -0.8639
  153MOL0     C20549   8.312  10.178   0.270 -0.6820  0.4922 -0.6905
  153MOL0     O20550   8.292  10.260   0.161  0.1342 -0.5267  0.4189
  153MOL0     C20551   8.403  10.316   0.100  0.4284  0.1242  0.6992
  153MOL0     C20552   8.481  10.415   0.164  1.0500  0.5723 -0.8517
  153MOL0     C20553   8.597  10.459   0.112 -0.1577 -0.2210 -0.6554
  153MOL0     C20554   8.649  10.413  -0.007  0.5134 -0.2453 -1.0087
  153MOL0     O20555   8.781  10.448  -0.031  0.0985  0.2713 -0.4035
  153MOL0     C20556   8.852  10.375  -0.129  0.9506 -0.7660  0.3146
  153MOL0     C20557   9.004  10.418  -0.122 -0.2419  0.5344  0.7611
  153MOL0     C20558   9.085  10.358   0.003  0.3622  0.4394 -0.0228
  153MOL0     C20559   9.231  10.362  -0.016  0.0544 -0.2316 -0.8216
  153MOL0     C20560   9.295  10.335   0.121 -0.1422 -0.1917  0.1295
  153MOL0     C20561   9.449  10.370   0.128  0.4403  0.2118  0.7189
  153MOL0     C20562   9.510  10.311   0.251  0.5204 -0.0800 -0.0487
  153MOL0     C20563   9.656  10.326   0.260  0.1241 -0.0063  0.7026
  153MOL0    Cl20564   9.725  10.251   0.411 -1.0337 -0.4219 -0.2908
  153MOL0     C20565   8.575  10.311  -0.077 -0.1438 -0.2291  0.0367
  153MOL0     C20566   8.451  10.265  -0.027 -0.5299  0.2281  0.1085
  153MOL0     O20567   8.416  10.140   0.313 -0.0023 -0.4063 -0.0437
  153MOL0     C20568   8.070  10.170   0.348 -0.0317  0.7427 -0.1556
  153MOL0     C20569   7.963  10.116   0.417  0.1815 -0.7443 -0.7010
  153MOL0     N20570   7.180   9.885   0.490  1.2094 -0.0228  0.5296
  153MOL0     N20571   7.063   9.903   0.540  0.3691  0.6947  0.2202
  153MOL0     C20572   5.910   9.722   0.989  0.1241  0.6286 -0.3277
  153MOL0     C20573   5.784   9.736   0.942  0.4135  0.0869 -0.4394
  153MOL0     C20574   5.460   9.955   0.700 -0.1950 -0.5459  0.2739
  153MOL0     C20575   5.377   9.847   0.673 -0.4136 -0.7063 -0.0514
  153MOL0     C20576   5.246   9.871   0.643  0.2866 -0.6069  0.0530
  153MOL0     C20577   5.184   9.998   0.659 -0.4549 -0.3325  0.2275
  153MOL0     O20578   5.048  10.002   0.646  0.1143 -0.2213  0.4746
  153MOL0     C20579   4.981  10.131   0.651  0.1559 -0.8942 -0.4946
  153MOL0     C20580   4.833  10.104   0.630 -0.4295  0.3029  0.3570
  153MOL0     C20581   4.747  10.193   0.711  1.0003  0.3392 -0.3320
  153MOL0     C20582   4.601  10.145   0.736  0.7916 -0.6857 -0.2159
  153MOL0     C20583   4.598  10.021   0.816  0.0025 -0.6711  0.9660
  153MOL0     C20584   4.591   9.913   0.875 -0.1359 -0.2642  0.7433
  153MOL0     C20585   5.266  10.098   0.709 -0.9638 -0.4155  0.0080
  153MOL0     C20586   5.403  10.084   0.707 -0.0814 -1.0375 -0.1656
  153MOL0     C20587   5.487  10.212   0.736  0.3168 -0.2001  0.1824
  153MOL0     H20588   5.846   9.839   0.627 -0.0255  2.1870  0.8125
  153MOL0     H20589   6.085   9.798   0.714 -0.2242  1.3999 -0.2713
  153MOL0     H20590   6.177   9.941   0.954  0.1588 -0.3759  0.3023
  153MOL0     H20591   6.127   9.863   1.109 -0.2169  0.1292 -0.1607
  153MOL0     H20592   6.342   9.736   1.117 -1.9434 -0.1765 -0.6890
  153MOL0     H20593   6.351   9.905   1.156 -1.8310 -0.2521 -0.0242
  153MOL0     H20594   6.383   9.874   0.875 -4.1609 -1.1095  2.6200
  153MOL0     H20595   6.483   9.744   0.942  2.6062  0.3633  0.0447
  153MOL0     H20596   6.551  10.033   0.974  1.1762  0.3463  0.6639
  153MOL0     H20597   6.619   9.904   1.068 -0.8855 -0.4408 -0.7176
  153MOL0     H20598   6.704   9.795   0.854 -0.1960 -1.0013 -1.9275
  153MOL0     H20599   6.627   9.931   0.762 -3.7710  1.9329  2.1937
  153MOL0     H20600   6.755  10.089   0.913  1.0320 -0.0532  0.8223
  153MOL0     H20601   6.833   9.959   0.996 -0.5550  0.7377 -0.2741
  153MOL0     H20602   6.962  10.085   0.793  1.6141  0.3678 -2.1140
  153MOL0     H20603   6.830  10.025   0.689  0.1242  1.5150  0.9837
  153MOL0     H20604   7.005   9.843   0.865 -0.6128 -1.6710  0.2495
  153MOL0     H20605   6.894   9.788   0.741  0.0991 -0.2288 -0.3670
  153MOL0     H20606   7.237   9.853   0.810  1.9251 -1.0099 -1.1321
  153MOL0     H20607   7.416   9.727   0.659  2.4131 -0.2869 -0.6974
  153MOL0     H20608   7.393   9.748   0.480  0.6039 -1.9047  0.8782
  153MOL0     H20609   7.482   9.988   0.504 -0.4257 -0.7577 -0.7058
  153MOL0     H20610   7.505   9.956   0.678  0.8321 -0.2442  0.9442
  153MOL0     H20611   7.649   9.771   0.508  0.4418 -0.4173 -1.2996
  153MOL0     H20612   7.671   9.823   0.678  0.7496  1.9933  1.5077
  153MOL0     H20613   7.746  10.052   0.603 -1.0792 -0.5583  1.5288
  153MOL0     H20614   7.727  10.002   0.436  1.4226  0.7211  0.2167
  153MOL0     H20615   8.141   9.847   0.531  1.1791  0.3858 -1.2176
  153MOL0     H20616   8.313   9.961   0.422 -1.5629 -1.9675 -0.4099
  153MOL0     H20617   8.447  10.452   0.260  1.8696 -0.0667 -0.2949
  153MOL0     H20618   8.664  10.528   0.160 -1.7443  2.1786 -1.7036
  153MOL0     H20619   8.840  10.268  -0.113  0.1870 -0.7023  0.1906
  153MOL0     H20620   8.820  10.405  -0.230  1.8433  0.9408  0.5003
  153MOL0     H20621   9.057  10.375  -0.208  0.0230  2.8504 -0.2857
  153MOL0     H20622   9.019  10.526  -0.125  2.9742  0.1755  0.5605
  153MOL0     H20623   9.053  10.406   0.096  0.9212  2.2664 -0.7238
  153MOL0     H20624   9.055  10.253   0.013 -3.1825  1.2406 -0.7824
  153MOL0     H20625   9.255  10.467  -0.038  2.6587 -0.9199 -1.6679
  153MOL0     H20626   9.269  10.295  -0.094 -1.2267 -1.6436 -0.2690
  153MOL0     H20627   9.275  10.228   0.134 -2.6828  0.1211 -0.6304
  153MOL0     H20628   9.248  10.384   0.207  3.4876  0.3957  1.9762
  153MOL0     H20629   9.492  10.316   0.043 -0.5115  0.1669  0.2598
  153MOL0     H20630   9.469  10.477   0.121  2.0568 -0.1512 -1.4831
  153MOL0     H20631   9.489  10.204   0.258 -2.5623  0.5154  1.6265
  153MOL0     H20632   9.459  10.364   0.332 -1.4155 -3.9104  1.5086
  153MOL0     H20633   9.706  10.284   0.173 -0.6988  0.5167 -0.0395
  153MOL0     H20634   9.681  10.432   0.248  0.0213 -0.2153 -1.9242
  153MOL0     H20635   8.617  10.271  -0.169  0.2349 -0.0954  0.1532
  153MOL0     H20636   8.401  10.186  -0.082 -0.3158  0.6261 -0.6709
  153MOL0     H20637   8.053  10.248   0.275  1.3300 -0.7081 -2.1042
  153MOL0     H20638   7.866  10.164   0.407  1.9038  2.6487 -3.8276
  153MOL0     H20639   5.925   9.705   1.095 -1.8706 -2.0508 -0.3820
  153MOL0     H20640   5.695   9.725   1.004  1.7759  1.2256  1.8574
  153MOL0     H20641   5.414   9.746   0.661  1.1544  0.0012 -1.5125
  153MOL0     H20642   5.179   9.794   0.606 -2.0243  0.8196  0.9571
  153MOL0     H20643   5.002  10.191   0.562 -1.0174 -2.2473 -1.7458
  153MOL0     H20644   5.002  10.188   0.742 -1.9339 -1.2506  0.2643
  153MOL0     H20645   4.810  10.000   0.655  0.6525  0.1018  0.5841
  153MOL0     H20646   4.807  10.118   0.525 -0.7924 -1.4185  0.1766
  153MOL0     H20647   4.750  10.290   0.660  1.5682 -0.3875 -1.7180
  153MOL0     H20648   4.789  10.197   0.812 -2.5542  0.6782  1.2788
  153MOL0     H20649   4.549  10.227   0.787  1.5467  0.2051 -0.8469
  153MOL0     H20650   4.553  10.138   0.638 -0.2903 -0.5468  0.2870
  153MOL0     H20651   4.605   9.818   0.921 -1.0094 -0.4105  0.7058
  153MOL0     H20652   5.228  10.199   0.725  0.7027  0.0883  1.0312
  153MOL0     H20653   5.423  10.301   0.734  2.0132  1.0622 -0.0143
  153MOL0     H20654   5.534  10.210   0.834 -2.2142 -2.0640  1.4646
  153MOL0     H20655   5.571  10.230   0.668  0.3503  3.2080  0.9241
  154MOL0     O20656  10.649   4.203   6.246  0.5940  0.5152 -0.3651
  154MOL0     C20657  10.617   4.129   6.336 -1.0621  1.2255  0.4338
  154MOL0     O20658  10.705   4.040   6.392  0.1599 -0.1625 -0.8375
  154MOL0     C20659  10.835   4.072   6.395 -0.4561 -0.2428  0.4563
  154MOL0     C20660  10.918   3.966   6.387 -0.3919  0.0010 -0.2354
  154MOL0     C20661  11.059   3.982   6.401 -0.0634 -0.3091 -0.0432
  154MOL0     C20662  11.118   4.115   6.414  0.1329  0.0946  0.8078
  154MOL0     O20663  11.250   4.146   6.439 -0.3385  0.3829 -0.7887
  154MOL0     C20664  11.334   4.028   6.460  0.4118 -0.1989 -0.6633
  154MOL0     C20665  11.481   4.060   6.518 -0.1570  0.0214 -0.7780
  154MOL0     C20666  11.488   4.111   6.664  0.7262  0.1085 -0.4968
  154MOL0     C20667  11.637   4.145   6.700  0.5386 -0.5363 -0.0323
  154MOL0     C20668  11.660   4.145   6.855  0.3521  0.8683  0.5249
  154MOL0     C20669  11.770   4.234   6.902 -0.3323  0.1966  0.7537
  154MOL0     C20670  11.788   4.232   7.055 -0.0743  0.1550 -0.1662
  154MOL0     C20671  11.686   4.308   7.134  0.3888  0.1386 -0.3108
  154MOL0     N20672  11.719   4.289   7.284 -0.0582  0.3024  0.2938
  154MOL0     C20673  11.844   4.261   7.339  0.7643 -0.0761  0.1504
  154MOL0     C20674  11.821   4.244   7.468  0.4640  0.3066  0.2620
  154MOL0     C20675  11.916   4.218   7.578 -0.5883  0.3368 -0.2387
  154MOL0     C20676  12.065   4.225   7.523  0.9774  0.0522  0.0277
  154MOL0     C20677  12.164   4.221   7.643 -0.4440  0.3011 -0.7194
  154MOL0     C20678  12.311   4.238   7.608  0.2320  0.1802 -0.7410
  154MOL0     O20679  12.338   4.131   7.519 -0.4623 -0.4648 -0.1336
  154MOL0     C20680  12.468   4.091   7.495  0.1168 -0.6336 -0.2474
  154MOL0     C20681  12.486   3.973   7.423  0.0661  0.6885  0.0899
  154MOL0     C20682  12.608   3.940   7.367  0.0735  0.2282  0.5457
  154MOL0     C20683  12.726   4.013   7.398  0.2664 -0.2046  0.2802
  154MOL0     C20684  12.853   3.969   7.350  0.1691  0.7113 -0.0984
  154MOL0     O20685  12.849   3.868   7.257  0.0770  0.5127 -0.5253
  154MOL0     C20686  12.972   3.830   7.212 -0.6185  0.1905  0.2382
  154MOL0     C20687  13.061   3.913   7.141 -0.3214 -0.4254  0.4341
  154MOL0     C20688  13.193   3.865   7.107 -0.0086 -0.5713  0.7600
  154MOL0     C20689  13.237   3.739   7.153  0.2110 -0.3146  0.6411
  154MOL0     O20690  13.363   3.697   7.116 -0.3801 -0.1274 -0.9077
  154MOL0     C20691  13.462   3.799   7.138  0.3794  0.2933  0.0127
  154MOL0     C20692  13.597   3.733   7.150 -0.6052 -0.9211 -0.2224
  154MOL0     C20693  13.723   3.821   7.190 -0.0229 -0.4353 -0.5128
  154MOL0     C20694  13.846   3.744   7.234  0.4220  0.9770 -0.3719
  154MOL0     C20695  13.936   3.829   7.325  0.0162  0.5497  0.9460
  154MOL0     C20696  14.067   3.765   7.352 -0.1223 -0.2575  0.9699
  154MOL0     C20697  14.135   3.835   7.481  0.5246 -1.1683  0.8563
  154MOL0     C20698  14.144   3.991   7.476  0.6030  0.0175  0.4535
  154MOL0    Cl20699  14.236   4.057   7.624 -0.1438 -0.2263  0.2581
  154MOL0     C20700  13.147   3.651   7.204  0.5363  0.4537 -0.0798
  154MOL0     C20701  13.017   3.698   7.239 -0.7983  0.5501  0.2610
  154MOL0     O20702  12.952   4.025   7.402 -0.5824  0.4530  0.9019
  154MOL0     C20703  12.709   4.133   7.473 -0.2046  0.2144 -0.7613
  154MOL0     C20704  12.585   4.167   7.524  0.7888  0.5650 -0.5597
  154MOL0     N20705  11.683   4.248   7.494 -0.3509 -0.5781 -0.0405
  154MOL0     N20706  11.625   4.270   7.379 -0.0756 -0.1373  0.3877
  154MOL0     C20707  11.021   4.225   6.426 -0.1708 -0.7132 -0.2350
  154MOL0     C20708  10.885   4.199   6.422  0.0272 -0.1286 -0.5624
  154MOL0     C20709  10.478   4.127   6.382  0.0876  0.4795 -0.3622
  154MOL0     C20710  10.372   4.196   6.315 -0.0618  0.4234  0.0539
  154MOL0     C20711  10.240   4.192   6.351  0.8063 -1.0574 -0.2735
  154MOL0     C20712  10.197   4.115   6.458 -0.0144 -0.3368  0.2790
  154MOL0     O20713  10.076   4.135   6.502  0.5185 -0.0975 -0.1446
  154MOL0     C20714  10.007   4.058   6.597 -0.2757  0.6670  0.9171
  154MOL0     C20715   9.864   4.113   6.628  0.0545  0.5313 -0.0275
  154MOL0     C20716   9.792   4.044   6.747 -0.1406 -0.5996 -0.6400
  154MOL0     C20717   9.640   4.078   6.768  0.1376  0.8489  0.1783
  154MOL0     C20718   9.631   4.222   6.793  1.0604  0.1630 -0.5184
  154MOL0     C20719   9.585   4.336   6.819 -0.8904 -0.8881 -0.3228
  154MOL0     C20720  10.291   4.038   6.524 -0.4073 -0.3287 -0.1869
  154MOL0     C20721  10.430   4.046   6.492 -0.3371 -0.4279  0.0200
  154MOL0     C20722  10.526   3.982   6.595  0.7246 -0.7426 -0.3402
  154MOL0     H20723  10.864   3.871   6.383 -1.6577  0.5728  1.7466
  154MOL0     H20724  11.113   3.888   6.400  0.1592 -0.1814 -0.3791
  154MOL0     H20725  11.280   3.977   6.540  0.8363 -1.2817 -1.0516
  154MOL0     H20726  11.333   3.961   6.373  2.7466 -2.2404  0.7484
  154MOL0     H20727  11.531   4.137   6.459  0.8952 -0.9995 -1.2673
  154MOL0     H20728  11.549   3.975   6.508  0.5128  0.7202 -2.3500
  154MOL0     H20729  11.451   4.039   6.737  2.6903  2.3487  3.0326
  154MOL0     H20730  11.437   4.206   6.683  2.1560  0.6539  0.9392
  154MOL0     H20731  11.705   4.078   6.647 -0.2538  0.3112 -2.2441
  154MOL0     H20732  11.644   4.248   6.666 -0.1403 -1.1284 -2.0902
  154MOL0     H20733  11.567   4.167   6.908  0.3158  0.5434  0.5983
  154MOL0     H20734  11.686   4.042   6.881 -1.3094  0.2563 -0.1326
  154MOL0     H20735  11.868   4.203   6.866  0.3478  1.2826  1.5949
  154MOL0     H20736  11.763   4.340   6.873  2.6183  0.1395 -0.5001
  154MOL0     H20737  11.885   4.281   7.066 -0.7923  1.3933  1.0489
  154MOL0     H20738  11.800   4.134   7.102  0.5921  0.1010 -0.4448
  154MOL0     H20739  11.705   4.414   7.111  0.6098 -0.0891 -1.2528
  154MOL0     H20740  11.585   4.276   7.110  2.0647 -4.3000 -2.6643
  154MOL0     H20741  11.941   4.258   7.290  0.2748 -1.5261 -0.8077
  154MOL0     H20742  11.919   4.300   7.649  2.1470  0.4528 -0.3674
  154MOL0     H20743  11.884   4.130   7.634  1.1169 -0.7722 -0.9030
  154MOL0     H20744  12.079   4.139   7.457 -0.3149  1.1684 -1.7921
  154MOL0     H20745  12.078   4.322   7.476 -0.7316  0.8652  1.1338
  154MOL0     H20746  12.162   4.119   7.682  1.2305  0.2040 -0.7951
  154MOL0     H20747  12.132   4.300   7.713 -2.1694  0.8524 -2.0645
  154MOL0     H20748  12.357   4.218   7.705  0.8008 -3.0799 -1.5592
  154MOL0     H20749  12.326   4.338   7.566 -0.6102  0.3049 -0.7703
  154MOL0     H20750  12.400   3.913   7.394  1.4017 -1.0565 -0.4199
  154MOL0     H20751  12.606   3.844   7.316 -0.0763  0.2200  0.5679
  154MOL0     H20752  13.048   4.018   7.114 -0.0196  0.3026  2.8788
  154MOL0     H20753  13.260   3.934   7.055 -1.3957 -0.1593 -0.5607
  154MOL0     H20754  13.473   3.870   7.057  0.2527  2.7326  2.0200
  154MOL0     H20755  13.442   3.852   7.232  1.5967  0.0787  0.4231
  154MOL0     H20756  13.574   3.659   7.227  1.1815 -0.1730  1.1090
  154MOL0     H20757  13.618   3.669   7.064 -1.0029 -0.2084 -0.8590
  154MOL0     H20758  13.749   3.879   7.101  0.0606  0.7973  0.2891
  154MOL0     H20759  13.688   3.892   7.266  2.1025 -1.1226  1.1798
  154MOL0     H20760  13.900   3.712   7.145 -1.9761  1.3133 -2.0215
  154MOL0     H20761  13.814   3.657   7.292 -0.3767  0.8852 -0.9466
  154MOL0     H20762  13.890   3.863   7.418 -0.9511  2.8454 -0.2802
  154MOL0     H20763  13.950   3.924   7.271  0.5740  0.7432  1.4230
  154MOL0     H20764  14.058   3.656   7.364  1.3164 -0.6528 -1.0212
  154MOL0     H20765  14.128   3.791   7.265 -1.4697  4.8985  1.2717
  154MOL0     H20766  14.232   3.787   7.498  0.2552 -2.2309 -0.4179
  154MOL0     H20767  14.073   3.812   7.568 -1.4114  1.7233  0.3481
  154MOL0     H20768  14.190   4.022   7.382 -1.0351 -1.1314 -0.7798
  154MOL0     H20769  14.041   4.026   7.467  0.4179 -1.1450 -3.4427
  154MOL0     H20770  13.198   3.559   7.231  2.4749  1.9866  1.8419
  154MOL0     H20771  12.950   3.632   7.292  1.8397 -1.8218  0.8772
  154MOL0     H20772  12.787   4.202   7.503 -1.2936  1.0390  0.2487
  154MOL0     H20773  12.573   4.260   7.579 -0.7456  0.6063 -0.9171
  154MOL0     H20774  11.066   4.319   6.458  1.0631 -2.1707  2.7509
  154MOL0     H20775  10.816   4.281   6.442 -0.9926 -1.1529  0.1848
  154MOL0     H20776  10.385   4.252   6.223  0.5992  1.2515  0.6370
  154MOL0     H20777  10.163   4.255   6.308 -0.0481  0.5788  3.2758
  154MOL0     H20778  10.064   4.044   6.689  3.4332  0.5988 -1.2272
  154MOL0     H20779   9.993   3.958   6.555  0.1169 -0.1574  2.6541
  154MOL0     H20780   9.792   4.108   6.546 -0.0508 -3.4318  0.1256
  154MOL0     H20781   9.883   4.220   6.643  2.0163  0.2164 -0.0183
  154MOL0     H20782   9.853   4.064   6.836  0.6171  0.4164 -1.3616
  154MOL0     H20783   9.804   3.936   6.735 -1.9310 -0.7702 -1.1695
  154MOL0     H20784   9.582   4.055   6.678  2.1021 -0.3101 -0.8622
  154MOL0     H20785   9.598   4.016   6.848 -0.1750  0.5308 -0.2269
  154MOL0     H20786   9.538   4.432   6.830 -0.2797 -0.4846 -1.1165
  154MOL0     H20787  10.257   3.983   6.611 -2.1291 -2.6632 -2.1834
  154MOL0     H20788  10.544   3.882   6.557  0.6386 -0.2122 -1.8572
  154MOL0     H20789  10.617   4.043   6.603  0.1635  0.0404  0.2572
  154MOL0     H20790  10.493   3.981   6.700  1.4411  0.6126 -0.0816
  155MOL0     O20791   8.511   4.787   3.963 -0.3729 -0.0364 -0.3026
  155MOL0     C20792   8.444   4.771   4.067 -0.0467  0.3542  0.0152
  155MOL0     O20793   8.497   4.782   4.193  0.8060 -0.4222  0.5607
  155MOL0     C20794   8.631   4.789   4.196 -0.2921  0.7901  0.5065
  155MOL0     C20795   8.721   4.685   4.168  0.3330  0.3298 -0.1782
  155MOL0     C20796   8.849   4.695   4.205  0.2524  0.3169  0.1117
  155MOL0     C20797   8.907   4.815   4.244  0.1880 -0.2225  0.3743
  155MOL0     O20798   9.044   4.809   4.282  0.3842 -0.6875 -0.3301
  155MOL0     C20799   9.084   4.927   4.353  0.3410  0.5103 -0.0027
  155MOL0     C20800   9.217   4.899   4.432  0.3822  0.0509  0.1380
  155MOL0     C20801   9.279   5.029   4.488  0.4174 -0.0082  0.1313
  155MOL0     C20802   9.422   5.006   4.538 -0.3863  0.9436 -0.1213
  155MOL0     C20803   9.535   5.011   4.432 -0.0745  0.3389  0.2473
  155MOL0     C20804   9.664   5.027   4.510  0.6398 -0.0762  0.1956
  155MOL0     C20805   9.781   5.029   4.421  0.2398  1.4339 -0.2578
  155MOL0     C20806   9.801   5.167   4.354  0.5761  0.0169  0.0940
  155MOL0     N20807   9.930   5.171   4.284  0.0618 -0.4262  0.2350
  155MOL0     C20808  10.046   5.128   4.327 -0.3625  1.0313 -0.1957
  155MOL0     C20809  10.135   5.150   4.232 -1.0416 -1.1716 -0.2068
  155MOL0     C20810  10.266   5.089   4.229 -1.0067 -0.4772 -0.1710
  155MOL0     C20811  10.363   5.209   4.242 -0.4085  0.3261 -0.7689
  155MOL0     C20812  10.502   5.153   4.233  0.3487 -0.2527  0.3024
  155MOL0     C20813  10.528   5.079   4.094  0.1572  0.6878 -0.8943
  155MOL0     O20814  10.586   4.949   4.123 -0.1018  0.6893 -0.2236
  155MOL0     C20815  10.718   4.937   4.156  0.1313 -0.3785 -0.1331
  155MOL0     C20816  10.807   5.029   4.208  0.1477 -0.5253 -0.1413
  155MOL0     C20817  10.947   5.003   4.211  0.5257  1.1817 -0.1888
  155MOL0     C20818  10.997   4.883   4.159  0.1283  0.7098  0.7832
  155MOL0     C20819  11.136   4.854   4.152 -1.3040 -1.1018 -0.2323
  155MOL0     O20820  11.219   4.958   4.198  0.2129  0.1470 -0.3073
  155MOL0     C20821  11.357   4.949   4.209 -0.2795  0.2057  0.6479
  155MOL0     C20822  11.424   5.070   4.190 -0.5478  0.1241  0.6379
  155MOL0     C20823  11.568   5.066   4.205  0.2668 -0.8998 -0.0906
  155MOL0     C20824  11.641   4.955   4.243 -0.5481  0.4880 -0.6106
  155MOL0     O20825  11.775   4.967   4.262  0.1700  0.5980 -0.1890
  155MOL0     C20826  11.844   4.850   4.293  0.6627  0.1561  0.2130
  155MOL0     C20827  11.987   4.886   4.306  0.8609 -0.1341 -0.8603
  155MOL0     C20828  12.069   4.769   4.354 -0.1371 -0.1257  0.2412
  155MOL0     C20829  12.209   4.813   4.397  0.3810  0.5936 -0.2075
  155MOL0     C20830  12.306   4.829   4.272 -0.0952  0.8237  0.6718
  155MOL0     C20831  12.429   4.906   4.309  0.1173  0.1322  0.0650
  155MOL0     C20832  12.551   4.870   4.215  0.0883 -0.0597 -0.7494
  155MOL0     C20833  12.681   4.941   4.256  0.2788 -0.2529  0.1659
  155MOL0    Cl20834  12.667   5.122   4.235 -0.4500  0.1993 -0.3976
  155MOL0     C20835  11.558   4.841   4.262  0.9731 -0.2855  0.0260
  155MOL0     C20836  11.426   4.832   4.233  0.1143 -0.3907 -0.3899
  155MOL0     O20837  11.176   4.745   4.110  0.0488 -0.3059  0.3584
  155MOL0     C20838  10.905   4.788   4.108 -0.1675  0.6406 -0.4269
  155MOL0     C20839  10.772   4.818   4.112  0.0222 -0.8073 -0.4092
  155MOL0     N20840  10.075   5.229   4.130 -0.3837 -0.8568 -0.2836
  155MOL0     N20841   9.952   5.246   4.169 -0.1922  1.6363  0.3988
  155MOL0     C20842   8.824   4.929   4.253  0.2491  1.0304 -0.3431
  155MOL0     C20843   8.683   4.915   4.227  0.2656 -0.3516 -0.9131
  155MOL0     C20844   8.301   4.784   4.046  0.2253 -0.3010 -0.2180
  155MOL0     C20845   8.239   4.708   3.949  0.0862 -0.0018  0.9235
  155MOL0     C20846   8.097   4.701   3.933 -0.6587  0.5757  0.0024
  155MOL0     C20847   8.016   4.792   4.012  0.2728 -0.0665 -0.7119
  155MOL0     O20848   7.881   4.787   3.997  0.8507  0.3832 -0.0799
  155MOL0     C20849   7.800   4.882   4.070  0.0537  0.1586  0.8085
  155MOL0     C20850   7.653   4.876   4.057  0.5124 -0.0762  0.0726
  155MOL0     C20851   7.597   4.742   4.073  0.6803 -0.7399  0.3656
  155MOL0     C20852   7.442   4.743   4.042 -0.6523 -0.3316 -0.6430
  155MOL0     C20853   7.364   4.834   4.132 -0.3136  0.2596 -0.3484
  155MOL0     C20854   7.302   4.919   4.191 -0.1157 -0.1139 -0.1192
  155MOL0     C20855   8.081   4.861   4.108  0.4673 -0.4539  0.3498
  155MOL0     C20856   8.214   4.860   4.130  0.3299 -0.2795 -1.3819
  155MOL0     C20857   8.256   4.931   4.257  0.2425 -0.0323 -0.4226
  155MOL0     H20858   8.692   4.588   4.128 -0.3437  0.2490  0.4849
  155MOL0     H20859   8.920   4.613   4.208  1.1100  1.0683  1.1661
  155MOL0     H20860   9.093   5.018   4.293 -0.2290  0.8956  0.4912
  155MOL0     H20861   9.013   4.957   4.430 -2.7880 -1.1091 -2.0617
  155MOL0     H20862   9.285   4.856   4.358  2.8890  0.2731  2.1889
  155MOL0     H20863   9.195   4.833   4.516 -0.8989  0.7512  0.3804
  155MOL0     H20864   9.218   5.069   4.569  0.7340 -0.5838  0.6658
  155MOL0     H20865   9.291   5.109   4.414 -1.8926  1.4431  1.2038
  155MOL0     H20866   9.447   5.079   4.615  2.1017 -1.8854  2.0176
  155MOL0     H20867   9.423   4.915   4.599  0.3620  1.1115  0.1272
  155MOL0     H20868   9.532   4.926   4.364 -0.1926 -1.2523  2.1500
  155MOL0     H20869   9.524   5.096   4.364 -3.9964  0.9264  1.3933
  155MOL0     H20870   9.654   5.119   4.568 -1.8477 -0.1171 -0.0633
  155MOL0     H20871   9.671   4.937   4.572 -0.3734  0.6110  1.3379
  155MOL0     H20872   9.772   4.963   4.334  0.0799 -1.1957  1.6225
  155MOL0     H20873   9.868   4.998   4.479 -0.8934 -0.4925  0.5229
  155MOL0     H20874   9.724   5.174   4.277  1.4085 -2.7672 -1.1200
  155MOL0     H20875   9.811   5.251   4.423 -1.1609  0.4769 -0.1934
  155MOL0     H20876  10.065   5.058   4.408 -0.4291  0.9513 -0.2495
  155MOL0     H20877  10.283   5.023   4.315 -0.0119 -0.5991 -0.4456
  155MOL0     H20878  10.267   5.038   4.132 -2.5300  0.7712 -0.8745
  155MOL0     H20879  10.345   5.277   4.158  2.5441 -1.8069 -3.3782
  155MOL0     H20880  10.352   5.271   4.331 -1.0796  0.1467 -0.7186
  155MOL0     H20881  10.517   5.084   4.317 -1.2698 -0.3018  0.5850
  155MOL0     H20882  10.570   5.238   4.236  3.2725 -2.3818 -0.7385
  155MOL0     H20883  10.596   5.135   4.029  0.2820  1.7873  0.1256
  155MOL0     H20884  10.434   5.059   4.042 -0.0553 -3.1136  0.6597
  155MOL0     H20885  10.772   5.125   4.244  2.4329 -0.5896  2.6323
  155MOL0     H20886  11.020   5.070   4.255  3.2907 -1.3668 -0.5448
  155MOL0     H20887  11.369   5.162   4.172 -0.1260  0.8147  2.5851
  155MOL0     H20888  11.622   5.160   4.196  0.8714 -1.3662 -1.4501
  155MOL0     H20889  11.803   4.801   4.382 -2.4108  1.9919 -0.0588
  155MOL0     H20890  11.833   4.776   4.213 -2.1258  0.5826  0.1148
  155MOL0     H20891  12.028   4.914   4.208  1.8626  0.9038 -0.1755
  155MOL0     H20892  12.001   4.972   4.371 -2.5072  0.8665 -1.2622
  155MOL0     H20893  12.030   4.725   4.447  2.5866 -1.4577  0.8758
  155MOL0     H20894  12.076   4.687   4.282  1.9017  0.5629 -0.4316
  155MOL0     H20895  12.247   4.739   4.468  1.4413  1.9142  0.6414
  155MOL0     H20896  12.199   4.907   4.452 -1.2674  0.2280  0.1806
  155MOL0     H20897  12.254   4.880   4.191  0.1690  0.2507  0.1364
  155MOL0     H20898  12.335   4.732   4.230 -1.2133  0.8248 -0.1229
  155MOL0     H20899  12.411   5.013   4.298  1.6973  0.2552 -1.6482
  155MOL0     H20900  12.459   4.886   4.413 -0.3917  2.1262  0.6443
  155MOL0     H20901  12.539   4.904   4.112 -0.8808  1.6827 -0.0959
  155MOL0     H20902  12.574   4.763   4.211  4.3545  0.6143  0.6207
  155MOL0     H20903  12.717   4.916   4.356  0.6191  1.0898  0.4033
  155MOL0     H20904  12.755   4.909   4.182  0.6307 -3.3084  1.6916
  155MOL0     H20905  11.592   4.749   4.308  0.0283 -0.5719  0.1675
  155MOL0     H20906  11.382   4.738   4.266  3.2220 -1.4559  1.0719
  155MOL0     H20907  10.928   4.694   4.059 -4.9674 -3.3021  3.6870
  155MOL0     H20908  10.707   4.756   4.051 -0.1009  1.0659 -2.2977
  155MOL0     H20909   8.855   5.032   4.263  1.4116  1.1654 -3.8368
  155MOL0     H20910   8.612   4.996   4.233 -0.2255 -0.8672  1.2445
  155MOL0     H20911   8.296   4.640   3.886 -0.9861 -0.1163  0.0568
  155MOL0     H20912   8.058   4.626   3.866 -0.1351 -0.8057  1.1732
  155MOL0     H20913   7.835   4.981   4.038 -2.8603  0.5626 -1.5360
  155MOL0     H20914   7.813   4.874   4.178  0.1109  0.9626  0.8677
  155MOL0     H20915   7.634   4.914   3.956  1.2661 -0.4904 -0.2366
  155MOL0     H20916   7.602   4.945   4.124 -1.1667 -1.4630  0.2806
  155MOL0     H20917   7.622   4.716   4.177 -0.3372  0.0003  0.8085
  155MOL0     H20918   7.647   4.681   3.998 -0.9209 -2.1602  0.3841
  155MOL0     H20919   7.430   4.771   3.937  0.3121 -1.2249 -1.0076
  155MOL0     H20920   7.410   4.641   4.062  1.0281 -1.0001 -1.1310
  155MOL0     H20921   7.255   4.999   4.246  3.4707  1.3137  1.1230
  155MOL0     H20922   8.019   4.928   4.167 -1.2274  3.3621 -5.0305
  155MOL0     H20923   8.332   5.004   4.228 -0.3154  0.2816 -1.1114
  155MOL0     H20924   8.185   5.001   4.301  2.4544  2.8440 -1.1240
  155MOL0     H20925   8.291   4.858   4.330  1.3422 -1.6151 -2.3989
  156MOL0     O20926   3.939   4.427   2.871 -0.6279 -0.2881  0.6224
  156MOL0     C20927   4.000   4.322   2.899  0.4336 -0.5476  0.6811
  156MOL0     O20928   3.984   4.198   2.840 -0.1095 -0.6140  0.0636
  156MOL0     C20929   3.878   4.181   2.752 -0.9899  0.2598  0.5467
  156MOL0     C20930   3.783   4.079   2.785  0.1415  0.0602  0.3928
  156MOL0     C20931   3.675   4.051   2.699  0.6333 -0.2989 -0.3191
  156MOL0     C20932   3.660   4.133   2.586 -0.1681  0.1944 -0.6120
  156MOL0     O20933   3.547   4.116   2.509 -0.9151  0.5118 -0.3426
  156MOL0     C20934   3.456   4.220   2.497 -0.2785 -0.7039  0.5271
  156MOL0     C20935   3.320   4.166   2.455  0.4998  0.5898  0.3434
  156MOL0     C20936   3.331   4.136   2.302  0.5738  0.2410  0.9816
  156MOL0     C20937   3.195   4.093   2.241  0.4542 -0.0432 -0.5174
  156MOL0     C20938   3.184   4.103   2.092  0.4704  0.3841  0.9880
  156MOL0     C20939   3.034   4.092   2.038 -1.0317  0.0835 -0.7285
  156MOL0     C20940   3.027   4.112   1.887  0.5814 -0.4689 -0.0099
  156MOL0     C20941   2.891   4.058   1.842 -0.0129  0.0655  0.3325
  156MOL0     N20942   2.904   4.028   1.696 -1.0257  0.7575 -0.7026
  156MOL0     C20943   2.974   3.923   1.642  0.8541 -0.6851  0.7496
  156MOL0     C20944   2.997   3.961   1.511  0.1177  0.3381  0.8025
  156MOL0     C20945   3.084   3.894   1.409  0.2503 -0.1072  0.4577
  156MOL0     C20946   3.223   3.860   1.459 -0.0227 -0.6695 -0.3151
  156MOL0     C20947   3.312   3.869   1.341  1.6795  0.3449  0.7558
  156MOL0     C20948   3.459   3.867   1.378 -0.0803 -0.7142  0.1188
  156MOL0     O20949   3.500   3.737   1.409 -0.0628  0.6704 -0.4212
  156MOL0     C20950   3.627   3.727   1.452 -0.9865 -0.8607  0.3403
  156MOL0     C20951   3.691   3.614   1.403  0.2681 -0.2792  0.0733
  156MOL0     C20952   3.819   3.589   1.443  0.2346  0.4682  0.5365
  156MOL0     C20953   3.888   3.670   1.531 -0.3245  0.6206 -0.3183
  156MOL0     C20954   4.032   3.648   1.563  0.3168 -0.7464  0.2297
  156MOL0     O20955   4.100   3.750   1.623 -0.0797  0.7068 -0.3487
  156MOL0     C20956   4.236   3.741   1.644  0.0591 -0.1574 -0.1828
  156MOL0     C20957   4.304   3.649   1.728  0.5340 -0.8995  0.6275
  156MOL0     C20958   4.442   3.656   1.737  0.4437  0.1690 -0.5088
  156MOL0     C20959   4.516   3.749   1.669  0.6836 -0.4707  0.2125
  156MOL0     O20960   4.652   3.745   1.677  1.2580  0.7160 -0.1020
  156MOL0     C20961   4.723   3.788   1.560 -0.2548  0.1636 -0.3447
  156MOL0     C20962   4.863   3.738   1.578  0.0443 -0.4926  0.1667
  156MOL0     C20963   4.938   3.829   1.673 -0.4427 -0.0335 -0.8436
  156MOL0     C20964   5.076   3.771   1.709 -0.2887 -0.2094 -0.6391
  156MOL0     C20965   5.171   3.864   1.793  0.8603 -0.0833  0.2665
  156MOL0     C20966   5.109   3.909   1.919 -0.0480  0.8702  0.7674
  156MOL0     C20967   5.181   4.029   1.977  0.7520 -0.2449  0.0829
  156MOL0     C20968   5.166   4.037   2.131 -0.2252  0.1330 -0.0087
  156MOL0    Cl20969   5.202   4.197   2.189  0.3430 -0.3765  0.0978
  156MOL0     C20970   4.451   3.849   1.596  0.0269 -0.7432  0.0600
  156MOL0     C20971   4.313   3.843   1.594  0.5168 -0.5616  0.3185
  156MOL0     O20972   4.082   3.542   1.519  0.0476  0.6743 -0.2284
  156MOL0     C20973   3.823   3.784   1.575  0.0041 -0.1329  0.5966
  156MOL0     C20974   3.686   3.812   1.542 -0.0987  0.4382 -0.1788
  156MOL0     N20975   2.931   4.083   1.486  0.2436  0.0728  1.3202
  156MOL0     N20976   2.880   4.126   1.600  0.0642 -0.4319  0.9089
  156MOL0     C20977   3.751   4.230   2.554  0.1828  0.0350  0.2154
  156MOL0     C20978   3.857   4.256   2.638 -0.3791 -0.1451  0.5510
  156MOL0     C20979   4.109   4.346   2.997 -0.0831  0.5963  0.0299
  156MOL0     C20980   4.226   4.278   2.974  0.1548 -0.9536  0.3634
  156MOL0     C20981   4.336   4.297   3.052  0.0395  0.3384 -0.7459
  156MOL0     C20982   4.336   4.387   3.155 -0.2675 -0.2335 -0.1304
  156MOL0     O20983   4.458   4.391   3.211 -0.0577  0.0503 -0.7655
  156MOL0     C20984   4.473   4.477   3.322  0.4044 -0.1260  0.2096
  156MOL0     C20985   4.615   4.451   3.382  0.7855 -0.5457 -0.0291
  156MOL0     C20986   4.730   4.451   3.281  0.1867  0.6693  0.0770
  156MOL0     C20987   4.859   4.460   3.349  0.7295  0.1922 -0.7907
  156MOL0     C20988   4.967   4.448   3.261 -0.3376  0.2055 -1.0046
  156MOL0     C20989   5.054   4.454   3.180 -0.2952  1.1072  0.7338
  156MOL0     C20990   4.221   4.455   3.184  0.5335 -0.8602  0.0357
  156MOL0     C20991   4.104   4.437   3.109 -0.3855  0.1149  0.0177
  156MOL0     C20992   3.977   4.508   3.141  0.7476  0.5532 -0.1602
  156MOL0     H20993   3.806   4.035   2.882  2.2745  1.4780  0.5933
  156MOL0     H20994   3.599   3.989   2.746 -0.5244  0.8805 -0.5948
  156MOL0     H20995   3.450   4.272   2.593  1.3922 -0.7972  0.7249
  156MOL0     H20996   3.481   4.298   2.424  0.1434 -0.9429  0.4127
  156MOL0     H20997   3.235   4.232   2.473  0.8817  0.9031  1.0586
  156MOL0     H20998   3.295   4.078   2.514 -0.2409  0.5698  0.0033
  156MOL0     H20999   3.400   4.053   2.285  0.4347 -0.0444  1.8069
  156MOL0     H21000   3.362   4.228   2.252 -2.6104  0.6596 -0.4967
  156MOL0     H21001   3.168   3.995   2.281 -2.1866  1.4878  1.8875
  156MOL0     H21002   3.116   4.157   2.283 -1.1011 -1.9442 -0.4322
  156MOL0     H21003   3.222   4.201   2.060 -1.9882  0.9456 -0.5389
  156MOL0     H21004   3.251   4.025   2.054 -0.8423  0.0096 -0.7341
  156MOL0     H21005   2.993   3.995   2.066  0.6278 -1.0263 -1.9126
  156MOL0     H21006   2.968   4.165   2.084  0.0188  0.1946  0.6705
  156MOL0     H21007   3.103   4.053   1.835  2.2628  1.1950  0.4333
  156MOL0     H21008   3.044   4.217   1.863  0.4847 -0.3020  0.6215
  156MOL0     H21009   2.857   3.968   1.895 -2.3063  0.6829  0.0202
  156MOL0     H21010   2.816   4.137   1.846  2.4472  2.6323 -0.6767
  156MOL0     H21011   3.017   3.837   1.692  1.5930 -0.7370  0.0477
  156MOL0     H21012   3.037   3.797   1.392 -0.8768 -0.4016  4.3932
  156MOL0     H21013   3.083   3.960   1.321 -1.8204 -1.2584 -0.4449
  156MOL0     H21014   3.246   3.929   1.540  1.7874 -1.5228 -0.0644
  156MOL0     H21015   3.230   3.758   1.499 -0.1010 -0.2418  0.8145
  156MOL0     H21016   3.295   3.967   1.294 -0.8850 -0.3257  0.1495
  156MOL0     H21017   3.289   3.797   1.263  0.4018  3.8537 -2.4014
  156MOL0     H21018   3.466   3.933   1.465 -1.8477  0.3745 -0.4889
  156MOL0     H21019   3.517   3.893   1.289  2.2639 -0.6431  1.5807
  156MOL0     H21020   3.633   3.541   1.346 -0.4370  1.1475 -1.0942
  156MOL0     H21021   3.863   3.493   1.416  0.7166  1.0913 -1.0077
  156MOL0     H21022   4.256   3.565   1.777  0.0247 -1.0049 -0.0274
  156MOL0     H21023   4.498   3.585   1.797  3.8887  2.4319 -0.7789
  156MOL0     H21024   4.685   3.750   1.465 -1.7100  0.3573  0.1343
  156MOL0     H21025   4.733   3.897   1.554  2.8727  0.1768  2.1885
  156MOL0     H21026   4.867   3.636   1.617 -0.2493  0.1840  2.0611
  156MOL0     H21027   4.921   3.732   1.485  1.3304 -0.1542  0.9233
  156MOL0     H21028   4.940   3.931   1.634 -0.6403 -0.5689 -2.3272
  156MOL0     H21029   4.878   3.838   1.764  0.1505 -0.1072 -0.4374
  156MOL0     H21030   5.133   3.743   1.621  0.4510 -0.6430 -0.0315
  156MOL0     H21031   5.074   3.678   1.766  1.2485 -0.2316 -0.5888
  156MOL0     H21032   5.185   3.945   1.721 -0.2477 -0.1528 -0.0377
  156MOL0     H21033   5.266   3.813   1.813 -0.3275 -2.2947  0.6893
  156MOL0     H21034   5.004   3.935   1.903 -0.5871 -1.5734 -0.0106
  156MOL0     H21035   5.110   3.823   1.987 -0.7295  0.8420  0.7543
  156MOL0     H21036   5.140   4.117   1.926  2.2342  0.3778 -0.0835
  156MOL0     H21037   5.287   4.034   1.952  0.7101  0.8271  0.0469
  156MOL0     H21038   5.065   4.024   2.170  0.2702 -1.2154  0.8958
  156MOL0     H21039   5.224   3.957   2.178  2.0368  0.9380 -1.2863
  156MOL0     H21040   4.505   3.935   1.558 -1.7600 -0.0840 -1.1447
  156MOL0     H21041   4.256   3.916   1.536 -0.9088 -1.8980 -0.0428
  156MOL0     H21042   3.872   3.861   1.633  0.0158 -1.8924  3.0665
  156MOL0     H21043   3.639   3.904   1.575  0.3669  1.3647 -2.0256
  156MOL0     H21044   3.748   4.287   2.462 -0.5633 -0.9056 -0.3628
  156MOL0     H21045   3.923   4.341   2.621  0.7385 -0.9665  0.6975
  156MOL0     H21046   4.236   4.202   2.897 -0.2649 -0.3786 -0.2623
  156MOL0     H21047   4.426   4.237   3.036  0.8617  1.2058  0.4692
  156MOL0     H21048   4.398   4.449   3.396  0.2133  1.0346  0.4606
  156MOL0     H21049   4.459   4.582   3.296 -1.6091  0.0442  1.7168
  156MOL0     H21050   4.613   4.352   3.429 -0.3361 -0.0397  1.0387
  156MOL0     H21051   4.640   4.532   3.451  2.2496 -0.2822 -0.8440
  156MOL0     H21052   4.720   4.533   3.210 -4.0203 -0.0879 -0.4825
  156MOL0     H21053   4.723   4.367   3.212 -1.0801  2.4291 -2.0724
  156MOL0     H21054   4.853   4.553   3.407  1.9306  0.3830 -0.9459
  156MOL0     H21055   4.865   4.387   3.430 -2.0289  0.0279 -0.6404
  156MOL0     H21056   5.134   4.465   3.109  1.0009 -0.6712  1.8501
  156MOL0     H21057   4.206   4.535   3.256  4.0880  0.7062 -0.7390
  156MOL0     H21058   3.968   4.537   3.246 -0.7737  0.5166 -0.2518
  156MOL0     H21059   3.978   4.598   3.079  4.0277  1.1083  0.5109
  156MOL0     H21060   3.886   4.453   3.114 -0.3291  3.4619 -3.2195
  157MOL0     O21061   2.789   5.390   7.163 -0.4667 -0.2832 -0.2037
  157MOL0     C21062   2.770   5.272   7.190 -0.5274 -0.6558  0.9105
  157MOL0     O21063   2.866   5.177   7.182 -0.1096 -0.4844  0.8019
  157MOL0     C21064   2.987   5.184   7.133 -0.5259 -0.8264  0.4807
  157MOL0     C21065   3.064   5.074   7.143  0.8398  0.1528 -0.3660
  157MOL0     C21066   3.195   5.063   7.092  0.1445 -0.6449 -0.2058
  157MOL0     C21067   3.260   5.181   7.045 -1.1239 -0.2290  0.3437
  157MOL0     O21068   3.395   5.171   7.007 -0.1285 -0.2676 -0.1043
  157MOL0     C21069   3.482   5.233   7.103  0.0783 -0.7109  0.6702
  157MOL0     C21070   3.606   5.278   7.027 -0.3917 -0.3710 -0.4763
  157MOL0     C21071   3.674   5.392   7.090  0.2188  0.9255 -0.5195
  157MOL0     C21072   3.806   5.432   7.015  0.4695  0.4538  0.3995
  157MOL0     C21073   3.875   5.554   7.076  0.6460  0.3229 -0.1290
  157MOL0     C21074   3.879   5.550   7.228 -0.1620 -0.1592  0.7680
  157MOL0     C21075   3.966   5.660   7.276  0.5311 -0.0576 -0.3178
  157MOL0     C21076   3.958   5.695   7.417 -0.2095  0.7906 -0.7555
  157MOL0     N21077   3.999   5.834   7.448 -0.4336 -0.8131  0.6252
  157MOL0     C21078   4.130   5.879   7.470 -0.6472 -0.1896 -0.1399
  157MOL0     C21079   4.120   6.018   7.479  0.2156  0.7845 -0.4902
  157MOL0     C21080   4.234   6.115   7.505 -0.6764 -0.1998  0.3250
  157MOL0     C21081   4.279   6.098   7.655  1.2798  0.0128  0.3293
  157MOL0     C21082   4.361   6.221   7.711  0.8703  0.2362 -0.0701
  157MOL0     C21083   4.389   6.201   7.867  0.0876 -0.1822  0.0759
  157MOL0     O21084   4.453   6.325   7.902  0.3524 -0.3642 -0.1081
  157MOL0     C21085   4.501   6.360   8.023 -0.6203  0.1224  0.0405
  157MOL0     C21086   4.572   6.476   8.027  0.0026  0.4448  0.5198
  157MOL0     C21087   4.643   6.512   8.145  0.6415  0.8259  0.0208
  157MOL0     C21088   4.640   6.421   8.262  0.4641 -0.5423  0.2346
  157MOL0     C21089   4.715   6.470   8.385  1.2753 -0.1298  0.5881
  157MOL0     O21090   4.752   6.602   8.386 -0.0059  0.6306 -0.1616
  157MOL0     C21091   4.824   6.655   8.487  0.2773 -0.6710  0.2953
  157MOL0     C21092   4.915   6.585   8.561  0.3768 -0.3489 -0.0317
  157MOL0     C21093   4.981   6.646   8.671  0.2815 -0.2742  0.2889
  157MOL0     C21094   4.937   6.772   8.713  0.5148  0.1398 -0.2884
  157MOL0     O21095   4.987   6.825   8.832  0.7321  0.1000  0.1277
  157MOL0     C21096   5.115   6.885   8.810  0.0474 -0.2287 -0.1541
  157MOL0     C21097   5.218   6.781   8.844 -0.6813 -0.5138 -1.2845
  157MOL0     C21098   5.358   6.851   8.835  0.1126  0.4217 -0.5462
  157MOL0     C21099   5.454   6.772   8.927 -0.1029  0.0346 -0.1987
  157MOL0     C21100   5.593   6.832   8.930  0.4322  0.3539 -0.3012
  157MOL0     C21101   5.681   6.777   9.043 -0.6518 -0.0698  0.2602
  157MOL0     C21102   5.817   6.859   9.039  0.7591  0.1102 -0.3373
  157MOL0     C21103   5.913   6.803   9.154 -0.1133  0.7099  0.6089
  157MOL0    Cl21104   6.068   6.877   9.136 -0.2695  0.7062 -0.1745
  157MOL0     C21105   4.831   6.839   8.641  0.2577  0.1996 -0.9074
  157MOL0     C21106   4.785   6.786   8.525  0.3801 -0.0762  0.1169
  157MOL0     O21107   4.716   6.396   8.480  0.4737  0.0465 -0.1608
  157MOL0     C21108   4.572   6.294   8.253 -0.5238 -0.7890 -0.1496
  157MOL0     C21109   4.500   6.269   8.133  0.2025 -0.4835  0.4500
  157MOL0     N21110   3.994   6.050   7.450  0.0354 -0.3279 -0.4320
  157MOL0     N21111   3.921   5.945   7.423 -0.1802  0.4538  0.1461
  157MOL0     C21112   3.190   5.300   7.032  0.8601  0.0009 -0.5362
  157MOL0     C21113   3.049   5.304   7.071 -0.4561  0.0832 -0.3507
  157MOL0     C21114   2.634   5.238   7.240  0.3138  0.0419  0.3197
  157MOL0     C21115   2.612   5.110   7.288  0.1758  0.6032 -0.7275
  157MOL0     C21116   2.480   5.055   7.309  0.3804 -0.2892  0.0820
  157MOL0     C21117   2.370   5.143   7.296  0.3746 -0.1769  0.7374
  157MOL0     O21118   2.248   5.080   7.294 -0.8828  1.0057 -0.4505
  157MOL0     C21119   2.140   5.153   7.241 -0.1039  0.8977  0.2836
  157MOL0     C21120   2.019   5.057   7.240  0.0252  0.1909 -0.7731
  157MOL0     C21121   1.920   5.057   7.123  0.2634  0.0236 -0.0881
  157MOL0     C21122   1.810   4.948   7.149 -0.4565  0.6781  0.8199
  157MOL0     C21123   1.728   4.933   7.029 -0.3904 -0.9457 -0.1238
  157MOL0     C21124   1.654   4.919   6.931 -0.6158  0.7144 -0.5692
  157MOL0     C21125   2.396   5.274   7.254  0.1014 -0.3860 -0.2093
  157MOL0     C21126   2.524   5.327   7.232 -0.1274  0.6107 -0.7434
  157MOL0     C21127   2.540   5.471   7.196  0.2319  0.8002 -0.0778
  157MOL0     H21128   3.024   4.988   7.195  0.6406  0.0986 -0.6103
  157MOL0     H21129   3.250   4.970   7.095 -0.7503 -1.2019  3.6734
  157MOL0     H21130   3.426   5.310   7.158  0.9283 -0.5086  1.2771
  157MOL0     H21131   3.494   5.156   7.180 -3.7446 -0.7199  1.4781
  157MOL0     H21132   3.569   5.313   6.930  2.7199  1.3466 -1.1558
  157MOL0     H21133   3.678   5.198   7.006  0.1843  0.3685 -1.4074
  157MOL0     H21134   3.704   5.366   7.192 -1.8384  0.5811  0.0279
  157MOL0     H21135   3.606   5.477   7.090  0.7972  1.4154 -1.9567
  157MOL0     H21136   3.874   5.347   7.006  0.2775  0.4386 -1.2313
  157MOL0     H21137   3.780   5.458   6.912  0.6225 -0.8475  0.0092
  157MOL0     H21138   3.976   5.574   7.041  0.3977  3.2916  0.5729
  157MOL0     H21139   3.812   5.641   7.051 -2.5532 -0.6080  3.6554
  157MOL0     H21140   3.780   5.552   7.275 -0.5292  2.3620  0.0341
  157MOL0     H21141   3.926   5.454   7.249 -0.8189 -0.8092 -0.5978
  157MOL0     H21142   3.953   5.749   7.213  2.2354 -0.8441 -1.8778
  157MOL0     H21143   4.071   5.634   7.257  1.8816  4.2601 -0.0246
  157MOL0     H21144   3.854   5.676   7.446  0.1362 -1.1860 -0.6572
  157MOL0     H21145   4.018   5.625   7.476 -0.5544  0.9302 -0.2209
  157MOL0     H21146   4.218   5.818   7.486 -0.1795  0.1291 -1.4110
  157MOL0     H21147   4.325   6.092   7.449 -0.8101 -1.4173  0.5887
  157MOL0     H21148   4.201   6.214   7.471  2.4667  1.0719  0.7079
  157MOL0     H21149   4.186   6.092   7.711  1.0138  0.2612 -0.0836
  157MOL0     H21150   4.345   6.011   7.660  0.1547 -0.8160  1.2267
  157MOL0     H21151   4.301   6.311   7.697  0.4218  0.0989  0.8830
  157MOL0     H21152   4.455   6.235   7.656  0.7215 -0.0277 -0.3950
  157MOL0     H21153   4.459   6.117   7.877  1.0961  0.5714 -0.3496
  157MOL0     H21154   4.290   6.184   7.910  0.1213 -1.0319 -0.1780
  157MOL0     H21155   4.586   6.538   7.939  2.0415 -0.1335  0.3881
  157MOL0     H21156   4.694   6.607   8.158  0.6154  0.4223  4.5150
  157MOL0     H21157   4.960   6.490   8.534 -2.6948 -2.1969  0.9411
  157MOL0     H21158   5.052   6.590   8.731  1.0376 -0.7818 -1.0519
  157MOL0     H21159   5.116   6.923   8.708 -1.5963  1.0214  0.2681
  157MOL0     H21160   5.146   6.966   8.877  1.7704  0.9813 -2.2848
  157MOL0     H21161   5.193   6.745   8.944 -2.2053 -0.3073 -1.5581
  157MOL0     H21162   5.226   6.700   8.771  0.6261  0.1176 -1.8671
  157MOL0     H21163   5.391   6.843   8.731  2.5184  0.0415  0.1730
  157MOL0     H21164   5.357   6.955   8.868  1.0050  0.4711 -0.6469
  157MOL0     H21165   5.459   6.669   8.891  0.9504  1.3988 -4.5337
  157MOL0     H21166   5.420   6.765   9.031 -0.5162 -3.1498 -0.4589
  157MOL0     H21167   5.580   6.940   8.943 -0.2423  0.2721 -0.2189
  157MOL0     H21168   5.642   6.813   8.834 -0.9294  0.3372 -1.0250
  157MOL0     H21169   5.640   6.799   9.142  2.4007  0.7971  1.4348
  157MOL0     H21170   5.692   6.668   9.036 -0.5128 -0.1468  1.4029
  157MOL0     H21171   5.791   6.963   9.061 -0.6871  0.1367 -1.9444
  157MOL0     H21172   5.870   6.853   8.944  1.3103  0.7503 -0.0772
  157MOL0     H21173   5.875   6.812   9.257 -0.0573 -2.7454  1.0438
  157MOL0     H21174   5.911   6.696   9.137 -1.6979  1.0407 -1.6281
  157MOL0     H21175   4.774   6.924   8.676  0.3731 -0.2093  0.3151
  157MOL0     H21176   4.708   6.842   8.473 -0.4210 -1.0768  0.1856
  157MOL0     H21177   4.580   6.225   8.336  0.7114 -0.7503 -0.2159
  157MOL0     H21178   4.441   6.178   8.131 -0.2591 -0.2207 -2.9946
  157MOL0     H21179   3.247   5.388   7.003  2.0939 -1.3168 -2.3070
  157MOL0     H21180   2.998   5.397   7.047  0.1395  0.5776  0.2581
  157MOL0     H21181   2.692   5.038   7.277  2.3719  3.0311 -1.5681
  157MOL0     H21182   2.454   4.952   7.332 -0.2268  0.0817  1.0980
  157MOL0     H21183   2.163   5.187   7.140 -0.2279  1.1608  0.3406
  157MOL0     H21184   2.111   5.240   7.302 -3.5108  0.6796 -0.8457
  157MOL0     H21185   1.969   5.085   7.333 -1.1191 -0.6895 -1.1054
  157MOL0     H21186   2.053   4.953   7.245 -0.2414  0.1209 -0.4326
  157MOL0     H21187   1.971   5.037   7.029 -2.0995  1.6640 -1.8583
  157MOL0     H21188   1.881   5.159   7.115  0.7744  0.5131  2.5735
  157MOL0     H21189   1.854   4.850   7.171 -1.2019 -0.1039 -0.9718
  157MOL0     H21190   1.738   4.978   7.226 -1.1434 -1.1366  0.9371
  157MOL0     H21191   1.586   4.904   6.849 -0.9077 -1.1355 -0.0316
  157MOL0     H21192   2.313   5.344   7.258  1.1601  0.8492  1.9728
  157MOL0     H21193   2.612   5.513   7.266 -1.6656  2.5404  0.8965
  157MOL0     H21194   2.553   5.483   7.088 -0.4698 -0.7535 -0.3691
  157MOL0     H21195   2.445   5.524   7.205 -0.3626  0.5629 -3.4493
  158MOL0     O21196  10.004   9.603   4.847 -0.0447  0.2560 -0.0174
  158MOL0     C21197   9.891   9.559   4.849  0.1067 -0.1313 -0.0267
  158MOL0     O21198   9.847   9.457   4.927 -0.4943  0.0789  0.6853
  158MOL0     C21199   9.943   9.414   5.022  0.9253 -0.2444 -0.4470
  158MOL0     C21200  10.071   9.362   4.993 -0.1996 -0.4178 -0.6932
  158MOL0     C21201  10.155   9.305   5.096  0.7671  0.6763  0.3953
  158MOL0     C21202  10.113   9.318   5.230 -0.5494  1.1191  0.4884
  158MOL0     O21203  10.202   9.266   5.326  0.0829  0.6026 -0.3114
  158MOL0     C21204  10.147   9.185   5.434  0.2980  0.6995  0.0958
  158MOL0     C21205  10.249   9.075   5.475  0.6377  0.4574 -0.1967
  158MOL0     C21206  10.388   9.123   5.485  1.5375 -0.1743  0.6047
  158MOL0     C21207  10.469   9.097   5.354 -0.0091  0.5343  0.1729
  158MOL0     C21208  10.605   9.163   5.352 -0.5705  0.6722 -0.1918
  158MOL0     C21209  10.697   9.087   5.255  0.1659  1.1066 -0.9297
  158MOL0     C21210  10.848   9.123   5.292 -0.5063 -0.0240  0.1609
  158MOL0     C21211  10.906   9.066   5.420 -0.2567  0.2032 -0.0973
  158MOL0     N21212  11.023   9.143   5.463 -0.0957  0.2767 -0.0502
  158MOL0     C21213  11.153   9.117   5.417  0.4122 -0.5142  0.1147
  158MOL0     C21214  11.234   9.202   5.485  0.1727  0.3842  0.4406
  158MOL0     C21215  11.384   9.229   5.453 -0.3029 -0.1725  0.0771
  158MOL0     C21216  11.470   9.121   5.521  0.0010 -0.0784 -0.1987
  158MOL0     C21217  11.621   9.129   5.497 -0.8652 -0.4894  0.3116
  158MOL0     C21218  11.695   9.021   5.584 -0.1350  0.1921 -0.6778
  158MOL0     O21219  11.838   9.019   5.567 -0.1936  0.5149  0.2523
  158MOL0     C21220  11.922   9.116   5.623  0.3743  0.2664  0.8391
  158MOL0     C21221  12.058   9.091   5.620 -0.2710 -0.0799  0.3247
  158MOL0     C21222  12.155   9.163   5.696 -0.0183  0.3205  0.2704
  158MOL0     C21223  12.112   9.263   5.789  0.2559 -0.1458  0.4317
  158MOL0     C21224  12.207   9.325   5.879 -0.9830 -0.0353 -0.3953
  158MOL0     O21225  12.334   9.287   5.860 -0.0496 -0.3235  0.1075
  158MOL0     C21226  12.435   9.293   5.957  0.1139  0.1033 -0.1731
  158MOL0     C21227  12.563   9.261   5.913 -0.6747 -0.2455 -0.1904
  158MOL0     C21228  12.677   9.267   5.996 -1.1477 -0.0276 -0.1007
  158MOL0     C21229  12.658   9.286   6.134  0.0745 -0.2803  0.0188
  158MOL0     O21230  12.764   9.281   6.211 -0.6791 -0.8729  0.5098
  158MOL0     C21231  12.751   9.241   6.350 -0.0367  0.3228 -0.6615
  158MOL0     C21232  12.880   9.225   6.423 -0.1033  0.3821  0.2995
  158MOL0     C21233  12.870   9.156   6.566 -0.8621 -0.2726  0.1835
  158MOL0     C21234  13.022   9.158   6.609 -0.6459  0.8707 -0.3189
  158MOL0     C21235  13.057   9.113   6.754 -0.4885  0.4933 -0.4255
  158MOL0     C21236  13.213   9.085   6.764  0.5235 -0.1277 -0.6453
  158MOL0     C21237  13.279   9.220   6.781 -0.4120 -0.6141  0.1006
  158MOL0     C21238  13.435   9.202   6.754  0.0533  0.3241 -0.0521
  158MOL0    Cl21239  13.460   9.224   6.574  0.0884  0.4070 -0.7248
  158MOL0     C21240  12.528   9.318   6.186 -0.7734 -0.7053 -0.1971
  158MOL0     C21241  12.421   9.315   6.092 -1.3042 -0.5761  0.1478
  158MOL0     O21242  12.167   9.408   5.966 -0.6938  0.5702  1.0061
  158MOL0     C21243  11.976   9.287   5.796 -0.2806 -0.7366  0.9512
  158MOL0     C21244  11.875   9.224   5.711 -0.4217  0.9202 -0.3949
  158MOL0     N21245  11.154   9.255   5.581 -0.3679 -0.2340  0.2890
  158MOL0     N21246  11.032   9.219   5.574 -0.0651  0.3222 -0.0184
  158MOL0     C21247   9.984   9.367   5.260  0.6588 -0.3466 -0.0993
  158MOL0     C21248   9.903   9.404   5.156 -0.2900  0.5012  0.6148
  158MOL0     C21249   9.784   9.621   4.771  0.5667  0.3201 -1.4415
  158MOL0     C21250   9.681   9.539   4.727 -0.5857  0.6220  0.6729
  158MOL0     C21251   9.572   9.598   4.656 -0.0728 -0.1796  0.3556
  158MOL0     C21252   9.567   9.743   4.633 -0.0769  0.1391  0.2299
  158MOL0     O21253   9.464   9.805   4.568  0.2565 -0.7197  0.2584
  158MOL0     C21254   9.422   9.757   4.439  0.0034  1.0150 -1.2326
  158MOL0     C21255   9.285   9.706   4.441  0.3532  0.4911 -0.7163
  158MOL0     C21256   9.171   9.791   4.503 -0.2993 -0.6961 -0.5649
  158MOL0     C21257   9.148   9.736   4.643  0.4624 -0.2390 -0.6421
  158MOL0     C21258   9.017   9.762   4.702 -0.4557 -0.3173 -0.5551
  158MOL0     C21259   8.907   9.797   4.741 -0.2074  0.8906 -0.9044
  158MOL0     C21260   9.671   9.819   4.682  0.0789  0.4429  0.1490
  158MOL0     C21261   9.779   9.762   4.743  0.2329  0.1822 -0.3984
  158MOL0     C21262   9.879   9.858   4.792  0.5010 -0.4168  0.6993
  158MOL0     H21263  10.111   9.354   4.892 -1.7263 -0.3181 -1.3364
  158MOL0     H21264  10.244   9.249   5.071  1.0322  0.1957  2.2577
  158MOL0     H21265  10.124   9.237   5.528  1.5680  1.7112 -0.1231
  158MOL0     H21266  10.058   9.130   5.403  0.3461  0.1438  0.9036
  158MOL0     H21267  10.242   8.992   5.405 -1.6809  0.7193 -0.3548
  158MOL0     H21268  10.211   9.031   5.567  0.9697 -0.9817 -0.7316
  158MOL0     H21269  10.439   9.067   5.564  1.0929 -0.3853  0.7478
  158MOL0     H21270  10.378   9.230   5.505 -2.2328 -0.1336 -0.6330
  158MOL0     H21271  10.481   8.988   5.352  0.1023  0.5419 -2.7578
  158MOL0     H21272  10.425   9.139   5.263  1.7582 -0.3571 -1.1367
  158MOL0     H21273  10.603   9.267   5.317 -0.3734  0.5941 -0.4383
  158MOL0     H21274  10.636   9.156   5.456  0.8891 -1.9727 -0.7176
  158MOL0     H21275  10.676   8.981   5.270  0.6317  1.0822 -0.4411
  158MOL0     H21276  10.666   9.113   5.153 -0.0860  1.6052 -0.7264
  158MOL0     H21277  10.847   9.233   5.288 -0.0070 -0.0507 -1.4081
  158MOL0     H21278  10.920   9.097   5.214  0.6305  2.2315  0.3737
  158MOL0     H21279  10.831   9.071   5.500 -0.0640  0.1086  0.0896
  158MOL0     H21280  10.937   8.962   5.407  0.4039  0.3482  0.2952
  158MOL0     H21281  11.168   9.063   5.324  0.0403  1.4777 -1.1523
  158MOL0     H21282  11.396   9.219   5.345  0.6113  0.4080  0.1190
  158MOL0     H21283  11.411   9.329   5.488 -0.8426  0.1342 -0.3577
  158MOL0     H21284  11.452   9.137   5.628 -0.3064  2.1779 -0.5213
  158MOL0     H21285  11.433   9.022   5.493  0.5131 -0.5812  0.8463
  158MOL0     H21286  11.659   9.223   5.538  1.2358 -1.1553 -0.0126
  158MOL0     H21287  11.643   9.131   5.390 -0.9230  0.4563  0.3083
  158MOL0     H21288  11.647   8.926   5.560  0.7459 -1.3501  3.0190
  158MOL0     H21289  11.664   9.044   5.686 -0.7541  2.7327 -1.3452
  158MOL0     H21290  12.087   9.009   5.554  1.3181  1.3104 -0.7876
  158MOL0     H21291  12.252   9.117   5.715  0.7154  2.8811  3.7172
  158MOL0     H21292  12.567   9.242   5.807 -1.2333  0.5353 -0.3586
  158MOL0     H21293  12.775   9.245   5.953 -0.7062 -2.7008  1.9616
  158MOL0     H21294  12.693   9.317   6.403  1.8715  0.5194  1.3257
  158MOL0     H21295  12.710   9.141   6.361  2.6867 -1.0262 -1.9338
  158MOL0     H21296  12.948   9.174   6.354 -0.7596 -0.6939  0.4196
  158MOL0     H21297  12.918   9.326   6.441  0.3711  0.1695  0.5109
  158MOL0     H21298  12.824   9.224   6.639  0.8882  1.4594 -0.2534
  158MOL0     H21299  12.828   9.055   6.571  2.0779 -1.5736  1.1632
  158MOL0     H21300  13.058   9.261   6.597 -0.0917  0.4964 -2.2868
  158MOL0     H21301  13.077   9.098   6.536 -2.4037  0.1278 -1.0870
  158MOL0     H21302  12.996   9.027   6.784  0.1719 -0.0460 -0.5970
  158MOL0     H21303  13.031   9.199   6.816  0.2089 -1.1154  2.3058
  158MOL0     H21304  13.233   9.028   6.855 -2.4805  1.4456  1.1532
  158MOL0     H21305  13.258   9.037   6.677  1.3360  0.4748 -0.5723
  158MOL0     H21306  13.263   9.256   6.883  1.8268  0.6984  0.0542
  158MOL0     H21307  13.243   9.291   6.706  1.5508 -0.2190 -0.5456
  158MOL0     H21308  13.492   9.282   6.802  0.4806  0.8540 -1.4004
  158MOL0     H21309  13.478   9.111   6.799  1.0831  0.7550 -0.1341
  158MOL0     H21310  12.515   9.334   6.293 -0.2434 -4.0425  0.4638
  158MOL0     H21311  12.326   9.332   6.142 -0.5201 -1.3380  2.0192
  158MOL0     H21312  11.945   9.367   5.863 -1.9644 -0.1944 -0.4135
  158MOL0     H21313  11.773   9.255   5.728 -0.8918 -1.2631  1.1797
  158MOL0     H21314   9.949   9.371   5.363  0.1271  0.7837 -0.3172
  158MOL0     H21315   9.801   9.435   5.179 -0.5652 -0.6126  0.9622
  158MOL0     H21316   9.673   9.431   4.731  3.0805 -0.2288 -4.2765
  158MOL0     H21317   9.489   9.536   4.625  0.2965 -0.9309  0.8274
  158MOL0     H21318   9.488   9.672   4.416  0.0324 -0.5158  3.4233
  158MOL0     H21319   9.434   9.841   4.371  0.8125  0.0730 -2.2986
  158MOL0     H21320   9.290   9.608   4.488  2.9779  0.4142 -1.0248
  158MOL0     H21321   9.255   9.678   4.339 -4.9081 -0.6969  0.8610
  158MOL0     H21322   9.077   9.778   4.449 -1.0934  0.9355  0.3835
  158MOL0     H21323   9.200   9.896   4.507 -1.8546 -0.2564 -0.4295
  158MOL0     H21324   9.178   9.631   4.653  4.5033  0.7426 -0.5236
  158MOL0     H21325   9.218   9.784   4.712 -1.0895  2.1535 -0.6189
  158MOL0     H21326   8.813   9.814   4.789 -1.0014 -4.5995  0.1272
  158MOL0     H21327   9.671   9.926   4.666  1.2378  0.7890  2.0764
  158MOL0     H21328   9.839   9.959   4.802 -0.4130 -0.3830 -2.4469
  158MOL0     H21329   9.934   9.843   4.886  0.8168 -3.3545  0.1573
  158MOL0     H21330   9.954   9.865   4.713  1.4230  3.3123  1.6924
  159MOL0     O21331   3.330  10.712   4.311 -0.0574  0.7904  0.1338
  159MOL0     C21332   3.255  10.624   4.351  0.1219  0.3827  0.8146
  159MOL0     O21333   3.284  10.542   4.454 -1.2951  1.0421  0.0054
  159MOL0     C21334   3.405  10.559   4.519  0.9318 -0.4192  0.8173
  159MOL0     C21335   3.511  10.478   4.476 -0.0182 -0.0364 -0.8259
  159MOL0     C21336   3.630  10.474   4.542 -0.7436  0.4211  0.8109
  159MOL0     C21337   3.663  10.566   4.643  0.5647 -0.5332  0.4790
  159MOL0     O21338   3.789  10.573   4.696  0.8546 -0.1691 -0.0182
  159MOL0     C21339   3.817  10.664   4.806 -0.2401  0.0984  0.6729
  159MOL0     C21340   3.964  10.642   4.859  0.1865  0.2720 -0.5624
  159MOL0     C21341   3.983  10.711   4.998 -0.4940 -0.1045 -1.5373
  159MOL0     C21342   4.118  10.650   5.053  0.0309 -0.6805  0.1189
  159MOL0     C21343   4.239  10.727   5.003  0.0774 -0.5723  0.3181
  159MOL0     C21344   4.366  10.643   5.003  1.4558 -0.7290 -1.3092
  159MOL0     C21345   4.400  10.580   5.141 -0.4532  0.5553  0.2820
  159MOL0     C21346   4.454  10.684   5.235  0.5162  0.3774  0.9049
  159MOL0     N21347   4.587  10.729   5.186 -0.1212 -0.0354  0.0959
  159MOL0     C21348   4.692  10.642   5.166 -0.8447  0.6287  0.0857
  159MOL0     C21349   4.788  10.713   5.101 -0.4326  0.1419 -0.0520
  159MOL0     C21350   4.927  10.671   5.062  0.2446  0.8139 -0.1614
  159MOL0     C21351   5.019  10.682   5.181 -0.6677 -0.2502  0.4428
  159MOL0     C21352   5.162  10.607   5.161  0.2514 -0.3244 -0.1918
  159MOL0     C21353   5.271  10.660   5.251  0.0353  0.6682 -0.8067
  159MOL0     O21354   5.395  10.605   5.209 -0.4390  0.0263 -0.1733
  159MOL0     C21355   5.505  10.690   5.187  0.4123  0.4032 -0.4463
  159MOL0     C21356   5.600  10.636   5.100 -0.3593  0.6034 -0.1375
  159MOL0     C21357   5.729  10.691   5.078 -0.6136  0.1947 -0.4652
  159MOL0     C21358   5.771  10.801   5.152 -0.1753 -0.0349 -0.6200
  159MOL0     C21359   5.907  10.861   5.128  0.4782  0.0319 -0.2534
  159MOL0     O21360   5.935  10.961   5.216  0.0611 -0.1056 -0.3162
  159MOL0     C21361   6.063  11.022   5.219 -0.2860 -0.2360 -0.0553
  159MOL0     C21362   6.118  11.042   5.347  0.2396  0.0515 -0.4454
  159MOL0     C21363   6.248  11.090   5.372  1.0392 -0.0126 -0.3355
  159MOL0     C21364   6.330  11.122   5.260  0.3736  0.1111 -0.3345
  159MOL0     O21365   6.461  11.143   5.288 -0.2438 -0.5749  0.3393
  159MOL0     C21366   6.543  11.033   5.324  0.7929  0.3869 -0.1169
  159MOL0     C21367   6.682  11.052   5.255  0.6415  0.1238 -0.3720
  159MOL0     C21368   6.766  11.162   5.326  0.2485 -0.0876  0.3589
  159MOL0     C21369   6.885  11.196   5.235  0.0963 -0.1125 -0.2313
  159MOL0     C21370   6.966  11.314   5.285 -0.9945  0.2075 -0.2763
  159MOL0     C21371   7.048  11.279   5.414  0.4790 -0.7784 -0.2958
  159MOL0     C21372   7.129  11.395   5.470  0.4687  0.1075  0.4605
  159MOL0     C21373   7.246  11.440   5.386 -0.2634 -0.3904 -0.1555
  159MOL0    Cl21374   7.373  11.321   5.349 -0.2034 -0.0116 -0.0060
  159MOL0     C21375   6.278  11.108   5.133  0.6805  0.2645  0.6733
  159MOL0     C21376   6.142  11.065   5.109 -0.9087 -0.3313 -0.9609
  159MOL0     O21377   5.979  10.826   5.037 -0.1935  0.1604 -0.0850
  159MOL0     C21378   5.674  10.867   5.237  0.3172 -0.0148 -0.2641
  159MOL0     C21379   5.545  10.807   5.256 -0.1664  0.0753 -0.4572
  159MOL0     N21380   4.735  10.837   5.079 -0.2661 -0.2388  0.0858
  159MOL0     N21381   4.623  10.851   5.146  0.2347 -0.5298  0.2614
  159MOL0     C21382   3.560  10.652   4.688  1.1714 -0.1763  0.5006
  159MOL0     C21383   3.428  10.646   4.625  0.0499  0.5295 -0.5621
  159MOL0     C21384   3.127  10.591   4.272  0.3368 -0.3799 -0.1429
  159MOL0     C21385   3.078  10.464   4.280 -0.2278 -0.1202  0.4100
  159MOL0     C21386   2.960  10.431   4.212  0.0510 -0.3919  0.2624
  159MOL0     C21387   2.886  10.526   4.132  0.4581  0.6296 -0.7900
  159MOL0     O21388   2.774  10.487   4.065  0.1154 -0.0435 -0.2796
  159MOL0     C21389   2.705  10.577   3.967 -0.7523  0.4249 -0.6559
  159MOL0     C21390   2.780  10.585   3.827  0.7672 -0.2667 -0.4424
  159MOL0     C21391   2.769  10.449   3.749 -0.7410  0.1666 -0.4056
  159MOL0     C21392   2.643  10.384   3.762  0.1519 -0.8116 -0.7286
  159MOL0     C21393   2.635  10.268   3.685 -0.2793  0.2892 -0.5401
  159MOL0     C21394   2.643  10.159   3.630  0.1726  0.2472  1.4022
  159MOL0     C21395   2.935  10.656   4.134  1.0779 -1.1167  0.2052
  159MOL0     C21396   3.056  10.694   4.206  0.7258 -0.5364  0.6135
  159MOL0     C21397   3.094  10.840   4.207  0.0050  0.2452  0.1965
  159MOL0     H21398   3.477  10.402   4.406 -0.3179 -1.2240  0.5516
  159MOL0     H21399   3.714  10.414   4.508  1.0091  1.3360  3.2698
  159MOL0     H21400   3.792  10.762   4.765  0.6108  0.8587  1.8706
  159MOL0     H21401   3.749  10.636   4.887  1.6061 -4.0952  1.0353
  159MOL0     H21402   4.033  10.667   4.778 -0.4393  1.7509 -0.6645
  159MOL0     H21403   3.984  10.535   4.869  2.2577  0.5186 -1.4813
  159MOL0     H21404   3.901  10.691   5.068  0.9728 -2.5143 -0.3696
  159MOL0     H21405   3.997  10.819   4.990 -0.0754 -0.0054  0.1592
  159MOL0     H21406   4.095  10.645   5.160 -1.9846 -0.5841 -0.2619
  159MOL0     H21407   4.126  10.544   5.026 -1.4272 -1.1822  1.4412
  159MOL0     H21408   4.225  10.758   4.899  1.7054 -0.5076  0.0892
  159MOL0     H21409   4.239  10.815   5.068 -0.3155 -0.8484  0.6951
  159MOL0     H21410   4.357  10.563   4.929  0.5583 -3.6896  1.7736
  159MOL0     H21411   4.453  10.699   4.967  1.0447  0.7884 -0.0569
  159MOL0     H21412   4.468  10.496   5.125 -3.1379 -1.4061 -1.9905
  159MOL0     H21413   4.307  10.541   5.184 -1.2318  1.1739 -0.8030
  159MOL0     H21414   4.399  10.778   5.242  1.2766  0.7865  1.5518
  159MOL0     H21415   4.463  10.645   5.337 -0.8654  0.8901  1.2463
  159MOL0     H21416   4.716  10.542   5.200 -0.1188  0.7422 -0.0681
  159MOL0     H21417   4.930  10.567   5.028  1.4127 -0.6230  3.7927
  159MOL0     H21418   4.955  10.726   4.971  0.4404  1.3025  0.1922
  159MOL0     H21419   5.034  10.790   5.179 -0.3480 -0.2977 -1.3206
  159MOL0     H21420   4.970  10.652   5.274  2.1389 -0.4280  1.9706
  159MOL0     H21421   5.196  10.601   5.057 -0.6924 -3.5360 -0.4405
  159MOL0     H21422   5.154  10.502   5.191  0.6816 -0.5321 -0.7740
  159MOL0     H21423   5.247  10.622   5.351 -0.4948 -0.9108 -1.5202
  159MOL0     H21424   5.270  10.770   5.251  1.3493  0.7218  0.3485
  159MOL0     H21425   5.574  10.546   5.044 -1.0642  0.6206  0.1530
  159MOL0     H21426   5.802  10.646   5.011  1.7625  0.5666  1.7272
  159MOL0     H21427   6.059  11.002   5.428  0.6242 -3.1675 -1.5880
  159MOL0     H21428   6.292  11.092   5.471  4.7340 -0.1215 -1.7867
  159MOL0     H21429   6.551  11.021   5.432 -3.4777  0.6688  0.4075
  159MOL0     H21430   6.500  10.947   5.272 -0.1204  0.7387  0.0350
  159MOL0     H21431   6.732  10.955   5.257  0.3760 -0.0002  0.7070
  159MOL0     H21432   6.662  11.075   5.150  1.5706 -0.2908 -0.6480
  159MOL0     H21433   6.707  11.252   5.341  0.9055  0.1805  1.4177
  159MOL0     H21434   6.801  11.122   5.422 -1.5947 -3.0851 -0.0933
  159MOL0     H21435   6.844  11.220   5.137 -0.3478  0.9018  0.1814
  159MOL0     H21436   6.955  11.112   5.229  2.5303  1.6984  0.8179
  159MOL0     H21437   6.902  11.401   5.304  0.0073  1.1859 -1.2633
  159MOL0     H21438   7.039  11.345   5.210  0.5210  2.2712  1.8776
  159MOL0     H21439   6.977  11.241   5.487  0.1905 -0.2141 -0.2868
  159MOL0     H21440   7.114  11.196   5.387 -0.4113 -2.5848  2.6375
  159MOL0     H21441   7.161  11.377   5.573  1.0909  0.6679  0.3679
  159MOL0     H21442   7.067  11.484   5.480  1.6307  1.1195 -0.9250
  159MOL0     H21443   7.218  11.496   5.296  0.3950  1.0125  0.4997
  159MOL0     H21444   7.304  11.502   5.454 -0.4632  0.6199 -0.8885
  159MOL0     H21445   6.349  11.121   5.051  2.8449 -3.0869  1.8149
  159MOL0     H21446   6.091  11.061   5.012 -3.5776  1.4986  0.2382
  159MOL0     H21447   5.691  10.968   5.272  2.8709 -0.4001 -0.2562
  159MOL0     H21448   5.470  10.856   5.317 -1.2873  1.5754 -2.8923
  159MOL0     H21449   3.574  10.724   4.768  3.3231  1.3357 -1.1308
  159MOL0     H21450   3.353  10.711   4.668  1.3966  1.2646  0.7912
  159MOL0     H21451   3.129  10.387   4.336  1.0829 -2.1021 -3.1767
  159MOL0     H21452   2.930  10.326   4.215 -0.0946 -0.3407  2.8874
  159MOL0     H21453   2.709  10.680   4.004 -0.3763  0.2558 -0.2228
  159MOL0     H21454   2.598  10.555   3.961 -0.8006 -1.2333  3.5310
  159MOL0     H21455   2.886  10.613   3.839  0.0151  2.7287  0.1628
  159MOL0     H21456   2.735  10.669   3.773 -1.6011  0.1528  1.9703
  159MOL0     H21457   2.852  10.385   3.777 -0.1615  1.7913  1.8906
  159MOL0     H21458   2.781  10.489   3.647 -0.4996  1.0501 -0.0441
  159MOL0     H21459   2.624  10.367   3.869  2.5665 -0.8732 -0.2689
  159MOL0     H21460   2.564  10.455   3.734  0.3030 -0.8393 -1.2275
  159MOL0     H21461   2.635  10.067   3.576  3.4893 -1.0331  2.7894
  159MOL0     H21462   2.885  10.738   4.084  1.4170 -0.4510  0.9387
  159MOL0     H21463   3.198  10.858   4.176 -0.0785 -1.2331 -1.0756
  159MOL0     H21464   3.034  10.897   4.136 -0.0997  0.3294  0.3531
  159MOL0     H21465   3.092  10.896   4.300 -2.2317  0.3795  0.1180
  160MOL0     O21466   7.369   5.212   3.229  0.0097  0.4893 -0.2899
  160MOL0     C21467   7.424   5.186   3.334  0.3804 -0.0286  0.2930
  160MOL0     O21468   7.560   5.203   3.368  0.2680  0.0520 -0.1649
  160MOL0     C21469   7.653   5.287   3.316  0.6711  0.7743  0.4581
  160MOL0     C21470   7.783   5.296   3.359 -0.3154 -0.5162  0.4598
  160MOL0     C21471   7.873   5.390   3.300  0.1858 -0.3928  0.0092
  160MOL0     C21472   7.836   5.490   3.211  0.7727 -0.0755  0.1728
  160MOL0     O21473   7.916   5.592   3.168  0.2234  0.6965  0.1502
  160MOL0     C21474   7.975   5.673   3.273  0.0397 -0.7522 -0.2242
  160MOL0     C21475   8.122   5.724   3.240 -0.2430 -0.6696 -0.2443
  160MOL0     C21476   8.196   5.794   3.362 -0.7243  0.9958 -0.2809
  160MOL0     C21477   8.339   5.818   3.326  0.3396 -0.3478  0.1464
  160MOL0     C21478   8.410   5.917   3.425  0.2085  0.1981 -0.1841
  160MOL0     C21479   8.536   5.987   3.377 -0.5962  0.4420  0.7912
  160MOL0     C21480   8.657   5.891   3.380 -0.5098 -0.4304  0.2028
  160MOL0     C21481   8.709   5.849   3.522  0.3802  0.7757  0.0514
  160MOL0     N21482   8.752   5.968   3.599  0.0790 -0.7301  0.3402
  160MOL0     C21483   8.836   6.061   3.542  0.7388 -0.7411 -0.3968
  160MOL0     C21484   8.875   6.141   3.648 -0.6911 -0.4895 -0.1673
  160MOL0     C21485   8.974   6.255   3.665 -0.4044 -0.0774 -0.1559
  160MOL0     C21486   9.106   6.207   3.727  0.1065 -0.6057 -0.0006
  160MOL0     C21487   9.181   6.099   3.639 -0.2562  0.0984 -0.8854
  160MOL0     C21488   9.323   6.072   3.668 -0.4627 -0.0586  0.4612
  160MOL0     O21489   9.400   6.193   3.688  0.1737 -0.9478  0.0568
  160MOL0     C21490   9.532   6.194   3.691 -0.5195 -0.4126 -0.5155
  160MOL0     C21491   9.606   6.096   3.743  0.4509 -0.5653  0.2771
  160MOL0     C21492   9.744   6.079   3.732  0.2125  0.2242  0.1033
  160MOL0     C21493   9.815   6.170   3.659 -0.7183 -0.5899  0.0832
  160MOL0     C21494   9.955   6.156   3.635 -1.1028  0.2706  0.0623
  160MOL0     O21495  10.033   6.058   3.694  0.4288  0.4203  0.2810
  160MOL0     C21496  10.169   6.080   3.708  0.3711  0.2820 -0.4139
  160MOL0     C21497  10.249   6.140   3.610 -0.6388  0.0377  0.1948
  160MOL0     C21498  10.382   6.174   3.638 -0.4507 -0.1655  1.1673
  160MOL0     C21499  10.435   6.151   3.768  0.2974  0.4237  0.9870
  160MOL0     O21500  10.561   6.186   3.809  0.3394 -0.6862 -0.1415
  160MOL0     C21501  10.657   6.180   3.701  0.5053 -0.1273 -0.0427
  160MOL0     C21502  10.795   6.144   3.750 -0.4035  0.6894 -0.9868
  160MOL0     C21503  10.851   6.243   3.853 -0.3366 -0.2444  0.4556
  160MOL0     C21504  11.009   6.215   3.879  1.3915  0.7419 -0.7853
  160MOL0     C21505  11.058   6.301   4.000  0.1688  0.5108  0.0940
  160MOL0     C21506  11.192   6.235   4.039  0.1414 -0.0608  0.4876
  160MOL0     C21507  11.254   6.315   4.160  0.5513  0.1096  0.3129
  160MOL0     C21508  11.403   6.303   4.167 -0.0079 -0.1482  0.0810
  160MOL0    Cl21509  11.459   6.447   4.258  0.4415 -0.0604 -0.0888
  160MOL0     C21510  10.343   6.091   3.857 -0.0420 -0.2454  0.5844
  160MOL0     C21511  10.211   6.060   3.836  0.3118  1.1560  0.3248
  160MOL0     O21512   9.993   6.252   3.568  0.5886  0.0396  0.0593
  160MOL0     C21513   9.739   6.277   3.599 -0.2706 -0.2064  0.3835
  160MOL0     C21514   9.602   6.301   3.624  0.0281  0.4138  0.3977
  160MOL0     N21515   8.809   6.090   3.764  1.2117 -0.4970  0.4177
  160MOL0     N21516   8.737   5.984   3.728  0.7495  0.0198  0.6594
  160MOL0     C21517   7.705   5.474   3.162  0.9597  0.3940  0.1550
  160MOL0     C21518   7.614   5.378   3.217 -0.1224 -0.1017  0.1040
  160MOL0     C21519   7.349   5.087   3.421  0.0972 -0.5018 -0.2117
  160MOL0     C21520   7.418   5.012   3.518 -0.0352 -0.2022  0.0892
  160MOL0     C21521   7.353   4.920   3.598  0.1258 -0.1666 -0.2278
  160MOL0     C21522   7.225   4.891   3.586  0.6438  0.7879  0.3332
  160MOL0     O21523   7.180   4.790   3.667 -0.0291  0.6890  0.8214
  160MOL0     C21524   7.041   4.756   3.671  0.3132 -1.1022 -0.0194
  160MOL0     C21525   7.001   4.644   3.765  0.0532 -0.2193  0.1066
  160MOL0     C21526   7.045   4.683   3.913  0.2322 -0.2845 -0.2212
  160MOL0     C21527   6.942   4.640   4.021 -1.3441 -0.0132  0.7180
  160MOL0     C21528   6.799   4.679   3.996 -0.5138 -0.3170  0.2795
  160MOL0     C21529   6.686   4.703   3.965  0.1080 -0.7119  0.2447
  160MOL0     C21530   7.146   4.962   3.497  0.4679 -0.2774 -0.8073
  160MOL0     C21531   7.206   5.069   3.418 -0.5116  0.1878 -0.7528
  160MOL0     C21532   7.115   5.146   3.324  0.0346  0.5165  0.5152
  160MOL0     H21533   7.824   5.226   3.432  0.7070 -1.0885 -0.6281
  160MOL0     H21534   7.977   5.383   3.328  0.0347 -2.1651  0.2262
  160MOL0     H21535   7.903   5.755   3.286  0.1448 -0.3728 -1.8023
  160MOL0     H21536   7.986   5.617   3.365 -0.7141 -0.4128  0.0784
  160MOL0     H21537   8.128   5.798   3.159 -0.8619  0.7811  0.9846
  160MOL0     H21538   8.182   5.640   3.204 -2.1736 -3.3820  2.4634
  160MOL0     H21539   8.200   5.721   3.444  1.7749 -0.0355 -1.2158
  160MOL0     H21540   8.148   5.882   3.405  0.1130  0.1744  2.5988
  160MOL0     H21541   8.388   5.722   3.306  0.0667  0.0603 -2.9949
  160MOL0     H21542   8.322   5.869   3.231 -0.5436 -2.3738 -0.8613
  160MOL0     H21543   8.344   6.000   3.450  0.9367  0.7817 -0.1794
  160MOL0     H21544   8.438   5.866   3.518  0.7723  1.8293  0.5662
  160MOL0     H21545   8.527   6.010   3.270 -1.1765 -0.7767  0.5602
  160MOL0     H21546   8.551   6.075   3.440 -0.4305  1.3598 -0.4832
  160MOL0     H21547   8.739   5.944   3.330 -0.8520  1.8310  1.8890
  160MOL0     H21548   8.636   5.799   3.323  0.6097 -0.2160 -0.6066
  160MOL0     H21549   8.621   5.809   3.574  0.2627  2.2043  0.9837
  160MOL0     H21550   8.791   5.776   3.517  0.9602  0.7740  4.8727
  160MOL0     H21551   8.884   6.067   3.445 -1.9395  1.8687 -1.7237
  160MOL0     H21552   9.003   6.292   3.566  1.0157 -1.2484 -0.2247
  160MOL0     H21553   8.932   6.331   3.732 -1.0181 -0.3355 -0.2454
  160MOL0     H21554   9.171   6.290   3.756  1.9544 -2.2651  0.8064
  160MOL0     H21555   9.081   6.151   3.818 -0.9702  1.3320  0.9531
  160MOL0     H21556   9.168   6.146   3.541 -1.7078 -0.5729 -1.0446
  160MOL0     H21557   9.126   6.006   3.652  0.4696 -0.0387  1.8005
  160MOL0     H21558   9.369   6.017   3.586 -2.8503  2.4253 -2.8089
  160MOL0     H21559   9.336   6.003   3.752  1.5260 -2.0012 -1.3490
  160MOL0     H21560   9.549   6.022   3.798  0.9744 -2.0636 -1.1004
  160MOL0     H21561   9.802   5.998   3.775  0.8327  0.4469 -0.2989
  160MOL0     H21562  10.202   6.164   3.515  1.0144  0.6036 -0.5289
  160MOL0     H21563  10.434   6.216   3.553 -1.0733 -3.8946 -1.3190
  160MOL0     H21564  10.633   6.104   3.626  0.4275 -1.0995  0.9484
  160MOL0     H21565  10.651   6.278   3.652 -4.6893 -0.6267 -0.9921
  160MOL0     H21566  10.798   6.042   3.789  0.1208  0.8255 -0.6596
  160MOL0     H21567  10.872   6.133   3.674  3.4769 -0.9466  2.7709
  160MOL0     H21568  10.836   6.345   3.815  3.7220 -0.4909 -2.5093
  160MOL0     H21569  10.800   6.236   3.949  0.9560 -0.9669  1.1144
  160MOL0     H21570  11.065   6.219   3.785 -0.5612 -0.8572 -2.1070
  160MOL0     H21571  11.022   6.109   3.902  1.4688  0.4759 -1.9815
  160MOL0     H21572  10.989   6.316   4.083 -1.2891 -0.9993 -0.7818
  160MOL0     H21573  11.072   6.403   3.965  2.8778  0.3221  0.4330
  160MOL0     H21574  11.189   6.127   4.058 -0.0783 -0.2618 -0.6365
  160MOL0     H21575  11.254   6.239   3.949 -1.3885  0.7227 -0.5808
  160MOL0     H21576  11.216   6.279   4.256 -1.5721  2.5112  0.4792
  160MOL0     H21577  11.237   6.423   4.158  2.5615  0.5143  1.9428
  160MOL0     H21578  11.435   6.212   4.219 -0.8903 -0.3144  0.3569
  160MOL0     H21579  11.448   6.299   4.067  1.0422 -0.4779  0.5583
  160MOL0     H21580  10.392   6.082   3.953  0.7753 -0.1099  0.1837
  160MOL0     H21581  10.157   5.998   3.907  1.4490  0.2005  0.3851
  160MOL0     H21582   9.803   6.343   3.541 -0.5321  0.8480  1.2502
  160MOL0     H21583   9.551   6.383   3.576 -2.6412 -1.1042  0.4724
  160MOL0     H21584   7.657   5.550   3.101 -0.1980 -1.7480 -1.7917
  160MOL0     H21585   7.514   5.386   3.176  0.7584  5.0547 -1.7709
  160MOL0     H21586   7.524   5.018   3.537 -0.1384 -1.5803  1.2808
  160MOL0     H21587   7.416   4.869   3.670 -0.3240 -0.3589  0.0387
  160MOL0     H21588   7.014   4.709   3.576  1.8501 -2.8371  0.3390
  160MOL0     H21589   6.981   4.845   3.693  1.2999 -1.2715  4.3077
  160MOL0     H21590   7.045   4.548   3.738 -2.8036 -0.9559 -2.5616
  160MOL0     H21591   6.893   4.627   3.755 -0.3885  2.5970 -0.7842
  160MOL0     H21592   7.063   4.791   3.922 -1.4959 -0.1464  2.3724
  160MOL0     H21593   7.139   4.627   3.924  0.9159  0.8531 -0.1357
  160MOL0     H21594   6.948   4.531   4.029  2.4472  0.0920  1.1041
  160MOL0     H21595   6.978   4.675   4.119 -0.2864  0.8167  0.0559
  160MOL0     H21596   6.587   4.713   3.924  0.1874 -0.9855 -0.0180
  160MOL0     H21597   7.041   4.941   3.484  0.1134 -0.7996  2.0832
  160MOL0     H21598   7.133   5.254   3.327  2.0839  0.3305 -2.1652
  160MOL0     H21599   7.130   5.111   3.222 -0.4700  1.8927 -0.0438
  160MOL0     H21600   7.011   5.124   3.352  0.8098 -1.2375  2.2711
  161MOL0     O21601   8.443   1.565   6.287  0.0156  0.5618  0.0317
  161MOL0     C21602   8.379   1.502   6.196  0.4878  0.0083 -0.2564
  161MOL0     O21603   8.444   1.440   6.091 -0.0318  0.5878 -0.5026
  161MOL0     C21604   8.552   1.488   6.032 -0.6472 -1.1088 -0.2677
  161MOL0     C21605   8.657   1.399   6.005  0.6156 -0.4021 -0.2985
  161MOL0     C21606   8.766   1.451   5.943 -0.2155  0.3682 -0.7609
  161MOL0     C21607   8.775   1.589   5.913 -0.1784 -0.6463 -0.4561
  161MOL0     O21608   8.896   1.629   5.856  0.1533  0.1785 -0.2554
  161MOL0     C21609   8.900   1.707   5.743 -0.4315 -0.1445  0.5728
  161MOL0     C21610   8.967   1.633   5.631 -0.4607  0.5781 -0.3828
  161MOL0     C21611   9.120   1.613   5.664  0.6672 -0.6588 -0.0231
  161MOL0     C21612   9.180   1.505   5.566 -0.4658  0.5346  0.3338
  161MOL0     C21613   9.333   1.461   5.591  1.0346 -0.5568 -0.1913
  161MOL0     C21614   9.375   1.370   5.479 -0.3192  0.2396  0.0138
  161MOL0     C21615   9.528   1.371   5.472 -0.4186  0.6229  0.4995
  161MOL0     C21616   9.577   1.295   5.346 -0.2969 -0.8374  0.2218
  161MOL0     N21617   9.722   1.307   5.330  0.3734  0.2959  0.1207
  161MOL0     C21618   9.823   1.254   5.405  0.5008  0.7725 -0.3481
  161MOL0     C21619   9.934   1.303   5.349 -0.0561  0.5919  0.9574
  161MOL0     C21620  10.084   1.279   5.390 -0.6336  0.4686  0.4012
  161MOL0     C21621  10.181   1.234   5.271  0.7194 -0.3143  0.1324
  161MOL0     C21622  10.329   1.256   5.318  0.5623  1.2268 -0.0371
  161MOL0     C21623  10.425   1.233   5.208 -0.0049  0.1464  0.7574
  161MOL0     O21624  10.556   1.286   5.261  0.3477  0.0335  0.5564
  161MOL0     C21625  10.657   1.295   5.167 -0.0167 -0.8001  0.3197
  161MOL0     C21626  10.652   1.308   5.028  0.3929  0.2398  0.0191
  161MOL0     C21627  10.776   1.319   4.951 -0.0618 -0.3775 -0.3238
  161MOL0     C21628  10.898   1.330   5.020 -0.3507 -0.1714  1.0549
  161MOL0     C21629  11.030   1.362   4.954  0.2205 -0.3475  0.6424
  161MOL0     O21630  11.147   1.326   5.010 -0.1291  0.9990 -0.1309
  161MOL0     C21631  11.265   1.357   4.950 -0.3456 -0.8104 -0.4075
  161MOL0     C21632  11.358   1.258   4.910 -0.8519  0.0385  0.2024
  161MOL0     C21633  11.483   1.302   4.866  0.5956 -0.1497 -0.0268
  161MOL0     C21634  11.522   1.439   4.837  0.0414 -0.4444 -0.9020
  161MOL0     O21635  11.658   1.474   4.833  0.7146  0.0656 -0.7790
  161MOL0     C21636  11.690   1.611   4.869 -0.0348  0.2156  0.4801
  161MOL0     C21637  11.844   1.627   4.867 -0.0891  0.1411 -0.4439
  161MOL0     C21638  11.885   1.631   4.719 -0.0507  0.1941  0.1238
  161MOL0     C21639  12.038   1.635   4.714  0.6022 -0.0333  0.5776
  161MOL0     C21640  12.091   1.639   4.568 -0.3330 -0.1320 -0.3655
  161MOL0     C21641  12.113   1.505   4.501  0.0831  0.0601 -0.5409
  161MOL0     C21642  12.190   1.500   4.375 -0.4171  0.4606 -0.5901
  161MOL0     C21643  12.216   1.359   4.330 -0.1661  0.2322 -0.0647
  161MOL0    Cl21644  12.288   1.361   4.159  0.1118  0.1652  0.2978
  161MOL0     C21645  11.424   1.533   4.873  0.2629 -1.6884 -0.5344
  161MOL0     C21646  11.297   1.486   4.924  0.1213  0.9050 -0.1216
  161MOL0     O21647  11.017   1.409   4.847  0.0068  0.1113 -0.1769
  161MOL0     C21648  10.896   1.322   5.158  0.5105 -0.1048  0.4435
  161MOL0     C21649  10.777   1.312   5.230  0.7753 -0.1302  0.0553
  161MOL0     N21650   9.904   1.392   5.246 -0.6442 -0.7587  0.1872
  161MOL0     N21651   9.779   1.383   5.229  1.0121  0.3083 -0.6205
  161MOL0     C21652   8.678   1.678   5.949  0.4951 -0.6359  0.3142
  161MOL0     C21653   8.563   1.626   6.018 -0.5996  0.2100  0.2127
  161MOL0     C21654   8.236   1.462   6.213  0.6631  0.0398 -0.8351
  161MOL0     C21655   8.180   1.377   6.112 -0.7508 -0.5180  0.2905
  161MOL0     C21656   8.059   1.320   6.133  0.1945  0.3766  0.3190
  161MOL0     C21657   7.979   1.350   6.237 -0.3982  0.4245  0.9526
  161MOL0     O21658   7.857   1.289   6.259  0.3034 -0.3509 -0.3994
  161MOL0     C21659   7.878   1.159   6.324 -1.0738  0.1422 -0.5705
  161MOL0     C21660   7.814   1.153   6.461  0.4946 -0.1678  0.1771
  161MOL0     C21661   7.702   1.251   6.477  0.2822  0.5381  0.3081
  161MOL0     C21662   7.612   1.226   6.597  0.0303  0.8700  0.3334
  161MOL0     C21663   7.546   1.101   6.567  0.7595  0.2055 -0.0294
  161MOL0     C21664   7.460   1.012   6.554  0.6455 -0.5173 -1.0090
  161MOL0     C21665   8.032   1.437   6.330 -0.1338  0.0930  0.1341
  161MOL0     C21666   8.157   1.498   6.327  0.7653 -1.3467  0.7484
  161MOL0     C21667   8.202   1.597   6.433  0.2550  0.2685  0.5714
  161MOL0     H21668   8.648   1.291   6.019 -0.6183 -0.4878 -1.5411
  161MOL0     H21669   8.849   1.389   5.909 -1.4860 -0.3811 -2.6627
  161MOL0     H21670   8.794   1.727   5.722 -1.0319 -0.7711  2.7924
  161MOL0     H21671   8.966   1.795   5.747 -0.6626  0.1232 -0.8575
  161MOL0     H21672   8.951   1.674   5.531 -0.9130 -1.8565 -1.3850
  161MOL0     H21673   8.933   1.529   5.626  0.0304  0.1779  2.7178
  161MOL0     H21674   9.132   1.588   5.770  0.3141  0.6949  0.3637
  161MOL0     H21675   9.163   1.712   5.644 -0.7481  0.3953  1.7666
  161MOL0     H21676   9.123   1.413   5.582  2.1168 -1.3731 -0.8427
  161MOL0     H21677   9.151   1.534   5.465 -1.0327  1.6735  0.7975
  161MOL0     H21678   9.402   1.546   5.599 -0.5445  0.6415  1.3631
  161MOL0     H21679   9.342   1.420   5.692 -0.8774  2.4187  1.3602
  161MOL0     H21680   9.330   1.270   5.485  1.7078 -0.8197 -1.5098
  161MOL0     H21681   9.340   1.425   5.391 -0.6962  0.4605  0.2984
  161MOL0     H21682   9.562   1.326   5.566  0.3038  1.4733  0.6606
  161MOL0     H21683   9.563   1.474   5.466  1.6716 -0.0816 -0.2081
  161MOL0     H21684   9.540   1.193   5.358  1.3199 -1.2044  2.7194
  161MOL0     H21685   9.534   1.328   5.250 -2.1248 -3.1110  0.1617
  161MOL0     H21686   9.828   1.208   5.503  1.0354  2.0453  0.2444
  161MOL0     H21687  10.135   1.369   5.425  0.5619  0.8211 -1.9884
  161MOL0     H21688  10.085   1.200   5.465  1.3713 -0.4220 -0.4851
  161MOL0     H21689  10.159   1.135   5.231  0.1551 -0.0674 -0.1813
  161MOL0     H21690  10.176   1.301   5.184  0.1002  1.2777  1.3410
  161MOL0     H21691  10.351   1.182   5.395 -0.5759  2.3942  1.4636
  161MOL0     H21692  10.338   1.358   5.356 -4.0981  0.8611  2.9049
  161MOL0     H21693  10.389   1.284   5.118  0.3434 -1.3841 -0.2939
  161MOL0     H21694  10.437   1.126   5.185 -0.0018  0.7810 -2.7697
  161MOL0     H21695  10.551   1.315   4.989  0.0898 -0.1977  0.7041
  161MOL0     H21696  10.765   1.336   4.845 -1.9130  1.0686  0.0422
  161MOL0     H21697  11.353   1.150   4.921  0.4100 -0.1076 -0.4637
  161MOL0     H21698  11.549   1.216   4.862 -0.6520 -1.1530 -0.0646
  161MOL0     H21699  11.655   1.681   4.793  1.8940  1.9251  1.0855
  161MOL0     H21700  11.646   1.638   4.966 -1.7385  1.7972 -0.6878
  161MOL0     H21701  11.873   1.711   4.931 -0.6758 -0.3576  0.4983
  161MOL0     H21702  11.892   1.535   4.902 -1.1577 -0.0763  0.5160
  161MOL0     H21703  11.851   1.547   4.658  2.8444 -1.0805  0.1221
  161MOL0     H21704  11.847   1.727   4.681  0.7632 -0.5555 -2.8028
  161MOL0     H21705  12.087   1.555   4.770  0.9121  0.1034  0.5032
  161MOL0     H21706  12.062   1.729   4.765 -1.2506  0.1507  1.2030
  161MOL0     H21707  12.190   1.685   4.564 -0.5639  0.2981 -2.4113
  161MOL0     H21708  12.031   1.698   4.497  0.9961  0.1245 -1.3220
  161MOL0     H21709  12.173   1.444   4.570 -2.7948  1.3085  3.4134
  161MOL0     H21710  12.014   1.467   4.476 -1.1094  1.8844  1.0489
  161MOL0     H21711  12.284   1.556   4.378  0.2657 -0.6323  1.8117
  161MOL0     H21712  12.125   1.553   4.306 -0.9747  0.3832 -0.1343
  161MOL0     H21713  12.295   1.312   4.390  0.1164  2.8877  1.8097
  161MOL0     H21714  12.132   1.288   4.328 -0.2583  0.3487 -0.3645
  161MOL0     H21715  11.444   1.639   4.872  3.7262 -2.1574  1.2538
  161MOL0     H21716  11.218   1.551   4.959  0.0208  0.4422  0.5208
  161MOL0     H21717  10.996   1.314   5.201  1.1432  0.5983 -0.8190
  161MOL0     H21718  10.766   1.303   5.337 -5.0127  2.3550  0.0605
  161MOL0     H21719   8.682   1.786   5.946 -1.1028 -0.5640 -0.6761
  161MOL0     H21720   8.483   1.696   6.037 -1.4909 -1.0001  1.0559
  161MOL0     H21721   8.242   1.343   6.030 -2.0947 -2.4443 -0.0001
  161MOL0     H21722   8.020   1.261   6.050  2.5968  0.0839 -0.6812
  161MOL0     H21723   7.985   1.137   6.323 -0.6542  1.9453 -2.2598
  161MOL0     H21724   7.825   1.088   6.259 -3.7938  1.2560  0.2639
  161MOL0     H21725   7.878   1.174   6.547 -1.6480  1.2602  1.5092
  161MOL0     H21726   7.782   1.049   6.470  2.2478 -0.6886  0.9248
  161MOL0     H21727   7.643   1.254   6.385  4.9569  1.9833 -3.0577
  161MOL0     H21728   7.752   1.348   6.486  3.3768 -1.0660  1.8079
  161MOL0     H21729   7.663   1.198   6.689  1.7247 -3.2119 -1.6202
  161MOL0     H21730   7.540   1.308   6.608 -0.0191  0.8157  0.4191
  161MOL0     H21731   7.393   0.935   6.524  1.3871 -1.5026 -0.1973
  161MOL0     H21732   7.978   1.441   6.425  0.3807 -0.5597  0.4621
  161MOL0     H21733   8.258   1.681   6.393 -0.5916  0.3648 -0.4582
  161MOL0     H21734   8.113   1.638   6.483  0.7746  2.2287 -0.0239
  161MOL0     H21735   8.255   1.535   6.506 -2.3778  0.0750  2.4666
  162MOL0     O21736   5.914   8.496   7.091  0.3166  0.7341  0.1365
  162MOL0     C21737   5.976   8.469   7.193 -0.0950 -0.0154 -0.7877
  162MOL0     O21738   5.928   8.476   7.321  0.1422 -0.3590 -0.6288
  162MOL0     C21739   5.791   8.486   7.341 -0.6420  0.1919  0.7620
  162MOL0     C21740   5.739   8.588   7.418  1.1689 -0.2006 -0.0343
  162MOL0     C21741   5.594   8.593   7.433  0.2908 -0.2157  0.1847
  162MOL0     C21742   5.506   8.505   7.373  0.3176  0.2955  1.0129
  162MOL0     O21743   5.375   8.518   7.412 -0.4532 -0.3161 -0.7598
  162MOL0     C21744   5.290   8.402   7.400 -0.2366 -0.2758  0.3396
  162MOL0     C21745   5.141   8.413   7.442  0.0066 -0.3054  0.5667
  162MOL0     C21746   5.066   8.276   7.425  0.1035  0.1750 -0.0000
  162MOL0     C21747   5.091   8.178   7.550 -0.5269  0.3522  0.2078
  162MOL0     C21748   5.056   8.034   7.512  0.5411  0.2471 -0.7519
  162MOL0     C21749   5.102   7.951   7.634  0.2699 -0.0663 -0.5551
  162MOL0     C21750   5.038   7.808   7.617 -0.5577 -0.0076 -0.1848
  162MOL0     C21751   4.902   7.787   7.683  0.4746  0.4114  0.5777
  162MOL0     N21752   4.894   7.666   7.768  0.0991  0.1596  0.2809
  162MOL0     C21753   4.923   7.543   7.718 -0.8378 -0.4760 -0.5878
  162MOL0     C21754   4.928   7.466   7.830 -0.5512  0.2480  0.1263
  162MOL0     C21755   4.963   7.322   7.832  0.4417 -0.8453 -0.3658
  162MOL0     C21756   5.078   7.296   7.936  0.3132  0.1561 -0.4029
  162MOL0     C21757   5.210   7.371   7.902  0.6722 -0.1176  0.1884
  162MOL0     C21758   5.329   7.319   7.993 -0.1231 -0.0747  0.2804
  162MOL0     O21759   5.342   7.406   8.110 -0.4289  0.0750  0.0803
  162MOL0     C21760   5.465   7.400   8.175  0.1925  0.1354  0.4288
  162MOL0     C21761   5.473   7.484   8.286 -0.8988  0.7824  0.0114
  162MOL0     C21762   5.592   7.508   8.352 -0.0751 -0.3774  0.7134
  162MOL0     C21763   5.710   7.429   8.315  0.4075 -0.7109  0.6925
  162MOL0     C21764   5.846   7.449   8.378 -0.3590  0.0593  0.2471
  162MOL0     O21765   5.848   7.539   8.486 -0.1789  0.3919 -0.1036
  162MOL0     C21766   5.970   7.565   8.541 -0.5527  0.2052 -0.4505
  162MOL0     C21767   5.980   7.581   8.679 -0.9743 -0.0415  0.1006
  162MOL0     C21768   6.096   7.613   8.744  0.5550  0.0221 -0.2694
  162MOL0     C21769   6.213   7.643   8.672 -0.0075 -0.4642 -0.1398
  162MOL0     O21770   6.335   7.676   8.733  0.3249  0.0796 -0.2108
  162MOL0     C21771   6.360   7.613   8.857  0.6335 -0.0717 -0.2898
  162MOL0     C21772   6.510   7.610   8.882 -0.3108  0.0889  0.6126
  162MOL0     C21773   6.585   7.572   8.753  1.1311  0.1657  0.3916
  162MOL0     C21774   6.713   7.486   8.783  0.0274  0.8376  0.0962
  162MOL0     C21775   6.823   7.562   8.861  0.2785 -0.8597 -0.4245
  162MOL0     C21776   6.946   7.477   8.875  0.1448  0.6701  0.2296
  162MOL0     C21777   7.049   7.538   8.979  0.8779  0.2150  0.0615
  162MOL0     C21778   7.032   7.495   9.119 -0.4251  0.5412  0.2673
  162MOL0    Cl21779   7.176   7.559   9.212  0.2575  0.2461 -0.0711
  162MOL0     C21780   6.206   7.634   8.532  0.2688 -0.4638  0.4010
  162MOL0     C21781   6.085   7.600   8.468 -0.1455 -0.5942  0.1946
  162MOL0     O21782   5.941   7.385   8.335  0.3860 -0.5804 -0.1522
  162MOL0     C21783   5.691   7.337   8.209  0.3808  0.0944  0.3120
  162MOL0     C21784   5.572   7.317   8.141 -0.3661 -0.4184  0.5512
  162MOL0     N21785   4.897   7.543   7.937 -0.5497 -0.2986 -0.3116
  162MOL0     N21786   4.883   7.667   7.907 -0.1887  0.4749  0.3282
  162MOL0     C21787   5.562   8.403   7.298 -0.2588  0.0517 -0.0342
  162MOL0     C21788   5.700   8.393   7.284 -0.4240  0.3699 -0.0762
  162MOL0     C21789   6.121   8.430   7.182 -0.5516  0.1870  0.0821
  162MOL0     C21790   6.157   8.299   7.219  0.5624 -0.3519  0.7081
  162MOL0     C21791   6.290   8.251   7.222  0.5398  0.5431  0.3051
  162MOL0     C21792   6.396   8.335   7.192 -0.1514  0.0914 -0.2639
  162MOL0     O21793   6.534   8.314   7.200 -0.1843  0.2822 -0.7804
  162MOL0     C21794   6.573   8.182   7.244  0.2534 -0.7332  0.2783
  162MOL0     C21795   6.718   8.190   7.275  0.0694 -0.0070  0.3855
  162MOL0     C21796   6.747   8.126   7.409 -0.5994  0.0575 -0.0855
  162MOL0     C21797   6.891   8.133   7.441  0.2853  0.0107  0.8348
  162MOL0     C21798   6.982   8.059   7.346  0.7782 -0.2109 -0.0059
  162MOL0     C21799   7.051   7.995   7.265 -0.3718 -0.0300 -0.6701
  162MOL0     C21800   6.362   8.466   7.156 -0.3790  0.2333  0.7560
  162MOL0     C21801   6.226   8.517   7.154 -0.1408  0.4733  0.0975
  162MOL0     C21802   6.203   8.659   7.121  0.1813 -0.2291  0.2345
  162MOL0     H21803   5.805   8.654   7.472  0.0949 -0.4481  1.6587
  162MOL0     H21804   5.562   8.676   7.496  1.6100 -1.1792  2.2321
  162MOL0     H21805   5.282   8.382   7.293  1.0676 -1.8576  0.4812
  162MOL0     H21806   5.340   8.316   7.445  0.3880  0.0792  0.3366
  162MOL0     H21807   5.085   8.475   7.371  0.0238 -0.4888  0.3904
  162MOL0     H21808   5.127   8.456   7.541 -1.2629 -0.2149  0.3576
  162MOL0     H21809   5.089   8.226   7.331 -0.4444 -1.2070  0.5659
  162MOL0     H21810   4.960   8.295   7.407  0.5852  2.1765 -0.9608
  162MOL0     H21811   5.193   8.193   7.585  0.2472  0.0456 -1.7690
  162MOL0     H21812   5.024   8.202   7.633 -3.9631 -0.3236 -2.1351
  162MOL0     H21813   4.948   8.018   7.503  0.1146  2.4450 -0.1643
  162MOL0     H21814   5.110   7.995   7.426 -1.2615 -1.5335 -1.1664
  162MOL0     H21815   5.210   7.933   7.631  0.0630 -1.7130  0.4574
  162MOL0     H21816   5.074   7.993   7.731 -0.5650  0.8663 -1.1785
  162MOL0     H21817   5.109   7.741   7.666 -0.8123  1.0505  1.6983
  162MOL0     H21818   5.038   7.777   7.512  2.7786 -0.9430 -0.0224
  162MOL0     H21819   4.870   7.870   7.746 -1.2426 -1.2317  1.9725
  162MOL0     H21820   4.829   7.774   7.602 -0.0988  1.4735  0.9140
  162MOL0     H21821   4.938   7.516   7.614 -1.4419  2.2483 -1.4551
  162MOL0     H21822   4.870   7.277   7.869  0.4206 -1.1056 -0.7313
  162MOL0     H21823   4.993   7.282   7.735  0.1488  0.1009 -0.8686
  162MOL0     H21824   5.046   7.327   8.036  1.2772 -0.9813  0.2873
  162MOL0     H21825   5.101   7.189   7.945 -1.0180 -0.0216  1.3822
  162MOL0     H21826   5.203   7.480   7.905 -0.6888 -0.2154  1.1403
  162MOL0     H21827   5.233   7.345   7.798 -1.2065 -1.1816 -0.0024
  162MOL0     H21828   5.415   7.316   7.926  2.0461 -1.5113  2.9323
  162MOL0     H21829   5.329   7.215   8.028  0.5101 -0.0377  0.3972
  162MOL0     H21830   5.384   7.538   8.316 -4.3503 -2.8373 -2.7102
  162MOL0     H21831   5.587   7.585   8.428  0.4196 -2.1314  2.6186
  162MOL0     H21832   5.893   7.555   8.738 -1.1648 -1.3316 -0.7030
  162MOL0     H21833   6.088   7.595   8.851 -1.3587 -3.8812 -0.8744
  162MOL0     H21834   6.320   7.667   8.943 -1.7607 -0.6651 -0.9322
  162MOL0     H21835   6.330   7.508   8.847  0.8427 -0.0490 -1.2262
  162MOL0     H21836   6.547   7.707   8.917  0.4146  1.2882 -3.0358
  162MOL0     H21837   6.540   7.531   8.951  3.2962 -1.7431 -2.6949
  162MOL0     H21838   6.529   7.508   8.685 -1.8234  2.1214  0.7883
  162MOL0     H21839   6.610   7.662   8.696  0.1845 -0.1266 -0.5213
  162MOL0     H21840   6.753   7.464   8.683 -0.1891  2.0188 -0.2765
  162MOL0     H21841   6.680   7.397   8.837  1.4947  0.4338  0.3621
  162MOL0     H21842   6.793   7.597   8.960 -0.0228  0.8837 -1.0980
  162MOL0     H21843   6.848   7.649   8.800  1.8154 -3.2126 -3.4938
  162MOL0     H21844   6.913   7.376   8.902 -1.7326  0.8064 -1.3664
  162MOL0     H21845   6.991   7.468   8.776  1.7803  1.4521  0.8684
  162MOL0     H21846   7.041   7.647   8.982 -2.3551  0.0425  1.3704
  162MOL0     H21847   7.147   7.509   8.940  0.7657  2.1996 -1.9233
  162MOL0     H21848   6.936   7.530   9.158 -1.5580  0.2888 -2.1008
  162MOL0     H21849   7.022   7.386   9.122  1.4405  0.2794 -1.0418
  162MOL0     H21850   6.299   7.658   8.482 -0.0959  1.3811  0.5297
  162MOL0     H21851   6.089   7.602   8.360 -3.1879  3.8955 -0.1253
  162MOL0     H21852   5.766   7.266   8.176 -2.8367 -2.4180 -2.3053
  162MOL0     H21853   5.569   7.241   8.063  0.5731 -0.7017  0.7778
  162MOL0     H21854   5.500   8.334   7.240  0.2288 -1.4941  1.2074
  162MOL0     H21855   5.754   8.317   7.228  1.4116  2.9757 -2.0803
  162MOL0     H21856   6.072   8.233   7.231 -0.0158  0.2599  0.0913
  162MOL0     H21857   6.312   8.151   7.257  1.4576  1.2877  1.9824
  162MOL0     H21858   6.554   8.094   7.181 -1.1510 -0.7614  0.7066
  162MOL0     H21859   6.520   8.156   7.336 -2.1448  0.5896 -0.6356
  162MOL0     H21860   6.763   8.288   7.262  2.5847 -0.9984  1.0188
  162MOL0     H21861   6.777   8.127   7.208 -1.0175  0.3652 -0.9543
  162MOL0     H21862   6.711   8.023   7.417  0.0398 -0.4622 -2.8629
  162MOL0     H21863   6.693   8.180   7.487 -1.0959 -2.5878  1.5162
  162MOL0     H21864   6.920   8.238   7.448  3.9945 -0.8443  0.1926
  162MOL0     H21865   6.918   8.081   7.533  1.7639 -4.2325 -1.7363
  162MOL0     H21866   7.109   7.938   7.196  2.1131  1.4396  0.0690
  162MOL0     H21867   6.440   8.534   7.122  0.4367  0.4116  2.8396
  162MOL0     H21868   6.109   8.680   7.070  0.7379 -0.5799 -0.9802
  162MOL0     H21869   6.189   8.728   7.205 -2.1454 -1.7120  1.1668
  162MOL0     H21870   6.280   8.708   7.061 -0.9280 -0.1137 -1.1401
  163MOL0     O21871   4.116   9.552   3.678 -0.2683  0.5826  0.1923
  163MOL0     C21872   4.102   9.663   3.726 -0.0274 -0.4630  0.0848
  163MOL0     O21873   4.197   9.737   3.793  0.1298 -0.2118  0.4724
  163MOL0     C21874   4.325   9.741   3.749  0.1571  0.3089 -0.5854
  163MOL0     C21875   4.379   9.688   3.638 -0.3582 -0.2564  0.5456
  163MOL0     C21876   4.517   9.706   3.616  0.2772 -0.3668  0.2006
  163MOL0     C21877   4.599   9.771   3.713 -1.0524  0.7203 -0.5986
  163MOL0     O21878   4.734   9.788   3.706 -0.6510 -0.0783  0.5294
  163MOL0     C21879   4.818   9.696   3.625 -0.1441 -0.4212 -0.0782
  163MOL0     C21880   4.870   9.769   3.505 -0.5549  0.0590  0.3999
  163MOL0     C21881   5.009   9.727   3.468 -1.1664  0.2842  0.0961
  163MOL0     C21882   5.126   9.802   3.538 -0.1125  0.3703  0.0661
  163MOL0     C21883   5.263   9.750   3.478  0.0685  0.0111  0.0716
  163MOL0     C21884   5.380   9.784   3.579 -0.2410 -0.3510 -0.2650
  163MOL0     C21885   5.509   9.739   3.506  0.2554  0.4705 -0.0551
  163MOL0     C21886   5.644   9.751   3.583  1.3792  0.0721 -0.2841
  163MOL0     N21887   5.755   9.679   3.533  0.1945 -0.1648  0.3639
  163MOL0     C21888   5.831   9.701   3.414  0.3843  0.2382 -0.1269
  163MOL0     C21889   5.914   9.596   3.412 -0.5640 -0.3678 -0.4978
  163MOL0     C21890   6.030   9.563   3.322  0.6424  0.0051 -0.0053
  163MOL0     C21891   6.165   9.606   3.374 -0.0141  0.5761 -1.1716
  163MOL0     C21892   6.278   9.528   3.301  0.2256  0.7548 -0.4242
  163MOL0     C21893   6.405   9.619   3.267 -0.3141  0.0639 -0.8732
  163MOL0     O21894   6.503   9.624   3.381 -0.2586  0.2942  0.5610
  163MOL0     C21895   6.615   9.555   3.356  0.0637 -0.9874 -0.3191
  163MOL0     C21896   6.738   9.622   3.351  0.1208  0.5972  0.0287
  163MOL0     C21897   6.855   9.556   3.345 -0.0153  0.1196  0.2133
  163MOL0     C21898   6.850   9.414   3.340  0.1356 -0.0195  0.2847
  163MOL0     C21899   6.979   9.333   3.329  0.1612  0.5626  1.0595
  163MOL0     O21900   6.974   9.197   3.304  0.5174 -0.3071 -0.2050
  163MOL0     C21901   7.094   9.132   3.305 -0.4492  0.0455 -0.2231
  163MOL0     C21902   7.181   9.146   3.199  0.4844 -0.3486 -0.1817
  163MOL0     C21903   7.313   9.101   3.209  0.0490 -0.6645  0.2427
  163MOL0     C21904   7.353   9.040   3.323 -0.3894 -0.6769  0.2511
  163MOL0     O21905   7.472   8.982   3.350 -0.1536 -0.0218  0.2562
  163MOL0     C21906   7.580   8.998   3.251 -0.5649 -0.5291 -0.5680
  163MOL0     C21907   7.714   8.951   3.299  0.1710  0.3688  0.5765
  163MOL0     C21908   7.802   8.940   3.173 -0.1314  0.3173  0.5857
  163MOL0     C21909   7.940   8.884   3.212  0.4468  0.6872 -0.4076
  163MOL0     C21910   8.031   8.876   3.085  0.6589 -0.0735 -1.0713
  163MOL0     C21911   8.170   8.826   3.131  0.2682 -0.6252 -0.0983
  163MOL0     C21912   8.265   8.795   3.012  0.4820  0.5019 -0.8874
  163MOL0     C21913   8.387   8.737   3.083  0.2452  0.1097  0.7153
  163MOL0    Cl21914   8.466   8.642   2.958  0.1066  0.2467  0.6076
  163MOL0     C21915   7.267   9.020   3.427  0.2407  0.3460  0.0258
  163MOL0     C21916   7.133   9.063   3.423 -0.6927 -0.4493 -0.2928
  163MOL0     O21917   7.086   9.394   3.351 -0.8982  0.4675  0.7373
  163MOL0     C21918   6.730   9.344   3.350  1.0474 -0.0981 -0.4242
  163MOL0     C21919   6.607   9.415   3.359 -0.3907  0.2603  0.1667
  163MOL0     N21920   5.891   9.518   3.518  0.4489  0.1953 -0.3878
  163MOL0     N21921   5.811   9.571   3.596 -0.1608 -0.0704 -0.0626
  163MOL0     C21922   4.542   9.820   3.824 -1.0890  0.0905  0.6982
  163MOL0     C21923   4.407   9.809   3.839  0.3658 -0.5009  0.1012
  163MOL0     C21924   3.967   9.733   3.710  0.0635  0.0356  0.0555
  163MOL0     C21925   3.925   9.832   3.801  0.4255 -0.2953  1.2194
  163MOL0     C21926   3.797   9.893   3.810  0.2521  0.6456 -0.5267
  163MOL0     C21927   3.708   9.859   3.706 -0.4416 -0.5670 -0.3173
  163MOL0     O21928   3.589   9.921   3.698  0.0649 -0.5863  0.7380
  163MOL0     C21929   3.512   9.909   3.823 -0.1172  0.0277 -0.2260
  163MOL0     C21930   3.369   9.845   3.795 -0.4518  0.0698  0.4376
  163MOL0     C21931   3.364   9.720   3.708 -0.0032 -0.0529 -0.3798
  163MOL0     C21932   3.422   9.597   3.777  0.0406  0.7617 -0.4369
  163MOL0     C21933   3.395   9.491   3.691 -0.0360 -0.2662  0.8691
  163MOL0     C21934   3.373   9.406   3.604  1.0514  1.2500  0.4769
  163MOL0     C21935   3.746   9.763   3.619 -0.3077 -0.6944  0.7699
  163MOL0     C21936   3.866   9.696   3.618 -0.1460  0.0610  0.2713
  163MOL0     C21937   3.864   9.582   3.521 -0.6356  0.5517 -0.0928
  163MOL0     H21938   4.320   9.634   3.565 -2.2175  0.2134  1.6639
  163MOL0     H21939   4.557   9.670   3.521  2.4673  1.6642  0.2700
  163MOL0     H21940   4.900   9.661   3.687 -2.2756 -0.6900  2.7898
  163MOL0     H21941   4.762   9.607   3.594  0.7679 -1.3818  0.9377
  163MOL0     H21942   4.874   9.878   3.518  0.9248  0.6133 -3.2922
  163MOL0     H21943   4.809   9.741   3.418  0.2224  0.7497 -0.3885
  163MOL0     H21944   5.021   9.744   3.361  2.1363  0.9861  0.4813
  163MOL0     H21945   5.020   9.621   3.492  1.1538  0.7781  1.5959
  163MOL0     H21946   5.123   9.902   3.493  0.5308 -1.2756 -4.1832
  163MOL0     H21947   5.111   9.813   3.645  0.0688  0.4522  0.0840
  163MOL0     H21948   5.280   9.643   3.465  1.9969  0.1594  0.9893
  163MOL0     H21949   5.280   9.796   3.380 -0.2993 -1.4259 -0.6961
  163MOL0     H21950   5.376   9.893   3.592 -1.4154 -0.3809 -0.2363
  163MOL0     H21951   5.362   9.733   3.673  2.5415 -2.8567 -0.9565
  163MOL0     H21952   5.516   9.791   3.410 -1.3060  0.8870  0.0206
  163MOL0     H21953   5.475   9.640   3.476 -1.7155  1.6339 -1.9209
  163MOL0     H21954   5.670   9.857   3.595 -1.6691  1.0868 -1.7447
  163MOL0     H21955   5.627   9.701   3.679  2.1803 -1.2596 -0.7964
  163MOL0     H21956   5.819   9.779   3.339  1.9587  2.4305  1.7724
  163MOL0     H21957   6.034   9.455   3.307  1.7993  0.2061 -1.4043
  163MOL0     H21958   6.009   9.613   3.227  1.4463  1.4824  0.5622
  163MOL0     H21959   6.165   9.715   3.358  0.0891  0.7843  0.1690
  163MOL0     H21960   6.176   9.586   3.481  1.9376  1.5500 -1.1518
  163MOL0     H21961   6.234   9.488   3.209 -4.3555 -1.0548  2.1934
  163MOL0     H21962   6.308   9.439   3.358 -0.2612  1.1168  0.4148
  163MOL0     H21963   6.376   9.724   3.254 -0.4491 -0.0347 -1.4046
  163MOL0     H21964   6.459   9.594   3.176  0.9735  0.1374 -0.1510
  163MOL0     H21965   6.726   9.730   3.347 -2.1288  0.3898 -0.1920
  163MOL0     H21966   6.945   9.616   3.338  1.7646 -2.2855  1.3130
  163MOL0     H21967   7.138   9.198   3.114 -1.8499 -1.6849  0.0702
  163MOL0     H21968   7.388   9.126   3.134  2.6081 -0.8349  2.5517
  163MOL0     H21969   7.563   8.941   3.159 -0.1349 -1.5792 -0.0185
  163MOL0     H21970   7.579   9.103   3.222 -1.4453 -0.4421 -0.2516
  163MOL0     H21971   7.757   9.018   3.374 -0.4493  2.1000 -0.5529
  163MOL0     H21972   7.699   8.853   3.345  2.2950 -1.1095 -1.6351
  163MOL0     H21973   7.753   8.876   3.099 -2.3882  0.9307  1.4702
  163MOL0     H21974   7.817   9.038   3.127 -1.4845  0.6021  0.7231
  163MOL0     H21975   7.930   8.783   3.254 -6.1773  1.0651  0.0119
  163MOL0     H21976   7.988   8.950   3.284 -2.4371  2.1266  0.3572
  163MOL0     H21977   8.054   8.977   3.051  0.8066 -0.4608 -2.1457
  163MOL0     H21978   7.990   8.808   3.009 -1.4697 -0.1708  0.0950
  163MOL0     H21979   8.224   8.896   3.196  0.0837  0.8311 -1.4720
  163MOL0     H21980   8.151   8.728   3.177 -1.9035 -0.0191  0.4197
  163MOL0     H21981   8.303   8.889   2.970  1.3148  0.7631  0.4029
  163MOL0     H21982   8.232   8.735   2.927  0.0689  0.5711 -0.7821
  163MOL0     H21983   8.452   8.821   3.109 -1.0943  1.3571  0.1565
  163MOL0     H21984   8.358   8.670   3.164  2.7579 -1.9928  0.0208
  163MOL0     H21985   7.302   8.973   3.518 -1.8627  0.2910  0.8580
  163MOL0     H21986   7.077   9.065   3.516  1.1872 -1.5216  0.9261
  163MOL0     H21987   6.734   9.236   3.359  1.1689 -0.3518 -2.8536
  163MOL0     H21988   6.511   9.366   3.364  0.0616 -0.6036  0.4985
  163MOL0     H21989   4.592   9.875   3.903 -0.2365 -4.3618  3.6306
  163MOL0     H21990   4.351   9.855   3.920 -1.6316 -1.4271 -0.6889
  163MOL0     H21991   4.004   9.868   3.866  1.7722 -0.2990 -0.3266
  163MOL0     H21992   3.781   9.975   3.879 -2.9847 -1.1692  1.1026
  163MOL0     H21993   3.486  10.006   3.868 -3.6398 -0.3141 -1.2582
  163MOL0     H21994   3.552   9.857   3.910 -1.4653 -1.3453 -0.3882
  163MOL0     H21995   3.311   9.920   3.741  1.6464  2.5064  1.3492
  163MOL0     H21996   3.320   9.814   3.888  0.5577  1.6431  1.5489
  163MOL0     H21997   3.422   9.741   3.617 -2.4020 -0.5768 -2.1402
  163MOL0     H21998   3.260   9.700   3.681 -0.3874 -0.8369  1.5377
  163MOL0     H21999   3.530   9.613   3.783 -0.0529  2.0471 -1.6878
  163MOL0     H22000   3.393   9.574   3.880  2.1065 -0.1390  0.0037
  163MOL0     H22001   3.358   9.323   3.538  0.3031  1.8894 -0.1785
  163MOL0     H22002   3.672   9.724   3.549 -0.6265 -3.3401  2.4603
  163MOL0     H22003   3.812   9.615   3.431 -0.8919  0.0879 -0.1156
  163MOL0     H22004   3.966   9.560   3.487 -0.5492  1.6792 -0.5986
  163MOL0     H22005   3.825   9.489   3.564 -1.4423  1.4578  1.1579
  164MOL0     O22006   1.806   4.853   2.966 -0.4385 -0.6502  0.3784
  164MOL0     C22007   1.845   4.770   2.887 -0.7938  0.2961 -0.3469
  164MOL0     O22008   1.971   4.749   2.857 -0.6630  0.3607 -0.3428
  164MOL0     C22009   2.068   4.798   2.937 -0.4360  0.1666 -0.5288
  164MOL0     C22010   2.115   4.931   2.936 -0.1261  0.2267  0.0240
  164MOL0     C22011   2.226   4.961   3.011 -0.6370  0.2238 -0.0316
  164MOL0     C22012   2.289   4.881   3.094 -0.2468 -0.2144 -0.0487
  164MOL0     O22013   2.399   4.939   3.149  0.5740  0.2797 -0.5999
  164MOL0     C22014   2.500   4.845   3.196 -0.3286  0.7993  0.0367
  164MOL0     C22015   2.629   4.917   3.211  0.1521 -0.0530  0.2089
  164MOL0     C22016   2.625   5.013   3.324 -0.7586  0.6244 -0.2666
  164MOL0     C22017   2.752   5.100   3.347 -0.2218 -0.1083 -0.0557
  164MOL0     C22018   2.775   5.122   3.497 -0.2561 -0.5157 -0.0071
  164MOL0     C22019   2.913   5.166   3.520 -0.4612 -0.9488  0.0863
  164MOL0     C22020   2.928   5.194   3.675  0.0132 -0.0999  0.3768
  164MOL0     C22021   3.077   5.215   3.720 -0.5357 -0.1655  0.2138
  164MOL0     N22022   3.144   5.329   3.660  0.3500 -0.4815 -0.1054
  164MOL0     C22023   3.165   5.450   3.728 -0.9811  0.0394  0.3565
  164MOL0     C22024   3.254   5.521   3.658  0.1259 -0.0029 -0.0171
  164MOL0     C22025   3.316   5.654   3.698  0.4275 -0.0606 -0.0221
  164MOL0     C22026   3.475   5.662   3.695 -0.0384 -0.0871  0.1746
  164MOL0     C22027   3.515   5.808   3.725  0.6362 -0.7235  0.2665
  164MOL0     C22028   3.664   5.811   3.766 -0.4069  0.9272  0.1951
  164MOL0     O22029   3.706   5.943   3.807 -0.7451  0.7197 -0.0511
  164MOL0     C22030   3.840   5.956   3.819 -0.3342 -0.2213  0.1060
  164MOL0     C22031   3.892   6.087   3.808 -0.5995  0.0497 -0.1418
  164MOL0     C22032   4.033   6.116   3.801 -0.3527  0.4375 -0.2606
  164MOL0     C22033   4.120   6.011   3.820 -0.3424  0.4643 -0.2377
  164MOL0     C22034   4.264   6.052   3.822 -0.7816  0.1733  0.1421
  164MOL0     O22035   4.290   6.180   3.790 -0.1010 -0.3064 -0.0029
  164MOL0     C22036   4.425   6.221   3.789  0.4335 -0.0433  0.1958
  164MOL0     C22037   4.481   6.305   3.887 -0.3547  0.6881 -0.5169
  164MOL0     C22038   4.608   6.346   3.863 -0.0677 -0.7420 -0.3180
  164MOL0     C22039   4.690   6.302   3.756  0.3336  0.2354  0.3627
  164MOL0     O22040   4.814   6.355   3.724 -0.4817  0.2473  0.2439
  164MOL0     C22041   4.808   6.497   3.715 -1.0691  0.0670 -0.3420
  164MOL0     C22042   4.927   6.538   3.627 -0.6187 -0.1943  0.2196
  164MOL0     C22043   4.883   6.528   3.484 -0.7571  0.2488  0.6278
  164MOL0     C22044   5.000   6.573   3.397 -0.6844 -0.6062  0.1207
  164MOL0     C22045   4.959   6.604   3.252  0.5781 -0.2667 -0.3327
  164MOL0     C22046   5.080   6.668   3.179  0.3213 -0.3086  0.1463
  164MOL0     C22047   5.045   6.710   3.038  0.2013  0.7506 -0.4859
  164MOL0     C22048   5.163   6.768   2.963  0.1397 -0.2638  0.3303
  164MOL0    Cl22049   5.165   6.747   2.777 -0.0814 -0.1306  0.0923
  164MOL0     C22050   4.647   6.194   3.686  0.2578 -0.2699 -0.0813
  164MOL0     C22051   4.514   6.160   3.696  0.6473 -0.2797 -0.0404
  164MOL0     O22052   4.350   5.970   3.860  0.0447  0.5352 -0.2758
  164MOL0     C22053   4.074   5.878   3.846  0.3767  0.1689 -0.3300
  164MOL0     C22054   3.932   5.854   3.831 -0.0785  0.1669 -0.5665
  164MOL0     N22055   3.272   5.455   3.539  0.5282 -0.8380 -0.2634
  164MOL0     N22056   3.214   5.335   3.546 -0.1758  0.3863  0.5229
  164MOL0     C22057   2.236   4.751   3.117  1.0194 -0.0966  0.1367
  164MOL0     C22058   2.124   4.707   3.037 -1.2569  0.1220 -0.5707
  164MOL0     C22059   1.744   4.719   2.796 -0.8553  0.1929  1.0876
  164MOL0     C22060   1.790   4.648   2.688  0.6997  0.0949  0.2609
  164MOL0     C22061   1.700   4.603   2.590 -0.5758 -0.2331 -0.2400
  164MOL0     C22062   1.566   4.594   2.613 -0.3260 -0.4374  0.2498
  164MOL0     O22063   1.492   4.535   2.517 -0.0732  0.2578 -0.1459
  164MOL0     C22064   1.350   4.525   2.530 -0.9578 -0.5724  0.2450
  164MOL0     C22065   1.298   4.421   2.444 -0.5322  0.5141  0.0800
  164MOL0     C22066   1.242   4.462   2.304  0.8420 -0.0177  0.1919
  164MOL0     C22067   1.172   4.344   2.233 -0.7438 -1.3295  0.1445
  164MOL0     C22068   1.267   4.251   2.172  0.4845 -0.6444 -0.7395
  164MOL0     C22069   1.357   4.169   2.148 -0.7047  0.3511  0.3013
  164MOL0     C22070   1.517   4.668   2.722  0.6701 -0.7904 -0.1780
  164MOL0     C22071   1.605   4.718   2.815  0.0403  0.0829 -0.1408
  164MOL0     C22072   1.528   4.765   2.936  1.0551 -0.5955 -0.3741
  164MOL0     H22073   2.063   5.009   2.881  0.4204 -0.6665 -1.8471
  164MOL0     H22074   2.254   5.066   3.018 -1.4608  0.3948  1.0436
  164MOL0     H22075   2.471   4.791   3.286  1.7136  1.0730  0.9186
  164MOL0     H22076   2.519   4.767   3.122  2.0393  0.8356  0.5387
  164MOL0     H22077   2.654   4.959   3.113 -3.9928  1.5826 -0.3688
  164MOL0     H22078   2.711   4.852   3.243 -0.2955  0.6751  3.0724
  164MOL0     H22079   2.606   4.960   3.418 -0.2694  1.3678  0.2564
  164MOL0     H22080   2.539   5.079   3.307 -1.6441 -0.3102  0.4200
  164MOL0     H22081   2.832   5.036   3.309  0.9514 -0.0437  2.1684
  164MOL0     H22082   2.755   5.195   3.292  2.8279  0.0215  0.1655
  164MOL0     H22083   2.710   5.201   3.537  0.8570  0.0799  0.6774
  164MOL0     H22084   2.753   5.034   3.559 -2.8213  0.2119  0.2175
  164MOL0     H22085   2.977   5.087   3.480  0.5142 -0.1496  0.0549
  164MOL0     H22086   2.924   5.260   3.466 -2.7783 -1.0618 -0.6985
  164MOL0     H22087   2.900   5.105   3.733  2.7450 -0.3833  1.4230
  164MOL0     H22088   2.866   5.277   3.708  1.1057  2.4886 -3.4783
  164MOL0     H22089   3.063   5.215   3.828 -0.5414 -4.9908  0.4436
  164MOL0     H22090   3.140   5.128   3.698 -0.5452 -0.5182  1.5468
  164MOL0     H22091   3.128   5.485   3.823  1.8093  1.5434  1.0040
  164MOL0     H22092   3.285   5.725   3.621  0.1842  0.1378  0.2616
  164MOL0     H22093   3.275   5.686   3.794  3.7664  1.2545  1.1135
  164MOL0     H22094   3.509   5.593   3.773  0.3928  1.6350  1.5702
  164MOL0     H22095   3.505   5.622   3.597 -1.9286 -0.9375 -0.0929
  164MOL0     H22096   3.461   5.858   3.806  0.9789  2.5304 -1.3665
  164MOL0     H22097   3.501   5.877   3.642 -0.7605  0.6366  1.5654
  164MOL0     H22098   3.729   5.773   3.687  0.4306  2.4743  0.1024
  164MOL0     H22099   3.681   5.742   3.848  1.2606 -0.6470 -1.4014
  164MOL0     H22100   3.826   6.172   3.793 -0.6699 -0.6068 -5.0630
  164MOL0     H22101   4.056   6.222   3.801 -0.3357  0.4707  1.5888
  164MOL0     H22102   4.420   6.325   3.975  0.2062 -2.4822  0.7177
  164MOL0     H22103   4.646   6.411   3.941  1.3048 -2.1203  0.2155
  164MOL0     H22104   4.716   6.531   3.666  0.0003  2.2177 -0.9884
  164MOL0     H22105   4.813   6.531   3.819  2.0374 -0.2953 -0.2866
  164MOL0     H22106   4.952   6.640   3.657  0.1124 -0.5687  0.9040
  164MOL0     H22107   5.018   6.481   3.645  0.9602  2.4923  1.5187
  164MOL0     H22108   4.860   6.424   3.464 -0.4033 -0.3785  3.1606
  164MOL0     H22109   4.797   6.588   3.453  0.7444  2.4673  0.4598
  164MOL0     H22110   5.081   6.499   3.400  0.4259  0.6195  2.3035
  164MOL0     H22111   5.041   6.666   3.436  3.4627 -1.6098 -1.2768
  164MOL0     H22112   4.869   6.665   3.252 -0.7173 -2.0472  1.1799
  164MOL0     H22113   4.938   6.506   3.208 -2.4425 -0.1326  0.5959
  164MOL0     H22114   5.117   6.751   3.240 -0.6937 -0.9090  1.6758
  164MOL0     H22115   5.161   6.595   3.184  0.9904  0.4835  1.7292
  164MOL0     H22116   4.964   6.783   3.047  0.7938  1.1374  3.2305
  164MOL0     H22117   4.998   6.631   2.980  2.0833 -0.7575 -0.0515
  164MOL0     H22118   5.167   6.877   2.977 -0.6399 -0.2924  0.8855
  164MOL0     H22119   5.257   6.731   3.006  0.2926 -2.0734 -1.4371
  164MOL0     H22120   4.707   6.151   3.607 -1.0430  0.5758 -1.5959
  164MOL0     H22121   4.482   6.083   3.626  0.5206  0.2459 -0.5664
  164MOL0     H22122   4.145   5.804   3.880 -0.9703 -1.0368 -0.0022
  164MOL0     H22123   3.908   5.748   3.836  1.1763 -0.0811  2.0332
  164MOL0     H22124   2.281   4.688   3.193  2.8303  0.6348 -0.2806
  164MOL0     H22125   2.085   4.606   3.039  0.4157 -0.5503  0.0542
  164MOL0     H22126   1.896   4.644   2.664  0.9308  1.0406  1.0653
  164MOL0     H22127   1.732   4.529   2.517  1.3478  1.2599 -1.0065
  164MOL0     H22128   1.300   4.620   2.513 -0.2911 -0.2055  0.3014
  164MOL0     H22129   1.322   4.506   2.634 -0.9849  1.6034  0.6758
  164MOL0     H22130   1.218   4.371   2.499 -0.2891  0.2918  0.2280
  164MOL0     H22131   1.375   4.347   2.425 -2.8709 -2.1034  0.2152
  164MOL0     H22132   1.323   4.502   2.243 -0.3180 -0.8456 -1.9665
  164MOL0     H22133   1.172   4.543   2.327  1.4313  0.2404  1.1626
  164MOL0     H22134   1.125   4.276   2.305 -2.7684 -0.7150 -0.5091
  164MOL0     H22135   1.090   4.373   2.167 -1.8911 -2.7381  0.8869
  164MOL0     H22136   1.438   4.101   2.132  1.6123  2.7712  1.0926
  164MOL0     H22137   1.412   4.656   2.743  0.4022 -1.4387 -1.7180
  164MOL0     H22138   1.580   4.760   3.032 -0.5265 -1.5649  0.4750
  164MOL0     H22139   1.495   4.865   2.908 -1.4141 -1.6122 -1.4297
  164MOL0     H22140   1.443   4.699   2.955  0.6352  0.6651  2.5170
  165MOL0     O22141  10.670   0.530   2.171  0.0166 -0.4135  0.2376
  165MOL0     C22142  10.590   0.621   2.201 -0.3419 -0.3032  0.8138
  165MOL0     O22143  10.611   0.758   2.172 -0.3483  0.0564  0.2161
  165MOL0     C22144  10.720   0.797   2.093 -0.2994 -0.4813 -0.0706
  165MOL0     C22145  10.779   0.921   2.124 -0.1945 -0.1779 -0.1105
  165MOL0     C22146  10.898   0.963   2.056  0.1875 -0.3080 -0.7677
  165MOL0     C22147  10.954   0.895   1.944  0.3236  0.3502  0.1402
  165MOL0     O22148  11.071   0.930   1.876 -0.3490 -0.8227 -0.1064
  165MOL0     C22149  11.151   1.045   1.904  0.1035  0.1366  1.0598
  165MOL0     C22150  11.238   1.022   2.026  0.1345  0.2240  0.0180
  165MOL0     C22151  11.353   0.926   1.979  0.2931 -0.1149 -0.7033
  165MOL0     C22152  11.476   1.020   1.946 -0.0887 -0.0907  0.4735
  165MOL0     C22153  11.605   0.950   2.001 -0.3288 -0.3821 -0.1145
  165MOL0     C22154  11.720   1.042   1.978  0.3812  0.6809  0.3928
  165MOL0     C22155  11.851   0.996   2.045 -0.1470 -0.0590  0.1103
  165MOL0     C22156  11.958   1.109   2.015  0.3559  0.0877  0.5610
  165MOL0     N22157  12.085   1.073   2.071  0.0997 -0.4200  0.3961
  165MOL0     C22158  12.155   0.953   2.066 -0.1685  0.0533  0.2584
  165MOL0     C22159  12.266   0.977   2.139 -0.5429  1.0043 -0.8018
  165MOL0     C22160  12.389   0.881   2.173  0.2861 -0.8136  0.2127
  165MOL0     C22161  12.439   0.799   2.061  0.1838  0.1182  0.3236
  165MOL0     C22162  12.491   0.892   1.947  0.0287  0.0796 -0.6479
  165MOL0     C22163  12.609   0.991   1.980 -0.1710 -0.5301 -0.1983
  165MOL0     O22164  12.704   0.925   2.068 -0.0388  0.1616  0.0112
  165MOL0     C22165  12.836   0.940   2.042 -0.0492  0.4843  0.2217
  165MOL0     C22166  12.897   1.029   1.948 -0.2773  0.7486  0.4420
  165MOL0     C22167  13.031   1.001   1.903 -0.5238 -0.1471 -0.0077
  165MOL0     C22168  13.103   0.897   1.951  0.3465 -0.2249 -0.5414
  165MOL0     C22169  13.243   0.879   1.916 -0.3784 -0.7905 -0.5408
  165MOL0     O22170  13.304   0.966   1.835  0.0703 -0.8414  0.5691
  165MOL0     C22171  13.431   0.968   1.788  0.0419 -0.1407  0.0698
  165MOL0     C22172  13.467   1.072   1.701 -0.1593  0.5826  0.5868
  165MOL0     C22173  13.595   1.079   1.641 -1.2083  0.6769  0.0952
  165MOL0     C22174  13.687   0.991   1.689  0.1644  0.0624  0.2929
  165MOL0     O22175  13.809   1.021   1.635  0.1050  1.2814  0.3007
  165MOL0     C22176  13.921   0.951   1.701  0.0965 -0.3994  0.1233
  165MOL0     C22177  14.050   1.029   1.648  0.6395  0.1453  0.4796
  165MOL0     C22178  14.166   0.954   1.713  0.8484  1.0768 -0.9039
  165MOL0     C22179  14.293   1.036   1.682 -0.6599  0.2237  0.3693
  165MOL0     C22180  14.417   0.947   1.690  0.5303  0.4945  0.6076
  165MOL0     C22181  14.539   1.036   1.697  1.2504  0.4529 -1.1787
  165MOL0     C22182  14.670   0.964   1.700 -1.0391  0.5210  0.4029
  165MOL0     C22183  14.788   1.047   1.737 -1.0084 -0.2898 -1.5400
  165MOL0    Cl22184  14.934   0.954   1.698  0.2562 -0.3530  0.1701
  165MOL0     C22185  13.659   0.879   1.769 -0.1085  0.5408  0.1892
  165MOL0     C22186  13.531   0.866   1.808  0.1970 -0.5408  0.1791
  165MOL0     O22187  13.304   0.788   1.971  0.7499  0.2605  0.0792
  165MOL0     C22188  13.041   0.812   2.048 -0.5454  0.3906  0.2300
  165MOL0     C22189  12.914   0.841   2.098 -1.0934 -0.6232  1.0494
  165MOL0     N22190  12.270   1.107   2.189 -0.0037  0.1105 -0.3615
  165MOL0     N22191  12.158   1.160   2.146  0.0581  0.6297 -0.1224
  165MOL0     C22192  10.889   0.772   1.906  0.4712  0.2797 -0.3538
  165MOL0     C22193  10.782   0.720   1.984  0.0985  0.1504  0.1991
  165MOL0     C22194  10.463   0.563   2.265  0.2230  1.1526 -0.1700
  165MOL0     C22195  10.474   0.444   2.344  0.8244  0.7623 -0.4611
  165MOL0     C22196  10.368   0.380   2.407  0.4444 -0.0029 -0.2092
  165MOL0     C22197  10.239   0.439   2.395  0.1179 -1.1610 -0.0890
  165MOL0     O22198  10.136   0.385   2.474  0.5985  0.1139 -0.4661
  165MOL0     C22199  10.020   0.459   2.504  0.3410  0.2059  0.3833
  165MOL0     C22200   9.914   0.450   2.396 -0.1850 -0.0023  0.7182
  165MOL0     C22201   9.783   0.508   2.453  0.1454 -0.0177  0.4605
  165MOL0     C22202   9.695   0.406   2.529  0.4803 -0.6007  0.9356
  165MOL0     C22203   9.751   0.378   2.655 -0.2900  0.2389 -0.1344
  165MOL0     C22204   9.795   0.353   2.769 -0.3477 -0.1286  0.5570
  165MOL0     C22205  10.226   0.560   2.322 -0.3359  0.4632  0.0976
  165MOL0     C22206  10.333   0.624   2.261  0.3094  0.6633  0.3890
  165MOL0     C22207  10.301   0.754   2.188 -0.1936 -0.0809  0.3215
  165MOL0     H22208  10.738   0.983   2.202 -1.2972 -0.6651 -0.2935
  165MOL0     H22209  10.946   1.055   2.086  0.0810 -0.3739 -0.3906
  165MOL0     H22210  11.207   1.071   1.814  0.5405  0.6566  1.4790
  165MOL0     H22211  11.086   1.131   1.920  2.6331  2.6745 -1.3241
  165MOL0     H22212  11.188   0.965   2.105 -0.2082  1.6755  0.8794
  165MOL0     H22213  11.272   1.115   2.071  1.4763 -0.6972  1.0080
  165MOL0     H22214  11.320   0.859   1.899  1.6142 -2.8335  0.8865
  165MOL0     H22215  11.375   0.866   2.068 -3.5084  1.0917  1.2803
  165MOL0     H22216  11.485   1.016   1.837 -2.7465  2.7423  0.0186
  165MOL0     H22217  11.464   1.125   1.972 -1.7668  0.3466 -1.7362
  165MOL0     H22218  11.592   0.930   2.108 -3.2366  2.7286  0.2644
  165MOL0     H22219  11.620   0.850   1.960  0.0524 -1.3197  2.1693
  165MOL0     H22220  11.735   1.047   1.869 -1.8003  2.5839  0.0867
  165MOL0     H22221  11.701   1.141   2.022  4.1466  1.7803 -0.0709
  165MOL0     H22222  11.874   0.901   1.995 -2.5498  0.5368 -2.3822
  165MOL0     H22223  11.836   0.980   2.152 -1.1848  1.5796  0.2336
  165MOL0     H22224  11.976   1.117   1.907  1.3705 -3.7481  0.3100
  165MOL0     H22225  11.920   1.203   2.058 -0.9805 -0.6996  1.1657
  165MOL0     H22226  12.121   0.861   2.019 -0.2627 -0.5594  1.4962
  165MOL0     H22227  12.471   0.946   2.204  0.7633  0.5516 -3.4164
  165MOL0     H22228  12.353   0.828   2.261  1.4629  1.5329  2.2285
  165MOL0     H22229  12.520   0.733   2.097  1.1629  1.5400  0.8162
  165MOL0     H22230  12.354   0.738   2.029 -0.3577  0.6655  0.7089
  165MOL0     H22231  12.407   0.942   1.898  0.2691  1.4510  0.2642
  165MOL0     H22232  12.533   0.819   1.877 -0.4705 -2.6907  1.7566
  165MOL0     H22233  12.573   1.084   2.026  0.4903  1.0469 -2.6992
  165MOL0     H22234  12.658   1.029   1.890 -1.7201  2.1536 -0.0259
  165MOL0     H22235  12.860   1.124   1.911  0.6744  0.8583 -0.2609
  165MOL0     H22236  13.086   1.064   1.833  0.8356  0.2338  1.3628
  165MOL0     H22237  13.397   1.154   1.699 -0.0441  0.7345  1.9962
  165MOL0     H22238  13.633   1.166   1.589  0.5856  0.6100  1.2157
  165MOL0     H22239  13.908   0.963   1.809  1.2569  1.5254  0.1009
  165MOL0     H22240  13.919   0.850   1.660 -1.3312  0.2390 -1.5033
  165MOL0     H22241  14.044   1.029   1.539 -0.2100  2.8203  0.4397
  165MOL0     H22242  14.047   1.136   1.671  0.3159  0.8194 -2.2989
  165MOL0     H22243  14.161   0.943   1.822  1.4640  0.9314 -0.8877
  165MOL0     H22244  14.170   0.854   1.669  1.7231  0.5541  0.3251
  165MOL0     H22245  14.302   1.120   1.752  3.6446  1.0155 -0.8798
  165MOL0     H22246  14.282   1.076   1.580  0.2796 -0.4570 -0.0185
  165MOL0     H22247  14.420   0.887   1.599 -2.7395  0.5802  0.3340
  165MOL0     H22248  14.408   0.891   1.783 -0.8514  1.3503  1.0184
  165MOL0     H22249  14.537   1.114   1.620  0.0007 -0.1973 -1.8521
  165MOL0     H22250  14.542   1.094   1.790  0.9092 -1.8087  0.3423
  165MOL0     H22251  14.684   0.921   1.600  1.7014  3.0941 -0.4656
  165MOL0     H22252  14.660   0.882   1.773 -1.0650  1.1702  1.1401
  165MOL0     H22253  14.791   1.142   1.683 -3.0404  0.1324 -0.9673
  165MOL0     H22254  14.772   1.055   1.845  2.1563 -1.4920 -0.8530
  165MOL0     H22255  13.733   0.806   1.800 -1.0762 -1.6558 -2.2749
  165MOL0     H22256  13.503   0.771   1.851 -0.5991 -0.3815  0.0310
  165MOL0     H22257  13.088   0.717   2.069 -2.1876 -1.3094 -3.0620
  165MOL0     H22258  12.863   0.767   2.160 -1.1208 -1.0492  0.5234
  165MOL0     H22259  10.923   0.711   1.824 -1.7653  0.5145 -1.5421
  165MOL0     H22260  10.755   0.622   1.947  0.5012  0.3121 -0.5395
  165MOL0     H22261  10.570   0.395   2.360 -0.5250 -1.8235  0.2601
  165MOL0     H22262  10.381   0.293   2.471 -1.4411  0.2681  0.6110
  165MOL0     H22263  10.032   0.562   2.538 -1.4734  0.4073  0.5259
  165MOL0     H22264   9.976   0.408   2.590 -2.7589  2.2965  0.2110
  165MOL0     H22265   9.913   0.343   2.375  0.5936  0.1672 -0.2762
  165MOL0     H22266   9.935   0.489   2.296 -1.4147 -1.5855 -0.2057
  165MOL0     H22267   9.722   0.537   2.367 -1.6084 -2.0962  0.9048
  165MOL0     H22268   9.800   0.601   2.507 -2.1031  1.5672 -1.3547
  165MOL0     H22269   9.596   0.450   2.542  1.2588  3.3907 -3.8690
  165MOL0     H22270   9.687   0.316   2.467 -2.7732 -2.0206  3.1082
  165MOL0     H22271   9.819   0.316   2.866  1.3985  0.7093  0.4829
  165MOL0     H22272  10.128   0.608   2.317 -0.2912  0.4130 -3.8710
  165MOL0     H22273  10.286   0.831   2.264 -2.2955 -0.1915  0.0903
  165MOL0     H22274  10.389   0.771   2.125 -1.3820 -1.2704 -1.7779
  165MOL0     H22275  10.211   0.760   2.125  0.3656  0.6379 -0.4430
  166MOL0     O22276   1.231   6.097   3.741 -0.0054 -0.0566 -0.6693
  166MOL0     C22277   1.191   6.059   3.633  0.3041  0.1820  0.4990
  166MOL0     O22278   1.236   6.111   3.515  0.0745 -0.1070  0.2949
  166MOL0     C22279   1.345   6.192   3.512 -0.5609  0.5637  0.3805
  166MOL0     C22280   1.332   6.301   3.430  0.5221 -0.4563  0.0892
  166MOL0     C22281   1.431   6.396   3.412  0.7714 -0.8084 -0.7898
  166MOL0     C22282   1.554   6.379   3.478  0.2025 -1.1204 -0.4088
  166MOL0     O22283   1.669   6.468   3.462  0.5969 -0.7271 -0.1961
  166MOL0     C22284   1.652   6.579   3.383  0.0461  0.2542 -0.0720
  166MOL0     C22285   1.790   6.633   3.367 -0.4439  0.4290  0.4671
  166MOL0     C22286   1.788   6.757   3.280 -0.7167 -0.6531  0.0160
  166MOL0     C22287   1.930   6.803   3.254  0.0643 -0.8094 -0.5579
  166MOL0     C22288   1.930   6.947   3.199 -1.3775  0.0516  0.2346
  166MOL0     C22289   2.052   7.032   3.242  0.0511  0.5001 -0.0147
  166MOL0     C22290   2.056   7.178   3.178  0.0014  0.3251  0.6848
  166MOL0     C22291   2.146   7.274   3.259 -0.0537 -0.3515  0.1943
  166MOL0     N22292   2.291   7.236   3.257  0.3406 -0.1685 -0.0344
  166MOL0     C22293   2.341   7.151   3.349 -0.0407  0.8361 -0.4467
  166MOL0     C22294   2.477   7.143   3.313  1.2891 -0.2723 -0.7485
  166MOL0     C22295   2.572   7.066   3.409  0.3594 -0.9265  0.3002
  166MOL0     C22296   2.706   7.148   3.428 -0.0730 -0.1248  0.7526
  166MOL0     C22297   2.801   7.064   3.510 -0.4303  0.5988  0.2915
  166MOL0     C22298   2.925   7.144   3.544 -0.0397  0.5145 -0.5593
  166MOL0     O22299   3.027   7.060   3.598  0.3566  0.4781  0.4199
  166MOL0     C22300   3.148   7.124   3.622  0.2955  0.0437 -0.3926
  166MOL0     C22301   3.176   7.265   3.605  0.0693  0.1293  0.2868
  166MOL0     C22302   3.302   7.318   3.631  0.3433  0.5847 -0.1602
  166MOL0     C22303   3.414   7.235   3.673 -0.3148 -0.0042  0.0507
  166MOL0     C22304   3.548   7.289   3.698 -0.2431  0.0946  0.6786
  166MOL0     O22305   3.581   7.400   3.630  0.3493  0.3292  0.1238
  166MOL0     C22306   3.709   7.446   3.647 -0.0424  0.2901  0.0857
  166MOL0     C22307   3.798   7.448   3.539  0.3098 -0.6144  0.3484
  166MOL0     C22308   3.921   7.509   3.547 -0.0059  0.3071  0.8014
  166MOL0     C22309   3.962   7.576   3.665  0.4691 -0.1704  0.5065
  166MOL0     O22310   4.084   7.633   3.679  0.0048  0.5588  0.3723
  166MOL0     C22311   4.142   7.685   3.549  0.5744 -0.5253  0.3277
  166MOL0     C22312   4.267   7.754   3.593  0.7248 -0.6787  0.0915
  166MOL0     C22313   4.373   7.655   3.635 -0.1295 -0.4616 -1.1387
  166MOL0     C22314   4.441   7.566   3.525 -0.0704  0.3375  0.6431
  166MOL0     C22315   4.536   7.462   3.586  0.0166 -1.0330 -0.6139
  166MOL0     C22316   4.639   7.514   3.690  0.2135 -0.9995  0.4756
  166MOL0     C22317   4.725   7.399   3.724  0.2807 -0.3016 -0.0537
  166MOL0     C22318   4.658   7.285   3.799 -0.1733 -0.3139  0.5780
  166MOL0    Cl22319   4.602   7.352   3.954  0.5747  0.2399 -0.3676
  166MOL0     C22320   3.867   7.578   3.771  0.4369 -1.0048  0.1427
  166MOL0     C22321   3.740   7.511   3.764  0.9734 -1.0213 -0.1382
  166MOL0     O22322   3.627   7.218   3.758 -0.7385 -0.0789  0.2645
  166MOL0     C22323   3.390   7.093   3.679  0.1330  0.2275  0.3913
  166MOL0     C22324   3.258   7.038   3.657 -0.0726 -0.3785 -1.2373
  166MOL0     N22325   2.503   7.237   3.217  0.0957  0.2410 -0.1696
  166MOL0     N22326   2.390   7.291   3.177 -0.2105  0.4703 -0.4479
  166MOL0     C22327   1.570   6.268   3.565  0.3627  0.8205 -0.9906
  166MOL0     C22328   1.464   6.169   3.579 -0.4792  0.1234 -0.0905
  166MOL0     C22329   1.070   5.971   3.624 -0.3559 -0.2824  0.2289
  166MOL0     C22330   0.980   5.995   3.522 -0.0113 -0.4321 -0.1311
  166MOL0     C22331   0.876   5.909   3.496  0.5102 -0.2650 -0.2666
  166MOL0     C22332   0.837   5.815   3.601 -0.7010 -0.3095  0.0336
  166MOL0     O22333   0.738   5.719   3.588  0.4574 -0.4520 -0.2069
  166MOL0     C22334   0.641   5.746   3.482  0.6150  0.6951 -0.1898
  166MOL0     C22335   0.534   5.642   3.508  0.5115  0.0032  0.6325
  166MOL0     C22336   0.413   5.655   3.409  0.2488  0.0723  0.4171
  166MOL0     C22337   0.331   5.524   3.417 -0.1858 -0.3763  0.5180
  166MOL0     C22338   0.232   5.511   3.308 -0.6729  0.2681 -0.0292
  166MOL0     C22339   0.146   5.518   3.221 -1.2224 -0.1457  0.0847
  166MOL0     C22340   0.912   5.793   3.709  0.8616  0.2805 -0.0029
  166MOL0     C22341   1.037   5.865   3.716 -0.2759  0.0008 -0.1796
  166MOL0     C22342   1.131   5.821   3.832 -0.1389  0.3189 -0.6206
  166MOL0     H22343   1.237   6.315   3.380 -0.4727 -0.0822  1.9775
  166MOL0     H22344   1.414   6.471   3.336  1.3540 -0.8867 -0.9987
  166MOL0     H22345   1.607   6.559   3.285  3.2978 -0.0659 -1.6555
  166MOL0     H22346   1.594   6.661   3.426  1.0644  1.2059 -0.4335
  166MOL0     H22347   1.861   6.555   3.340  2.2303  2.3167  1.6030
  166MOL0     H22348   1.817   6.660   3.470 -0.3255  1.5467  0.1518
  166MOL0     H22349   1.726   6.826   3.338 -1.7306 -1.6197  0.0988
  166MOL0     H22350   1.734   6.741   3.187 -0.0853  0.1736 -0.5091
  166MOL0     H22351   1.983   6.792   3.349  0.1654  3.0560  0.0128
  166MOL0     H22352   1.985   6.739   3.184 -0.9358 -1.0220 -1.1684
  166MOL0     H22353   1.910   6.939   3.092 -0.0769 -1.1424  0.0440
  166MOL0     H22354   1.844   7.003   3.236 -0.4843  1.4337  0.3072
  166MOL0     H22355   2.044   7.036   3.351 -3.1846 -1.4213 -0.0683
  166MOL0     H22356   2.144   6.979   3.216  0.7233  2.0654 -1.0424
  166MOL0     H22357   1.957   7.221   3.193 -0.8591 -1.8949  1.9298
  166MOL0     H22358   2.086   7.178   3.072 -0.4077 -2.8899  0.4775
  166MOL0     H22359   2.124   7.374   3.221  0.1965 -0.6949 -0.8892
  166MOL0     H22360   2.119   7.278   3.365 -4.2945  2.6209 -0.7078
  166MOL0     H22361   2.289   7.109   3.435 -1.1459 -1.2965 -2.0569
  166MOL0     H22362   2.533   7.048   3.509  0.1298  0.4554  0.4727
  166MOL0     H22363   2.594   6.964   3.376 -4.6375 -1.4992 -2.2845
  166MOL0     H22364   2.756   7.185   3.338 -1.4327 -0.6881 -0.2826
  166MOL0     H22365   2.681   7.232   3.492  0.4528  0.5123  0.1367
  166MOL0     H22366   2.831   6.979   3.449  1.5769 -0.1890  2.2676
  166MOL0     H22367   2.750   7.023   3.597 -1.9089  0.9841 -0.3557
  166MOL0     H22368   2.898   7.215   3.623 -1.5632 -1.5860  0.9206
  166MOL0     H22369   2.969   7.205   3.465  3.9293  0.3154  1.2669
  166MOL0     H22370   3.104   7.339   3.572 -0.3477 -0.4837 -0.2143
  166MOL0     H22371   3.319   7.423   3.610 -2.6735  0.7712 -2.2390
  166MOL0     H22372   3.774   7.398   3.446 -0.6695 -1.2361  0.9227
  166MOL0     H22373   3.996   7.487   3.472  0.0702 -1.9596  1.4616
  166MOL0     H22374   4.158   7.614   3.467  0.3504 -0.1481 -0.0461
  166MOL0     H22375   4.075   7.759   3.505  0.4050 -0.5931  0.4717
  166MOL0     H22376   4.290   7.815   3.505  1.9486  0.2154  0.9941
  166MOL0     H22377   4.255   7.830   3.671  1.3859  0.8081 -1.1836
  166MOL0     H22378   4.453   7.719   3.676  0.8466 -1.3338 -1.6369
  166MOL0     H22379   4.335   7.585   3.710 -0.8403 -2.2738 -3.1102
  166MOL0     H22380   4.504   7.626   3.459  0.2141 -1.6756 -1.0438
  166MOL0     H22381   4.361   7.519   3.466  0.9169 -2.0016  1.0451
  166MOL0     H22382   4.585   7.415   3.500 -2.2529  0.8048 -3.0793
  166MOL0     H22383   4.478   7.383   3.635  0.5376 -3.0394 -3.0359
  166MOL0     H22384   4.706   7.590   3.649  0.9610  1.0999  5.0288
  166MOL0     H22385   4.578   7.549   3.774  0.9372  1.2255  0.1380
  166MOL0     H22386   4.805   7.431   3.791  1.2741 -2.7944  0.0688
  166MOL0     H22387   4.758   7.362   3.626 -0.1575 -0.9032  0.0166
  166MOL0     H22388   4.582   7.228   3.746  0.1724 -0.7810  0.5776
  166MOL0     H22389   4.737   7.211   3.815  2.1722  1.7729 -0.4879
  166MOL0     H22390   3.887   7.649   3.851 -0.2445 -1.5668  0.8227
  166MOL0     H22391   3.669   7.526   3.844  1.7192  1.3253  0.1461
  166MOL0     H22392   3.473   7.024   3.694  0.8647  0.8612 -0.5967
  166MOL0     H22393   3.259   6.932   3.680 -3.2936 -0.2575 -0.0559
  166MOL0     H22394   1.664   6.259   3.618 -0.9061  0.1400  1.2676
  166MOL0     H22395   1.487   6.084   3.641 -1.7658  1.7789  2.8734
  166MOL0     H22396   1.012   6.066   3.446  4.6778  0.8360  2.6355
  166MOL0     H22397   0.801   5.925   3.418  0.4913  1.1799  0.0181
  166MOL0     H22398   0.679   5.741   3.379  3.4867 -0.1417  0.8102
  166MOL0     H22399   0.600   5.848   3.488 -1.0089  0.0406  0.1822
  166MOL0     H22400   0.493   5.651   3.609 -0.0153  0.4317  0.3894
  166MOL0     H22401   0.578   5.542   3.504  1.6683  0.5127  0.1145
  166MOL0     H22402   0.458   5.674   3.311  1.1141  0.4062  0.8732
  166MOL0     H22403   0.344   5.732   3.444  1.1276  1.0946 -0.0282
  166MOL0     H22404   0.392   5.433   3.415 -1.3244 -1.1590  0.1436
  166MOL0     H22405   0.284   5.530   3.515  0.2470 -1.4861  0.8067
  166MOL0     H22406   0.081   5.528   3.137 -3.9028 -2.1438  1.7533
  166MOL0     H22407   0.869   5.723   3.780 -1.7846  1.7702 -0.0038
  166MOL0     H22408   1.232   5.852   3.805  0.8841 -1.6918  0.6168
  166MOL0     H22409   1.104   5.883   3.919 -1.7192  0.9372 -1.5148
  166MOL0     H22410   1.136   5.713   3.854 -0.2166  0.3110 -0.6436
  167MOL0     O22411   9.953   3.451   8.004  0.2814  0.4517  0.8820
  167MOL0     C22412   9.877   3.434   8.106 -0.4039  0.7452  0.3445
  167MOL0     O22413   9.914   3.461   8.236 -0.0473 -0.0802 -0.7094
  167MOL0     C22414  10.045   3.447   8.275 -0.7258  0.0335  0.2309
  167MOL0     C22415  10.149   3.380   8.208  0.2755 -0.8369  0.6955
  167MOL0     C22416  10.270   3.370   8.261  0.2947 -0.4002  0.2839
  167MOL0     C22417  10.305   3.423   8.383 -0.3341 -0.6935 -0.3102
  167MOL0     O22418  10.429   3.424   8.441 -0.2195 -0.1064  0.2000
  167MOL0     C22419  10.544   3.365   8.367  0.6897  0.5135  0.1189
  167MOL0     C22420  10.648   3.312   8.467  0.2934  0.2976  0.0953
  167MOL0     C22421  10.689   3.408   8.573  0.0036  0.4939 -1.9070
  167MOL0     C22422  10.794   3.361   8.663  0.2124 -0.0423 -0.7877
  167MOL0     C22423  10.822   3.465   8.776  0.5744 -0.6087  0.1961
  167MOL0     C22424  10.735   3.434   8.904 -0.4421  0.0962 -0.0520
  167MOL0     C22425  10.774   3.527   9.023 -0.1104  0.2540  0.1349
  167MOL0     C22426  10.883   3.474   9.118 -0.1828  0.1389  0.6537
  167MOL0     N22427  10.930   3.562   9.227 -0.0122 -0.1863  0.3536
  167MOL0     C22428  11.020   3.663   9.204 -0.0791 -0.2075 -0.3332
  167MOL0     C22429  11.027   3.730   9.323 -0.1374 -0.5972 -0.6782
  167MOL0     C22430  11.129   3.835   9.359  0.0966 -0.0175 -0.0382
  167MOL0     C22431  11.270   3.777   9.376 -0.8809  0.3146 -0.2752
  167MOL0     C22432  11.383   3.881   9.361  0.2346  0.3612  0.8276
  167MOL0     C22433  11.521   3.816   9.374 -0.3558 -0.4561  0.0025
  167MOL0     O22434  11.602   3.885   9.463  0.4081 -0.2108  0.1729
  167MOL0     C22435  11.736   3.872   9.465 -0.2238 -0.3578 -0.4400
  167MOL0     C22436  11.796   3.767   9.400 -0.1932  0.3310 -0.0103
  167MOL0     C22437  11.938   3.742   9.403  0.4680 -0.4994 -0.7478
  167MOL0     C22438  12.017   3.833   9.463 -1.0246 -0.5413  0.0678
  167MOL0     C22439  12.168   3.829   9.462  0.4629  0.4182 -0.2368
  167MOL0     O22440  12.228   3.939   9.515 -0.3900  0.2344  0.2527
  167MOL0     C22441  12.355   3.950   9.514 -1.2022  0.4992  0.2480
  167MOL0     C22442  12.438   3.864   9.588  0.1052 -0.2179 -0.3317
  167MOL0     C22443  12.581   3.885   9.585  0.1489  0.4701  0.2947
  167MOL0     C22444  12.637   3.985   9.507  0.0664 -0.0218  0.3599
  167MOL0     O22445  12.777   3.992   9.510 -0.0438  0.1041 -0.0518
  167MOL0     C22446  12.853   4.059   9.409 -0.3509 -0.7893  0.5371
  167MOL0     C22447  12.929   3.969   9.303 -0.8024 -0.2893 -0.7469
  167MOL0     C22448  12.842   3.947   9.179  0.1308 -0.5338 -0.1077
  167MOL0     C22449  12.768   3.810   9.189 -0.6774 -0.5766 -0.6191
  167MOL0     C22450  12.688   3.770   9.064 -0.1210  0.3612  0.6675
  167MOL0     C22451  12.590   3.875   9.022  0.5261 -0.0454 -0.4297
  167MOL0     C22452  12.488   3.834   8.910 -0.1258  0.1811  0.0219
  167MOL0     C22453  12.398   3.943   8.860  0.2824 -0.5545  0.1281
  167MOL0    Cl22454  12.484   4.031   8.725 -0.0907 -0.1771  0.4168
  167MOL0     C22455  12.554   4.064   9.422 -0.4577  0.4722  0.0242
  167MOL0     C22456  12.412   4.044   9.425 -1.1853 -0.7497  0.0692
  167MOL0     O22457  12.229   3.722   9.437 -0.2924 -0.3284 -0.0735
  167MOL0     C22458  11.962   3.944   9.529 -1.2625 -0.3962 -0.6433
  167MOL0     C22459  11.822   3.961   9.531 -0.2384  0.8576  0.5828
  167MOL0     N22460  10.950   3.658   9.412 -0.4214  0.2064 -0.1738
  167MOL0     N22461  10.891   3.560   9.355  0.2577  0.5516 -0.2034
  167MOL0     C22462  10.201   3.482   8.455 -0.7380 -0.1229 -0.3074
  167MOL0     C22463  10.073   3.489   8.403  0.9646  0.0031 -0.7087
  167MOL0     C22464   9.736   3.380   8.086  0.4919  0.1529  0.6312
  167MOL0     C22465   9.656   3.372   8.204 -0.1694 -0.3224  0.0076
  167MOL0     C22466   9.535   3.308   8.208 -0.3432 -0.3987  0.9211
  167MOL0     C22467   9.473   3.262   8.095  0.1518  0.4028 -0.1887
  167MOL0     O22468   9.339   3.220   8.110  0.0942 -0.1859 -0.5772
  167MOL0     C22469   9.270   3.156   8.008  0.3663  0.0688 -0.0464
  167MOL0     C22470   9.207   3.264   7.916  0.1302  0.2340  0.0392
  167MOL0     C22471   9.088   3.344   7.986 -1.0602  0.4551 -0.0831
  167MOL0     C22472   9.051   3.462   7.897  1.0638 -0.7101 -0.4539
  167MOL0     C22473   8.915   3.508   7.944 -0.7436 -0.6238  0.3605
  167MOL0     C22474   8.814   3.558   7.991 -0.9420  0.0154  0.4951
  167MOL0     C22475   9.551   3.282   7.976 -0.1132 -0.1041 -0.3261
  167MOL0     C22476   9.681   3.335   7.967  0.4576 -0.2081 -0.3633
  167MOL0     C22477   9.734   3.363   7.834 -0.1332 -0.3048  0.5113
  167MOL0     H22478  10.123   3.342   8.110 -2.9318  1.1993  0.6091
  167MOL0     H22479  10.348   3.320   8.204 -0.9294 -0.5297 -1.3486
  167MOL0     H22480  10.524   3.274   8.310 -2.3746 -1.1710  3.4691
  167MOL0     H22481  10.585   3.443   8.304  1.1387 -1.8862 -2.7914
  167MOL0     H22482  10.734   3.278   8.409 -2.3144 -4.0564 -1.7372
  167MOL0     H22483  10.608   3.221   8.511  1.0849  0.1407  0.5158
  167MOL0     H22484  10.609   3.432   8.643  0.0967  0.3160 -1.7404
  167MOL0     H22485  10.723   3.500   8.523 -0.7125  0.6159 -2.1852
  167MOL0     H22486  10.774   3.264   8.709 -0.2669 -0.0030 -0.9096
  167MOL0     H22487  10.884   3.343   8.602  0.7555 -1.2198  0.3186
  167MOL0     H22488  10.930   3.457   8.791  0.3962 -2.2410  0.8246
  167MOL0     H22489  10.797   3.569   8.755  0.0441 -0.7460  0.1376
  167MOL0     H22490  10.631   3.464   8.890 -0.4477  0.0494 -0.1066
  167MOL0     H22491  10.737   3.329   8.934  0.7313  0.7298  2.3289
  167MOL0     H22492  10.687   3.537   9.090 -0.0893  2.1122 -0.0413
  167MOL0     H22493  10.813   3.625   8.993  1.2997 -0.5854 -0.8971
  167MOL0     H22494  10.848   3.380   9.161  0.3202 -0.5240 -0.3331
  167MOL0     H22495  10.963   3.445   9.049 -1.8731  0.0230 -1.3675
  167MOL0     H22496  11.091   3.666   9.121  1.9493 -0.7184  1.3146
  167MOL0     H22497  11.133   3.888   9.263  2.4533 -3.8668 -2.3201
  167MOL0     H22498  11.092   3.887   9.448  0.1593 -2.8602  1.7559
  167MOL0     H22499  11.270   3.729   9.475  0.9031  0.5691 -0.1189
  167MOL0     H22500  11.293   3.707   9.296  1.4728 -0.6414  1.1413
  167MOL0     H22501  11.371   3.967   9.427 -0.2167  0.9493  0.0057
  167MOL0     H22502  11.380   3.910   9.255  2.3145  0.6958  0.8243
  167MOL0     H22503  11.562   3.819   9.273  0.1688 -2.1483  0.1221
  167MOL0     H22504  11.511   3.710   9.402  0.9562 -0.7584 -0.5994
  167MOL0     H22505  11.740   3.693   9.344  2.6781 -1.3572 -0.8899
  167MOL0     H22506  11.996   3.658   9.364  2.6188  1.2265 -1.4402
  167MOL0     H22507  12.405   3.782   9.651  1.8341 -0.7662 -0.0926
  167MOL0     H22508  12.646   3.822   9.645  1.0920  2.3526  1.3136
  167MOL0     H22509  12.799   4.133   9.350  0.3189 -1.8001 -1.4293
  167MOL0     H22510  12.919   4.129   9.463  1.1801  1.7776 -4.0803
  167MOL0     H22511  13.023   4.012   9.269 -0.6775 -0.6390 -0.8379
  167MOL0     H22512  12.957   3.874   9.349 -1.2509  0.2837  0.7918
  167MOL0     H22513  12.762   4.022   9.173 -0.7441 -1.5263 -4.2456
  167MOL0     H22514  12.905   3.962   9.090  1.8797  2.4871  1.4786
  167MOL0     H22515  12.701   3.810   9.276  0.1385  1.2825  0.0732
  167MOL0     H22516  12.833   3.729   9.225 -2.9106 -1.3382  1.9908
  167MOL0     H22517  12.623   3.689   9.099  1.2488 -0.9426  0.3449
  167MOL0     H22518  12.759   3.733   8.989 -0.8951 -0.1853  0.1939
  167MOL0     H22519  12.531   3.902   9.109  2.5852  4.2552 -0.1074
  167MOL0     H22520  12.655   3.960   8.999 -0.1765  0.3438 -1.0125
  167MOL0     H22521  12.422   3.751   8.938 -2.2954  0.8512 -2.7592
  167MOL0     H22522  12.539   3.801   8.819  1.7981 -0.8025  1.3770
  167MOL0     H22523  12.306   3.908   8.813 -0.0504  2.1931 -1.4502
  167MOL0     H22524  12.367   4.008   8.942  1.8566  0.5569 -0.1167
  167MOL0     H22525  12.601   4.143   9.365  1.3569  1.4479  2.6912
  167MOL0     H22526  12.354   4.114   9.366  0.3459  1.6711  1.2441
  167MOL0     H22527  12.029   4.022   9.565 -0.0420 -2.4025  1.6334
  167MOL0     H22528  11.789   4.050   9.584  1.0418  1.3524  0.5811
  167MOL0     H22529  10.213   3.519   8.557 -1.0522  0.0271 -0.3245
  167MOL0     H22530   9.990   3.515   8.468  0.4390 -2.2169 -0.4046
  167MOL0     H22531   9.701   3.394   8.300 -0.0818 -0.1462 -0.0737
  167MOL0     H22532   9.487   3.290   8.303 -0.2840 -1.5771  0.7484
  167MOL0     H22533   9.186   3.099   8.048 -0.1846 -0.0241 -1.2824
  167MOL0     H22534   9.328   3.080   7.956  0.8097  0.2138  0.2338
  167MOL0     H22535   9.171   3.224   7.820 -1.8736 -1.4201  1.3942
  167MOL0     H22536   9.288   3.319   7.869  0.6096 -3.6714 -4.4626
  167MOL0     H22537   9.130   3.380   8.080 -0.1430  1.3969 -0.8274
  167MOL0     H22538   9.006   3.274   8.002 -1.9265  1.6052  0.6055
  167MOL0     H22539   9.121   3.545   7.907  0.1974  0.0065 -0.1547
  167MOL0     H22540   9.043   3.428   7.794  0.1525 -1.9947  0.0144
  167MOL0     H22541   8.725   3.596   8.036 -1.6513 -1.2299  0.1730
  167MOL0     H22542   9.507   3.258   7.880  0.6329  1.1175 -0.9927
  167MOL0     H22543   9.785   3.459   7.826  0.6492 -0.8362 -1.6899
  167MOL0     H22544   9.807   3.285   7.810 -0.6711 -0.9319  0.8888
  167MOL0     H22545   9.662   3.366   7.751  1.2311  0.8272 -0.7089
  168MOL0     O22546   9.553   5.310  10.308  0.2611  0.2478  0.2860
  168MOL0     C22547   9.434   5.284  10.340 -0.3425  0.5400  0.6282
  168MOL0     O22548   9.390   5.193  10.425  0.0603 -0.1964 -0.1487
  168MOL0     C22549   9.479   5.108  10.484 -0.5294 -0.4888  0.7558
  168MOL0     C22550   9.581   5.168  10.559 -0.2627  0.0460 -0.3169
  168MOL0     C22551   9.666   5.092  10.636  0.4886 -0.1139 -0.7234
  168MOL0     C22552   9.668   4.958  10.635 -0.3506  0.6891  0.5111
  168MOL0     O22553   9.750   4.880  10.715 -0.8958 -0.5840  0.1804
  168MOL0     C22554   9.882   4.931  10.757  0.2229  1.0272  0.5894
  168MOL0     C22555   9.971   4.819  10.731 -0.6651  0.2357  0.7597
  168MOL0     C22556  10.119   4.861  10.760  0.0309 -0.6472 -0.2316
  168MOL0     C22557  10.153   4.876  10.910  0.3325  0.4025 -0.3565
  168MOL0     C22558  10.176   4.740  10.978 -0.9039  0.4486 -0.1406
  168MOL0     C22559  10.309   4.684  10.936  0.5869  0.1962 -0.0951
  168MOL0     C22560  10.423   4.681  11.026  0.7412  0.0446 -0.6925
  168MOL0     C22561  10.487   4.820  11.044 -0.2381 -0.2793 -0.6525
  168MOL0     N22562  10.580   4.812  11.156 -0.4960  0.3990 -0.3775
  168MOL0     C22563  10.553   4.797  11.281 -0.8536  0.0158 -0.1549
  168MOL0     C22564  10.662   4.757  11.344 -1.5090  0.5813  0.0831
  168MOL0     C22565  10.644   4.718  11.493  0.0001 -0.6155  0.1681
  168MOL0     C22566  10.691   4.575  11.519 -0.1580  0.0463 -0.1421
  168MOL0     C22567  10.638   4.521  11.653  0.2490  0.0120 -1.1311
  168MOL0     C22568  10.712   4.398  11.684  0.0285  0.0873  0.6899
  168MOL0     O22569  10.852   4.431  11.685 -0.3033  0.1058 -0.8867
  168MOL0     C22570  10.943   4.328  11.678 -0.3022 -0.1632  0.1109
  168MOL0     C22571  10.939   4.238  11.577 -0.6299 -0.0827 -0.4095
  168MOL0     C22572  11.032   4.133  11.577  0.4002 -0.3806  0.1087
  168MOL0     C22573  11.130   4.131  11.680 -0.4612  0.4538  0.4699
  168MOL0     C22574  11.225   4.016  11.690 -0.2009 -0.3464  0.1223
  168MOL0     O22575  11.334   4.011  11.771  0.2837  0.1790 -0.2431
  168MOL0     C22576  11.426   3.904  11.753  0.2096 -0.2285 -0.3210
  168MOL0     C22577  11.420   3.785  11.824 -0.0286 -0.3769  0.9311
  168MOL0     C22578  11.510   3.679  11.817 -0.0846  0.1713  0.0084
  168MOL0     C22579  11.617   3.684  11.723 -0.4520  0.0788  0.0623
  168MOL0     O22580  11.705   3.586  11.722 -0.0644  0.4050  0.1228
  168MOL0     C22581  11.846   3.629  11.749 -0.0895  0.8457  0.1127
  168MOL0     C22582  11.927   3.510  11.804  0.3254  0.3412 -0.2039
  168MOL0     C22583  11.891   3.475  11.948 -0.1817  0.5718  0.1724
  168MOL0     C22584  11.923   3.582  12.049 -0.9907  0.3497 -0.0317
  168MOL0     C22585  11.886   3.526  12.190  0.0329 -0.6768 -0.2776
  168MOL0     C22586  11.963   3.590  12.306 -0.1296 -0.4621  1.0070
  168MOL0     C22587  11.929   3.733  12.343 -0.1953 -0.4775  0.0298
  168MOL0     C22588  11.918   3.756  12.490 -0.0281  0.2239  1.0278
  168MOL0    Cl22589  12.075   3.733  12.562  0.0677 -0.2816 -0.0053
  168MOL0     C22590  11.622   3.796  11.644  0.1960 -0.3421 -0.0669
  168MOL0     C22591  11.532   3.904  11.656  0.2514  0.9743 -0.3958
  168MOL0     O22592  11.183   3.925  11.619 -0.2002  0.0733 -0.1670
  168MOL0     C22593  11.142   4.233  11.769  0.9179 -0.5570  0.3630
  168MOL0     C22594  11.049   4.335  11.771  0.6311  1.2398  0.2473
  168MOL0     N22595  10.775   4.748  11.252  0.5115 -1.2373 -0.5584
  168MOL0     N22596  10.721   4.784  11.144 -0.1314  1.0128  0.3981
  168MOL0     C22597   9.563   4.898  10.561 -0.3909 -0.2120 -0.4196
  168MOL0     C22598   9.468   4.973  10.485 -0.1744 -0.1056  0.0610
  168MOL0     C22599   9.336   5.357  10.259  0.6280  0.1558 -0.1436
  168MOL0     C22600   9.219   5.284  10.237  0.3105 -0.9318 -0.1148
  168MOL0     C22601   9.113   5.338  10.163 -0.0224 -0.1291  0.1663
  168MOL0     C22602   9.126   5.463  10.109 -0.7475  0.6101 -0.0866
  168MOL0     O22603   9.030   5.525  10.044  0.0962 -0.0474  0.1093
  168MOL0     C22604   8.915   5.458   9.985  1.1192  0.1758 -0.5426
  168MOL0     C22605   8.799   5.425  10.080 -0.7520 -0.0249 -0.0541
  168MOL0     C22606   8.685   5.366  10.010  0.0636 -0.4435 -0.2349
  168MOL0     C22607   8.586   5.314  10.116 -0.6043  0.2685 -0.5280
  168MOL0     C22608   8.489   5.219  10.062 -0.0547  0.1007  1.0293
  168MOL0     C22609   8.412   5.130  10.026 -0.1684  0.7036  0.0214
  168MOL0     C22610   9.243   5.528  10.122 -0.2852  0.2457 -0.6730
  168MOL0     C22611   9.349   5.482  10.198  0.8963 -0.7576 -0.1746
  168MOL0     C22612   9.473   5.570  10.207 -0.3994  0.6838 -0.0459
  168MOL0     H22613   9.583   5.274  10.585 -3.0338  0.0477  0.1689
  168MOL0     H22614   9.733   5.151  10.697  3.5916 -0.7103 -3.2808
  168MOL0     H22615   9.914   5.026  10.713  1.0504  1.5027  2.1643
  168MOL0     H22616   9.882   4.958  10.863 -2.9715  2.6138  0.3063
  168MOL0     H22617   9.964   4.788  10.627  1.7671  1.2402  0.2191
  168MOL0     H22618   9.953   4.738  10.802  0.9112  0.7472  1.8030
  168MOL0     H22619  10.143   4.949  10.699  1.7184  0.5991  2.0638
  168MOL0     H22620  10.171   4.774  10.720 -2.1032 -1.8121 -0.6323
  168MOL0     H22621  10.248   4.930  10.910  2.1111 -2.5028  1.5581
  168MOL0     H22622  10.081   4.934  10.969  0.8528 -2.2190  3.1573
  168MOL0     H22623  10.179   4.743  11.088  2.7654 -1.0819 -0.0798
  168MOL0     H22624  10.094   4.676  10.944  0.6547 -1.0806 -1.1478
  168MOL0     H22625  10.308   4.576  10.916  0.5993  0.3952 -1.2109
  168MOL0     H22626  10.351   4.740  10.853 -1.4517  2.1535  0.1100
  168MOL0     H22627  10.494   4.613  10.979 -0.2521 -1.9701  0.5843
  168MOL0     H22628  10.395   4.639  11.124  2.2364 -2.2035 -1.1607
  168MOL0     H22629  10.551   4.847  10.959  2.4292 -1.8205  0.7341
  168MOL0     H22630  10.413   4.898  11.065  1.2875  0.3865  2.9533
  168MOL0     H22631  10.450   4.810  11.311 -1.6882 -0.9950 -2.4204
  168MOL0     H22632  10.711   4.780  11.552  1.0449 -0.7755 -0.8127
  168MOL0     H22633  10.542   4.737  11.527  0.9426  1.2441  2.1694
  168MOL0     H22634  10.650   4.510  11.442  1.4210 -1.4102  0.1754
  168MOL0     H22635  10.800   4.565  11.511 -0.4341 -2.7597 -1.6319
  168MOL0     H22636  10.530   4.507  11.648  0.3350 -0.7818 -0.7509
  168MOL0     H22637  10.650   4.588  11.739  0.6962 -0.7719 -0.5790
  168MOL0     H22638  10.676   4.328  11.609 -2.2447  0.7289  1.1170
  168MOL0     H22639  10.694   4.347  11.779 -1.4311 -2.1717 -0.7061
  168MOL0     H22640  10.856   4.247  11.508 -2.3366  0.9366  1.6957
  168MOL0     H22641  11.010   4.055  11.505  0.6264  1.2811 -1.8312
  168MOL0     H22642  11.342   3.782  11.899  1.6207  1.8535  2.8720
  168MOL0     H22643  11.504   3.583  11.869 -0.9565 -1.5507 -3.0047
  168MOL0     H22644  11.885   3.659  11.652  0.8706 -2.2453 -0.5578
  168MOL0     H22645  11.843   3.715  11.818 -0.2630  0.9649 -0.0410
  168MOL0     H22646  11.919   3.418  11.744 -1.6453 -0.1559  0.7312
  168MOL0     H22647  12.032   3.537  11.810  0.3558 -0.0468  1.3764
  168MOL0     H22648  11.785   3.450  11.957 -0.6271  2.0544 -0.5829
  168MOL0     H22649  11.947   3.385  11.975 -1.5300 -1.0266 -2.0735
  168MOL0     H22650  11.870   3.678  12.043 -0.1193  1.0757  2.4532
  168MOL0     H22651  12.028   3.611  12.038 -0.6475 -0.3747  1.0812
  168MOL0     H22652  11.906   3.418  12.193 -1.2296 -0.9012  0.9070
  168MOL0     H22653  11.777   3.535  12.202  0.1215  2.6856 -0.9292
  168MOL0     H22654  11.945   3.539  12.401 -2.2292 -0.7164  0.5270
  168MOL0     H22655  12.069   3.597  12.283 -0.4068  1.3243  0.0417
  168MOL0     H22656  11.832   3.752  12.295 -1.0510  0.6368  2.0892
  168MOL0     H22657  12.004   3.798  12.297 -1.6318  2.0991  1.1258
  168MOL0     H22658  11.878   3.855  12.518 -1.5482 -0.4309  1.2696
  168MOL0     H22659  11.853   3.674  12.521  0.8846 -0.5902  0.8454
  168MOL0     H22660  11.697   3.806  11.566  1.0196 -2.0929  0.4569
  168MOL0     H22661  11.553   3.992  11.596 -2.0742  1.7908 -0.1375
  168MOL0     H22662  11.226   4.230  11.837 -0.2139 -2.5498  1.7619
  168MOL0     H22663  11.053   4.417  11.842 -2.0046 -0.9944  3.2640
  168MOL0     H22664   9.552   4.791  10.549 -2.6494 -0.2047  1.0108
  168MOL0     H22665   9.391   4.929  10.423  0.4063  1.6542 -2.0168
  168MOL0     H22666   9.212   5.180  10.267  0.8789 -1.4852 -1.7815
  168MOL0     H22667   9.027   5.274  10.147 -0.4174  0.6582 -0.9608
  168MOL0     H22668   8.953   5.369   9.934  0.5478 -1.0810  1.1291
  168MOL0     H22669   8.891   5.533   9.910  1.7479  1.5171  0.5413
  168MOL0     H22670   8.773   5.520  10.129 -0.7891 -0.1617  0.1942
  168MOL0     H22671   8.832   5.363  10.164  0.3181  1.0827  0.3907
  168MOL0     H22672   8.720   5.284   9.946 -1.2049 -0.9877 -0.2447
  168MOL0     H22673   8.638   5.445   9.952 -1.5317 -0.4759  0.9626
  168MOL0     H22674   8.638   5.254  10.191  0.1172  2.9142  1.2552
  168MOL0     H22675   8.533   5.395  10.166 -0.1515 -0.7410  1.7163
  168MOL0     H22676   8.336   5.063   9.992 -2.8723  2.6218  1.8621
  168MOL0     H22677   9.258   5.623  10.071 -3.5137  1.3269  0.1357
  168MOL0     H22678   9.465   5.671  10.166  1.9146  1.1564  0.5124
  168MOL0     H22679   9.503   5.586  10.311  0.7085 -0.2979 -0.2010
  168MOL0     H22680   9.556   5.521  10.155  0.3127  0.5785  1.1533
  169MOL0     O22681   3.084   3.743   1.923  0.2735  0.1331  0.1251
  169MOL0     C22682   3.144   3.654   1.986  0.5035  0.0266  0.5168
  169MOL0     O22683   3.093   3.563   2.066  0.7293  1.1142  0.1199
  169MOL0     C22684   2.962   3.579   2.109  0.5730 -0.4364  0.0176
  169MOL0     C22685   2.920   3.701   2.161 -0.4604  0.1722  0.1754
  169MOL0     C22686   2.803   3.707   2.222 -0.3004 -0.0948 -0.0314
  169MOL0     C22687   2.706   3.611   2.209  0.8694  1.2518 -0.9527
  169MOL0     O22688   2.581   3.639   2.270  0.3209  0.0593  0.1638
  169MOL0     C22689   2.469   3.547   2.262 -0.7946 -0.0152  0.2433
  169MOL0     C22690   2.340   3.616   2.288  0.1984 -0.0763 -0.5501
  169MOL0     C22691   2.289   3.697   2.163 -2.1547 -0.5174 -0.0161
  169MOL0     C22692   2.146   3.747   2.173 -0.3871  0.4612 -0.5722
  169MOL0     C22693   2.089   3.843   2.066 -0.7056  0.0025  0.0959
  169MOL0     C22694   2.160   3.977   2.070 -0.0463  0.6358  0.1494
  169MOL0     C22695   2.081   4.072   1.972  0.3420 -0.3800 -0.2896
  169MOL0     C22696   2.170   4.175   1.901 -1.1603 -1.0341 -0.2203
  169MOL0     N22697   2.187   4.299   1.982 -0.5315 -0.0572  0.3555
  169MOL0     C22698   2.297   4.313   2.063 -0.2414  0.2887 -0.3697
  169MOL0     C22699   2.290   4.441   2.107 -1.7016 -0.4275  0.2111
  169MOL0     C22700   2.393   4.501   2.199 -0.6759 -0.5249  0.5726
  169MOL0     C22701   2.410   4.657   2.181  1.1835  0.1186 -0.9686
  169MOL0     C22702   2.445   4.697   2.033 -0.6107  0.4862  0.0664
  169MOL0     C22703   2.592   4.714   2.009 -0.5245  0.2883  0.5187
  169MOL0     O22704   2.639   4.579   2.022 -0.1010 -0.2613 -0.2426
  169MOL0     C22705   2.774   4.561   2.019 -0.4432  0.6970 -0.0337
  169MOL0     C22706   2.860   4.601   1.913  0.4565  1.4656  0.0054
  169MOL0     C22707   2.995   4.578   1.922 -0.0122 -0.6083  0.2114
  169MOL0     C22708   3.046   4.515   2.035 -0.7172  0.1374 -0.0561
  169MOL0     C22709   3.194   4.509   2.037 -0.7353  0.0668 -0.3897
  169MOL0     O22710   3.258   4.612   1.964 -1.1992  0.1736  0.4361
  169MOL0     C22711   3.398   4.598   1.951 -0.2213  0.0957 -0.5762
  169MOL0     C22712   3.487   4.666   2.033  0.0254 -0.4738 -0.3796
  169MOL0     C22713   3.625   4.666   2.009  0.4938  0.7803 -0.3846
  169MOL0     C22714   3.669   4.601   1.894 -0.3329  0.3370 -0.2508
  169MOL0     O22715   3.804   4.610   1.854  0.3255  0.2561 -0.2531
  169MOL0     C22716   3.862   4.502   1.789  0.8122  0.3434  0.0216
  169MOL0     C22717   4.007   4.484   1.828 -0.5850  0.1680 -0.0986
  169MOL0     C22718   4.039   4.491   1.979  0.1239 -0.6256  0.3145
  169MOL0     C22719   3.961   4.381   2.060 -0.4081 -0.8986 -0.7551
  169MOL0     C22720   4.006   4.388   2.206  0.3278 -0.5670 -0.2745
  169MOL0     C22721   4.144   4.319   2.216  0.3660 -0.9515 -0.1812
  169MOL0     C22722   4.168   4.321   2.366  0.3852 -0.7939 -1.2793
  169MOL0     C22723   4.196   4.466   2.421 -0.5092  0.0529  0.0590
  169MOL0    Cl22724   4.329   4.459   2.549 -0.1300 -0.3555 -0.1196
  169MOL0     C22725   3.574   4.527   1.819 -0.3698 -0.2494  0.4200
  169MOL0     C22726   3.441   4.519   1.851 -0.2397 -0.4529 -0.2576
  169MOL0     O22727   3.256   4.425   2.104 -0.2410 -0.3099  1.0360
  169MOL0     C22728   2.966   4.467   2.136  0.4235 -0.2129 -0.2448
  169MOL0     C22729   2.830   4.495   2.123 -0.1103  1.1482 -0.0125
  169MOL0     N22730   2.168   4.497   2.069 -0.2186  0.2616  0.0371
  169MOL0     N22731   2.106   4.408   1.987  0.6909  0.6874  0.2024
  169MOL0     C22732   2.742   3.482   2.167 -0.4072 -0.0973 -0.1818
  169MOL0     C22733   2.872   3.473   2.111  0.1861 -0.1003  1.0348
  169MOL0     C22734   3.290   3.645   1.962  0.3498 -0.5583 -0.4541
  169MOL0     C22735   3.323   3.634   1.831  0.5438  0.3095  0.4065
  169MOL0     C22736   3.454   3.621   1.791 -0.6437 -0.3260  0.3376
  169MOL0     C22737   3.556   3.632   1.889 -0.1544  0.7830  0.6392
  169MOL0     O22738   3.681   3.602   1.848  0.0707 -0.4615 -0.1517
  169MOL0     C22739   3.774   3.548   1.946 -0.2340 -0.2088  0.3196
  169MOL0     C22740   3.905   3.522   1.869  0.6665  0.8601 -0.2607
  169MOL0     C22741   3.992   3.419   1.941  0.0007  0.5029  1.0894
  169MOL0     C22742   4.039   3.473   2.078  0.2236  0.4151 -0.2998
  169MOL0     C22743   3.949   3.450   2.190  0.3014  0.6696 -0.0377
  169MOL0     C22744   3.863   3.438   2.273  0.2890 -0.1503 -0.6748
  169MOL0     C22745   3.517   3.649   2.021 -0.9635 -0.0235  0.2591
  169MOL0     C22746   3.389   3.657   2.064  0.1286  0.2837  0.1425
  169MOL0     C22747   3.351   3.675   2.210  0.1789  0.1931 -0.7902
  169MOL0     H22748   2.991   3.781   2.177  1.9892 -1.7356 -0.5997
  169MOL0     H22749   2.772   3.801   2.266  1.8493 -0.2710  2.0946
  169MOL0     H22750   2.461   3.499   2.165 -0.6695 -1.4232  0.9094
  169MOL0     H22751   2.478   3.468   2.337  3.2148  0.3212  0.3617
  169MOL0     H22752   2.358   3.680   2.374 -0.2148 -0.5305 -0.1229
  169MOL0     H22753   2.264   3.541   2.310 -0.2760  1.1725  2.4088
  169MOL0     H22754   2.296   3.639   2.070  2.5173 -0.4128  0.0237
  169MOL0     H22755   2.357   3.783   2.158  1.7113 -3.3271 -0.6474
  169MOL0     H22756   2.086   3.656   2.182 -0.6784  0.3814 -2.7270
  169MOL0     H22757   2.136   3.806   2.265 -1.0997 -1.2623  0.5102
  169MOL0     H22758   2.113   3.788   1.974 -1.7810 -2.5376  1.2317
  169MOL0     H22759   1.981   3.860   2.077 -1.0627 -1.8418 -0.1861
  169MOL0     H22760   2.167   4.021   2.170 -0.7941  0.3550  0.3363
  169MOL0     H22761   2.259   3.959   2.027 -0.8790 -2.5638 -0.6888
  169MOL0     H22762   1.997   4.127   2.016  0.4201  0.8018 -1.5373
  169MOL0     H22763   2.020   4.014   1.902 -0.9007  1.1885 -0.5490
  169MOL0     H22764   2.265   4.138   1.859  0.5086  1.4359  1.1298
  169MOL0     H22765   2.119   4.202   1.808  1.8471  1.6167 -1.2771
  169MOL0     H22766   2.372   4.242   2.095 -1.1423 -0.0767  1.0634
  169MOL0     H22767   2.368   4.471   2.302  0.4744  0.7173  1.2386
  169MOL0     H22768   2.489   4.452   2.182 -0.0165 -0.0867  2.7714
  169MOL0     H22769   2.312   4.698   2.204  1.7851 -0.4251  3.5677
  169MOL0     H22770   2.483   4.700   2.250  0.0934  2.0693 -0.9890
  169MOL0     H22771   2.391   4.792   2.024  0.2568  0.8270 -2.0220
  169MOL0     H22772   2.409   4.621   1.964  2.4720 -1.4617  0.4028
  169MOL0     H22773   2.648   4.778   2.078 -1.2917  1.7947 -0.1963
  169MOL0     H22774   2.613   4.754   1.909  0.2934  0.4450  0.7444
  169MOL0     H22775   2.821   4.656   1.827 -0.2633  0.5583 -0.2712
  169MOL0     H22776   3.057   4.629   1.848 -0.0853  0.2032  0.6973
  169MOL0     H22777   3.448   4.726   2.114  0.4397  1.6447 -1.6870
  169MOL0     H22778   3.705   4.713   2.065  2.4837 -1.8128 -0.8436
  169MOL0     H22779   3.803   4.411   1.806  1.3561 -0.3452 -1.4965
  169MOL0     H22780   3.856   4.511   1.680 -1.1109  0.0853  0.0841
  169MOL0     H22781   4.039   4.383   1.800  0.1957  0.5512 -0.6114
  169MOL0     H22782   4.074   4.554   1.777 -0.8296  0.4369 -0.0515
  169MOL0     H22783   4.148   4.484   1.982  0.4387  2.9564  1.2993
  169MOL0     H22784   4.007   4.586   2.023  0.3313  0.0102 -0.8720
  169MOL0     H22785   3.994   4.285   2.020 -1.7637 -1.6853 -0.0525
  169MOL0     H22786   3.852   4.392   2.062 -0.3022  0.1781  0.8576
  169MOL0     H22787   3.938   4.326   2.265 -0.6527  1.0621  0.3776
  169MOL0     H22788   4.007   4.495   2.231 -0.4019 -0.7782  0.7076
  169MOL0     H22789   4.135   4.220   2.172 -1.3547  0.0568 -2.2586
  169MOL0     H22790   4.226   4.372   2.166  1.6710 -2.3334  0.4082
  169MOL0     H22791   4.254   4.260   2.396 -0.3619 -0.6772  1.4092
  169MOL0     H22792   4.085   4.275   2.422  0.3351  0.9345  0.1419
  169MOL0     H22793   4.243   4.521   2.339 -1.9616 -2.7350 -2.8721
  169MOL0     H22794   4.101   4.507   2.456  0.3119  0.6388  1.6903
  169MOL0     H22795   3.605   4.474   1.730 -0.8683 -2.1671  1.3298
  169MOL0     H22796   3.370   4.460   1.794  0.8324 -0.8395 -1.2410
  169MOL0     H22797   3.021   4.414   2.213  3.0290  1.8157 -0.5759
  169MOL0     H22798   2.765   4.463   2.204 -1.6347 -2.5682 -2.4714
  169MOL0     H22799   2.669   3.402   2.169 -2.4041  1.2788 -4.6245
  169MOL0     H22800   2.903   3.374   2.078 -0.0342  0.5914 -1.4963
  169MOL0     H22801   3.251   3.641   1.750  1.9108 -0.3178 -0.9100
  169MOL0     H22802   3.462   3.605   1.684 -1.0860  0.3395  0.1966
  169MOL0     H22803   3.731   3.458   1.989 -1.8855 -0.4782 -1.7270
  169MOL0     H22804   3.791   3.622   2.025  0.5124  0.0653 -0.0859
  169MOL0     H22805   3.954   3.619   1.857 -3.7350  3.1658 -2.0155
  169MOL0     H22806   3.876   3.474   1.775 -2.7468 -3.7785  2.7599
  169MOL0     H22807   4.077   3.404   1.874  1.8711  1.0904  3.2336
  169MOL0     H22808   3.941   3.324   1.961 -0.3840  0.2876 -0.6923
  169MOL0     H22809   4.128   3.413   2.102 -1.0108 -0.5387  2.2427
  169MOL0     H22810   4.058   3.579   2.060 -3.1617  0.8375 -2.1577
  169MOL0     H22811   3.786   3.415   2.344 -1.3880  1.4828 -1.8623
  169MOL0     H22812   3.595   3.658   2.097 -2.0367  0.1234  1.3819
  169MOL0     H22813   3.429   3.716   2.275  1.4044 -0.2881 -1.8980
  169MOL0     H22814   3.265   3.742   2.219  0.5680  0.8024 -1.4571
  169MOL0     H22815   3.314   3.584   2.257  0.7907  0.7799  0.9005
  170MOL0     O22816  10.178   4.927   6.673 -0.8202  0.4941  0.1639
  170MOL0     C22817  10.266   4.963   6.601 -0.5237  0.4709 -0.2049
  170MOL0     O22818  10.399   4.945   6.616 -0.5472  0.3689  0.9829
  170MOL0     C22819  10.452   4.895   6.727  0.0121  0.9420  0.0924
  170MOL0     C22820  10.500   4.981   6.825  0.1967  0.0408 -0.5468
  170MOL0     C22821  10.540   4.933   6.948  0.2356 -0.9878 -0.6301
  170MOL0     C22822  10.556   4.794   6.970  0.2935 -0.2046  0.2042
  170MOL0     O22823  10.587   4.753   7.096 -0.1998  0.2608 -0.6173
  170MOL0     C22824  10.686   4.821   7.169  1.1793 -0.0492 -0.1024
  170MOL0     C22825  10.741   4.739   7.289 -0.3444 -0.3174  0.1535
  170MOL0     C22826  10.792   4.596   7.252  0.1026  0.1068 -0.4383
  170MOL0     C22827  10.893   4.547   7.359  0.1762  0.2019 -0.2551
  170MOL0     C22828  10.963   4.421   7.301  0.5684 -0.2213  0.6344
  170MOL0     C22829  11.054   4.363   7.400 -0.2695  0.1293  0.1269
  170MOL0     C22830  11.140   4.251   7.331 -0.8517  0.9495 -1.0614
  170MOL0     C22831  11.196   4.153   7.442  0.2914 -0.8353  0.9862
  170MOL0     N22832  11.233   4.228   7.570  0.9125  0.2909  0.3831
  170MOL0     C22833  11.341   4.309   7.591 -1.0290  0.2653 -0.7068
  170MOL0     C22834  11.316   4.360   7.723 -0.7201  0.3535  0.5490
  170MOL0     C22835  11.408   4.450   7.799 -0.2806  0.3017 -0.1178
  170MOL0     C22836  11.539   4.378   7.822 -0.7212 -0.7193 -0.1187
  170MOL0     C22837  11.525   4.262   7.918 -0.0378  1.0374  0.5754
  170MOL0     C22838  11.651   4.175   7.916 -0.1572  0.3586 -0.1218
  170MOL0     O22839  11.767   4.254   7.955 -0.0662  0.9411  0.1258
  170MOL0     C22840  11.893   4.200   7.961  0.0862  0.2237 -0.3356
  170MOL0     C22841  11.920   4.076   7.901 -0.2268  0.1841 -0.1169
  170MOL0     C22842  12.048   4.023   7.904 -0.2951  0.6810  0.5284
  170MOL0     C22843  12.155   4.101   7.959  0.2611  0.6541  0.7223
  170MOL0     C22844  12.298   4.061   7.941  0.4087 -0.7258  0.1444
  170MOL0     O22845  12.400   4.152   7.987  0.7104 -0.0803  0.2207
  170MOL0     C22846  12.530   4.153   7.952 -0.2123  0.5601  0.0234
  170MOL0     C22847  12.605   4.236   8.029  0.1530  0.6645 -0.4347
  170MOL0     C22848  12.746   4.242   8.019  0.1988  0.5279  0.6711
  170MOL0     C22849  12.809   4.151   7.918  0.2950 -0.5644 -0.4562
  170MOL0     O22850  12.947   4.148   7.893 -0.0152  0.4719  0.0991
  170MOL0     C22851  13.033   4.244   7.945 -0.9709 -0.0494 -0.5721
  170MOL0     C22852  13.180   4.204   7.915  0.9028  0.4150 -0.3893
  170MOL0     C22853  13.276   4.289   7.978  0.3602 -0.4075  0.4282
  170MOL0     C22854  13.421   4.231   7.991  0.2880  0.9736 -0.2734
  170MOL0     C22855  13.511   4.260   7.872  0.1834  0.3572 -0.5913
  170MOL0     C22856  13.631   4.157   7.847  0.0959 -0.0909 -0.3926
  170MOL0     C22857  13.699   4.201   7.715  0.4624  0.9193  0.5764
  170MOL0     C22858  13.793   4.098   7.663  0.4875 -0.4222 -0.1581
  170MOL0    Cl22859  13.937   4.084   7.782  0.0428 -0.1939 -0.4680
  170MOL0     C22860  12.727   4.075   7.835  0.1416 -0.1094  1.2430
  170MOL0     C22861  12.592   4.073   7.853  0.1017 -0.7076  0.8761
  170MOL0     O22862  12.315   3.955   7.879 -0.0037 -0.0500 -0.2085
  170MOL0     C22863  12.126   4.217   8.023 -0.1589 -0.1807  0.1590
  170MOL0     C22864  11.996   4.264   8.026 -0.5571  0.1449 -0.3916
  170MOL0     N22865  11.205   4.295   7.771  0.3627  0.5811  0.2899
  170MOL0     N22866  11.147   4.229   7.678 -0.2809  0.4451 -0.3045
  170MOL0     C22867  10.526   4.705   6.869  0.7646  0.7656  0.2970
  170MOL0     C22868  10.467   4.755   6.749  0.5713  0.0621 -0.0671
  170MOL0     C22869  10.224   5.059   6.495 -0.2368 -0.4643  0.5962
  170MOL0     C22870  10.328   5.122   6.418 -0.2551  0.0466 -0.5104
  170MOL0     C22871  10.295   5.210   6.317  0.1538 -0.3121 -0.0390
  170MOL0     C22872  10.165   5.237   6.276  0.1113  0.1409 -0.6103
  170MOL0     O22873  10.130   5.329   6.184  0.6412  0.3742 -0.1317
  170MOL0     C22874  10.218   5.349   6.079  0.0760  0.1036  0.6742
  170MOL0     C22875  10.143   5.424   5.977  0.4180  0.8542  0.2647
  170MOL0     C22876  10.229   5.433   5.844  0.6470 -0.2429  0.4670
  170MOL0     C22877  10.259   5.586   5.798  0.0869  0.4804 -0.9644
  170MOL0     C22878  10.340   5.580   5.675  0.3019 -0.2454  0.0531
  170MOL0     C22879  10.411   5.555   5.581 -0.8228 -0.8378  0.8249
  170MOL0     C22880  10.064   5.181   6.350 -0.0653 -0.1841  0.0068
  170MOL0     C22881  10.094   5.101   6.463  0.4750 -0.0972  0.2081
  170MOL0     C22882   9.964   5.038   6.520  0.1767  0.1792 -0.1537
  170MOL0     H22883  10.485   5.087   6.807 -4.2697 -0.1265  0.9552
  170MOL0     H22884  10.574   4.999   7.026  0.7473 -1.1823 -0.6834
  170MOL0     H22885  10.770   4.852   7.106  1.1373 -1.8139 -1.0859
  170MOL0     H22886  10.645   4.912   7.215  0.4068 -0.4170 -0.0550
  170MOL0     H22887  10.657   4.722   7.356 -2.6500  0.7101 -2.2627
  170MOL0     H22888  10.812   4.806   7.339 -2.6843  0.6404  2.4377
  170MOL0     H22889  10.837   4.598   7.152  0.8695 -1.8794 -0.1702
  170MOL0     H22890  10.718   4.516   7.251  0.4268 -0.2252  0.8936
  170MOL0     H22891  10.958   4.627   7.397 -0.7030  0.8261 -0.0190
  170MOL0     H22892  10.841   4.509   7.447  1.3310 -1.0350 -0.0773
  170MOL0     H22893  10.885   4.349   7.274  1.0474 -1.2036  1.7646
  170MOL0     H22894  11.019   4.453   7.213  0.8150 -2.2825 -0.0072
  170MOL0     H22895  11.113   4.448   7.438  1.1418 -1.1240  0.8538
  170MOL0     H22896  10.999   4.330   7.488  0.3217 -0.6892  0.2006
  170MOL0     H22897  11.216   4.305   7.274  1.2062 -0.2389  0.4241
  170MOL0     H22898  11.088   4.185   7.260 -0.8570 -0.1907 -0.0314
  170MOL0     H22899  11.112   4.086   7.465 -0.0959  0.2067  2.8411
  170MOL0     H22900  11.283   4.092   7.418 -0.6989 -1.9020 -0.0308
  170MOL0     H22901  11.431   4.322   7.531 -1.1088 -0.7452 -1.0707
  170MOL0     H22902  11.421   4.544   7.744 -0.8945 -0.3094 -1.3440
  170MOL0     H22903  11.355   4.474   7.892 -0.3769  0.9212 -0.3270
  170MOL0     H22904  11.587   4.349   7.729  1.5884  2.1164  0.0481
  170MOL0     H22905  11.596   4.460   7.868  2.6192 -2.3712 -1.0530
  170MOL0     H22906  11.436   4.198   7.913  1.2340 -0.9172  1.6624
  170MOL0     H22907  11.525   4.302   8.020 -1.1309  0.6370  0.7500
  170MOL0     H22908  11.669   4.142   7.813  0.8441  0.5267 -0.0069
  170MOL0     H22909  11.635   4.090   7.983  1.3722 -0.3541 -0.6147
  170MOL0     H22910  11.852   4.018   7.839 -0.7375 -0.0422  0.6482
  170MOL0     H22911  12.072   3.930   7.853 -0.5691 -0.4468  2.3519
  170MOL0     H22912  12.562   4.291   8.112  2.4859  1.2742  0.4487
  170MOL0     H22913  12.806   4.313   8.075  1.5857 -0.3495  0.3392
  170MOL0     H22914  13.010   4.344   7.906  0.3829  0.4627 -0.1180
  170MOL0     H22915  13.014   4.248   8.053  1.4485 -1.2865 -0.0398
  170MOL0     H22916  13.190   4.100   7.947 -2.6991  0.3171  0.8653
  170MOL0     H22917  13.193   4.205   7.806 -0.4201 -1.6631 -0.6348
  170MOL0     H22918  13.289   4.386   7.929  1.5244  0.5075  2.4404
  170MOL0     H22919  13.237   4.308   8.078 -3.2422 -1.7715 -0.5566
  170MOL0     H22920  13.410   4.122   7.997  0.3509  1.0336  1.1631
  170MOL0     H22921  13.466   4.266   8.084  1.0582  1.3352 -0.7704
  170MOL0     H22922  13.570   4.350   7.886  0.6140  0.0196 -0.2387
  170MOL0     H22923  13.442   4.248   7.787 -0.7101 -1.8226  0.3697
  170MOL0     H22924  13.696   4.164   7.935 -1.0104  0.9874  0.3660
  170MOL0     H22925  13.594   4.055   7.838 -3.9603  1.3343 -2.0321
  170MOL0     H22926  13.747   4.299   7.710  2.9648 -0.2918 -1.5205
  170MOL0     H22927  13.612   4.202   7.648 -0.0870 -1.1970  1.1886
  170MOL0     H22928  13.732   4.008   7.653 -1.3886  0.9182 -1.5342
  170MOL0     H22929  13.821   4.125   7.561  0.9357  1.2736  0.3900
  170MOL0     H22930  12.774   4.015   7.758  0.4344 -0.4128  1.6598
  170MOL0     H22931  12.534   4.021   7.777  0.3242  1.0789 -0.6023
  170MOL0     H22932  12.201   4.286   8.062  0.5573 -0.0427 -1.3631
  170MOL0     H22933  11.980   4.361   8.073 -0.8620  0.3090 -0.8286
  170MOL0     H22934  10.545   4.599   6.879  1.4332  0.6763 -1.5568
  170MOL0     H22935  10.444   4.679   6.675  2.6085  0.4251 -1.1360
  170MOL0     H22936  10.431   5.090   6.434  0.4799  0.9826 -3.0101
  170MOL0     H22937  10.377   5.263   6.270 -1.0944  2.5100  0.7218
  170MOL0     H22938  10.249   5.250   6.043 -0.5650  0.3871 -0.7334
  170MOL0     H22939  10.297   5.409   6.125 -1.1518  0.4538  2.4177
  170MOL0     H22940  10.114   5.523   6.012  0.9775  2.0638 -2.4697
  170MOL0     H22941  10.049   5.373   5.957  0.0898  1.9541 -1.1309
  170MOL0     H22942  10.173   5.395   5.758  1.0497 -2.2172  1.0225
  170MOL0     H22943  10.321   5.374   5.858 -0.7862 -2.8972 -0.4964
  170MOL0     H22944  10.164   5.641   5.798 -0.2499  0.0152  1.3669
  170MOL0     H22945  10.308   5.631   5.885 -1.8057 -1.3355  1.1614
  170MOL0     H22946  10.470   5.529   5.496 -1.5642 -1.7965  0.5850
  170MOL0     H22947   9.962   5.207   6.322 -0.3661 -1.0031  0.3085
  170MOL0     H22948   9.960   4.931   6.497  0.6640  0.1199  0.0276
  170MOL0     H22949   9.963   5.060   6.627  1.9056  3.7925 -0.7282
  170MOL0     H22950   9.871   5.071   6.473 -0.6013 -1.7527 -0.0571
  171MOL0     O22951   1.025   3.415   9.971 -0.3113  0.1914 -0.2416
  171MOL0     C22952   0.986   3.490   9.883 -0.4949 -0.2437 -1.0076
  171MOL0     O22953   1.067   3.586   9.823  0.0733  0.5060 -0.0622
  171MOL0     C22954   1.193   3.621   9.879 -0.0802  0.4360  1.0304
  171MOL0     C22955   1.300   3.528   9.911 -0.1021 -0.1765 -0.0529
  171MOL0     C22956   1.418   3.574   9.968  0.6810 -0.0264  0.1465
  171MOL0     C22957   1.439   3.713   9.993  0.5166 -0.5584 -0.2247
  171MOL0     O22958   1.557   3.748  10.052  0.0248 -0.4904 -0.3122
  171MOL0     C22959   1.567   3.879  10.111 -0.4553  0.0807  0.4232
  171MOL0     C22960   1.702   3.888  10.185 -0.9581  0.2504  0.5479
  171MOL0     C22961   1.746   4.033  10.228  0.5405  0.0293 -0.2706
  171MOL0     C22962   1.900   4.043  10.220  0.4853 -0.2382 -0.8788
  171MOL0     C22963   1.941   4.057  10.076 -1.1497 -0.7397 -0.1670
  171MOL0     C22964   2.063   4.142  10.056  0.4238  0.6047  0.1044
  171MOL0     C22965   2.107   4.140   9.908 -0.3955 -0.4430 -0.8327
  171MOL0     C22966   2.208   4.238   9.880  0.7299  0.9495  0.0307
  171MOL0     N22967   2.333   4.217   9.959  0.2484  0.3454 -0.5145
  171MOL0     C22968   2.366   4.254  10.089  0.3947 -0.6716 -0.5735
  171MOL0     C22969   2.487   4.191  10.122 -0.1546 -0.4663 -0.2437
  171MOL0     C22970   2.575   4.226  10.240  0.0800  0.3512  0.0977
  171MOL0     C22971   2.718   4.164  10.224 -1.6374 -0.5153  0.1135
  171MOL0     C22972   2.811   4.230  10.321  0.2008  0.2897  0.2468
  171MOL0     C22973   2.944   4.158  10.330 -0.7880  0.1113  0.7356
  171MOL0     O22974   3.026   4.214  10.431  0.2737  0.4808 -0.0479
  171MOL0     C22975   3.130   4.139  10.483  0.5264 -0.0922 -0.2748
  171MOL0     C22976   3.186   4.019  10.431 -0.2315  0.5669 -0.4236
  171MOL0     C22977   3.312   3.965  10.481 -0.8269  0.1972  0.3136
  171MOL0     C22978   3.377   4.041  10.577 -0.4424 -0.2964  0.6492
  171MOL0     C22979   3.514   4.004  10.614  0.6564  0.3534 -0.6924
  171MOL0     O22980   3.597   4.095  10.675  0.3195 -0.4958  0.1588
  171MOL0     C22981   3.730   4.056  10.710  0.4004 -0.1082  0.7620
  171MOL0     C22982   3.748   3.960  10.813  0.8317 -1.1128 -0.6755
  171MOL0     C22983   3.871   3.912  10.846  0.3653 -0.5913  0.2776
  171MOL0     C22984   3.988   3.968  10.783 -0.9906  0.5686 -0.1656
  171MOL0     O22985   4.124   3.945  10.809  0.1587 -0.0715  0.1511
  171MOL0     C22986   4.161   3.868  10.925  0.7892  0.1240 -0.3401
  171MOL0     C22987   4.304   3.886  10.955  0.1199 -0.7337 -1.0617
  171MOL0     C22988   4.335   4.040  10.980  0.1914  0.5879  1.0629
  171MOL0     C22989   4.444   4.076  11.086  0.3470 -0.1621  0.6576
  171MOL0     C22990   4.504   4.217  11.044 -0.5815  0.0948 -0.2004
  171MOL0     C22991   4.580   4.278  11.159  0.0770 -0.8303 -0.5547
  171MOL0     C22992   4.685   4.377  11.103  0.2152  0.3932  0.0735
  171MOL0     C22993   4.741   4.468  11.208 -0.5562  0.6323  0.6795
  171MOL0    Cl22994   4.847   4.378  11.316  0.1881  0.0354 -0.4218
  171MOL0     C22995   3.969   4.055  10.675  0.2676 -0.7596 -0.2395
  171MOL0     C22996   3.836   4.101  10.640  0.7461 -0.8687 -0.2476
  171MOL0     O22997   3.548   3.893  10.599 -0.0233 -0.1536  0.7808
  171MOL0     C22998   3.315   4.154  10.644 -0.1984 -0.2577  0.9452
  171MOL0     C22999   3.193   4.204  10.592 -0.6521  0.4362  0.1219
  171MOL0     N23000   2.508   4.111  10.017 -0.5132 -0.1664  0.2119
  171MOL0     N23001   2.433   4.137   9.912  0.0657  0.1418 -0.3770
  171MOL0     C23002   1.343   3.803   9.948 -0.1011 -0.2539  0.0574
  171MOL0     C23003   1.225   3.755   9.895  0.1349  0.0870  0.6429
  171MOL0     C23004   0.841   3.494   9.840  0.0046  0.3384 -0.3452
  171MOL0     C23005   0.790   3.603   9.763  0.9411 -0.5016  0.2526
  171MOL0     C23006   0.653   3.624   9.741 -0.0227 -0.0136  0.4111
  171MOL0     C23007   0.562   3.519   9.773  0.1684 -0.3512  0.4223
  171MOL0     O23008   0.433   3.522   9.726 -0.6714  0.2142  0.0593
  171MOL0     C23009   0.343   3.622   9.760  0.4256 -0.2445 -0.4113
  171MOL0     C23010   0.209   3.583   9.707 -0.3175 -0.2010  0.2407
  171MOL0     C23011   0.159   3.453   9.764  0.8156  0.2678  1.0567
  171MOL0     C23012   0.006   3.450   9.769 -0.2281 -0.4717 -0.1791
  171MOL0     C23013  -0.037   3.321   9.819  0.8774 -1.0354  0.8612
  171MOL0     C23014  -0.072   3.209   9.855  0.6095  0.4010  0.1839
  171MOL0     C23015   0.617   3.411   9.834  0.7332 -0.5411 -0.5288
  171MOL0     C23016   0.748   3.387   9.872 -0.0088  0.2762  0.1564
  171MOL0     C23017   0.773   3.261   9.942  0.2867  0.6623 -0.2453
  171MOL0     H23018   1.282   3.421   9.901  0.4373 -0.3353  0.6193
  171MOL0     H23019   1.482   3.494  10.005 -0.6553 -1.3967 -0.3883
  171MOL0     H23020   1.568   3.952  10.030  0.7973  0.9734  1.2057
  171MOL0     H23021   1.478   3.894  10.172 -1.0788 -2.3347  0.2069
  171MOL0     H23022   1.780   3.865  10.112  1.3042  1.1144  2.5376
  171MOL0     H23023   1.723   3.820  10.268  1.1148 -2.1643 -1.7623
  171MOL0     H23024   1.697   4.061  10.322 -0.9688  0.3969 -1.1328
  171MOL0     H23025   1.703   4.115  10.169 -0.4808  1.2932  2.0576
  171MOL0     H23026   1.935   4.130  10.275  0.5605  0.0478 -1.3770
  171MOL0     H23027   1.947   3.949  10.251 -1.2602 -1.2709 -1.1831
  171MOL0     H23028   1.979   3.963  10.038  0.1194 -0.4722  0.3933
  171MOL0     H23029   1.862   4.094  10.010 -0.4510 -1.3864 -1.3981
  171MOL0     H23030   2.051   4.248  10.082  3.1723  1.1003 -0.4236
  171MOL0     H23031   2.143   4.106  10.121 -1.4108 -0.0728  2.1064
  171MOL0     H23032   2.017   4.155   9.848 -0.8991 -0.8162 -0.1819
  171MOL0     H23033   2.148   4.041   9.887  1.9316  0.3401 -0.3490
  171MOL0     H23034   2.231   4.213   9.776  1.7686 -2.7085  0.9931
  171MOL0     H23035   2.175   4.341   9.892  1.2061  0.9241  1.7691
  171MOL0     H23036   2.319   4.336  10.144  1.2981 -0.6335  0.1681
  171MOL0     H23037   2.577   4.335  10.239  0.1365  0.3691 -1.8159
  171MOL0     H23038   2.530   4.186  10.331  0.9374 -0.8826  0.0149
  171MOL0     H23039   2.718   4.055  10.228 -0.0672 -0.5959 -1.0199
  171MOL0     H23040   2.747   4.201  10.125  2.3107 -1.3533  0.7869
  171MOL0     H23041   2.767   4.217  10.420 -0.1658 -1.1689 -0.0830
  171MOL0     H23042   2.830   4.334  10.292  4.1596 -0.4716 -0.5105
  171MOL0     H23043   2.985   4.157  10.229  2.0997  0.3863  1.7991
  171MOL0     H23044   2.918   4.055  10.357 -2.2819 -0.2541 -1.8177
  171MOL0     H23045   3.136   3.970  10.348 -1.6147 -0.5654  1.0280
  171MOL0     H23046   3.360   3.877  10.439 -3.4245 -2.4764  2.4964
  171MOL0     H23047   3.679   3.927  10.890  2.8578  1.7228  2.6575
  171MOL0     H23048   3.884   3.842  10.928  0.8153  0.9579  1.5864
  171MOL0     H23049   4.109   3.887  11.020  0.8224  0.1182 -0.3213
  171MOL0     H23050   4.147   3.765  10.889  0.9175 -0.1004  0.2307
  171MOL0     H23051   4.326   3.840  11.052  0.3607  0.1964 -0.6652
  171MOL0     H23052   4.375   3.837  10.887  1.9601 -2.2439  1.7732
  171MOL0     H23053   4.380   4.056  10.881 -1.3479  0.0685  0.2409
  171MOL0     H23054   4.246   4.101  10.999 -1.7310 -1.3734 -0.9278
  171MOL0     H23055   4.520   3.999  11.096 -0.2479 -0.9707 -0.8318
  171MOL0     H23056   4.401   4.077  11.187 -0.5139  0.3524  0.3037
  171MOL0     H23057   4.423   4.284  11.015 -1.2715 -1.1184 -1.1575
  171MOL0     H23058   4.566   4.214  10.954 -0.1032 -0.5905  0.1380
  171MOL0     H23059   4.510   4.324  11.229  0.3545 -0.6003 -0.4302
  171MOL0     H23060   4.632   4.199  11.215 -1.2471 -1.0773  0.3657
  171MOL0     H23061   4.640   4.446  11.031  0.1471  0.3895  0.1131
  171MOL0     H23062   4.766   4.327  11.048  0.4155  0.9471 -0.1401
  171MOL0     H23063   4.793   4.554  11.164 -2.1708  1.9222  1.1945
  171MOL0     H23064   4.665   4.510  11.274 -2.4730 -3.0447  1.0768
  171MOL0     H23065   4.053   4.090  10.617 -0.2972  0.4512 -0.3456
  171MOL0     H23066   3.822   4.178  10.564 -3.6464  0.4260  1.5668
  171MOL0     H23067   3.371   4.215  10.714 -1.0641 -0.4588  1.8305
  171MOL0     H23068   3.160   4.299  10.634  1.7626  1.4618 -0.1114
  171MOL0     H23069   1.369   3.908   9.957 -1.0395  0.3401 -2.9927
  171MOL0     H23070   1.147   3.820   9.857 -1.2069 -1.2197  1.0753
  171MOL0     H23071   0.855   3.681   9.723 -0.4961  1.2242  1.0967
  171MOL0     H23072   0.612   3.709   9.687  0.1646 -1.5193 -2.3465
  171MOL0     H23073   0.365   3.722   9.723  2.3158 -0.6268 -0.4104
  171MOL0     H23074   0.327   3.631   9.868  1.0197  0.8121 -0.4074
  171MOL0     H23075   0.220   3.583   9.598  1.2713 -0.8612  0.3677
  171MOL0     H23076   0.131   3.653   9.738 -1.3414 -1.1427 -0.1393
  171MOL0     H23077   0.204   3.443   9.863 -0.0405  0.0290  1.4282
  171MOL0     H23078   0.184   3.374   9.692  0.3724  0.9484  0.1465
  171MOL0     H23079  -0.031   3.532   9.832  0.6775 -0.6965  0.6713
  171MOL0     H23080  -0.034   3.459   9.668  2.3237 -1.3047 -1.3351
  171MOL0     H23081  -0.105   3.110   9.878 -4.4576  2.1850  1.9303
  171MOL0     H23082   0.548   3.328   9.848 -0.0034  0.0876 -0.3438
  171MOL0     H23083   0.702   3.182   9.917  2.7038 -1.1643 -1.7604
  171MOL0     H23084   0.869   3.232   9.898  1.3550  0.0714  2.2721
  171MOL0     H23085   0.774   3.277  10.051  0.4259  2.1471 -0.4483
  172MOL0     O23086  10.182   0.298   7.220  0.2813  0.4035 -0.9324
  172MOL0     C23087  10.180   0.294   7.340 -0.2882 -0.4508  0.4534
  172MOL0     O23088  10.276   0.349   7.421  0.0838 -0.2240  0.3526
  172MOL0     C23089  10.377   0.429   7.363  0.2354  0.0571 -0.1559
  172MOL0     C23090  10.454   0.389   7.258 -0.1313  0.1294 -1.0306
  172MOL0     C23091  10.555   0.470   7.207 -0.2038 -0.8888 -0.1885
  172MOL0     C23092  10.570   0.600   7.256  0.5487  0.0414  1.4102
  172MOL0     O23093  10.684   0.676   7.231 -0.0907 -0.4997 -0.3882
  172MOL0     C23094  10.801   0.610   7.172 -0.7177 -0.5399 -0.7908
  172MOL0     C23095  10.922   0.709   7.162  0.7580  0.1501  0.4248
  172MOL0     C23096  11.050   0.633   7.162 -0.2262  0.4326  0.3054
  172MOL0     C23097  11.171   0.721   7.122  0.6934  0.8264 -0.1035
  172MOL0     C23098  11.309   0.676   7.174 -0.5581  0.5808 -0.9988
  172MOL0     C23099  11.396   0.603   7.068 -0.7428 -0.4873 -0.3718
  172MOL0     C23100  11.538   0.581   7.125 -0.1787 -0.1414 -0.1144
  172MOL0     C23101  11.616   0.518   7.004  0.0520  0.1698  0.3983
  172MOL0     N23102  11.754   0.477   7.040  0.0657  0.3151 -0.1878
  172MOL0     C23103  11.801   0.438   7.160  0.0684  0.5208  0.7418
  172MOL0     C23104  11.937   0.456   7.158  0.3113 -0.2316 -0.3650
  172MOL0     C23105  12.028   0.428   7.265  0.0243  0.7099  0.3405
  172MOL0     C23106  12.166   0.496   7.249  0.4961  0.6767  0.5079
  172MOL0     C23107  12.268   0.452   7.345 -1.0577  0.2319 -0.0235
  172MOL0     C23108  12.403   0.515   7.305  0.4582 -0.0442  0.1887
  172MOL0     O23109  12.493   0.475   7.407  0.4370  0.0449 -0.5946
  172MOL0     C23110  12.620   0.532   7.399  0.3577  0.9341 -0.2375
  172MOL0     C23111  12.698   0.537   7.517 -0.3909  0.2573  1.0102
  172MOL0     C23112  12.830   0.588   7.520  0.8790 -0.2112  0.6214
  172MOL0     C23113  12.878   0.655   7.403  0.6502  0.0414 -0.7243
  172MOL0     C23114  13.011   0.713   7.407 -0.9721 -0.0548  0.5354
  172MOL0     O23115  13.052   0.789   7.300 -0.0300 -0.0865  0.5748
  172MOL0     C23116  13.173   0.863   7.293  0.9014 -0.6042 -0.9063
  172MOL0     C23117  13.224   0.883   7.165  1.2601 -0.3071 -0.0204
  172MOL0     C23118  13.347   0.948   7.152 -0.0270  0.0081  0.0721
  172MOL0     C23119  13.415   0.996   7.260  0.0865 -0.4307 -0.3077
  172MOL0     O23120  13.538   1.042   7.219  0.0495  0.4946  0.3019
  172MOL0     C23121  13.629   1.073   7.330  0.2359 -0.1035  0.3904
  172MOL0     C23122  13.771   1.096   7.266  1.0218 -0.4011  0.3683
  172MOL0     C23123  13.790   1.219   7.180 -0.0265 -0.3522  0.1142
  172MOL0     C23124  13.932   1.263   7.161 -0.6310 -0.2263 -0.6827
  172MOL0     C23125  13.957   1.375   7.064 -0.8530 -0.1774  0.4122
  172MOL0     C23126  13.899   1.507   7.118  0.0507  0.4512  0.1713
  172MOL0     C23127  13.957   1.630   7.042 -0.0298  0.1717 -0.2812
  172MOL0     C23128  14.112   1.644   7.032 -0.1699 -0.2144  0.2219
  172MOL0    Cl23129  14.184   1.614   7.187 -0.5878 -0.6568  0.4342
  172MOL0     C23130  13.362   0.986   7.392 -0.1952 -1.0025  0.2814
  172MOL0     C23131  13.242   0.917   7.406 -1.1302 -0.4764  0.6310
  172MOL0     O23132  13.079   0.690   7.508 -0.4992 -0.3698 -0.1372
  172MOL0     C23133  12.792   0.675   7.292 -0.4231 -0.7374 -0.9205
  172MOL0     C23134  12.669   0.616   7.290 -0.3645 -0.5011 -0.3051
  172MOL0     N23135  11.964   0.525   7.044  0.6917  0.8306  0.4626
  172MOL0     N23136  11.859   0.521   6.970 -0.7022 -0.5055  0.2017
  172MOL0     C23137  10.491   0.649   7.354 -0.1134 -0.2774 -1.0421
  172MOL0     C23138  10.395   0.565   7.412  0.1065  0.1763  0.6856
  172MOL0     C23139  10.062   0.221   7.404 -0.0840 -0.6600 -1.0947
  172MOL0     C23140  10.091   0.148   7.517 -0.0303  0.2248  0.5712
  172MOL0     C23141  10.004   0.068   7.590  0.2138 -0.0535 -0.5706
  172MOL0     C23142   9.874   0.062   7.545  0.0243 -0.1027 -0.0976
  172MOL0     O23143   9.792  -0.017   7.621  0.0271 -0.3593  0.2401
  172MOL0     C23144   9.682  -0.070   7.545  0.7951  0.2696  0.4126
  172MOL0     C23145   9.568   0.031   7.559  0.3690  0.4072 -0.6828
  172MOL0     C23146   9.451  -0.009   7.468  0.4557  0.8925 -0.3387
  172MOL0     C23147   9.386  -0.136   7.523 -0.8374  0.2560  0.2391
  172MOL0     C23148   9.440  -0.249   7.450 -0.1605  0.6223 -1.1208
  172MOL0     C23149   9.489  -0.336   7.389  0.1635  1.8977 -0.1072
  172MOL0     C23150   9.832   0.145   7.432 -0.9377  0.4797  0.3133
  172MOL0     C23151   9.926   0.225   7.368  0.7253 -0.2214 -0.7473
  172MOL0     C23152   9.884   0.312   7.248  0.4758  0.3060  0.2995
  172MOL0     H23153  10.432   0.287   7.226  2.1906 -0.6520 -0.3543
  172MOL0     H23154  10.617   0.430   7.128 -0.9057 -0.3527 -1.0254
  172MOL0     H23155  10.830   0.524   7.232  1.1799  0.6200  0.0304
  172MOL0     H23156  10.784   0.573   7.070 -1.2877 -2.4612 -0.0469
  172MOL0     H23157  10.921   0.773   7.250 -1.8541  0.1423  0.4756
  172MOL0     H23158  10.908   0.775   7.076  1.4728  1.1851  1.0786
  172MOL0     H23159  11.048   0.538   7.108  1.7909  0.4576  0.0782
  172MOL0     H23160  11.072   0.608   7.266  0.3908 -3.9016 -0.6960
  172MOL0     H23161  11.173   0.721   7.013  0.5769  0.3390 -0.1085
  172MOL0     H23162  11.144   0.824   7.148 -1.0687  0.5377 -0.6942
  172MOL0     H23163  11.361   0.766   7.210  2.4151 -1.4359  0.0922
  172MOL0     H23164  11.302   0.611   7.262  1.0537  1.9604  0.2326
  172MOL0     H23165  11.348   0.505   7.060  0.6988 -1.2863  0.2615
  172MOL0     H23166  11.393   0.657   6.973  0.2401  0.2052 -0.0193
  172MOL0     H23167  11.536   0.509   7.207  2.1929 -1.2419 -0.9458
  172MOL0     H23168  11.587   0.675   7.153  1.3274 -1.0585  0.4614
  172MOL0     H23169  11.571   0.439   6.944 -1.4948  0.9113  0.5351
  172MOL0     H23170  11.621   0.595   6.927  2.7496 -2.6544 -2.5137
  172MOL0     H23171  11.743   0.391   7.239 -1.6109 -0.2638 -0.8813
  172MOL0     H23172  11.974   0.459   7.355 -0.7135  1.9806 -0.5147
  172MOL0     H23173  12.046   0.321   7.285 -0.8092  1.0600  3.5655
  172MOL0     H23174  12.200   0.464   7.151  2.1243  2.0324  0.5785
  172MOL0     H23175  12.148   0.604   7.246 -1.0625  0.4533  1.0201
  172MOL0     H23176  12.274   0.343   7.344 -0.1278  0.2384 -2.8723
  172MOL0     H23177  12.252   0.472   7.452 -1.6288  2.4068 -0.4550
  172MOL0     H23178  12.406   0.624   7.297  1.6011  0.0329  1.3432
  172MOL0     H23179  12.423   0.485   7.202 -0.0238 -2.3644  0.7179
  172MOL0     H23180  12.663   0.502   7.614  0.1984  1.8902  1.8554
  172MOL0     H23181  12.897   0.584   7.606  2.1490 -2.4137 -0.3657
  172MOL0     H23182  13.163   0.842   7.086  0.9931  0.9828 -0.5069
  172MOL0     H23183  13.401   0.952   7.058  0.9164 -1.9864  0.4573
  172MOL0     H23184  13.593   1.165   7.377 -0.9098 -0.4848  0.3028
  172MOL0     H23185  13.647   0.988   7.397 -1.3874 -1.3421 -0.6729
  172MOL0     H23186  13.849   1.106   7.342  0.6854 -0.7825  0.7703
  172MOL0     H23187  13.797   1.006   7.209 -1.6688 -0.5402 -0.8015
  172MOL0     H23188  13.733   1.204   7.088 -0.1740 -1.4944  0.3746
  172MOL0     H23189  13.734   1.299   7.230 -1.5659 -1.7624  0.7382
  172MOL0     H23190  13.996   1.181   7.128 -0.6165 -0.3502 -0.3525
  172MOL0     H23191  13.971   1.291   7.260 -2.2493  0.5617 -0.2218
  172MOL0     H23192  13.912   1.346   6.968  1.4060  3.7750 -2.1141
  172MOL0     H23193  14.063   1.390   7.043 -0.1708 -0.1739  3.4923
  172MOL0     H23194  13.791   1.511   7.105  0.1076 -0.2760 -0.5811
  172MOL0     H23195  13.921   1.522   7.224 -1.0029  1.0634  0.3185
  172MOL0     H23196  13.918   1.722   7.087  0.3751  0.9776 -1.5346
  172MOL0     H23197  13.922   1.631   6.938  2.1406  1.9174 -1.0878
  172MOL0     H23198  14.138   1.576   6.950 -1.2621 -0.3019 -0.0662
  172MOL0     H23199  14.121   1.748   6.999 -0.0174 -1.0489 -2.6387
  172MOL0     H23200  13.429   1.019   7.471  0.6115  1.4328 -1.3169
  172MOL0     H23201  13.189   0.911   7.500 -1.4943  1.4077  0.5993
  172MOL0     H23202  12.829   0.738   7.212 -1.8575  0.0254 -1.0299
  172MOL0     H23203  12.612   0.614   7.197 -1.8425 -0.1155  0.5581
  172MOL0     H23204  10.516   0.744   7.400  0.1335 -0.8264 -0.0136
  172MOL0     H23205  10.343   0.592   7.503  1.4893  1.3764  1.1544
  172MOL0     H23206  10.198   0.151   7.538  0.4565  1.0611 -1.7247
  172MOL0     H23207  10.021   0.010   7.680 -1.0623 -0.4638 -0.5638
  172MOL0     H23208   9.650  -0.168   7.582 -0.4694 -0.5507 -2.5258
  172MOL0     H23209   9.711  -0.089   7.441 -4.0550 -1.1946 -0.9531
  172MOL0     H23210   9.592   0.137   7.545 -1.4595  1.1566  1.2700
  172MOL0     H23211   9.523   0.034   7.658 -1.9547 -0.2456 -1.6350
  172MOL0     H23212   9.485  -0.012   7.364  3.4800  1.2777  0.5591
  172MOL0     H23213   9.369   0.062   7.482 -0.3845  0.4478 -2.5403
  172MOL0     H23214   9.405  -0.156   7.629 -2.3212 -0.7508  0.3467
  172MOL0     H23215   9.276  -0.132   7.516 -0.8343  1.4251  0.7139
  172MOL0     H23216   9.539  -0.411   7.330 -3.1982 -2.3436  1.8262
  172MOL0     H23217   9.734   0.136   7.388 -0.0393 -2.8734 -1.3147
  172MOL0     H23218   9.777   0.300   7.229  0.1581  1.1644  1.4401
  172MOL0     H23219   9.904   0.418   7.267  1.6319  0.1979 -0.2687
  172MOL0     H23220   9.948   0.282   7.165  2.5273 -1.0482  2.2687
  173MOL0     O23221   5.325   5.478   9.853 -0.6443 -0.6001 -0.1419
  173MOL0     C23222   5.286   5.403   9.936  0.4775 -0.1980  0.2084
  173MOL0     O23223   5.360   5.309   9.998 -0.6392  0.1563 -0.0843
  173MOL0     C23224   5.498   5.314   9.992 -0.3287 -0.6386  1.0080
  173MOL0     C23225   5.578   5.422  10.007 -0.4820 -0.3059 -0.0785
  173MOL0     C23226   5.713   5.418   9.997 -1.3022 -0.2004 -0.3017
  173MOL0     C23227   5.785   5.298   9.989  0.0295 -0.3103 -0.2654
  173MOL0     O23228   5.918   5.305   9.997  0.0815  0.0553 -0.2782
  173MOL0     C23229   5.991   5.185   9.961 -0.3019  0.6319  0.2995
  173MOL0     C23230   6.148   5.221   9.969  0.5024  0.4309  0.9984
  173MOL0     C23231   6.192   5.325   9.858 -0.0847  0.2351 -0.0807
  173MOL0     C23232   6.337   5.329   9.847 -0.3107  0.4362 -0.0416
  173MOL0     C23233   6.395   5.438   9.760 -0.1098 -0.2635  0.0160
  173MOL0     C23234   6.546   5.435   9.756 -0.8490 -0.0986  0.0836
  173MOL0     C23235   6.591   5.474   9.616 -0.4807  0.1522  0.1875
  173MOL0     C23236   6.745   5.479   9.602  0.0824  0.8309 -0.2705
  173MOL0     N23237   6.803   5.589   9.683  0.3618 -0.1416  0.0358
  173MOL0     C23238   6.854   5.709   9.628  0.3077  0.0750  0.3580
  173MOL0     C23239   6.916   5.765   9.736  0.8899 -0.2646 -0.2215
  173MOL0     C23240   7.001   5.885   9.745  0.6776 -0.7058  0.5262
  173MOL0     C23241   6.927   6.019   9.719  0.2140  0.7735 -0.2020
  173MOL0     C23242   7.025   6.139   9.746  0.7225 -0.4612  0.1879
  173MOL0     C23243   6.997   6.256   9.654 -0.6250 -0.3046 -0.0697
  173MOL0     O23244   7.039   6.219   9.526 -0.7792 -0.3922  0.1496
  173MOL0     C23245   7.167   6.246   9.484  0.3063  0.0879 -0.4202
  173MOL0     C23246   7.198   6.191   9.360 -0.0472  0.2358 -0.1736
  173MOL0     C23247   7.316   6.215   9.302  0.3947 -0.0192  0.3992
  173MOL0     C23248   7.413   6.293   9.364 -0.1791  0.1352 -0.1036
  173MOL0     C23249   7.543   6.316   9.299  0.3558 -0.5419  0.9229
  173MOL0     O23250   7.636   6.382   9.370 -0.8832 -0.0870  0.1561
  173MOL0     C23251   7.746   6.447   9.318  0.2894  0.0597  0.2906
  173MOL0     C23252   7.805   6.532   9.411 -0.3339 -0.4638 -0.2736
  173MOL0     C23253   7.918   6.614   9.368  0.1740 -0.7651 -0.7242
  173MOL0     C23254   7.966   6.605   9.240 -0.0815  0.0730  0.5321
  173MOL0     O23255   8.080   6.682   9.209 -0.1083  0.3056  0.6629
  173MOL0     C23256   8.100   6.728   9.069  0.2248  0.1042 -0.1710
  173MOL0     C23257   8.234   6.801   9.067 -0.7567  0.2353  0.4138
  173MOL0     C23258   8.348   6.735   8.988  0.3827  0.3601  0.8397
  173MOL0     C23259   8.470   6.835   9.005  0.4134  1.0768 -0.0945
  173MOL0     C23260   8.612   6.781   8.974  0.2867 -0.0510  0.1784
  173MOL0     C23261   8.624   6.665   8.873  0.8031  0.1209  0.3958
  173MOL0     C23262   8.768   6.616   8.840  0.7379 -0.2833  0.0405
  173MOL0     C23263   8.830   6.693   8.716 -0.4717  1.5084  0.7241
  173MOL0    Cl23264   8.869   6.854   8.781  0.4256  0.0627 -0.4123
  173MOL0     C23265   7.906   6.512   9.160 -0.7997 -0.1870  0.7300
  173MOL0     C23266   7.797   6.436   9.192 -0.1128  0.7275 -1.1606
  173MOL0     O23267   7.554   6.284   9.182  0.7550  0.2301  0.5007
  173MOL0     C23268   7.387   6.346   9.493 -0.3046 -0.5674  0.2858
  173MOL0     C23269   7.268   6.324   9.555 -0.6231  0.4868  0.4079
  173MOL0     N23270   6.901   5.685   9.843  0.3445  0.1536  0.0714
  173MOL0     N23271   6.823   5.591   9.816  0.2622  0.4009 -0.4082
  173MOL0     C23272   5.711   5.182   9.966 -0.0973  0.0159 -0.4182
  173MOL0     C23273   5.569   5.194   9.966  0.0295  0.3529  0.3704
  173MOL0     C23274   5.139   5.388   9.961  0.0685 -0.3447  0.0030
  173MOL0     C23275   5.087   5.259   9.965 -0.6439  0.6700  0.5290
  173MOL0     C23276   4.954   5.234   9.964  0.5929 -0.3911 -0.0233
  173MOL0     C23277   4.862   5.342   9.970 -0.0751  0.7539 -0.2586
  173MOL0     O23278   4.720   5.328   9.966 -0.2345  0.7490  0.2759
  173MOL0     C23279   4.677   5.196  10.006  0.5595  0.8116  0.0741
  173MOL0     C23280   4.526   5.203  10.035  0.9818  0.2024 -0.0448
  173MOL0     C23281   4.439   5.237   9.909  0.0879 -0.2291 -0.1172
  173MOL0     C23282   4.466   5.149   9.787  0.2456 -0.2760  0.2979
  173MOL0     C23283   4.363   5.181   9.687  0.3206  0.0622 -0.1806
  173MOL0     C23284   4.278   5.196   9.598  0.2483  0.9592  0.1460
  173MOL0     C23285   4.910   5.467   9.962 -0.6398  0.0116 -0.1891
  173MOL0     C23286   5.048   5.500   9.963  0.0526  0.0338  0.7486
  173MOL0     C23287   5.096   5.644   9.958 -0.0069 -0.2355 -0.2306
  173MOL0     H23288   5.533   5.521  10.011  0.1744  0.0607 -1.3634
  173MOL0     H23289   5.779   5.505   9.998 -1.1721 -0.2664  1.8123
  173MOL0     H23290   5.964   5.097  10.019  0.6563 -0.0070 -0.1927
  173MOL0     H23291   5.966   5.165   9.856 -0.3775  0.6912  0.3068
  173MOL0     H23292   6.211   5.132   9.967  0.0435  0.0919  1.4606
  173MOL0     H23293   6.172   5.258  10.069  2.5814 -0.3938  0.8544
  173MOL0     H23294   6.180   5.429   9.892  2.4616  0.8185 -0.7122
  173MOL0     H23295   6.142   5.314   9.761  1.8440 -3.0134 -0.8354
  173MOL0     H23296   6.379   5.330   9.948  0.3598  2.0014 -0.3006
  173MOL0     H23297   6.371   5.232   9.811 -1.0085  0.1382  0.0834
  173MOL0     H23298   6.356   5.428   9.659 -1.4047  1.6978  0.2754
  173MOL0     H23299   6.364   5.533   9.804 -1.3164  0.6475 -2.6335
  173MOL0     H23300   6.591   5.498   9.833  1.6471  0.3326 -1.5974
  173MOL0     H23301   6.580   5.335   9.785  2.4520  1.4482  2.1260
  173MOL0     H23302   6.541   5.566   9.583 -0.1595 -0.7646 -3.2804
  173MOL0     H23303   6.554   5.402   9.542 -1.8850  0.1054  0.9164
  173MOL0     H23304   6.791   5.385   9.632  0.8885  1.3149  0.0591
  173MOL0     H23305   6.769   5.501   9.497  1.1562  0.8008 -0.0405
  173MOL0     H23306   6.849   5.736   9.523 -1.0506 -1.0083  0.1291
  173MOL0     H23307   7.052   5.887   9.842 -0.0405 -0.2731  0.9015
  173MOL0     H23308   7.074   5.869   9.664  3.0538  0.9484  2.2113
  173MOL0     H23309   6.890   6.028   9.617  2.5530  0.4492 -1.1431
  173MOL0     H23310   6.838   6.020   9.782  0.0764  0.1009 -0.3871
  173MOL0     H23311   7.128   6.104   9.737  0.8602 -0.2085  0.7023
  173MOL0     H23312   7.017   6.176   9.849  1.7981  1.4404 -0.3718
  173MOL0     H23313   7.051   6.346   9.684 -0.6693 -0.5158  0.6706
  173MOL0     H23314   6.890   6.276   9.651 -0.7973 -1.1136  0.2679
  173MOL0     H23315   7.129   6.128   9.305 -0.6670  1.1689 -0.4827
  173MOL0     H23316   7.339   6.177   9.203 -0.0408 -2.0033  1.0206
  173MOL0     H23317   7.767   6.554   9.510  0.2928  1.9338 -0.4826
  173MOL0     H23318   7.968   6.678   9.440  0.2872  0.0532 -1.5046
  173MOL0     H23319   8.093   6.636   9.010 -3.2503  0.7898 -1.0331
  173MOL0     H23320   8.019   6.790   9.030 -1.7361 -2.0804  0.2388
  173MOL0     H23321   8.221   6.899   9.020 -1.1235  1.1048  2.2310
  173MOL0     H23322   8.268   6.822   9.168  1.4705  2.4286 -0.6849
  173MOL0     H23323   8.379   6.633   9.011  0.7377  0.3321  0.2572
  173MOL0     H23324   8.330   6.733   8.880 -1.8771  1.3286  1.1403
  173MOL0     H23325   8.479   6.881   9.104  0.9267 -1.6342  1.2153
  173MOL0     H23326   8.443   6.918   8.939 -0.8879  0.8418  0.1122
  173MOL0     H23327   8.657   6.758   9.072 -0.4438  0.4253  0.6292
  173MOL0     H23328   8.667   6.872   8.948 -1.4012  0.7642 -0.6217
  173MOL0     H23329   8.572   6.576   8.911 -1.4800  1.4448  0.5082
  173MOL0     H23330   8.571   6.692   8.782  1.3562 -0.7122 -0.1849
  173MOL0     H23331   8.759   6.509   8.819  0.3287 -0.7188  2.2707
  173MOL0     H23332   8.837   6.644   8.920  0.3664  1.2926 -0.1536
  173MOL0     H23333   8.921   6.638   8.688 -1.9154 -0.9660  0.6187
  173MOL0     H23334   8.771   6.698   8.624  3.2416  0.2301 -1.9846
  173MOL0     H23335   7.947   6.492   9.062  0.0362  1.1259  0.7873
  173MOL0     H23336   7.762   6.367   9.116  2.4455  0.9745 -2.6689
  173MOL0     H23337   7.455   6.414   9.542  1.4165 -2.5461  0.7733
  173MOL0     H23338   7.252   6.385   9.643  0.3945  1.6428 -0.1852
  173MOL0     H23339   5.751   5.081   9.967  1.0340  0.4442 -0.8231
  173MOL0     H23340   5.508   5.105   9.956 -0.3254  0.5916  0.3827
  173MOL0     H23341   5.157   5.177   9.958 -2.3627 -0.8575  0.3411
  173MOL0     H23342   4.927   5.130   9.950  0.3235 -0.4742  1.0557
  173MOL0     H23343   4.733   5.167  10.095  0.3520 -0.1402 -0.0995
  173MOL0     H23344   4.694   5.123   9.927  2.0231  1.3943 -0.1840
  173MOL0     H23345   4.509   5.286  10.105 -1.9340  2.3810 -3.0131
  173MOL0     H23346   4.495   5.110  10.083  1.2871 -0.3805 -0.9608
  173MOL0     H23347   4.463   5.341   9.882  0.4100 -0.2901 -0.0618
  173MOL0     H23348   4.334   5.232   9.940  0.0550  0.6781 -0.0552
  173MOL0     H23349   4.567   5.166   9.749  0.2111 -1.7800 -0.5336
  173MOL0     H23350   4.465   5.042   9.810 -1.9203 -0.9124 -2.2557
  173MOL0     H23351   4.207   5.204   9.518 -1.2198 -1.7507  1.0518
  173MOL0     H23352   4.846   5.555   9.956  1.6354  1.7021 -1.5231
  173MOL0     H23353   5.013   5.716   9.963  0.2941  0.2970 -2.2786
  173MOL0     H23354   5.165   5.658  10.042 -1.4470  0.2113  0.9175
  173MOL0     H23355   5.144   5.678   9.866 -1.1309  2.3143  0.0367
  174MOL0     O23356   2.644  10.047   9.089 -0.7150  0.7378 -0.4972
  174MOL0     C23357   2.586  10.062   8.985  0.1336  0.0983 -0.5803
  174MOL0     O23358   2.617  10.013   8.860 -0.3825  0.2323  0.3371
  174MOL0     C23359   2.725   9.923   8.852  0.7338 -0.3653 -0.0336
  174MOL0     C23360   2.849   9.972   8.890 -0.1039 -0.3907  0.2780
  174MOL0     C23361   2.955   9.881   8.887  0.7937  0.6143 -1.5547
  174MOL0     C23362   2.940   9.744   8.864  0.0992  0.2738  0.2580
  174MOL0     O23363   3.040   9.659   8.886 -0.4557  0.2111 -0.7376
  174MOL0     C23364   3.041   9.528   8.827  0.1898 -0.4632 -0.8726
  174MOL0     C23365   3.176   9.471   8.840  0.2481 -0.0206  0.1931
  174MOL0     C23366   3.202   9.422   8.982 -0.4170 -0.3677  1.1638
  174MOL0     C23367   3.354   9.432   8.994 -0.2470  0.5767  0.3450
  174MOL0     C23368   3.402   9.340   9.102  0.0064  0.0906 -0.7966
  174MOL0     C23369   3.558   9.335   9.125  0.1871  0.2023  0.5816
  174MOL0     C23370   3.598   9.237   9.233  0.4250 -0.6725 -0.5541
  174MOL0     C23371   3.598   9.308   9.378  0.4805 -0.0824 -0.6136
  174MOL0     N23372   3.665   9.228   9.482  0.2713 -0.1521  0.9216
  174MOL0     C23373   3.782   9.166   9.454  0.3556  0.0376 -0.4372
  174MOL0     C23374   3.819   9.104   9.565 -0.0722  0.2904 -0.6405
  174MOL0     C23375   3.933   9.009   9.577  0.7663  0.6404  0.1950
  174MOL0     C23376   4.063   9.058   9.625 -0.4474 -0.0131  0.8293
  174MOL0     C23377   4.065   9.074   9.773  0.1398  0.6107 -0.0402
  174MOL0     C23378   4.200   9.108   9.826  0.4556  0.1120  0.4407
  174MOL0     O23379   4.310   9.018   9.789  0.1380 -0.1996  0.1979
  174MOL0     C23380   4.430   9.039   9.826  0.3402 -0.0593  0.2949
  174MOL0     C23381   4.462   9.101   9.944  0.8401  0.0363  0.5318
  174MOL0     C23382   4.589   9.144   9.969 -1.4463  0.2567 -0.4092
  174MOL0     C23383   4.697   9.119   9.884  0.5285 -0.1395 -0.1504
  174MOL0     C23384   4.834   9.164   9.916  0.0182  0.3909 -0.0923
  174MOL0     O23385   4.933   9.131   9.833 -0.4702 -0.2146 -0.3190
  174MOL0     C23386   5.055   9.174   9.877 -0.4520 -0.1965 -0.0860
  174MOL0     C23387   5.139   9.101   9.965  0.4592 -0.5911  0.1019
  174MOL0     C23388   5.262   9.148  10.006  0.2546  0.2411 -0.5739
  174MOL0     C23389   5.303   9.274   9.956  0.1586  0.5028 -0.0259
  174MOL0     O23390   5.422   9.319  10.005 -0.3947 -0.8739 -0.2662
  174MOL0     C23391   5.486   9.439   9.957  0.0760  0.0673 -0.6632
  174MOL0     C23392   5.624   9.425  10.002 -0.0370  0.0221  0.5755
  174MOL0     C23393   5.699   9.562   9.972 -0.5674  0.8632 -0.7669
  174MOL0     C23394   5.847   9.542  10.000 -0.4821 -1.1342 -0.9590
  174MOL0     C23395   5.882   9.581  10.143 -0.2628  0.5202 -0.4328
  174MOL0     C23396   6.034   9.610  10.160  0.3062 -0.6419  0.1942
  174MOL0     C23397   6.078   9.593  10.299  0.2097 -0.3615 -0.4323
  174MOL0     C23398   5.993   9.673  10.396 -0.1844  0.4358 -0.3313
  174MOL0    Cl23399   6.026   9.852  10.382 -0.1001  0.2017  0.2883
  174MOL0     C23400   5.224   9.349   9.873 -0.2260  0.4836 -0.1328
  174MOL0     C23401   5.101   9.300   9.834 -0.3558  0.7652  0.5483
  174MOL0     O23402   4.848   9.211  10.027 -0.4415  0.2250  0.0648
  174MOL0     C23403   4.668   9.043   9.771  0.1636  0.0589  0.2903
  174MOL0     C23404   4.527   9.008   9.740 -0.8182 -1.3198  0.4208
  174MOL0     N23405   3.731   9.132   9.668 -0.2565 -0.0326  0.1222
  174MOL0     N23406   3.627   9.195   9.611  0.2098  0.1260  0.7381
  174MOL0     C23407   2.812   9.703   8.817  0.7290 -0.0186  0.0707
  174MOL0     C23408   2.707   9.794   8.810  0.0843  0.5673  0.1164
  174MOL0     C23409   2.467  10.143   8.993 -0.7353 -0.5905 -0.1015
  174MOL0     C23410   2.352  10.085   8.952 -0.5059 -0.3688  0.1136
  174MOL0     C23411   2.229  10.155   8.964 -0.2803  0.2551 -0.0929
  174MOL0     C23412   2.227  10.283   9.024  0.9960  0.6812  0.0817
  174MOL0     O23413   2.110  10.359   9.014 -0.5511  0.2152  0.5068
  174MOL0     C23414   1.994  10.317   8.938  0.2736  0.4811 -0.3904
  174MOL0     C23415   1.892  10.437   8.929  0.1726  0.1071 -0.0548
  174MOL0     C23416   1.764  10.391   8.869  0.0960  0.9689 -0.1729
  174MOL0     C23417   1.765  10.342   8.724  0.2676  0.1514 -0.1308
  174MOL0     C23418   1.785  10.195   8.711  0.4912 -1.1841  0.3142
  174MOL0     C23419   1.812  10.071   8.710  0.1855 -1.1240  0.7740
  174MOL0     C23420   2.346  10.331   9.073 -1.9273  0.2045  0.1663
  174MOL0     C23421   2.465  10.271   9.060 -0.1413 -0.6335  0.1290
  174MOL0     C23422   2.587  10.350   9.104 -0.1552 -0.1582 -0.4023
  174MOL0     H23423   2.858  10.071   8.933  0.2871 -1.0857  1.8553
  174MOL0     H23424   3.055   9.911   8.916  0.5846  2.0742 -2.2834
  174MOL0     H23425   2.962   9.466   8.871  0.8759  0.8045  2.3606
  174MOL0     H23426   3.012   9.539   8.722  1.6920  2.3570 -1.0976
  174MOL0     H23427   3.254   9.543   8.812 -0.8722  0.4037 -2.0963
  174MOL0     H23428   3.185   9.386   8.771 -1.6594 -0.6185  0.6373
  174MOL0     H23429   3.169   9.318   8.990  0.3957 -0.7428 -0.1501
  174MOL0     H23430   3.158   9.486   9.059 -2.1136  0.4237 -0.3790
  174MOL0     H23431   3.409   9.407   8.902  0.0545  2.2216  0.0449
  174MOL0     H23432   3.382   9.533   9.023  2.1950  0.4379 -1.2512
  174MOL0     H23433   3.339   9.356   9.190 -0.6511 -2.9098 -0.6343
  174MOL0     H23434   3.369   9.238   9.081  2.3528 -1.1546  1.1614
  174MOL0     H23435   3.593   9.306   9.026  1.1299  1.6264  0.4858
  174MOL0     H23436   3.589   9.436   9.150 -3.0382  1.2890  0.6669
  174MOL0     H23437   3.698   9.198   9.215 -0.0725 -2.4004  0.2870
  174MOL0     H23438   3.521   9.160   9.242 -1.5686  1.1975 -0.5307
  174MOL0     H23439   3.643   9.407   9.391 -1.2535  0.8939 -1.5970
  174MOL0     H23440   3.493   9.320   9.409  0.3077 -0.0478 -1.2017
  174MOL0     H23441   3.829   9.154   9.357 -2.2559  1.8211 -2.0448
  174MOL0     H23442   3.891   8.929   9.639  0.2696  1.7258  1.3163
  174MOL0     H23443   3.952   8.966   9.479 -4.9769 -2.6622  0.0506
  174MOL0     H23444   4.135   8.985   9.589 -0.0089  1.2609 -1.0211
  174MOL0     H23445   4.089   9.153   9.576 -2.2351 -0.2071 -0.6285
  174MOL0     H23446   4.045   8.976   9.818 -2.6274  0.7162 -0.8505
  174MOL0     H23447   3.995   9.146   9.816  0.8152  0.8679  0.6565
  174MOL0     H23448   4.183   9.110   9.934  0.0907  0.8934  0.3830
  174MOL0     H23449   4.238   9.207   9.797  1.1655 -0.3783 -0.3168
  174MOL0     H23450   4.389   9.123  10.022  1.7295  0.1693  1.3531
  174MOL0     H23451   4.606   9.190  10.066 -2.2020  0.8739 -0.5595
  174MOL0     H23452   5.097   9.006   9.999  2.0825 -1.8971 -1.3315
  174MOL0     H23453   5.333   9.090  10.065  0.5210  0.9537 -0.1788
  174MOL0     H23454   5.482   9.449   9.848  0.7336 -0.2396 -0.7209
  174MOL0     H23455   5.444   9.530  10.001 -1.1984 -0.5052 -0.6445
  174MOL0     H23456   5.626   9.393  10.106  1.6325  2.7119  1.4635
  174MOL0     H23457   5.667   9.344   9.943 -1.6731  0.3083 -1.1128
  174MOL0     H23458   5.692   9.590   9.866  2.4755  1.6985 -0.8314
  174MOL0     H23459   5.653   9.637  10.037 -1.3531 -0.2387 -0.0237
  174MOL0     H23460   5.885   9.622   9.936 -3.2987  0.9819 -0.2044
  174MOL0     H23461   5.894   9.446   9.977  0.8265 -0.0914 -2.8717
  174MOL0     H23462   5.855   9.491  10.199  1.6207 -0.1692 -0.5578
  174MOL0     H23463   5.828   9.673  10.163  0.9456  1.9438 -3.1451
  174MOL0     H23464   6.094   9.538  10.103  1.0759 -1.0634  1.5034
  174MOL0     H23465   6.060   9.714  10.136  1.3136  0.0551  3.7520
  174MOL0     H23466   6.178   9.632  10.321 -0.1578 -0.2314  1.1345
  174MOL0     H23467   6.069   9.489  10.329 -1.2369  0.4433  2.2207
  174MOL0     H23468   5.887   9.656  10.377 -0.1800  2.1446 -2.2155
  174MOL0     H23469   6.024   9.639  10.496  0.8820 -2.9174 -1.6717
  174MOL0     H23470   5.260   9.442   9.830 -1.8020  0.6960 -1.0624
  174MOL0     H23471   5.039   9.361   9.769 -0.3401  1.0117  0.7647
  174MOL0     H23472   4.751   9.005   9.714  1.0195  0.2471  1.3735
  174MOL0     H23473   4.506   8.959   9.646  1.5098 -0.8499 -0.4235
  174MOL0     H23474   2.795   9.605   8.775 -2.1978  0.3673  0.1422
  174MOL0     H23475   2.607   9.760   8.783  0.3646 -1.5867  1.5353
  174MOL0     H23476   2.350   9.987   8.906 -2.9348 -0.1959 -0.2470
  174MOL0     H23477   2.135  10.111   8.933 -0.6318  0.1038  1.1628
  174MOL0     H23478   1.954  10.229   8.990  0.6392  0.1207 -0.7040
  174MOL0     H23479   2.023  10.285   8.837  0.2636 -1.2392  0.1199
  174MOL0     H23480   1.930  10.520   8.870  1.4185 -0.8191 -0.5955
  174MOL0     H23481   1.881  10.478   9.030 -1.0444 -2.2228  0.8382
  174MOL0     H23482   1.699  10.478   8.883 -1.9963 -0.4914 -0.3998
  174MOL0     H23483   1.724  10.308   8.927  4.1480  1.2123  3.4238
  174MOL0     H23484   1.672  10.376   8.676 -1.9092 -0.3573  3.3857
  174MOL0     H23485   1.846  10.376   8.659 -1.1358  0.0166 -2.0603
  174MOL0     H23486   1.818   9.964   8.702 -0.4589 -1.0827 -0.5851
  174MOL0     H23487   2.341  10.431   9.114  2.5140  1.3066 -1.4181
  174MOL0     H23488   2.678  10.325   9.049  0.1695 -1.5555  0.6915
  174MOL0     H23489   2.577  10.458   9.089  3.2040  0.6304  1.8001
  174MOL0     H23490   2.600  10.334   9.212 -0.5552 -3.7041 -0.7549
  175MOL0     O23491  10.550  10.000   6.509  0.2393  0.1270  0.4041
  175MOL0     C23492  10.520   9.973   6.391 -0.3944  1.2512 -0.4011
  175MOL0     O23493  10.612   9.937   6.291  0.8315  0.0231 -0.0232
  175MOL0     C23494  10.727   9.879   6.320 -0.6963  0.3768 -0.2522
  175MOL0     C23495  10.738   9.741   6.313  0.5727 -0.1631  0.3606
  175MOL0     C23496  10.865   9.679   6.322  0.4579  0.0647 -0.2910
  175MOL0     C23497  10.981   9.747   6.335 -0.9333 -0.4926 -0.2944
  175MOL0     O23498  11.093   9.675   6.360 -0.1976  0.9971 -0.4036
  175MOL0     C23499  11.208   9.727   6.304 -0.6330  0.5766  0.9011
  175MOL0     C23500  11.316   9.618   6.276  0.1569 -0.0482 -0.3364
  175MOL0     C23501  11.450   9.692   6.249  0.2179 -0.7200  0.4754
  175MOL0     C23502  11.555   9.590   6.218  0.2014  0.0497 -0.1739
  175MOL0     C23503  11.690   9.651   6.179  0.5725  0.4334  0.0598
  175MOL0     C23504  11.796   9.545   6.148  0.1427 -0.2125  0.4421
  175MOL0     C23505  11.938   9.602   6.136 -0.7593 -0.6621 -0.0067
  175MOL0     C23506  11.948   9.702   6.016  0.6814 -0.1337 -0.9649
  175MOL0     N23507  12.079   9.770   6.021 -0.0727 -0.3132 -1.1663
  175MOL0     C23508  12.185   9.746   5.940  0.0577  0.8243 -0.4006
  175MOL0     C23509  12.285   9.826   5.986 -0.0087  0.1114  0.7377
  175MOL0     C23510  12.421   9.807   5.931  0.3883  0.0266 -0.2186
  175MOL0     C23511  12.529   9.770   6.029  0.4430 -0.4586  0.8584
  175MOL0     C23512  12.656   9.771   5.960  0.3671  0.0650 -0.7014
  175MOL0     C23513  12.773   9.709   6.046  0.2355  1.0180  0.5492
  175MOL0     O23514  12.763   9.747   6.183 -0.5057  0.5968 -0.4231
  175MOL0     C23515  12.859   9.693   6.267  0.4242  0.2362 -0.0589
  175MOL0     C23516  12.875   9.767   6.384  0.3162 -0.0070 -0.1987
  175MOL0     C23517  12.969   9.727   6.480 -0.3272 -0.2996  0.1793
  175MOL0     C23518  13.054   9.619   6.460  0.3937  0.0472  0.2316
  175MOL0     C23519  13.159   9.581   6.552  0.5081  0.1704  0.3342
  175MOL0     O23520  13.137   9.618   6.677 -0.6372 -0.2294 -0.7801
  175MOL0     C23521  13.244   9.612   6.767 -0.1923 -0.2606  0.0008
  175MOL0     C23522  13.199   9.641   6.901  0.1427 -0.0304 -1.0241
  175MOL0     C23523  13.296   9.644   7.008  0.9618 -0.1587 -0.4680
  175MOL0     C23524  13.433   9.636   6.981 -0.1818  0.9512  0.4018
  175MOL0     O23525  13.518   9.653   7.084 -0.8007  0.3449  0.3176
  175MOL0     C23526  13.631   9.741   7.050 -0.4781 -0.1089  0.0076
  175MOL0     C23527  13.745   9.716   7.157 -0.7662  1.1928 -0.1608
  175MOL0     C23528  13.840   9.604   7.112  0.6485 -0.8178  0.5062
  175MOL0     C23529  13.971   9.589   7.201  0.3298 -0.1148  0.0358
  175MOL0     C23530  14.102   9.607   7.127  0.6955  0.1185  0.0227
  175MOL0     C23531  14.217   9.549   7.215 -0.1139  0.3960  0.0319
  175MOL0     C23532  14.350   9.554   7.143  0.3225 -0.3815  1.0314
  175MOL0     C23533  14.456   9.482   7.208  0.2445 -0.3180 -0.8114
  175MOL0    Cl23534  14.618   9.534   7.165 -0.0126  0.8055  0.0282
  175MOL0     C23535  13.468   9.608   6.846 -0.9163 -0.3781  0.2681
  175MOL0     C23536  13.380   9.583   6.751  0.4944  1.3056  0.2213
  175MOL0     O23537  13.247   9.502   6.512 -0.5226  0.0602  0.0110
  175MOL0     C23538  13.036   9.545   6.347  0.5310  0.7475 -0.5605
  175MOL0     C23539  12.940   9.580   6.258 -0.0838 -0.3878  0.3079
  175MOL0     N23540  12.233   9.902   6.086  0.0335 -0.5636 -0.0518
  175MOL0     N23541  12.113   9.868   6.112  0.1390 -0.3732 -0.3337
  175MOL0     C23542  10.970   9.886   6.341  0.2362  0.4027  0.5857
  175MOL0     C23543  10.850   9.954   6.332 -0.3938  0.1986  0.8003
  175MOL0     C23544  10.373   9.999   6.359  0.9333  0.6920  0.1307
  175MOL0     C23545  10.290  10.079   6.436  0.2013 -0.2859 -0.6520
  175MOL0     C23546  10.150  10.092   6.407  0.1984  0.0455 -0.3514
  175MOL0     C23547  10.090  10.020   6.301  0.6260 -0.6500  0.1545
  175MOL0     O23548   9.956  10.049   6.284 -0.1664 -0.0008  0.5873
  175MOL0     C23549   9.875   9.966   6.196 -0.7174  0.5792  0.0335
  175MOL0     C23550   9.847   9.827   6.264  0.3202  0.5894 -0.6033
  175MOL0     C23551   9.734   9.832   6.361 -0.4694  1.1230 -0.4718
  175MOL0     C23552   9.599   9.856   6.306  0.0274  0.2936  0.0518
  175MOL0     C23553   9.494   9.810   6.391 -0.1990 -0.2157 -0.8174
  175MOL0     C23554   9.412   9.742   6.445  0.0951 -0.5059  0.2326
  175MOL0     C23555  10.167   9.929   6.227 -0.5434  0.2731 -1.2232
  175MOL0     C23556  10.308   9.924   6.251 -0.8590  0.7182 -0.0648
  175MOL0     C23557  10.385   9.816   6.176 -0.3079 -0.2523  0.3727
  175MOL0     H23558  10.649   9.679   6.306  0.9986 -0.6869 -0.7130
  175MOL0     H23559  10.868   9.570   6.319  1.2961  0.0933 -0.7809
  175MOL0     H23560  11.183   9.776   6.209 -0.7796  0.4387  0.8683
  175MOL0     H23561  11.256   9.805   6.364  2.9495  0.7468 -1.8059
  175MOL0     H23562  11.281   9.547   6.200  0.0528 -0.0614 -0.2771
  175MOL0     H23563  11.319   9.560   6.369  0.3286  2.2748  1.2021
  175MOL0     H23564  11.478   9.746   6.340  0.9393 -1.7344  0.8842
  175MOL0     H23565  11.440   9.763   6.167  0.4237 -1.6897 -0.4123
  175MOL0     H23566  11.562   9.516   6.298  3.4195 -0.5112 -0.8319
  175MOL0     H23567  11.522   9.529   6.133 -1.1653  0.1058  0.2991
  175MOL0     H23568  11.677   9.716   6.092  4.0217  1.7214  0.3368
  175MOL0     H23569  11.727   9.716   6.259  0.9658  1.6183 -1.0578
  175MOL0     H23570  11.801   9.474   6.231  1.5774 -0.8422 -0.1436
  175MOL0     H23571  11.758   9.499   6.056  2.6839 -0.7269 -0.4286
  175MOL0     H23572  12.009   9.522   6.115 -0.4855 -0.3690 -0.2104
  175MOL0     H23573  11.960   9.657   6.228 -0.7044  1.9875 -1.4857
  175MOL0     H23574  11.937   9.643   5.924 -0.4370 -3.4251  1.0761
  175MOL0     H23575  11.869   9.777   6.010  0.4788 -0.3745 -1.3421
  175MOL0     H23576  12.210   9.684   5.855  4.1288  0.5440  0.8129
  175MOL0     H23577  12.415   9.731   5.852 -0.0068 -1.4540  1.1660
  175MOL0     H23578  12.444   9.903   5.884 -1.0326 -0.9428 -3.1156
  175MOL0     H23579  12.543   9.852   6.099  1.6838  0.4247 -0.3791
  175MOL0     H23580  12.518   9.670   6.071 -1.6595 -1.5073 -1.8279
  175MOL0     H23581  12.685   9.871   5.927 -1.9389  1.3906  0.9554
  175MOL0     H23582  12.635   9.712   5.870 -1.6312  0.3345 -0.4637
  175MOL0     H23583  12.869   9.741   6.006  0.3404  0.2492  0.1800
  175MOL0     H23584  12.778   9.601   6.031  0.3048  1.0891  0.0228
  175MOL0     H23585  12.810   9.852   6.400 -0.6760 -1.1257  2.0918
  175MOL0     H23586  12.963   9.778   6.576 -0.2936  0.8834 -0.4329
  175MOL0     H23587  13.093   9.648   6.924 -0.1482  1.3588 -2.6332
  175MOL0     H23588  13.266   9.663   7.110 -1.0690 -0.4866 -0.9513
  175MOL0     H23589  13.667   9.729   6.947  0.4947  0.3875  0.2835
  175MOL0     H23590  13.588   9.842   7.045  0.3631  0.2342 -0.4509
  175MOL0     H23591  13.793   9.812   7.179 -2.0237  1.1449  3.5490
  175MOL0     H23592  13.703   9.682   7.252  1.1519 -0.7892  0.0431
  175MOL0     H23593  13.792   9.510   7.084  0.6411 -0.4449 -0.8069
  175MOL0     H23594  13.884   9.636   7.016  1.2184  0.7979  1.2795
  175MOL0     H23595  13.968   9.488   7.244  4.0904 -0.7006 -0.7651
  175MOL0     H23596  13.975   9.666   7.279  0.9645 -0.5611  0.4520
  175MOL0     H23597  14.106   9.710   7.089  2.2940 -0.0989 -0.4724
  175MOL0     H23598  14.102   9.537   7.043  3.8424  0.8569 -0.7498
  175MOL0     H23599  14.219   9.593   7.315 -2.2224  0.1577  0.2265
  175MOL0     H23600  14.193   9.445   7.238 -0.1535  0.3260 -0.3231
  175MOL0     H23601  14.383   9.658   7.139 -3.2746  0.8659 -1.3108
  175MOL0     H23602  14.329   9.525   7.040 -2.0876  2.8902  0.4716
  175MOL0     H23603  14.443   9.492   7.316  1.0742 -1.7754 -0.5549
  175MOL0     H23604  14.438   9.376   7.186 -0.5826 -0.6396  1.1944
  175MOL0     H23605  13.573   9.585   6.827 -1.5031 -2.3859 -0.8874
  175MOL0     H23606  13.426   9.531   6.668  1.0529 -0.6770  1.7077
  175MOL0     H23607  13.084   9.449   6.339 -0.6772 -0.3829  3.3452
  175MOL0     H23608  12.934   9.521   6.167 -2.9626  0.2897 -0.0375
  175MOL0     H23609  11.061   9.943   6.353  0.1531  0.5765  0.3856
  175MOL0     H23610  10.834  10.060   6.347  1.3393  0.5355  0.4353
  175MOL0     H23611  10.333  10.140   6.514 -1.2870 -0.5799  0.4518
  175MOL0     H23612  10.085  10.169   6.447  0.2737 -0.5216  0.9507
  175MOL0     H23613   9.934   9.953   6.104  0.4630  1.0564  0.6959
  175MOL0     H23614   9.783  10.013   6.161  0.7525  1.6602 -2.6628
  175MOL0     H23615   9.940   9.791   6.308  0.3250  0.7938 -0.4435
  175MOL0     H23616   9.831   9.747   6.192 -0.5332  1.2616 -1.1812
  175MOL0     H23617   9.767   9.907   6.433  1.4730 -1.0270  1.0253
  175MOL0     H23618   9.730   9.739   6.419 -0.6020  0.7408 -1.0788
  175MOL0     H23619   9.590   9.964   6.295 -0.2188  0.1498 -1.3950
  175MOL0     H23620   9.589   9.802   6.212 -0.9529 -3.0565  1.9132
  175MOL0     H23621   9.356   9.664   6.493 -0.7587  0.6924  1.2500
  175MOL0     H23622  10.134   9.860   6.150  0.0374  0.4296 -1.6236
  175MOL0     H23623  10.434   9.742   6.239  0.2493 -0.8537 -0.7375
  175MOL0     H23624  10.320   9.752   6.115  0.1463 -1.5047  1.1748
  175MOL0     H23625  10.457   9.860   6.106  2.0710 -1.4631  1.9551
  176MOL0     O23626  11.272   6.098   9.970 -0.0634 -0.2846 -0.1924
  176MOL0     C23627  11.238   5.980   9.973  0.0640  0.3665 -0.6296
  176MOL0     O23628  11.109   5.942   9.991 -0.1130 -0.7981 -0.1478
  176MOL0     C23629  11.004   6.010   9.934 -0.9082 -0.3119  0.5608
  176MOL0     C23630  10.877   5.981   9.981  0.2043 -0.6940  0.8004
  176MOL0     C23631  10.767   6.060   9.939 -0.4781  0.5349 -0.5255
  176MOL0     C23632  10.781   6.172   9.849  0.0724  0.3662 -0.1050
  176MOL0     O23633  10.686   6.255   9.806  0.3117  0.3173 -0.6264
  176MOL0     C23634  10.564   6.258   9.879 -0.3709  0.1860  0.3861
  176MOL0     C23635  10.515   6.404   9.862 -0.6963 -0.8314  0.7024
  176MOL0     C23636  10.417   6.430   9.972 -0.1679 -0.2417  0.0906
  176MOL0     C23637  10.372   6.572   9.963 -0.3847  0.0070  0.1978
  176MOL0     C23638  10.260   6.591   9.855 -0.3445  0.1704 -0.0308
  176MOL0     C23639  10.253   6.734   9.809  0.5318 -0.7080  0.2331
  176MOL0     C23640  10.228   6.837   9.916 -0.8488  0.2024 -0.7759
  176MOL0     C23641  10.160   6.968   9.865  0.2426 -0.8565 -0.6825
  176MOL0     N23642  10.018   6.963   9.890  0.1600 -0.1052  0.1027
  176MOL0     C23643   9.945   6.994  10.003 -0.7740 -0.5357  0.0332
  176MOL0     C23644   9.808   6.993   9.959 -0.3903 -0.7508  0.6611
  176MOL0     C23645   9.696   6.999  10.056  0.2067  0.0179 -0.4867
  176MOL0     C23646   9.696   7.130  10.134  0.5549 -1.0977 -0.6467
  176MOL0     C23647   9.645   7.254  10.055 -0.3990 -0.0144 -0.3109
  176MOL0     C23648   9.745   7.306   9.938  0.8020 -0.0008  0.1720
  176MOL0     O23649   9.864   7.368   9.996  0.3741  0.0173  0.1734
  176MOL0     C23650   9.981   7.376   9.926  0.3086 -0.1257 -0.1533
  176MOL0     C23651  10.081   7.466   9.971 -0.4045 -0.0671  0.0290
  176MOL0     C23652  10.194   7.492   9.908  0.0558  0.1523  0.0039
  176MOL0     C23653  10.222   7.425   9.786 -0.0075  0.8854  0.2558
  176MOL0     C23654  10.343   7.453   9.708 -0.2867  0.1992 -0.6455
  176MOL0     O23655  10.360   7.383   9.594 -0.1770 -0.6429  0.6528
  176MOL0     C23656  10.483   7.393   9.526  0.9378 -0.6268  0.8301
  176MOL0     C23657  10.536   7.288   9.456 -0.9500 -0.1454  0.5874
  176MOL0     C23658  10.655   7.298   9.374  0.2820  1.0905 -0.4819
  176MOL0     C23659  10.726   7.412   9.367  0.1022 -0.1733  0.2744
  176MOL0     O23660  10.835   7.410   9.281  0.7641  0.4747 -0.4962
  176MOL0     C23661  10.929   7.516   9.301  0.8723  0.2559 -0.8687
  176MOL0     C23662  11.055   7.519   9.216  0.3258 -0.1445  0.1153
  176MOL0     C23663  11.147   7.630   9.253 -0.2898 -0.6429 -1.1080
  176MOL0     C23664  11.288   7.609   9.199  0.6780 -0.3473  1.0079
  176MOL0     C23665  11.382   7.702   9.273 -0.3842 -0.9433  0.5530
  176MOL0     C23666  11.533   7.659   9.252 -0.7838 -0.0953 -0.3138
  176MOL0     C23667  11.618   7.693   9.123  0.7999 -0.0072 -0.8227
  176MOL0     C23668  11.695   7.575   9.073  0.1716  0.2892  0.4583
  176MOL0    Cl23669  11.598   7.444   8.992  0.7592 -0.3788  0.6038
  176MOL0     C23670  10.688   7.513   9.449  0.5844 -0.1421  0.3736
  176MOL0     C23671  10.578   7.500   9.528  0.5545  0.2020  0.2434
  176MOL0     O23672  10.418   7.533   9.755  0.3926  0.7303  0.9194
  176MOL0     C23673  10.125   7.335   9.732 -0.3434  0.7496 -0.2560
  176MOL0     C23674  10.014   7.302   9.807 -0.4131  0.0689 -0.8869
  176MOL0     N23675   9.805   6.963   9.817 -0.0832 -0.3759 -0.4808
  176MOL0     N23676   9.931   6.952   9.787  0.6128 -0.1123  0.0020
  176MOL0     C23677  10.908   6.187   9.788  0.5763  1.2882  0.1505
  176MOL0     C23678  11.018   6.113   9.833 -0.2741 -0.2624  0.3075
  176MOL0     C23679  11.345   5.872   9.980 -0.6339  0.2993 -0.0867
  176MOL0     C23680  11.309   5.736  10.000 -0.0368  0.1797  0.4880
  176MOL0     C23681  11.401   5.622  10.010 -0.7867 -0.3648  0.0208
  176MOL0     C23682  11.541   5.652  10.010  0.6204  0.6172 -0.1640
  176MOL0     O23683  11.640   5.566  10.017  0.6616 -0.0342 -0.0412
  176MOL0     C23684  11.626   5.430   9.970 -0.2847 -0.5367  0.0305
  176MOL0     C23685  11.745   5.333   9.976  0.0621 -0.6787 -0.0224
  176MOL0     C23686  11.850   5.364   9.868  1.0890 -0.1455  0.1489
  176MOL0     C23687  11.982   5.290   9.887 -0.3634 -0.1697 -0.4205
  176MOL0     C23688  12.067   5.326  10.005 -0.2564  0.1451 -0.6550
  176MOL0     C23689  12.129   5.365  10.097  0.5793 -0.2223 -0.5588
  176MOL0     C23690  11.581   5.784   9.996 -0.0257 -0.5925  0.7067
  176MOL0     C23691  11.491   5.894   9.983 -1.1188 -0.4293 -0.2472
  176MOL0     C23692  11.551   6.034   9.970 -0.3322  0.1896 -0.2761
  176MOL0     H23693  10.866   5.889  10.038  0.4103 -2.3138 -1.6067
  176MOL0     H23694  10.673   6.024   9.980  0.2705 -0.3680  0.4649
  176MOL0     H23695  10.494   6.191   9.829 -2.4339  1.8443  0.9058
  176MOL0     H23696  10.580   6.232   9.985 -2.8211  0.8024  0.9651
  176MOL0     H23697  10.474   6.409   9.760  2.9261 -2.6760 -1.0093
  176MOL0     H23698  10.600   6.469   9.881 -1.1750 -0.6033  2.1779
  176MOL0     H23699  10.472   6.404  10.063  1.3482 -0.4206 -0.8443
  176MOL0     H23700  10.334   6.359   9.966 -0.0278 -0.3250 -1.3608
  176MOL0     H23701  10.330   6.602  10.060 -0.7089  1.6922 -0.4305
  176MOL0     H23702  10.459   6.635   9.946 -1.6382  1.5860 -0.6048
  176MOL0     H23703  10.282   6.517   9.778 -1.9914 -0.8750  0.4555
  176MOL0     H23704  10.165   6.548   9.889 -0.7671  0.2629 -1.0548
  176MOL0     H23705  10.345   6.756   9.753  1.0932 -3.0272  0.1388
  176MOL0     H23706  10.159   6.729   9.752  0.3347 -1.9907  0.6398
  176MOL0     H23707  10.319   6.853   9.974 -3.9333  2.9604  4.0887
  176MOL0     H23708  10.167   6.797   9.998 -0.9855  2.9621  0.6231
  176MOL0     H23709  10.191   7.053   9.927 -0.9752 -0.9340  0.0677
  176MOL0     H23710  10.179   6.986   9.759  0.0693  0.3671 -0.5153
  176MOL0     H23711   9.993   7.021  10.097 -1.8890 -0.6035  0.6402
  176MOL0     H23712   9.607   6.985   9.994  0.7469  0.1999 -1.3243
  176MOL0     H23713   9.695   6.918  10.129 -2.9760  2.0934  2.0366
  176MOL0     H23714   9.633   7.119  10.223  1.2178  0.9198  0.1348
  176MOL0     H23715   9.793   7.157  10.175  0.8297 -0.6821 -1.5548
  176MOL0     H23716   9.630   7.350  10.105  0.0142  1.2432 -2.4577
  176MOL0     H23717   9.548   7.225  10.014  0.1382  0.3217 -1.9245
  176MOL0     H23718   9.682   7.373   9.878 -0.5783 -2.2528 -1.0223
  176MOL0     H23719   9.770   7.228   9.866  0.8748  1.7336 -1.7964
  176MOL0     H23720  10.066   7.515  10.066 -4.1876 -0.0732 -0.4096
  176MOL0     H23721  10.269   7.559   9.949  1.0431 -1.4699  0.9234
  176MOL0     H23722  10.498   7.186   9.461  2.7299 -1.6256  2.1581
  176MOL0     H23723  10.673   7.211   9.310  0.4563  0.7062  0.0819
  176MOL0     H23724  10.880   7.614   9.304  2.1080  0.8738  1.2985
  176MOL0     H23725  10.954   7.506   9.407 -1.2580 -0.0555 -0.3545
  176MOL0     H23726  11.102   7.423   9.198  0.5829  0.5386 -3.6123
  176MOL0     H23727  11.022   7.539   9.114  1.3140 -0.7559 -0.3282
  176MOL0     H23728  11.102   7.724   9.220 -2.5081 -0.5072  1.9488
  176MOL0     H23729  11.148   7.623   9.362 -3.5740 -1.3927 -1.0205
  176MOL0     H23730  11.286   7.629   9.092 -3.2984 -4.2329  0.0632
  176MOL0     H23731  11.327   7.507   9.203  1.1584 -0.3171 -1.6287
  176MOL0     H23732  11.357   7.697   9.380  2.8080 -0.7740  1.4043
  176MOL0     H23733  11.366   7.805   9.241  2.5091 -0.4349  0.4840
  176MOL0     H23734  11.597   7.706   9.327 -0.4598  1.3986 -1.4662
  176MOL0     H23735  11.547   7.551   9.256  0.7353  0.1133  0.6806
  176MOL0     H23736  11.686   7.775   9.144 -1.9565  2.4932 -0.9692
  176MOL0     H23737  11.555   7.737   9.045 -1.0921  1.7268  1.5381
  176MOL0     H23738  11.780   7.615   9.017  1.0138 -2.0551 -0.0393
  176MOL0     H23739  11.754   7.531   9.154  0.5564 -0.3929 -0.1797
  176MOL0     H23740  10.743   7.606   9.448 -0.6878  0.7871  3.3189
  176MOL0     H23741  10.556   7.589   9.586  0.5391 -0.5554  1.4401
  176MOL0     H23742  10.146   7.283   9.639  2.8363 -2.5301  1.9883
  176MOL0     H23743   9.957   7.220   9.764  1.0161 -0.8696 -1.0676
  176MOL0     H23744  10.920   6.262   9.710 -0.3243  1.7919  0.4852
  176MOL0     H23745  11.112   6.119   9.780 -0.8079  0.3568 -0.5819
  176MOL0     H23746  11.204   5.709   9.999 -0.1132  0.4038 -1.1737
  176MOL0     H23747  11.351   5.527  10.026 -1.2083  0.0435  1.2342
  176MOL0     H23748  11.603   5.438   9.864  1.7403  0.4323 -0.3677
  176MOL0     H23749  11.537   5.383  10.015  0.0834 -1.6067 -0.3326
  176MOL0     H23750  11.707   5.235   9.946 -4.6158  1.6019 -2.5376
  176MOL0     H23751  11.784   5.321  10.078  0.6894  1.3631  0.0291
  176MOL0     H23752  11.865   5.473   9.865 -0.6940  0.1934  1.5528
  176MOL0     H23753  11.799   5.336   9.775  2.0789  0.2131 -0.5131
  176MOL0     H23754  11.956   5.184   9.897 -3.7241  0.2528 -2.9388
  176MOL0     H23755  12.045   5.318   9.803  2.7767 -1.3420  1.3676
  176MOL0     H23756  12.184   5.405  10.180 -0.3476 -0.0755  0.0117
  176MOL0     H23757  11.686   5.805  10.012  0.8646 -2.1227 -2.3522
  176MOL0     H23758  11.515   6.099  10.050 -1.6908 -1.5376  0.6058
  176MOL0     H23759  11.660   6.036   9.975 -0.3783  2.5795  2.1988
  176MOL0     H23760  11.521   6.078   9.874  0.0416  0.0719 -0.4461
  177MOL0     O23761   2.396   4.302   1.035 -0.6826 -0.4551 -0.6703
  177MOL0     C23762   2.358   4.330   1.152  0.6888 -0.2502  0.0900
  177MOL0     O23763   2.439   4.382   1.250  0.0347  0.4186 -0.4633
  177MOL0     C23764   2.569   4.431   1.212 -0.0249  0.6764 -0.0764
  177MOL0     C23765   2.684   4.383   1.283  0.5216 -0.0872  0.3779
  177MOL0     C23766   2.816   4.407   1.231 -1.3305  0.0263 -0.5997
  177MOL0     C23767   2.835   4.489   1.125 -0.2644 -0.0471  0.0321
  177MOL0     O23768   2.954   4.509   1.054  0.0238 -0.1804 -0.1523
  177MOL0     C23769   3.013   4.385   1.007 -0.8185  0.5504 -0.1885
  177MOL0     C23770   3.156   4.419   0.944 -0.1684  0.1404 -1.3739
  177MOL0     C23771   3.260   4.448   1.054 -0.3820  0.6078 -0.2356
  177MOL0     C23772   3.391   4.473   0.994  0.0666 -0.3162 -0.1774
  177MOL0     C23773   3.495   4.518   1.109  0.5128 -0.4950  0.9907
  177MOL0     C23774   3.533   4.400   1.207 -0.2509 -1.2443  0.2413
  177MOL0     C23775   3.627   4.294   1.155 -0.1386 -0.2719  0.5711
  177MOL0     C23776   3.772   4.352   1.134  0.0471  0.1744 -0.0771
  177MOL0     N23777   3.860   4.320   1.248 -0.4341 -0.3478 -0.5100
  177MOL0     C23778   3.953   4.219   1.250  0.3197  0.3981 -0.3638
  177MOL0     C23779   4.012   4.229   1.370 -0.0126 -0.0610 -0.4034
  177MOL0     C23780   4.116   4.133   1.426  0.0751  0.6922  0.4882
  177MOL0     C23781   4.256   4.166   1.378 -0.6035  1.1118  0.0991
  177MOL0     C23782   4.302   4.306   1.432  0.8518  0.1609  0.3289
  177MOL0     C23783   4.447   4.329   1.402  0.2440  0.1576  0.0135
  177MOL0     O23784   4.523   4.253   1.494  0.6525 -0.4320 -0.0201
  177MOL0     C23785   4.648   4.293   1.524 -0.1393  0.3624 -0.2602
  177MOL0     C23786   4.714   4.226   1.627  0.1567 -0.2655 -0.3907
  177MOL0     C23787   4.849   4.229   1.658 -1.1263 -0.2531 -0.1041
  177MOL0     C23788   4.931   4.309   1.576  0.5224  0.7910 -0.0402
  177MOL0     C23789   5.076   4.300   1.579 -0.0588 -0.6776 -0.1122
  177MOL0     O23790   5.145   4.358   1.475  0.2271  0.5668 -0.1046
  177MOL0     C23791   5.287   4.357   1.481  0.0489  0.5881  0.1771
  177MOL0     C23792   5.361   4.235   1.477  0.1301  0.5152  0.6459
  177MOL0     C23793   5.504   4.238   1.462 -0.1051 -0.4639  0.3115
  177MOL0     C23794   5.572   4.356   1.453  0.4307  0.6114 -0.0593
  177MOL0     O23795   5.703   4.343   1.434 -0.4284  0.3109  0.4322
  177MOL0     C23796   5.784   4.429   1.502 -0.0617  0.5313 -0.3697
  177MOL0     C23797   5.936   4.386   1.499  0.7741 -0.0917  0.8367
  177MOL0     C23798   6.021   4.474   1.591 -0.3978 -0.1308  0.1389
  177MOL0     C23799   6.166   4.450   1.560  0.0767 -0.3683 -0.4698
  177MOL0     C23800   6.244   4.538   1.656  0.2928 -0.4448  0.0415
  177MOL0     C23801   6.390   4.542   1.615  0.2458  0.3847  0.5959
  177MOL0     C23802   6.468   4.652   1.690 -0.6278  0.0060 -0.6856
  177MOL0     C23803   6.617   4.629   1.673  0.4527 -0.5478  0.3498
  177MOL0    Cl23804   6.665   4.490   1.778  0.1039 -0.5912  0.1551
  177MOL0     C23805   5.504   4.478   1.458  0.4534  0.2989 -0.1895
  177MOL0     C23806   5.363   4.479   1.478  1.0589  0.4481 -0.0763
  177MOL0     O23807   5.128   4.238   1.671  0.6500 -0.3298  0.5464
  177MOL0     C23808   4.865   4.394   1.479  0.3595 -0.5058 -0.2541
  177MOL0     C23809   4.726   4.390   1.459  0.0400  0.7378 -0.1301
  177MOL0     N23810   3.956   4.339   1.439 -0.4234  0.1273  0.0169
  177MOL0     N23811   3.860   4.391   1.368 -0.1848 -0.0290 -0.0573
  177MOL0     C23812   2.731   4.551   1.068  1.0755  0.6186  0.2428
  177MOL0     C23813   2.594   4.521   1.106 -0.0748 -0.9654  0.2017
  177MOL0     C23814   2.220   4.299   1.178  0.4495  0.7029 -0.5325
  177MOL0     C23815   2.147   4.377   1.270 -0.6229  0.2510  0.8434
  177MOL0     C23816   2.009   4.348   1.291 -0.3156  0.2282 -0.0669
  177MOL0     C23817   1.933   4.253   1.224  0.2846 -0.1189 -0.2823
  177MOL0     O23818   1.804   4.253   1.264  1.3098  0.1445  0.0144
  177MOL0     C23819   1.740   4.127   1.236  0.3202  0.2885  1.0413
  177MOL0     C23820   1.607   4.132   1.299 -0.2708 -0.5530  0.9164
  177MOL0     C23821   1.523   4.019   1.250  0.1974  0.1673 -1.0776
  177MOL0     C23822   1.380   4.020   1.316  0.3293 -0.0403  0.1827
  177MOL0     C23823   1.308   3.893   1.270  0.2877 -0.2618  0.2888
  177MOL0     C23824   1.255   3.791   1.250 -0.8688  0.6915 -1.0727
  177MOL0     C23825   2.004   4.171   1.138 -0.9605 -0.7474 -0.0941
  177MOL0     C23826   2.144   4.189   1.121  0.2707  1.2123  0.1693
  177MOL0     C23827   2.206   4.082   1.029 -0.4819 -0.5498  0.2829
  177MOL0     H23828   2.665   4.326   1.373  0.2455  2.4116  1.9924
  177MOL0     H23829   2.886   4.362   1.300  0.5069  2.4182 -0.7833
  177MOL0     H23830   3.023   4.321   1.096 -0.6794  1.3188  0.3572
  177MOL0     H23831   2.946   4.341   0.933 -0.2332  0.8952 -0.9437
  177MOL0     H23832   3.143   4.508   0.881 -0.9028  1.0398 -0.0059
  177MOL0     H23833   3.191   4.331   0.890  0.0343 -1.3445  1.0187
  177MOL0     H23834   3.266   4.364   1.124 -1.4322  1.5341  1.0174
  177MOL0     H23835   3.216   4.528   1.113 -1.5831 -1.0202  1.1668
  177MOL0     H23836   3.422   4.391   0.928 -1.5091 -0.7505 -0.4333
  177MOL0     H23837   3.375   4.555   0.924 -0.3796 -1.2119 -1.1513
  177MOL0     H23838   3.579   4.568   1.060 -0.1077 -0.8148 -0.4451
  177MOL0     H23839   3.457   4.601   1.168  0.3861  0.4532 -0.3664
  177MOL0     H23840   3.583   4.446   1.293  0.5158 -2.5634  0.5352
  177MOL0     H23841   3.443   4.361   1.255  0.2695  0.7046  2.9975
  177MOL0     H23842   3.591   4.267   1.055 -1.0133 -0.3825  0.9100
  177MOL0     H23843   3.624   4.214   1.230 -0.4777 -0.3178  0.5094
  177MOL0     H23844   3.828   4.321   1.046 -1.1473  2.3517 -1.7042
  177MOL0     H23845   3.765   4.460   1.120  0.7670  0.5511  2.0845
  177MOL0     H23846   3.977   4.143   1.176 -1.0705 -1.5046  1.0221
  177MOL0     H23847   4.129   4.129   1.535  4.4488 -1.7572  0.0922
  177MOL0     H23848   4.095   4.034   1.384 -0.1257 -0.8162  3.7807
  177MOL0     H23849   4.330   4.097   1.420 -0.3830  2.0178  1.2374
  177MOL0     H23850   4.261   4.160   1.269  0.3519  2.3057  0.0595
  177MOL0     H23851   4.271   4.332   1.533 -1.8359  0.9091 -0.5859
  177MOL0     H23852   4.244   4.378   1.374  1.5139  1.2244  0.9477
  177MOL0     H23853   4.464   4.436   1.415 -3.1044  0.7986 -0.0535
  177MOL0     H23854   4.475   4.290   1.303  0.9281 -1.4701  0.8048
  177MOL0     H23855   4.658   4.158   1.691  1.9553 -1.4861 -0.0278
  177MOL0     H23856   4.887   4.187   1.751  1.8593  1.9313 -0.2019
  177MOL0     H23857   5.313   4.137   1.483  1.0167 -0.1055 -1.6218
  177MOL0     H23858   5.565   4.149   1.455  0.8158  0.0907  0.9257
  177MOL0     H23859   5.778   4.529   1.458 -1.1351 -0.2292 -2.0744
  177MOL0     H23860   5.757   4.440   1.608 -0.5876 -0.1887 -0.4209
  177MOL0     H23861   5.942   4.279   1.522  2.6262 -0.9454 -2.8855
  177MOL0     H23862   5.970   4.386   1.395  2.2187 -0.3110  1.2828
  177MOL0     H23863   6.005   4.582   1.582  0.5044 -0.1102 -1.6410
  177MOL0     H23864   6.012   4.450   1.697 -3.1104 -1.3497 -0.2899
  177MOL0     H23865   6.189   4.477   1.457  2.9250  0.2329  0.2393
  177MOL0     H23866   6.194   4.346   1.578 -1.3551 -0.6006  0.6514
  177MOL0     H23867   6.228   4.499   1.757 -2.6502  0.1293 -0.1037
  177MOL0     H23868   6.202   4.638   1.647 -1.4019 -1.1183  0.0032
  177MOL0     H23869   6.420   4.439   1.632 -0.9546 -0.4476 -1.9596
  177MOL0     H23870   6.401   4.578   1.513  0.6523  2.0132  1.1775
  177MOL0     H23871   6.432   4.642   1.793 -3.1625  1.5260 -1.3327
  177MOL0     H23872   6.454   4.756   1.661 -0.3929  0.4521  0.7021
  177MOL0     H23873   6.642   4.617   1.567 -0.1001  1.5633 -0.0607
  177MOL0     H23874   6.674   4.717   1.703  2.2084 -0.5171 -2.6432
  177MOL0     H23875   5.557   4.573   1.450 -0.3068  0.9978  2.0513
  177MOL0     H23876   5.318   4.577   1.486 -0.7340 -0.3518  0.2465
  177MOL0     H23877   4.923   4.464   1.420 -2.6371  1.4843 -1.0924
  177MOL0     H23878   4.683   4.451   1.380  2.8437  1.2185 -1.4100
  177MOL0     H23879   2.749   4.621   0.987  1.2866  1.5275  1.0622
  177MOL0     H23880   2.519   4.583   1.058 -1.4125 -0.2447  2.9832
  177MOL0     H23881   2.194   4.451   1.334 -3.2801  2.5794  0.3310
  177MOL0     H23882   1.959   4.403   1.370  1.3691  1.5149  0.1593
  177MOL0     H23883   1.800   4.049   1.284  3.0577  0.7902 -1.3705
  177MOL0     H23884   1.734   4.111   1.128 -2.2472  0.7450  1.0454
  177MOL0     H23885   1.552   4.225   1.280 -0.4563 -0.7411  0.5168
  177MOL0     H23886   1.626   4.117   1.405  2.8169 -1.0656  0.3642
  177MOL0     H23887   1.566   3.929   1.295  2.2768  1.3218 -0.6097
  177MOL0     H23888   1.520   4.013   1.141 -0.7896 -2.3361 -0.9782
  177MOL0     H23889   1.389   4.023   1.425 -1.9709  0.3165  0.4090
  177MOL0     H23890   1.317   4.104   1.285 -1.0447 -0.4939  1.6552
  177MOL0     H23891   1.217   3.693   1.229 -2.3123  0.4298  2.0686
  177MOL0     H23892   1.956   4.090   1.085 -1.3880  0.4516 -1.6057
  177MOL0     H23893   2.246   4.134   0.941  1.4796  0.9605  2.0019
  177MOL0     H23894   2.285   4.030   1.084 -0.4650  0.7668  1.5390
  177MOL0     H23895   2.130   4.011   0.992  0.9146 -1.0758 -1.7294
  178MOL0     O23896  11.283   0.765   8.940 -0.2200 -0.4285 -0.3459
  178MOL0     C23897  11.183   0.829   8.958  0.1108  0.1996  0.5758
  178MOL0     O23898  11.059   0.794   8.901 -0.0500 -0.9466 -0.0817
  178MOL0     C23899  11.051   0.682   8.826 -0.2869 -0.4080 -0.7647
  178MOL0     C23900  10.967   0.576   8.864  0.0796 -0.0140 -0.3918
  178MOL0     C23901  10.946   0.471   8.777 -0.1018  0.1943 -0.7005
  178MOL0     C23902  11.011   0.463   8.657 -0.3128 -0.3106  0.2770
  178MOL0     O23903  10.982   0.347   8.587  0.4458 -0.3714 -0.1472
  178MOL0     C23904  11.062   0.326   8.467  0.0202 -0.1431 -0.5276
  178MOL0     C23905  11.031   0.191   8.407  0.2249  0.5882  0.3966
  178MOL0     C23906  11.137   0.138   8.313  0.0988 -0.1991  0.0929
  178MOL0     C23907  11.128  -0.006   8.277  0.6454  0.5488  0.1296
  178MOL0     C23908  11.233  -0.065   8.185  0.3580 -0.0111 -0.5983
  178MOL0     C23909  11.359  -0.073   8.262  0.2481 -0.2101  0.2777
  178MOL0     C23910  11.478  -0.097   8.171 -0.0973 -0.0666 -0.4784
  178MOL0     C23911  11.460  -0.237   8.104  0.6985  0.3268 -0.7907
  178MOL0     N23912  11.588  -0.290   8.056  0.2099 -0.0940  0.2145
  178MOL0     C23913  11.684  -0.353   8.128  0.2021  1.4204 -0.3527
  178MOL0     C23914  11.772  -0.405   8.039  0.5194  0.2986  0.0714
  178MOL0     C23915  11.908  -0.472   8.060  1.1819  0.5388  0.0733
  178MOL0     C23916  12.021  -0.374   8.059  1.0133 -0.1474  0.1240
  178MOL0     C23917  12.162  -0.436   8.061  0.5298  0.6577 -0.0542
  178MOL0     C23918  12.262  -0.324   8.093 -0.2153  0.2399 -0.1310
  178MOL0     O23919  12.387  -0.391   8.102 -0.0038 -0.0357 -0.4993
  178MOL0     C23920  12.502  -0.315   8.114  0.0964  0.8353  0.0540
  178MOL0     C23921  12.508  -0.187   8.149 -0.1177 -0.2605 -0.2503
  178MOL0     C23922  12.629  -0.117   8.159 -0.3632  0.0628  0.0376
  178MOL0     C23923  12.749  -0.183   8.124 -0.1680 -0.2081  0.7329
  178MOL0     C23924  12.881  -0.120   8.143  0.1877  0.1754 -0.1186
  178MOL0     O23925  12.990  -0.179   8.082  0.4591 -1.1687  0.0303
  178MOL0     C23926  13.117  -0.123   8.072  0.6160 -0.2823  0.2624
  178MOL0     C23927  13.197  -0.178   7.972  0.3175  0.8489  0.5387
  178MOL0     C23928  13.323  -0.131   7.949 -0.5216 -0.2091 -0.5629
  178MOL0     C23929  13.388  -0.040   8.039 -0.9825 -0.0998  0.2949
  178MOL0     O23930  13.520   0.002   8.020  0.2160  0.2050  0.3799
  178MOL0     C23931  13.621  -0.095   8.006 -0.7328 -0.2464  0.5624
  178MOL0     C23932  13.762  -0.026   7.982  0.5527  0.0046 -1.1013
  178MOL0     C23933  13.866  -0.142   7.956 -1.3312  0.3655  0.3668
  178MOL0     C23934  13.866  -0.173   7.807 -0.9699 -0.4004  0.1727
  178MOL0     C23935  13.989  -0.119   7.726 -0.1005 -0.0943  0.2516
  178MOL0     C23936  14.011  -0.188   7.586  0.0899  0.8218  0.5131
  178MOL0     C23937  14.105  -0.105   7.503  0.1229  0.0535  0.4512
  178MOL0     C23938  14.220  -0.182   7.439  0.7066 -0.0148  0.3864
  178MOL0    Cl23939  14.342  -0.218   7.559 -0.0388  0.1122 -0.2361
  178MOL0     C23940  13.307   0.019   8.131 -0.1965 -0.4041 -0.1000
  178MOL0     C23941  13.177  -0.018   8.148  0.5789  0.5770  0.2152
  178MOL0     O23942  12.880  -0.012   8.204  0.6247 -0.2089  0.1564
  178MOL0     C23943  12.744  -0.316   8.090  0.0188  0.1693 -0.1614
  178MOL0     C23944  12.622  -0.381   8.080  0.9056  0.2090  0.1187
  178MOL0     N23945  11.713  -0.375   7.916 -0.2576  0.5363  0.7552
  178MOL0     N23946  11.607  -0.305   7.927  0.2416  0.5518 -0.3340
  178MOL0     C23947  11.101   0.565   8.621  0.4086 -0.6680  0.0443
  178MOL0     C23948  11.120   0.671   8.712 -0.4425  0.0725  0.7116
  178MOL0     C23949  11.203   0.959   9.039  0.3105 -0.2326  0.3594
  178MOL0     C23950  11.299   0.958   9.139 -0.2655  0.2563 -0.2494
  178MOL0     C23951  11.325   1.065   9.218 -0.2007  0.2485  0.0747
  178MOL0     C23952  11.260   1.191   9.198  0.9017  0.2514 -0.9523
  178MOL0     O23953  11.285   1.309   9.256 -0.5807 -0.7264 -0.4571
  178MOL0     C23954  11.402   1.326   9.338 -0.7404 -1.0655  0.3127
  178MOL0     C23955  11.536   1.316   9.255  0.4884 -0.1977 -0.4411
  178MOL0     C23956  11.533   1.430   9.151  0.0910  0.0698 -1.0139
  178MOL0     C23957  11.663   1.452   9.078 -0.3613  0.1588 -0.1372
  178MOL0     C23958  11.754   1.531   9.165 -0.0920  0.0940 -0.3177
  178MOL0     C23959  11.827   1.594   9.238  0.3139  0.1965  0.1115
  178MOL0     C23960  11.163   1.195   9.101  0.9114 -0.0086 -0.1006
  178MOL0     C23961  11.132   1.082   9.016 -0.0969 -0.0171 -0.2400
  178MOL0     C23962  11.028   1.101   8.910  0.4652  0.3668  0.2635
  178MOL0     H23963  10.903   0.580   8.952 -2.6679 -2.7309 -2.0629
  178MOL0     H23964  10.888   0.386   8.810  0.1096  0.1003 -0.5704
  178MOL0     H23965  11.035   0.395   8.386 -2.1945 -1.0593 -0.6508
  178MOL0     H23966  11.169   0.329   8.487  0.4751 -2.3983 -2.2439
  178MOL0     H23967  10.937   0.203   8.352  1.4655  0.5079 -1.8945
  178MOL0     H23968  11.026   0.124   8.493  1.0072 -0.1991 -0.1430
  178MOL0     H23969  11.228   0.149   8.373  0.7084 -0.4167 -0.7718
  178MOL0     H23970  11.159   0.201   8.226  2.3340  0.1819  0.8636
  178MOL0     H23971  11.119  -0.061   8.371 -2.4859  1.3579  0.3993
  178MOL0     H23972  11.036  -0.022   8.221  1.0474  0.4271 -0.5077
  178MOL0     H23973  11.205  -0.155   8.131 -0.0593  1.6102 -3.2723
  178MOL0     H23974  11.247   0.008   8.105 -1.1489  3.9905  2.4420
  178MOL0     H23975  11.374   0.025   8.308 -1.2657  1.4127 -2.4130
  178MOL0     H23976  11.348  -0.152   8.337  1.6542  1.0414  1.8747
  178MOL0     H23977  11.572  -0.093   8.226 -0.9867  0.4285  1.0614
  178MOL0     H23978  11.487  -0.019   8.094  3.1575  1.2021  1.0049
  178MOL0     H23979  11.424  -0.314   8.172  1.3210 -0.2515 -1.0968
  178MOL0     H23980  11.385  -0.227   8.025  0.2413 -3.0078 -0.9384
  178MOL0     H23981  11.703  -0.365   8.234 -0.8786 -1.3476 -0.3868
  178MOL0     H23982  11.906  -0.513   8.162 -1.6798  2.8365  1.0615
  178MOL0     H23983  11.924  -0.554   7.989 -0.6204  0.5638 -0.4244
  178MOL0     H23984  12.003  -0.325   7.963  0.7237 -1.4971 -0.5229
  178MOL0     H23985  12.005  -0.301   8.139 -0.7026 -0.4591  0.0949
  178MOL0     H23986  12.179  -0.483   7.963 -1.1327  0.8570 -0.4545
  178MOL0     H23987  12.181  -0.507   8.142  0.5984 -1.2052 -1.6279
  178MOL0     H23988  12.244  -0.284   8.193  1.5379  0.2757  0.2071
  178MOL0     H23989  12.250  -0.250   8.013 -0.3266 -0.3358 -0.6532
  178MOL0     H23990  12.419  -0.130   8.176  2.0171  1.7120  3.3949
  178MOL0     H23991  12.631  -0.010   8.177  3.3311  0.4135 -1.5967
  178MOL0     H23992  13.154  -0.252   7.905  0.1107 -0.4301  2.0343
  178MOL0     H23993  13.388  -0.174   7.874  1.5379  2.3012 -0.3588
  178MOL0     H23994  13.622  -0.154   8.098 -1.1265  0.6273  1.1477
  178MOL0     H23995  13.607  -0.150   7.913 -0.0667 -0.5805  0.6539
  178MOL0     H23996  13.754   0.045   7.899 -1.3157  0.6660 -0.4191
  178MOL0     H23997  13.794   0.028   8.072  1.4500  0.4259 -1.6601
  178MOL0     H23998  13.967  -0.112   7.987  0.1534 -2.6860 -1.1391
  178MOL0     H23999  13.846  -0.232   8.013  3.7215 -2.2242 -1.3555
  178MOL0     H24000  13.776  -0.135   7.759  0.4837 -1.0786 -3.4220
  178MOL0     H24001  13.876  -0.282   7.795  0.1674 -0.3071  0.1487
  178MOL0     H24002  14.075  -0.154   7.783 -1.0499 -2.9382  0.1094
  178MOL0     H24003  13.984  -0.010   7.715  2.2743 -0.1085 -2.3052
  178MOL0     H24004  14.046  -0.291   7.596 -2.4877 -0.0179  1.5537
  178MOL0     H24005  13.906  -0.194   7.556  0.1901  0.3746  0.2331
  178MOL0     H24006  14.143  -0.017   7.556  0.3996 -0.7484  1.6156
  178MOL0     H24007  14.044  -0.069   7.420 -0.2305 -3.1265 -0.8247
  178MOL0     H24008  14.184  -0.275   7.394  1.5586 -0.7581  1.2049
  178MOL0     H24009  14.264  -0.129   7.355 -2.1162  0.5570 -0.8632
  178MOL0     H24010  13.356   0.094   8.192 -0.7366  1.5624 -1.9583
  178MOL0     H24011  13.125   0.027   8.233  1.7051 -2.0114  2.4155
  178MOL0     H24012  12.825  -0.367   8.039 -1.8114  0.3651 -3.5415
  178MOL0     H24013  12.620  -0.487   8.058 -0.8675 -0.0244  1.1771
  178MOL0     H24014  11.155   0.545   8.529  0.7429  0.9263 -0.1420
  178MOL0     H24015  11.200   0.740   8.690  0.7845 -0.9820  1.6861
  178MOL0     H24016  11.351   0.868   9.169  0.9518  0.5609 -1.3171
  178MOL0     H24017  11.394   1.039   9.299 -0.1509 -2.3574 -0.7100
  178MOL0     H24018  11.389   1.248   9.413 -2.0910 -1.4133 -0.2483
  178MOL0     H24019  11.400   1.422   9.390 -0.0975 -0.0941 -1.3663
  178MOL0     H24020  11.530   1.221   9.202 -1.0609 -0.1421 -0.4057
  178MOL0     H24021  11.630   1.316   9.312 -0.9265  3.4200  2.3063
  178MOL0     H24022  11.491   1.521   9.195 -4.7460 -2.1850 -0.2351
  178MOL0     H24023  11.456   1.400   9.079 -2.3049  0.4669  1.2150
  178MOL0     H24024  11.715   1.363   9.041 -1.5164  0.2096 -2.0059
  178MOL0     H24025  11.650   1.510   8.986  1.5006 -1.4409 -1.4733
  178MOL0     H24026  11.886   1.646   9.311  1.1342  1.9097 -1.6444
  178MOL0     H24027  11.116   1.289   9.074  0.5091 -0.2012 -0.0705
  178MOL0     H24028  11.054   1.030   8.831 -0.7157  0.9196 -0.6526
  178MOL0     H24029  10.929   1.077   8.950  1.2164 -1.6395  1.0978
  178MOL0     H24030  11.019   1.203   8.872  1.1949  0.3814  0.1204
  179MOL0     O24031  10.571   8.257   2.172 -0.2540 -0.1272 -0.0067
  179MOL0     C24032  10.576   8.381   2.199  0.6581  0.1424 -0.8297
  179MOL0     O24033  10.520   8.436   2.308  0.5306  0.5393 -0.6134
  179MOL0     C24034  10.475   8.360   2.412  0.3303 -0.2441  0.2978
  179MOL0     C24035  10.363   8.409   2.475 -0.1426  0.0003  0.2409
  179MOL0     C24036  10.295   8.335   2.572 -0.5146 -0.5169 -1.0287
  179MOL0     C24037  10.341   8.214   2.615 -0.9430 -0.0476 -0.4499
  179MOL0     O24038  10.270   8.137   2.707 -0.4511 -0.0767 -0.2948
  179MOL0     C24039  10.201   8.205   2.816 -0.8447  0.5967 -0.2753
  179MOL0     C24040  10.283   8.272   2.927 -0.1532 -0.0429 -0.5212
  179MOL0     C24041  10.335   8.412   2.882 -1.2295 -0.3005 -0.0574
  179MOL0     C24042  10.417   8.482   2.993 -0.4106 -0.3894 -0.1735
  179MOL0     C24043  10.475   8.617   2.952 -0.3437  0.0768 -0.2330
  179MOL0     C24044  10.552   8.672   3.082 -0.1915 -0.6387  0.5682
  179MOL0     C24045  10.604   8.816   3.060 -0.3552  0.3397  0.9147
  179MOL0     C24046  10.644   8.883   3.190  0.0986  0.2904 -0.8038
  179MOL0     N24047  10.752   8.821   3.267 -0.0016  0.5808 -0.0844
  179MOL0     C24048  10.837   8.724   3.226 -0.9888  0.5128  0.6953
  179MOL0     C24049  10.912   8.692   3.338  0.2486 -0.2603 -0.2170
  179MOL0     C24050  11.037   8.600   3.324  1.0652 -0.2211  0.4882
  179MOL0     C24051  11.008   8.461   3.365 -0.7806  0.7705  0.2587
  179MOL0     C24052  11.114   8.356   3.308  0.5007 -0.6955 -0.0430
  179MOL0     C24053  11.077   8.217   3.361  0.1978 -0.1120  0.5449
  179MOL0     O24054  11.169   8.117   3.316 -0.2016  0.3830 -0.0419
  179MOL0     C24055  11.200   8.091   3.181  0.6926  0.0343 -0.6456
  179MOL0     C24056  11.318   8.030   3.154 -0.6596 -0.2664  0.4812
  179MOL0     C24057  11.361   8.012   3.024  0.1712 -0.2996  0.8395
  179MOL0     C24058  11.275   8.045   2.914  0.5271  0.3017  0.6195
  179MOL0     C24059  11.338   8.044   2.784 -0.9669 -0.0664 -0.6200
  179MOL0     O24060  11.319   8.154   2.705 -0.2225 -0.2912 -1.3410
  179MOL0     C24061  11.379   8.148   2.588 -0.9818  0.9619  0.3925
  179MOL0     C24062  11.323   8.067   2.483 -0.0544 -0.2905 -0.6901
  179MOL0     C24063  11.370   8.073   2.353  0.3389 -0.1100 -0.2164
  179MOL0     C24064  11.475   8.171   2.320  0.2120 -0.0268 -0.0665
  179MOL0     O24065  11.524   8.175   2.187  0.2473  0.2364  0.2300
  179MOL0     C24066  11.658   8.211   2.164 -0.2952 -0.3090 -0.3314
  179MOL0     C24067  11.697   8.204   2.019  0.1809  0.1392  0.6880
  179MOL0     C24068  11.611   8.294   1.932  0.5060  0.0528 -0.7581
  179MOL0     C24069  11.658   8.306   1.787 -0.2546 -0.1909  0.1226
  179MOL0     C24070  11.753   8.410   1.760 -0.2549 -0.6885  0.1063
  179MOL0     C24071  11.694   8.555   1.752  0.3952  0.2998  0.4125
  179MOL0     C24072  11.801   8.656   1.787 -0.5921  0.1112 -1.2049
  179MOL0     C24073  11.830   8.649   1.947  0.2278 -0.4089  0.9030
  179MOL0    Cl24074  11.937   8.775   1.983 -0.3176  0.3512 -0.3582
  179MOL0     C24075  11.529   8.250   2.421 -0.2884  0.0419  0.8172
  179MOL0     C24076  11.486   8.241   2.552  0.7592 -0.5609  0.1877
  179MOL0     O24077  11.383   7.936   2.754 -0.1006  0.2370 -0.2475
  179MOL0     C24078  11.149   8.096   2.939  0.0315 -0.1005 -0.3719
  179MOL0     C24079  11.112   8.117   3.077 -0.2261 -0.3437 -0.2873
  179MOL0     N24080  10.873   8.766   3.441  0.1733  0.4950  0.4033
  179MOL0     N24081  10.769   8.836   3.401  0.1091  0.3298 -0.2888
  179MOL0     C24082  10.469   8.176   2.565  0.7650  0.2176 -0.0084
  179MOL0     C24083  10.534   8.245   2.463 -0.5170  0.6563 -0.3055
  179MOL0     C24084  10.641   8.465   2.104  0.1326 -0.3955  0.1971
  179MOL0     C24085  10.635   8.422   1.974 -0.5119 -0.1678 -0.5863
  179MOL0     C24086  10.707   8.479   1.872  0.1100 -0.0245  1.0305
  179MOL0     C24087  10.774   8.601   1.900 -0.6468 -0.0720  0.7516
  179MOL0     O24088  10.849   8.669   1.812  0.0440 -0.3820  0.2929
  179MOL0     C24089  10.901   8.612   1.684 -0.8064  0.7894  0.4421
  179MOL0     C24090  10.809   8.626   1.561 -0.3621 -0.7903 -0.2781
  179MOL0     C24091  10.880   8.574   1.431 -0.5047 -1.4426 -0.3360
  179MOL0     C24092  10.831   8.437   1.395  0.1859  0.2637 -0.0942
  179MOL0     C24093  10.881   8.334   1.482 -0.2108  0.5196 -0.7951
  179MOL0     C24094  10.923   8.243   1.546 -0.3025 -0.0864 -0.5337
  179MOL0     C24095  10.768   8.655   2.027 -0.6252  0.1572  0.4461
  179MOL0     C24096  10.709   8.583   2.129  0.7008 -0.7710 -0.0473
  179MOL0     C24097  10.712   8.645   2.262 -0.5912 -0.6016  0.2915
  179MOL0     H24098  10.320   8.490   2.416  0.9900  1.2415  1.0752
  179MOL0     H24099  10.200   8.383   2.596 -0.7994 -0.2857 -2.4815
  179MOL0     H24100  10.144   8.286   2.770 -1.1846  0.4971 -0.0277
  179MOL0     H24101  10.133   8.131   2.860  1.6225 -1.4024  0.4066
  179MOL0     H24102  10.365   8.212   2.968 -1.0489 -1.6006 -0.9340
  179MOL0     H24103  10.208   8.284   3.006  0.4085 -1.3494  0.2506
  179MOL0     H24104  10.258   8.483   2.852  0.3827  2.1303  1.2427
  179MOL0     H24105  10.416   8.400   2.808 -0.6332  1.7822  0.1974
  179MOL0     H24106  10.351   8.479   3.080 -0.1682 -0.0800  0.0207
  179MOL0     H24107  10.497   8.411   3.019  0.2676 -0.0044 -1.1439
  179MOL0     H24108  10.551   8.604   2.875  0.2193 -2.0841  0.5937
  179MOL0     H24109  10.390   8.678   2.921 -0.0184 -1.5717 -5.2254
  179MOL0     H24110  10.481   8.671   3.165 -1.8502  0.7647 -0.7683
  179MOL0     H24111  10.629   8.596   3.097  0.9518 -0.1460 -2.1586
  179MOL0     H24112  10.536   8.875   2.997  0.7848  0.4838 -0.2171
  179MOL0     H24113  10.695   8.796   3.002 -1.7316 -2.4634 -0.4849
  179MOL0     H24114  10.699   8.972   3.157  0.2437  0.5806  0.1737
  179MOL0     H24115  10.557   8.910   3.250  0.5574 -0.5017  0.2592
  179MOL0     H24116  10.857   8.700   3.122 -2.5091  1.7163  0.0781
  179MOL0     H24117  11.076   8.605   3.222  1.8386  0.1750  0.7960
  179MOL0     H24118  11.115   8.653   3.379  0.0035  2.6422 -0.6034
  179MOL0     H24119  11.013   8.463   3.474 -6.0600  0.2864  0.7695
  179MOL0     H24120  10.908   8.423   3.343 -0.3669 -0.0713 -0.2127
  179MOL0     H24121  11.213   8.382   3.347 -0.2974 -1.5116  2.7669
  179MOL0     H24122  11.111   8.358   3.199 -0.4564 -2.0612 -0.0715
  179MOL0     H24123  10.973   8.198   3.332  0.9266 -2.1721 -1.0367
  179MOL0     H24124  11.084   8.221   3.470 -1.8202  0.9945  0.6755
  179MOL0     H24125  11.395   8.006   3.226  0.5633  0.9889 -0.3629
  179MOL0     H24126  11.465   7.980   3.013 -0.2597 -1.0522 -1.7774
  179MOL0     H24127  11.237   8.000   2.490 -0.5857 -0.3368 -5.1157
  179MOL0     H24128  11.321   8.005   2.284 -1.5145  1.2445 -0.3051
  179MOL0     H24129  11.672   8.314   2.199  0.9710 -0.3839 -0.5739
  179MOL0     H24130  11.714   8.140   2.225 -0.8735 -0.2582  0.2779
  179MOL0     H24131  11.800   8.242   2.012 -0.7451  2.7594  0.1158
  179MOL0     H24132  11.686   8.101   1.985 -2.1964  0.7472 -0.6167
  179MOL0     H24133  11.515   8.242   1.928  1.2600 -1.3314 -1.2393
  179MOL0     H24134  11.593   8.395   1.970  0.0106 -0.2785 -0.1037
  179MOL0     H24135  11.572   8.323   1.721 -0.1330 -0.1016 -0.0123
  179MOL0     H24136  11.706   8.212   1.759  1.3189  0.4701  0.4875
  179MOL0     H24137  11.798   8.396   1.661  3.0913 -0.7589  1.5267
  179MOL0     H24138  11.839   8.403   1.826  2.7186  3.2516 -2.8725
  179MOL0     H24139  11.658   8.579   1.651  1.4276  2.1506  0.4229
  179MOL0     H24140  11.612   8.567   1.823 -0.5313 -1.4368 -0.2982
  179MOL0     H24141  11.782   8.758   1.752  3.7128  1.5201  0.0198
  179MOL0     H24142  11.897   8.632   1.740  2.6036  3.5520  2.7972
  179MOL0     H24143  11.735   8.659   2.000  0.5363 -2.3845  1.9146
  179MOL0     H24144  11.872   8.555   1.982 -0.7275 -1.4100 -0.5309
  179MOL0     H24145  11.605   8.320   2.388 -0.9467  0.4043  0.0247
  179MOL0     H24146  11.522   8.306   2.631  0.5673 -2.2172  1.7195
  179MOL0     H24147  11.093   8.140   2.857 -2.8835  0.4711  1.7551
  179MOL0     H24148  11.022   8.173   3.101 -0.6922  0.6562 -3.7107
  179MOL0     H24149  10.508   8.089   2.616  1.0520 -1.0501 -2.2617
  179MOL0     H24150  10.628   8.198   2.433  0.1879  0.7087  1.6837
  179MOL0     H24151  10.578   8.339   1.932 -0.0408  0.0690 -1.7360
  179MOL0     H24152  10.698   8.443   1.771 -0.6868  2.1748  0.2549
  179MOL0     H24153  10.930   8.507   1.695 -0.3597  1.0870  2.5083
  179MOL0     H24154  11.000   8.650   1.655  0.2467 -0.3755  2.2622
  179MOL0     H24155  10.792   8.733   1.545  0.1765 -0.7390 -0.5266
  179MOL0     H24156  10.712   8.580   1.581 -0.3201 -0.4946  0.6214
  179MOL0     H24157  10.987   8.583   1.450 -0.8117 -1.7886  1.7792
  179MOL0     H24158  10.849   8.632   1.343  2.0405  0.6744  0.0432
  179MOL0     H24159  10.722   8.438   1.401  0.0260  4.7077 -0.4682
  179MOL0     H24160  10.869   8.397   1.301 -1.8543 -2.0209 -0.0294
  179MOL0     H24161  10.947   8.167   1.617 -0.6912  2.2431  2.3216
  179MOL0     H24162  10.836   8.739   2.038 -0.3060 -0.0953  0.3982
  179MOL0     H24163  10.783   8.726   2.279 -3.9284  3.1205 -1.8962
  179MOL0     H24164  10.613   8.675   2.298 -0.5420 -0.1507  0.0459
  179MOL0     H24165  10.734   8.561   2.330 -0.9301 -0.7992  0.1636
  180MOL0     O24166   2.336  10.277   7.273  0.3025 -0.4996 -0.5773
  180MOL0     C24167   2.280  10.294   7.380 -0.7960  0.5041 -0.4132
  180MOL0     O24168   2.336  10.291   7.496 -0.7552  0.2475 -0.8564
  180MOL0     C24169   2.475  10.266   7.512 -0.4769  0.2388 -0.8786
  180MOL0     C24170   2.503  10.200   7.625 -0.3725 -0.8898 -0.8625
  180MOL0     C24171   2.638  10.178   7.660  0.5484  0.5483  0.4205
  180MOL0     C24172   2.743  10.225   7.583  0.1261  0.9035 -0.5909
  180MOL0     O24173   2.870  10.200   7.637  0.2775 -0.2725  0.0912
  180MOL0     C24174   2.980  10.282   7.602  0.6682 -0.0666  0.4179
  180MOL0     C24175   3.106  10.273   7.686 -0.1082 -0.1102 -0.2011
  180MOL0     C24176   3.181  10.141   7.702  0.1190 -0.0423 -0.0092
  180MOL0     C24177   3.333  10.162   7.733  0.3922 -0.9170  0.6447
  180MOL0     C24178   3.412  10.039   7.763 -0.4513 -0.5692 -0.1470
  180MOL0     C24179   3.565  10.041   7.734 -0.7122 -0.3962  0.5215
  180MOL0     C24180   3.645   9.917   7.786  0.6668 -0.4441  0.6501
  180MOL0     C24181   3.798   9.933   7.775  0.5313 -0.2414  0.0029
  180MOL0     N24182   3.856   9.820   7.838 -0.2155  0.1132 -0.4071
  180MOL0     C24183   3.937   9.731   7.763  0.4164 -0.2303  0.2993
  180MOL0     C24184   3.996   9.656   7.857 -0.3427  0.1774 -0.2820
  180MOL0     C24185   4.080   9.531   7.832 -0.3936 -0.2971 -0.1702
  180MOL0     C24186   4.206   9.525   7.917 -0.6346  0.2487 -0.4620
  180MOL0     C24187   4.259   9.389   7.919 -0.1280  0.9738 -0.9544
  180MOL0     C24188   4.297   9.336   7.778 -0.1584 -0.7577  0.8576
  180MOL0     O24189   4.386   9.426   7.717 -0.4189  0.4673  0.6685
  180MOL0     C24190   4.514   9.402   7.746 -1.0509 -1.3383  0.2391
  180MOL0     C24191   4.588   9.453   7.854  1.0407  0.7754 -0.8006
  180MOL0     C24192   4.724   9.429   7.864 -1.3042  0.1527  0.1756
  180MOL0     C24193   4.800   9.346   7.774  0.5816  0.9709  0.8229
  180MOL0     C24194   4.947   9.310   7.801 -0.3380 -0.6762 -0.5996
  180MOL0     O24195   5.037   9.407   7.852  0.1668 -0.0216 -0.1762
  180MOL0     C24196   5.158   9.367   7.892  0.0221 -0.2964  0.0811
  180MOL0     C24197   5.273   9.404   7.828  0.2971 -0.1609 -0.0473
  180MOL0     C24198   5.399   9.367   7.870  0.3951  0.0371  0.5423
  180MOL0     C24199   5.413   9.282   7.980 -0.4759  0.8281 -0.2213
  180MOL0     O24200   5.530   9.227   8.025  0.1537 -0.3232 -0.2736
  180MOL0     C24201   5.639   9.320   8.024  0.1014  0.0102  0.9165
  180MOL0     C24202   5.730   9.288   8.142 -0.2299  1.3103 -0.8218
  180MOL0     C24203   5.865   9.347   8.138 -1.0650  0.5576 -1.0842
  180MOL0     C24204   5.955   9.307   8.255 -0.0988 -0.1757  0.0321
  180MOL0     C24205   6.108   9.335   8.222 -0.4238  0.0077  0.2322
  180MOL0     C24206   6.208   9.257   8.306  0.4330 -0.7694  0.0183
  180MOL0     C24207   6.350   9.306   8.276 -0.0307  0.0157  0.2819
  180MOL0     C24208   6.446   9.198   8.314  0.1031  0.3451  0.1913
  180MOL0    Cl24209   6.411   9.038   8.236  0.0641  0.4544 -0.3239
  180MOL0     C24210   5.292   9.254   8.049 -0.1875  0.6249 -0.0653
  180MOL0     C24211   5.167   9.293   8.005 -0.1147  0.5266 -0.8099
  180MOL0     O24212   4.975   9.192   7.778 -0.4025  0.5255  0.0470
  180MOL0     C24213   4.720   9.277   7.679 -0.6506  0.4449 -0.2022
  180MOL0     C24214   4.586   9.312   7.668  0.6681  0.4102  0.0371
  180MOL0     N24215   3.953   9.690   7.983 -0.1575  0.4945 -0.5116
  180MOL0     N24216   3.871   9.793   7.976  0.1088  0.0459  0.2807
  180MOL0     C24217   2.709  10.292   7.469  0.1240  0.2680  0.6436
  180MOL0     C24218   2.576  10.318   7.430  0.8293  0.1582 -0.5666
  180MOL0     C24219   2.132  10.311   7.378  0.5311 -0.2189  0.5974
  180MOL0     C24220   2.070  10.349   7.507  0.7421 -0.2008 -0.2122
  180MOL0     C24221   1.935  10.391   7.515 -0.3216  0.3789 -0.3279
  180MOL0     C24222   1.857  10.393   7.398 -0.3909  0.3603 -0.0038
  180MOL0     O24223   1.723  10.438   7.398  1.0376 -0.3619 -0.3815
  180MOL0     C24224   1.682  10.536   7.492 -0.6671 -0.3233  0.2385
  180MOL0     C24225   1.536  10.573   7.451  0.0715 -0.3916  0.4925
  180MOL0     C24226   1.444  10.450   7.460 -0.1487  0.3172  0.2400
  180MOL0     C24227   1.298  10.471   7.437  0.1819  0.5627 -0.9378
  180MOL0     C24228   1.207  10.366   7.482 -0.2591 -0.3304 -0.2078
  180MOL0     C24229   1.138  10.264   7.507  0.0490  0.0865 -0.2257
  180MOL0     C24230   1.917  10.355   7.273  0.6518 -0.7775  0.5540
  180MOL0     C24231   2.059  10.322   7.261  0.0896  0.1372  0.0692
  180MOL0     C24232   2.108  10.281   7.120 -0.3920  0.5845 -0.1326
  180MOL0     H24233   2.423  10.173   7.693 -1.5523 -0.9390 -2.2472
  180MOL0     H24234   2.657  10.121   7.751 -1.8681  0.0258  0.6860
  180MOL0     H24235   3.011  10.252   7.501  1.4673 -2.4895  1.2951
  180MOL0     H24236   2.954  10.388   7.607  1.2448  0.0532  0.9591
  180MOL0     H24237   3.072  10.309   7.784 -2.2108 -1.0645 -0.5275
  180MOL0     H24238   3.184  10.338   7.647  0.2858 -0.3968  0.1040
  180MOL0     H24239   3.175  10.089   7.605 -1.9507  0.6233 -0.2796
  180MOL0     H24240   3.140  10.077   7.781 -1.8999  2.5739  1.2197
  180MOL0     H24241   3.369  10.223   7.649  0.0913 -1.0105  0.4437
  180MOL0     H24242   3.350  10.232   7.815  2.1751 -1.6307  0.9236
  180MOL0     H24243   3.396  10.008   7.867 -4.3468  0.0853 -0.4134
  180MOL0     H24244   3.359   9.969   7.698 -0.6608 -0.0579 -0.5357
  180MOL0     H24245   3.582  10.058   7.627  0.6851  2.9013  1.1308
  180MOL0     H24246   3.590  10.128   7.795 -3.1445  0.0841  0.9333
  180MOL0     H24247   3.610   9.826   7.736  0.7711 -0.0619 -0.1360
  180MOL0     H24248   3.615   9.912   7.891 -0.5974  0.9365  0.3780
  180MOL0     H24249   3.820   9.940   7.668  1.7334  0.1737  0.2638
  180MOL0     H24250   3.833  10.030   7.811  2.2395 -0.4802 -0.9113
  180MOL0     H24251   3.947   9.735   7.655 -1.0919  3.0446  0.1558
  180MOL0     H24252   4.021   9.442   7.855 -0.8318 -0.4523 -1.7472
  180MOL0     H24253   4.103   9.528   7.725 -0.6155 -2.8591 -0.2175
  180MOL0     H24254   4.284   9.589   7.876 -0.7243 -0.5132 -1.8498
  180MOL0     H24255   4.193   9.559   8.021 -1.1239  0.2701 -0.5276
  180MOL0     H24256   4.188   9.312   7.951  1.0948 -0.1498 -0.8302
  180MOL0     H24257   4.344   9.379   7.988 -1.1306 -1.7637  0.0365
  180MOL0     H24258   4.208   9.332   7.715  1.1561 -0.1378 -1.1421
  180MOL0     H24259   4.338   9.234   7.780  2.9357  0.3673 -0.1764
  180MOL0     H24260   4.547   9.516   7.932  0.3734 -4.3600  3.5693
  180MOL0     H24261   4.788   9.468   7.942 -1.5527 -2.4394  1.8056
  180MOL0     H24262   5.259   9.472   7.745  1.2229 -0.6566 -0.6339
  180MOL0     H24263   5.487   9.404   7.819  1.0214 -0.3124  1.3396
  180MOL0     H24264   5.699   9.304   7.933  0.8693  1.9820  1.0165
  180MOL0     H24265   5.625   9.428   8.028 -1.4816 -0.0480 -1.3114
  180MOL0     H24266   5.685   9.330   8.233 -1.1308  0.1025 -0.6851
  180MOL0     H24267   5.746   9.180   8.148  0.1819  1.4201  0.3512
  180MOL0     H24268   5.915   9.317   8.045  2.2492 -1.7086  1.1942
  180MOL0     H24269   5.863   9.456   8.137 -1.4625  0.5588 -0.5494
  180MOL0     H24270   5.946   9.199   8.272 -2.1079  0.1464  1.3967
  180MOL0     H24271   5.919   9.357   8.345  0.2912  0.7196 -0.2976
  180MOL0     H24272   6.128   9.442   8.226 -0.5460  0.0283  0.2763
  180MOL0     H24273   6.126   9.304   8.118 -1.5852 -0.8496  0.2674
  180MOL0     H24274   6.180   9.264   8.412  0.8272 -2.7359  0.2943
  180MOL0     H24275   6.205   9.149   8.288 -1.0025 -1.0763  1.7484
  180MOL0     H24276   6.367   9.404   8.321  1.4216  0.3899 -0.9670
  180MOL0     H24277   6.357   9.322   8.168  2.1342 -3.0046 -0.1552
  180MOL0     H24278   6.553   9.210   8.291  0.5389 -0.9478  1.4097
  180MOL0     H24279   6.438   9.177   8.421 -1.0794  1.7695  0.3995
  180MOL0     H24280   5.286   9.189   8.136 -1.1795  0.1163 -0.5076
  180MOL0     H24281   5.082   9.283   8.072 -1.5239  3.2012 -2.0827
  180MOL0     H24282   4.754   9.193   7.619 -0.0925  1.3076 -1.1176
  180MOL0     H24283   4.529   9.265   7.588  0.8211 -1.5514  1.0195
  180MOL0     H24284   2.783  10.335   7.402  1.7863  0.0348  2.2511
  180MOL0     H24285   2.554  10.370   7.338 -0.1029  0.2029 -0.3252
  180MOL0     H24286   2.125  10.335   7.600  0.2163  1.8138  0.4525
  180MOL0     H24287   1.900  10.441   7.605 -1.9415  0.5746 -1.0329
  180MOL0     H24288   1.749  10.621   7.474  2.1885 -2.2858  0.8174
  180MOL0     H24289   1.691  10.497   7.594 -0.9081  2.4386  1.4035
  180MOL0     H24290   1.536  10.614   7.350  0.2781  1.5707  1.2369
  180MOL0     H24291   1.504  10.651   7.522  0.4904  1.9097 -1.7195
  180MOL0     H24292   1.452  10.409   7.561  1.9996 -0.0971 -0.0507
  180MOL0     H24293   1.479  10.372   7.391  0.0771  1.3919 -0.9009
  180MOL0     H24294   1.268  10.568   7.477  1.7181  0.2736  1.0853
  180MOL0     H24295   1.280  10.482   7.330  0.2785 -1.4876 -1.2126
  180MOL0     H24296   1.080  10.175   7.519  1.0324 -0.5617 -0.1479
  180MOL0     H24297   1.857  10.342   7.184 -0.0155  0.5373  0.7910
  180MOL0     H24298   2.024  10.265   7.052  0.3565 -0.8497 -0.7656
  180MOL0     H24299   2.170  10.358   7.073  0.9695  0.0796  0.7670
  180MOL0     H24300   2.162  10.186   7.112 -0.0297  0.9298 -2.6774
  181MOL0     O24301  10.685   2.515   4.553 -0.4979  0.1601 -0.1903
  181MOL0     C24302  10.716   2.627   4.515  0.1046  0.0150 -0.2253
  181MOL0     O24303  10.843   2.676   4.512  0.1078  0.8182  0.3477
  181MOL0     C24304  10.945   2.589   4.520 -0.4745  0.3256 -0.3266
  181MOL0     C24305  10.957   2.472   4.433  0.1423  0.0582  0.0697
  181MOL0     C24306  11.071   2.395   4.436 -0.6782 -0.3840  1.0444
  181MOL0     C24307  11.185   2.427   4.518 -0.3640  0.0411  0.2017
  181MOL0     O24308  11.305   2.362   4.521  0.1424 -0.3429 -0.7853
  181MOL0     C24309  11.349   2.274   4.411  0.3433  0.1460  0.3564
  181MOL0     C24310  11.480   2.202   4.445  0.3357  1.0241 -1.3102
  181MOL0     C24311  11.598   2.305   4.448 -0.1807 -0.1987 -0.2062
  181MOL0     C24312  11.666   2.330   4.319 -0.3444  0.3034  0.5563
  181MOL0     C24313  11.804   2.397   4.349  0.5750  0.0190  0.6743
  181MOL0     C24314  11.876   2.439   4.215 -0.2151 -0.5622 -0.0377
  181MOL0     C24315  12.009   2.511   4.239  0.1804  0.3434  0.2459
  181MOL0     C24316  11.983   2.658   4.270  0.1057 -0.3712  0.8640
  181MOL0     N24317  12.116   2.723   4.276  0.6333 -0.2006 -0.7707
  181MOL0     C24318  12.167   2.796   4.169 -0.3972 -1.0084 -0.0390
  181MOL0     C24319  12.281   2.853   4.217 -0.2981 -0.1927 -0.5714
  181MOL0     C24320  12.393   2.931   4.143 -0.0774  0.3153 -0.3986
  181MOL0     C24321  12.403   3.077   4.199  0.5266 -0.6009  0.3925
  181MOL0     C24322  12.536   3.148   4.155  0.3000 -0.5209 -0.5791
  181MOL0     C24323  12.536   3.301   4.153 -0.1254  0.2885  0.8502
  181MOL0     O24324  12.533   3.343   4.291 -0.0745  0.6638 -0.0411
  181MOL0     C24325  12.656   3.346   4.360  0.6097  0.6154  0.1852
  181MOL0     C24326  12.782   3.307   4.313 -0.9792  0.3404  0.1433
  181MOL0     C24327  12.889   3.304   4.396 -0.9180  0.0703  0.3224
  181MOL0     C24328  12.880   3.341   4.535  0.6589 -0.1294 -0.3508
  181MOL0     C24329  12.998   3.333   4.624  0.3939 -0.4268  0.0762
  181MOL0     O24330  13.119   3.341   4.579 -0.2741  0.1010  0.6340
  181MOL0     C24331  13.232   3.341   4.654 -0.8457 -0.3324  0.3414
  181MOL0     C24332  13.347   3.372   4.590  0.2183  0.1400  0.1769
  181MOL0     C24333  13.473   3.369   4.652 -0.3906  0.0948  0.9108
  181MOL0     C24334  13.491   3.340   4.786  0.2693  0.0013 -1.1466
  181MOL0     O24335  13.598   3.335   4.867  0.9397 -0.7707  0.2300
  181MOL0     C24336  13.699   3.428   4.852 -0.6925  0.5326  0.4239
  181MOL0     C24337  13.815   3.349   4.905  0.3503 -0.3502 -0.4837
  181MOL0     C24338  13.943   3.433   4.876 -0.3409  0.6586  0.2356
  181MOL0     C24339  14.063   3.344   4.902  0.6503  0.0164 -0.4363
  181MOL0     C24340  14.199   3.403   4.863  0.0264 -0.4568  0.2043
  181MOL0     C24341  14.317   3.309   4.915 -0.2403 -0.8295  0.0154
  181MOL0     C24342  14.440   3.382   4.858  0.5289 -0.3767 -0.7808
  181MOL0     C24343  14.560   3.292   4.853 -0.4843 -0.2958 -0.2230
  181MOL0    Cl24344  14.602   3.233   5.021 -0.1258 -0.2781 -0.0638
  181MOL0     C24345  13.371   3.312   4.859 -0.1200  0.8982  0.8319
  181MOL0     C24346  13.244   3.312   4.794 -0.8056 -0.4442 -0.0639
  181MOL0     O24347  12.970   3.343   4.747  0.6105 -0.3832  0.6391
  181MOL0     C24348  12.752   3.369   4.582 -1.0347  0.5779 -0.2304
  181MOL0     C24349  12.649   3.375   4.488  0.1245  0.3225 -0.5457
  181MOL0     N24350  12.301   2.810   4.343 -0.0197  0.1911  0.0374
  181MOL0     N24351  12.199   2.738   4.382  0.0097  0.1946  0.2239
  181MOL0     C24352  11.172   2.541   4.596  0.7819 -0.1073  0.3150
  181MOL0     C24353  11.056   2.625   4.591 -0.1482  0.8528  0.5237
  181MOL0     C24354  10.605   2.707   4.467 -0.3389 -0.2610 -0.6406
  181MOL0     C24355  10.609   2.754   4.339  0.2895 -0.8297 -0.4287
  181MOL0     C24356  10.504   2.832   4.287 -1.2336 -0.3319  0.1727
  181MOL0     C24357  10.397   2.867   4.361 -0.0864 -0.1867  0.3220
  181MOL0     O24358  10.285   2.934   4.307 -0.3670 -0.0287  0.4148
  181MOL0     C24359  10.302   3.005   4.177 -0.1796 -0.1053 -0.5125
  181MOL0     C24360  10.182   3.088   4.143 -0.0118  0.2660 -0.0111
  181MOL0     C24361  10.051   3.006   4.108 -0.3454 -0.0533  0.6984
  181MOL0     C24362   9.966   3.004   4.232  0.7002  0.5183 -0.7146
  181MOL0     C24363   9.849   2.921   4.211  0.1877  0.0017  0.5879
  181MOL0     C24364   9.755   2.843   4.187 -0.5222 -0.9696  0.3535
  181MOL0     C24365  10.394   2.815   4.490 -0.2892 -0.0756 -0.2937
  181MOL0     C24366  10.497   2.742   4.549 -0.7618  0.0532  0.8131
  181MOL0     C24367  10.493   2.713   4.699  0.1721  1.0023 -0.1941
  181MOL0     H24368  10.877   2.453   4.363 -1.3877  0.8054  1.5342
  181MOL0     H24369  11.083   2.303   4.380  0.3592  0.4181 -0.1212
  181MOL0     H24370  11.273   2.200   4.386 -1.8073  2.5426 -0.4882
  181MOL0     H24371  11.370   2.323   4.315  0.6231  0.3767  0.5312
  181MOL0     H24372  11.517   2.127   4.375  0.5597 -0.7818  0.6434
  181MOL0     H24373  11.477   2.169   4.549 -2.9906 -1.3053 -2.0183
  181MOL0     H24374  11.669   2.273   4.524  0.2919  1.3436  0.0458
  181MOL0     H24375  11.562   2.399   4.490 -2.2902 -0.9329 -0.2664
  181MOL0     H24376  11.677   2.235   4.266  0.3734 -0.2989  1.7578
  181MOL0     H24377  11.611   2.412   4.272 -0.0538 -0.0360 -0.4073
  181MOL0     H24378  11.806   2.489   4.408 -0.1567  3.6930 -4.3556
  181MOL0     H24379  11.869   2.321   4.394 -0.7265 -1.6679 -0.1704
  181MOL0     H24380  11.898   2.353   4.151 -0.2468 -1.9919  1.7597
  181MOL0     H24381  11.809   2.502   4.155 -0.6178 -2.2894 -1.4730
  181MOL0     H24382  12.077   2.496   4.155  0.7568  0.8631  0.6096
  181MOL0     H24383  12.060   2.470   4.327 -1.1066 -1.5126  0.1954
  181MOL0     H24384  11.925   2.703   4.190  0.2378  0.7827  1.4061
  181MOL0     H24385  11.922   2.668   4.361 -1.8798 -2.3763 -0.1405
  181MOL0     H24386  12.132   2.810   4.067 -2.6853 -1.1970  0.6500
  181MOL0     H24387  12.487   2.875   4.152  0.2002  0.5539 -1.5855
  181MOL0     H24388  12.377   2.958   4.038  3.2420 -1.6872 -1.5803
  181MOL0     H24389  12.327   3.136   4.147  1.0000 -2.9887 -3.4115
  181MOL0     H24390  12.395   3.076   4.308 -1.0671  0.7857  0.3258
  181MOL0     H24391  12.572   3.111   4.059 -1.8058  0.3051 -1.7481
  181MOL0     H24392  12.610   3.113   4.227  0.9988 -0.8542 -1.4528
  181MOL0     H24393  12.446   3.339   4.104 -0.8422 -1.9489  0.3352
  181MOL0     H24394  12.624   3.337   4.099 -0.8145  2.3090  0.9640
  181MOL0     H24395  12.799   3.280   4.209  0.4936 -0.2696  0.5154
  181MOL0     H24396  12.983   3.270   4.354 -1.1313  1.2256 -1.1457
  181MOL0     H24397  13.349   3.386   4.482 -0.0750 -2.9561 -0.3153
  181MOL0     H24398  13.565   3.379   4.595 -1.6604  0.5946 -1.1182
  181MOL0     H24399  13.721   3.455   4.748  0.8667  0.2796  0.6663
  181MOL0     H24400  13.688   3.512   4.922  0.2942 -0.7381  2.1830
  181MOL0     H24401  13.794   3.322   5.009 -1.0043 -0.2010 -0.6999
  181MOL0     H24402  13.825   3.256   4.849 -2.1723 -1.0755  0.1352
  181MOL0     H24403  13.929   3.468   4.773 -1.3273 -1.1894 -0.3017
  181MOL0     H24404  13.959   3.512   4.950  0.3771 -0.2800  1.1147
  181MOL0     H24405  14.056   3.250   4.846 -1.1681 -0.1136 -0.0539
  181MOL0     H24406  14.069   3.309   5.006 -0.5268 -1.0815 -0.7078
  181MOL0     H24407  14.207   3.508   4.893  0.4152 -0.2643 -0.5442
  181MOL0     H24408  14.207   3.401   4.754 -2.0708  0.8572 -0.0214
  181MOL0     H24409  14.326   3.316   5.024  1.4680  0.5427 -0.1865
  181MOL0     H24410  14.300   3.208   4.876  0.1496 -1.8679  2.3325
  181MOL0     H24411  14.463   3.460   4.932 -2.0349  0.7855 -1.1054
  181MOL0     H24412  14.429   3.429   4.760 -4.7354  0.5550 -0.0247
  181MOL0     H24413  14.524   3.210   4.790  1.9577 -1.7564  0.1394
  181MOL0     H24414  14.650   3.333   4.807 -1.2649  1.7682 -0.0016
  181MOL0     H24415  13.377   3.301   4.967 -1.4834  0.6098  0.8895
  181MOL0     H24416  13.160   3.286   4.858  0.9018 -1.5572  1.8808
  181MOL0     H24417  12.720   3.375   4.685  0.9690 -2.1867  0.6641
  181MOL0     H24418  12.559   3.422   4.526 -0.0528  0.9786 -1.7331
  181MOL0     H24419  11.250   2.564   4.667  1.1145  0.9110 -0.3612
  181MOL0     H24420  11.049   2.714   4.653 -0.5600  2.6469 -1.9253
  181MOL0     H24421  10.688   2.725   4.271 -2.1807  1.5050 -4.7728
  181MOL0     H24422  10.508   2.856   4.181 -2.3824 -1.9466 -0.2893
  181MOL0     H24423  10.322   2.942   4.090 -0.4460  0.8369 -1.2698
  181MOL0     H24424  10.385   3.076   4.188 -0.2658 -0.2152  1.0242
  181MOL0     H24425  10.216   3.149   4.059 -2.1828  1.5798 -0.0332
  181MOL0     H24426  10.157   3.164   4.217  0.2565  1.4012 -1.0586
  181MOL0     H24427  10.080   2.907   4.072  0.0278 -0.1546  1.2578
  181MOL0     H24428   9.989   3.059   4.034 -1.2287  0.2836  1.6497
  181MOL0     H24429  10.018   2.970   4.322 -1.2001  1.0068  0.6194
  181MOL0     H24430   9.937   3.107   4.252 -1.7722  0.2394 -2.4144
  181MOL0     H24431   9.676   2.771   4.179  0.0645 -1.6397  0.4829
  181MOL0     H24432  10.301   2.830   4.543  0.1064 -1.5344  0.8863
  181MOL0     H24433  10.420   2.636   4.725  2.0294 -0.9449 -0.5099
  181MOL0     H24434  10.592   2.695   4.743 -0.4480  1.4506  1.4634
  181MOL0     H24435  10.450   2.801   4.749 -1.3668  2.6265 -4.0175
  182MOL0     O24436   2.139  10.217   4.862 -0.8004  0.1428  0.1570
  182MOL0     C24437   2.112  10.104   4.891 -0.2546 -0.1065 -0.3167
  182MOL0     O24438   2.000  10.035   4.842  0.2073 -0.4664 -0.5203
  182MOL0     C24439   1.915  10.106   4.764  0.8666  0.1945 -0.4912
  182MOL0     C24440   1.886  10.049   4.642 -0.1023  0.2749  0.0221
  182MOL0     C24441   1.797  10.115   4.557 -0.4981 -0.0880  0.0508
  182MOL0     C24442   1.708  10.217   4.607 -0.9585 -0.1242 -0.9410
  182MOL0     O24443   1.628  10.271   4.512  0.1432  0.9054 -0.2611
  182MOL0     C24444   1.512  10.340   4.560 -0.5436  0.1059  0.5230
  182MOL0     C24445   1.552  10.491   4.580  0.0208  0.0986  0.5999
  182MOL0     C24446   1.581  10.555   4.445 -0.1001  0.9959  0.0328
  182MOL0     C24447   1.610  10.701   4.443 -0.1624 -0.7854  0.4380
  182MOL0     C24448   1.739  10.760   4.508  0.1591 -0.7159 -0.1789
  182MOL0     C24449   1.859  10.733   4.418 -0.1111  0.2156 -0.0625
  182MOL0     C24450   1.990  10.758   4.493  0.3666 -1.0144  0.8020
  182MOL0     C24451   2.023  10.912   4.511 -0.0761 -0.3925  0.4882
  182MOL0     N24452   2.108  10.947   4.621 -0.3521  0.0523 -0.1655
  182MOL0     C24453   2.241  10.987   4.620  0.5118 -0.1272 -0.3794
  182MOL0     C24454   2.265  11.028   4.742 -0.1328  0.0857  0.6052
  182MOL0     C24455   2.401  11.092   4.777  0.3003 -0.3994  0.1193
  182MOL0     C24456   2.431  11.122   4.931  1.0944 -0.3122  0.2530
  182MOL0     C24457   2.557  11.204   4.956 -0.6072  0.5087 -0.1142
  182MOL0     C24458   2.675  11.116   4.920  0.5643  0.2789 -0.4072
  182MOL0     O24459   2.791  11.188   4.976 -0.4495 -1.3155 -0.7749
  182MOL0     C24460   2.911  11.130   4.977  0.4635  0.5410 -0.8526
  182MOL0     C24461   2.945  11.012   4.906  0.7417  0.4638 -0.9632
  182MOL0     C24462   3.077  10.970   4.895  0.0723  0.2760  0.6384
  182MOL0     C24463   3.181  11.040   4.950  0.3199  0.3761  0.0605
  182MOL0     C24464   3.325  11.004   4.934 -0.2273 -0.1259  0.4374
  182MOL0     O24465   3.415  11.099   4.976  0.6278 -0.3402  0.2808
  182MOL0     C24466   3.551  11.073   4.959  0.0219  0.4561 -0.9492
  182MOL0     C24467   3.610  11.081   4.832 -0.6280  0.2303  0.2875
  182MOL0     C24468   3.741  11.070   4.805 -0.0552  0.3607 -0.2424
  182MOL0     C24469   3.828  11.051   4.914 -0.4392  0.2087  0.5411
  182MOL0     O24470   3.966  11.041   4.886  0.2856 -0.1221 -0.2947
  182MOL0     C24471   4.058  11.088   4.989  0.1188  0.8070  0.1857
  182MOL0     C24472   4.208  11.096   4.944  0.5617 -0.2560 -0.7323
  182MOL0     C24473   4.297  11.159   5.049 -0.9398 -0.6265 -0.1058
  182MOL0     C24474   4.438  11.162   4.988 -0.3211  0.3202 -0.4786
  182MOL0     C24475   4.544  11.192   5.096 -0.7317 -0.1552  0.2584
  182MOL0     C24476   4.688  11.214   5.030 -0.0276  0.5220 -0.1110
  182MOL0     C24477   4.800  11.215   5.140 -0.1493 -0.3437 -0.0213
  182MOL0     C24478   4.907  11.321   5.119  0.3495  0.4268  0.5279
  182MOL0    Cl24479   5.001  11.347   5.261 -0.2293  0.7256  0.2328
  182MOL0     C24480   3.780  11.072   5.045 -0.7669  0.1692  0.5358
  182MOL0     C24481   3.640  11.072   5.066 -0.1646 -1.3796  0.4118
  182MOL0     O24482   3.353  10.903   4.873 -0.5867 -0.2497  0.3343
  182MOL0     C24483   3.148  11.152   5.028 -1.2461 -0.0447  0.1365
  182MOL0     C24484   3.017  11.192   5.042 -0.6951 -0.2850 -0.2298
  182MOL0     N24485   2.152  11.021   4.813  0.8397  0.3606  0.3781
  182MOL0     N24486   2.059  10.979   4.744  0.3585 -0.4974 -0.0337
  182MOL0     C24487   1.734  10.265   4.737  0.0401  0.4455  0.5730
  182MOL0     C24488   1.844  10.209   4.813  0.9051  0.2040 -0.5728
  182MOL0     C24489   2.211  10.027   4.971  0.2551 -0.2655 -0.9022
  182MOL0     C24490   2.196   9.887   4.992 -0.7803  0.0137 -0.5860
  182MOL0     C24491   2.292   9.820   5.067  0.2309 -0.2305  0.2068
  182MOL0     C24492   2.415   9.876   5.100  0.3165 -0.0532 -0.2342
  182MOL0     O24493   2.510   9.794   5.141  0.8152  0.7162 -0.2836
  182MOL0     C24494   2.642   9.837   5.169  0.4559  0.3811  0.3776
  182MOL0     C24495   2.735   9.733   5.225 -0.2729 -0.0962  0.1304
  182MOL0     C24496   2.869   9.797   5.269  0.9632  0.1203 -0.2797
  182MOL0     C24497   2.945   9.855   5.153  0.0548 -1.0688 -0.7114
  182MOL0     C24498   3.093   9.852   5.181 -0.0257  0.6849 -0.0212
  182MOL0     C24499   3.211   9.853   5.214  0.1236 -0.1252  0.5405
  182MOL0     C24500   2.424  10.019   5.094  0.2262 -0.2552  0.4976
  182MOL0     C24501   2.333  10.095   5.025 -0.1100 -0.5990 -0.4484
  182MOL0     C24502   2.369  10.244   5.008  0.6245 -0.1688  0.2214
  182MOL0     H24503   1.934   9.961   4.600 -1.8342 -0.1491 -1.1671
  182MOL0     H24504   1.782  10.084   4.454 -0.5824  1.7305 -0.5125
  182MOL0     H24505   1.424  10.327   4.496 -0.3333  0.0046  0.2550
  182MOL0     H24506   1.483  10.308   4.661 -3.1215  0.6713  0.0287
  182MOL0     H24507   1.635  10.509   4.650  0.6074  2.7930 -0.6487
  182MOL0     H24508   1.467  10.550   4.615 -0.9537  0.9906 -2.8630
  182MOL0     H24509   1.502  10.541   4.371 -0.1831  1.3716  0.0490
  182MOL0     H24510   1.672  10.498   4.424 -0.2634  0.3977  0.8960
  182MOL0     H24511   1.614  10.739   4.341  1.9853  1.8434  1.3732
  182MOL0     H24512   1.524  10.751   4.489 -1.1719  0.6823 -2.7606
  182MOL0     H24513   1.726  10.867   4.529  1.6732 -0.7113  0.9632
  182MOL0     H24514   1.747  10.715   4.608  2.9573 -0.4582 -0.2129
  182MOL0     H24515   1.862  10.627   4.389  1.3975  0.0678  0.5272
  182MOL0     H24516   1.848  10.793   4.327 -0.0501 -0.2795 -0.4034
  182MOL0     H24517   2.082  10.721   4.445  0.8684  0.0194  0.9471
  182MOL0     H24518   1.991  10.705   4.589 -0.8507 -0.5770  1.0679
  182MOL0     H24519   2.075  10.948   4.421  1.5893 -0.9342  1.1854
  182MOL0     H24520   1.932  10.971   4.515  0.6785  1.0282 -1.4362
  182MOL0     H24521   2.316  10.992   4.542  0.3914  2.0977 -0.4013
  182MOL0     H24522   2.470  11.015   4.740 -1.6677 -0.7688 -3.1623
  182MOL0     H24523   2.413  11.187   4.725  1.2545 -0.7179 -0.2730
  182MOL0     H24524   2.338  11.171   4.960  0.9467 -0.3813 -0.0894
  182MOL0     H24525   2.426  11.026   4.982 -0.6887 -1.4045 -1.8083
  182MOL0     H24526   2.563  11.224   5.063  4.3887 -0.6314  0.0848
  182MOL0     H24527   2.544  11.304   4.913 -1.7752  0.3837 -0.0907
  182MOL0     H24528   2.683  11.103   4.812  1.4714  0.3800 -0.3567
  182MOL0     H24529   2.668  11.014   4.958 -1.3859  0.5314  0.0305
  182MOL0     H24530   2.870  10.951   4.855 -0.9670  1.9611 -0.3690
  182MOL0     H24531   3.087  10.897   4.815  1.6964 -0.0232  1.0761
  182MOL0     H24532   3.543  11.112   4.753 -2.7651 -0.0123  1.9177
  182MOL0     H24533   3.772  11.056   4.702 -2.1191 -0.8928 -0.7512
  182MOL0     H24534   4.029  11.189   5.018  2.5429  2.5646 -2.9233
  182MOL0     H24535   4.060  11.023   5.077  0.8401  0.8810  0.2254
  182MOL0     H24536   4.247  10.996   4.921 -0.0380 -0.8595  0.7258
  182MOL0     H24537   4.225  11.162   4.859  1.5912  1.0743  0.4562
  182MOL0     H24538   4.261  11.260   5.072  0.1686  0.2146 -1.7819
  182MOL0     H24539   4.299  11.100   5.141 -2.4333  2.8543  2.3794
  182MOL0     H24540   4.443  11.230   4.902 -1.0666 -1.4169 -1.9374
  182MOL0     H24541   4.458  11.063   4.946  1.9669 -0.7417  2.6861
  182MOL0     H24542   4.542  11.106   5.165  3.0625 -1.4927 -1.0816
  182MOL0     H24543   4.520  11.283   5.152 -1.3272  0.6953 -1.3318
  182MOL0     H24544   4.723  11.138   4.960  1.7942 -0.7419  2.0415
  182MOL0     H24545   4.692  11.305   4.970  1.0147  1.4421  1.2612
  182MOL0     H24546   4.857  11.122   5.145  2.0480  0.8409 -1.6203
  182MOL0     H24547   4.755  11.237   5.238 -2.0798 -1.0445 -0.7103
  182MOL0     H24548   4.978  11.295   5.040  1.3689  1.8723  0.9233
  182MOL0     H24549   4.860  11.417   5.097  1.4857  0.4416 -2.2560
  182MOL0     H24550   3.845  11.082   5.130 -1.0397  0.0433  0.7618
  182MOL0     H24551   3.594  11.075   5.164  0.2264 -0.2634  0.5716
  182MOL0     H24552   3.219  11.227   5.060 -1.4254  0.1315  0.1227
  182MOL0     H24553   3.009  11.265   5.122  3.2092  0.2496 -0.1147
  182MOL0     H24554   1.702  10.355   4.788  4.0401  0.9377  2.6467
  182MOL0     H24555   1.874  10.246   4.911  3.4144 -1.7570 -0.4854
  182MOL0     H24556   2.109   9.829   4.962  0.0590 -0.3474 -2.4412
  182MOL0     H24557   2.276   9.713   5.076  0.6606 -0.3109  0.0669
  182MOL0     H24558   2.645   9.928   5.231  1.4855  0.4643  0.2246
  182MOL0     H24559   2.679   9.870   5.072 -0.2845 -0.0569 -0.0593
  182MOL0     H24560   2.742   9.651   5.153 -0.0910 -0.8994  1.0373
  182MOL0     H24561   2.697   9.687   5.317 -1.7517  1.9140  0.5847
  182MOL0     H24562   2.932   9.725   5.321 -0.5577 -1.5953 -0.7052
  182MOL0     H24563   2.854   9.878   5.341  0.7064  0.0100 -0.2069
  182MOL0     H24564   2.925   9.801   5.060  0.8297  0.9970 -2.1638
  182MOL0     H24565   2.920   9.960   5.136  2.1782 -0.1691  1.1821
  182MOL0     H24566   3.316   9.854   5.236  0.0938 -0.0573  0.6810
  182MOL0     H24567   2.511  10.071   5.135  1.6415  0.2353 -2.7620
  182MOL0     H24568   2.387  10.275   4.905 -3.4647  4.2691  0.4725
  182MOL0     H24569   2.291  10.306   5.053  0.0357 -0.2223 -0.7029
  182MOL0     H24570   2.462  10.268   5.061  0.3743 -0.0295  0.6103
  183MOL0     O24571  10.400   4.313   1.838  0.5469 -0.5660 -0.4936
  183MOL0     C24572  10.275   4.318   1.869 -0.7093 -0.1145 -0.3961
  183MOL0     O24573  10.232   4.261   1.982 -0.4452  0.0101  0.0133
  183MOL0     C24574  10.304   4.149   2.026  0.6453 -0.1808  0.4470
  183MOL0     C24575  10.266   4.028   1.990  0.1063  0.8365 -0.2631
  183MOL0     C24576  10.332   3.915   2.035 -0.4400 -0.1402 -0.1672
  183MOL0     C24577  10.453   3.931   2.116  0.1754 -0.3366  0.8260
  183MOL0     O24578  10.544   3.833   2.159  0.5228  0.0705  0.4043
  183MOL0     C24579  10.508   3.696   2.119  0.8424  0.4823  0.9527
  183MOL0     C24580  10.592   3.598   2.194  0.7878 -0.3001 -0.5640
  183MOL0     C24581  10.742   3.622   2.160 -0.5231  0.1212 -0.7449
  183MOL0     C24582  10.818   3.492   2.192 -0.3477  0.1180 -0.0640
  183MOL0     C24583  10.963   3.507   2.175  0.5431  0.3873 -0.3265
  183MOL0     C24584  11.039   3.373   2.209 -1.3227  0.2608 -0.2531
  183MOL0     C24585  11.200   3.379   2.194  0.5959  0.8054 -0.5311
  183MOL0     C24586  11.242   3.396   2.054  0.9242  1.0664  0.7541
  183MOL0     N24587  11.390   3.403   2.038 -0.3092  0.3450 -0.1472
  183MOL0     C24588  11.454   3.424   1.915 -0.2778  0.1637  0.6272
  183MOL0     C24589  11.584   3.441   1.946 -0.0809  0.2264 -0.3339
  183MOL0     C24590  11.687   3.444   1.844 -0.3882 -0.6662 -0.3405
  183MOL0     C24591  11.820   3.463   1.917 -0.6265  0.3208 -0.5881
  183MOL0     C24592  11.940   3.495   1.833 -0.0830 -0.0021 -0.3844
  183MOL0     C24593  12.065   3.474   1.904 -0.7032  0.7994 -1.1041
  183MOL0     O24594  12.066   3.541   2.038 -0.1807  0.3876  0.2223
  183MOL0     C24595  12.188   3.586   2.091  0.3967 -0.5975  0.4195
  183MOL0     C24596  12.308   3.623   2.017  0.1247  0.2342 -0.6926
  183MOL0     C24597  12.413   3.671   2.093 -0.0565 -0.5490  0.3983
  183MOL0     C24598  12.428   3.662   2.230 -0.2804 -0.1871 -0.6014
  183MOL0     C24599  12.559   3.689   2.299 -0.0476 -0.1387  0.3268
  183MOL0     O24600  12.667   3.720   2.222 -0.2114 -0.2357 -0.5318
  183MOL0     C24601  12.793   3.730   2.283 -0.0007 -0.2783  0.0889
  183MOL0     C24602  12.874   3.825   2.228 -0.1941  0.1859 -0.2506
  183MOL0     C24603  13.003   3.854   2.282 -0.8425  0.2999  0.4428
  183MOL0     C24604  13.050   3.785   2.393  0.9711  0.0502 -1.2596
  183MOL0     O24605  13.171   3.827   2.450 -0.3656 -0.7106  0.9306
  183MOL0     C24606  13.245   3.748   2.553 -0.2789  0.1031  0.6130
  183MOL0     C24607  13.376   3.819   2.589  0.0521  0.0286 -0.8169
  183MOL0     C24608  13.468   3.753   2.691 -0.1599  0.2775 -0.1435
  183MOL0     C24609  13.506   3.611   2.653  0.5621 -0.4938 -0.4478
  183MOL0     C24610  13.624   3.555   2.736 -0.0824  0.1312  0.2942
  183MOL0     C24611  13.679   3.412   2.691 -0.2137 -0.2449 -1.0496
  183MOL0     C24612  13.583   3.296   2.709  0.4745  0.0212  0.4951
  183MOL0     C24613  13.650   3.166   2.679 -0.0872 -0.7919 -0.4225
  183MOL0    Cl24614  13.710   3.092   2.829  0.0028 -0.5673  0.5271
  183MOL0     C24615  12.967   3.679   2.445  0.0673 -0.8946  0.3166
  183MOL0     C24616  12.846   3.655   2.389 -0.2422  0.6354 -0.2905
  183MOL0     O24617  12.553   3.701   2.421 -0.8136  0.1764  0.1053
  183MOL0     C24618  12.313   3.618   2.305 -0.6275 -0.4212  0.6502
  183MOL0     C24619  12.195   3.584   2.229  0.0724  0.3755 -0.1943
  183MOL0     N24620  11.591   3.418   2.087  0.5110 -0.5804 -0.6317
  183MOL0     N24621  11.479   3.393   2.137 -0.0686  0.1064  0.5794
  183MOL0     C24622  10.489   4.056   2.148  0.2524 -0.4258  0.4245
  183MOL0     C24623  10.415   4.162   2.100  0.7982  0.5539 -0.1217
  183MOL0     C24624  10.198   4.428   1.808 -1.2216  0.3203  0.2920
  183MOL0     C24625  10.265   4.540   1.759  0.7848  0.0313  0.7439
  183MOL0     C24626  10.184   4.637   1.684 -0.4307  0.3585  0.8602
  183MOL0     C24627  10.042   4.625   1.667 -0.3100 -0.1795  0.0893
  183MOL0     O24628   9.985   4.729   1.600  0.1494 -0.3439 -0.2019
  183MOL0     C24629   9.843   4.727   1.607 -0.5489  0.2062  0.3592
  183MOL0     C24630   9.797   4.849   1.531 -0.7659  0.8581 -0.1806
  183MOL0     C24631   9.644   4.848   1.500  0.1751  0.2065 -0.2203
  183MOL0     C24632   9.605   4.944   1.390  0.5999  0.2852 -0.1149
  183MOL0     C24633   9.464   4.963   1.384  0.3381  0.9465 -0.1130
  183MOL0     C24634   9.348   5.002   1.398  0.3581 -0.2898  0.8594
  183MOL0     C24635   9.978   4.508   1.715  0.5128 -0.0505  0.0426
  183MOL0     C24636  10.057   4.415   1.788  0.2911 -0.4235 -0.4993
  183MOL0     C24637   9.980   4.294   1.850 -0.4901 -0.2974  0.7100
  183MOL0     H24638  10.175   4.012   1.933 -0.7312 -0.7148  1.4370
  183MOL0     H24639  10.287   3.819   2.016 -2.8286  0.8974 -0.0346
  183MOL0     H24640  10.404   3.674   2.146  1.2730 -2.4017  0.6256
  183MOL0     H24641  10.525   3.679   2.012 -1.1021 -3.9423  1.0758
  183MOL0     H24642  10.570   3.495   2.165  1.3326 -1.2695  2.2195
  183MOL0     H24643  10.559   3.606   2.298  0.0349  0.8247 -0.8659
  183MOL0     H24644  10.769   3.709   2.221  0.0540 -0.6074  0.0555
  183MOL0     H24645  10.766   3.645   2.056 -1.2813 -1.0889 -1.2088
  183MOL0     H24646  10.797   3.442   2.288 -1.3695 -2.2833 -1.4474
  183MOL0     H24647  10.779   3.422   2.118  1.1710  1.7129 -2.4972
  183MOL0     H24648  10.988   3.542   2.075 -1.8934  2.6462 -0.2462
  183MOL0     H24649  10.999   3.586   2.241 -2.6508  2.2111 -0.5557
  183MOL0     H24650  11.017   3.339   2.311  1.2229  0.6927  0.5182
  183MOL0     H24651  11.007   3.296   2.138  0.1194  0.7093 -1.4298
  183MOL0     H24652  11.240   3.283   2.229 -2.2554 -0.1410  0.4956
  183MOL0     H24653  11.240   3.456   2.260  0.2772  0.3837  0.1685
  183MOL0     H24654  11.210   3.307   2.000 -1.2157  2.4966 -0.5141
  183MOL0     H24655  11.191   3.480   2.006 -0.2168 -0.2699 -0.4646
  183MOL0     H24656  11.420   3.400   1.815  1.8109 -0.3112 -0.0084
  183MOL0     H24657  11.686   3.359   1.775  0.3704 -0.5572 -0.4900
  183MOL0     H24658  11.666   3.532   1.784  0.3164 -0.1753  0.1204
  183MOL0     H24659  11.799   3.546   1.985  0.0327 -0.5537  0.7406
  183MOL0     H24660  11.847   3.379   1.983  0.1578  0.0392 -1.2572
  183MOL0     H24661  11.942   3.598   1.796  0.3531  0.2156  0.2237
  183MOL0     H24662  11.948   3.440   1.739 -0.4348  0.3242 -0.6099
  183MOL0     H24663  12.157   3.494   1.847  0.6291  0.3891  0.7952
  183MOL0     H24664  12.077   3.367   1.920  0.7507  0.7531 -2.2834
  183MOL0     H24665  12.312   3.610   1.909 -0.2119 -1.1458 -0.5533
  183MOL0     H24666  12.506   3.684   2.038  0.1532 -1.3691  0.5550
  183MOL0     H24667  12.835   3.890   2.151 -1.8573 -1.2748 -0.7110
  183MOL0     H24668  13.058   3.936   2.235 -3.5611  1.4220 -0.9835
  183MOL0     H24669  13.192   3.737   2.648  1.7042  0.9379  1.8869
  183MOL0     H24670  13.267   3.652   2.505  1.7685  1.6132 -1.7260
  183MOL0     H24671  13.440   3.827   2.501 -0.0126  1.1948 -0.7788
  183MOL0     H24672  13.352   3.925   2.601 -2.7856 -0.7713  1.7093
  183MOL0     H24673  13.549   3.823   2.710  0.9549 -0.6772 -1.2479
  183MOL0     H24674  13.408   3.746   2.782  0.3058  2.2679  0.3637
  183MOL0     H24675  13.528   3.609   2.546 -0.6714  1.1164 -0.7791
  183MOL0     H24676  13.418   3.549   2.672  0.8942 -0.2722  2.1242
  183MOL0     H24677  13.609   3.556   2.844  1.2672  0.8501  0.5058
  183MOL0     H24678  13.711   3.621   2.729 -0.6998  0.7683 -3.5450
  183MOL0     H24679  13.721   3.422   2.590 -1.9406 -0.5469 -1.8244
  183MOL0     H24680  13.762   3.402   2.762 -1.2602  1.1376  0.4351
  183MOL0     H24681  13.499   3.311   2.641 -1.0323 -1.0891  2.0138
  183MOL0     H24682  13.560   3.291   2.816 -1.6823  0.3671  0.0941
  183MOL0     H24683  13.586   3.098   2.622 -0.8507  1.0428 -1.8733
  183MOL0     H24684  13.728   3.180   2.603 -1.6346 -0.5702 -2.0502
  183MOL0     H24685  12.997   3.632   2.538  0.0197  0.7646  1.2017
  183MOL0     H24686  12.796   3.568   2.431 -0.7473  2.2526  2.7637
  183MOL0     H24687  12.319   3.600   2.412  2.3018 -0.2448  0.6013
  183MOL0     H24688  12.107   3.550   2.283  0.4442 -3.0309 -1.5192
  183MOL0     H24689  10.574   4.079   2.211 -0.7857  0.8210  1.4359
  183MOL0     H24690  10.448   4.264   2.121  2.1765  0.4683 -1.6655
  183MOL0     H24691  10.372   4.556   1.754  1.1275 -2.2395 -0.4659
  183MOL0     H24692  10.230   4.727   1.644  1.7441 -1.7626 -1.9010
  183MOL0     H24693   9.818   4.728   1.714  3.3155 -2.6188  1.5356
  183MOL0     H24694   9.799   4.637   1.563  0.9779 -0.5395  0.2927
  183MOL0     H24695   9.852   4.853   1.436  1.8502  1.1962  1.2507
  183MOL0     H24696   9.819   4.941   1.586 -1.5923  0.2610  1.2006
  183MOL0     H24697   9.585   4.867   1.590  1.8276 -2.6300  1.6209
  183MOL0     H24698   9.605   4.748   1.478 -3.8252  1.7105 -0.7895
  183MOL0     H24699   9.647   5.041   1.416  1.9778  0.0454 -1.2900
  183MOL0     H24700   9.644   4.913   1.292  0.3093 -0.6721  0.0597
  183MOL0     H24701   9.241   5.011   1.397  0.2808 -0.8117 -1.3795
  183MOL0     H24702   9.872   4.490   1.702  0.3843  0.7349 -0.0438
  183MOL0     H24703   9.980   4.303   1.959 -0.9713 -2.2946  0.9085
  183MOL0     H24704   9.874   4.286   1.824 -0.2106 -0.8286 -0.2901
  183MOL0     H24705  10.020   4.198   1.817  0.5767 -0.2243  1.7011
  184MOL0     O24706   7.964   7.827   0.450  0.0184 -0.3242  0.4266
  184MOL0     C24707   7.909   7.728   0.407  0.3029 -0.3673  0.3085
  184MOL0     O24708   7.962   7.649   0.310 -0.3057  0.0672  0.1252
  184MOL0     C24709   8.057   7.696   0.225 -0.2474 -0.1030 -0.3601
  184MOL0     C24710   8.188   7.714   0.279 -0.2063 -0.6257 -0.4160
  184MOL0     C24711   8.297   7.749   0.197  1.0103 -0.0462  0.3663
  184MOL0     C24712   8.272   7.780   0.058  0.7650 -0.2867  0.1579
  184MOL0     O24713   8.367   7.817  -0.028 -0.7363  0.1243 -0.3760
  184MOL0     C24714   8.493   7.748  -0.001 -0.2829 -0.2562  1.1988
  184MOL0     C24715   8.582   7.734  -0.128  0.5384  0.1620  0.2819
  184MOL0     C24716   8.675   7.849  -0.166  0.3268  0.2916  0.0789
  184MOL0     C24717   8.732   7.828  -0.308  0.2686  0.4073 -0.5668
  184MOL0     C24718   8.842   7.923  -0.343  0.4461  0.0533 -0.4781
  184MOL0     C24719   8.786   8.064  -0.357  0.3064 -1.1259  0.8770
  184MOL0     C24720   8.885   8.151  -0.425  0.0042  0.1416 -0.0803
  184MOL0     C24721   8.822   8.285  -0.469  0.1757 -0.1087 -0.8520
  184MOL0     N24722   8.931   8.375  -0.512  0.5360 -0.5362 -0.4971
  184MOL0     C24723   9.033   8.423  -0.437  0.1852  0.2731  0.4901
  184MOL0     C24724   9.109   8.492  -0.522 -0.0389 -0.0126 -0.6742
  184MOL0     C24725   9.246   8.550  -0.487 -0.7878  0.3694 -0.0782
  184MOL0     C24726   9.343   8.483  -0.588 -0.0947  0.1578 -0.1823
  184MOL0     C24727   9.489   8.532  -0.562  0.0054  0.2513 -0.0037
  184MOL0     C24728   9.574   8.490  -0.686  0.4443 -0.2154  0.1474
  184MOL0     O24729   9.692   8.418  -0.641 -0.2697  0.1375 -0.4420
  184MOL0     C24730   9.804   8.489  -0.601 -0.5544 -0.8573  0.5576
  184MOL0     C24731   9.799   8.624  -0.558  0.1855  0.6449  0.5603
  184MOL0     C24732   9.919   8.683  -0.512 -1.1101  0.9312 -0.5312
  184MOL0     C24733  10.042   8.605  -0.507  0.2727  0.5736  0.8525
  184MOL0     C24734  10.160   8.678  -0.443 -0.0651  1.0212  0.9833
  184MOL0     O24735  10.246   8.599  -0.377 -0.2351 -0.2137  0.0606
  184MOL0     C24736  10.366   8.648  -0.327 -0.7623 -0.3592  0.3877
  184MOL0     C24737  10.390   8.655  -0.190  0.3435 -0.3207 -0.2870
  184MOL0     C24738  10.514   8.715  -0.144 -0.7260  0.2572  0.8328
  184MOL0     C24739  10.606   8.767  -0.241  0.1523  0.8398 -0.2614
  184MOL0     O24740  10.715   8.839  -0.205 -0.3598 -0.0187  0.3404
  184MOL0     C24741  10.773   8.805  -0.072 -0.1465  0.2411 -0.0513
  184MOL0     C24742  10.908   8.873  -0.049  0.7630  0.6361  0.2197
  184MOL0     C24743  10.879   9.025  -0.041  0.2424 -0.3157  0.3348
  184MOL0     C24744  10.996   9.114   0.019  0.2326  0.1773 -0.4222
  184MOL0     C24745  11.124   9.131  -0.066 -0.0295 -0.4076 -0.6075
  184MOL0     C24746  11.241   9.193   0.018 -0.2524 -0.7092  0.4659
  184MOL0     C24747  11.375   9.200  -0.046 -0.9612  0.5301 -1.2866
  184MOL0     C24748  11.394   9.271  -0.187  0.1753 -0.5034 -0.4303
  184MOL0    Cl24749  11.418   9.443  -0.163 -0.0396  0.0026  0.1807
  184MOL0     C24750  10.587   8.744  -0.382  0.0403 -0.4022 -0.0388
  184MOL0     C24751  10.459   8.694  -0.421  0.0141 -0.2093  0.1893
  184MOL0     O24752  10.174   8.802  -0.458 -0.3207 -0.2759  0.3601
  184MOL0     C24753  10.048   8.478  -0.561 -0.3070 -0.2478 -0.4740
  184MOL0     C24754   9.925   8.423  -0.609 -0.9323 -1.0535 -0.3250
  184MOL0     N24755   9.046   8.493  -0.636  0.3569  0.0512  0.7129
  184MOL0     N24756   8.934   8.435  -0.633 -0.4703  0.0253 -0.7824
  184MOL0     C24757   8.139   7.762   0.005 -0.2399  0.1967 -0.1553
  184MOL0     C24758   8.037   7.728   0.095  0.6235 -0.0076  0.8570
  184MOL0     C24759   7.788   7.690   0.476 -0.0543  0.3873 -0.5639
  184MOL0     C24760   7.714   7.789   0.541 -0.6837 -0.5915  0.2466
  184MOL0     C24761   7.596   7.765   0.613 -0.1983 -0.7205  0.8781
  184MOL0     C24762   7.532   7.636   0.617 -0.1154 -0.8642 -0.1938
  184MOL0     O24763   7.408   7.625   0.681 -0.6219 -0.1825 -0.0609
  184MOL0     C24764   7.352   7.496   0.717 -0.6075 -0.3333  0.2386
  184MOL0     C24765   7.383   7.455   0.857 -0.6690 -0.4353 -0.2814
  184MOL0     C24766   7.335   7.563   0.960 -0.4846 -0.4236 -0.0401
  184MOL0     C24767   7.335   7.497   1.094 -0.7656  0.4396 -0.2220
  184MOL0     C24768   7.298   7.584   1.205 -0.8112  1.3542  0.4997
  184MOL0     C24769   7.283   7.649   1.308  0.2114  1.1200  0.2233
  184MOL0     C24770   7.611   7.535   0.564  0.5787 -0.1478  0.5984
  184MOL0     C24771   7.731   7.556   0.495 -0.0563 -0.0919 -0.5385
  184MOL0     C24772   7.799   7.432   0.436 -0.7034  0.1436  0.3087
  184MOL0     H24773   8.211   7.701   0.384  3.2256 -0.5738 -1.0532
  184MOL0     H24774   8.386   7.782   0.249  0.6993  2.2749 -0.4405
  184MOL0     H24775   8.549   7.792   0.083  1.4063 -1.7729  0.9326
  184MOL0     H24776   8.477   7.644   0.028  0.3401 -0.9486 -0.7854
  184MOL0     H24777   8.511   7.714  -0.209 -0.5029  0.9228  0.9733
  184MOL0     H24778   8.633   7.638  -0.121 -0.7056 -0.4248  1.7122
  184MOL0     H24779   8.749   7.852  -0.085 -0.9893  1.4033  1.2938
  184MOL0     H24780   8.620   7.944  -0.167  1.3245  0.8846  0.1652
  184MOL0     H24781   8.778   7.728  -0.312  0.3932  0.1258  3.4733
  184MOL0     H24782   8.647   7.821  -0.377 -1.0468 -0.8883  1.0703
  184MOL0     H24783   8.918   7.926  -0.265 -1.6007 -2.8700  1.8519
  184MOL0     H24784   8.876   7.889  -0.441  0.4905  0.4582 -0.6038
  184MOL0     H24785   8.693   8.064  -0.414  0.3661  0.4967  0.7119
  184MOL0     H24786   8.767   8.116  -0.262  1.7264  2.8078 -0.7777
  184MOL0     H24787   8.925   8.114  -0.520 -0.0279  0.5025 -0.2360
  184MOL0     H24788   8.971   8.176  -0.362  0.3510  1.9513 -1.2171
  184MOL0     H24789   8.753   8.260  -0.550  0.9711  0.0755 -1.5964
  184MOL0     H24790   8.758   8.329  -0.391 -0.1825 -1.9216 -0.0734
  184MOL0     H24791   9.040   8.406  -0.330  0.7837  0.9617  0.5665
  184MOL0     H24792   9.241   8.659  -0.496 -0.1481  0.7238  3.0209
  184MOL0     H24793   9.278   8.511  -0.390  0.1500  0.2741 -0.4210
  184MOL0     H24794   9.334   8.376  -0.570  0.5578  0.3668  1.6337
  184MOL0     H24795   9.304   8.497  -0.689 -2.1240 -0.8054  0.4225
  184MOL0     H24796   9.528   8.481  -0.473  0.2813  1.4871  0.6165
  184MOL0     H24797   9.485   8.640  -0.544  1.4293  0.7470 -2.2423
  184MOL0     H24798   9.589   8.559  -0.770  0.9716 -1.5289 -0.8729
  184MOL0     H24799   9.521   8.413  -0.742 -0.0597 -0.8629  1.4654
  184MOL0     H24800   9.710   8.687  -0.565 -1.7941 -2.0915 -1.0410
  184MOL0     H24801   9.919   8.786  -0.477 -1.2565  1.5407 -2.2108
  184MOL0     H24802  10.317   8.638  -0.112  1.5715  1.3762  1.3298
  184MOL0     H24803  10.522   8.721  -0.036 -1.2129 -0.3574  0.9062
  184MOL0     H24804  10.706   8.830   0.010  0.2981  3.6566 -0.5863
  184MOL0     H24805  10.796   8.698  -0.073  0.7488  0.4176  0.7692
  184MOL0     H24806  10.929   8.830   0.049 -3.4962  0.4216  1.2383
  184MOL0     H24807  10.975   8.844  -0.130  1.1196  1.4763  0.1995
  184MOL0     H24808  10.853   9.062  -0.140 -2.5123 -2.4610  0.1150
  184MOL0     H24809  10.789   9.034   0.021 -0.4708 -2.3847 -0.3215
  184MOL0     H24810  11.026   9.055   0.106 -3.6383 -0.7955  0.4569
  184MOL0     H24811  10.957   9.212   0.048 -1.9608  0.3794 -3.5464
  184MOL0     H24812  11.104   9.189  -0.157  0.0402  0.2490 -0.2072
  184MOL0     H24813  11.149   9.034  -0.111  0.4372 -0.0970 -1.0256
  184MOL0     H24814  11.223   9.296   0.051  2.8958  0.4192 -0.9840
  184MOL0     H24815  11.260   9.123   0.100  0.1655  1.8571  2.6893
  184MOL0     H24816  11.415   9.098  -0.052  0.2406  0.8854  0.0291
  184MOL0     H24817  11.442   9.247   0.026 -0.8518  0.8191 -1.5777
  184MOL0     H24818  11.483   9.218  -0.223 -0.0529 -0.4221 -1.1361
  184MOL0     H24819  11.311   9.255  -0.257 -1.1624  3.3733  0.0589
  184MOL0     H24820  10.660   8.766  -0.459  0.6331 -1.7131  0.1202
  184MOL0     H24821  10.434   8.699  -0.526  0.6643  0.0782  0.0443
  184MOL0     H24822  10.140   8.423  -0.549 -0.1397  0.1908  0.3885
  184MOL0     H24823   9.933   8.318  -0.635  1.4518 -0.6023 -1.7310
  184MOL0     H24824   8.124   7.764  -0.102 -0.7527  2.4870 -0.0943
  184MOL0     H24825   7.945   7.710   0.039  1.6263 -3.3713  0.0500
  184MOL0     H24826   7.745   7.893   0.540 -0.7203 -0.5825 -1.1212
  184MOL0     H24827   7.539   7.843   0.663 -0.4538 -1.1816  1.3082
  184MOL0     H24828   7.361   7.409   0.652  2.1615 -0.0995  0.1814
  184MOL0     H24829   7.248   7.529   0.708  0.2985  2.3609 -1.6910
  184MOL0     H24830   7.490   7.448   0.879 -0.5331  2.3536  0.4109
  184MOL0     H24831   7.339   7.358   0.879 -0.8883 -0.5936 -1.3405
  184MOL0     H24832   7.234   7.597   0.935 -0.9054 -1.0626  0.7253
  184MOL0     H24833   7.404   7.648   0.959 -0.9061  0.0166  2.1792
  184MOL0     H24834   7.267   7.411   1.095  1.7658 -1.9436 -4.2211
  184MOL0     H24835   7.438   7.470   1.121 -0.2891  0.5984 -1.7713
  184MOL0     H24836   7.264   7.713   1.392 -0.7605  3.1820 -1.4707
  184MOL0     H24837   7.575   7.433   0.568  4.7989 -1.8655 -0.2851
  184MOL0     H24838   7.907   7.444   0.427 -0.7638  1.0499  0.6944
  184MOL0     H24839   7.777   7.355   0.511 -3.3042  0.6992  0.2277
  184MOL0     H24840   7.751   7.401   0.343  0.8746  1.8088 -1.1213
  185MOL0     O24841   3.563   5.466   9.709 -0.0971 -0.1846  0.2412
  185MOL0     C24842   3.467   5.390   9.733  0.6638 -0.0185  1.0869
  185MOL0     O24843   3.477   5.265   9.771 -0.1075  0.4084 -0.8636
  185MOL0     C24844   3.600   5.208   9.793  0.6941  0.2006 -0.3105
  185MOL0     C24845   3.687   5.168   9.684 -0.5358 -0.0749 -0.1975
  185MOL0     C24846   3.804   5.092   9.712  0.4731  0.6026  0.0966
  185MOL0     C24847   3.833   5.057   9.842 -0.4647  0.3781 -0.3665
  185MOL0     O24848   3.953   4.986   9.858 -0.1184  0.4213  0.2515
  185MOL0     C24849   3.965   4.898   9.976  0.7497  0.6380 -0.1217
  185MOL0     C24850   4.065   4.949  10.089 -0.2772  0.5367  0.9060
  185MOL0     C24851   4.200   4.982  10.030  0.1325 -0.1962 -0.0965
  185MOL0     C24852   4.286   4.855  10.022  0.3756 -0.3721  0.2103
  185MOL0     C24853   4.348   4.837  10.160  0.4884 -1.1243 -0.1810
  185MOL0     C24854   4.390   4.698  10.192  0.9867  0.4262 -0.2084
  185MOL0     C24855   4.496   4.653  10.087 -0.7911  0.7790  0.0816
  185MOL0     C24856   4.554   4.520  10.142 -0.0801 -0.7444  0.0043
  185MOL0     N24857   4.635   4.515  10.264  0.0406  0.2251 -0.1090
  185MOL0     C24858   4.739   4.607  10.287  0.0282  0.0471  0.1660
  185MOL0     C24859   4.758   4.604  10.421  0.1913  0.2555 -0.6737
  185MOL0     C24860   4.843   4.680  10.513 -0.1204  0.2628  0.9868
  185MOL0     C24861   4.989   4.663  10.472  0.6241 -0.1107  0.0516
  185MOL0     C24862   5.079   4.737  10.571 -0.1268 -0.5384 -0.6298
  185MOL0     C24863   5.231   4.724  10.538  0.0485 -0.2665 -1.0999
  185MOL0     O24864   5.254   4.805  10.429  0.3842 -0.2182  0.4011
  185MOL0     C24865   5.384   4.836  10.400  0.0898  1.0186  0.0469
  185MOL0     C24866   5.486   4.743  10.446 -0.2582 -1.0643  0.6331
  185MOL0     C24867   5.620   4.778  10.422  0.6141 -0.6554  0.4149
  185MOL0     C24868   5.650   4.895  10.353 -0.6209  0.1218 -0.4444
  185MOL0     C24869   5.795   4.934  10.340  0.5235  0.4045  0.6973
  185MOL0     O24870   5.883   4.876  10.419 -0.3431 -0.8114  1.1499
  185MOL0     C24871   6.016   4.895  10.401 -0.0737  0.3981  0.1865
  185MOL0     C24872   6.105   4.953  10.495  0.2613  0.7680  0.1514
  185MOL0     C24873   6.238   4.989  10.465  0.4234 -0.1882  0.5719
  185MOL0     C24874   6.291   4.958  10.342  0.2116 -0.1725  1.1158
  185MOL0     O24875   6.422   4.998  10.314  0.3114  0.7308 -0.4218
  185MOL0     C24876   6.447   5.051  10.189 -0.3216  0.2793  0.0939
  185MOL0     C24877   6.594   5.104  10.202 -0.0085 -0.2573 -0.3226
  185MOL0     C24878   6.651   5.161  10.072  0.3636  0.3203 -0.1290
  185MOL0     C24879   6.664   5.069   9.948 -0.3467 -0.4582 -0.6126
  185MOL0     C24880   6.785   5.100   9.856  0.3856 -0.2497  0.0180
  185MOL0     C24881   6.768   5.023   9.726 -0.5506 -0.1969 -0.4079
  185MOL0     C24882   6.799   4.869   9.734 -0.2290 -0.5313  0.3051
  185MOL0     C24883   6.737   4.783   9.628  0.0405 -0.9157  0.4823
  185MOL0    Cl24884   6.737   4.616   9.694 -0.0052 -0.1176 -0.7416
  185MOL0     C24885   6.204   4.899  10.243  0.3992  0.8427 -1.0964
  185MOL0     C24886   6.075   4.871  10.277  0.6064  0.3668  0.4850
  185MOL0     O24887   5.818   5.005  10.246 -0.6546 -1.4112 -0.3716
  185MOL0     C24888   5.550   4.982  10.305 -0.3705  0.2705 -0.2979
  185MOL0     C24889   5.419   4.946  10.331 -0.6199 -0.5554  1.0389
  185MOL0     N24890   4.672   4.505  10.475 -0.0025  0.3531  0.6846
  185MOL0     N24891   4.598   4.451  10.379 -0.6955 -0.9634  0.1649
  185MOL0     C24892   3.756   5.102   9.947  0.7189 -1.2561 -0.6240
  185MOL0     C24893   3.646   5.187   9.930 -0.0774  0.2880 -0.1896
  185MOL0     C24894   3.325   5.439   9.711  0.0071  0.5945 -1.0190
  185MOL0     C24895   3.310   5.570   9.667 -0.4280  0.0262  0.3973
  185MOL0     C24896   3.186   5.619   9.633 -0.4839 -0.1835  0.3467
  185MOL0     C24897   3.071   5.548   9.651  0.4803  0.0545  0.3317
  185MOL0     O24898   2.950   5.603   9.600  0.3084 -0.3355 -0.3719
  185MOL0     C24899   2.834   5.523   9.606  0.3362 -0.5207 -0.7825
  185MOL0     C24900   2.718   5.608   9.547 -0.5239  0.1510  0.3603
  185MOL0     C24901   2.680   5.726   9.638  0.7597  0.3824  0.6795
  185MOL0     C24902   2.594   5.839   9.575  0.3175 -0.1494  0.1333
  185MOL0     C24903   2.474   5.785   9.510  0.5635  0.7741  0.3166
  185MOL0     C24904   2.374   5.747   9.457  0.0464  0.1514 -0.6617
  185MOL0     C24905   3.081   5.417   9.691  0.1206  0.2854  0.5898
  185MOL0     C24906   3.203   5.362   9.729 -0.4970 -0.0994  0.1728
  185MOL0     C24907   3.205   5.222   9.780  0.6193  0.1679  0.5073
  185MOL0     H24908   3.659   5.197   9.584  2.0034  2.2788 -0.3625
  185MOL0     H24909   3.877   5.080   9.632  1.0843 -1.6709  0.9130
  185MOL0     H24910   3.866   4.869  10.012  0.6644 -2.2552 -2.2854
  185MOL0     H24911   3.998   4.802   9.934 -1.2288  0.0537 -0.4537
  185MOL0     H24912   4.075   4.870  10.164 -0.9938  0.0876  0.5434
  185MOL0     H24913   4.017   5.040  10.126 -3.0457 -0.4082 -0.1301
  185MOL0     H24914   4.245   5.065  10.086  0.7909 -0.2217 -0.5772
  185MOL0     H24915   4.185   5.025   9.930 -0.6954 -1.7193 -0.6553
  185MOL0     H24916   4.231   4.765   9.992  1.9871 -0.7811 -1.7492
  185MOL0     H24917   4.367   4.861   9.949 -1.3431 -2.4475 -2.0382
  185MOL0     H24918   4.428   4.909  10.174 -1.5912  1.6002 -1.4131
  185MOL0     H24919   4.276   4.867  10.237  1.3344 -2.0542  0.9958
  185MOL0     H24920   4.426   4.694  10.295 -2.9656  0.2792  1.3493
  185MOL0     H24921   4.307   4.628  10.180  2.9660 -1.7085 -2.1954
  185MOL0     H24922   4.575   4.727  10.072  0.8672 -1.1591 -1.4962
  185MOL0     H24923   4.466   4.637   9.983  0.9721 -1.7091 -0.1574
  185MOL0     H24924   4.473   4.448  10.159  1.3195 -2.4779 -0.3717
  185MOL0     H24925   4.617   4.481  10.061 -0.2860  0.9476 -1.0286
  185MOL0     H24926   4.771   4.683  10.217 -1.5242 -0.1414 -0.7884
  185MOL0     H24927   4.824   4.788  10.513 -0.4568  0.2103  0.4363
  185MOL0     H24928   4.832   4.649  10.617  1.5950 -2.6889  0.3951
  185MOL0     H24929   5.012   4.556  10.473  2.9743  0.3250  1.4435
  185MOL0     H24930   5.003   4.703  10.371 -0.8752  1.6616  0.4881
  185MOL0     H24931   5.073   4.706  10.676  3.4293  2.9314  0.8853
  185MOL0     H24932   5.051   4.842  10.561 -2.1109 -0.8670  1.0072
  185MOL0     H24933   5.259   4.618  10.529  1.2600  0.0074 -0.6752
  185MOL0     H24934   5.292   4.752  10.625 -2.3763 -3.3613  1.8799
  185MOL0     H24935   5.465   4.647  10.493 -3.0151 -0.5585  0.6278
  185MOL0     H24936   5.697   4.718  10.469  3.2817  0.7839 -1.8184
  185MOL0     H24937   6.065   4.980  10.592 -2.5793 -1.9516 -0.1098
  185MOL0     H24938   6.301   5.046  10.533 -1.7160  2.5309  0.4551
  185MOL0     H24939   6.434   4.972  10.114 -2.7197 -0.5614  1.3075
  185MOL0     H24940   6.390   5.141  10.163 -1.1044 -0.2693 -0.1063
  185MOL0     H24941   6.606   5.183  10.276  3.0819  1.2030 -2.1697
  185MOL0     H24942   6.658   5.024  10.239 -0.3750  0.4309  1.9120
  185MOL0     H24943   6.597   5.249  10.038 -2.1662 -0.4635  1.6026
  185MOL0     H24944   6.748   5.192  10.113 -0.4077 -0.4383  2.5135
  185MOL0     H24945   6.580   5.081   9.879 -0.3466 -1.2280 -0.7587
  185MOL0     H24946   6.661   4.965   9.982 -0.7828 -0.5659 -0.9747
  185MOL0     H24947   6.876   5.079   9.914 -1.4334 -1.4718  2.6601
  185MOL0     H24948   6.782   5.206   9.831  0.1242 -0.2703 -0.0412
  185MOL0     H24949   6.666   5.043   9.690 -1.0346  0.9406  1.4657
  185MOL0     H24950   6.839   5.069   9.657 -0.2921  0.7315  0.4551
  185MOL0     H24951   6.751   4.839   9.827 -0.3627 -1.7981 -0.1532
  185MOL0     H24952   6.908   4.858   9.735 -0.0081  1.3609  0.5976
  185MOL0     H24953   6.638   4.815   9.597  0.2652 -0.3360  0.3494
  185MOL0     H24954   6.801   4.798   9.540 -0.3452 -1.5206  0.0982
  185MOL0     H24955   6.246   4.868  10.148 -0.6962 -1.4060 -0.8961
  185MOL0     H24956   6.007   4.822  10.207  3.7155 -0.3157 -2.3384
  185MOL0     H24957   5.583   5.071  10.253  3.1524  0.8592  2.5731
  185MOL0     H24958   5.330   4.992  10.287 -0.5452 -0.5544  0.8890
  185MOL0     H24959   3.780   5.072  10.049  3.8940 -0.0340 -0.9051
  185MOL0     H24960   3.584   5.219  10.014 -0.0463  2.0660 -0.8101
  185MOL0     H24961   3.397   5.635   9.661 -2.1772  2.3557 -1.2679
  185MOL0     H24962   3.173   5.715   9.583  0.1759 -0.0734  0.3723
  185MOL0     H24963   2.805   5.490   9.706 -1.1115 -1.4117 -1.4536
  185MOL0     H24964   2.845   5.430   9.550 -1.1889 -3.3989  3.1946
  185MOL0     H24965   2.637   5.535   9.532 -1.9054  1.7664 -0.3808
  185MOL0     H24966   2.752   5.643   9.449  0.1221 -0.7979  0.2243
  185MOL0     H24967   2.773   5.763   9.683  1.8081 -1.9011  0.5604
  185MOL0     H24968   2.630   5.688   9.728  1.4264  0.0434  0.9219
  185MOL0     H24969   2.564   5.904   9.657 -3.2769  0.0629 -1.2033
  185MOL0     H24970   2.656   5.890   9.501 -0.6217 -1.7056 -1.8333
  185MOL0     H24971   2.300   5.693   9.402 -2.9838  1.1816  2.0569
  185MOL0     H24972   3.003   5.342   9.679  0.6233 -0.0064 -1.1233
  185MOL0     H24973   3.101   5.193   9.803 -0.5875  2.1669 -1.9376
  185MOL0     H24974   3.244   5.160   9.698 -2.4802  0.0106 -0.9933
  185MOL0     H24975   3.261   5.214   9.874  0.7044  1.6446  0.6000
  186MOL0     O24976   8.043   9.464   9.144 -0.1548 -0.0253 -0.4957
  186MOL0     C24977   8.002   9.405   9.240  0.2589 -0.7165 -0.7701
  186MOL0     O24978   8.066   9.325   9.323 -0.8484  0.4451  0.0893
  186MOL0     C24979   8.198   9.361   9.346  0.5979  0.4363  0.4657
  186MOL0     C24980   8.245   9.438   9.449  0.0406  1.0318 -0.7433
  186MOL0     C24981   8.385   9.462   9.471  0.1634 -0.6564  0.4947
  186MOL0     C24982   8.479   9.401   9.383  0.1328  0.2088 -0.2445
  186MOL0     O24983   8.618   9.413   9.407  0.2750  0.4065 -0.5044
  186MOL0     C24984   8.657   9.516   9.500 -0.5223 -0.0601  0.5740
  186MOL0     C24985   8.806   9.507   9.517  0.7377 -0.7340  0.4384
  186MOL0     C24986   8.884   9.563   9.401 -0.4588 -1.1349 -0.4550
  186MOL0     C24987   9.031   9.556   9.426  0.2867  0.2569 -0.1177
  186MOL0     C24988   9.113   9.635   9.326  0.5725  0.1447  0.2382
  186MOL0     C24989   9.266   9.650   9.346 -0.3551  0.0364  0.7938
  186MOL0     C24990   9.333   9.712   9.218  0.1712 -0.3291 -0.0911
  186MOL0     C24991   9.437   9.809   9.259  0.3553  0.0173  0.3351
  186MOL0     N24992   9.499   9.866   9.132 -0.4553 -0.6684 -0.2315
  186MOL0     C24993   9.429   9.940   9.045  0.4393 -0.0923  0.2392
  186MOL0     C24994   9.519   9.980   8.952 -0.2205 -0.2254  0.3091
  186MOL0     C24995   9.476  10.062   8.837 -0.2499 -0.6030  0.6670
  186MOL0     C24996   9.448   9.986   8.708  0.2040 -0.0786 -0.4751
  186MOL0     C24997   9.549   9.987   8.595  0.1698 -0.0020 -0.3169
  186MOL0     C24998   9.494   9.873   8.503 -0.0551  0.4020  0.2938
  186MOL0     O24999   9.562   9.878   8.376  0.1179  0.0172  0.3803
  186MOL0     C25000   9.692   9.841   8.363  0.4293  0.2014  0.2628
  186MOL0     C25001   9.780   9.935   8.302  0.3584  0.0012  0.6845
  186MOL0     C25002   9.916   9.912   8.288 -0.5927 -1.2601 -0.5745
  186MOL0     C25003   9.964   9.791   8.351  0.3986  0.5541 -0.2893
  186MOL0     C25004  10.116   9.769   8.354  0.8631  0.1674 -0.5044
  186MOL0     O25005  10.189   9.888   8.342  0.9542  0.2218 -0.3592
  186MOL0     C25006  10.323   9.863   8.336 -0.3026 -0.7904  0.8570
  186MOL0     C25007  10.394   9.837   8.456  0.6667 -0.7902  0.1710
  186MOL0     C25008  10.530   9.828   8.457  0.4193  0.3726 -0.3764
  186MOL0     C25009  10.604   9.840   8.341 -0.3906  1.7359  0.3908
  186MOL0     O25010  10.745   9.830   8.364  0.3718 -0.4333  0.4737
  186MOL0     C25011  10.841   9.834   8.254  0.6823  0.0074  0.0062
  186MOL0     C25012  10.980   9.884   8.296 -0.0522  0.3347  0.8912
  186MOL0     C25013  11.047   9.786   8.388  0.0285 -0.3038  0.1946
  186MOL0     C25014  11.176   9.831   8.453  0.5637 -0.6793 -0.0820
  186MOL0     C25015  11.241   9.724   8.537 -0.1062  0.2101 -0.0879
  186MOL0     C25016  11.374   9.767   8.610  0.9529  0.2246  0.6790
  186MOL0     C25017  11.476   9.780   8.501 -0.4568  0.6904  0.4197
  186MOL0     C25018  11.611   9.815   8.576  0.0543 -0.0274 -0.2264
  186MOL0    Cl25019  11.750   9.825   8.458 -0.1927  0.2480  0.2737
  186MOL0     C25020  10.534   9.862   8.222 -0.2109 -0.6968  0.0959
  186MOL0     C25021  10.394   9.873   8.223 -0.2522 -0.3878  1.2534
  186MOL0     O25022  10.154   9.661   8.404  0.2357 -0.6163  0.2243
  186MOL0     C25023   9.879   9.689   8.394 -0.3445 -0.5655 -0.1452
  186MOL0     C25024   9.742   9.724   8.402  0.1773 -0.0503  0.7873
  186MOL0     N25025   9.636   9.932   8.983 -0.7289 -0.2768  1.1249
  186MOL0     N25026   9.627   9.857   9.095  0.3109 -0.0439  0.5003
  186MOL0     C25027   8.433   9.321   9.276  0.1479  0.1620 -0.0715
  186MOL0     C25028   8.297   9.305   9.259 -0.9347  0.0268  0.3575
  186MOL0     C25029   7.857   9.418   9.265 -0.6229  0.9343  0.4280
  186MOL0     C25030   7.804   9.401   9.396 -0.0975  0.0606  0.1753
  186MOL0     C25031   7.670   9.419   9.422 -0.3613 -1.0406 -0.2267
  186MOL0     C25032   7.582   9.468   9.324  0.1567  0.1632  0.3743
  186MOL0     O25033   7.449   9.496   9.333  0.1700  0.3415 -0.7482
  186MOL0     C25034   7.367   9.451   9.444 -0.0913 -0.1855  0.1389
  186MOL0     C25035   7.329   9.565   9.529  0.3910  0.5569  0.2604
  186MOL0     C25036   7.248   9.516   9.645  0.4089 -0.2224 -1.1004
  186MOL0     C25037   7.103   9.550   9.616 -0.1372 -0.9178 -0.1033
  186MOL0     C25038   7.062   9.686   9.668 -0.2620 -0.5989  0.3490
  186MOL0     C25039   7.026   9.789   9.717 -0.8446 -0.1786 -0.2640
  186MOL0     C25040   7.637   9.479   9.198 -0.2565  0.2515  0.7521
  186MOL0     C25041   7.762   9.443   9.161  0.2542  0.0973  0.7294
  186MOL0     C25042   7.801   9.443   9.008 -0.0221 -1.2661 -0.1890
  186MOL0     H25043   8.172   9.482   9.517 -2.2689 -0.1083 -2.3533
  186MOL0     H25044   8.409   9.522   9.558 -3.6301  2.9286 -0.6154
  186MOL0     H25045   8.631   9.613   9.456  0.0924  0.3717  1.1454
  186MOL0     H25046   8.610   9.508   9.598  1.9621 -1.2994  1.7418
  186MOL0     H25047   8.834   9.402   9.523  1.7837 -0.5072 -0.1717
  186MOL0     H25048   8.840   9.561   9.605  1.5426  1.4317 -1.1071
  186MOL0     H25049   8.860   9.665   9.370  2.0508 -0.5936 -0.7699
  186MOL0     H25050   8.858   9.500   9.315 -1.4108  0.8629 -1.7073
  186MOL0     H25051   9.058   9.579   9.530  1.6529  0.5156 -0.5225
  186MOL0     H25052   9.076   9.457   9.427 -0.5458 -0.1325  0.6998
  186MOL0     H25053   9.100   9.585   9.230 -2.4846  2.5429 -0.7879
  186MOL0     H25054   9.070   9.736   9.314  0.5329  0.3001  1.5658
  186MOL0     H25055   9.277   9.721   9.428 -2.7619 -0.5789  1.7357
  186MOL0     H25056   9.305   9.550   9.365 -2.0530 -1.0712 -1.1416
  186MOL0     H25057   9.251   9.761   9.164 -1.9207 -1.6298  1.7213
  186MOL0     H25058   9.370   9.642   9.142 -0.5836 -0.4905 -0.3243
  186MOL0     H25059   9.392   9.884   9.324 -0.8953 -1.2134  0.9546
  186MOL0     H25060   9.511   9.754   9.318 -1.0845  1.3582  3.6394
  186MOL0     H25061   9.323   9.962   9.050  0.3835 -0.1829 -0.3804
  186MOL0     H25062   9.390  10.128   8.854  0.9778  0.5800  2.7661
  186MOL0     H25063   9.561  10.127   8.814 -0.4145 -1.7068 -4.1120
  186MOL0     H25064   9.419   9.885   8.736  0.3133  1.0098  4.4363
  186MOL0     H25065   9.361  10.038   8.666 -1.0118 -1.7350 -0.0785
  186MOL0     H25066   9.653   9.971   8.624 -0.2291 -0.5802  0.8661
  186MOL0     H25067   9.543  10.079   8.537  0.6396  0.5031  0.4265
  186MOL0     H25068   9.390   9.893   8.478 -0.5164 -0.2332  1.6044
  186MOL0     H25069   9.501   9.773   8.548  0.2917  0.8115  1.1662
  186MOL0     H25070   9.723  10.017   8.259 -0.7577 -0.0508  2.0087
  186MOL0     H25071   9.982   9.980   8.235 -2.6060 -0.7341 -2.6017
  186MOL0     H25072  10.330   9.818   8.542 -1.3981  1.2732 -0.7797
  186MOL0     H25073  10.576   9.809   8.553 -1.7665 -1.5134  0.3755
  186MOL0     H25074  10.848   9.728   8.225  1.0217 -0.0749  0.3739
  186MOL0     H25075  10.798   9.891   8.172  0.8895 -0.2433 -0.2786
  186MOL0     H25076  11.033   9.905   8.203 -1.3638  3.9512  0.8130
  186MOL0     H25077  10.980   9.981   8.347 -3.2032  0.2960  1.1866
  186MOL0     H25078  10.975   9.754   8.464  0.7496  1.6279  1.7869
  186MOL0     H25079  11.067   9.695   8.330 -0.6012  0.9936 -2.2043
  186MOL0     H25080  11.165   9.918   8.518  0.8752 -1.0431  0.4734
  186MOL0     H25081  11.241   9.859   8.370 -1.4279  1.7557 -0.9600
  186MOL0     H25082  11.256   9.632   8.480 -1.7752 -0.2399  0.1302
  186MOL0     H25083  11.165   9.694   8.610 -1.7371  1.5972 -1.1281
  186MOL0     H25084  11.358   9.856   8.671  2.5540  1.0291 -0.0115
  186MOL0     H25085  11.398   9.684   8.678  0.9194  1.4333  2.2335
  186MOL0     H25086  11.456   9.864   8.434  2.7789  0.1776 -1.3920
  186MOL0     H25087  11.480   9.687   8.445 -1.7821  0.5132  0.5850
  186MOL0     H25088  11.613   9.908   8.633  1.2413 -0.4328  0.4447
  186MOL0     H25089  11.624   9.736   8.651 -0.1788 -1.9972 -2.1480
  186MOL0     H25090  10.590   9.878   8.130  1.5355  1.5786  1.4419
  186MOL0     H25091  10.337   9.885   8.131 -2.1383 -0.6509  2.3230
  186MOL0     H25092   9.914   9.590   8.421 -0.2633 -0.2927  0.7519
  186MOL0     H25093   9.672   9.647   8.434 -1.0381  0.5633 -0.2976
  186MOL0     H25094   8.511   9.292   9.206  2.0417  3.4597  0.4678
  186MOL0     H25095   8.271   9.235   9.180  1.7008 -2.3085  1.4266
  186MOL0     H25096   7.860   9.382   9.486 -1.2818  0.8160  1.1113
  186MOL0     H25097   7.648   9.392   9.525  0.5547 -0.4792  0.1196
  186MOL0     H25098   7.425   9.380   9.502  0.8693  1.0499  0.7377
  186MOL0     H25099   7.279   9.395   9.410 -0.1452 -0.3163  0.4944
  186MOL0     H25100   7.269   9.640   9.477 -2.7253  0.4636  3.3709
  186MOL0     H25101   7.419   9.618   9.562  1.6894 -2.5920  2.2310
  186MOL0     H25102   7.273   9.569   9.738 -0.6027 -2.2429  0.3962
  186MOL0     H25103   7.264   9.409   9.657  1.7805  0.1806  1.6029
  186MOL0     H25104   7.080   9.549   9.509 -0.8128  1.3582 -0.0418
  186MOL0     H25105   7.044   9.477   9.672 -1.3074 -0.4665 -0.7269
  186MOL0     H25106   7.006   9.876   9.776 -1.3279 -1.1154  1.0067
  186MOL0     H25107   7.568   9.503   9.118  1.6321  0.8489 -0.7576
  186MOL0     H25108   7.811   9.344   8.963 -1.4764 -0.6060 -2.1090
  186MOL0     H25109   7.718   9.483   8.949  0.4883  3.1450  1.6898
  186MOL0     H25110   7.878   9.515   8.977 -1.9658  1.0439  0.0342
  187MOL0     O25111   1.519   3.765   0.471 -0.2490  0.0828  0.5738
  187MOL0     C25112   1.605   3.753   0.557 -0.9866  0.5300  0.7798
  187MOL0     O25113   1.639   3.854   0.645  0.5189 -0.0466 -0.3397
  187MOL0     C25114   1.552   3.959   0.653 -0.0340 -0.0932 -0.0608
  187MOL0     C25115   1.445   3.950   0.738 -0.4519  0.2010 -0.3615
  187MOL0     C25116   1.340   4.041   0.732  0.0995  0.7494  0.0050
  187MOL0     C25117   1.336   4.156   0.645 -0.1861 -0.4918 -0.0785
  187MOL0     O25118   1.225   4.239   0.624 -0.2582 -0.0885  0.5752
  187MOL0     C25119   1.090   4.196   0.660 -0.4179 -0.5683  0.0895
  187MOL0     C25120   0.997   4.208   0.540  0.0759 -0.7721 -0.0835
  187MOL0     C25121   0.968   4.356   0.479 -0.5288  0.3720  0.1108
  187MOL0     C25122   0.848   4.348   0.377 -0.7831  0.1748  0.2056
  187MOL0     C25123   0.820   4.485   0.301 -0.3131  0.5802  0.3362
  187MOL0     C25124   0.739   4.568   0.399  0.0611 -0.3795 -0.2625
  187MOL0     C25125   0.683   4.698   0.338  0.0196  0.0976  0.7317
  187MOL0     C25126   0.539   4.734   0.352  0.3199 -0.7109  0.1755
  187MOL0     N25127   0.495   4.821   0.241 -0.4053 -0.0089 -1.3638
  187MOL0     C25128   0.516   4.955   0.248  0.0075  0.0530  0.0997
  187MOL0     C25129   0.446   4.999   0.148  0.0710 -0.0562  0.8504
  187MOL0     C25130   0.446   5.152   0.122 -0.2033  0.1762 -0.0679
  187MOL0     C25131   0.461   5.196  -0.027  0.9755 -0.3827  0.8541
  187MOL0     C25132   0.571   5.130  -0.100  0.5721  0.8973 -0.5542
  187MOL0     C25133   0.549   5.136  -0.249  0.0571  0.2371 -0.6954
  187MOL0     O25134   0.495   5.255  -0.307 -0.1701 -0.2135  0.5445
  187MOL0     C25135   0.581   5.362  -0.328  0.4580  1.0932 -0.0806
  187MOL0     C25136   0.536   5.496  -0.348 -1.0064  0.7002  0.1137
  187MOL0     C25137   0.633   5.599  -0.366 -0.1630 -0.8852  0.1161
  187MOL0     C25138   0.770   5.579  -0.354 -0.9600 -0.5078 -0.4673
  187MOL0     C25139   0.869   5.686  -0.340  1.0123 -0.6665  0.3094
  187MOL0     O25140   1.005   5.652  -0.340 -0.3526  0.7680  0.1834
  187MOL0     C25141   1.097   5.749  -0.357  0.1620 -0.4787  0.3765
  187MOL0     C25142   1.103   5.807  -0.488  0.0905  0.0756 -0.9750
  187MOL0     C25143   1.195   5.905  -0.510 -0.2342 -0.7515  0.3046
  187MOL0     C25144   1.283   5.958  -0.416 -0.0191  0.8608 -0.7907
  187MOL0     O25145   1.359   6.067  -0.453  0.7656  0.1575 -0.0242
  187MOL0     C25146   1.351   6.167  -0.349  0.0292 -0.1514  0.1225
  187MOL0     C25147   1.364   6.302  -0.417  0.7587  0.4131 -0.1921
  187MOL0     C25148   1.307   6.411  -0.325  0.0893  0.3622 -0.1244
  187MOL0     C25149   1.254   6.525  -0.409  0.8997 -0.5368 -0.9625
  187MOL0     C25150   1.200   6.655  -0.340  1.0169  0.1924 -0.2112
  187MOL0     C25151   1.125   6.741  -0.436 -0.0615  0.2743 -0.0697
  187MOL0     C25152   0.972   6.720  -0.437 -0.1829  0.0150  0.9184
  187MOL0     C25153   0.892   6.781  -0.553 -0.7566 -0.4002  0.4102
  187MOL0    Cl25154   0.933   6.955  -0.559 -0.1878  0.1912 -0.2264
  187MOL0     C25155   1.285   5.891  -0.291  0.7564 -0.5468 -0.1037
  187MOL0     C25156   1.200   5.781  -0.261  0.2229 -0.3370  0.4367
  187MOL0     O25157   0.824   5.797  -0.313 -0.4663  0.3747 -0.2111
  187MOL0     C25158   0.806   5.449  -0.336 -0.3174  0.5779 -0.2714
  187MOL0     C25159   0.719   5.344  -0.323 -0.2466 -0.9460 -0.8432
  187MOL0     N25160   0.378   4.900   0.093 -0.8448  0.1852 -1.0296
  187MOL0     N25161   0.414   4.788   0.140  0.4345  0.0256  0.8327
  187MOL0     C25162   1.451   4.175   0.566  0.4132  0.3607 -0.3100
  187MOL0     C25163   1.555   4.074   0.572 -0.1698 -0.0937  0.2125
  187MOL0     C25164   1.683   3.621   0.556  1.0096  0.1978  0.0699
  187MOL0     C25165   1.606   3.511   0.513 -0.2266  0.8478 -0.1444
  187MOL0     C25166   1.665   3.379   0.513 -0.4713 -0.5817  0.3302
  187MOL0     C25167   1.800   3.366   0.557  0.3975 -1.0489  1.0952
  187MOL0     O25168   1.875   3.252   0.542  0.0541 -0.6059 -0.1956
  187MOL0     C25169   1.811   3.155   0.449  0.4963  0.3368 -0.3002
  187MOL0     C25170   1.915   3.077   0.374  0.2740  0.1310 -0.0526
  187MOL0     C25171   1.991   2.972   0.455 -0.1470 -0.6782 -0.3064
  187MOL0     C25172   2.090   2.890   0.367 -0.4134 -0.0394  0.3588
  187MOL0     C25173   2.190   2.807   0.444  0.2621  0.1726 -0.0709
  187MOL0     C25174   2.272   2.738   0.495 -0.2757  0.1701  0.5827
  187MOL0     C25175   1.865   3.478   0.610  0.4085  0.2763 -0.2455
  187MOL0     C25176   1.812   3.605   0.604  0.1272  1.2409 -1.4272
  187MOL0     C25177   1.902   3.713   0.652  0.1853  0.1632 -0.9018
  187MOL0     H25178   1.448   3.865   0.804  1.8562  1.8884  1.8781
  187MOL0     H25179   1.253   4.024   0.795  0.0927 -0.5903 -0.3532
  187MOL0     H25180   1.089   4.090   0.688  2.3133 -1.2018 -1.7908
  187MOL0     H25181   1.047   4.248   0.746  0.1480  1.9943 -1.0861
  187MOL0     H25182   0.902   4.174   0.582 -0.0866 -0.3559 -0.1033
  187MOL0     H25183   1.035   4.139   0.465  2.0189  0.5560 -0.4066
  187MOL0     H25184   1.051   4.387   0.415  0.4778 -1.2779  0.5444
  187MOL0     H25185   0.941   4.433   0.552 -3.7328 -1.0480  0.6267
  187MOL0     H25186   0.868   4.266   0.308  2.1815  2.9430 -2.5244
  187MOL0     H25187   0.755   4.317   0.427 -0.3234 -2.1916 -0.2779
  187MOL0     H25188   0.912   4.534   0.271 -0.3483 -0.8193 -2.3684
  187MOL0     H25189   0.757   4.464   0.215  1.3227 -1.1158 -0.5309
  187MOL0     H25190   0.658   4.512   0.448  0.8728 -0.3182  1.1858
  187MOL0     H25191   0.800   4.598   0.484  0.1583 -2.6347  0.5401
  187MOL0     H25192   0.707   4.709   0.232 -1.7474  0.7804  0.3621
  187MOL0     H25193   0.740   4.778   0.387 -1.2976  1.2561  0.4478
  187MOL0     H25194   0.468   4.651   0.353 -0.6730  0.1131  1.2767
  187MOL0     H25195   0.523   4.792   0.444 -0.4435  1.5806 -1.3188
  187MOL0     H25196   0.566   5.014   0.324 -1.2490  1.9823 -0.5231
  187MOL0     H25197   0.361   5.205   0.165  1.3337  0.0613  3.4424
  187MOL0     H25198   0.534   5.180   0.181 -0.3320 -1.7033  1.1234
  187MOL0     H25199   0.366   5.157  -0.064 -0.6067  1.6440  2.4891
  187MOL0     H25200   0.468   5.305  -0.032 -0.0272 -0.2581  1.6876
  187MOL0     H25201   0.594   5.025  -0.076 -2.1747  0.0482 -1.3439
  187MOL0     H25202   0.659   5.188  -0.069 -0.6938  2.6417 -0.1091
  187MOL0     H25203   0.469   5.064  -0.266 -2.1662  2.5204 -0.6300
  187MOL0     H25204   0.630   5.087  -0.304  0.3863 -0.7885  0.6677
  187MOL0     H25205   0.428   5.504  -0.356 -1.4063  0.9571  3.8329
  187MOL0     H25206   0.595   5.699  -0.385 -0.0301 -1.1655 -1.8616
  187MOL0     H25207   1.044   5.776  -0.574 -1.8493  2.5411 -0.6320
  187MOL0     H25208   1.196   5.947  -0.610 -0.8152 -0.4328  0.4246
  187MOL0     H25209   1.255   6.158  -0.297 -1.5298  3.0133 -1.8679
  187MOL0     H25210   1.435   6.161  -0.279  0.0925  2.7066  0.4392
  187MOL0     H25211   1.465   6.327  -0.449  0.5397  1.8470  0.1837
  187MOL0     H25212   1.301   6.285  -0.505 -0.6565 -0.4452  0.9285
  187MOL0     H25213   1.222   6.375  -0.266  1.8108  0.7215  2.7303
  187MOL0     H25214   1.386   6.458  -0.266  0.1650  2.8400 -2.0553
  187MOL0     H25215   1.174   6.490  -0.475  0.2026 -1.5011  0.3340
  187MOL0     H25216   1.333   6.563  -0.473 -0.0154 -0.7942 -2.2794
  187MOL0     H25217   1.282   6.703  -0.287 -0.0512  1.9399 -0.0692
  187MOL0     H25218   1.125   6.626  -0.266  1.4778 -1.3109 -0.2907
  187MOL0     H25219   1.145   6.840  -0.392  2.3976  0.1117 -0.6694
  187MOL0     H25220   1.159   6.734  -0.539  1.7177 -1.0883  0.5628
  187MOL0     H25221   0.935   6.760  -0.342 -1.0169  1.4667  0.0259
  187MOL0     H25222   0.949   6.613  -0.431 -1.9039  0.3102  0.3430
  187MOL0     H25223   0.928   6.735  -0.646 -0.2105  0.3963  0.2206
  187MOL0     H25224   0.789   6.749  -0.532 -0.1502 -2.8381  0.0049
  187MOL0     H25225   1.344   5.929  -0.209 -2.2959  2.8954  0.7645
  187MOL0     H25226   1.214   5.727  -0.168  2.8592 -0.8751 -0.1917
  187MOL0     H25227   0.913   5.433  -0.329 -0.3352  0.5346 -0.0910
  187MOL0     H25228   0.770   5.250  -0.304 -0.2714 -0.3205  3.1848
  187MOL0     H25229   1.445   4.254   0.492 -1.0030 -0.7648 -1.4732
  187MOL0     H25230   1.647   4.095   0.519 -0.4544 -0.2781 -0.3618
  187MOL0     H25231   1.508   3.522   0.469 -0.2058 -2.3998 -1.2946
  187MOL0     H25232   1.615   3.287   0.486  1.4818 -1.1957 -1.4889
  187MOL0     H25233   1.758   3.218   0.377 -1.8316  0.9318  1.8153
  187MOL0     H25234   1.741   3.094   0.508  1.1784 -1.1986 -1.0266
  187MOL0     H25235   1.999   3.137   0.339  1.7489 -2.2029 -0.8040
  187MOL0     H25236   1.863   3.027   0.292 -2.9452  0.6382  1.5452
  187MOL0     H25237   1.921   2.903   0.503 -0.2872  0.1929  0.7893
  187MOL0     H25238   2.054   3.008   0.537 -0.0461  1.0862 -1.1169
  187MOL0     H25239   2.039   2.828   0.292 -0.6603  1.3830 -0.6931
  187MOL0     H25240   2.151   2.965   0.315 -1.0677 -0.5867 -1.2668
  187MOL0     H25241   2.351   2.679   0.538  0.1561 -0.0991 -0.5190
  187MOL0     H25242   1.963   3.460   0.653  0.5370 -1.1139 -1.0540
  187MOL0     H25243   1.996   3.666   0.684  1.2469  2.3423 -0.6421
  187MOL0     H25244   1.934   3.788   0.578  1.1761 -0.2742 -0.9358
  187MOL0     H25245   1.856   3.757   0.741  0.7789 -0.9336 -0.0257
  188MOL0     O25246   4.892   6.250   9.725 -0.6857 -0.1282  0.2103
  188MOL0     C25247   4.920   6.240   9.605 -0.2183  0.7132 -0.4236
  188MOL0     O25248   5.042   6.211   9.557  0.0679  0.3983 -0.0723
  188MOL0     C25249   5.146   6.213   9.651 -0.9962 -1.1563  0.5582
  188MOL0     C25250   5.172   6.102   9.726 -0.3123  0.5592  0.0313
  188MOL0     C25251   5.278   6.109   9.820  0.5206  0.3320  0.3992
  188MOL0     C25252   5.356   6.224   9.833 -0.1367  0.8731 -0.6097
  188MOL0     O25253   5.466   6.214   9.915  0.6839 -0.1947 -0.4873
  188MOL0     C25254   5.513   6.329   9.981 -0.3093  0.3627  0.6194
  188MOL0     C25255   5.585   6.282  10.107  0.7259  0.2296  0.3097
  188MOL0     C25256   5.726   6.240  10.084 -0.6394  0.1059  0.5320
  188MOL0     C25257   5.805   6.212  10.209  0.3784 -0.6314 -0.0186
  188MOL0     C25258   5.949   6.154  10.191  0.5771 -0.7309 -0.6528
  188MOL0     C25259   6.013   6.135  10.333  0.1727 -0.5626 -0.7822
  188MOL0     C25260   6.163   6.125  10.323  0.8485 -0.1250 -0.6230
  188MOL0     C25261   6.217   6.168  10.458 -0.1875  0.5629 -0.2540
  188MOL0     N25262   6.359   6.156  10.459 -0.2195  0.2973 -0.1181
  188MOL0     C25263   6.437   6.034  10.452  0.6762 -0.1571  0.2369
  188MOL0     C25264   6.563   6.083  10.438  0.3635  1.0217  0.2813
  188MOL0     C25265   6.685   5.990  10.437  1.0782  0.0626 -0.0563
  188MOL0     C25266   6.687   5.888  10.327  0.5438 -0.0195  0.5663
  188MOL0     C25267   6.693   5.966  10.189  0.1560  0.4432  0.1487
  188MOL0     C25268   6.809   6.068  10.171 -0.5065 -0.6807  0.1339
  188MOL0     O25269   6.929   5.998  10.149 -0.6418  0.3230 -0.0562
  188MOL0     C25270   7.041   6.067  10.112 -0.1203  0.3020  0.2337
  188MOL0     C25271   7.048   6.204  10.106 -0.5301 -0.3488  0.4051
  188MOL0     C25272   7.165   6.269  10.057  0.6590  0.4933  0.2446
  188MOL0     C25273   7.270   6.200  10.006 -0.2412  0.1516 -0.2511
  188MOL0     C25274   7.401   6.266   9.950 -0.5532 -0.0994  0.1600
  188MOL0     O25275   7.500   6.181   9.898  0.1596 -0.2518 -0.0560
  188MOL0     C25276   7.609   6.246   9.851  0.0770 -1.4133 -0.5256
  188MOL0     C25277   7.652   6.235   9.718  0.1562 -0.0488 -0.8759
  188MOL0     C25278   7.765   6.290   9.671 -0.5069 -0.6628 -0.2109
  188MOL0     C25279   7.847   6.362   9.752  0.2027 -0.6895  0.4418
  188MOL0     O25280   7.971   6.419   9.731 -0.3789  0.1028  0.6170
  188MOL0     C25281   8.078   6.340   9.681 -0.2407 -0.5742 -0.4863
  188MOL0     C25282   8.151   6.288   9.806 -0.5371 -0.3661  0.4492
  188MOL0     C25283   8.216   6.146   9.793  0.5773 -0.4018  0.3730
  188MOL0     C25284   8.324   6.150   9.684  0.0560  0.1671 -0.1999
  188MOL0     C25285   8.396   6.019   9.654 -0.4069 -0.4430  0.4722
  188MOL0     C25286   8.481   5.967   9.766 -0.5886  0.0212 -0.4323
  188MOL0     C25287   8.568   5.861   9.693  0.0757 -0.3478  0.2780
  188MOL0     C25288   8.680   5.812   9.781 -0.9179 -0.0597 -0.2359
  188MOL0    Cl25289   8.789   5.701   9.706 -0.6041 -0.3907 -0.1419
  188MOL0     C25290   7.809   6.378   9.881  1.1223  0.5245 -0.7241
  188MOL0     C25291   7.690   6.323   9.938 -0.0493  0.6073 -0.8532
  188MOL0     O25292   7.402   6.392   9.940  0.4354  0.1210  0.2186
  188MOL0     C25293   7.262   6.063  10.010 -0.0099  0.0757 -0.3976
  188MOL0     C25294   7.154   5.995  10.068  0.2034 -0.8525 -0.4238
  188MOL0     N25295   6.564   6.220  10.433  0.7666 -0.4498 -0.2593
  188MOL0     N25296   6.440   6.262  10.445 -0.7017 -0.2250 -0.9493
  188MOL0     C25297   5.318   6.336   9.766  1.0423 -0.2900  0.5099
  188MOL0     C25298   5.222   6.328   9.670  0.7514  0.3195 -0.4969
  188MOL0     C25299   4.804   6.247   9.515 -0.6022 -0.0301  1.0611
  188MOL0     C25300   4.826   6.236   9.372  0.0226  0.3654 -0.2209
  188MOL0     C25301   4.732   6.258   9.271  1.1449 -0.0154  0.1035
  188MOL0     C25302   4.604   6.292   9.308  0.1947 -0.6646  0.5583
  188MOL0     O25303   4.506   6.320   9.221  0.1796  0.0074 -0.3251
  188MOL0     C25304   4.450   6.221   9.136 -0.4154 -0.1311  0.0806
  188MOL0     C25305   4.323   6.268   9.063 -1.2035  0.4582  0.2834
  188MOL0     C25306   4.201   6.267   9.150  0.2735 -0.4316 -0.1897
  188MOL0     C25307   4.099   6.350   9.065  0.0349  0.4146  0.5290
  188MOL0     C25308   3.965   6.362   9.127 -0.1208  0.4044  0.1051
  188MOL0     C25309   3.848   6.367   9.155  0.2668 -0.9941 -0.5977
  188MOL0     C25310   4.575   6.304   9.447  0.9454  0.3369 -0.2821
  188MOL0     C25311   4.664   6.284   9.553  0.0499  0.9936  0.3329
  188MOL0     C25312   4.629   6.322   9.696 -0.0306  0.1732  0.5316
  188MOL0     H25313   5.103   6.019   9.731  0.4264 -0.0143  1.2344
  188MOL0     H25314   5.299   6.016   9.873  1.0879 -0.1444 -0.6309
  188MOL0     H25315   5.582   6.387   9.919 -2.9439  1.9789 -1.0721
  188MOL0     H25316   5.423   6.387  10.007 -2.0890 -1.8892 -0.1731
  188MOL0     H25317   5.534   6.202  10.163 -0.1785  1.5048  1.3836
  188MOL0     H25318   5.593   6.361  10.183  2.0071  1.3903 -0.9833
  188MOL0     H25319   5.775   6.322  10.032  0.7011 -2.2397 -2.2099
  188MOL0     H25320   5.736   6.156  10.014  0.7259  0.2410  0.5350
  188MOL0     H25321   5.810   6.302  10.270  1.0334  1.4736 -2.9678
  188MOL0     H25322   5.751   6.133  10.261 -0.7741 -0.0032 -0.2220
  188MOL0     H25323   5.948   6.058  10.139 -0.4878 -1.8242  1.2590
  188MOL0     H25324   6.007   6.228  10.135  2.0676 -1.6850 -0.4416
  188MOL0     H25325   5.991   6.227  10.388  0.0724 -1.3877  0.5873
  188MOL0     H25326   5.966   6.044  10.370 -0.4293 -0.4418 -1.2195
  188MOL0     H25327   6.194   6.190  10.240 -2.7605 -2.9591 -4.6882
  188MOL0     H25328   6.188   6.024  10.289  3.1168 -1.0634  3.2178
  188MOL0     H25329   6.193   6.273  10.476 -2.9179 -0.2405  1.3431
  188MOL0     H25330   6.170   6.109  10.538 -1.3900  0.3670 -1.0839
  188MOL0     H25331   6.406   5.931  10.465 -0.8607 -0.0875 -2.2179
  188MOL0     H25332   6.776   6.050  10.428  1.0714 -0.0783 -1.1985
  188MOL0     H25333   6.688   5.939  10.534 -1.6302  1.1429  0.7074
  188MOL0     H25334   6.776   5.826  10.338  1.0106  1.0328  3.6057
  188MOL0     H25335   6.599   5.824  10.342  0.0993 -0.1314 -2.0464
  188MOL0     H25336   6.602   6.021  10.164 -0.4168  0.8565  2.9037
  188MOL0     H25337   6.706   5.885  10.117  0.5059  0.1234  0.5652
  188MOL0     H25338   6.824   6.136  10.255 -0.6652 -1.7590  1.0563
  188MOL0     H25339   6.787   6.132  10.084 -1.4545 -0.2784  0.6520
  188MOL0     H25340   6.970   6.265  10.150 -0.1837 -0.6260  1.4467
  188MOL0     H25341   7.165   6.377  10.064 -0.4390  0.4305  1.7598
  188MOL0     H25342   7.581   6.188   9.650 -3.5570 -0.7200  3.0436
  188MOL0     H25343   7.795   6.302   9.568 -3.8618 -0.1589 -1.2541
  188MOL0     H25344   8.036   6.264   9.615  4.0954 -0.8450 -3.3085
  188MOL0     H25345   8.134   6.413   9.621  2.0945 -0.6433  1.4619
  188MOL0     H25346   8.236   6.357   9.808 -2.1646  1.7655  0.0037
  188MOL0     H25347   8.098   6.301   9.901  0.6610 -1.9126  1.3879
  188MOL0     H25348   8.259   6.115   9.888  0.2654  0.7479  0.9116
  188MOL0     H25349   8.134   6.078   9.768 -2.0369  0.5942  5.1200
  188MOL0     H25350   8.385   6.238   9.706 -1.1258  0.7854  0.6973
  188MOL0     H25351   8.281   6.173   9.587 -2.3970 -3.0975 -0.0631
  188MOL0     H25352   8.457   6.039   9.565 -1.2774  0.3441  0.0276
  188MOL0     H25353   8.327   5.939   9.625  1.6220 -2.5486  1.1753
  188MOL0     H25354   8.547   6.045   9.805  0.0596 -0.9275  0.4261
  188MOL0     H25355   8.437   5.912   9.849 -0.0047 -3.8576 -2.4838
  188MOL0     H25356   8.603   5.909   9.601 -0.1694 -0.9512 -0.1448
  188MOL0     H25357   8.518   5.769   9.660  1.5779 -0.8184 -0.7901
  188MOL0     H25358   8.750   5.890   9.814  0.4588 -0.8971 -1.0817
  188MOL0     H25359   8.637   5.760   9.867  0.0207 -2.0440 -0.9144
  188MOL0     H25360   7.872   6.430   9.953 -0.0062 -1.4723  1.8839
  188MOL0     H25361   7.678   6.319  10.046 -2.0435 -3.2035 -1.0524
  188MOL0     H25362   7.344   6.005   9.970 -0.6175 -0.4583 -0.8718
  188MOL0     H25363   7.158   5.886  10.059  0.1980 -1.0262  1.2952
  188MOL0     H25364   5.377   6.426   9.781 -0.0067  0.0791  3.0029
  188MOL0     H25365   5.190   6.415   9.613  0.7729  1.4237  1.0993
  188MOL0     H25366   4.926   6.213   9.338  0.5545 -0.8927  1.9977
  188MOL0     H25367   4.761   6.265   9.167 -0.3431  1.2574 -0.2497
  188MOL0     H25368   4.426   6.137   9.203  1.8881  1.0526  2.5622
  188MOL0     H25369   4.524   6.184   9.065 -0.3924  2.0150 -1.0693
  188MOL0     H25370   4.303   6.209   8.973  1.4363 -0.3673  0.1768
  188MOL0     H25371   4.345   6.372   9.036  1.5847 -0.7625 -2.9112
  188MOL0     H25372   4.219   6.307   9.250 -0.9777  2.8750 -1.1522
  188MOL0     H25373   4.156   6.168   9.160 -0.5297 -0.2526 -1.7563
  188MOL0     H25374   4.135   6.453   9.056 -0.8729  0.6381 -0.8236
  188MOL0     H25375   4.097   6.309   8.964  0.4058  0.9473  0.2998
  188MOL0     H25376   3.747   6.373   9.190  0.1182  1.0255 -1.2132
  188MOL0     H25377   4.469   6.316   9.464  0.8856 -1.7545  1.3057
  188MOL0     H25378   4.694   6.400   9.735 -0.6894  0.8812  0.2475
  188MOL0     H25379   4.527   6.362   9.707  0.3902  0.5866  4.6933
  188MOL0     H25380   4.634   6.232   9.759  0.1383  0.8272  1.4830
  189MOL0     O25381   1.334   1.234   0.626 -0.4014  0.0932 -0.2192
  189MOL0     C25382   1.324   1.301   0.725  0.3469 -0.0154 -0.2703
  189MOL0     O25383   1.420   1.386   0.768 -0.2546  0.7073 -0.2739
  189MOL0     C25384   1.508   1.434   0.673  0.2688 -0.2608 -0.0410
  189MOL0     C25385   1.638   1.382   0.662  0.0923 -1.0641  0.6521
  189MOL0     C25386   1.716   1.428   0.560 -0.0082 -0.2635  0.2431
  189MOL0     C25387   1.679   1.532   0.473  0.1990 -0.6193 -1.3316
  189MOL0     O25388   1.771   1.572   0.383 -0.0155 -0.5396  0.4487
  189MOL0     C25389   1.727   1.655   0.276  0.2796  0.2684 -1.6488
  189MOL0     C25390   1.837   1.707   0.188  0.4365  0.1439 -0.2187
  189MOL0     C25391   1.792   1.790   0.077 -0.5024 -0.7059  0.2025
  189MOL0     C25392   1.766   1.707  -0.050  0.1966 -0.9537  0.1218
  189MOL0     C25393   1.707   1.801  -0.162 -0.6481 -0.6649  0.2910
  189MOL0     C25394   1.816   1.879  -0.216  0.3749  0.3766 -0.2768
  189MOL0     C25395   1.754   1.956  -0.333 -0.8732 -0.1938  0.1716
  189MOL0     C25396   1.847   2.051  -0.417 -0.5235  0.0987  0.2577
  189MOL0     N25397   1.957   1.980  -0.480 -0.4641 -0.5996  0.0741
  189MOL0     C25398   2.080   1.965  -0.427  0.2196 -0.3011  0.2639
  189MOL0     C25399   2.152   1.923  -0.524 -0.3530 -0.1997  0.7080
  189MOL0     C25400   2.294   1.894  -0.501 -0.5413 -0.6944  0.0031
  189MOL0     C25401   2.383   2.018  -0.497  1.0316  0.3364  0.5060
  189MOL0     C25402   2.527   1.999  -0.453 -0.0219 -0.0894  1.4759
  189MOL0     C25403   2.618   2.124  -0.499  0.0518 -0.3153  0.5620
  189MOL0     O25404   2.741   2.127  -0.429  0.0586 -0.2344  0.2009
  189MOL0     C25405   2.846   2.047  -0.463 -0.3870 -0.4317 -0.0558
  189MOL0     C25406   2.847   1.955  -0.573  0.5258 -0.2704 -0.3395
  189MOL0     C25407   2.951   1.875  -0.600 -0.4228 -0.0503 -0.5542
  189MOL0     C25408   3.065   1.884  -0.526 -0.2937 -0.1981 -0.3632
  189MOL0     C25409   3.187   1.800  -0.563 -0.4222 -0.3292 -0.0270
  189MOL0     O25410   3.304   1.781  -0.481 -0.6388 -0.3507  0.0206
  189MOL0     C25411   3.389   1.712  -0.547 -0.5954 -0.0157  0.5440
  189MOL0     C25412   3.471   1.765  -0.645 -0.7181  0.3383 -0.0286
  189MOL0     C25413   3.571   1.691  -0.710 -0.1130  0.4756 -0.0254
  189MOL0     C25414   3.591   1.551  -0.674  0.3863 -0.5969  1.0893
  189MOL0     O25415   3.670   1.488  -0.760 -0.4895 -0.7422  0.3320
  189MOL0     C25416   3.706   1.357  -0.713 -0.3969 -0.9581  0.1397
  189MOL0     C25417   3.801   1.293  -0.813 -0.0899 -0.3693  0.0485
  189MOL0     C25418   3.760   1.288  -0.962 -0.0179 -0.1308 -1.6445
  189MOL0     C25419   3.873   1.269  -1.055 -0.3358 -0.7236  0.0056
  189MOL0     C25420   3.839   1.224  -1.194  0.2403 -0.1193 -0.3948
  189MOL0     C25421   3.961   1.189  -1.282  0.3045  0.1920  0.0094
  189MOL0     C25422   3.924   1.156  -1.423  1.0462 -0.0128  0.4563
  189MOL0     C25423   4.053   1.151  -1.505 -0.4971  0.3326 -0.9105
  189MOL0    Cl25424   4.011   1.129  -1.675 -0.0129  0.2384 -0.3312
  189MOL0     C25425   3.522   1.500  -0.565  0.1425 -0.4324  0.3839
  189MOL0     C25426   3.418   1.581  -0.503  0.4241 -0.2729 -0.6017
  189MOL0     O25427   3.167   1.745  -0.671 -0.0694 -0.1320 -0.1693
  189MOL0     C25428   3.070   1.973  -0.415 -0.2915  0.5136  0.4845
  189MOL0     C25429   2.964   2.054  -0.386  0.3499 -0.2451  0.1871
  189MOL0     N25430   2.080   1.926  -0.644  0.3749  0.0157 -0.1937
  189MOL0     N25431   1.957   1.956  -0.614 -0.5988 -0.2418 -0.0611
  189MOL0     C25432   1.547   1.581   0.488  0.1738 -0.0105  0.5709
  189MOL0     C25433   1.460   1.534   0.589 -0.1024  0.1154  0.5136
  189MOL0     C25434   1.196   1.296   0.804  0.3935 -0.0959  0.3197
  189MOL0     C25435   1.203   1.290   0.942 -0.7854 -0.1341 -0.5030
  189MOL0     C25436   1.091   1.280   1.023 -0.2417  0.1391 -0.7637
  189MOL0     C25437   0.963   1.266   0.975 -0.7222 -1.1057 -0.5176
  189MOL0     O25438   0.861   1.254   1.061  0.0640  0.6797  0.6659
  189MOL0     C25439   0.749   1.183   1.024 -0.2057 -0.3375  0.9804
  189MOL0     C25440   0.679   1.123   1.149  0.2140 -1.2243  0.4791
  189MOL0     C25441   0.753   1.000   1.188  0.2570 -0.5362  0.6708
  189MOL0     C25442   0.698   0.948   1.317 -0.4664 -0.0821 -0.1481
  189MOL0     C25443   0.766   0.827   1.368  0.5010  0.2895  0.0150
  189MOL0     C25444   0.823   0.730   1.417 -0.4851 -0.5536 -0.1042
  189MOL0     C25445   0.952   1.276   0.840 -0.2575 -0.2445  0.7260
  189MOL0     C25446   1.064   1.301   0.753 -0.1162 -0.2990  0.4064
  189MOL0     C25447   1.036   1.312   0.611 -0.2904  0.4337 -0.0878
  189MOL0     H25448   1.682   1.315   0.735  2.0763 -0.0259  0.4716
  189MOL0     H25449   1.816   1.387   0.544  1.3396  3.3638 -1.7639
  189MOL0     H25450   1.650   1.606   0.216 -3.1480  3.4514 -0.2512
  189MOL0     H25451   1.672   1.735   0.327  0.4548 -1.5116  1.5416
  189MOL0     H25452   1.886   1.619   0.145  0.3885 -0.6058  1.2020
  189MOL0     H25453   1.908   1.759   0.253  2.5910 -0.4754 -1.9352
  189MOL0     H25454   1.862   1.872   0.057 -2.1164  0.5728 -0.4677
  189MOL0     H25455   1.696   1.837   0.101 -2.2478 -2.7399 -2.1935
  189MOL0     H25456   1.852   1.644  -0.076 -0.0413 -1.4161  0.4477
  189MOL0     H25457   1.682   1.639  -0.037 -2.8024  2.1532 -1.3688
  189MOL0     H25458   1.658   1.740  -0.238 -4.6542  1.2547  1.1132
  189MOL0     H25459   1.620   1.854  -0.124 -1.6960 -1.6558 -0.6597
  189MOL0     H25460   1.850   1.947  -0.137  0.7685 -0.6957  0.5086
  189MOL0     H25461   1.901   1.814  -0.238  0.9653  0.1163  2.3731
  189MOL0     H25462   1.671   2.010  -0.286 -3.4307 -0.6477 -3.4079
  189MOL0     H25463   1.715   1.880  -0.401  0.2603 -0.5110 -0.1400
  189MOL0     H25464   1.779   2.091  -0.493 -1.2805 -0.5585  0.5716
  189MOL0     H25465   1.878   2.137  -0.357 -1.1442 -1.0371  2.3496
  189MOL0     H25466   2.101   1.972  -0.321 -0.4566  0.9047  0.3359
  189MOL0     H25467   2.308   1.827  -0.415 -2.1487 -0.8007  0.2192
  189MOL0     H25468   2.322   1.835  -0.588 -1.7255 -2.2532  0.6082
  189MOL0     H25469   2.386   2.055  -0.600 -1.1519 -0.2521  0.1968
  189MOL0     H25470   2.341   2.094  -0.430  1.6185  0.9754  0.1580
  189MOL0     H25471   2.565   1.912  -0.507 -0.6968  0.1654  0.5762
  189MOL0     H25472   2.536   1.966  -0.349  1.5529 -1.6171  0.9114
  189MOL0     H25473   2.568   2.220  -0.481  1.8960  1.2371 -1.9291
  189MOL0     H25474   2.630   2.132  -0.608  1.1478  0.8721  0.7410
  189MOL0     H25475   2.772   1.946  -0.650 -0.0338 -1.3129  0.3030
  189MOL0     H25476   2.952   1.805  -0.683  1.2633 -0.4970 -0.2032
  189MOL0     H25477   3.470   1.872  -0.664 -1.1193  1.2933  4.4349
  189MOL0     H25478   3.628   1.739  -0.789 -1.8749 -0.3984 -1.9218
  189MOL0     H25479   3.762   1.357  -0.619 -0.8419  0.4110  0.4263
  189MOL0     H25480   3.614   1.298  -0.713  0.0296 -1.9101 -3.5439
  189MOL0     H25481   3.898   1.343  -0.805  1.4146 -2.7634 -1.7369
  189MOL0     H25482   3.826   1.190  -0.787  0.6992 -0.9819 -2.7801
  189MOL0     H25483   3.689   1.207  -0.982 -1.2672 -0.5838  3.2042
  189MOL0     H25484   3.725   1.389  -0.984  3.2360  1.5174  0.0309
  189MOL0     H25485   3.938   1.196  -1.006  1.8113  0.0927 -1.4929
  189MOL0     H25486   3.941   1.355  -1.059  1.2014 -1.8338  0.9451
  189MOL0     H25487   3.770   1.300  -1.232 -0.2527  0.0103  0.7183
  189MOL0     H25488   3.780   1.132  -1.180 -0.6377  0.0300 -2.6899
  189MOL0     H25489   4.025   1.278  -1.276 -0.6719  0.8324  1.8773
  189MOL0     H25490   4.015   1.109  -1.230  1.6440  1.3410  0.4675
  189MOL0     H25491   3.852   1.224  -1.469  2.6000  2.1324  1.0691
  189MOL0     H25492   3.874   1.058  -1.428  1.4455 -0.1589 -1.7756
  189MOL0     H25493   4.115   1.239  -1.485 -1.1604  0.2210  2.3341
  189MOL0     H25494   4.114   1.067  -1.471 -1.7051 -0.2667 -0.1735
  189MOL0     H25495   3.540   1.400  -0.528  0.2134 -1.5699 -2.5124
  189MOL0     H25496   3.361   1.550  -0.416  1.0837  1.7510  0.6322
  189MOL0     H25497   3.169   1.984  -0.372  0.7144  0.3975 -1.6847
  189MOL0     H25498   2.970   2.122  -0.301  0.4485  0.6740 -0.5342
  189MOL0     H25499   1.503   1.658   0.424 -0.1952 -2.2613 -2.0709
  189MOL0     H25500   1.355   1.557   0.600  0.1860  1.8490  0.0228
  189MOL0     H25501   1.304   1.281   0.982 -1.1230  0.6180  0.5716
  189MOL0     H25502   1.095   1.273   1.131  0.1100  1.8001 -0.6340
  189MOL0     H25503   0.770   1.099   0.958 -0.4400 -0.0289  0.5033
  189MOL0     H25504   0.676   1.253   0.980 -0.7130  0.8794  3.5787
  189MOL0     H25505   0.578   1.089   1.126  1.0411 -2.0486 -2.2921
  189MOL0     H25506   0.683   1.200   1.227  1.7317 -0.5040 -0.2431
  189MOL0     H25507   0.858   1.025   1.204 -0.1442  1.0669  0.9561
  189MOL0     H25508   0.733   0.925   1.111 -2.1327  1.9059 -1.3096
  189MOL0     H25509   0.695   1.023   1.397 -0.2800 -1.8083  1.5762
  189MOL0     H25510   0.593   0.922   1.300 -1.0063  1.9016 -0.0004
  189MOL0     H25511   0.882   0.653   1.463  0.6978  0.8593  0.8472
  189MOL0     H25512   0.851   1.260   0.803 -0.3527  0.8500  0.5013
  189MOL0     H25513   1.079   1.226   0.557  2.8631  1.6633  0.2796
  189MOL0     H25514   0.928   1.303   0.592 -0.3382 -1.5848  0.8464
  189MOL0     H25515   1.077   1.407   0.576 -0.6338  0.4346 -0.5054
  190MOL0     O25516   3.160   2.393   4.459 -0.8511  0.2319 -0.5442
  190MOL0     C25517   3.155   2.518   4.467 -1.1347  0.9387  0.1647
  190MOL0     O25518   3.256   2.596   4.530 -0.3918  0.2875  0.5105
  190MOL0     C25519   3.379   2.535   4.551 -0.4201  1.0141 -0.3590
  190MOL0     C25520   3.478   2.562   4.452 -0.2578 -1.1630 -0.4003
  190MOL0     C25521   3.610   2.500   4.463  1.1258 -0.4279  0.6727
  190MOL0     C25522   3.634   2.417   4.569  0.3966 -0.1311  0.2086
  190MOL0     O25523   3.760   2.366   4.585 -0.7696 -0.3572 -0.1957
  190MOL0     C25524   3.823   2.320   4.463 -0.2011  0.2220 -0.5481
  190MOL0     C25525   3.932   2.212   4.480 -0.0738 -0.9380 -0.1310
  190MOL0     C25526   4.042   2.249   4.571 -0.8049 -0.3483 -0.0500
  190MOL0     C25527   4.137   2.129   4.585 -0.0103  0.3638  0.4276
  190MOL0     C25528   4.265   2.161   4.660 -0.3855 -0.5480  0.0318
  190MOL0     C25529   4.239   2.172   4.815  0.3793 -0.4229 -0.0444
  190MOL0     C25530   4.371   2.212   4.871 -0.0198 -0.5629  0.0611
  190MOL0     C25531   4.362   2.203   5.025  0.6633 -0.3142  0.2819
  190MOL0     N25532   4.486   2.233   5.090 -0.3188  0.3088 -0.1328
  190MOL0     C25533   4.601   2.148   5.110  0.1919  0.2874 -0.0813
  190MOL0     C25534   4.683   2.222   5.188 -0.5100 -1.1046 -0.2124
  190MOL0     C25535   4.822   2.190   5.235  0.2006  0.4314  1.5919
  190MOL0     C25536   4.933   2.210   5.128  0.1491  0.1850  0.2106
  190MOL0     C25537   5.017   2.339   5.134  0.0981  0.5407  0.8548
  190MOL0     C25538   5.139   2.336   5.034  0.1257 -0.4540 -0.4889
  190MOL0     O25539   5.217   2.220   5.071 -0.4309 -0.6148  0.5996
  190MOL0     C25540   5.337   2.210   4.995 -0.0139  0.7318  0.5823
  190MOL0     C25541   5.362   2.265   4.868  0.7548  0.5349  0.4626
  190MOL0     C25542   5.474   2.233   4.797 -0.0285 -0.3398  0.1820
  190MOL0     C25543   5.569   2.139   4.848  0.1955  0.0171  0.3302
  190MOL0     C25544   5.698   2.101   4.779 -0.1218  0.4138  0.6254
  190MOL0     O25545   5.727   2.175   4.672 -0.0129  0.5418 -0.4542
  190MOL0     C25546   5.857   2.169   4.624 -0.4238  0.1991  0.1805
  190MOL0     C25547   5.923   2.287   4.644 -0.4525 -0.4642 -0.2684
  190MOL0     C25548   6.054   2.295   4.602 -0.8588 -0.4739  0.8552
  190MOL0     C25549   6.123   2.192   4.536  0.6547  0.3056  0.3408
  190MOL0     O25550   6.248   2.204   4.490 -0.5402 -0.2734 -0.1973
  190MOL0     C25551   6.261   2.323   4.406 -0.6531 -0.5999 -0.3915
  190MOL0     C25552   6.395   2.296   4.325  0.1681  0.3215  0.5549
  190MOL0     C25553   6.416   2.146   4.284 -0.4275 -0.2795 -0.3841
  190MOL0     C25554   6.518   2.125   4.171  0.2136  0.4802  0.4549
  190MOL0     C25555   6.547   1.978   4.124  0.1401  0.0415 -0.1144
  190MOL0     C25556   6.637   1.983   3.990  0.7376 -0.4888 -0.0149
  190MOL0     C25557   6.592   1.873   3.896  0.2393  0.6355 -0.2410
  190MOL0     C25558   6.689   1.881   3.778  0.1456  0.6127 -0.4352
  190MOL0    Cl25559   6.652   1.778   3.637  0.4714 -0.2079 -0.3663
  190MOL0     C25560   6.057   2.072   4.521  1.1148  0.2273 -0.5852
  190MOL0     C25561   5.929   2.059   4.564  1.4610  0.5418 -0.5893
  190MOL0     O25562   5.772   2.011   4.832  0.4139  0.1930  0.2072
  190MOL0     C25563   5.552   2.099   4.984 -0.0097 -0.0572  0.2448
  190MOL0     C25564   5.443   2.138   5.055 -0.3122 -0.0644 -0.3616
  190MOL0     N25565   4.621   2.344   5.214 -0.2197 -0.5256 -0.3993
  190MOL0     N25566   4.510   2.342   5.164  0.5958 -0.1128  0.3769
  190MOL0     C25567   3.532   2.404   4.668 -0.8207 -0.4717  0.3730
  190MOL0     C25568   3.413   2.456   4.661  0.6750 -0.3214 -0.1009
  190MOL0     C25569   3.040   2.590   4.412 -0.2502  0.7536  0.0505
  190MOL0     C25570   3.029   2.732   4.408 -0.3409  0.8053  0.3725
  190MOL0     C25571   2.909   2.796   4.371  0.2221 -0.5520  0.0358
  190MOL0     C25572   2.789   2.729   4.346  0.6283  0.3917 -0.0602
  190MOL0     O25573   2.673   2.786   4.305 -0.0508  0.2003  0.3368
  190MOL0     C25574   2.650   2.929   4.299  0.0879 -0.3517 -0.4481
  190MOL0     C25575   2.626   2.996   4.440  0.3435 -0.5321  0.1078
  190MOL0     C25576   2.593   3.150   4.434  0.2647 -0.3686  0.3890
  190MOL0     C25577   2.696   3.235   4.514 -0.1417  0.4903 -1.2281
  190MOL0     C25578   2.818   3.259   4.435  0.5294 -0.2498  0.2479
  190MOL0     C25579   2.917   3.300   4.381 -0.4718 -0.9395 -1.0098
  190MOL0     C25580   2.801   2.584   4.336 -0.1768 -0.3137  0.4692
  190MOL0     C25581   2.919   2.514   4.367 -0.1446  0.3423 -0.4745
  190MOL0     C25582   2.900   2.359   4.367  0.4414 -0.4935  0.1475
  190MOL0     H25583   3.460   2.628   4.367  2.5258 -1.1528 -1.0874
  190MOL0     H25584   3.681   2.522   4.385 -0.1885  1.7005 -0.0033
  190MOL0     H25585   3.748   2.260   4.411 -2.4320  0.9667  1.6490
  190MOL0     H25586   3.866   2.401   4.402  2.7816 -0.3624  0.6111
  190MOL0     H25587   3.975   2.206   4.380  0.6168 -1.5017  0.1912
  190MOL0     H25588   3.881   2.120   4.509  1.2025 -1.0244  2.0476
  190MOL0     H25589   4.005   2.279   4.669  1.8911  1.1131  0.5952
  190MOL0     H25590   4.093   2.337   4.530 -1.9354 -0.6398 -2.2929
  190MOL0     H25591   4.079   2.048   4.629 -2.2871 -0.3061 -3.2854
  190MOL0     H25592   4.164   2.085   4.488 -0.9304  0.2070  0.2319
  190MOL0     H25593   4.330   2.078   4.631 -2.3629 -1.8570 -0.9122
  190MOL0     H25594   4.306   2.259   4.632  2.1799 -1.1328  1.4373
  190MOL0     H25595   4.166   2.250   4.840  2.6010  1.5603  0.7122
  190MOL0     H25596   4.196   2.080   4.855  0.2062  0.2270  1.3482
  190MOL0     H25597   4.401   2.312   4.838 -0.6027  0.2857  1.9779
  190MOL0     H25598   4.441   2.133   4.844 -1.5406 -2.5026  1.4993
  190MOL0     H25599   4.286   2.275   5.057  0.4493 -0.3210 -0.2121
  190MOL0     H25600   4.334   2.105   5.064  1.5046 -1.0706 -0.9372
  190MOL0     H25601   4.629   2.052   5.070  0.0248 -0.1145  0.7523
  190MOL0     H25602   4.841   2.263   5.314  2.7992  0.2351  1.2275
  190MOL0     H25603   4.829   2.094   5.287 -0.1619 -0.3459  0.2484
  190MOL0     H25604   5.004   2.130   5.150  2.0320  0.8896 -2.7042
  190MOL0     H25605   4.899   2.181   5.028  0.4172  0.2886  0.0897
  190MOL0     H25606   5.043   2.360   5.238  0.4114 -1.1891  1.1424
  190MOL0     H25607   4.952   2.418   5.095 -1.5947 -1.5249 -0.7530
  190MOL0     H25608   5.189   2.432   5.041  0.4825 -0.6390 -0.4929
  190MOL0     H25609   5.098   2.317   4.934  1.3993 -4.5854 -0.4043
  190MOL0     H25610   5.300   2.343   4.825  0.6688  0.3826  0.3069
  190MOL0     H25611   5.501   2.278   4.702  4.8368 -0.6156  1.1545
  190MOL0     H25612   5.863   2.365   4.691  1.0528  0.3096  0.4375
  190MOL0     H25613   6.100   2.391   4.622 -0.4803 -0.3748 -0.4075
  190MOL0     H25614   6.172   2.327   4.343 -0.7069  0.5145 -0.2643
  190MOL0     H25615   6.267   2.407   4.476 -1.6264 -0.6017 -0.3027
  190MOL0     H25616   6.396   2.363   4.238  1.7218  0.0052  0.2903
  190MOL0     H25617   6.478   2.335   4.385 -1.2160  3.7770  0.4687
  190MOL0     H25618   6.438   2.079   4.368 -1.2904 -0.7468 -0.5135
  190MOL0     H25619   6.321   2.119   4.236 -0.2536 -1.8185  0.0688
  190MOL0     H25620   6.616   2.159   4.206  1.1519  0.2977 -1.8535
  190MOL0     H25621   6.479   2.191   4.093  1.7756  1.7798  0.7239
  190MOL0     H25622   6.459   1.919   4.100  1.6022 -2.2511 -0.1604
  190MOL0     H25623   6.595   1.921   4.204  0.5518 -0.6634 -0.8526
  190MOL0     H25624   6.621   2.079   3.940  0.8870  0.4016  1.5956
  190MOL0     H25625   6.742   1.975   4.020  0.5574 -1.0450  0.4941
  190MOL0     H25626   6.486   1.885   3.874 -0.3867 -1.5867  1.2038
  190MOL0     H25627   6.605   1.775   3.943 -0.4337 -0.0678 -1.4795
  190MOL0     H25628   6.682   1.985   3.745 -0.0024  1.3998  1.9455
  190MOL0     H25629   6.795   1.878   3.807 -0.2722  2.2373  1.4298
  190MOL0     H25630   6.095   1.991   4.460 -0.8951 -0.4562 -0.9902
  190MOL0     H25631   5.868   1.969   4.566 -1.0289  2.0188  3.6020
  190MOL0     H25632   5.626   2.040   5.037  0.6713 -1.7244 -2.4069
  190MOL0     H25633   5.431   2.099   5.155 -0.4429  0.2198 -0.2666
  190MOL0     H25634   3.564   2.344   4.752  1.1045  0.3432  0.2710
  190MOL0     H25635   3.333   2.440   4.733  0.1989 -2.0252 -0.9691
  190MOL0     H25636   3.123   2.782   4.428  0.0871 -0.2430  1.0501
  190MOL0     H25637   2.901   2.904   4.363 -1.4319 -0.5945  0.7329
  190MOL0     H25638   2.562   2.950   4.238 -0.3621 -0.5372  0.1233
  190MOL0     H25639   2.726   2.973   4.235 -2.1000  1.0777 -2.2057
  190MOL0     H25640   2.719   2.982   4.496 -0.8828  0.2851  2.4595
  190MOL0     H25641   2.551   2.944   4.500  3.5173 -0.5380  4.5295
  190MOL0     H25642   2.491   3.171   4.468  0.1949  1.8684 -1.0028
  190MOL0     H25643   2.601   3.177   4.328  3.5475 -0.7288  0.4493
  190MOL0     H25644   2.651   3.330   4.544  1.6184  1.2792 -0.9847
  190MOL0     H25645   2.718   3.190   4.611 -0.0755  1.4831 -0.7754
  190MOL0     H25646   3.012   3.331   4.342  1.4436 -1.0925  2.9486
  190MOL0     H25647   2.715   2.525   4.305  0.0452  0.6147 -2.1967
  190MOL0     H25648   2.802   2.327   4.331  0.9908 -1.2270 -0.7416
  190MOL0     H25649   2.967   2.304   4.300 -2.6234 -1.3794 -2.4643
  190MOL0     H25650   2.924   2.320   4.466  0.8242  3.5172  1.8428
  191MOL0     O25651   1.817   5.723   2.495 -0.0042  0.2286 -0.1536
  191MOL0     C25652   1.729   5.780   2.558 -0.0153  0.0284 -0.4418
  191MOL0     O25653   1.742   5.911   2.607  0.1329 -0.1445  0.5032
  191MOL0     C25654   1.862   5.979   2.600 -0.0745 -0.3855  0.2108
  191MOL0     C25655   1.921   6.002   2.475  0.2517 -0.6377  0.2702
  191MOL0     C25656   2.056   6.042   2.460  0.3293  0.0746 -0.4916
  191MOL0     C25657   2.119   6.088   2.575 -0.8459 -0.3698 -0.7587
  191MOL0     O25658   2.246   6.148   2.560 -0.6950  0.6148 -0.0247
  191MOL0     C25659   2.279   6.229   2.677  0.2263  0.4645 -0.7136
  191MOL0     C25660   2.404   6.307   2.644 -0.0826 -0.1203 -1.0631
  191MOL0     C25661   2.540   6.235   2.641  0.2907  1.1488  0.8260
  191MOL0     C25662   2.654   6.322   2.580 -0.6151 -0.2444 -0.1407
  191MOL0     C25663   2.780   6.252   2.532 -0.0772 -0.1014 -0.0576
  191MOL0     C25664   2.843   6.163   2.641 -0.3684 -0.1844 -0.1804
  191MOL0     C25665   2.898   6.248   2.760  0.0356  0.4328 -0.0360
  191MOL0     C25666   2.954   6.164   2.877 -0.4522 -1.2029 -0.5409
  191MOL0     N25667   2.873   6.053   2.927 -0.3965 -0.1056  0.4639
  191MOL0     C25668   2.773   6.066   3.021 -0.0076 -0.1785 -0.4731
  191MOL0     C25669   2.743   5.942   3.060  0.2457  0.8647  0.7509
  191MOL0     C25670   2.633   5.899   3.154  0.4873 -0.3933  0.3709
  191MOL0     C25671   2.567   5.764   3.122 -0.8574 -0.7285 -0.4347
  191MOL0     C25672   2.491   5.764   2.993 -0.3488 -0.1540  0.0826
  191MOL0     C25673   2.421   5.895   2.941 -0.7333 -0.4384 -0.6585
  191MOL0     O25674   2.309   5.863   2.855 -0.2045 -0.2566  0.3526
  191MOL0     C25675   2.192   5.819   2.912  0.4720 -0.1275  0.2741
  191MOL0     C25676   2.082   5.792   2.828 -0.1231 -0.3941  0.1595
  191MOL0     C25677   1.958   5.736   2.871  0.7413  0.4295  0.4627
  191MOL0     C25678   1.934   5.731   3.006  1.1657  0.0114 -0.5382
  191MOL0     C25679   1.804   5.685   3.067  0.7218 -0.1643  0.2641
  191MOL0     O25680   1.698   5.707   2.980 -0.4738  0.1439  0.3547
  191MOL0     C25681   1.580   5.647   2.992 -0.7286  0.8740  0.3434
  191MOL0     C25682   1.549   5.531   3.067  0.1579 -0.1258 -0.5779
  191MOL0     C25683   1.422   5.476   3.066 -1.1008  0.0458  0.1552
  191MOL0     C25684   1.328   5.536   2.984  0.0182 -0.1195 -0.3391
  191MOL0     O25685   1.200   5.485   2.962 -0.1091  0.4371 -0.2308
  191MOL0     C25686   1.179   5.349   2.981  0.2313 -0.0147 -0.8770
  191MOL0     C25687   1.042   5.312   2.924  0.6218  0.2095 -0.4412
  191MOL0     C25688   0.986   5.183   2.992 -0.0954  0.0556  0.1761
  191MOL0     C25689   0.871   5.128   2.920 -0.3617 -0.1131  0.0247
  191MOL0     C25690   0.780   5.040   3.006  0.4915 -0.1412 -0.9789
  191MOL0     C25691   0.679   4.952   2.926  1.3955  0.0205  0.0574
  191MOL0     C25692   0.636   4.835   3.023 -0.2408 -0.4089  0.1298
  191MOL0     C25693   0.511   4.765   2.967 -0.3946  0.8106  0.6540
  191MOL0    Cl25694   0.411   4.658   3.076 -0.3632  0.1702 -0.0501
  191MOL0     C25695   1.360   5.649   2.912  0.4194 -0.1139 -0.3452
  191MOL0     C25696   1.479   5.708   2.912 -0.5181  0.3088  0.3557
  191MOL0     O25697   1.794   5.655   3.187  0.5395  0.0373 -0.5670
  191MOL0     C25698   2.040   5.766   3.091 -0.0663  0.7714  0.3817
  191MOL0     C25699   2.164   5.798   3.045 -0.9494  0.6089  0.4115
  191MOL0     N25700   2.838   5.856   3.003  0.7192 -0.6850  0.9068
  191MOL0     N25701   2.920   5.923   2.927  0.0353 -0.7605 -0.6035
  191MOL0     C25702   2.044   6.084   2.705 -0.2102 -0.4632 -0.1676
  191MOL0     C25703   1.916   6.030   2.712  0.7919 -0.5578 -0.0550
  191MOL0     C25704   1.605   5.705   2.549 -0.7685  0.7296 -0.4899
  191MOL0     C25705   1.577   5.604   2.639 -0.9070 -0.9028 -0.1082
  191MOL0     C25706   1.476   5.513   2.610  0.2890 -0.0936  0.5495
  191MOL0     C25707   1.395   5.532   2.495  0.8687  0.1706 -0.1541
  191MOL0     O25708   1.289   5.448   2.473 -0.2809  0.2891  0.8589
  191MOL0     C25709   1.179   5.474   2.566 -0.7108  1.2215  0.0596
  191MOL0     C25710   1.045   5.477   2.483  0.3342  0.4114  0.5314
  191MOL0     C25711   1.039   5.581   2.373  0.1632 -0.0200  0.0796
  191MOL0     C25712   0.913   5.601   2.279  0.1263 -0.5972  0.0879
  191MOL0     C25713   0.872   5.479   2.197 -0.0844 -0.0020 -0.0442
  191MOL0     C25714   0.848   5.373   2.134 -0.5807 -0.8168 -0.0498
  191MOL0     C25715   1.415   5.637   2.405 -0.1153 -0.0140  0.6049
  191MOL0     C25716   1.528   5.718   2.433 -0.7073  0.2777  1.0740
  191MOL0     C25717   1.539   5.835   2.333 -0.8259 -0.5202  0.3190
  191MOL0     H25718   1.872   5.973   2.382 -1.3722  2.1951  0.1309
  191MOL0     H25719   2.084   6.065   2.357 -0.0230  1.7480 -0.2469
  191MOL0     H25720   2.196   6.300   2.683 -0.1152  0.4463 -3.7377
  191MOL0     H25721   2.290   6.173   2.771  0.3795  0.4254 -0.7552
  191MOL0     H25722   2.405   6.405   2.694  2.1140 -0.6974  0.1673
  191MOL0     H25723   2.398   6.342   2.540 -0.0946  0.2426 -0.9447
  191MOL0     H25724   2.530   6.141   2.587 -1.6461  1.7038  0.1398
  191MOL0     H25725   2.564   6.200   2.742  1.1655  0.4129  0.3724
  191MOL0     H25726   2.615   6.375   2.492  1.0148  1.1341 -0.0899
  191MOL0     H25727   2.688   6.393   2.656 -1.1473  0.8887 -0.9348
  191MOL0     H25728   2.749   6.189   2.448 -1.4841  1.5347 -0.8398
  191MOL0     H25729   2.848   6.331   2.498 -0.0133 -0.0219  0.2549
  191MOL0     H25730   2.767   6.100   2.689  1.1502 -1.8735  0.1493
  191MOL0     H25731   2.918   6.096   2.598 -2.4950 -3.2631  0.5329
  191MOL0     H25732   2.822   6.312   2.806 -0.6427  0.9421 -1.7822
  191MOL0     H25733   2.979   6.314   2.728  0.0551  2.1239  3.1123
  191MOL0     H25734   3.053   6.126   2.854  0.0242 -0.3492  0.0386
  191MOL0     H25735   2.975   6.232   2.960  3.1304 -0.0806 -2.1684
  191MOL0     H25736   2.729   6.162   3.047  2.9007  1.3336 -0.6369
  191MOL0     H25737   2.677   5.895   3.254  1.4942 -1.7095 -0.1007
  191MOL0     H25738   2.553   5.973   3.167  3.5624  3.0654  1.5728
  191MOL0     H25739   2.645   5.688   3.131 -0.7471 -0.5673  0.0044
  191MOL0     H25740   2.503   5.761   3.210 -0.1135  5.5205  0.7983
  191MOL0     H25741   2.418   5.684   3.006 -0.6884  0.4714  2.3680
  191MOL0     H25742   2.563   5.742   2.913 -3.1221 -0.0391 -2.6195
  191MOL0     H25743   2.497   5.952   2.887 -0.7141  0.0759 -0.1003
  191MOL0     H25744   2.394   5.961   3.024 -3.2398  0.3550 -1.9855
  191MOL0     H25745   2.112   5.806   2.724 -0.1048  1.6371  0.4097
  191MOL0     H25746   1.884   5.709   2.795  1.3553  0.2851 -0.0924
  191MOL0     H25747   1.627   5.487   3.128 -1.5434 -0.2686  1.6117
  191MOL0     H25748   1.402   5.388   3.126 -1.7792  0.0017 -0.1242
  191MOL0     H25749   1.253   5.289   2.928 -0.2405  0.5306 -2.1915
  191MOL0     H25750   1.183   5.330   3.089  1.2527  2.3334 -0.4616
  191MOL0     H25751   0.980   5.399   2.950  0.6249 -0.3324  1.5754
  191MOL0     H25752   1.050   5.297   2.816 -0.8746 -0.2053 -0.5154
  191MOL0     H25753   1.059   5.103   3.007  0.1558  0.6470  2.3759
  191MOL0     H25754   0.963   5.197   3.098  2.1192 -3.0134  1.1905
  191MOL0     H25755   0.910   5.057   2.846 -3.1539 -1.0173 -0.6977
  191MOL0     H25756   0.820   5.209   2.867  4.3573  1.3019 -3.0076
  191MOL0     H25757   0.718   5.101   3.072 -1.4004  0.9035 -3.5357
  191MOL0     H25758   0.850   4.976   3.061  1.3555  0.2331 -1.6042
  191MOL0     H25759   0.597   5.022   2.905  2.5926  1.0631 -1.3764
  191MOL0     H25760   0.721   4.921   2.831  0.4996 -0.2279 -0.2706
  191MOL0     H25761   0.611   4.869   3.124  2.0267  0.8306  0.3354
  191MOL0     H25762   0.721   4.766   3.032 -0.6507 -1.0891 -1.0202
  191MOL0     H25763   0.443   4.834   2.916 -1.4995 -1.7772 -1.6245
  191MOL0     H25764   0.541   4.695   2.890 -0.6179  1.1406  0.2629
  191MOL0     H25765   1.287   5.697   2.848 -1.8386 -0.4147  1.8609
  191MOL0     H25766   1.505   5.794   2.851 -1.4121 -0.2741 -0.8835
  191MOL0     H25767   2.021   5.772   3.198  1.7234 -0.3236  0.7995
  191MOL0     H25768   2.241   5.827   3.115 -0.7762 -1.2978  1.0865
  191MOL0     H25769   2.084   6.110   2.802 -1.1793  0.7750 -0.0811
  191MOL0     H25770   1.866   6.023   2.808  1.1560  2.2247  0.4396
  191MOL0     H25771   1.634   5.588   2.730 -1.5833 -1.2923  0.2529
  191MOL0     H25772   1.452   5.433   2.679 -0.8440  1.4098  1.9638
  191MOL0     H25773   1.199   5.563   2.627  0.8402 -1.4237  3.7910
  191MOL0     H25774   1.170   5.395   2.642  1.8193  1.3690  0.5833
  191MOL0     H25775   0.968   5.497   2.558  0.4072  1.3276  0.3635
  191MOL0     H25776   1.021   5.381   2.436  0.4443  0.5063  0.2776
  191MOL0     H25777   1.122   5.565   2.304 -0.3889  1.8626 -1.0760
  191MOL0     H25778   1.073   5.674   2.419 -1.1166  0.0199  1.0171
  191MOL0     H25779   0.825   5.631   2.337 -0.3693  3.1978 -2.2927
  191MOL0     H25780   0.937   5.686   2.215  0.3486 -0.6308  0.1288
  191MOL0     H25781   0.810   5.291   2.076  1.1649 -2.1741  0.6376
  191MOL0     H25782   1.363   5.641   2.310 -0.3890 -2.5001  0.5742
  191MOL0     H25783   1.589   5.802   2.242 -2.3489  3.6975 -2.3748
  191MOL0     H25784   1.447   5.883   2.298 -0.5070  1.0605  1.5186
  191MOL0     H25785   1.598   5.919   2.370  1.1312 -1.1079 -1.2747
  192MOL0     O25786   5.324  10.105  10.601  0.1454 -0.3277  0.0501
  192MOL0     C25787   5.365   9.993  10.617 -0.5771  0.5471  0.1501
  192MOL0     O25788   5.496   9.954  10.619 -0.0450  0.0868  0.1397
  192MOL0     C25789   5.604  10.039  10.589  0.1762 -0.1563 -0.5933
  192MOL0     C25790   5.596  10.166  10.524 -0.4441  0.0102 -0.0567
  192MOL0     C25791   5.718  10.241  10.502  1.0208  0.0086 -0.9162
  192MOL0     C25792   5.840  10.207  10.546  0.9128 -0.0947 -0.6448
  192MOL0     O25793   5.939  10.287  10.496  0.4125  0.7085 -0.0986
  192MOL0     C25794   5.988  10.365  10.596  0.6117 -1.3341 -1.1415
  192MOL0     C25795   6.121  10.440  10.562 -0.7664 -0.2538  0.3596
  192MOL0     C25796   6.229  10.344  10.513  0.0527 -0.1400  0.4421
  192MOL0     C25797   6.358  10.423  10.487  0.0303  0.6011  0.4873
  192MOL0     C25798   6.460  10.334  10.414 -0.2987  0.0482 -0.3700
  192MOL0     C25799   6.592  10.415  10.392 -0.5653  0.4055 -0.5971
  192MOL0     C25800   6.709  10.326  10.371 -0.3910  0.7213 -0.7856
  192MOL0     C25801   6.850  10.390  10.337 -0.8455  0.3735 -0.4711
  192MOL0     N25802   6.830  10.481  10.229 -0.2598  0.5076  0.7861
  192MOL0     C25803   6.854  10.467  10.091  0.2922  0.0874  0.1372
  192MOL0     C25804   6.830  10.595  10.045 -0.2912  0.1411  0.0608
  192MOL0     C25805   6.839  10.626   9.899 -0.3165 -0.0597 -0.4130
  192MOL0     C25806   6.978  10.692   9.874  0.1802  0.8120  0.5652
  192MOL0     C25807   7.004  10.729   9.720  0.5237  0.4330  0.0517
  192MOL0     C25808   7.147  10.793   9.700 -0.0102  0.5611 -0.4023
  192MOL0     O25809   7.179  10.754   9.567 -0.9675  0.1569  0.3257
  192MOL0     C25810   7.303  10.798   9.513  0.0632 -0.4896 -0.3964
  192MOL0     C25811   7.396  10.877   9.582 -0.3405  0.2242  1.2158
  192MOL0     C25812   7.503  10.931   9.512  0.0168  0.1802 -0.0880
  192MOL0     C25813   7.528  10.894   9.377  1.0624 -0.2714  0.4738
  192MOL0     C25814   7.641  10.949   9.301  0.3162  0.6077  0.1798
  192MOL0     O25815   7.740  11.010   9.379  0.4276  0.8176 -0.5922
  192MOL0     C25816   7.856  11.041   9.311  0.7858 -0.1240 -0.4865
  192MOL0     C25817   7.899  11.174   9.318 -0.0765  0.5546  0.6449
  192MOL0     C25818   8.003  11.217   9.238  0.6596  0.2229 -0.5328
  192MOL0     C25819   8.078  11.124   9.167 -0.8190 -0.9913  0.4923
  192MOL0     O25820   8.188  11.161   9.092  0.2734 -0.8168 -0.7043
  192MOL0     C25821   8.219  11.301   9.060  0.8843 -0.0154 -0.4732
  192MOL0     C25822   8.294  11.297   8.928  0.2629 -1.3488  0.1090
  192MOL0     C25823   8.425  11.224   8.944 -0.0076 -0.3429  0.4248
  192MOL0     C25824   8.531  11.285   8.840 -0.0529  0.0545 -0.4455
  192MOL0     C25825   8.670  11.240   8.849  0.6507  0.4743  0.5738
  192MOL0     C25826   8.744  11.300   8.734 -0.1313  0.0317  0.1946
  192MOL0     C25827   8.890  11.248   8.714  0.6204 -0.5658 -0.0569
  192MOL0     C25828   8.989  11.261   8.826 -0.6065 -0.3183 -0.1472
  192MOL0    Cl25829   9.015  11.435   8.881  0.0046  0.2790  0.0259
  192MOL0     C25830   8.035  10.990   9.156  0.4139 -0.2136 -0.5869
  192MOL0     C25831   7.924  10.954   9.227  0.1693  0.6686 -0.6083
  192MOL0     O25832   7.628  10.956   9.180  0.2829  0.3273  0.2839
  192MOL0     C25833   7.427  10.815   9.311  0.2292 -0.0482  0.6245
  192MOL0     C25834   7.316  10.773   9.386  0.0785  0.4126 -0.5694
  192MOL0     N25835   6.786  10.674  10.143 -0.5825 -0.5136 -0.5460
  192MOL0     N25836   6.787  10.606  10.252  0.3168 -0.0645 -0.6652
  192MOL0     C25837   5.849  10.081  10.608 -0.1619  0.2242  0.3245
  192MOL0     C25838   5.736   9.998  10.633 -0.3033 -0.6013  0.5617
  192MOL0     C25839   5.272   9.883  10.622 -1.1395  0.8373 -0.8604
  192MOL0     C25840   5.301   9.768  10.552 -0.5786  0.9492  0.4824
  192MOL0     C25841   5.210   9.665  10.547  0.0851 -0.5501 -0.6705
  192MOL0     C25842   5.092   9.666  10.617  0.8925 -0.0063 -0.4949
  192MOL0     O25843   5.002   9.562  10.625 -0.7833 -0.3330  0.0368
  192MOL0     C25844   4.870   9.590  10.562  0.1624 -0.3251  0.2364
  192MOL0     C25845   4.758   9.628  10.652  0.9699 -0.3236 -0.0950
  192MOL0     C25846   4.617   9.648  10.582 -0.6716  0.4869 -0.5093
  192MOL0     C25847   4.516   9.543  10.624 -0.3776  0.5652  0.9980
  192MOL0     C25848   4.544   9.409  10.575 -0.3378 -0.5989  1.2301
  192MOL0     C25849   4.579   9.298  10.555 -0.0379 -1.0153  0.9495
  192MOL0     C25850   5.062   9.777  10.687 -0.8220 -0.4049  0.0147
  192MOL0     C25851   5.150   9.890  10.691  0.3984  0.2598 -0.1911
  192MOL0     C25852   5.109  10.014  10.771  0.8576  0.2519 -0.0938
  192MOL0     H25853   5.494  10.196  10.504  0.0638  3.0714  1.5186
  192MOL0     H25854   5.714  10.327  10.436  1.1054  1.1330  0.4887
  192MOL0     H25855   5.913  10.442  10.619  0.8589 -1.0867 -1.1642
  192MOL0     H25856   6.015  10.304  10.683  1.0248 -0.7353 -0.8436
  192MOL0     H25857   6.152  10.493  10.652  0.6087 -1.1011  0.4034
  192MOL0     H25858   6.106  10.519  10.487  0.4073 -0.8903 -0.5766
  192MOL0     H25859   6.191  10.302  10.420 -1.8746  1.9362  0.2032
  192MOL0     H25860   6.251  10.265  10.586  3.2570  0.7926  0.6506
  192MOL0     H25861   6.335  10.515  10.434 -0.6127  1.6625  2.4888
  192MOL0     H25862   6.386  10.456  10.588 -0.9521 -2.8086  2.0113
  192MOL0     H25863   6.482  10.252  10.483 -2.7411  0.7076  1.3397
  192MOL0     H25864   6.415  10.285  10.327 -1.9696 -2.5155  1.7955
  192MOL0     H25865   6.573  10.475  10.302 -1.9893  2.0727  0.7343
  192MOL0     H25866   6.606  10.482  10.478  1.3687  0.3744 -0.8364
  192MOL0     H25867   6.683  10.258  10.290  0.3124 -0.8210  0.2432
  192MOL0     H25868   6.718  10.265  10.461  2.0330  2.6078  0.3907
  192MOL0     H25869   6.886  10.447  10.423 -0.5674 -1.2463  0.5410
  192MOL0     H25870   6.919  10.314  10.298 -2.2254  0.2816 -2.9100
  192MOL0     H25871   6.890  10.376  10.044  1.2219 -0.6806  2.2156
  192MOL0     H25872   6.827  10.527   9.854  1.1034 -2.3447  3.6676
  192MOL0     H25873   6.760  10.698   9.876 -2.4372 -2.4929 -1.2447
  192MOL0     H25874   6.981  10.785   9.931 -1.9670  0.9855  0.4897
  192MOL0     H25875   7.057  10.623   9.904 -0.7712 -0.6337 -0.1092
  192MOL0     H25876   6.926  10.793   9.679 -2.9474 -3.8419 -0.7286
  192MOL0     H25877   6.996  10.633   9.668  2.2499 -0.7116  1.7602
  192MOL0     H25878   7.219  10.752   9.772  1.5931  0.8438 -1.7749
  192MOL0     H25879   7.135  10.898   9.726  0.6042 -0.0204  2.6907
  192MOL0     H25880   7.385  10.897   9.688  1.3894 -2.3137  1.9825
  192MOL0     H25881   7.577  10.984   9.571 -0.8423 -1.3431  2.5327
  192MOL0     H25882   7.847  11.235   9.391  0.2828  1.2683  0.3152
  192MOL0     H25883   8.031  11.321   9.250  0.6314  0.1265  0.4228
  192MOL0     H25884   8.130  11.364   9.047  1.8884  1.1752 -2.0063
  192MOL0     H25885   8.278  11.340   9.142  0.9488 -0.6426 -0.2156
  192MOL0     H25886   8.231  11.251   8.851  0.0878  2.5123 -2.3286
  192MOL0     H25887   8.301  11.398   8.886 -0.3211 -0.2875  2.3745
  192MOL0     H25888   8.466  11.229   9.045  1.5594 -1.3199 -0.1260
  192MOL0     H25889   8.409  11.120   8.914  0.1679 -0.1526 -0.3662
  192MOL0     H25890   8.533  11.392   8.861  0.2391 -0.1521  0.6466
  192MOL0     H25891   8.495  11.265   8.739 -2.2400  0.0981  0.2871
  192MOL0     H25892   8.669  11.131   8.839  0.4318  0.1584  3.2954
  192MOL0     H25893   8.715  11.266   8.945 -1.1476  1.5674  1.1513
  192MOL0     H25894   8.690  11.271   8.643  1.3746 -0.6519 -0.5186
  192MOL0     H25895   8.747  11.408   8.748  0.3579 -0.0810  1.0087
  192MOL0     H25896   8.934  11.300   8.629  1.0724  0.6949  0.9094
  192MOL0     H25897   8.890  11.147   8.671 -0.3687  0.0849 -1.6972
  192MOL0     H25898   8.951  11.208   8.913  0.0013  0.2472  0.4783
  192MOL0     H25899   9.079  11.209   8.792 -0.0684 -0.4381  1.3827
  192MOL0     H25900   8.081  10.924   9.083  0.8625 -1.8116  1.0986
  192MOL0     H25901   7.896  10.849   9.226  0.6946  0.5260 -0.5148
  192MOL0     H25902   7.435  10.798   9.204 -3.6489  0.4352  0.1178
  192MOL0     H25903   7.237  10.713   9.341 -1.0925  1.4334  0.0703
  192MOL0     H25904   5.950  10.053  10.636 -0.0826  2.0268  2.0410
  192MOL0     H25905   5.756   9.902  10.679  0.1143 -0.0728  1.5195
  192MOL0     H25906   5.388   9.751  10.489  0.1017  3.9738  0.4252
  192MOL0     H25907   5.238   9.586  10.479 -1.0467 -1.0841 -0.5467
  192MOL0     H25908   4.850   9.493  10.515  0.4878 -0.4727  0.3992
  192MOL0     H25909   4.882   9.667  10.486 -0.8413 -1.2193 -0.8558
  192MOL0     H25910   4.781   9.725  10.698  0.7356  0.5986 -1.8304
  192MOL0     H25911   4.754   9.563  10.740  3.0256 -0.3977  0.0050
  192MOL0     H25912   4.619   9.643  10.473 -1.1087  0.6798 -0.5276
  192MOL0     H25913   4.587   9.747  10.618  0.0895  0.2466  0.8281
  192MOL0     H25914   4.507   9.544  10.733  2.2674  0.0707  1.2848
  192MOL0     H25915   4.421   9.574  10.580  0.3456  2.4030  0.6289
  192MOL0     H25916   4.631   9.207  10.532 -0.2321 -0.2686 -3.0566
  192MOL0     H25917   4.965   9.786  10.735 -0.1020  2.2080  1.1733
  192MOL0     H25918   5.077  10.100  10.710 -1.1842  2.7464  4.0223
  192MOL0     H25919   5.019   9.993  10.829  0.8305  2.5472  0.8151
  192MOL0     H25920   5.183  10.052  10.841 -0.2699  0.4936  1.0067
  193MOL0     O25921   7.148   6.531   7.304  0.0671  0.0674  0.4320
  193MOL0     C25922   7.115   6.634   7.353  0.8640  0.2431 -1.0832
  193MOL0     O25923   7.199   6.711   7.431  0.0979  0.4832 -0.6024
  193MOL0     C25924   7.305   6.661   7.509  0.7129  0.4262  0.1626
  193MOL0     C25925   7.326   6.713   7.640  0.2613  0.3393 -0.2148
  193MOL0     C25926   7.429   6.667   7.714  0.0021 -0.2127  0.7843
  193MOL0     C25927   7.514   6.568   7.667  0.1258  0.0699  0.2748
  193MOL0     O25928   7.611   6.515   7.744  0.6835  0.1800 -0.5329
  193MOL0     C25929   7.626   6.548   7.885  0.5183 -0.3342  0.4488
  193MOL0     C25930   7.713   6.440   7.948  0.3689 -0.0579  0.1734
  193MOL0     C25931   7.864   6.489   7.939 -0.3565 -0.2291  1.1308
  193MOL0     C25932   7.923   6.440   7.804 -0.0166  0.3411 -0.2213
  193MOL0     C25933   8.073   6.463   7.797  0.6508 -0.4828 -0.5729
  193MOL0     C25934   8.138   6.382   7.691 -0.5551  0.0535  0.9233
  193MOL0     C25935   8.282   6.418   7.671 -0.2543 -0.0125  0.6745
  193MOL0     C25936   8.310   6.479   7.534  0.1120 -0.4525  0.2091
  193MOL0     N25937   8.447   6.482   7.488 -0.3750  0.2795  0.4988
  193MOL0     C25938   8.508   6.364   7.446  0.3261  0.1162  1.0730
  193MOL0     C25939   8.634   6.409   7.419  0.3272  0.1479 -0.7994
  193MOL0     C25940   8.743   6.327   7.363  0.2011 -0.3491  0.3388
  193MOL0     C25941   8.880   6.315   7.431 -0.3948 -0.4085 -0.4692
  193MOL0     C25942   8.871   6.254   7.571 -0.4380  0.6910 -0.4172
  193MOL0     C25943   9.006   6.266   7.643 -0.0585 -1.0118  0.4154
  193MOL0     O25944   9.105   6.183   7.581  0.0263  0.2749 -0.5682
  193MOL0     C25945   9.227   6.187   7.635 -0.4827 -0.0830 -0.4283
  193MOL0     C25946   9.239   6.203   7.772  0.4279 -0.5965  0.0156
  193MOL0     C25947   9.365   6.203   7.830  0.2276  0.6959  0.1923
  193MOL0     C25948   9.485   6.175   7.758  0.5020 -0.3835 -0.2933
  193MOL0     C25949   9.625   6.167   7.818 -0.5793 -0.1390 -0.4822
  193MOL0     O25950   9.643   6.202   7.952  0.2222 -0.4382 -0.1954
  193MOL0     C25951   9.771   6.195   7.994  0.0990  0.3144 -0.3793
  193MOL0     C25952   9.805   6.086   8.078  0.6098 -0.1683 -0.1809
  193MOL0     C25953   9.937   6.090   8.139  1.3824 -0.1142  0.8283
  193MOL0     C25954  10.025   6.196   8.119 -0.2126 -0.1341 -0.3058
  193MOL0     O25955  10.145   6.220   8.198 -0.0138  0.1635  0.0045
  193MOL0     C25956  10.204   6.110   8.272  0.2764 -0.1340 -0.1103
  193MOL0     C25957  10.330   6.159   8.358  0.8565  0.7316  0.6574
  193MOL0     C25958  10.290   6.288   8.430  0.3516  0.4534  0.6054
  193MOL0     C25959  10.403   6.331   8.525 -0.4814  0.7707 -0.5748
  193MOL0     C25960  10.394   6.471   8.587 -0.2518  0.4265 -0.0568
  193MOL0     C25961  10.378   6.578   8.478 -0.5006  0.2610  1.3593
  193MOL0     C25962  10.346   6.708   8.542 -0.7086 -0.1353  0.6928
  193MOL0     C25963  10.329   6.818   8.436 -0.2692 -0.3159 -1.0663
  193MOL0    Cl25964  10.365   6.978   8.504 -0.4816 -0.2452 -0.2234
  193MOL0     C25965   9.986   6.298   8.030  0.2218  0.1621  0.1431
  193MOL0     C25966   9.863   6.296   7.962 -0.6943  0.9941  0.3204
  193MOL0     O25967   9.719   6.132   7.743  0.0769  0.1953 -0.6622
  193MOL0     C25968   9.464   6.165   7.617  0.5268  0.2664  0.2207
  193MOL0     C25969   9.342   6.148   7.560  0.1394 -0.2800  0.6298
  193MOL0     N25970   8.651   6.543   7.453 -0.4513  0.3857 -0.1991
  193MOL0     N25971   8.541   6.576   7.508 -0.4531 -0.4975 -0.2394
  193MOL0     C25972   7.496   6.519   7.538  0.1895 -0.1991  0.2810
  193MOL0     C25973   7.392   6.562   7.457  0.0779 -0.4662  0.5277
  193MOL0     C25974   6.980   6.700   7.331  0.1684  0.4372 -0.4673
  193MOL0     C25975   6.925   6.791   7.425  0.8549  0.1706  0.2100
  193MOL0     C25976   6.796   6.850   7.410  0.2523 -0.2611 -0.0580
  193MOL0     C25977   6.714   6.813   7.305  0.3670  0.2863  0.3171
  193MOL0     O25978   6.590   6.861   7.298 -0.2224 -0.2582 -0.1083
  193MOL0     C25979   6.534   6.888   7.169  0.1686 -0.5100  0.8666
  193MOL0     C25980   6.606   7.011   7.114  0.6318  1.1076  0.5799
  193MOL0     C25981   6.603   7.141   7.191 -0.5776  0.1235 -0.3693
  193MOL0     C25982   6.678   7.259   7.119 -0.6336 -0.7582 -0.8720
  193MOL0     C25983   6.825   7.258   7.131 -0.3431  0.3605  0.2255
  193MOL0     C25984   6.938   7.261   7.125  0.7681  0.2511  0.4678
  193MOL0     C25985   6.766   6.717   7.213 -0.2296  0.7009  0.4864
  193MOL0     C25986   6.893   6.662   7.223 -0.5108  0.5466 -0.2790
  193MOL0     C25987   6.932   6.555   7.118  0.5513 -0.4033 -0.2518
  193MOL0     H25988   7.261   6.790   7.681  0.3785  0.1894  0.2631
  193MOL0     H25989   7.442   6.710   7.813  0.5051 -0.7503  0.9515
  193MOL0     H25990   7.665   6.649   7.901 -0.0900 -0.0266  0.0268
  193MOL0     H25991   7.524   6.549   7.924  0.0826 -0.0740 -0.6601
  193MOL0     H25992   7.698   6.342   7.901 -2.7744  0.1655  0.4573
  193MOL0     H25993   7.689   6.422   8.053  0.7918  1.3768  0.5486
  193MOL0     H25994   7.916   6.452   8.028 -2.5541  2.8659  3.9313
  193MOL0     H25995   7.880   6.597   7.939  1.4111 -0.4397 -0.9201
  193MOL0     H25996   7.894   6.335   7.791 -4.1139  1.0854  1.3006
  193MOL0     H25997   7.872   6.494   7.723 -4.5333 -1.6089  0.9990
  193MOL0     H25998   8.084   6.571   7.785 -1.3707 -0.2412 -0.6955
  193MOL0     H25999   8.118   6.447   7.896 -1.9365 -0.6649  0.6687
  193MOL0     H26000   8.139   6.279   7.726  1.8012  0.2323  1.5684
  193MOL0     H26001   8.094   6.395   7.591  0.2457 -0.8929  0.4274
  193MOL0     H26002   8.339   6.325   7.677 -1.1152 -0.8776 -2.5298
  193MOL0     H26003   8.314   6.493   7.744 -0.8112  1.6943 -0.7676
  193MOL0     H26004   8.240   6.429   7.467 -0.5158  2.2558 -1.3098
  193MOL0     H26005   8.287   6.585   7.542  3.0788  0.1890  1.3450
  193MOL0     H26006   8.464   6.265   7.434 -4.8975  2.2331  0.2511
  193MOL0     H26007   8.712   6.227   7.333  2.9126 -0.2254 -3.6782
  193MOL0     H26008   8.765   6.383   7.272  3.3678 -0.9653  0.6117
  193MOL0     H26009   8.950   6.264   7.364  0.3105 -0.8937  0.6042
  193MOL0     H26010   8.912   6.419   7.446 -3.0630  0.1305  2.5268
  193MOL0     H26011   8.832   6.152   7.562 -2.2187  0.8343  3.5955
  193MOL0     H26012   8.788   6.300   7.626 -0.2741  0.7800 -0.2430
  193MOL0     H26013   8.986   6.240   7.748 -0.2675 -1.8088  0.1858
  193MOL0     H26014   9.039   6.370   7.643  0.0812 -1.0407 -0.9589
  193MOL0     H26015   9.155   6.222   7.838 -0.2575 -1.6242 -0.5363
  193MOL0     H26016   9.373   6.219   7.937  0.7120  0.4100  0.2045
  193MOL0     H26017   9.734   6.008   8.103 -0.5767  1.5817  2.4295
  193MOL0     H26018   9.971   6.016   8.210  3.0779  0.2614  0.4461
  193MOL0     H26019  10.135   6.059   8.340 -1.2657  0.1134 -1.4568
  193MOL0     H26020  10.240   6.034   8.202  0.8835  2.3446 -2.6619
  193MOL0     H26021  10.347   6.082   8.433 -1.0470 -1.0833 -0.6859
  193MOL0     H26022  10.421   6.176   8.299  1.5981 -1.6385  1.0325
  193MOL0     H26023  10.267   6.355   8.346 -1.6187 -1.7918 -0.8166
  193MOL0     H26024  10.203   6.269   8.494  0.1524  0.9321  0.4830
  193MOL0     H26025  10.496   6.316   8.468 -0.5084 -0.0796 -0.4172
  193MOL0     H26026  10.408   6.257   8.605 -1.8978 -2.6831 -3.3790
  193MOL0     H26027  10.487   6.491   8.641 -1.1146 -0.6098  1.9430
  193MOL0     H26028  10.302   6.477   8.645 -0.9453 -0.4150 -1.0275
  193MOL0     H26029  10.474   6.589   8.427 -0.1675  1.4096  2.1881
  193MOL0     H26030  10.310   6.546   8.398 -0.4830 -2.6179  2.3939
  193MOL0     H26031  10.435   6.732   8.601 -0.2503 -2.8175  1.2388
  193MOL0     H26032  10.259   6.702   8.608  0.2656  1.0615  2.1610
  193MOL0     H26033  10.405   6.806   8.358  1.7043  1.2857  0.5142
  193MOL0     H26034  10.226   6.826   8.400 -0.3878 -0.1881 -0.7036
  193MOL0     H26035  10.047   6.384   8.004  1.4715 -1.1506 -1.5038
  193MOL0     H26036   9.843   6.371   7.885  0.4143  0.3527 -0.6244
  193MOL0     H26037   9.544   6.151   7.545 -0.7085 -1.3932 -0.9359
  193MOL0     H26038   9.334   6.123   7.454 -1.4528  0.1926  0.6057
  193MOL0     H26039   7.565   6.441   7.507 -0.5697 -1.2962  1.2439
  193MOL0     H26040   7.394   6.533   7.352  2.7145 -0.3236  0.4905
  193MOL0     H26041   6.981   6.814   7.515  3.3580 -4.1465 -0.0075
  193MOL0     H26042   6.762   6.923   7.482 -0.7993  2.7337 -3.3044
  193MOL0     H26043   6.425   6.902   7.175  0.2318  0.1648  0.5966
  193MOL0     H26044   6.551   6.806   7.099 -0.5090  1.1545 -1.3962
  193MOL0     H26045   6.561   7.027   7.015  1.2498 -2.3611 -0.3977
  193MOL0     H26046   6.709   6.975   7.103  0.2787  0.6317 -1.8458
  193MOL0     H26047   6.647   7.113   7.287  0.7880  1.0492 -0.7036
  193MOL0     H26048   6.501   7.177   7.211  0.0001  0.5141  2.2045
  193MOL0     H26049   6.652   7.269   7.013  0.5603  0.0467 -1.1149
  193MOL0     H26050   6.650   7.351   7.172  0.6079  0.0738 -1.6208
  193MOL0     H26051   7.045   7.269   7.134  1.1366 -3.3495  0.4882
  193MOL0     H26052   6.696   6.682   7.138  3.3946 -0.5353 -2.6045
  193MOL0     H26053   6.964   6.468   7.176 -2.0683 -2.0695 -1.1264
  193MOL0     H26054   6.848   6.515   7.061 -0.8008  1.3087  0.4309
  193MOL0     H26055   7.011   6.604   7.062 -0.7624  0.3924 -1.4740
  194MOL0     O26056   1.663   1.998   7.051  0.4346 -0.2487  0.3942
  194MOL0     C26057   1.710   1.897   7.118 -0.1808 -0.2573  0.7758
  194MOL0     O26058   1.635   1.780   7.146 -0.1074  0.6400 -0.7681
  194MOL0     C26059   1.504   1.791   7.138  0.6981 -0.2834  0.7094
  194MOL0     C26060   1.437   1.804   7.015 -1.3453 -0.3462 -0.2401
  194MOL0     C26061   1.297   1.791   7.019 -0.0540 -0.3038  1.2796
  194MOL0     C26062   1.218   1.774   7.126 -0.1865  0.7122 -0.0418
  194MOL0     O26063   1.079   1.764   7.115 -0.5436 -1.0807  0.2165
  194MOL0     C26064   1.001   1.717   7.227  0.2448 -0.0832  0.1317
  194MOL0     C26065   0.844   1.711   7.195 -0.8952 -0.8152  0.2038
  194MOL0     C26066   0.761   1.683   7.321 -0.4403  0.8581 -0.0092
  194MOL0     C26067   0.619   1.653   7.279  0.4065  0.0982 -0.3970
  194MOL0     C26068   0.529   1.596   7.397 -0.6169  0.0690  0.7529
  194MOL0     C26069   0.505   1.695   7.507 -0.0917 -0.0227 -0.1941
  194MOL0     C26070   0.410   1.640   7.622  0.3120 -0.7051  0.3596
  194MOL0     C26071   0.484   1.590   7.743 -0.1591  0.2388 -0.0658
  194MOL0     N26072   0.541   1.456   7.717  0.1742  0.4428  0.6527
  194MOL0     C26073   0.663   1.432   7.653  0.7470  0.1813  0.5603
  194MOL0     C26074   0.667   1.293   7.635  1.2969  0.4444  0.0638
  194MOL0     C26075   0.781   1.237   7.553 -0.1360 -0.4201 -0.1169
  194MOL0     C26076   0.903   1.206   7.641 -0.1493 -0.0574  0.3298
  194MOL0     C26077   0.985   1.322   7.698  0.1714  0.8892 -0.6338
  194MOL0     C26078   1.080   1.395   7.594  0.0241 -0.5388 -0.1293
  194MOL0     O26079   1.129   1.507   7.663 -0.0123  0.5518  0.3423
  194MOL0     C26080   1.259   1.545   7.676 -0.4204  0.2392  0.5546
  194MOL0     C26081   1.351   1.462   7.742 -0.3727 -0.3500  0.4124
  194MOL0     C26082   1.487   1.507   7.766  0.5042 -0.4087 -0.4158
  194MOL0     C26083   1.533   1.629   7.718  0.0445 -0.0627 -0.4489
  194MOL0     C26084   1.668   1.661   7.733 -0.5701  0.2481 -0.3588
  194MOL0     O26085   1.697   1.794   7.712 -0.4144 -0.2049  0.6213
  194MOL0     C26086   1.825   1.847   7.719  0.5266  0.9372 -0.0582
  194MOL0     C26087   1.930   1.794   7.788  0.6690 -0.1109 -0.1702
  194MOL0     C26088   2.058   1.854   7.783  0.7234 -0.1920 -0.5072
  194MOL0     C26089   2.081   1.961   7.700 -0.0469 -0.1817 -0.1973
  194MOL0     O26090   2.204   2.024   7.670  0.4273  0.2729 -0.1247
  194MOL0     C26091   2.321   1.939   7.666  0.2367  0.5702 -0.3348
  194MOL0     C26092   2.320   1.842   7.546  0.4044  0.4489 -0.3180
  194MOL0     C26093   2.454   1.764   7.564  0.7524  0.4214 -0.0172
  194MOL0     C26094   2.470   1.670   7.448  0.2022 -0.0351  0.3366
  194MOL0     C26095   2.565   1.563   7.504  0.3971 -0.0287  0.3101
  194MOL0     C26096   2.697   1.617   7.562 -0.1948  0.2598  0.1371
  194MOL0     C26097   2.792   1.498   7.579 -0.3209  0.0616 -0.6792
  194MOL0     C26098   2.933   1.543   7.631  1.0712  0.2284  0.9960
  194MOL0    Cl26099   3.005   1.670   7.529  0.0196  0.1895  0.0147
  194MOL0     C26100   1.980   2.021   7.633 -0.4738  0.5559 -0.1041
  194MOL0     C26101   1.845   1.963   7.642  0.3541  0.0093  0.3378
  194MOL0     O26102   1.758   1.573   7.755  0.3377 -0.3046 -0.2609
  194MOL0     C26103   1.442   1.711   7.648 -0.8824  0.4541 -0.5934
  194MOL0     C26104   1.308   1.670   7.628  0.0736 -0.1192 -0.3437
  194MOL0     N26105   0.551   1.241   7.686 -0.0794  0.7096 -0.3384
  194MOL0     N26106   0.476   1.338   7.732  0.5317  0.0071 -0.1403
  194MOL0     C26107   1.289   1.763   7.253  0.0463  0.7443  0.2352
  194MOL0     C26108   1.436   1.765   7.253 -0.3660  0.3436  0.8139
  194MOL0     C26109   1.853   1.910   7.153  0.2545 -0.9403 -1.2724
  194MOL0     C26110   1.935   1.993   7.073 -0.6048  0.0867  0.1712
  194MOL0     C26111   2.072   2.007   7.097 -0.3941 -0.1118  0.3314
  194MOL0     C26112   2.133   1.945   7.203  0.3461  0.2500 -0.1311
  194MOL0     O26113   2.267   1.958   7.241  0.4372  0.6319  0.0244
  194MOL0     C26114   2.359   2.029   7.159 -0.7411 -0.6107 -0.7794
  194MOL0     C26115   2.487   2.058   7.240 -0.7505  0.0709  0.0241
  194MOL0     C26116   2.574   2.160   7.158  0.2531 -0.7556 -0.1108
  194MOL0     C26117   2.708   2.210   7.210 -0.4879  1.1272 -0.0804
  194MOL0     C26118   2.780   2.087   7.243  0.2108  0.8312 -0.1665
  194MOL0     C26119   2.846   1.987   7.261  0.1393 -0.1321  0.5587
  194MOL0     C26120   2.051   1.868   7.283 -0.2164  0.0526 -0.1113
  194MOL0     C26121   1.910   1.846   7.264  0.1177  0.1237  0.0437
  194MOL0     C26122   1.829   1.766   7.359 -0.2064 -0.5346 -0.2055
  194MOL0     H26123   1.491   1.829   6.924  0.7745  2.6450  1.6579
  194MOL0     H26124   1.251   1.780   6.921  4.2151 -3.4844 -0.7164
  194MOL0     H26125   1.022   1.614   7.257 -0.2805 -0.2129  0.0627
  194MOL0     H26126   1.008   1.776   7.319 -2.5030  1.5104 -0.5666
  194MOL0     H26127   0.836   1.636   7.115  2.9348 -0.8699 -0.3040
  194MOL0     H26128   0.800   1.800   7.149 -1.6857 -1.9367 -1.3071
  194MOL0     H26129   0.769   1.765   7.393  0.4528 -1.1142  2.3048
  194MOL0     H26130   0.801   1.588   7.357 -1.8575 -0.0724 -0.8113
  194MOL0     H26131   0.582   1.748   7.240 -0.9959  0.0725  0.7782
  194MOL0     H26132   0.624   1.585   7.194  1.6282  1.0861 -1.1371
  194MOL0     H26133   0.434   1.574   7.348  1.0054  0.3831 -2.8231
  194MOL0     H26134   0.587   1.506   7.421  1.4211  0.4189 -2.3584
  194MOL0     H26135   0.599   1.740   7.538 -2.1239  4.6873 -0.1552
  194MOL0     H26136   0.453   1.771   7.447 -0.2232 -0.2546 -0.3780
  194MOL0     H26137   0.337   1.565   7.590  0.1179 -0.0963 -0.6508
  194MOL0     H26138   0.361   1.735   7.645  2.0627 -0.2396  2.5246
  194MOL0     H26139   0.560   1.666   7.769  2.0921 -1.3602 -1.5656
  194MOL0     H26140   0.415   1.573   7.825  0.5822 -0.0842  0.5059
  194MOL0     H26141   0.734   1.503   7.611 -0.0452 -0.4326 -1.9876
  194MOL0     H26142   0.752   1.143   7.505 -0.9929 -0.0914 -0.2744
  194MOL0     H26143   0.821   1.308   7.479 -0.3575  0.9115  1.0036
  194MOL0     H26144   0.866   1.140   7.721 -0.0010  0.2409  0.6446
  194MOL0     H26145   0.966   1.138   7.583 -1.1605 -1.7532  1.1408
  194MOL0     H26146   1.052   1.278   7.773 -1.6070  0.4754  0.7725
  194MOL0     H26147   0.924   1.395   7.752 -1.6223 -0.9799 -0.0001
  194MOL0     H26148   1.021   1.421   7.507  0.9658 -0.2729 -0.7059
  194MOL0     H26149   1.162   1.329   7.563  0.8207  0.4931 -0.2564
  194MOL0     H26150   1.319   1.371   7.791  2.1177 -2.2700 -1.2552
  194MOL0     H26151   1.553   1.433   7.810  1.7756  0.9108 -0.0105
  194MOL0     H26152   1.918   1.720   7.867 -2.6903 -2.0501 -2.2314
  194MOL0     H26153   2.133   1.814   7.850  0.4509  0.6674  0.3224
  194MOL0     H26154   2.409   2.003   7.658  2.5598 -2.3188  0.3606
  194MOL0     H26155   2.326   1.889   7.763 -0.1849  0.0410 -0.5776
  194MOL0     H26156   2.229   1.783   7.536  1.5366 -1.4034 -0.1422
  194MOL0     H26157   2.336   1.905   7.458  3.3592 -0.5673 -0.6331
  194MOL0     H26158   2.539   1.833   7.567  0.8987  0.3012 -1.0454
  194MOL0     H26159   2.442   1.710   7.659 -2.4310 -0.0471 -0.5605
  194MOL0     H26160   2.503   1.711   7.352  1.4660 -2.1108 -0.1691
  194MOL0     H26161   2.371   1.624   7.440 -0.0559 -0.7767  4.8759
  194MOL0     H26162   2.582   1.488   7.427 -0.3190 -0.7320  0.8260
  194MOL0     H26163   2.516   1.513   7.588 -1.8383  0.9347 -0.3319
  194MOL0     H26164   2.749   1.686   7.495  0.3463  0.8793  1.1566
  194MOL0     H26165   2.693   1.665   7.660  2.9857 -2.2364  1.6946
  194MOL0     H26166   2.804   1.453   7.480 -3.1818 -2.0460 -0.2186
  194MOL0     H26167   2.751   1.421   7.646 -1.9291  1.7318  0.3559
  194MOL0     H26168   2.906   1.576   7.731 -1.1319 -1.3590  0.9997
  194MOL0     H26169   3.004   1.460   7.627  0.2855 -0.4506  0.7587
  194MOL0     H26170   2.004   2.111   7.577  0.2189  0.8384  0.6305
  194MOL0     H26171   1.762   2.000   7.582 -0.8235 -2.4591  0.2916
  194MOL0     H26172   1.470   1.810   7.615 -0.7290  0.9524  0.9353
  194MOL0     H26173   1.236   1.736   7.580  0.1501  0.0444 -0.2328
  194MOL0     H26174   1.236   1.752   7.346 -0.0536 -2.3911 -0.0927
  194MOL0     H26175   1.483   1.756   7.350 -3.0849 -1.0348  2.1222
  194MOL0     H26176   1.898   2.047   6.986 -1.4594  0.2333  0.6131
  194MOL0     H26177   2.130   2.072   7.032 -1.7201  0.5695 -0.1869
  194MOL0     H26178   2.323   2.129   7.132  2.5185  1.3280  1.3444
  194MOL0     H26179   2.373   1.963   7.073 -1.2285 -0.4877 -0.9580
  194MOL0     H26180   2.532   1.959   7.251 -2.1276 -0.9983 -2.7804
  194MOL0     H26181   2.474   2.103   7.339 -0.8397 -0.5363  0.2891
  194MOL0     H26182   2.510   2.249   7.152  0.8243 -0.2130  1.3636
  194MOL0     H26183   2.594   2.125   7.057 -1.2267  3.4457 -2.1091
  194MOL0     H26184   2.762   2.270   7.136  1.2983 -0.1828  0.1156
  194MOL0     H26185   2.681   2.267   7.299  1.5401 -1.2696  2.2234
  194MOL0     H26186   2.905   1.898   7.256  0.2224 -0.0251 -0.4943
  194MOL0     H26187   2.099   1.827   7.371  2.2687  1.9954 -0.4417
  194MOL0     H26188   1.815   1.665   7.318 -1.7280 -0.9041  1.1444
  194MOL0     H26189   1.883   1.757   7.454 -2.2253 -0.8179  0.9574
  194MOL0     H26190   1.734   1.816   7.377 -0.5768  0.0754 -3.3209
  195MOL0     O26191   8.584   0.617   4.164  0.2200  0.5565 -0.1760
  195MOL0     C26192   8.566   0.731   4.116  0.4980  0.2589  0.4930
  195MOL0     O26193   8.663   0.818   4.103 -0.4134 -0.6520 -0.8828
  195MOL0     C26194   8.781   0.786   4.161 -0.1751 -0.4314  1.0605
  195MOL0     C26195   8.800   0.831   4.299  0.2578 -0.2188  0.1262
  195MOL0     C26196   8.926   0.812   4.360 -0.3752 -0.0991 -0.2071
  195MOL0     C26197   9.029   0.747   4.295  0.0241 -0.0674 -0.5409
  195MOL0     O26198   9.143   0.733   4.357 -0.0418  0.0055  0.4205
  195MOL0     C26199   9.200   0.604   4.336  0.1755  0.4775 -0.1121
  195MOL0     C26200   9.299   0.569   4.445  0.2613 -0.2489 -0.5673
  195MOL0     C26201   9.366   0.434   4.425 -0.0967  0.0515 -0.0697
  195MOL0     C26202   9.407   0.371   4.560 -0.1252 -0.3560  0.1053
  195MOL0     C26203   9.530   0.281   4.540 -0.3446  0.7761  0.1502
  195MOL0     C26204   9.602   0.240   4.669  0.1763  0.3007 -0.8630
  195MOL0     C26205   9.754   0.186   4.649 -0.0008 -0.2773  0.1699
  195MOL0     C26206   9.802   0.120   4.771  0.0026  0.5634 -1.1777
  195MOL0     N26207   9.933   0.082   4.734 -0.4134  0.0459  0.4883
  195MOL0     C26208   9.960  -0.019   4.651 -1.2183 -0.2636 -0.2535
  195MOL0     C26209  10.095  -0.033   4.644 -0.3103 -0.3286  0.7747
  195MOL0     C26210  10.174  -0.140   4.574  0.2698  0.0176  0.1477
  195MOL0     C26211  10.323  -0.136   4.603 -0.6344  0.5309  0.1021
  195MOL0     C26212  10.406  -0.259   4.564  0.5778  0.0604 -0.1965
  195MOL0     C26213  10.551  -0.232   4.589 -0.1495  0.1028  0.5729
  195MOL0     O26214  10.595  -0.142   4.491  0.2893  0.3288  0.0035
  195MOL0     C26215  10.723  -0.101   4.492  0.0743 -0.2602 -0.7080
  195MOL0     C26216  10.829  -0.168   4.567  1.2267 -0.0105  0.2782
  195MOL0     C26217  10.955  -0.137   4.551 -0.1619  0.3737  1.1334
  195MOL0     C26218  10.995  -0.030   4.461 -0.1793 -0.9235 -0.2295
  195MOL0     C26219  11.137  -0.005   4.428 -0.1710  0.4448 -0.3381
  195MOL0     O26220  11.218  -0.111   4.389  0.2206 -0.3130 -0.2285
  195MOL0     C26221  11.349  -0.086   4.362  0.1802 -0.3814 -1.0925
  195MOL0     C26222  11.390  -0.131   4.241 -0.1795 -0.6242  0.1906
  195MOL0     C26223  11.527  -0.119   4.199 -0.2296 -0.4537 -0.3870
  195MOL0     C26224  11.614  -0.051   4.283  0.9240 -0.1163 -0.1898
  195MOL0     O26225  11.745  -0.049   4.267 -0.3522 -0.4807 -0.0518
  195MOL0     C26226  11.799  -0.123   4.155  0.0359  0.2632  0.2854
  195MOL0     C26227  11.947  -0.141   4.163  0.8094 -0.1323  0.1700
  195MOL0     C26228  11.993  -0.226   4.048  0.3616  0.2766 -0.0434
  195MOL0     C26229  12.144  -0.204   4.033 -0.3106 -0.0057 -0.4397
  195MOL0     C26230  12.220  -0.289   3.933  0.4528  0.3121  0.2005
  195MOL0     C26231  12.366  -0.297   3.950 -0.0835 -0.4714  0.1481
  195MOL0     C26232  12.430  -0.157   3.927  0.7591  0.6025  0.0226
  195MOL0     C26233  12.578  -0.164   3.940 -1.5826  0.1302  0.1847
  195MOL0    Cl26234  12.662  -0.238   3.798 -0.2344  0.2216 -0.1875
  195MOL0     C26235  11.569   0.006   4.403  0.0910 -0.1760  0.3961
  195MOL0     C26236  11.435  -0.022   4.446 -0.2198 -1.5999 -0.0405
  195MOL0     O26237  11.173   0.110   4.429  1.0907  0.3891 -0.7605
  195MOL0     C26238  10.896   0.056   4.417  0.6186 -0.1011  0.5153
  195MOL0     C26239  10.763   0.016   4.424  0.1941  0.0233 -0.2072
  195MOL0     N26240  10.148   0.072   4.723 -0.1808  0.1942 -0.0941
  195MOL0     N26241  10.052   0.138   4.782  0.1682  0.3416 -0.3443
  195MOL0     C26242   9.006   0.696   4.165  0.2277  0.6236 -0.8622
  195MOL0     C26243   8.883   0.722   4.094 -0.1308  0.5244 -1.2630
  195MOL0     C26244   8.429   0.764   4.064 -0.4673  0.5273 -0.1715
  195MOL0     C26245   8.411   0.883   3.989  0.4877  1.0279 -0.7792
  195MOL0     C26246   8.283   0.920   3.943 -0.4410  0.4838  0.5664
  195MOL0     C26247   8.180   0.839   3.952  0.2135  1.0136 -0.4358
  195MOL0     O26248   8.068   0.856   3.892 -0.2674  0.2012  0.6700
  195MOL0     C26249   7.975   0.923   3.978 -0.0888 -0.2435  0.2020
  195MOL0     C26250   7.854   0.962   3.899  0.0998 -0.8622  0.0711
  195MOL0     C26251   7.879   1.064   3.781  0.1415  0.0445 -0.4826
  195MOL0     C26252   7.753   1.069   3.698 -0.5137 -0.4693  1.1476
  195MOL0     C26253   7.630   1.116   3.775 -0.6415  0.7402  0.2863
  195MOL0     C26254   7.540   1.149   3.843  0.0397  0.9126 -0.6745
  195MOL0     C26255   8.191   0.720   4.021  0.8489 -0.0769  0.2673
  195MOL0     C26256   8.316   0.683   4.088 -0.2637  0.5193 -0.3804
  195MOL0     C26257   8.306   0.561   4.170 -0.8042  0.5360  0.0856
  195MOL0     H26258   8.714   0.870   4.352 -0.2517 -1.5741  0.3407
  195MOL0     H26259   8.947   0.854   4.457 -1.0362  0.1129 -0.1518
  195MOL0     H26260   9.120   0.530   4.326  2.8223 -2.5942 -0.0589
  195MOL0     H26261   9.252   0.601   4.239 -1.0434  1.1755 -0.8211
  195MOL0     H26262   9.232   0.572   4.532 -1.1111  3.1454 -1.5995
  195MOL0     H26263   9.368   0.654   4.442  0.4078 -0.3565 -0.3227
  195MOL0     H26264   9.456   0.449   4.364  0.0822 -1.2696 -0.1548
  195MOL0     H26265   9.292   0.363   4.388 -1.9061  0.6136  2.2228
  195MOL0     H26266   9.424   0.442   4.641  1.6860  0.5857 -1.0488
  195MOL0     H26267   9.326   0.312   4.604  0.7489  1.6101  5.0067
  195MOL0     H26268   9.495   0.190   4.491  0.7166 -1.3998  3.1196
  195MOL0     H26269   9.605   0.334   4.481  1.4930  2.7933  3.8861
  195MOL0     H26270   9.600   0.327   4.735 -2.7066 -1.0270  1.0262
  195MOL0     H26271   9.547   0.163   4.724  2.7804 -2.0839 -1.3858
  195MOL0     H26272   9.827   0.267   4.640  3.3870 -3.1867 -1.0608
  195MOL0     H26273   9.766   0.116   4.566 -0.0831 -2.6071  2.0190
  195MOL0     H26274   9.795   0.185   4.858  1.2175  0.6008 -1.1029
  195MOL0     H26275   9.738   0.034   4.793 -4.2194  3.9689  1.5766
  195MOL0     H26276   9.898  -0.093   4.601  0.0917 -1.4535 -0.1789
  195MOL0     H26277  10.131  -0.234   4.609 -0.7246  1.0843  1.9190
  195MOL0     H26278  10.139  -0.135   4.470 -3.6318 -1.8195  1.1853
  195MOL0     H26279  10.358  -0.056   4.538 -1.3139 -1.0607 -2.3274
  195MOL0     H26280  10.338  -0.110   4.709 -2.2321 -0.1436  0.5183
  195MOL0     H26281  10.379  -0.288   4.462  0.0052 -0.2039  0.0227
  195MOL0     H26282  10.379  -0.337   4.636  0.9643  0.8250  0.8034
  195MOL0     H26283  10.600  -0.330   4.579 -1.3726 -0.6712  1.9084
  195MOL0     H26284  10.576  -0.190   4.686  1.6262 -0.2601  0.3128
  195MOL0     H26285  10.794  -0.253   4.624 -0.6427  1.5646  1.6213
  195MOL0     H26286  11.029  -0.189   4.611  0.7870  0.1046 -0.2081
  195MOL0     H26287  11.313  -0.185   4.186  0.7599 -0.1824 -1.6218
  195MOL0     H26288  11.563  -0.169   4.110  0.5162  1.2222 -1.0523
  195MOL0     H26289  11.769  -0.228   4.160  1.5731 -0.1585  1.2061
  195MOL0     H26290  11.774  -0.081   4.057  3.3504 -1.3853 -1.4276
  195MOL0     H26291  11.995  -0.043   4.158 -0.1146  0.2897 -0.8726
  195MOL0     H26292  11.983  -0.191   4.254 -1.3671 -0.5564  0.8549
  195MOL0     H26293  11.985  -0.332   4.072  0.4055  0.0815 -0.8475
  195MOL0     H26294  11.931  -0.210   3.960 -0.2480  1.1638  0.5381
  195MOL0     H26295  12.184  -0.221   4.133 -1.1852  0.0829 -0.0665
  195MOL0     H26296  12.159  -0.099   4.003 -1.9319  0.6996  1.0742
  195MOL0     H26297  12.194  -0.246   3.835  0.6226  3.0481  1.2754
  195MOL0     H26298  12.188  -0.394   3.928 -0.1074  0.5263 -1.7436
  195MOL0     H26299  12.394  -0.334   4.050 -0.8274  1.4242  1.1118
  195MOL0     H26300  12.394  -0.370   3.874 -2.6827  0.9872 -2.4029
  195MOL0     H26301  12.396  -0.086   4.003 -2.8564 -0.6622 -0.2244
  195MOL0     H26302  12.412  -0.121   3.825  0.8096  0.4421 -0.0424
  195MOL0     H26303  12.629  -0.073   3.973 -0.2940 -1.7658  3.9031
  195MOL0     H26304  12.598  -0.233   4.022  0.3460 -0.6515 -0.8858
  195MOL0     H26305  11.640   0.050   4.472  1.2027  0.5251 -1.1265
  195MOL0     H26306  11.407   0.013   4.545  2.1411  0.1861  0.0811
  195MOL0     H26307  10.921   0.152   4.372 -1.5417  0.8180  1.1327
  195MOL0     H26308  10.691   0.081   4.374  0.9905  0.4773 -0.7858
  195MOL0     H26309   9.082   0.650   4.102 -2.2912 -3.4229 -1.3306
  195MOL0     H26310   8.880   0.675   3.996  3.3907 -3.0210  0.1001
  195MOL0     H26311   8.494   0.949   3.967  1.3676  0.9759  1.9498
  195MOL0     H26312   8.269   1.015   3.893 -1.3395 -0.2219 -0.5618
  195MOL0     H26313   8.017   1.017   4.016  1.4737 -0.7136 -0.3079
  195MOL0     H26314   7.948   0.860   4.064  0.4481 -0.8008 -0.0250
  195MOL0     H26315   7.786   1.013   3.967 -1.4415 -0.0457 -1.9757
  195MOL0     H26316   7.808   0.870   3.861 -2.9645  0.5752  0.0188
  195MOL0     H26317   7.966   1.017   3.734 -0.9367 -2.8639  0.2316
  195MOL0     H26318   7.904   1.166   3.811 -0.1109 -0.3246  1.0848
  195MOL0     H26319   7.764   1.132   3.610  1.0022 -2.5493 -0.2473
  195MOL0     H26320   7.719   0.969   3.668 -2.1404  0.0133  1.2798
  195MOL0     H26321   7.443   1.165   3.885 -0.7514 -3.4207 -0.4418
  195MOL0     H26322   8.098   0.664   4.027 -0.8742  2.5128 -0.4377
  195MOL0     H26323   8.354   0.589   4.264  0.7689  1.7012 -0.9979
  195MOL0     H26324   8.200   0.544   4.192 -0.9117 -1.2706 -1.5599
  195MOL0     H26325   8.346   0.469   4.125 -2.9108 -0.5281  0.2813
  196MOL0     O26326   4.398   9.852  10.302 -0.3372  0.2429  0.1837
  196MOL0     C26327   4.335   9.955  10.320 -1.3768 -0.5485 -0.1162
  196MOL0     O26328   4.386  10.082  10.327  0.3936 -0.6370  0.0634
  196MOL0     C26329   4.518  10.109  10.363  0.0481  0.5336  0.1236
  196MOL0     C26330   4.578  10.229  10.321  0.1502  0.3117  0.4093
  196MOL0     C26331   4.707  10.254  10.352 -0.0031  0.0918 -0.1647
  196MOL0     C26332   4.789  10.159  10.411 -0.7809  0.4606  0.1083
  196MOL0     O26333   4.923  10.179  10.428 -0.2365  0.5169 -0.6445
  196MOL0     C26334   4.993  10.267  10.337  0.4046  0.1939 -0.0669
  196MOL0     C26335   5.130  10.270  10.374 -0.0045  1.1666 -0.1137
  196MOL0     C26336   5.203  10.381  10.300  0.5184  0.4279  0.0522
  196MOL0     C26337   5.358  10.365  10.291  0.0736  0.2692 -0.2160
  196MOL0     C26338   5.405  10.448  10.174  0.1029 -0.2425  0.3782
  196MOL0     C26339   5.552  10.413  10.149  0.9743 -0.4021 -0.3386
  196MOL0     C26340   5.608  10.454  10.012 -0.2887  0.4335  0.3289
  196MOL0     C26341   5.662  10.593  10.021 -0.7572 -0.0311 -0.5677
  196MOL0     N26342   5.557  10.696  10.018 -0.8693 -0.1048 -0.6182
  196MOL0     C26343   5.451  10.695   9.926  0.4087  0.0505  0.3363
  196MOL0     C26344   5.384  10.802   9.973  0.5197 -0.4605  0.5396
  196MOL0     C26345   5.246  10.851   9.931 -1.1663 -0.1241 -0.3018
  196MOL0     C26346   5.134  10.819  10.020 -0.1810  0.4863 -0.7995
  196MOL0     C26347   5.115  10.664  10.031  0.0585 -0.5024 -0.1939
  196MOL0     C26348   5.016  10.640  10.147 -0.1396  0.2745  0.1896
  196MOL0     O26349   4.942  10.516  10.125  0.1117  0.5650  0.1773
  196MOL0     C26350   4.825  10.513  10.057  1.1314  0.3621 -0.1348
  196MOL0     C26351   4.743  10.392  10.056 -0.6319  0.2973  0.5173
  196MOL0     C26352   4.611  10.395  10.012  0.0394 -0.3780  0.3995
  196MOL0     C26353   4.556  10.514   9.952 -0.1715  0.5482  0.7121
  196MOL0     C26354   4.413  10.518   9.900  0.1456 -0.2509 -0.1955
  196MOL0     O26355   4.338  10.419   9.958 -0.0344  0.2969 -1.6596
  196MOL0     C26356   4.201  10.414   9.956  0.3677 -0.3999 -0.0670
  196MOL0     C26357   4.146  10.353  10.066  0.3661  0.2774  0.2168
  196MOL0     C26358   4.011  10.349  10.080  0.6642 -0.0667 -0.0946
  196MOL0     C26359   3.916  10.400   9.988 -0.6929  0.6539 -0.1417
  196MOL0     O26360   3.785  10.396  10.028  0.4813 -0.0831 -0.0024
  196MOL0     C26361   3.677  10.445   9.949  0.7149  0.1888  0.1546
  196MOL0     C26362   3.554  10.442  10.043  0.1478  0.4546 -0.3841
  196MOL0     C26363   3.433  10.531  10.021 -0.0684  0.1610  0.2673
  196MOL0     C26364   3.385  10.523   9.874 -0.1418 -0.2413  0.0682
  196MOL0     C26365   3.317  10.651   9.827  0.8376  0.0496 -0.1484
  196MOL0     C26366   3.199  10.686   9.908 -0.8861  0.3470 -0.0742
  196MOL0     C26367   3.113  10.794   9.838 -0.1429 -0.3780  0.3830
  196MOL0     C26368   3.062  10.763   9.699 -0.9305  0.5824  0.3807
  196MOL0    Cl26369   2.952  10.881   9.644  0.1655  0.1176  0.9866
  196MOL0     C26370   3.968  10.453   9.872 -2.1748 -0.0845  0.2038
  196MOL0     C26371   4.111  10.455   9.860  0.5129 -0.0508  0.0031
  196MOL0     O26372   4.369  10.620   9.846 -0.5091  0.4859 -1.0061
  196MOL0     C26373   4.642  10.626   9.944  1.2004  0.2442 -0.1504
  196MOL0     C26374   4.767  10.623  10.003 -0.1868 -0.6971  0.3314
  196MOL0     N26375   5.456  10.872  10.070  0.6145  0.6518 -0.1311
  196MOL0     N26376   5.555  10.802  10.101 -0.3870  0.0933 -0.1461
  196MOL0     C26377   4.737  10.043  10.460  0.5475 -0.5541 -0.4509
  196MOL0     C26378   4.594  10.022  10.446 -0.1252  0.4994  0.5811
  196MOL0     C26379   4.196   9.942  10.302 -0.3207 -0.1593  0.4655
  196MOL0     C26380   4.129  10.022  10.211  0.0778 -0.3743  0.7317
  196MOL0     C26381   3.990  10.010  10.185  0.7093 -0.8160 -0.3249
  196MOL0     C26382   3.929   9.907  10.245  0.3020  0.2351  0.0669
  196MOL0     O26383   3.796   9.878  10.234 -0.3825  0.1205 -0.4862
  196MOL0     C26384   3.720   9.958  10.156 -0.2901 -0.3382 -0.6656
  196MOL0     C26385   3.685  10.093  10.216 -0.0114 -0.0378  0.3969
  196MOL0     C26386   3.613  10.070  10.347 -0.0770 -0.0754 -0.1319
  196MOL0     C26387   3.529  10.186  10.399 -0.0819  0.4411 -0.7968
  196MOL0     C26388   3.608  10.303  10.425  0.1593  0.3863 -0.3108
  196MOL0     C26389   3.659  10.406  10.439 -0.1911 -0.0221  0.1912
  196MOL0     C26390   3.992   9.817  10.335  0.1275 -0.5161  0.2519
  196MOL0     C26391   4.127   9.843  10.371 -0.4195 -0.5629  0.0707
  196MOL0     C26392   4.186   9.747  10.470 -0.3527  0.2283 -0.5422
  196MOL0     H26393   4.518  10.304  10.272  0.0081 -0.3579 -0.4649
  196MOL0     H26394   4.749  10.352  10.330  0.2338 -0.2559 -1.3436
  196MOL0     H26395   4.976  10.243  10.232 -0.4100  2.2282 -0.4555
  196MOL0     H26396   4.952  10.369  10.333  0.9109  0.3953 -0.2653
  196MOL0     H26397   5.168  10.171  10.345 -4.9160 -0.9293 -0.4727
  196MOL0     H26398   5.130  10.264  10.484 -5.2639 -2.2622  0.0802
  196MOL0     H26399   5.178  10.469  10.361 -1.0548 -0.9148  1.4268
  196MOL0     H26400   5.150  10.399  10.206  0.2531 -1.2263 -0.1474
  196MOL0     H26401   5.399  10.409  10.382 -1.4655 -1.1870  1.2576
  196MOL0     H26402   5.393  10.261  10.287 -1.5462 -0.2830 -0.6217
  196MOL0     H26403   5.342  10.431  10.086  2.1641 -1.7072 -0.9126
  196MOL0     H26404   5.411  10.555  10.196  1.6779 -0.3877  0.7774
  196MOL0     H26405   5.620  10.443  10.230  0.3395  0.4832 -0.1167
  196MOL0     H26406   5.550  10.304  10.155 -0.3094 -0.3325  1.1436
  196MOL0     H26407   5.540  10.445   9.927 -1.2305 -2.5410  1.2870
  196MOL0     H26408   5.696  10.395   9.984 -1.6108 -1.0862 -0.7796
  196MOL0     H26409   5.722  10.599  10.113 -1.2449 -0.2178 -0.2329
  196MOL0     H26410   5.722  10.612   9.931  0.8233 -0.0511  0.4270
  196MOL0     H26411   5.436  10.624   9.845  5.4997  0.0825 -0.9545
  196MOL0     H26412   5.259  10.960   9.935 -0.3002 -0.2554  2.2037
  196MOL0     H26413   5.220  10.825   9.828  0.2433 -0.3599 -0.6267
  196MOL0     H26414   5.168  10.866  10.112 -0.7402  0.4943 -0.5967
  196MOL0     H26415   5.042  10.870   9.991 -0.3113  2.0024  1.9811
  196MOL0     H26416   5.207  10.611  10.055  0.6713  1.2084  1.5282
  196MOL0     H26417   5.078  10.636   9.932  2.0311  0.0612 -1.1476
  196MOL0     H26418   4.951  10.726  10.165  0.3685  0.5928  0.5457
  196MOL0     H26419   5.064  10.623  10.244  0.0717 -0.0939  0.0211
  196MOL0     H26420   4.784  10.301  10.099  3.6951  1.5614 -0.4565
  196MOL0     H26421   4.541  10.313  10.002 -2.0028  1.3109  0.2916
  196MOL0     H26422   4.215  10.323  10.144  1.2718  0.3720 -0.5231
  196MOL0     H26423   3.965  10.306  10.169 -1.0612  0.6915 -0.5972
  196MOL0     H26424   3.699  10.543   9.904  3.3134 -0.4741 -0.2031
  196MOL0     H26425   3.657  10.379   9.864  0.5160 -0.3962  0.6488
  196MOL0     H26426   3.508  10.343  10.047  1.3792 -0.3753 -3.8024
  196MOL0     H26427   3.590  10.474  10.142  1.3733 -0.6547 -0.4406
  196MOL0     H26428   3.355  10.500  10.091 -0.7593 -2.2222 -1.4353
  196MOL0     H26429   3.454  10.637  10.039  0.5788  0.0706  0.0522
  196MOL0     H26430   3.303  10.450   9.868 -0.3608  0.0709 -0.9690
  196MOL0     H26431   3.474  10.510   9.811  1.0459  0.8550  1.4583
  196MOL0     H26432   3.285  10.632   9.724 -2.4491 -2.1484  1.0770
  196MOL0     H26433   3.385  10.736   9.820  1.3517 -0.4298 -1.1305
  196MOL0     H26434   3.142  10.597   9.936 -0.8764  0.6249  0.8407
  196MOL0     H26435   3.232  10.729  10.003 -0.6228  1.1403 -0.5097
  196MOL0     H26436   3.160  10.892   9.827 -0.3587 -0.2662  0.4509
  196MOL0     H26437   3.033  10.804   9.912  0.2373 -0.4835  0.8116
  196MOL0     H26438   3.140  10.747   9.624 -0.7299  0.6562  0.5721
  196MOL0     H26439   3.000  10.673   9.698 -3.1443  2.0002 -1.4555
  196MOL0     H26440   3.899  10.471   9.790 -0.5948  2.7727 -0.6406
  196MOL0     H26441   4.155  10.491   9.768  1.6781 -1.1572  0.1006
  196MOL0     H26442   4.606  10.719   9.902 -2.3839 -1.0562 -0.3029
  196MOL0     H26443   4.830  10.711  10.010 -1.3203  0.0558  1.5664
  196MOL0     H26444   4.807   9.969  10.496 -1.2286 -2.1067  0.0017
  196MOL0     H26445   4.547   9.934  10.490  0.2923  0.4682  0.9783
  196MOL0     H26446   4.166  10.101  10.147  1.4595  0.7173  2.7786
  196MOL0     H26447   3.955  10.079  10.109  0.2517  0.1712  0.7625
  196MOL0     H26448   3.627   9.903  10.140 -2.6866  3.2971 -0.3366
  196MOL0     H26449   3.768   9.975  10.059  1.1387 -0.7568 -0.0486
  196MOL0     H26450   3.617  10.135  10.141  0.7892  0.8082  0.1203
  196MOL0     H26451   3.779  10.150  10.219 -0.0069 -0.0875  1.4224
  196MOL0     H26452   3.684  10.034  10.422  1.8287  1.3167 -1.1783
  196MOL0     H26453   3.535   9.995  10.331 -2.1523  1.6902  1.0852
  196MOL0     H26454   3.460  10.206  10.317 -1.6759 -1.5346 -0.0409
  196MOL0     H26455   3.483  10.150  10.492  1.5539  0.6680  0.1377
  196MOL0     H26456   3.686  10.508  10.458 -0.7092  0.0902  0.3382
  196MOL0     H26457   3.934   9.738  10.383  0.7035 -1.4372 -0.5273
  196MOL0     H26458   4.249   9.674  10.418 -1.3507 -0.6692 -0.5218
  196MOL0     H26459   4.237   9.808  10.546 -0.7856  3.0703 -2.3759
  196MOL0     H26460   4.095   9.710  10.519 -0.6045  0.6496 -0.6931
  197MOL0     O26461   7.416   9.604   3.847  0.7147  0.5121  0.4972
  197MOL0     C26462   7.324   9.565   3.772  0.2552 -0.1748 -0.4160
  197MOL0     O26463   7.349   9.510   3.645  0.6286  0.7165 -0.2511
  197MOL0     C26464   7.465   9.481   3.593 -0.7147  0.1083 -0.4613
  197MOL0     C26465   7.490   9.360   3.519  0.3720 -0.3879 -0.5164
  197MOL0     C26466   7.622   9.347   3.460 -0.7021 -0.5594 -0.4395
  197MOL0     C26467   7.725   9.434   3.469 -0.3628  0.1548 -0.4112
  197MOL0     O26468   7.847   9.424   3.398  0.6344 -0.3056 -0.1598
  197MOL0     C26469   7.842   9.498   3.270 -0.2563  0.6843  0.2217
  197MOL0     C26470   7.986   9.489   3.219  0.8310  0.2785 -0.1471
  197MOL0     C26471   8.002   9.351   3.160  0.3957 -0.1007  0.2433
  197MOL0     C26472   8.135   9.341   3.073  0.6455  0.1533  1.4543
  197MOL0     C26473   8.250   9.366   3.163 -0.6987  0.7433 -0.0022
  197MOL0     C26474   8.372   9.298   3.090  0.3006  0.4470  0.2588
  197MOL0     C26475   8.417   9.347   2.956  0.5564 -0.4905 -0.3794
  197MOL0     C26476   8.461   9.493   2.955  0.2201 -0.7294  0.2057
  197MOL0     N26477   8.583   9.518   3.031  0.2128  0.4746  0.0263
  197MOL0     C26478   8.714   9.488   2.998 -1.0463  0.1023  0.4471
  197MOL0     C26479   8.790   9.512   3.108 -0.3637 -0.7439  0.3940
  197MOL0     C26480   8.931   9.502   3.114 -0.7881  0.0927 -0.2270
  197MOL0     C26481   9.016   9.593   3.025 -0.0337  0.1683 -0.7318
  197MOL0     C26482   9.166   9.576   3.059  0.0723  0.4540  0.8713
  197MOL0     C26483   9.255   9.671   2.980 -0.0893  0.9647 -0.2547
  197MOL0     O26484   9.388   9.651   3.031  0.1338 -0.0805 -0.1311
  197MOL0     C26485   9.483   9.735   2.979 -0.1109  0.6113 -0.8017
  197MOL0     C26486   9.453   9.840   2.895  0.2105  0.1613 -0.2077
  197MOL0     C26487   9.561   9.930   2.853  0.0060  0.5172 -0.0908
  197MOL0     C26488   9.695   9.901   2.878 -0.4791  0.3876 -0.7500
  197MOL0     C26489   9.809   9.989   2.839 -0.2599  0.5114  0.3400
  197MOL0     O26490   9.781  10.106   2.776  0.8819 -1.0650 -0.9405
  197MOL0     C26491   9.894  10.189   2.753  0.6029 -0.3746  0.9311
  197MOL0     C26492   9.989  10.163   2.646  0.0456 -0.1519 -0.3320
  197MOL0     C26493  10.095  10.256   2.620 -0.2048 -0.8567 -0.1358
  197MOL0     C26494  10.099  10.382   2.691  0.0228 -0.5528 -0.5095
  197MOL0     O26495  10.166  10.494   2.665 -0.3075  0.0468 -0.9394
  197MOL0     C26496  10.255  10.475   2.556  0.2590  0.4956 -0.6007
  197MOL0     C26497  10.327  10.612   2.534  0.0823 -0.1530  0.6470
  197MOL0     C26498  10.430  10.597   2.417  0.2689 -0.0532  0.0000
  197MOL0     C26499  10.537  10.707   2.431 -0.0915 -0.5213  0.1443
  197MOL0     C26500  10.626  10.702   2.305 -0.8771 -0.3871 -0.9202
  197MOL0     C26501  10.765  10.752   2.323  1.0534 -0.0626 -0.2375
  197MOL0     C26502  10.772  10.902   2.349  0.0980 -0.0079  0.3560
  197MOL0     C26503  10.913  10.971   2.347 -0.5565  0.1068  0.0590
  197MOL0    Cl26504  10.984  10.940   2.185  0.2507 -0.3775 -0.0632
  197MOL0     C26505  10.001  10.405   2.793 -0.5263  0.0214  0.3635
  197MOL0     C26506   9.901  10.312   2.814 -0.0717  0.5035  0.0097
  197MOL0     O26507   9.919   9.941   2.865  0.5597  0.4160 -0.3213
  197MOL0     C26508   9.710   9.785   2.962 -0.4871  0.0267  0.1089
  197MOL0     C26509   9.610   9.712   3.019 -0.2228 -0.7563 -0.0924
  197MOL0     N26510   8.708   9.586   3.190 -0.5654  0.1390  0.2062
  197MOL0     N26511   8.588   9.592   3.145  0.9466  0.1901  0.2037
  197MOL0     C26512   7.692   9.556   3.538  0.0973  0.1604  0.2279
  197MOL0     C26513   7.567   9.579   3.599 -0.4354 -0.0543 -0.1662
  197MOL0     C26514   7.180   9.574   3.804  0.0780  0.5158 -0.0183
  197MOL0     C26515   7.093   9.549   3.704  1.1746 -0.5170 -0.0357
  197MOL0     C26516   6.956   9.565   3.730  0.3680 -0.9084  0.7971
  197MOL0     C26517   6.901   9.600   3.855 -0.5061  0.4173  1.0195
  197MOL0     O26518   6.762   9.624   3.870  0.0176  0.5211 -0.2669
  197MOL0     C26519   6.688   9.508   3.907  0.5852  0.3036  1.0775
  197MOL0     C26520   6.596   9.457   3.791  0.3161  0.1361 -0.1588
  197MOL0     C26521   6.494   9.560   3.728  0.1736 -0.2138 -0.2435
  197MOL0     C26522   6.389   9.607   3.833  0.1710 -0.6474 -0.3364
  197MOL0     C26523   6.283   9.672   3.766 -0.2610 -0.2589 -0.1047
  197MOL0     C26524   6.181   9.704   3.719 -0.7002 -0.3002  0.5458
  197MOL0     C26525   6.991   9.625   3.959 -1.1901 -0.4537  0.1247
  197MOL0     C26526   7.135   9.611   3.933 -0.0091  0.2008 -0.0927
  197MOL0     C26527   7.231   9.650   4.049 -0.5773 -0.4096 -0.0284
  197MOL0     H26528   7.427   9.273   3.530  1.9525 -1.6137 -0.7740
  197MOL0     H26529   7.644   9.258   3.401  1.5992  0.7934 -1.7727
  197MOL0     H26530   7.768   9.454   3.203 -0.2232 -0.9306  1.2004
  197MOL0     H26531   7.801   9.599   3.282  0.2725  1.1279 -1.4097
  197MOL0     H26532   8.061   9.494   3.298 -0.2232 -4.8028  1.5786
  197MOL0     H26533   8.003   9.560   3.138  2.0884 -0.3901 -0.5000
  197MOL0     H26534   7.918   9.336   3.091  0.7415  2.3830 -0.8189
  197MOL0     H26535   8.004   9.264   3.227 -1.1678 -1.8947 -1.8748
  197MOL0     H26536   8.131   9.242   3.026 -1.6169  0.8967 -0.1014
  197MOL0     H26537   8.133   9.408   2.986 -0.3300 -0.4131  1.0184
  197MOL0     H26538   8.279   9.466   3.195  2.1321 -0.4269  1.4882
  197MOL0     H26539   8.231   9.304   3.251  1.1925  1.2689  0.8408
  197MOL0     H26540   8.457   9.294   3.158 -0.1220 -3.3345  0.7790
  197MOL0     H26541   8.346   9.192   3.087  0.6025  0.3849 -1.4204
  197MOL0     H26542   8.348   9.330   2.873  0.5328 -0.4018 -0.3780
  197MOL0     H26543   8.504   9.287   2.930  0.1387 -1.8120  1.1379
  197MOL0     H26544   8.470   9.532   2.853  0.3406  2.3882  1.2762
  197MOL0     H26545   8.380   9.561   2.983  0.6203  0.5534 -1.5055
  197MOL0     H26546   8.739   9.447   2.900  0.4625  0.9765  0.4413
  197MOL0     H26547   8.958   9.525   3.217 -3.9890  0.4700  0.6539
  197MOL0     H26548   8.959   9.401   3.083  3.4338  1.8791 -3.0601
  197MOL0     H26549   9.001   9.563   2.921  0.1101 -2.2904 -0.1112
  197MOL0     H26550   8.979   9.694   3.044  1.6479  0.5485  0.7998
  197MOL0     H26551   9.186   9.470   3.039 -2.6879 -0.0362  0.3142
  197MOL0     H26552   9.188   9.600   3.163  0.5728  0.9996  0.6413
  197MOL0     H26553   9.232   9.772   3.014  3.6814  2.0718 -0.5706
  197MOL0     H26554   9.252   9.650   2.873 -1.1920 -0.6106  0.0359
  197MOL0     H26555   9.353   9.868   2.864  0.4307 -0.2038 -1.2877
  197MOL0     H26556   9.527  10.020   2.802  1.2730  2.0651  1.6781
  197MOL0     H26557   9.984  10.067   2.594  4.0113 -0.9555  0.4209
  197MOL0     H26558  10.174  10.240   2.547  1.2864  0.4284  1.1224
  197MOL0     H26559  10.336  10.406   2.584 -1.0161 -0.2184  1.6018
  197MOL0     H26560  10.205  10.437   2.467  0.1233 -2.3709  0.5787
  197MOL0     H26561  10.267  10.703   2.526  1.7122  0.9793  0.7889
  197MOL0     H26562  10.372  10.636   2.631 -0.0176 -0.3991  0.7556
  197MOL0     H26563  10.482  10.501   2.411 -0.2187 -0.8403  4.7100
  197MOL0     H26564  10.369  10.617   2.329  2.0644  0.2929 -1.2186
  197MOL0     H26565  10.593  10.693   2.524 -0.2526  1.6080  0.6237
  197MOL0     H26566  10.501  10.810   2.438  0.1306 -0.5085  1.2945
  197MOL0     H26567  10.581  10.754   2.220 -0.8623 -0.2681 -0.8550
  197MOL0     H26568  10.644  10.600   2.268 -1.2965  0.0076 -2.2887
  197MOL0     H26569  10.814  10.700   2.406  1.3652 -1.4930 -1.2886
  197MOL0     H26570  10.823  10.724   2.235 -1.8439  0.4626 -2.4706
  197MOL0     H26571  10.738  10.931   2.450  0.8375 -0.4929  0.7509
  197MOL0     H26572  10.704  10.955   2.281 -1.2116 -0.5314  1.1977
  197MOL0     H26573  10.904  11.080   2.359 -1.2108  0.3367 -1.9599
  197MOL0     H26574  10.971  10.926   2.427 -1.5993 -0.1816  0.6764
  197MOL0     H26575   9.993  10.504   2.837 -1.8754 -0.5072  1.3953
  197MOL0     H26576   9.826  10.330   2.891  1.2294  0.7075  1.2876
  197MOL0     H26577   9.805   9.744   2.994 -0.4067 -0.9064 -1.2311
  197MOL0     H26578   9.634   9.624   3.079  1.8550  0.2160  0.5856
  197MOL0     H26579   7.763   9.637   3.548 -1.2091  1.2007  1.5330
  197MOL0     H26580   7.558   9.676   3.647  1.1698 -1.2412  2.8133
  197MOL0     H26581   7.133   9.532   3.605  2.9032 -2.2209  0.9028
  197MOL0     H26582   6.883   9.554   3.651 -0.8583 -0.8707  1.8901
  197MOL0     H26583   6.618   9.544   3.982 -1.3148  0.9664 -0.8902
  197MOL0     H26584   6.752   9.429   3.948  1.9975  1.2604  0.7870
  197MOL0     H26585   6.531   9.380   3.833 -0.3208 -0.3965 -2.0314
  197MOL0     H26586   6.660   9.408   3.717  0.6282  1.1297 -0.5590
  197MOL0     H26587   6.452   9.503   3.644 -0.0623 -1.9307  0.9935
  197MOL0     H26588   6.542   9.650   3.689  0.6726  0.7491  2.4110
  197MOL0     H26589   6.342   9.521   3.881  1.7946 -0.8307  1.0174
  197MOL0     H26590   6.429   9.661   3.919 -0.4678 -1.9231  0.8085
  197MOL0     H26591   6.082   9.724   3.682 -1.6120 -1.2583  2.3655
  197MOL0     H26592   6.960   9.646   4.061  0.4076 -1.4771  0.8610
  197MOL0     H26593   7.290   9.740   4.030 -1.4841 -0.0106 -1.0590
  197MOL0     H26594   7.168   9.666   4.138 -1.4919 -3.7790  0.0667
  197MOL0     H26595   7.295   9.563   4.066 -1.6039 -1.2105 -0.1276
  198MOL0     O26596   1.214   2.135   8.275 -0.3275 -0.7899 -0.3302
  198MOL0     C26597   1.256   2.023   8.288  0.3075 -1.1656 -0.2810
  198MOL0     O26598   1.381   1.984   8.263 -0.7805 -0.5214 -0.1873
  198MOL0     C26599   1.486   2.066   8.210  0.5591 -0.0163  0.4737
  198MOL0     C26600   1.577   2.008   8.128 -0.6124 -0.3672  0.3021
  198MOL0     C26601   1.673   2.080   8.058 -0.7587 -0.0696 -0.4907
  198MOL0     C26602   1.679   2.221   8.073 -0.0814 -0.1971 -0.0281
  198MOL0     O26603   1.747   2.318   8.003 -0.3973 -0.3161 -0.3462
  198MOL0     C26604   1.851   2.270   7.910  0.1486  0.5353 -0.0360
  198MOL0     C26605   1.910   2.398   7.847  0.1440 -0.2960  0.0279
  198MOL0     C26606   2.049   2.381   7.781  0.2417  0.6965  0.2965
  198MOL0     C26607   2.157   2.378   7.893  0.0553  0.1269  0.2830
  198MOL0     C26608   2.304   2.356   7.837  0.9403 -0.3650 -0.0042
  198MOL0     C26609   2.411   2.338   7.947  0.0308 -0.9997 -0.0774
  198MOL0     C26610   2.556   2.315   7.895 -0.8094 -0.4856 -0.4404
  198MOL0     C26611   2.589   2.169   7.862 -0.0746  0.7159 -0.1011
  198MOL0     N26612   2.708   2.150   7.782  0.2978 -0.0326  0.0719
  198MOL0     C26613   2.845   2.165   7.823  0.0036  0.0672 -0.4344
  198MOL0     C26614   2.917   2.155   7.711  0.3261  0.3989  0.0012
  198MOL0     C26615   3.066   2.155   7.692  0.9121  0.1240 -0.5743
  198MOL0     C26616   3.126   2.036   7.622  0.0791 -0.2981  0.0095
  198MOL0     C26617   3.150   2.036   7.470 -0.2633  0.1354  0.4112
  198MOL0     C26618   3.177   2.169   7.397 -0.7649  0.3818 -0.1362
  198MOL0     O26619   3.285   2.248   7.448 -0.3845 -0.6522  0.1146
  198MOL0     C26620   3.413   2.206   7.447 -0.2757  0.2000 -0.6578
  198MOL0     C26621   3.457   2.090   7.385  0.4620  0.0911  1.1961
  198MOL0     C26622   3.595   2.067   7.381 -0.0480 -0.5785  0.6261
  198MOL0     C26623   3.689   2.149   7.449 -0.0265 -0.1117  0.4001
  198MOL0     C26624   3.832   2.126   7.447  0.2179  0.5675 -0.2467
  198MOL0     O26625   3.908   2.211   7.517  0.3159 -0.8228 -0.0791
  198MOL0     C26626   4.026   2.183   7.589  0.1639  0.5740 -0.5898
  198MOL0     C26627   4.120   2.280   7.603 -0.5454  0.1724  0.2092
  198MOL0     C26628   4.238   2.251   7.678  0.2558 -0.0659  1.3419
  198MOL0     C26629   4.248   2.126   7.739 -1.2863 -0.0826  0.0946
  198MOL0     O26630   4.353   2.107   7.826  0.0577  0.0553  0.0888
  198MOL0     C26631   4.383   1.982   7.891 -0.2482  0.6910  0.0288
  198MOL0     C26632   4.517   2.010   7.956  0.3440  0.1283  0.4800
  198MOL0     C26633   4.642   2.024   7.865 -0.6773  0.4151  0.7036
  198MOL0     C26634   4.721   1.898   7.837 -0.0338  0.2800  0.7848
  198MOL0     C26635   4.838   1.906   7.739  0.0259  0.1516 -0.5065
  198MOL0     C26636   4.963   1.939   7.804 -0.7086 -0.4173 -0.3584
  198MOL0     C26637   5.092   1.949   7.709  0.8624 -0.6208  0.2103
  198MOL0     C26638   5.218   1.982   7.793 -0.1102  0.8213  0.4385
  198MOL0    Cl26639   5.296   1.844   7.847 -0.2721  0.2902 -0.6662
  198MOL0     C26640   4.154   2.025   7.714 -0.9964 -0.4677 -0.1264
  198MOL0     C26641   4.049   2.053   7.637 -0.2817  0.2371  0.0156
  198MOL0     O26642   3.874   2.024   7.397 -0.0831 -0.5145  0.5494
  198MOL0     C26643   3.635   2.265   7.511  0.6495  0.1329 -0.4270
  198MOL0     C26644   3.500   2.294   7.519 -0.1878  0.2426 -0.0396
  198MOL0     N26645   2.833   2.126   7.605  0.1161 -0.1413  0.7162
  198MOL0     N26646   2.709   2.130   7.652  0.5321 -0.1324  0.3425
  198MOL0     C26647   1.595   2.279   8.172  0.6347 -0.5236  0.6426
  198MOL0     C26648   1.501   2.201   8.229  0.2681  0.4861 -1.7200
  198MOL0     C26649   1.157   1.929   8.340  0.1046  0.0358 -0.5509
  198MOL0     C26650   1.020   1.955   8.316 -0.1325  1.1697  0.9137
  198MOL0     C26651   0.919   1.877   8.365 -0.3275 -0.3824  0.2768
  198MOL0     C26652   0.953   1.764   8.439 -0.0193  0.4076  0.4366
  198MOL0     O26653   0.855   1.678   8.483 -0.5070 -0.3075  0.1791
  198MOL0     C26654   0.721   1.652   8.428 -0.0858 -0.6238 -0.0112
  198MOL0     C26655   0.719   1.592   8.286  1.1479 -0.4700 -0.6292
  198MOL0     C26656   0.823   1.482   8.261  0.5430 -0.1722 -0.1490
  198MOL0     C26657   0.792   1.416   8.128 -0.3323 -0.2942  0.0450
  198MOL0     C26658   0.914   1.347   8.074 -0.3937 -0.0120  0.6022
  198MOL0     C26659   1.015   1.274   8.052  0.3515 -0.4888 -1.0818
  198MOL0     C26660   1.088   1.730   8.458 -0.8010 -0.2009 -0.4771
  198MOL0     C26661   1.191   1.813   8.415 -0.6039  0.1871  0.0877
  198MOL0     C26662   1.338   1.774   8.448 -0.7516  0.0372 -0.3731
  198MOL0     H26663   1.564   1.903   8.106  4.1478 -1.8284  3.0402
  198MOL0     H26664   1.749   2.040   7.991  1.4803 -1.3549  2.5359
  198MOL0     H26665   1.924   2.206   7.960 -0.9124 -0.7268 -0.0342
  198MOL0     H26666   1.806   2.206   7.833 -1.9152  2.3752 -0.4463
  198MOL0     H26667   1.924   2.471   7.928 -0.7200  0.8383 -0.8120
  198MOL0     H26668   1.838   2.449   7.781  0.2731  2.0875  1.6022
  198MOL0     H26669   2.066   2.465   7.713  4.6908 -0.1425  0.0206
  198MOL0     H26670   2.062   2.285   7.731  1.5722  0.1122  1.6592
  198MOL0     H26671   2.163   2.472   7.950  0.9344 -0.3085  0.9275
  198MOL0     H26672   2.136   2.293   7.959  1.6815 -2.0817 -1.8936
  198MOL0     H26673   2.307   2.271   7.769 -2.2765  0.6256 -1.6102
  198MOL0     H26674   2.330   2.447   7.781  0.2126 -0.3454 -0.3263
  198MOL0     H26675   2.413   2.425   8.013 -0.2222 -0.0178 -1.3326
  198MOL0     H26676   2.386   2.245   8.000  0.4636 -1.4410 -0.6444
  198MOL0     H26677   2.629   2.352   7.968 -0.0149 -1.3127 -0.7838
  198MOL0     H26678   2.583   2.368   7.803  2.6983  0.2062  0.8454
  198MOL0     H26679   2.603   2.119   7.959  1.2013  2.4959  0.6957
  198MOL0     H26680   2.506   2.122   7.810 -0.7716  2.1917 -0.3719
  198MOL0     H26681   2.883   2.197   7.919 -0.4390  2.4000 -0.9839
  198MOL0     H26682   3.092   2.248   7.642 -0.3481  1.9156  1.8947
  198MOL0     H26683   3.115   2.175   7.787  0.4916 -0.1978 -0.2857
  198MOL0     H26684   3.228   2.025   7.659  0.7300 -0.4701 -1.7339
  198MOL0     H26685   3.070   1.945   7.646 -0.3574  0.5091  2.2901
  198MOL0     H26686   3.049   2.006   7.438  0.1787 -0.7314 -0.2026
  198MOL0     H26687   3.217   1.955   7.440  1.1676  0.7709  1.7779
  198MOL0     H26688   3.089   2.233   7.403 -0.9051  0.1973 -0.2137
  198MOL0     H26689   3.189   2.141   7.292 -1.5092 -4.6125  0.8345
  198MOL0     H26690   3.389   2.029   7.328 -1.0915  0.8187  2.1991
  198MOL0     H26691   3.626   1.981   7.322 -0.0077 -0.6512  0.7550
  198MOL0     H26692   4.102   2.375   7.553 -0.5809  0.6667  1.1515
  198MOL0     H26693   4.317   2.326   7.685  0.5016 -0.1449 -0.2548
  198MOL0     H26694   4.304   1.960   7.964 -1.1608  0.0052 -1.1217
  198MOL0     H26695   4.389   1.894   7.827 -0.2047  0.8238 -0.1503
  198MOL0     H26696   4.502   2.095   8.022 -1.2632 -1.6387  2.5602
  198MOL0     H26697   4.528   1.928   8.028  3.1108 -0.8770 -0.9526
  198MOL0     H26698   4.611   2.065   7.768  1.5482  0.8983  0.1425
  198MOL0     H26699   4.705   2.107   7.897 -0.3676  0.5117 -0.1245
  198MOL0     H26700   4.648   1.832   7.788 -1.3175  1.9115  0.4267
  198MOL0     H26701   4.759   1.861   7.933  0.8251 -0.2026  0.2748
  198MOL0     H26702   4.822   1.975   7.656 -2.8547  0.7227  0.4024
  198MOL0     H26703   4.849   1.802   7.704  1.6564 -0.4782  1.7003
  198MOL0     H26704   4.950   2.037   7.852  0.3277  0.0835 -1.0786
  198MOL0     H26705   4.975   1.870   7.888 -2.6451 -1.0778 -0.5743
  198MOL0     H26706   5.066   2.029   7.639 -1.1876  0.2521  1.8463
  198MOL0     H26707   5.112   1.859   7.651  1.4174 -1.3824  1.5363
  198MOL0     H26708   5.288   2.025   7.720 -0.7949  1.9224  0.4219
  198MOL0     H26709   5.206   2.044   7.882  1.4904 -2.5210  3.2189
  198MOL0     H26710   4.153   1.928   7.761 -0.2877  0.3442  1.6963
  198MOL0     H26711   3.970   1.981   7.622  1.2770 -1.0320 -2.9210
  198MOL0     H26712   3.691   2.349   7.551  0.3822 -0.3396  0.9812
  198MOL0     H26713   3.463   2.380   7.574 -2.3207  0.0198 -1.0241
  198MOL0     H26714   1.596   2.386   8.185  0.7293 -0.5820  1.1416
  198MOL0     H26715   1.434   2.254   8.295  2.2072 -0.5467  1.2936
  198MOL0     H26716   1.009   2.036   8.245 -1.3150 -0.5624 -1.0095
  198MOL0     H26717   0.823   1.918   8.337 -1.1359 -2.0892  0.4201
  198MOL0     H26718   0.667   1.747   8.421 -1.0387 -1.1596 -0.0627
  198MOL0     H26719   0.666   1.592   8.500  0.3379 -2.1719 -0.9367
  198MOL0     H26720   0.737   1.673   8.215 -2.2713  0.7562 -0.2995
  198MOL0     H26721   0.617   1.552   8.276  0.5552  0.8402 -0.0915
  198MOL0     H26722   0.802   1.408   8.339 -1.2841 -0.2398 -0.6468
  198MOL0     H26723   0.928   1.510   8.272  1.2829 -2.2988 -1.2333
  198MOL0     H26724   0.719   1.334   8.135  0.0090 -0.6900 -0.8831
  198MOL0     H26725   0.744   1.486   8.059  1.3802  0.5678 -0.3305
  198MOL0     H26726   1.103   1.218   8.026  0.3418 -1.1960  0.3314
  198MOL0     H26727   1.109   1.635   8.505 -0.0652  0.3057  0.2399
  198MOL0     H26728   1.379   1.721   8.361 -0.7391 -1.8527  0.7346
  198MOL0     H26729   1.400   1.858   8.481 -1.4623  0.3231  0.2688
  198MOL0     H26730   1.341   1.699   8.528 -1.0527  2.6317  2.2588
  199MOL0     O26731   6.073   9.231   0.174  0.0930  0.5670 -0.4450
  199MOL0     C26732   6.012   9.198   0.270  0.2279 -0.0620 -0.9135
  199MOL0     O26733   6.069   9.176   0.395 -0.3123  0.2539 -0.7708
  199MOL0     C26734   6.206   9.190   0.411  0.3380 -1.1391  1.2997
  199MOL0     C26735   6.276   9.109   0.500  0.5202 -0.1333  0.1882
  199MOL0     C26736   6.414   9.130   0.531 -0.4747 -0.4441 -0.0119
  199MOL0     C26737   6.476   9.245   0.496 -1.0372 -0.1678  0.3284
  199MOL0     O26738   6.607   9.282   0.538 -0.1411  0.5651 -0.3952
  199MOL0     C26739   6.711   9.186   0.501 -0.2693  0.3120 -0.1594
  199MOL0     C26740   6.841   9.204   0.579 -0.3709 -0.6971  0.5555
  199MOL0     C26741   6.954   9.155   0.492 -0.5366  0.3351 -0.3977
  199MOL0     C26742   7.085   9.178   0.558  0.0722 -0.1802 -0.1847
  199MOL0     C26743   7.201   9.137   0.482 -0.3255  0.2526 -0.3907
  199MOL0     C26744   7.330   9.168   0.556  0.1304  0.4815  0.4549
  199MOL0     C26745   7.456   9.115   0.486 -0.9357  0.3188 -0.3911
  199MOL0     C26746   7.582   9.161   0.561 -0.1514  0.5552  0.2257
  199MOL0     N26747   7.711   9.126   0.502  0.6092  0.1273 -0.2523
  199MOL0     C26748   7.790   9.212   0.434 -0.6306 -0.0329 -0.6486
  199MOL0     C26749   7.894   9.132   0.393 -0.0276 -0.6249  0.2945
  199MOL0     C26750   8.026   9.182   0.343 -0.0694  0.3752 -0.0584
  199MOL0     C26751   8.069   9.099   0.230  0.0284  0.5552 -0.7670
  199MOL0     C26752   8.182   9.174   0.152 -0.0239 -0.2235  0.6343
  199MOL0     C26753   8.306   9.206   0.230 -0.0842  0.3841 -0.2870
  199MOL0     O26754   8.386   9.296   0.162  0.5303 -0.0620 -0.3123
  199MOL0     C26755   8.520   9.324   0.202  0.4848 -0.3631 -0.2089
  199MOL0     C26756   8.587   9.240   0.293 -0.1958 -0.0839 -0.5346
  199MOL0     C26757   8.716   9.284   0.338  0.4264 -0.3755 -0.4912
  199MOL0     C26758   8.768   9.409   0.306 -0.3990  0.6003  0.2887
  199MOL0     C26759   8.905   9.441   0.345  0.3666  0.5192  0.4934
  199MOL0     O26760   8.987   9.475   0.241 -0.1956 -0.3650  0.1459
  199MOL0     C26761   9.118   9.497   0.284 -0.7255  0.4131  0.4773
  199MOL0     C26762   9.164   9.628   0.277 -0.1789  0.1502  0.3636
  199MOL0     C26763   9.295   9.659   0.323  0.3302  0.0618  1.3962
  199MOL0     C26764   9.379   9.558   0.377  0.1103  0.2812 -0.0631
  199MOL0     O26765   9.502   9.580   0.440 -0.3258 -0.0377  1.0010
  199MOL0     C26766   9.548   9.715   0.415 -0.9919  0.0184  0.3756
  199MOL0     C26767   9.683   9.732   0.496  0.3677  0.1856 -0.2396
  199MOL0     C26768   9.712   9.872   0.525 -0.2305  0.1780 -0.0266
  199MOL0     C26769   9.848   9.888   0.604  0.1398  0.0800  0.4430
  199MOL0     C26770   9.916  10.022   0.613 -0.2535  0.1632 -0.5839
  199MOL0     C26771  10.068  10.017   0.666  0.7059  0.8914 -0.4409
  199MOL0     C26772  10.156  10.096   0.566  0.0232  0.8878 -0.2317
  199MOL0     C26773  10.277  10.150   0.630 -0.3733  0.2314  0.4018
  199MOL0    Cl26774  10.377  10.019   0.727  0.3005  0.1955 -0.2376
  199MOL0     C26775   9.340   9.421   0.372 -0.3647 -0.1328  0.0400
  199MOL0     C26776   9.209   9.391   0.328  0.3487 -0.0263 -0.1269
  199MOL0     O26777   8.945   9.419   0.455 -0.2392  0.4289 -0.4401
  199MOL0     C26778   8.697   9.486   0.212  0.1424  0.6556  0.2152
  199MOL0     C26779   8.577   9.437   0.159  0.5575 -0.1680  0.6349
  199MOL0     N26780   7.890   9.018   0.451  0.0528 -0.1691 -1.0100
  199MOL0     N26781   7.771   9.009   0.508  0.3146  0.1753 -0.6036
  199MOL0     C26782   6.406   9.334   0.411 -0.3652  0.0352 -0.5549
  199MOL0     C26783   6.278   9.309   0.374  0.0498  0.6995  0.4937
  199MOL0     C26784   5.862   9.167   0.264 -0.0382 -0.4319  0.3726
  199MOL0     C26785   5.801   9.124   0.380  0.0800 -0.6517 -0.5111
  199MOL0     C26786   5.671   9.073   0.385  0.6813 -1.7069  0.2716
  199MOL0     C26787   5.586   9.079   0.273 -0.1247  0.2044  0.5030
  199MOL0     O26788   5.459   9.044   0.271  0.3805 -0.0111 -0.1460
  199MOL0     C26789   5.373   9.136   0.331 -0.2902  0.7985 -0.5736
  199MOL0     C26790   5.230   9.080   0.348  0.6776 -0.2325 -0.0987
  199MOL0     C26791   5.172   9.026   0.210 -1.0024  0.2033  0.0087
  199MOL0     C26792   5.133   9.152   0.124  0.1578 -0.5958 -0.8963
  199MOL0     C26793   5.009   9.227   0.170 -0.1248  0.0139 -0.1899
  199MOL0     C26794   4.911   9.277   0.227  0.0586 -0.0599  0.0550
  199MOL0     C26795   5.641   9.114   0.153 -0.4030 -0.0104  0.8573
  199MOL0     C26796   5.778   9.162   0.144  0.4848 -0.1332 -0.3959
  199MOL0     C26797   5.828   9.215   0.016 -0.3423 -0.7900 -0.5863
  199MOL0     H26798   6.222   9.029   0.550 -0.2286 -0.4508 -1.0926
  199MOL0     H26799   6.456   9.057   0.599 -0.0967 -1.0911 -0.9310
  199MOL0     H26800   6.683   9.082   0.518  1.6679 -0.1925  0.2271
  199MOL0     H26801   6.733   9.194   0.394  3.4177 -1.1378  0.3227
  199MOL0     H26802   6.841   9.143   0.670  0.6537  1.0286  1.7654
  199MOL0     H26803   6.852   9.312   0.595  0.3584 -0.3567 -1.9105
  199MOL0     H26804   6.949   9.193   0.389 -2.0548 -1.7818 -1.1820
  199MOL0     H26805   6.950   9.046   0.491  1.8620  0.1997 -0.4842
  199MOL0     H26806   7.088   9.286   0.570 -1.0187 -0.3353  1.9700
  199MOL0     H26807   7.073   9.134   0.657  2.0752  1.5978  0.9227
  199MOL0     H26808   7.193   9.029   0.466 -1.8490  0.6222 -2.6447
  199MOL0     H26809   7.201   9.183   0.383  1.5013  0.0067 -0.5443
  199MOL0     H26810   7.337   9.277   0.565 -2.6529  0.7757 -0.1197
  199MOL0     H26811   7.321   9.127   0.657 -0.9050 -1.9610 -0.5513
  199MOL0     H26812   7.458   9.157   0.385  1.3651  1.8164  0.1954
  199MOL0     H26813   7.451   9.008   0.464  2.3203 -0.0993  0.3527
  199MOL0     H26814   7.582   9.268   0.584 -0.9445  0.3628  1.1724
  199MOL0     H26815   7.577   9.107   0.655  1.6642  0.8839  0.5515
  199MOL0     H26816   7.777   9.318   0.416 -3.1303 -0.4127 -1.4534
  199MOL0     H26817   8.014   9.281   0.298 -2.6444  1.0441  1.8185
  199MOL0     H26818   8.093   9.184   0.429  0.5415  3.2847 -0.4995
  199MOL0     H26819   8.111   9.011   0.280  1.1126  1.8374  0.6813
  199MOL0     H26820   7.985   9.070   0.166 -2.2435  2.0714  1.3223
  199MOL0     H26821   8.140   9.266   0.110  0.7676  0.7181  1.8493
  199MOL0     H26822   8.212   9.112   0.067  1.9024  0.8907  0.4319
  199MOL0     H26823   8.361   9.112   0.237 -1.3607 -0.7235 -3.5060
  199MOL0     H26824   8.283   9.243   0.331 -1.4799  1.6289 -1.0178
  199MOL0     H26825   8.551   9.141   0.318  1.4886 -0.5351  0.2758
  199MOL0     H26826   8.774   9.216   0.401 -0.1068  1.1855  1.8013
  199MOL0     H26827   9.101   9.713   0.251  0.1043  0.6043  1.1403
  199MOL0     H26828   9.322   9.764   0.321  1.6004 -0.2220 -1.7781
  199MOL0     H26829   9.574   9.736   0.311 -0.4714 -0.7225  0.3539
  199MOL0     H26830   9.482   9.793   0.456  1.2276  1.8224  0.7074
  199MOL0     H26831   9.674   9.677   0.590 -3.2508  1.7727  0.5078
  199MOL0     H26832   9.756   9.684   0.430 -0.4735 -1.6406  0.0914
  199MOL0     H26833   9.715   9.934   0.435 -0.2667  0.1220 -0.0663
  199MOL0     H26834   9.632   9.910   0.589  0.5517  0.4276  0.8459
  199MOL0     H26835   9.922   9.817   0.564  0.7208  1.1090 -0.3482
  199MOL0     H26836   9.834   9.860   0.709 -1.8006  1.9265  0.7495
  199MOL0     H26837   9.852  10.090   0.671 -1.0443 -1.9087  1.0937
  199MOL0     H26838   9.918  10.065   0.512  1.6181  3.3814  0.6578
  199MOL0     H26839  10.080  10.052   0.769  3.0634  0.8730 -0.6584
  199MOL0     H26840  10.099   9.913   0.674 -3.4397 -0.3534  3.0221
  199MOL0     H26841  10.106  10.188   0.534 -1.5616 -0.7588 -2.9125
  199MOL0     H26842  10.188  10.025   0.489  0.4523 -1.4977  1.9927
  199MOL0     H26843  10.344  10.193   0.555 -1.1335  1.1262  0.2183
  199MOL0     H26844  10.244  10.228   0.700 -0.7836 -0.9077  1.5020
  199MOL0     H26845   9.404   9.350   0.423  0.2428  1.9716  2.4073
  199MOL0     H26846   9.185   9.285   0.324 -2.1989  0.5225 -1.3491
  199MOL0     H26847   8.755   9.572   0.178  0.5834  0.3385  0.1481
  199MOL0     H26848   8.518   9.494   0.087  0.1293 -1.4689 -0.0719
  199MOL0     H26849   6.463   9.419   0.377 -0.5961  1.7561  2.9081
  199MOL0     H26850   6.231   9.385   0.312  1.5441  0.5489 -0.9094
  199MOL0     H26851   5.869   9.124   0.465  0.2543 -0.9993 -0.6487
  199MOL0     H26852   5.645   9.035   0.483  2.4653  0.7124  1.7786
  199MOL0     H26853   5.375   9.227   0.270  0.5510  0.7074 -0.7068
  199MOL0     H26854   5.413   9.165   0.429  1.6191 -0.7470 -0.8335
  199MOL0     H26855   5.156   9.139   0.403 -0.0599  0.4613 -1.7759
  199MOL0     H26856   5.242   8.990   0.409  1.7608 -0.1855 -0.2228
  199MOL0     H26857   5.090   8.956   0.220 -1.1779  0.1344 -1.6997
  199MOL0     H26858   5.248   8.960   0.166 -1.4364 -0.0462 -0.3696
  199MOL0     H26859   5.222   9.215   0.129  0.8829 -1.5192 -1.7886
  199MOL0     H26860   5.119   9.131   0.018 -2.3946  1.2686 -1.0117
  199MOL0     H26861   4.821   9.317   0.268 -0.1940 -2.1042  1.6782
  199MOL0     H26862   5.583   9.104   0.063 -0.0383 -0.6360  0.6852
  199MOL0     H26863   5.924   9.174  -0.015  1.1362  0.6973  1.7030
  199MOL0     H26864   5.757   9.200  -0.067 -2.0375  1.6364  0.2936
  199MOL0     H26865   5.856   9.321   0.023  0.7633 -0.9099 -2.4687
  200MOL0     O26866   7.916  10.349   1.380 -0.2929  0.6464  0.2346
  200MOL0     C26867   7.830  10.428   1.350  0.3647 -0.6388 -0.1230
  200MOL0     O26868   7.854  10.541   1.272  0.2293  0.4940 -0.0597
  200MOL0     C26869   7.981  10.542   1.212  0.3823 -0.1768 -0.0370
  200MOL0     C26870   8.087  10.604   1.272 -0.4029 -0.8136 -0.4416
  200MOL0     C26871   8.209  10.604   1.202  0.8122  0.1533  0.9532
  200MOL0     C26872   8.237  10.552   1.071  0.1029 -0.2088 -0.9218
  200MOL0     O26873   8.368  10.559   1.022  0.8092  0.1995  0.0314
  200MOL0     C26874   8.478  10.601   1.092 -0.5139  0.0281 -0.2571
  200MOL0     C26875   8.604  10.563   1.016 -0.3578  0.6247 -0.6077
  200MOL0     C26876   8.620  10.627   0.880 -0.6821  0.4048  0.2562
  200MOL0     C26877   8.715  10.549   0.796  0.0100  0.2061  0.0475
  200MOL0     C26878   8.717  10.603   0.649 -0.5382  0.6254 -0.5690
  200MOL0     C26879   8.841  10.546   0.567  0.1242 -0.5147 -0.9475
  200MOL0     C26880   8.808  10.549   0.409  0.6685 -0.1455  0.0031
  200MOL0     C26881   8.811  10.686   0.344 -0.8768  0.1113 -0.0246
  200MOL0     N26882   8.893  10.791   0.409  0.2095  0.2782  0.5243
  200MOL0     C26883   8.857  10.919   0.421  0.2106  0.4363  0.0618
  200MOL0     C26884   8.971  10.991   0.417  0.7232 -0.1456  0.6742
  200MOL0     C26885   8.988  11.136   0.449  0.3486 -0.4658 -0.8467
  200MOL0     C26886   9.109  11.194   0.375  0.4694 -0.1681  0.3633
  200MOL0     C26887   9.116  11.182   0.219  0.1224 -0.3528  0.5537
  200MOL0     C26888   9.229  11.261   0.162  0.3804  0.5339  0.3757
  200MOL0     O26889   9.358  11.238   0.211 -0.1983  0.1316 -0.3486
  200MOL0     C26890   9.444  11.349   0.193 -0.1070 -1.0408 -0.2201
  200MOL0     C26891   9.448  11.451   0.286  0.3536  0.0348 -0.7903
  200MOL0     C26892   9.538  11.557   0.267  0.3289 -0.4489  0.1622
  200MOL0     C26893   9.607  11.573   0.148 -0.2515  0.3482  0.6887
  200MOL0     C26894   9.706  11.685   0.133  0.1145 -0.3778 -1.1065
  200MOL0     O26895   9.705  11.776   0.233 -0.2307 -0.0342  0.3861
  200MOL0     C26896   9.785  11.884   0.235 -0.6998  0.0288 -1.0318
  200MOL0     C26897   9.927  11.878   0.209 -0.3006 -0.7121 -0.4461
  200MOL0     C26898  10.008  11.997   0.199  0.6257  0.0725  0.0329
  200MOL0     C26899   9.948  12.117   0.236  0.8566  0.0453 -0.4145
  200MOL0     O26900  10.020  12.236   0.225 -0.2231  0.0575 -0.0611
  200MOL0     C26901   9.956  12.364   0.205 -0.3961 -0.5258  0.1747
  200MOL0     C26902  10.070  12.461   0.157  0.7845 -1.1984  0.7733
  200MOL0     C26903  10.025  12.607   0.189 -0.2459  0.4078  0.3627
  200MOL0     C26904  10.099  12.706   0.095  0.4435 -0.6086  0.2161
  200MOL0     C26905  10.092  12.852   0.152  0.1433  0.8392  0.2069
  200MOL0     C26906  10.196  12.934   0.081 -0.6090 -1.0975 -0.1436
  200MOL0     C26907  10.170  13.087   0.111  0.8647 -0.3849  0.0662
  200MOL0     C26908  10.168  13.133   0.255 -0.5077  0.9875 -0.2997
  200MOL0    Cl26909  10.110  13.306   0.259  0.4033  0.1110 -0.1190
  200MOL0     C26910   9.816  12.120   0.286  0.3347 -0.3567  0.7237
  200MOL0     C26911   9.731  12.007   0.284 -0.6856 -0.5500  1.1875
  200MOL0     O26912   9.782  11.682   0.042  0.2604 -0.3084  0.3209
  200MOL0     C26913   9.594  11.478   0.046  0.0553  0.9514 -0.1709
  200MOL0     C26914   9.521  11.364   0.069  0.0835 -0.4876 -0.5762
  200MOL0     N26915   9.080  10.898   0.414  0.2066 -0.7755 -0.1759
  200MOL0     N26916   9.028  10.782   0.414 -0.3035  0.4070 -0.3291
  200MOL0     C26917   8.125  10.497   1.013  0.2026  0.7145 -0.4931
  200MOL0     C26918   8.001  10.494   1.073  0.4138  0.7841 -1.2661
  200MOL0     C26919   7.689  10.404   1.397  0.0223 -0.3383  0.0432
  200MOL0     C26920   7.663  10.276   1.453  0.4076  0.4003 -0.3698
  200MOL0     C26921   7.541  10.245   1.509  0.2465  0.8602  0.3026
  200MOL0     C26922   7.431  10.339   1.507  0.8641  0.0451  0.9837
  200MOL0     O26923   7.304  10.321   1.556  0.1613  0.2248 -0.6242
  200MOL0     C26924   7.277  10.185   1.600 -0.1583 -0.1586  0.1294
  200MOL0     C26925   7.131  10.160   1.617 -0.2413  0.1046 -0.1294
  200MOL0     C26926   7.090  10.025   1.669 -0.7637 -0.1433 -0.3749
  200MOL0     C26927   6.938  10.001   1.670 -0.4265 -0.4023 -0.0892
  200MOL0     C26928   6.896   9.861   1.681  0.3919 -0.2882  0.3410
  200MOL0     C26929   6.866   9.740   1.687 -0.4894 -0.2321  0.1444
  200MOL0     C26930   7.456  10.468   1.446 -0.9225 -0.3679  0.3610
  200MOL0     C26931   7.588  10.503   1.392 -0.0598 -0.1018 -0.4063
  200MOL0     C26932   7.614  10.644   1.374 -0.6427 -0.5327 -0.5542
  200MOL0     H26933   8.071  10.645   1.371 -0.0354 -2.2121  0.2079
  200MOL0     H26934   8.288  10.644   1.265 -0.2670  2.3900  0.9938
  200MOL0     H26935   8.475  10.706   1.123 -1.5646  0.0413 -0.3798
  200MOL0     H26936   8.478  10.552   1.190  0.5949  1.8321  0.7008
  200MOL0     H26937   8.591  10.455   1.003  0.2399  0.7177 -2.1697
  200MOL0     H26938   8.697  10.573   1.073 -1.5458 -3.2345  2.4905
  200MOL0     H26939   8.653  10.731   0.887 -1.3434  0.5079  2.3668
  200MOL0     H26940   8.519  10.627   0.837 -2.1153  2.2443  3.2876
  200MOL0     H26941   8.816  10.551   0.839  0.9364  0.3580 -1.9885
  200MOL0     H26942   8.682  10.445   0.793 -0.5102  0.3878 -0.8751
  200MOL0     H26943   8.622  10.570   0.607 -1.3428  0.7712  1.0316
  200MOL0     H26944   8.710  10.712   0.646  0.6843  0.8070  1.3137
  200MOL0     H26945   8.933  10.603   0.587 -1.5243  2.6123 -1.6075
  200MOL0     H26946   8.872  10.448   0.605 -1.0872 -1.0225 -1.2445
  200MOL0     H26947   8.709  10.508   0.390  1.6115 -2.0683 -1.0554
  200MOL0     H26948   8.872  10.477   0.357  1.0363  0.2990 -0.1637
  200MOL0     H26949   8.852  10.671   0.244 -0.8480 -1.2138  0.1641
  200MOL0     H26950   8.711  10.723   0.321 -0.5861  0.4193 -0.8054
  200MOL0     H26951   8.753  10.948   0.414 -0.5835 -2.5153 -3.2613
  200MOL0     H26952   8.900  11.194   0.420  0.5352 -0.4920 -1.4709
  200MOL0     H26953   8.999  11.150   0.557 -1.8012  3.8721 -0.9939
  200MOL0     H26954   9.117  11.294   0.419 -2.9340 -0.4205  1.9186
  200MOL0     H26955   9.195  11.140   0.418 -0.8580 -1.8858  0.9877
  200MOL0     H26956   9.024  11.214   0.170  2.2207  1.9027 -2.2427
  200MOL0     H26957   9.123  11.075   0.198  0.8118 -0.0296 -0.9621
  200MOL0     H26958   9.201  11.364   0.181  0.8192  0.5294  1.0894
  200MOL0     H26959   9.227  11.243   0.054 -0.4957  2.9336 -0.0661
  200MOL0     H26960   9.374  11.446   0.365 -0.7665  0.0797 -1.8030
  200MOL0     H26961   9.541  11.635   0.342 -1.3202  1.1644 -1.3210
  200MOL0     H26962   9.983  11.788   0.187  0.9839 -0.2255  0.6587
  200MOL0     H26963  10.114  12.009   0.178  0.5094  1.9900  0.3122
  200MOL0     H26964   9.879  12.350   0.128 -2.9313  0.2738  2.4052
  200MOL0     H26965   9.906  12.395   0.297  1.3543 -2.6266  1.9436
  200MOL0     H26966  10.165  12.454   0.210  1.3188 -0.1061  0.0055
  200MOL0     H26967  10.079  12.443   0.049 -0.6902  0.1547  0.3919
  200MOL0     H26968   9.920  12.629   0.167 -0.4746  0.0124  1.0131
  200MOL0     H26969  10.035  12.630   0.295 -1.8852  0.0271  0.6304
  200MOL0     H26970  10.062  12.710  -0.007  2.2385 -1.4107 -0.5228
  200MOL0     H26971  10.206  12.683   0.093  0.4969 -0.6812  2.1346
  200MOL0     H26972  10.118  12.855   0.258 -1.3025  1.0701  0.5737
  200MOL0     H26973   9.992  12.897   0.154 -0.7498 -1.0437  2.4796
  200MOL0     H26974  10.301  12.913   0.105 -0.5913  0.1410  0.9548
  200MOL0     H26975  10.186  12.919  -0.027 -0.2940 -0.5671 -0.2520
  200MOL0     H26976  10.078  13.116   0.061  1.4282  0.2017 -0.6607
  200MOL0     H26977  10.240  13.156   0.063 -1.3515  3.7728  2.2829
  200MOL0     H26978  10.100  13.080   0.322  1.3808  1.9035  2.5002
  200MOL0     H26979  10.270  13.132   0.292  0.5277  3.2547 -2.7409
  200MOL0     H26980   9.774  12.215   0.320  3.5667  0.8746  1.6205
  200MOL0     H26981   9.628  12.010   0.318 -1.2638  4.7315 -0.1180
  200MOL0     H26982   9.648  11.488  -0.047 -1.3166  1.7813 -0.9074
  200MOL0     H26983   9.518  11.280   0.000  1.2399 -0.0821 -1.1316
  200MOL0     H26984   8.127  10.460   0.911 -0.2358  3.4147 -1.5657
  200MOL0     H26985   7.915  10.461   1.016 -0.4628 -1.9800  1.3566
  200MOL0     H26986   7.735  10.197   1.475  0.0954  0.7042  1.9764
  200MOL0     H26987   7.529  10.147   1.554 -0.2923  1.5498  1.7251
  200MOL0     H26988   7.310  10.178   1.704  1.9084  1.6624 -0.3200
  200MOL0     H26989   7.313  10.110   1.529  1.7881  1.5301 -0.7857
  200MOL0     H26990   7.086  10.182   1.519 -4.4474 -0.2133  1.5020
  200MOL0     H26991   7.091  10.239   1.681 -0.1274 -1.2051  1.6182
  200MOL0     H26992   7.129  10.010   1.770  0.3909  1.0339 -0.6168
  200MOL0     H26993   7.147   9.959   1.603  3.9301  1.0631  2.0121
  200MOL0     H26994   6.903  10.059   1.756  2.3777  1.2855  0.0492
  200MOL0     H26995   6.894  10.041   1.578  0.5105 -1.9842 -1.2710
  200MOL0     H26996   6.829   9.641   1.701 -3.7688  0.9819  1.0026
  200MOL0     H26997   7.372  10.537   1.456 -1.6344 -0.8246 -1.9676
  200MOL0     H26998   7.696  10.666   1.443 -1.9730  1.1134  0.6069
  200MOL0     H26999   7.630  10.665   1.268  0.4965 -2.0125 -0.6970
  200MOL0     H27000   7.536  10.715   1.404  0.1967 -0.0563  0.6139
  201MOL0     O27001   8.328   0.141   4.660 -0.2689 -0.3232 -0.6674
  201MOL0     C27002   8.224   0.145   4.729  0.6011  0.0061  0.4233
  201MOL0     O27003   8.213   0.206   4.849 -0.0465 -0.0040 -0.1284
  201MOL0     C27004   8.316   0.259   4.921 -0.0202 -0.7355  0.3981
  201MOL0     C27005   8.298   0.356   5.026 -0.9842 -0.2705 -0.3348
  201MOL0     C27006   8.406   0.404   5.098 -0.1142  0.1484 -0.2335
  201MOL0     C27007   8.534   0.355   5.078 -0.4397 -0.8995  0.3475
  201MOL0     O27008   8.644   0.378   5.154  0.1502  0.3325  0.7072
  201MOL0     C27009   8.630   0.477   5.255  0.0990  1.1744 -0.7692
  201MOL0     C27010   8.740   0.466   5.353  0.0910  0.0159 -0.1381
  201MOL0     C27011   8.879   0.476   5.288  0.8798 -0.6799  0.7860
  201MOL0     C27012   8.994   0.478   5.383  0.3971 -0.5903  0.4417
  201MOL0     C27013   9.042   0.625   5.410  0.9960 -0.8692 -0.6547
  201MOL0     C27014   9.119   0.683   5.289 -0.5367 -0.3320 -0.6853
  201MOL0     C27015   9.242   0.755   5.332 -0.3154  0.2094 -0.5848
  201MOL0     C27016   9.286   0.847   5.224 -0.6607 -0.4409  0.5454
  201MOL0     N27017   9.431   0.877   5.227  0.0393  0.6337  0.0903
  201MOL0     C27018   9.495   0.929   5.118  0.1290 -0.5170  0.4047
  201MOL0     C27019   9.620   0.955   5.159 -0.5359  0.4260 -0.3823
  201MOL0     C27020   9.727   1.010   5.070 -0.7209 -0.4815 -0.3630
  201MOL0     C27021   9.838   0.895   5.032  0.8681 -0.8081 -0.3131
  201MOL0     C27022   9.945   0.873   5.141  0.5177  0.8189  0.3393
  201MOL0     C27023  10.056   0.798   5.076 -0.3966  0.4287  0.1150
  201MOL0     O27024  10.164   0.755   5.163  0.7882 -0.8555 -0.2543
  201MOL0     C27025  10.287   0.730   5.110 -0.1464 -1.1146 -0.3926
  201MOL0     C27026  10.392   0.770   5.197  0.1307  0.6368  0.2088
  201MOL0     C27027  10.518   0.753   5.149 -0.0144  0.5619  0.2067
  201MOL0     C27028  10.548   0.706   5.023 -0.5051 -0.1706  0.8937
  201MOL0     C27029  10.682   0.710   4.956 -1.3335  0.6765 -0.9034
  201MOL0     O27030  10.782   0.755   5.038 -0.4030 -0.9965 -0.7027
  201MOL0     C27031  10.913   0.775   4.998  0.4565 -0.6143 -0.8229
  201MOL0     C27032  10.984   0.672   4.935 -0.0723 -0.3925 -0.2419
  201MOL0     C27033  11.121   0.682   4.909 -1.0550 -0.4547  0.4615
  201MOL0     C27034  11.187   0.800   4.952  1.0149 -0.0844  0.7507
  201MOL0     O27035  11.319   0.826   4.919  0.0454 -0.0289  0.6589
  201MOL0     C27036  11.380   0.752   4.815 -0.3213  0.6267 -0.5841
  201MOL0     C27037  11.513   0.833   4.804 -0.0541 -0.3481  0.2685
  201MOL0     C27038  11.613   0.765   4.715  0.5896 -0.3488  0.6511
  201MOL0     C27039  11.742   0.853   4.721  0.2699  0.4406  0.0824
  201MOL0     C27040  11.861   0.793   4.629  0.2631 -0.1584  0.3687
  201MOL0     C27041  11.970   0.903   4.619 -0.4321 -0.0718 -0.1311
  201MOL0     C27042  12.055   0.906   4.491 -0.1653  0.3463  0.2824
  201MOL0     C27043  12.121   1.035   4.482  0.1266 -0.2690 -1.1643
  201MOL0    Cl27044  12.134   1.120   4.638  0.2328  0.3426 -0.2224
  201MOL0     C27045  11.111   0.909   5.009  0.0652  0.4836 -0.6097
  201MOL0     C27046  10.975   0.896   5.036 -0.3383  0.2486 -0.3280
  201MOL0     O27047  10.692   0.693   4.835  0.2420 -0.6097  0.0795
  201MOL0     C27048  10.437   0.672   4.946  0.0701 -0.6289  0.0163
  201MOL0     C27049  10.305   0.680   4.986  1.2833  0.6592 -0.2321
  201MOL0     N27050   9.637   0.917   5.292  0.3079 -0.6147  0.1954
  201MOL0     N27051   9.519   0.876   5.335  0.4601 -0.2051 -0.2974
  201MOL0     C27052   8.553   0.256   4.980 -0.2723 -0.1737 -1.1350
  201MOL0     C27053   8.445   0.208   4.909  0.0906 -0.3849  0.6049
  201MOL0     C27054   8.099   0.103   4.653 -0.2034 -1.1442 -0.7447
  201MOL0     C27055   7.978   0.149   4.706  0.6686 -0.2889  0.0695
  201MOL0     C27056   7.857   0.129   4.647  0.7566  0.2131  0.1084
  201MOL0     C27057   7.846   0.054   4.528 -0.4568 -0.0474 -0.2054
  201MOL0     O27058   7.727   0.020   4.470 -0.4487  0.0454  0.3477
  201MOL0     C27059   7.609   0.095   4.501 -0.1945 -0.1467  0.1083
  201MOL0     C27060   7.521   0.083   4.385 -0.2486  0.4222  0.4824
  201MOL0     C27061   7.386   0.151   4.426  0.7679 -0.4004  0.9943
  201MOL0     C27062   7.307   0.091   4.543 -0.6401  0.0702 -0.1057
  201MOL0     C27063   7.174   0.152   4.534  0.7659  1.2421  0.6031
  201MOL0     C27064   7.062   0.200   4.527 -0.3708  1.4247  0.2115
  201MOL0     C27065   7.965   0.013   4.469 -0.3641 -0.0081  0.8756
  201MOL0     C27066   8.090   0.023   4.530  0.4882 -0.0333 -0.0866
  201MOL0     C27067   8.219  -0.032   4.460  0.6220  0.2036  0.3038
  201MOL0     H27068   8.202   0.407   5.039 -1.6327 -1.7695  1.0562
  201MOL0     H27069   8.391   0.489   5.164  0.3933 -0.4264  0.6432
  201MOL0     H27070   8.627   0.576   5.207  0.7067  0.8621 -1.4803
  201MOL0     H27071   8.538   0.477   5.313  1.2909  2.6211  1.2457
  201MOL0     H27072   8.748   0.362   5.387 -1.3501  0.2800  1.0788
  201MOL0     H27073   8.732   0.537   5.436 -2.5910 -0.2182 -0.1264
  201MOL0     H27074   8.880   0.569   5.232 -2.2541 -0.3149  1.1725
  201MOL0     H27075   8.891   0.403   5.207 -0.9296  2.2418 -2.3985
  201MOL0     H27076   8.963   0.431   5.477 -3.1309 -1.4628 -0.9695
  201MOL0     H27077   9.080   0.424   5.345  1.4788  1.4396 -0.1479
  201MOL0     H27078   8.962   0.695   5.438  0.3284 -0.1341 -3.9848
  201MOL0     H27079   9.111   0.618   5.495 -1.3927 -3.1055  1.2884
  201MOL0     H27080   9.154   0.604   5.223  1.2270 -1.1378  1.1269
  201MOL0     H27081   9.058   0.743   5.222  1.4514  0.2872 -2.0200
  201MOL0     H27082   9.313   0.678   5.363 -0.0822  0.9417  0.8087
  201MOL0     H27083   9.231   0.810   5.426 -2.0826 -0.5242 -0.3169
  201MOL0     H27084   9.269   0.802   5.125  2.3729 -0.2113 -0.2088
  201MOL0     H27085   9.230   0.940   5.233  1.5870  0.9053  1.5801
  201MOL0     H27086   9.446   0.943   5.022  1.3602  0.9745 -0.0546
  201MOL0     H27087   9.675   1.040   4.979  2.3375 -1.3083 -2.5705
  201MOL0     H27088   9.770   1.100   5.115 -3.2406  0.2494  0.7052
  201MOL0     H27089   9.784   0.802   5.010 -1.5302  0.8177 -1.8909
  201MOL0     H27090   9.880   0.938   4.940 -1.2372 -0.8570 -1.3640
  201MOL0     H27091   9.911   0.828   5.235 -2.2247  2.5474  0.2912
  201MOL0     H27092   9.978   0.975   5.165 -0.3194  0.6042  2.6442
  201MOL0     H27093  10.098   0.849   4.989  1.6404 -2.5905 -0.8378
  201MOL0     H27094  10.017   0.702   5.040 -0.5638  0.5862 -0.1290
  201MOL0     H27095  10.360   0.802   5.296  1.7826 -0.0350  0.9919
  201MOL0     H27096  10.595   0.791   5.215  0.9219 -0.2702 -0.3714
  201MOL0     H27097  10.936   0.579   4.906 -0.6913 -0.1096 -0.1433
  201MOL0     H27098  11.167   0.603   4.851  0.0100 -0.4259  1.2178
  201MOL0     H27099  11.395   0.649   4.848 -0.2917  1.4714  2.2685
  201MOL0     H27100  11.329   0.763   4.719 -0.1647 -0.5300 -0.8081
  201MOL0     H27101  11.493   0.935   4.771 -1.5381  0.0302  2.1225
  201MOL0     H27102  11.546   0.844   4.908 -0.5671 -1.9808  0.6445
  201MOL0     H27103  11.641   0.664   4.745  0.7314 -0.3944  0.3664
  201MOL0     H27104  11.571   0.764   4.615 -0.6347  0.8982  1.1236
  201MOL0     H27105  11.771   0.856   4.826  1.3723  1.0024 -0.2328
  201MOL0     H27106  11.723   0.954   4.685  2.5950 -0.0943 -3.0599
  201MOL0     H27107  11.814   0.770   4.533 -1.4714 -0.1944  1.1922
  201MOL0     H27108  11.895   0.696   4.669 -0.6945 -0.5636  0.2348
  201MOL0     H27109  11.916   0.998   4.620  3.3439  2.5560  5.2555
  201MOL0     H27110  12.030   0.892   4.709 -2.3573  1.2816  1.3951
  201MOL0     H27111  11.987   0.897   4.406 -0.3474  0.6513  0.3938
  201MOL0     H27112  12.121   0.819   4.485 -2.8007 -1.7232 -0.2425
  201MOL0     H27113  12.222   1.021   4.441  1.1740 -2.1346  1.7501
  201MOL0     H27114  12.067   1.105   4.418 -0.1524  0.9836  0.3613
  201MOL0     H27115  11.160   1.002   5.036 -1.5115  1.0395  0.4944
  201MOL0     H27116  10.922   0.971   5.093 -0.9541  1.3523 -2.2703
  201MOL0     H27117  10.448   0.633   4.846  0.8810 -1.7600  0.5225
  201MOL0     H27118  10.223   0.645   4.925 -0.0564 -1.5276  2.6048
  201MOL0     H27119   8.651   0.211   4.965 -0.7835 -1.3606 -1.0160
  201MOL0     H27120   8.468   0.123   4.846  0.9854  0.2772  0.0181
  201MOL0     H27121   7.983   0.208   4.797  2.2673  0.4518 -0.4455
  201MOL0     H27122   7.777   0.163   4.712  3.6978  0.7573  3.7612
  201MOL0     H27123   7.625   0.196   4.539 -2.7780  0.0130  0.9582
  201MOL0     H27124   7.560   0.049   4.587  0.3729  0.8782  1.0039
  201MOL0     H27125   7.498  -0.022   4.364 -1.9217  0.3533  2.3228
  201MOL0     H27126   7.569   0.125   4.296  1.0333  1.0337  1.4329
  201MOL0     H27127   7.305   0.144   4.352  0.0956  2.3678  1.3243
  201MOL0     H27128   7.404   0.259   4.430  1.2851 -0.1446 -3.1966
  201MOL0     H27129   7.295  -0.017   4.529 -0.2158 -0.1140  0.8353
  201MOL0     H27130   7.356   0.105   4.640  0.2054 -2.1018 -0.1539
  201MOL0     H27131   6.964   0.242   4.534 -0.8694  0.5630 -1.1311
  201MOL0     H27132   7.964  -0.044   4.377  1.1916 -0.0128  0.8356
  201MOL0     H27133   8.195  -0.107   4.384 -2.3337  2.8228 -1.6040
  201MOL0     H27134   8.266   0.049   4.403 -0.1517 -0.0369 -0.7064
  201MOL0     H27135   8.291  -0.076   4.530 -0.0462  0.7509  1.3625
  202MOL0     O27136   8.168  10.460   4.893 -0.1636  0.0656  0.3295
  202MOL0     C27137   8.069  10.421   4.838  0.3861  0.9141 -1.7512
  202MOL0     O27138   8.060  10.385   4.702 -0.2137  0.0044 -0.7342
  202MOL0     C27139   8.163  10.438   4.620 -0.4372 -0.0160 -0.1106
  202MOL0     C27140   8.135  10.531   4.519  0.9824  0.0345  0.3814
  202MOL0     C27141   8.232  10.556   4.423 -0.6276  0.6524 -0.7175
  202MOL0     C27142   8.354  10.491   4.423  0.4090  0.4076 -0.6608
  202MOL0     O27143   8.447  10.498   4.325 -0.1237 -0.1883 -0.4745
  202MOL0     C27144   8.466  10.627   4.271  0.3663 -0.3412  0.3971
  202MOL0     C27145   8.578  10.632   4.174 -0.5283 -0.2543 -0.5280
  202MOL0     C27146   8.712  10.570   4.223  0.4819 -0.1367 -1.1019
  202MOL0     C27147   8.819  10.593   4.117  0.7244  0.1744 -0.5176
  202MOL0     C27148   8.939  10.505   4.144 -0.3545  0.2210  0.2043
  202MOL0     C27149   9.026  10.505   4.020  0.7428 -0.5688  0.2502
  202MOL0     C27150   9.159  10.421   4.022  0.8729  0.8309  0.0698
  202MOL0     C27151   9.132  10.268   4.025  0.7042 -1.2621 -0.1931
  202MOL0     N27152   9.241  10.224   4.110 -0.3894  0.1815 -0.8419
  202MOL0     C27153   9.240  10.209   4.251  0.6563  0.7160  0.2342
  202MOL0     C27154   9.370  10.189   4.282  0.0718 -0.4640  0.4539
  202MOL0     C27155   9.427  10.165   4.415 -0.5294  0.4664 -0.3261
  202MOL0     C27156   9.586  10.184   4.434  0.2325  0.3917  0.1792
  202MOL0     C27157   9.666  10.062   4.389  0.5878 -0.5241  0.6166
  202MOL0     C27158   9.814  10.076   4.390 -0.3486  0.5628 -0.0624
  202MOL0     O27159   9.861  10.122   4.528  0.4409 -0.1334 -0.1527
  202MOL0     C27160   9.996  10.117   4.559  0.7347  1.1985 -0.1795
  202MOL0     C27161  10.037  10.157   4.691 -0.0235  1.2797 -0.5971
  202MOL0     C27162  10.165  10.137   4.736 -0.2898 -0.6367 -0.2898
  202MOL0     C27163  10.267  10.079   4.648  0.1283  0.5005 -0.8282
  202MOL0     C27164  10.409  10.060   4.690  0.6773  0.5523 -0.1445
  202MOL0     O27165  10.451  10.103   4.813 -0.5908  0.2856 -0.1668
  202MOL0     C27166  10.592  10.118   4.818  0.8959  0.0411 -0.0400
  202MOL0     C27167  10.644  10.233   4.754 -0.0236 -0.2821  0.3802
  202MOL0     C27168  10.783  10.263   4.758  0.9045  0.0781 -0.1995
  202MOL0     C27169  10.867  10.182   4.840  0.1896 -0.0079 -0.0307
  202MOL0     O27170  11.000  10.199   4.861 -0.1214  0.0025  0.1009
  202MOL0     C27171  11.057  10.312   4.797 -0.7601  0.5195 -0.0873
  202MOL0     C27172  11.210  10.314   4.828  0.3500 -0.0319 -0.4756
  202MOL0     C27173  11.290  10.400   4.727 -0.5343 -0.0576  0.5744
  202MOL0     C27174  11.441  10.377   4.722 -0.3262  0.6847 -0.6562
  202MOL0     C27175  11.510  10.483   4.635  0.5054 -0.2643 -0.1469
  202MOL0     C27176  11.658  10.475   4.632  0.7346 -0.3642  0.2204
  202MOL0     C27177  11.713  10.593   4.568  0.0925 -0.4968  0.1109
  202MOL0     C27178  11.861  10.589   4.549 -0.3162 -0.3548  0.2176
  202MOL0    Cl27179  11.926  10.446   4.459 -0.1549  0.1342 -0.0795
  202MOL0     C27180  10.807  10.070   4.900 -0.2938 -0.0025 -0.4732
  202MOL0     C27181  10.675  10.030   4.882  1.1770 -0.5980  0.3699
  202MOL0     O27182  10.482  10.000   4.610 -0.4136  0.3295  0.2458
  202MOL0     C27183  10.224  10.040   4.519 -0.4877 -0.1996 -0.7415
  202MOL0     C27184  10.092  10.066   4.472 -0.6044  0.2131  0.4260
  202MOL0     N27185   9.443  10.204   4.173 -0.0290 -0.3711 -0.2553
  202MOL0     N27186   9.370  10.224   4.073  0.8015 -0.4460 -0.2132
  202MOL0     C27187   8.382  10.389   4.518  0.6297  0.1338  0.0709
  202MOL0     C27188   8.282  10.363   4.616 -0.7094  0.9751 -0.4912
  202MOL0     C27189   7.940  10.415   4.912  0.0326  0.3983  0.8485
  202MOL0     C27190   7.820  10.395   4.834  0.1377 -0.6796  0.0517
  202MOL0     C27191   7.692  10.398   4.895 -0.7308  0.1109  0.2936
  202MOL0     C27192   7.674  10.406   5.035 -0.0243 -0.0304 -0.4424
  202MOL0     O27193   7.552  10.399   5.086  0.2662  0.6731 -0.5161
  202MOL0     C27194   7.521  10.458   5.217 -0.1153 -0.0882 -0.5966
  202MOL0     C27195   7.367  10.472   5.231 -0.0320 -0.2769 -0.2488
  202MOL0     C27196   7.319  10.443   5.377  0.3292  0.2191  0.8022
  202MOL0     C27197   7.165  10.452   5.386  0.5745  0.2276 -0.2882
  202MOL0     C27198   7.081  10.368   5.297 -1.1673  0.1083 -0.3175
  202MOL0     C27199   7.018  10.290   5.234 -0.0082 -0.2018 -0.7902
  202MOL0     C27200   7.781  10.433   5.109 -1.0394 -0.7182 -0.1341
  202MOL0     C27201   7.921  10.430   5.054  0.9860 -0.3803  0.1967
  202MOL0     C27202   8.034  10.443   5.155  0.1992 -0.0519  0.5878
  202MOL0     H27203   8.036  10.572   4.508  0.1444 -2.0716 -0.5631
  202MOL0     H27204   8.201  10.624   4.344 -0.2081  0.0808 -1.3854
  202MOL0     H27205   8.378  10.654   4.211  0.5419 -1.9481 -0.6147
  202MOL0     H27206   8.486  10.701   4.350  0.8759  3.1401 -2.7125
  202MOL0     H27207   8.602  10.732   4.137 -2.7203  0.2524 -0.7307
  202MOL0     H27208   8.555  10.581   4.080  0.9394  1.0707 -1.6533
  202MOL0     H27209   8.702  10.467   4.260  0.1624  0.2317 -0.1317
  202MOL0     H27210   8.740  10.625   4.314  0.5920  1.5005 -2.0971
  202MOL0     H27211   8.777  10.588   4.016 -0.7919 -0.6161  0.1201
  202MOL0     H27212   8.857  10.696   4.120 -1.2884  0.9567  0.6828
  202MOL0     H27213   8.992  10.547   4.230  0.9050 -2.0637  0.6082
  202MOL0     H27214   8.920  10.400   4.168 -0.6570  0.4309  0.9127
  202MOL0     H27215   8.974  10.469   3.930 -0.1996  1.9348 -0.2868
  202MOL0     H27216   9.068  10.599   3.984 -0.8434 -0.7104 -2.1888
  202MOL0     H27217   9.214  10.451   4.112 -2.1448  1.4897  1.8226
  202MOL0     H27218   9.222  10.423   3.933 -1.8217  0.2518 -1.9895
  202MOL0     H27219   9.038  10.233   4.070  0.5502  0.2410  0.7296
  202MOL0     H27220   9.124  10.231   3.923 -0.4002  0.9718 -0.9775
  202MOL0     H27221   9.162  10.223   4.326  1.8308  1.3976  1.3824
  202MOL0     H27222   9.377  10.244   4.472 -1.0189 -0.0539 -0.0224
  202MOL0     H27223   9.400  10.068   4.458  1.9289  0.1809  0.7171
  202MOL0     H27224   9.609  10.277   4.379 -1.9556  0.1657 -1.2173
  202MOL0     H27225   9.616  10.208   4.536 -0.6812  2.2740  0.0611
  202MOL0     H27226   9.642  10.024   4.289  0.1621 -1.2812  0.9986
  202MOL0     H27227   9.639   9.985   4.461 -1.8538  0.9929  1.4174
  202MOL0     H27228   9.847  10.142   4.309 -2.1749  0.8389 -0.6242
  202MOL0     H27229   9.859   9.976   4.381 -1.4929  0.0807 -0.6403
  202MOL0     H27230   9.966  10.207   4.756  0.3488  0.8241  0.1748
  202MOL0     H27231  10.187  10.158   4.840  0.6322  1.1056 -0.8066
  202MOL0     H27232  10.570  10.299   4.710  0.0944 -0.4900 -0.1453
  202MOL0     H27233  10.835  10.341   4.703  1.0796 -1.3246 -2.1359
  202MOL0     H27234  11.038  10.308   4.689 -0.7039  3.3763 -0.2758
  202MOL0     H27235  11.007  10.397   4.845 -2.9936 -2.1849  2.8509
  202MOL0     H27236  11.217  10.349   4.932  0.3232 -0.3478 -0.3658
  202MOL0     H27237  11.237  10.209   4.818 -1.8343 -0.4357 -3.2084
  202MOL0     H27238  11.257  10.381   4.624  1.0018 -3.3227  0.5632
  202MOL0     H27239  11.273  10.507   4.746  1.1769  1.2167 -3.7835
  202MOL0     H27240  11.447  10.279   4.673 -0.2497  0.6703 -0.6165
  202MOL0     H27241  11.486  10.381   4.821 -1.0877  1.7102 -0.3307
  202MOL0     H27242  11.479  10.576   4.681  1.3918  0.0983 -0.2666
  202MOL0     H27243  11.470  10.498   4.534 -0.2152  1.5722  0.3749
  202MOL0     H27244  11.699  10.465   4.733  3.4360  0.3959 -0.6930
  202MOL0     H27245  11.684  10.384   4.577  2.4943 -1.9671  3.3941
  202MOL0     H27246  11.686  10.690   4.613 -1.0555 -0.6062 -0.3151
  202MOL0     H27247  11.661  10.596   4.472  1.3007  2.4627 -0.5781
  202MOL0     H27248  11.876  10.687   4.502  0.0206  0.7317  2.4441
  202MOL0     H27249  11.906  10.592   4.649 -0.9862  0.9666  0.5105
  202MOL0     H27250  10.870  10.000   4.953 -0.1261  0.5109  0.0105
  202MOL0     H27251  10.630   9.938   4.918  0.0173 -0.5046 -0.7989
  202MOL0     H27252  10.289   9.985   4.452 -0.2400  0.6023 -1.1736
  202MOL0     H27253  10.071  10.036   4.369 -0.7802  1.0423  0.2157
  202MOL0     H27254   8.476  10.333   4.513 -0.4736 -2.0300  1.6848
  202MOL0     H27255   8.287  10.285   4.690 -0.7449  0.0842 -1.4131
  202MOL0     H27256   7.814  10.384   4.726 -0.5480 -0.4400  0.0599
  202MOL0     H27257   7.611  10.383   4.825  0.2177  0.9467 -1.0564
  202MOL0     H27258   7.567  10.555   5.236  0.3637 -0.3080 -0.6321
  202MOL0     H27259   7.551  10.381   5.289 -3.8929 -2.0165 -0.8280
  202MOL0     H27260   7.313  10.408   5.160 -2.8939  1.1016  0.5081
  202MOL0     H27261   7.351  10.578   5.211  0.7702  0.9105  4.2181
  202MOL0     H27262   7.374  10.507   5.446 -0.3198 -1.0152  2.5569
  202MOL0     H27263   7.341  10.338   5.397  0.0515  0.6443  3.7169
  202MOL0     H27264   7.134  10.438   5.491  0.1842  2.5462 -0.0381
  202MOL0     H27265   7.141  10.555   5.357  1.1530  0.0923 -1.2601
  202MOL0     H27266   6.960  10.223   5.173  0.2667 -1.2374  0.0637
  202MOL0     H27267   7.771  10.447   5.216  1.4134  0.9337 -0.0500
  202MOL0     H27268   7.999  10.428   5.257  0.1737 -4.5998  0.0744
  202MOL0     H27269   8.110  10.368   5.136 -1.8436 -1.4814 -2.8633
  202MOL0     H27270   8.081  10.541   5.138  1.7362 -0.7527  0.6121
  203MOL0     O27271   1.765   2.279   4.133 -0.4736  0.0876 -0.0852
  203MOL0     C27272   1.722   2.186   4.070 -0.2081 -0.5809  0.8396
  203MOL0     O27273   1.773   2.061   4.072  0.4640  0.0984  0.2303
  203MOL0     C27274   1.897   2.045   4.123 -0.9925 -0.3648  0.4948
  203MOL0     C27275   1.994   2.029   4.025  0.5400 -0.3124 -0.0608
  203MOL0     C27276   2.125   2.013   4.058  0.3296  0.7218 -0.9303
  203MOL0     C27277   2.163   2.020   4.192 -0.5480  0.1279  0.5611
  203MOL0     O27278   2.297   2.004   4.237 -0.2222 -0.3921 -0.3016
  203MOL0     C27279   2.401   1.985   4.138  0.2292  0.7320 -0.8103
  203MOL0     C27280   2.543   2.035   4.191  0.7423  0.3314  0.2530
  203MOL0     C27281   2.592   1.960   4.312  0.2312  0.0233  0.0783
  203MOL0     C27282   2.738   2.001   4.356  0.7571 -0.1162 -0.4796
  203MOL0     C27283   2.780   1.962   4.496  0.0264 -0.5367 -0.2073
  203MOL0     C27284   2.785   1.807   4.511  0.3579 -0.2136 -0.7127
  203MOL0     C27285   2.855   1.752   4.641  0.7777 -0.3235  0.1720
  203MOL0     C27286   2.921   1.614   4.620 -0.8581 -0.3341 -0.5553
  203MOL0     N27287   2.970   1.560   4.749  0.2015 -0.2997  0.0971
  203MOL0     C27288   3.060   1.620   4.839 -0.1629  0.2986 -0.5125
  203MOL0     C27289   3.075   1.540   4.949  0.4387  0.4738  0.2279
  203MOL0     C27290   3.158   1.550   5.076 -0.0716  0.0425 -0.3705
  203MOL0     C27291   3.302   1.587   5.043  0.3748 -0.3884  0.4219
  203MOL0     C27292   3.385   1.592   5.167  0.1196  0.2163  0.0262
  203MOL0     C27293   3.528   1.639   5.143 -0.6314 -0.0774 -0.2430
  203MOL0     O27294   3.594   1.673   5.262 -0.0026  1.0716 -0.3016
  203MOL0     C27295   3.712   1.722   5.232  0.3141 -0.2813 -0.3337
  203MOL0     C27296   3.819   1.637   5.266 -0.2574 -0.2426  1.2515
  203MOL0     C27297   3.949   1.681   5.257  0.0605  0.3264  0.8717
  203MOL0     C27298   3.977   1.816   5.228 -0.3783 -0.3272  0.4758
  203MOL0     C27299   4.124   1.856   5.224 -0.6767 -0.0700  0.3674
  203MOL0     O27300   4.216   1.781   5.293  0.3580  0.0485  0.2769
  203MOL0     C27301   4.346   1.791   5.260  0.3749 -0.3843 -0.0726
  203MOL0     C27302   4.417   1.893   5.320 -0.4757 -0.5161 -0.5501
  203MOL0     C27303   4.557   1.893   5.300  0.4034  0.5393  0.3239
  203MOL0     C27304   4.618   1.804   5.205 -0.3543  0.6606  0.0438
  203MOL0     O27305   4.754   1.807   5.184  0.5884  0.1950 -0.0017
  203MOL0     C27306   4.827   1.702   5.111 -0.1907  0.3849 -0.6917
  203MOL0     C27307   4.965   1.751   5.060 -0.1436  0.5791  0.0574
  203MOL0     C27308   4.936   1.861   4.955  0.0496  0.3517 -0.0906
  203MOL0     C27309   5.056   1.913   4.873 -0.2402  0.7913 -1.1796
  203MOL0     C27310   5.025   2.037   4.796  0.2757  0.6100  0.5002
  203MOL0     C27311   4.922   2.027   4.691 -0.7012  0.6533  0.5178
  203MOL0     C27312   4.911   2.157   4.614  0.0903 -0.9218  0.2753
  203MOL0     C27313   4.769   2.174   4.569  0.1614 -0.5676 -0.0304
  203MOL0    Cl27314   4.677   2.265   4.698  0.0687 -0.1429 -0.3352
  203MOL0     C27315   4.536   1.705   5.145  1.1185  0.1070  0.2677
  203MOL0     C27316   4.403   1.700   5.172  0.1624 -1.1254  0.9015
  203MOL0     O27317   4.152   1.944   5.137  0.0009  1.1197 -0.6719
  203MOL0     C27318   3.868   1.902   5.192  0.4357  0.1732  1.2012
  203MOL0     C27319   3.736   1.855   5.192  0.5804 -0.2795  0.0106
  203MOL0     N27320   2.983   1.442   4.933  0.7692 -0.3209  0.2350
  203MOL0     N27321   2.928   1.445   4.817 -0.3820 -0.1003 -0.0150
  203MOL0     C27322   2.071   2.043   4.288  0.0663 -0.1078  0.2451
  203MOL0     C27323   1.932   2.048   4.255  0.0025  0.3627 -1.0119
  203MOL0     C27324   1.592   2.209   4.006 -0.2327  0.6741  0.5862
  203MOL0     C27325   1.518   2.093   3.991 -0.3669 -0.9967 -0.1409
  203MOL0     C27326   1.404   2.089   3.912 -0.0316  0.1942 -0.4886
  203MOL0     C27327   1.365   2.203   3.839  0.1259 -0.0396  0.2035
  203MOL0     O27328   1.240   2.218   3.782  0.1772  0.7788  0.5357
  203MOL0     C27329   1.209   2.107   3.702 -0.5261  0.9297 -0.2231
  203MOL0     C27330   1.071   2.121   3.632  0.0736 -0.2001 -0.3896
  203MOL0     C27331   0.951   2.168   3.718 -0.2355  0.5170 -0.3572
  203MOL0     C27332   0.904   2.044   3.799 -0.4009 -0.2653  0.2215
  203MOL0     C27333   0.785   2.085   3.879 -0.3498 -0.2123  0.1234
  203MOL0     C27334   0.689   2.127   3.937  0.0597 -0.6690 -0.6843
  203MOL0     C27335   1.447   2.314   3.848 -0.7319 -0.3728 -1.0600
  203MOL0     C27336   1.566   2.322   3.924 -0.0366  1.1515  0.3037
  203MOL0     C27337   1.661   2.438   3.923 -0.0528  0.4038 -0.2624
  203MOL0     H27338   1.946   2.018   3.928 -1.6546 -0.5204  0.9972
  203MOL0     H27339   2.197   1.989   3.981 -1.6989  0.9517 -3.0096
  203MOL0     H27340   2.400   1.880   4.109 -2.1540 -0.0968  1.8423
  203MOL0     H27341   2.379   2.045   4.049 -0.0975 -1.2012 -2.1032
  203MOL0     H27342   2.530   2.136   4.232 -0.4628 -0.2958  1.4929
  203MOL0     H27343   2.609   2.033   4.104  0.1678 -1.7926 -0.1843
  203MOL0     H27344   2.595   1.857   4.275  1.8292 -0.3300  1.1264
  203MOL0     H27345   2.524   1.970   4.397 -0.7554 -0.8273 -0.5846
  203MOL0     H27346   2.804   1.952   4.283 -0.8100 -2.0387 -0.7012
  203MOL0     H27347   2.742   2.110   4.343  1.9394  0.1643  1.7920
  203MOL0     H27348   2.869   2.012   4.534 -0.2395  0.1962 -0.5229
  203MOL0     H27349   2.702   1.993   4.567 -0.4408 -0.6139 -0.6754
  203MOL0     H27350   2.682   1.771   4.510 -0.6995  2.6006 -1.8867
  203MOL0     H27351   2.848   1.778   4.426  1.5820 -0.7688  0.3439
  203MOL0     H27352   2.778   1.748   4.719 -1.1201 -2.0321 -1.6786
  203MOL0     H27353   2.931   1.823   4.675  0.1250 -0.7862  2.8128
  203MOL0     H27354   2.846   1.545   4.579  1.0046 -3.0088  0.2366
  203MOL0     H27355   3.007   1.613   4.553  1.2583  0.6847  1.9587
  203MOL0     H27356   3.111   1.713   4.816 -2.9941  1.7292 -1.4295
  203MOL0     H27357   3.113   1.620   5.147 -1.2638 -0.0942 -0.9681
  203MOL0     H27358   3.158   1.460   5.138  2.0707  0.8674  0.9252
  203MOL0     H27359   3.341   1.509   4.977  0.4821  1.4402 -1.7866
  203MOL0     H27360   3.292   1.683   4.991  2.1817 -1.4178 -2.0369
  203MOL0     H27361   3.390   1.493   5.213 -0.3092 -0.9558 -2.2707
  203MOL0     H27362   3.351   1.666   5.239  1.8590 -0.9287  2.1444
  203MOL0     H27363   3.521   1.724   5.074 -0.8446  0.2210  0.1401
  203MOL0     H27364   3.588   1.569   5.085  0.1521  0.7921 -0.5160
  203MOL0     H27365   3.803   1.537   5.304 -1.3453 -2.0348 -3.3067
  203MOL0     H27366   4.033   1.621   5.290  1.6925  0.6745 -2.2314
  203MOL0     H27367   4.374   1.958   5.395  0.7943 -0.8336  0.5010
  203MOL0     H27368   4.612   1.967   5.358  2.2285  1.3688 -2.3162
  203MOL0     H27369   4.830   1.617   5.181 -2.3111  1.9392  1.4413
  203MOL0     H27370   4.770   1.669   5.024 -0.0517 -0.2172 -0.5601
  203MOL0     H27371   5.025   1.808   5.132  0.2077  0.7315 -0.3517
  203MOL0     H27372   5.019   1.665   5.019  0.6185  2.0739 -2.2968
  203MOL0     H27373   4.866   1.813   4.887  1.0267  0.0275 -0.8851
  203MOL0     H27374   4.896   1.952   5.001  0.1351  1.3284 -1.8717
  203MOL0     H27375   5.097   1.835   4.808  2.4607  1.1794 -0.0837
  203MOL0     H27376   5.136   1.939   4.943 -1.8216  2.0587  0.2573
  203MOL0     H27377   5.122   2.064   4.754 -0.0648  2.5692  0.8708
  203MOL0     H27378   5.002   2.127   4.855 -3.1786 -0.1247  0.5127
  203MOL0     H27379   4.939   1.944   4.622 -1.5826  0.2992  0.7127
  203MOL0     H27380   4.827   2.000   4.738 -1.5685  1.1172 -0.9065
  203MOL0     H27381   4.973   2.145   4.525  0.5700  0.6774  0.3736
  203MOL0     H27382   4.952   2.239   4.673  0.7373 -0.1593 -1.1755
  203MOL0     H27383   4.775   2.214   4.467 -2.5442 -1.3203 -0.5630
  203MOL0     H27384   4.716   2.080   4.550  1.1510 -1.2024  0.2921
  203MOL0     H27385   4.575   1.625   5.083  0.9578 -1.2061  1.7777
  203MOL0     H27386   4.347   1.617   5.129 -1.3479  0.5440 -0.5024
  203MOL0     H27387   3.900   2.003   5.166  2.9529 -1.4476 -3.0376
  203MOL0     H27388   3.658   1.930   5.183 -0.6883 -0.9967  3.5411
  203MOL0     H27389   2.107   2.054   4.390  0.5673  2.0528 -0.1121
  203MOL0     H27390   1.855   2.060   4.331  0.8816 -0.2855  0.0146
  203MOL0     H27391   1.550   2.008   4.051  3.9622 -0.1447 -0.9232
  203MOL0     H27392   1.336   2.005   3.922  0.0735 -0.0999 -1.9340
  203MOL0     H27393   1.210   2.014   3.760 -0.0565  0.7688 -0.4782
  203MOL0     H27394   1.285   2.096   3.624 -1.4264 -0.6975 -0.9237
  203MOL0     H27395   1.042   2.024   3.589 -0.3250  0.5631 -1.9020
  203MOL0     H27396   1.083   2.188   3.547  2.3213 -0.6366 -0.4821
  203MOL0     H27397   0.870   2.208   3.656  0.3719 -1.2433 -2.4175
  203MOL0     H27398   0.985   2.253   3.778  0.1133 -0.1563  0.4216
  203MOL0     H27399   0.870   1.962   3.736 -1.5344  0.3207  0.0477
  203MOL0     H27400   0.986   2.021   3.867 -1.3800  2.4145  2.5141
  203MOL0     H27401   0.607   2.167   3.992 -0.2105  1.3768 -2.4751
  203MOL0     H27402   1.418   2.403   3.793 -1.7697  1.4421  2.1903
  203MOL0     H27403   1.627   2.495   3.836 -3.8749 -1.8179 -0.4615
  203MOL0     H27404   1.654   2.490   4.018 -0.7610 -0.5861  0.2450
  203MOL0     H27405   1.763   2.399   3.918  0.4748  1.5389  1.0750
  204MOL0     O27406   0.232   2.040   9.018 -0.2674 -0.1700 -0.1602
  204MOL0     C27407   0.262   1.932   9.077  0.9511  0.3558 -0.2520
  204MOL0     O27408   0.381   1.862   9.061 -0.5759  0.3181  0.7565
  204MOL0     C27409   0.465   1.922   8.976  0.3041 -1.1665  0.3591
  204MOL0     C27410   0.545   2.035   9.012  0.5962  0.0463 -0.2409
  204MOL0     C27411   0.634   2.093   8.919 -1.0355 -0.2800  0.2540
  204MOL0     C27412   0.644   2.030   8.792 -0.2392 -0.5746  0.7054
  204MOL0     O27413   0.744   2.064   8.704  0.5431 -0.2712 -0.6315
  204MOL0     C27414   0.876   2.091   8.767 -1.0443  0.3818 -0.0596
  204MOL0     C27415   0.993   2.082   8.669  0.0037  0.2877  1.1728
  204MOL0     C27416   1.112   2.164   8.685  0.1149  0.4231  0.2016
  204MOL0     C27417   1.176   2.127   8.819 -0.5107 -0.1856  0.9054
  204MOL0     C27418   1.319   2.176   8.835  0.1921 -0.2719  0.2110
  204MOL0     C27419   1.364   2.178   8.982 -0.1107 -0.6371 -0.6865
  204MOL0     C27420   1.510   2.242   9.010  0.3300  0.2213  0.2141
  204MOL0     C27421   1.534   2.276   9.161 -0.5137  1.1577  0.2347
  204MOL0     N27422   1.494   2.151   9.234  0.1673 -0.9309  0.2184
  204MOL0     C27423   1.578   2.037   9.261  0.4495 -0.7537 -0.6840
  204MOL0     C27424   1.503   1.963   9.346  0.3976 -0.0573  0.4382
  204MOL0     C27425   1.526   1.831   9.399 -0.3245  0.7118 -1.0195
  204MOL0     C27426   1.606   1.839   9.533  0.2749  0.4291  0.8958
  204MOL0     C27427   1.641   1.705   9.592  0.1702  1.0426 -0.1210
  204MOL0     C27428   1.756   1.633   9.524 -1.1839 -0.4626 -0.2836
  204MOL0     O27429   1.866   1.720   9.553 -0.3017  0.0299 -0.2084
  204MOL0     C27430   1.990   1.671   9.551  0.1215  0.1087  0.0230
  204MOL0     C27431   2.053   1.621   9.666 -0.2508 -0.0866  0.3317
  204MOL0     C27432   2.185   1.570   9.662 -0.0345 -0.5120 -0.2188
  204MOL0     C27433   2.248   1.566   9.535  0.0202  0.2057  1.1140
  204MOL0     C27434   2.390   1.522   9.522  0.1668  0.0347 -0.3493
  204MOL0     O27435   2.454   1.482   9.631 -0.2473 -0.1404 -1.3969
  204MOL0     C27436   2.587   1.464   9.627  0.3386  0.9455 -0.1879
  204MOL0     C27437   2.634   1.339   9.578 -0.1202  0.0342  0.0770
  204MOL0     C27438   2.775   1.334   9.549  0.2384 -0.5974  0.6957
  204MOL0     C27439   2.870   1.425   9.595  0.0839 -0.5749 -0.3399
  204MOL0     O27440   3.008   1.416   9.593 -0.3404  0.3044  0.2924
  204MOL0     C27441   3.044   1.276   9.579  0.1096  0.4099  0.7882
  204MOL0     C27442   3.200   1.262   9.573  0.7921  0.2593  0.3719
  204MOL0     C27443   3.248   1.126   9.531 -0.1355 -0.3998 -0.5181
  204MOL0     C27444   3.402   1.127   9.527 -0.0023 -0.0795  0.1026
  204MOL0     C27445   3.465   0.986   9.507 -0.2577  0.8745 -1.2214
  204MOL0     C27446   3.597   0.978   9.578 -0.1597  0.5744 -0.2072
  204MOL0     C27447   3.662   0.837   9.558  0.7423 -0.1991 -0.1790
  204MOL0     C27448   3.784   0.824   9.645 -1.1640 -0.6419  0.5811
  204MOL0    Cl27449   3.705   0.803   9.814  0.3500 -0.3151  0.3601
  204MOL0     C27450   2.815   1.548   9.645 -0.0708  0.0437 -0.1559
  204MOL0     C27451   2.680   1.566   9.661 -0.0061  0.2384  0.4435
  204MOL0     O27452   2.450   1.552   9.417  0.1027 -0.3449  0.3091
  204MOL0     C27453   2.179   1.610   9.422 -0.6431  0.2786 -0.2202
  204MOL0     C27454   2.055   1.670   9.428 -0.2594 -0.2389  0.2675
  204MOL0     N27455   1.389   2.032   9.381  0.5826 -0.4501  0.1291
  204MOL0     N27456   1.384   2.138   9.313  0.2308 -0.7088  0.7540
  204MOL0     C27457   0.557   1.931   8.759 -1.0485 -0.1546 -0.8859
  204MOL0     C27458   0.478   1.869   8.848  0.4158  0.4454 -0.4538
  204MOL0     C27459   0.165   1.876   9.168 -0.2445  0.5035  0.8341
  204MOL0     C27460   0.209   1.776   9.255  0.0926  0.2443  0.6665
  204MOL0     C27461   0.127   1.711   9.347 -0.1460 -0.5704 -0.3250
  204MOL0     C27462  -0.009   1.746   9.366 -0.3920  0.2562  0.0923
  204MOL0     O27463  -0.095   1.685   9.459 -0.5594 -0.0175  0.4159
  204MOL0     C27464  -0.237   1.700   9.456  0.4370  0.2767 -0.2306
  204MOL0     C27465  -0.306   1.591   9.540 -0.5649  0.1993 -1.0674
  204MOL0     C27466  -0.258   1.450   9.486  0.0482  0.3237  0.1551
  204MOL0     C27467  -0.313   1.339   9.575 -0.0766  0.5538 -0.1142
  204MOL0     C27468  -0.270   1.212   9.517  0.4077 -0.1396 -0.0559
  204MOL0     C27469  -0.237   1.105   9.458 -1.0101 -0.1895 -0.0003
  204MOL0     C27470  -0.051   1.856   9.285  0.6082  0.4335 -0.4930
  204MOL0     C27471   0.025   1.920   9.186 -0.8522  0.5745  0.4313
  204MOL0     C27472  -0.040   2.024   9.097 -0.5621 -0.7652  0.4531
  204MOL0     H27473   0.540   2.071   9.115  1.1707  2.2262 -0.9108
  204MOL0     H27474   0.705   2.171   8.942 -2.0495 -0.3515  4.3401
  204MOL0     H27475   0.881   2.191   8.810 -0.4183  0.3170  0.0259
  204MOL0     H27476   0.886   2.010   8.839  0.5033  0.2940 -0.3445
  204MOL0     H27477   0.948   2.115   8.575 -0.8211 -0.2167  1.3774
  204MOL0     H27478   1.009   1.975   8.654  1.6850  0.4649  1.5679
  204MOL0     H27479   1.086   2.269   8.699  0.7999  0.4126  1.7892
  204MOL0     H27480   1.180   2.144   8.602  0.9697 -1.0198  1.1926
  204MOL0     H27481   1.119   2.178   8.897 -0.9464  0.0658  0.4349
  204MOL0     H27482   1.175   2.019   8.839  0.2725 -0.6077 -1.0760
  204MOL0     H27483   1.383   2.111   8.773  0.3579 -0.6654  0.7813
  204MOL0     H27484   1.328   2.274   8.788  0.9904 -0.9058 -1.0551
  204MOL0     H27485   1.294   2.239   9.040  2.1287 -0.6784  2.2852
  204MOL0     H27486   1.370   2.078   9.027 -0.7138  0.8004  2.8968
  204MOL0     H27487   1.515   2.332   8.949 -3.0399 -0.6543 -1.6419
  204MOL0     H27488   1.591   2.173   8.983  0.2835  0.3588 -0.2989
  204MOL0     H27489   1.637   2.307   9.178 -0.5103  1.4466 -0.2713
  204MOL0     H27490   1.471   2.361   9.190 -1.1029 -0.2259  3.4062
  204MOL0     H27491   1.679   2.015   9.226  0.8505  1.2731 -0.9277
  204MOL0     H27492   1.431   1.779   9.413 -1.1672  2.9138  3.0836
  204MOL0     H27493   1.585   1.782   9.321 -0.1330  4.4247 -3.4360
  204MOL0     H27494   1.704   1.886   9.522  0.9923 -1.1716 -0.0582
  204MOL0     H27495   1.542   1.897   9.599 -2.6405 -1.1597 -0.3684
  204MOL0     H27496   1.547   1.650   9.578  0.9710 -0.0302 -1.4923
  204MOL0     H27497   1.653   1.721   9.700  0.4199  0.4721 -0.0593
  204MOL0     H27498   1.740   1.627   9.416 -0.2070 -0.3403 -0.4474
  204MOL0     H27499   1.781   1.531   9.554  2.3879 -0.4179 -2.5001
  204MOL0     H27500   1.994   1.619   9.757  1.7539 -0.6630  1.6833
  204MOL0     H27501   2.236   1.535   9.751  0.2796 -1.9548 -0.9312
  204MOL0     H27502   2.572   1.254   9.552  0.3346 -0.5227  0.7643
  204MOL0     H27503   2.803   1.240   9.502 -0.8218 -0.6019  0.0570
  204MOL0     H27504   3.010   1.216   9.664  1.9691 -1.6793  0.1409
  204MOL0     H27505   3.000   1.238   9.486 -1.5942  0.8123  1.3803
  204MOL0     H27506   3.229   1.336   9.499  0.8532 -0.3778 -0.2500
  204MOL0     H27507   3.237   1.299   9.669  2.4513  0.4921 -0.3347
  204MOL0     H27508   3.218   1.049   9.603  0.5228 -1.0386 -0.9169
  204MOL0     H27509   3.207   1.098   9.434 -0.1264  1.1449 -0.9926
  204MOL0     H27510   3.437   1.163   9.624  2.6852 -1.1139 -0.4074
  204MOL0     H27511   3.441   1.195   9.450 -1.2614  2.9709  1.9329
  204MOL0     H27512   3.483   0.972   9.400  0.7019 -0.4738 -0.9100
  204MOL0     H27513   3.405   0.900   9.541 -0.5437  1.8323  0.8579
  204MOL0     H27514   3.661   1.051   9.526  0.1561 -0.4137 -1.2513
  204MOL0     H27515   3.582   0.997   9.684  1.9935 -0.5603  0.3723
  204MOL0     H27516   3.680   0.819   9.452 -0.2054 -4.3795  0.1989
  204MOL0     H27517   3.596   0.757   9.592  1.2834 -0.1945  0.9355
  204MOL0     H27518   3.849   0.739   9.622 -1.3319 -0.4380 -0.7291
  204MOL0     H27519   3.841   0.916   9.625  0.9601 -1.9876  0.1839
  204MOL0     H27520   2.877   1.627   9.686 -0.5994 -0.1209  0.9987
  204MOL0     H27521   2.636   1.654   9.706 -1.9577 -1.3312  1.7576
  204MOL0     H27522   2.222   1.606   9.323 -0.9800 -0.3966 -0.3481
  204MOL0     H27523   1.996   1.709   9.345 -0.8840 -2.2169 -0.2593
  204MOL0     H27524   0.578   1.893   8.660  1.3259  0.1331 -0.5734
  204MOL0     H27525   0.422   1.780   8.823  3.0259 -1.3756 -0.2350
  204MOL0     H27526   0.312   1.743   9.252 -0.5163 -1.6761 -1.5766
  204MOL0     H27527   0.171   1.646   9.421  1.2336  0.1562 -0.4741
  204MOL0     H27528  -0.271   1.686   9.353  0.7799  0.2665 -0.3415
  204MOL0     H27529  -0.253   1.799   9.498  2.8676  0.9555 -0.7458
  204MOL0     H27530  -0.414   1.601   9.529 -0.5159 -1.0419 -3.3736
  204MOL0     H27531  -0.280   1.592   9.646  1.0667 -3.1804 -1.3022
  204MOL0     H27532  -0.149   1.437   9.493 -0.1385 -1.0082  1.0769
  204MOL0     H27533  -0.286   1.442   9.381 -0.4202 -2.9889  0.4167
  204MOL0     H27534  -0.280   1.356   9.678 -0.1751  1.0169 -0.1545
  204MOL0     H27535  -0.422   1.347   9.589 -0.2213 -1.5498  0.2277
  204MOL0     H27536  -0.211   1.022   9.395 -1.8804  0.4861 -1.3069
  204MOL0     H27537  -0.150   1.900   9.288 -0.1037 -1.1150  1.9115
  204MOL0     H27538  -0.028   2.122   9.142 -2.5017 -0.6449  0.7833
  204MOL0     H27539  -0.013   2.011   8.991 -1.4492 -0.9914  0.2455
  204MOL0     H27540  -0.149   2.012   9.098 -0.8273  0.4570 -2.5365
  205MOL0     O27541   5.241  10.763   0.429  0.4105 -0.4251 -0.5841
  205MOL0     C27542   5.208  10.772   0.312  0.0031  0.1994  0.1618
  205MOL0     O27543   5.295  10.783   0.207 -0.3069 -0.7869 -0.3986
  205MOL0     C27544   5.419  10.737   0.222 -0.5278 -0.0352 -0.4273
  205MOL0     C27545   5.520  10.830   0.244  0.5043 -0.9770 -0.7926
  205MOL0     C27546   5.653  10.784   0.261 -0.3710  1.1038  0.2461
  205MOL0     C27547   5.690  10.653   0.233 -0.4311 -0.0963  0.7362
  205MOL0     O27548   5.829  10.635   0.240 -0.3036  0.7921 -0.8639
  205MOL0     C27549   5.877  10.503   0.265 -0.1180  0.1088 -1.1592
  205MOL0     C27550   6.023  10.522   0.327 -0.0251  0.1389  0.4912
  205MOL0     C27551   6.135  10.546   0.219  0.4936  0.1170  0.1284
  205MOL0     C27552   6.272  10.528   0.282  0.0225 -0.5221 -0.1447
  205MOL0     C27553   6.384  10.565   0.184 -0.1750 -0.1267  0.7678
  205MOL0     C27554   6.521  10.526   0.246 -0.0282 -0.2252 -0.8133
  205MOL0     C27555   6.633  10.550   0.149  0.1247  0.0287  0.6783
  205MOL0     C27556   6.759  10.463   0.178  0.1536  0.7323  0.2785
  205MOL0     N27557   6.870  10.531   0.115 -0.2876 -0.5620  0.1897
  205MOL0     C27558   6.941  10.619   0.184 -0.4092 -0.9612  0.4243
  205MOL0     C27559   7.031  10.678   0.090 -0.1561 -0.2987 -0.1103
  205MOL0     C27560   7.113  10.804   0.112  1.1062  0.6005 -0.8633
  205MOL0     C27561   7.260  10.775   0.073 -0.1175 -0.4978 -0.2203
  205MOL0     C27562   7.289  10.757  -0.081  0.2419 -0.4482  0.0379
  205MOL0     C27563   7.436  10.778  -0.112 -0.0477 -0.5770  0.5241
  205MOL0     O27564   7.490  10.909  -0.067  0.0093  0.0013  0.5774
  205MOL0     C27565   7.624  10.930  -0.055  0.2022 -0.2128 -0.2756
  205MOL0     C27566   7.713  10.849  -0.128 -0.2881 -0.1718 -0.7742
  205MOL0     C27567   7.852  10.879  -0.120  0.0977  0.2472 -0.5374
  205MOL0     C27568   7.893  10.998  -0.056 -0.3449  0.3065 -0.4676
  205MOL0     C27569   8.031  11.057  -0.073  0.4303  0.1421  0.2887
  205MOL0     O27570   8.099  11.011  -0.181 -0.2454  0.4504  0.3120
  205MOL0     C27571   8.208  11.075  -0.230 -0.6213 -0.1879  0.4601
  205MOL0     C27572   8.208  11.159  -0.337  0.5287  0.4195  0.6216
  205MOL0     C27573   8.317  11.241  -0.376 -0.2744 -0.5511 -0.2134
  205MOL0     C27574   8.440  11.228  -0.315  0.5850 -0.0452  0.4819
  205MOL0     O27575   8.549  11.309  -0.350 -0.1409  0.2262 -0.5226
  205MOL0     C27576   8.676  11.260  -0.316 -0.2074 -0.5261  1.0058
  205MOL0     C27577   8.767  11.362  -0.387  0.3533  0.3724 -0.9044
  205MOL0     C27578   8.750  11.500  -0.334  0.3705 -0.7895  0.0731
  205MOL0     C27579   8.867  11.593  -0.369  0.3555  0.3269 -0.3755
  205MOL0     C27580   8.853  11.641  -0.516 -0.8320 -0.2919 -0.0607
  205MOL0     C27581   8.992  11.694  -0.565  0.4200 -0.2071 -0.3390
  205MOL0     C27582   9.049  11.798  -0.463 -0.2614  0.6390 -0.4335
  205MOL0     C27583   8.960  11.916  -0.430 -0.0972  0.2607 -0.3999
  205MOL0    Cl27584   9.027  12.061  -0.372  0.3659 -0.0178 -0.3985
  205MOL0     C27585   8.443  11.140  -0.206  0.8609  0.0613 -0.9527
  205MOL0     C27586   8.329  11.072  -0.158 -0.0032  0.0551 -0.1053
  205MOL0     O27587   8.075  11.144  -0.002  1.1800 -0.3562 -0.1425
  205MOL0     C27588   7.805  11.072   0.022  0.3775 -0.6526 -0.3267
  205MOL0     C27589   7.668  11.040   0.016 -0.2951  0.4504 -1.1508
  205MOL0     N27590   7.003  10.622  -0.034 -0.3434  0.0467 -0.4931
  205MOL0     N27591   6.910  10.529  -0.017 -0.4130  0.7434 -0.1481
  205MOL0     C27592   5.587  10.565   0.194  0.3928 -0.3923 -0.4217
  205MOL0     C27593   5.453  10.603   0.190  1.4964 -0.9405  0.2077
  205MOL0     C27594   5.061  10.771   0.280  0.1611 -0.2166 -0.6567
  205MOL0     C27595   5.024  10.825   0.157  0.7085  0.0899  0.1804
  205MOL0     C27596   4.891  10.850   0.123 -0.3426 -0.0652 -0.0259
  205MOL0     C27597   4.783  10.808   0.199  0.0645  0.1303  0.4086
  205MOL0     O27598   4.661  10.820   0.147  0.2002 -0.1348 -0.5730
  205MOL0     C27599   4.542  10.792   0.231  0.2924 -0.2943  0.4342
  205MOL0     C27600   4.423  10.804   0.142  0.0319 -0.3899  0.0718
  205MOL0     C27601   4.289  10.789   0.228  0.3149  0.7025  0.4395
  205MOL0     C27602   4.168  10.817   0.146  0.4608 -0.4420  1.3494
  205MOL0     C27603   4.148  10.963   0.129  0.5149  1.0020  0.8394
  205MOL0     C27604   4.127  11.077   0.095 -0.1830 -0.3498  0.1357
  205MOL0     C27605   4.816  10.744   0.325  0.2539  0.7304  0.3717
  205MOL0     C27606   4.953  10.730   0.368  0.0440 -0.6845 -0.2838
  205MOL0     C27607   4.983  10.661   0.501  0.3093  0.0370 -0.6136
  205MOL0     H27608   5.489  10.932   0.259 -2.4804 -1.9610  0.4034
  205MOL0     H27609   5.731  10.852   0.291  1.6838  0.3085 -2.7542
  205MOL0     H27610   5.812  10.448   0.333  1.6071 -1.8241 -0.9483
  205MOL0     H27611   5.863  10.439   0.177 -0.8647  0.2003 -1.1145
  205MOL0     H27612   6.042  10.425   0.374 -0.4794 -1.5147 -2.4454
  205MOL0     H27613   6.020  10.601   0.402 -0.0590 -1.1271  1.8563
  205MOL0     H27614   6.134  10.645   0.172  1.4714 -0.5929 -1.4786
  205MOL0     H27615   6.129  10.467   0.143 -2.9122  0.1546  0.2342
  205MOL0     H27616   6.277  10.599   0.364  1.0391  0.4824 -1.0406
  205MOL0     H27617   6.296  10.431   0.328  1.1813  0.6710  1.8833
  205MOL0     H27618   6.360  10.505   0.096 -0.1559 -2.5796  2.3205
  205MOL0     H27619   6.375  10.671   0.161 -1.3425  0.1875  2.5054
  205MOL0     H27620   6.536  10.564   0.347  3.6473 -1.6485 -0.6547
  205MOL0     H27621   6.521  10.417   0.258  5.7379 -0.3537  1.3293
  205MOL0     H27622   6.660  10.656   0.141  0.1246 -0.1054 -1.8823
  205MOL0     H27623   6.594  10.527   0.049  3.1750  1.5838 -1.0153
  205MOL0     H27624   6.770  10.451   0.286 -1.1666 -4.5199  0.1088
  205MOL0     H27625   6.755  10.365   0.129 -0.0066  0.7160  0.3225
  205MOL0     H27626   6.921  10.658   0.284 -0.5861  0.0581  0.0009
  205MOL0     H27627   7.071  10.887   0.055 -1.4929  0.4177  0.6310
  205MOL0     H27628   7.108  10.819   0.220 -1.1591 -0.9992 -0.6791
  205MOL0     H27629   7.312  10.866   0.104 -0.1527 -0.5202 -0.0987
  205MOL0     H27630   7.297  10.691   0.132 -0.6382 -1.5432 -1.3195
  205MOL0     H27631   7.244  10.837  -0.141  0.5145  0.0595  0.5024
  205MOL0     H27632   7.253  10.660  -0.115 -1.5320  0.1004  0.2602
  205MOL0     H27633   7.460  10.781  -0.219 -3.0984  2.6784 -0.2383
  205MOL0     H27634   7.494  10.700  -0.060 -0.9142 -0.1997  2.1048
  205MOL0     H27635   7.680  10.762  -0.185 -0.4568 -1.0471  0.6197
  205MOL0     H27636   7.917  10.818  -0.181 -2.0290  0.9878 -3.8109
  205MOL0     H27637   8.119  11.175  -0.396 -0.4591 -1.2089  1.5791
  205MOL0     H27638   8.309  11.311  -0.458  1.1095  1.8381  1.5624
  205MOL0     H27639   8.693  11.262  -0.208 -1.3113  0.1939  1.1812
  205MOL0     H27640   8.688  11.155  -0.345  0.9886  0.1663 -1.2564
  205MOL0     H27641   8.867  11.319  -0.372 -1.6402 -4.9036 -0.7831
  205MOL0     H27642   8.739  11.359  -0.493  0.8685 -3.2093 -1.0561
  205MOL0     H27643   8.658  11.545  -0.371  1.1269  0.8425  0.1098
  205MOL0     H27644   8.744  11.494  -0.225 -1.2935 -4.3724 -0.0650
  205MOL0     H27645   8.958  11.536  -0.354 -0.3145 -0.8237 -0.5754
  205MOL0     H27646   8.869  11.682  -0.305  1.4275  0.8220 -1.0664
  205MOL0     H27647   8.781  11.722  -0.526  3.3802  3.9676  0.6995
  205MOL0     H27648   8.822  11.561  -0.584 -0.6285  0.0947 -0.6081
  205MOL0     H27649   9.060  11.611  -0.587 -1.5326 -2.0878  0.3828
  205MOL0     H27650   8.972  11.743  -0.660 -1.0392 -1.7603 -0.8897
  205MOL0     H27651   9.140  11.844  -0.503 -0.2108  0.9604  0.0435
  205MOL0     H27652   9.071  11.739  -0.374  3.8511  1.5253 -0.6703
  205MOL0     H27653   8.908  11.943  -0.523 -0.2289 -1.7792 -0.9630
  205MOL0     H27654   8.883  11.897  -0.354  0.7052  0.8226  0.5811
  205MOL0     H27655   8.535  11.119  -0.152  0.1693 -2.1148 -0.4921
  205MOL0     H27656   8.336  11.012  -0.069 -1.4993 -1.7996 -1.1655
  205MOL0     H27657   7.844  11.158   0.074 -1.2636 -2.6660  4.8630
  205MOL0     H27658   7.586  11.096   0.061 -0.2682  1.9001 -2.8117
  205MOL0     H27659   5.610  10.462   0.172  0.7553 -0.2304 -0.8052
  205MOL0     H27660   5.368  10.540   0.170  0.0992  0.8753  0.2075
  205MOL0     H27661   5.103  10.855   0.089 -1.1561 -0.7821 -2.5170
  205MOL0     H27662   4.872  10.886   0.023  0.0081 -0.8307 -0.3796
  205MOL0     H27663   4.529  10.870   0.306 -0.7415  0.4538 -0.4828
  205MOL0     H27664   4.546  10.698   0.286 -1.5920 -1.3473 -1.1330
  205MOL0     H27665   4.426  10.732   0.060  1.9670 -1.1684  0.7644
  205MOL0     H27666   4.422  10.906   0.101 -1.9606 -0.4911 -0.2251
  205MOL0     H27667   4.289  10.851   0.318  1.4976  0.9810  0.2575
  205MOL0     H27668   4.272  10.682   0.244 -1.5870  0.6791 -1.2691
  205MOL0     H27669   4.166  10.764   0.051  0.4862 -0.9623  1.6365
  205MOL0     H27670   4.093  10.762   0.203  0.3960 -3.0401 -1.0117
  205MOL0     H27671   4.102  11.180   0.080 -0.3836 -0.4504 -0.2504
  205MOL0     H27672   4.743  10.707   0.396 -1.2296  2.2025 -0.3110
  205MOL0     H27673   4.900  10.599   0.537  3.7018 -3.1047  2.6217
  205MOL0     H27674   5.073  10.599   0.495  0.1901 -0.3682  1.1608
  205MOL0     H27675   5.007  10.726   0.585  1.6121  0.7231 -1.4955
  206MOL0     O27676   3.456   0.359   6.573  0.1888 -0.5593  0.1519
  206MOL0     C27677   3.402   0.473   6.580 -0.2565 -0.0460  0.2799
  206MOL0     O27678   3.475   0.592   6.565 -0.7987  0.6114 -0.0127
  206MOL0     C27679   3.610   0.574   6.546  0.0356 -0.0350 -1.0647
  206MOL0     C27680   3.655   0.566   6.418  0.3461 -0.2014  0.1887
  206MOL0     C27681   3.797   0.562   6.385  0.2529 -0.0798 -0.6430
  206MOL0     C27682   3.892   0.561   6.491  0.6172  0.7236  0.3782
  206MOL0     O27683   4.025   0.555   6.456  0.2848  0.1063 -0.2470
  206MOL0     C27684   4.104   0.453   6.515 -0.4693 -0.1832 -0.3538
  206MOL0     C27685   4.245   0.457   6.466 -0.7391  0.2156  0.0178
  206MOL0     C27686   4.331   0.331   6.494 -0.2427  1.2358  0.0618
  206MOL0     C27687   4.490   0.353   6.459  0.9314  0.0660 -0.8249
  206MOL0     C27688   4.529   0.421   6.329  0.9936 -0.0290  0.0799
  206MOL0     C27689   4.483   0.324   6.218 -0.5244 -0.3238 -0.3386
  206MOL0     C27690   4.516   0.369   6.074 -0.5591 -0.2393  0.0206
  206MOL0     C27691   4.466   0.277   5.956 -0.0041 -0.9240  0.2059
  206MOL0     N27692   4.521   0.318   5.834 -0.3959  0.0652  1.0691
  206MOL0     C27693   4.612   0.234   5.772  0.3514 -0.3399  0.6133
  206MOL0     C27694   4.673   0.313   5.674  0.2250 -0.5496 -0.2593
  206MOL0     C27695   4.785   0.286   5.571 -0.8047  0.2347 -0.6880
  206MOL0     C27696   4.918   0.341   5.612 -0.2198  0.6301 -0.2729
  206MOL0     C27697   5.036   0.303   5.517 -0.4889  0.1099 -0.1854
  206MOL0     C27698   5.168   0.372   5.567 -0.0361 -0.7233  0.3554
  206MOL0     O27699   5.216   0.295   5.671 -0.0243 -0.2199 -0.0397
  206MOL0     C27700   5.342   0.323   5.718  0.0436 -0.1992 -0.1718
  206MOL0     C27701   5.402   0.229   5.804  0.6584 -1.0276  0.2097
  206MOL0     C27702   5.535   0.238   5.841  0.2682 -0.0442 -0.2363
  206MOL0     C27703   5.616   0.342   5.793 -0.8319  0.0936  0.6035
  206MOL0     C27704   5.757   0.355   5.826  0.1193  0.1482  0.0913
  206MOL0     O27705   5.827   0.468   5.810  0.0818 -0.0286 -0.0461
  206MOL0     C27706   5.954   0.483   5.838 -0.5176  0.0225 -0.6902
  206MOL0     C27707   6.057   0.396   5.789 -0.6103  0.0795  0.2264
  206MOL0     C27708   6.192   0.421   5.822  0.4072  0.6733 -0.0167
  206MOL0     C27709   6.223   0.534   5.892  0.0410 -0.2713 -0.3046
  206MOL0     O27710   6.360   0.535   5.917  0.4059  0.2918  0.4655
  206MOL0     C27711   6.412   0.624   6.028 -0.1084 -0.1939  0.0760
  206MOL0     C27712   6.566   0.634   6.036 -0.0990  1.4134  0.7416
  206MOL0     C27713   6.614   0.491   6.071 -0.7173  0.3311  0.8334
  206MOL0     C27714   6.766   0.500   6.130 -0.7046  0.3323  0.1797
  206MOL0     C27715   6.767   0.555   6.276 -0.1274 -0.2674 -0.5202
  206MOL0     C27716   6.911   0.590   6.329  0.5327  0.0100  0.0313
  206MOL0     C27717   6.942   0.727   6.272  0.2935 -0.0169  0.3842
  206MOL0     C27718   7.041   0.803   6.356  0.2099  0.1364 -0.3205
  206MOL0    Cl27719   7.103   0.956   6.278  0.0117 -0.1984 -0.1368
  206MOL0     C27720   6.118   0.607   5.961 -0.4765  0.0671  0.2330
  206MOL0     C27721   5.983   0.576   5.937 -0.1408  0.1493 -0.2086
  206MOL0     O27722   5.811   0.244   5.857  0.0209 -0.5560 -0.4908
  206MOL0     C27723   5.554   0.448   5.722 -0.8270  0.1464  0.3198
  206MOL0     C27724   5.413   0.440   5.693  0.6769 -0.3822  0.7974
  206MOL0     N27725   4.603   0.430   5.685 -0.2210 -0.0285  0.2561
  206MOL0     N27726   4.507   0.434   5.764 -0.1388 -0.3848 -0.7987
  206MOL0     C27727   3.843   0.554   6.621  1.4799 -0.0873 -1.1409
  206MOL0     C27728   3.704   0.559   6.653 -0.2246  0.2239  0.5244
  206MOL0     C27729   3.258   0.491   6.605  0.2043 -0.3339  0.0216
  206MOL0     C27730   3.197   0.626   6.597  0.0581 -0.6935  0.5813
  206MOL0     C27731   3.062   0.644   6.625 -0.1510  0.0249 -0.1716
  206MOL0     C27732   2.979   0.538   6.645 -0.2044 -0.0487  0.6494
  206MOL0     O27733   2.838   0.559   6.654 -0.3235  0.7414  0.0244
  206MOL0     C27734   2.755   0.470   6.720  0.4521 -0.3526 -0.1038
  206MOL0     C27735   2.623   0.541   6.762 -0.7339 -0.6944  0.5104
  206MOL0     C27736   2.525   0.454   6.840 -0.0137 -0.4120 -0.3506
  206MOL0     C27737   2.414   0.545   6.900 -0.0862  0.4169  0.4070
  206MOL0     C27738   2.343   0.463   6.992  0.8204  0.2362  0.2048
  206MOL0     C27739   2.275   0.401   7.073 -0.6106  0.6012  0.3487
  206MOL0     C27740   3.032   0.411   6.652  0.4874 -0.0264 -0.0506
  206MOL0     C27741   3.170   0.381   6.625 -0.2417 -0.0011 -0.7033
  206MOL0     C27742   3.207   0.239   6.654 -0.4553  0.3693 -0.6118
  206MOL0     H27743   3.580   0.583   6.342  0.3832 -1.4533 -0.1473
  206MOL0     H27744   3.848   0.562   6.288  2.8989 -2.7518  0.5655
  206MOL0     H27745   4.104   0.457   6.624 -1.0082 -3.2376 -0.1745
  206MOL0     H27746   4.065   0.358   6.477 -2.1886 -0.3483  1.6540
  206MOL0     H27747   4.306   0.535   6.513  0.2244 -0.5370  0.0529
  206MOL0     H27748   4.246   0.483   6.360 -4.0316  2.1788  0.3442
  206MOL0     H27749   4.295   0.248   6.432 -0.1066  1.3358 -0.1545
  206MOL0     H27750   4.321   0.298   6.598 -2.1465 -2.1190 -1.0189
  206MOL0     H27751   4.534   0.410   6.541 -0.1618  1.1213 -0.9408
  206MOL0     H27752   4.535   0.254   6.450  2.5340  0.8392 -2.0286
  206MOL0     H27753   4.495   0.525   6.322  1.0463  0.1768  2.2137
  206MOL0     H27754   4.638   0.430   6.319  0.9046  1.4028  0.2608
  206MOL0     H27755   4.528   0.227   6.240  0.6787  0.9015  3.4388
  206MOL0     H27756   4.375   0.305   6.223 -0.3743 -0.9948  0.5667
  206MOL0     H27757   4.624   0.381   6.067 -0.4414 -1.1791  0.1061
  206MOL0     H27758   4.462   0.461   6.052 -1.2482 -0.9946 -1.6501
  206MOL0     H27759   4.500   0.174   5.969 -0.3743 -1.1400 -0.4891
  206MOL0     H27760   4.357   0.289   5.960  0.2094  1.0856  1.6486
  206MOL0     H27761   4.629   0.129   5.795 -2.4146 -2.0479 -3.7907
  206MOL0     H27762   4.782   0.179   5.551  1.2553  0.4793 -2.7723
  206MOL0     H27763   4.753   0.335   5.479 -1.1258  1.3410 -0.0088
  206MOL0     H27764   4.908   0.450   5.608 -2.8643  0.4365 -0.5421
  206MOL0     H27765   4.925   0.301   5.714 -1.0565  0.4598 -0.2786
  206MOL0     H27766   5.015   0.335   5.415  1.2916  2.2683  0.0479
  206MOL0     H27767   5.055   0.195   5.510  0.0802  0.2819 -1.4072
  206MOL0     H27768   5.155   0.477   5.595 -0.5489 -0.9977  1.1696
  206MOL0     H27769   5.237   0.368   5.482  1.9430  1.0421  1.7519
  206MOL0     H27770   5.334   0.149   5.831  1.4381 -2.0196 -0.6906
  206MOL0     H27771   5.577   0.168   5.912 -1.3485 -0.6260  0.1903
  206MOL0     H27772   6.027   0.313   5.725  1.8412 -0.4618 -0.3095
  206MOL0     H27773   6.266   0.348   5.792  0.4036 -0.0047  1.5350
  206MOL0     H27774   6.370   0.723   6.008 -2.5207 -1.3082 -0.7714
  206MOL0     H27775   6.368   0.588   6.122  1.1525  0.5992  1.0018
  206MOL0     H27776   6.612   0.665   5.942 -0.3667 -1.5949 -0.5086
  206MOL0     H27777   6.596   0.695   6.121  2.5360  1.6398 -0.2596
  206MOL0     H27778   6.543   0.445   6.140  1.0579  0.8931  3.1499
  206MOL0     H27779   6.621   0.428   5.982  0.5939  0.9901  0.4475
  206MOL0     H27780   6.827   0.566   6.068  2.4247 -2.4005  0.1109
  206MOL0     H27781   6.823   0.407   6.132  2.4491  2.1291  0.9870
  206MOL0     H27782   6.747   0.474   6.347 -0.5924  0.0286 -0.3044
  206MOL0     H27783   6.688   0.628   6.295 -1.0945 -1.1845 -0.9021
  206MOL0     H27784   6.918   0.587   6.438 -1.5019 -1.9209  0.1773
  206MOL0     H27785   6.979   0.508   6.304 -2.4591 -2.5765 -0.1971
  206MOL0     H27786   6.858   0.797   6.270  0.5741  0.3341  0.7246
  206MOL0     H27787   6.978   0.711   6.169 -1.4842  1.0770 -0.4612
  206MOL0     H27788   6.997   0.836   6.451  3.0912 -0.0076  1.1892
  206MOL0     H27789   7.129   0.740   6.372  0.4175  0.2152 -1.1236
  206MOL0     H27790   6.140   0.674   6.043 -2.2187  1.6486 -0.5187
  206MOL0     H27791   5.908   0.633   5.991 -0.4445  0.2509 -0.7217
  206MOL0     H27792   5.611   0.539   5.707 -1.7183  0.4479 -1.5572
  206MOL0     H27793   5.379   0.527   5.637  0.6103 -0.7078  0.3240
  206MOL0     H27794   3.907   0.529   6.705 -2.9956 -0.8866  2.4168
  206MOL0     H27795   3.668   0.560   6.756  0.4191 -1.0731  0.7840
  206MOL0     H27796   3.251   0.715   6.565 -1.8744  1.3589  2.7667
  206MOL0     H27797   3.018   0.743   6.617 -2.9649 -1.2205 -1.2009
  206MOL0     H27798   2.809   0.445   6.812  0.0214 -3.3988 -0.5728
  206MOL0     H27799   2.733   0.384   6.657  0.5955 -1.4592  1.2885
  206MOL0     H27800   2.575   0.579   6.672 -0.0047  1.8032  1.1013
  206MOL0     H27801   2.659   0.632   6.811  3.1133 -0.8171 -1.6468
  206MOL0     H27802   2.581   0.397   6.914 -0.1527 -1.8927 -1.3368
  206MOL0     H27803   2.482   0.379   6.772  0.7698 -1.1444 -0.0570
  206MOL0     H27804   2.468   0.634   6.935  0.6399  0.6688 -1.2366
  206MOL0     H27805   2.341   0.567   6.822 -0.0748 -1.6215 -0.2425
  206MOL0     H27806   2.197   0.368   7.139  1.1907  0.3924  2.4846
  206MOL0     H27807   2.965   0.329   6.674 -2.5736  1.7347 -1.9790
  206MOL0     H27808   3.265   0.200   6.570 -0.7530  0.4255 -0.8443
  206MOL0     H27809   3.260   0.224   6.749 -2.4555  0.4598  0.5707
  206MOL0     H27810   3.119   0.175   6.665 -0.9329  1.0725 -0.2603
  207MOL0     O27811  10.677   0.605   0.634  0.1768  0.1299 -0.6197
  207MOL0     C27812  10.650   0.554   0.526  0.4013 -0.8571 -0.9705
  207MOL0     O27813  10.728   0.552   0.414  0.0139  0.5954  0.2759
  207MOL0     C27814  10.863   0.573   0.404 -0.1429  0.0470 -0.5877
  207MOL0     C27815  10.924   0.538   0.286 -0.0040 -0.4186  0.3912
  207MOL0     C27816  11.055   0.578   0.264 -0.5889 -1.0020  0.0927
  207MOL0     C27817  11.144   0.639   0.356 -0.6640 -0.0798  0.2380
  207MOL0     O27818  11.275   0.662   0.321 -0.4443  0.0421  0.2663
  207MOL0     C27819  11.352   0.766   0.374  0.3560  0.2796  0.0328
  207MOL0     C27820  11.448   0.717   0.482 -0.3676 -0.5260  0.5180
  207MOL0     C27821  11.545   0.830   0.532  0.2873  0.1373 -0.2158
  207MOL0     C27822  11.630   0.791   0.650 -0.4209  0.2422 -0.9813
  207MOL0     C27823  11.690   0.912   0.727  0.3346 -0.0993 -0.5382
  207MOL0     C27824  11.790   0.980   0.635 -0.1188  0.1998  0.6530
  207MOL0     C27825  11.850   1.103   0.698 -0.2495 -0.2033 -1.1372
  207MOL0     C27826  11.934   1.171   0.590 -0.8099  0.2034 -0.3674
  207MOL0     N27827  12.028   1.072   0.526 -0.3099  0.7057  0.3814
  207MOL0     C27828  12.130   0.990   0.581  0.2608 -0.5232  0.3015
  207MOL0     C27829  12.183   0.927   0.477  0.5415  0.2947 -0.3775
  207MOL0     C27830  12.306   0.844   0.471  0.2053  0.0107 -0.5588
  207MOL0     C27831  12.412   0.874   0.355  0.6488 -0.3810 -0.1566
  207MOL0     C27832  12.463   1.018   0.336  0.0502 -0.1677 -0.6609
  207MOL0     C27833  12.576   1.022   0.236  1.0048 -0.3252  0.5335
  207MOL0     O27834  12.674   0.915   0.261  0.6795  0.4500 -0.4078
  207MOL0     C27835  12.802   0.962   0.293  0.0165  0.6255  0.3662
  207MOL0     C27836  12.832   1.069   0.376 -0.5645 -0.3022 -0.0084
  207MOL0     C27837  12.956   1.089   0.426  0.5049 -0.0197 -0.1625
  207MOL0     C27838  13.061   1.006   0.390 -0.6598 -0.5382 -0.1958
  207MOL0     C27839  13.197   1.041   0.437 -0.1432 -0.7684  0.5019
  207MOL0     O27840  13.225   1.152   0.516 -0.3326  0.0355 -0.0005
  207MOL0     C27841  13.354   1.169   0.565 -1.2099 -0.6647 -0.4723
  207MOL0     C27842  13.435   1.079   0.641  0.1493 -0.0217 -0.4005
  207MOL0     C27843  13.570   1.110   0.668  0.2515  0.2320  0.0315
  207MOL0     C27844  13.628   1.236   0.642  0.6276 -1.0146 -0.6469
  207MOL0     O27845  13.756   1.276   0.648 -0.5651  0.2735  0.0230
  207MOL0     C27846  13.852   1.178   0.678  0.0221 -0.4121 -0.3989
  207MOL0     C27847  13.989   1.264   0.676 -0.1660 -0.0702  0.8268
  207MOL0     C27848  14.005   1.306   0.527 -0.0189 -0.9110  0.0045
  207MOL0     C27849  14.137   1.388   0.508  0.4917  0.9518  0.2296
  207MOL0     C27850  14.263   1.301   0.518 -0.3477  0.8686  0.3122
  207MOL0     C27851  14.381   1.347   0.426 -1.0408 -0.4906 -0.0900
  207MOL0     C27852  14.499   1.243   0.426 -0.3928 -0.4557 -0.4042
  207MOL0     C27853  14.581   1.261   0.551 -0.5078 -0.6475 -0.4774
  207MOL0    Cl27854  14.707   1.143   0.565  0.0442  0.1664  0.2031
  207MOL0     C27855  13.544   1.322   0.570 -0.4339  0.2133 -0.4959
  207MOL0     C27856  13.412   1.293   0.536 -0.2623 -0.3583 -0.0092
  207MOL0     O27857  13.286   0.972   0.385  0.6354  0.1472 -0.7328
  207MOL0     C27858  13.035   0.903   0.294 -0.3562  0.3356 -0.7842
  207MOL0     C27859  12.905   0.881   0.257  0.3294  0.2266  0.3849
  207MOL0     N27860  12.119   0.968   0.360 -0.2876 -0.0657 -0.2308
  207MOL0     N27861  12.029   1.057   0.394  0.0765  0.3548 -0.5081
  207MOL0     C27862  11.080   0.666   0.475 -0.3126 -0.3334  0.0567
  207MOL0     C27863  10.941   0.633   0.505 -0.0006  0.0720  0.9338
  207MOL0     C27864  10.509   0.498   0.526  0.1797  0.1436 -1.0420
  207MOL0     C27865  10.448   0.447   0.643 -0.3189  0.3601  0.1760
  207MOL0     C27866  10.315   0.412   0.647 -0.2166  0.1607 -0.4181
  207MOL0     C27867  10.234   0.440   0.536 -0.5218  0.2210 -0.8126
  207MOL0     O27868  10.099   0.420   0.536 -0.3771  0.0289 -0.2506
  207MOL0     C27869  10.065   0.271   0.526 -0.5664 -0.6146 -0.9770
  207MOL0     C27870   9.987   0.238   0.395 -0.6921 -0.6719  0.4490
  207MOL0     C27871   9.945   0.088   0.406  0.0864  0.5475 -0.2774
  207MOL0     C27872   9.881   0.047   0.270  1.0508  0.4931 -0.3041
  207MOL0     C27873   9.777  -0.057   0.280 -0.0186  0.2133 -1.0448
  207MOL0     C27874   9.687  -0.135   0.296  0.2615 -0.1340  0.4618
  207MOL0     C27875  10.292   0.488   0.421 -0.2700 -0.0176 -0.5575
  207MOL0     C27876  10.426   0.520   0.415  0.2951 -0.5175  0.6113
  207MOL0     C27877  10.476   0.578   0.285  0.4381  0.0563 -0.2379
  207MOL0     H27878  10.870   0.471   0.219 -0.0595  0.2591 -0.2506
  207MOL0     H27879  11.100   0.546   0.170 -0.1235 -1.1390  0.3539
  207MOL0     H27880  11.405   0.811   0.290 -2.2612  0.4342 -1.6562
  207MOL0     H27881  11.288   0.839   0.424 -0.3089 -0.4001  0.1930
  207MOL0     H27882  11.510   0.637   0.441 -1.7067  0.4430 -3.9064
  207MOL0     H27883  11.392   0.685   0.571  1.2036 -0.7475  1.4514
  207MOL0     H27884  11.480   0.911   0.567  1.1240 -0.0785  1.9799
  207MOL0     H27885  11.607   0.870   0.451 -0.0799  2.0063  0.3675
  207MOL0     H27886  11.575   0.729   0.721  1.3277 -0.4161 -0.1326
  207MOL0     H27887  11.711   0.722   0.625  0.2094 -0.2365  1.9535
  207MOL0     H27888  11.612   0.985   0.752 -0.1155  0.4094 -3.2149
  207MOL0     H27889  11.736   0.896   0.826 -2.3240  3.7940  1.6261
  207MOL0     H27890  11.863   0.902   0.611  0.1686  0.0934  1.8055
  207MOL0     H27891  11.740   1.018   0.546 -0.3764  0.7770  1.0378
  207MOL0     H27892  11.922   1.093   0.779  1.0227  4.2104 -1.4449
  207MOL0     H27893  11.772   1.172   0.733 -1.5582 -1.2776 -1.8632
  207MOL0     H27894  11.864   1.204   0.512 -0.7851 -1.0638 -0.9518
  207MOL0     H27895  11.995   1.253   0.627 -1.3398 -0.3512  1.8878
  207MOL0     H27896  12.161   0.999   0.685 -1.4232 -0.4562  0.8274
  207MOL0     H27897  12.363   0.855   0.564  0.1718  0.8522 -0.6320
  207MOL0     H27898  12.262   0.744   0.462 -1.2309  0.5768 -0.1644
  207MOL0     H27899  12.497   0.812   0.385  1.9296  0.8615 -1.0507
  207MOL0     H27900  12.368   0.842   0.260 -1.1123 -0.1547  0.5548
  207MOL0     H27901  12.498   1.050   0.434 -1.1564 -2.8857  0.7458
  207MOL0     H27902  12.385   1.085   0.299  1.0880 -0.4153 -3.6378
  207MOL0     H27903  12.610   1.125   0.244  1.0431 -0.2972  0.0475
  207MOL0     H27904  12.532   1.018   0.136  1.9585 -1.8722  0.1400
  207MOL0     H27905  12.755   1.129   0.425  0.1982  0.2273  0.5659
  207MOL0     H27906  12.962   1.169   0.500 -0.8065  0.8141 -0.9342
  207MOL0     H27907  13.395   0.993   0.693 -0.6030 -0.3721 -1.4961
  207MOL0     H27908  13.638   1.037   0.712  0.6557 -3.0668 -5.1837
  207MOL0     H27909  13.836   1.130   0.775 -3.8083  2.2886  0.5383
  207MOL0     H27910  13.854   1.103   0.598 -1.7871 -1.5810  0.5881
  207MOL0     H27911  13.975   1.353   0.739 -0.8856 -0.7155  1.5917
  207MOL0     H27912  14.068   1.198   0.713 -2.3402 -2.0624  2.2399
  207MOL0     H27913  13.993   1.215   0.468 -0.2252 -0.1662 -1.1372
  207MOL0     H27914  13.922   1.370   0.498  1.2975 -0.3973 -2.9644
  207MOL0     H27915  14.142   1.481   0.564 -0.0970  3.1912 -3.1777
  207MOL0     H27916  14.129   1.433   0.409 -3.6030  0.6735  0.2440
  207MOL0     H27917  14.241   1.198   0.490 -1.8910  0.5823  2.3092
  207MOL0     H27918  14.291   1.307   0.624 -0.3099  2.4097  0.2348
  207MOL0     H27919  14.342   1.349   0.324  0.8538 -1.1749 -0.8589
  207MOL0     H27920  14.416   1.449   0.443  1.6757 -0.7026 -3.3183
  207MOL0     H27921  14.569   1.271   0.346  0.4165  2.5135  1.1953
  207MOL0     H27922  14.464   1.140   0.420 -1.8823  0.0715 -1.3013
  207MOL0     H27923  14.622   1.362   0.563 -0.2978 -0.8450  0.5737
  207MOL0     H27924  14.513   1.230   0.630  1.7820 -1.8380  1.1444
  207MOL0     H27925  13.588   1.418   0.544 -2.3398  2.2348  2.9891
  207MOL0     H27926  13.348   1.369   0.493  0.4208  0.4203  0.3276
  207MOL0     H27927  13.116   0.844   0.253  0.2923  2.1200 -2.2006
  207MOL0     H27928  12.884   0.797   0.191  0.1392  0.4547  0.1590
  207MOL0     H27929  11.130   0.712   0.559  0.3499 -0.9430  0.0085
  207MOL0     H27930  10.898   0.657   0.602 -2.3794  2.4976 -0.5985
  207MOL0     H27931  10.503   0.424   0.733  1.0931 -2.0537 -1.1825
  207MOL0     H27932  10.267   0.363   0.731 -2.1778 -0.6934 -1.9615
  207MOL0     H27933   9.999   0.254   0.612 -0.3010  2.0260 -0.1411
  207MOL0     H27934  10.150   0.203   0.538 -1.5347 -1.5501  1.0891
  207MOL0     H27935  10.062   0.257   0.318 -0.1899  0.3126  1.1612
  207MOL0     H27936   9.904   0.307   0.378  1.3635  2.0051  0.5466
  207MOL0     H27937   9.879   0.083   0.494  3.1801  1.2602  2.2906
  207MOL0     H27938  10.031   0.024   0.428 -0.1339  1.3534  3.9392
  207MOL0     H27939   9.829   0.136   0.233  1.1122  0.8818  0.5235
  207MOL0     H27940   9.955   0.015   0.196 -0.2874 -1.0256 -1.0580
  207MOL0     H27941   9.597  -0.194   0.298 -0.2513  0.6101  2.7758
  207MOL0     H27942  10.227   0.512   0.337  0.5455 -2.0740 -1.8609
  207MOL0     H27943  10.395   0.604   0.215 -0.9516  3.5973  2.3854
  207MOL0     H27944  10.534   0.670   0.297 -0.3615  0.3863  1.3938
  207MOL0     H27945  10.539   0.503   0.235 -0.0995 -0.6501  0.1269
  208MOL0     O27946   0.742   4.163   5.624 -0.4798 -0.1754 -0.5929
  208MOL0     C27947   0.700   4.138   5.733  0.4779 -0.9026 -0.1249
  208MOL0     O27948   0.776   4.094   5.844 -0.1314 -0.2570 -0.0742
  208MOL0     C27949   0.914   4.076   5.829 -0.4152 -0.5171 -0.0694
  208MOL0     C27950   0.987   4.118   5.936  0.3873  0.7293 -0.1520
  208MOL0     C27951   1.129   4.123   5.937  0.8341  0.1383 -0.2249
  208MOL0     C27952   1.195   4.072   5.830  0.6614  0.3701  0.3577
  208MOL0     O27953   1.328   4.055   5.850  0.3052  0.1528 -1.3248
  208MOL0     C27954   1.402   3.963   5.769 -0.1792  0.5485  0.2006
  208MOL0     C27955   1.546   3.942   5.827  0.5959 -0.6172  0.3329
  208MOL0     C27956   1.644   4.059   5.799  0.4431  0.0966 -0.1118
  208MOL0     C27957   1.792   4.014   5.821 -0.4546  0.2519 -0.4065
  208MOL0     C27958   1.818   3.987   5.971  0.4298 -0.2555 -0.0343
  208MOL0     C27959   1.950   3.932   5.993 -1.0641 -0.0740  0.3392
  208MOL0     C27960   1.977   3.947   6.147  0.1689 -0.5679  0.1398
  208MOL0     C27961   2.113   3.892   6.200 -0.1089  0.2794 -0.1515
  208MOL0     N27962   2.226   3.970   6.140 -0.0200  0.7023 -1.0148
  208MOL0     C27963   2.294   3.940   6.023  1.1015 -0.3565 -1.1715
  208MOL0     C27964   2.384   4.038   6.012 -0.2963 -0.6894 -0.3105
  208MOL0     C27965   2.471   4.055   5.889  0.1145  0.7182  0.2815
  208MOL0     C27966   2.617   4.105   5.913 -0.0315  0.1699 -0.3971
  208MOL0     C27967   2.695   4.011   6.001  0.9071  0.8654 -0.1418
  208MOL0     C27968   2.845   4.037   5.987 -0.2065  0.2541  0.1780
  208MOL0     O27969   2.920   3.951   6.082  0.9465 -0.5521 -0.2434
  208MOL0     C27970   3.057   3.958   6.066  0.4637 -0.1046  0.2100
  208MOL0     C27971   3.128   4.072   6.021  0.1064 -0.0813  0.0247
  208MOL0     C27972   3.264   4.064   5.997  0.2993 -0.6604  0.6452
  208MOL0     C27973   3.332   3.945   6.033 -0.4680 -0.0220  0.0889
  208MOL0     C27974   3.471   3.939   6.031 -0.2017  0.0486 -0.2538
  208MOL0     O27975   3.523   3.830   6.078  0.2320 -0.5403  0.0303
  208MOL0     C27976   3.661   3.804   6.077  0.6804 -0.8517  0.1619
  208MOL0     C27977   3.762   3.888   6.138 -0.0672 -0.2228 -0.4721
  208MOL0     C27978   3.899   3.858   6.132  0.0121 -0.3689 -0.1395
  208MOL0     C27979   3.943   3.735   6.082  0.6010 -0.7038  0.3491
  208MOL0     O27980   4.068   3.703   6.103  0.7905 -0.3363 -0.8951
  208MOL0     C27981   4.129   3.609   6.027  0.1413 -0.7533  0.3571
  208MOL0     C27982   4.277   3.637   6.037  0.5856 -0.4972  0.0299
  208MOL0     C27983   4.344   3.542   5.944 -0.1155  0.4099 -1.2693
  208MOL0     C27984   4.499   3.575   5.901  0.4310  0.3977  0.6787
  208MOL0     C27985   4.599   3.543   6.007  0.1415 -0.4907 -0.1417
  208MOL0     C27986   4.742   3.565   5.956  0.9391 -0.3556 -0.1821
  208MOL0     C27987   4.849   3.580   6.067  0.5995  1.0125 -0.3599
  208MOL0     C27988   4.994   3.549   6.008  0.2615 -0.4644 -0.3656
  208MOL0    Cl27989   5.023   3.635   5.855 -0.5044  0.2487  0.4338
  208MOL0     C27990   3.846   3.658   6.017 -1.0852 -0.0139 -0.0417
  208MOL0     C27991   3.707   3.682   6.019  0.5076 -0.6517  0.1829
  208MOL0     O27992   3.534   4.029   5.977  0.0944 -0.6080  0.2468
  208MOL0     C27993   3.260   3.837   6.087 -1.1492  1.1425  0.3134
  208MOL0     C27994   3.125   3.836   6.088  0.4200 -0.7419 -0.6732
  208MOL0     N27995   2.383   4.114   6.123 -0.0809 -0.3176 -0.0034
  208MOL0     N27996   2.297   4.073   6.204 -0.1916  0.1303 -0.0082
  208MOL0     C27997   1.127   4.020   5.724 -0.1301 -0.0710  0.1830
  208MOL0     C27998   0.989   4.021   5.712 -0.0485  0.6257 -0.2372
  208MOL0     C27999   0.555   4.167   5.752  0.3304  0.0176  0.8276
  208MOL0     C28000   0.505   4.150   5.880  0.3606 -0.2753  0.2274
  208MOL0     C28001   0.377   4.209   5.914  0.2043  0.2755  0.1734
  208MOL0     C28002   0.290   4.273   5.825 -0.2301 -0.7954  0.7047
  208MOL0     O28003   0.171   4.333   5.847 -0.0965  0.1760 -0.1677
  208MOL0     C28004   0.139   4.342   5.980 -0.3664  0.2352  0.4911
  208MOL0     C28005   0.011   4.410   5.997  0.4365  0.8373 -0.9286
  208MOL0     C28006  -0.013   4.429   6.147  1.1769 -0.5170  0.8817
  208MOL0     C28007  -0.143   4.513   6.168 -0.3128  0.7575  0.1455
  208MOL0     C28008  -0.256   4.437   6.123  0.3942  0.4060 -0.5511
  208MOL0     C28009  -0.352   4.386   6.072 -0.6608  0.9669  0.2612
  208MOL0     C28010   0.343   4.273   5.696 -0.4298  0.3388 -0.0632
  208MOL0     C28011   0.475   4.231   5.657 -0.1373  0.2574  0.2321
  208MOL0     C28012   0.514   4.267   5.519  0.1409 -0.7449  0.1105
  208MOL0     H28013   0.937   4.145   6.029  2.8736 -0.3269  1.6327
  208MOL0     H28014   1.188   4.174   6.012  0.0440  0.0953  0.4460
  208MOL0     H28015   1.365   3.860   5.768  1.3701 -0.0339  0.0667
  208MOL0     H28016   1.400   3.993   5.663 -0.3276  0.8215  0.2809
  208MOL0     H28017   1.589   3.847   5.794  2.2067 -0.2658  1.2904
  208MOL0     H28018   1.533   3.932   5.935 -1.6694  0.5795  0.2325
  208MOL0     H28019   1.618   4.147   5.859 -1.7041 -0.3813 -0.2701
  208MOL0     H28020   1.618   4.091   5.697 -1.9443  1.0599  0.7294
  208MOL0     H28021   1.805   3.918   5.769 -2.8476  0.8884 -2.3563
  208MOL0     H28022   1.865   4.090   5.791 -0.0029 -0.2230 -0.5427
  208MOL0     H28023   1.799   4.070   6.039  1.2709 -1.6647  2.0432
  208MOL0     H28024   1.750   3.907   6.003 -0.8849 -0.7335 -3.5450
  208MOL0     H28025   1.964   3.826   5.968  1.4895 -0.2867  2.2354
  208MOL0     H28026   2.023   3.984   5.930 -2.3149  0.9769 -0.2752
  208MOL0     H28027   1.897   3.893   6.199 -1.2670  0.5784 -0.7865
  208MOL0     H28028   1.977   4.052   6.179 -1.1337 -0.2676 -0.7569
  208MOL0     H28029   2.127   3.899   6.308  2.0833  1.9095 -0.4639
  208MOL0     H28030   2.112   3.789   6.164 -0.4117  0.6517 -1.2603
  208MOL0     H28031   2.279   3.860   5.952  2.2854 -0.3466 -1.4464
  208MOL0     H28032   2.483   3.952   5.856  1.3730  0.5405  1.2242
  208MOL0     H28033   2.418   4.109   5.810  0.0026  0.8325  0.4319
  208MOL0     H28034   2.668   4.109   5.817  0.6635  0.5188 -0.0182
  208MOL0     H28035   2.607   4.204   5.959 -1.4468  0.0849 -0.4796
  208MOL0     H28036   2.668   3.906   5.983 -0.5069  1.4707 -1.8350
  208MOL0     H28037   2.665   4.024   6.105 -1.4451 -0.6244 -0.5593
  208MOL0     H28038   2.866   4.140   6.016 -1.1183 -0.1883  2.5907
  208MOL0     H28039   2.882   4.008   5.888 -0.1964 -1.9284  0.7705
  208MOL0     H28040   3.074   4.162   5.995 -0.4067 -0.7621 -1.3937
  208MOL0     H28041   3.322   4.150   5.964 -0.5142  0.3933  1.8769
  208MOL0     H28042   3.727   3.982   6.179  3.2568  0.7475  0.4156
  208MOL0     H28043   3.977   3.918   6.177 -1.6988  2.9661 -1.3008
  208MOL0     H28044   4.114   3.506   6.062 -3.3560 -0.9249 -1.2673
  208MOL0     H28045   4.100   3.622   5.923 -1.3263  2.2921  1.0048
  208MOL0     H28046   4.290   3.742   6.010 -2.6239 -0.2659 -1.0996
  208MOL0     H28047   4.321   3.624   6.136 -0.3434 -1.0754  0.3867
  208MOL0     H28048   4.351   3.445   5.995  4.4839  1.1165 -0.0533
  208MOL0     H28049   4.282   3.534   5.855 -1.5566 -0.0720 -0.2602
  208MOL0     H28050   4.499   3.679   5.866 -0.5587  1.0454  2.4548
  208MOL0     H28051   4.524   3.516   5.813  0.6609  2.8011 -0.9756
  208MOL0     H28052   4.599   3.444   6.054 -2.2744  0.6202  2.5792
  208MOL0     H28053   4.580   3.609   6.093 -3.0516 -0.9885 -0.3536
  208MOL0     H28054   4.772   3.475   5.901  0.8970 -0.0641 -0.6860
  208MOL0     H28055   4.740   3.655   5.895 -0.2551 -1.3701 -1.7107
  208MOL0     H28056   4.826   3.518   6.155  1.9021  0.3308 -0.4747
  208MOL0     H28057   4.849   3.687   6.089  0.6431  0.6433  1.6892
  208MOL0     H28058   5.068   3.565   6.087  0.4759  0.4146 -0.7264
  208MOL0     H28059   4.990   3.442   5.988  2.0407 -0.4437 -0.9421
  208MOL0     H28060   3.885   3.564   5.978 -1.7781  0.1523 -1.1780
  208MOL0     H28061   3.646   3.604   5.974  0.0291 -0.0769 -0.1740
  208MOL0     H28062   3.306   3.739   6.092 -1.4625  0.7321 -2.7825
  208MOL0     H28063   3.082   3.742   6.121 -0.1007 -0.4769 -0.5811
  208MOL0     H28064   1.190   3.980   5.646 -2.2514 -1.6312 -0.8436
  208MOL0     H28065   0.947   3.990   5.618  1.5098 -1.3784 -0.3455
  208MOL0     H28066   0.561   4.100   5.959  0.4369 -0.0266  0.3319
  208MOL0     H28067   0.341   4.202   6.016 -1.7307 -2.8187 -0.6109
  208MOL0     H28068   0.209   4.402   6.039 -3.2936  1.7326  2.6972
  208MOL0     H28069   0.128   4.240   6.017  1.4769 -0.6768 -1.2203
  208MOL0     H28070  -0.068   4.349   5.951 -0.9587  2.3052 -0.5975
  208MOL0     H28071   0.001   4.507   5.946  1.2801  0.6605 -1.4368
  208MOL0     H28072   0.071   4.486   6.188  0.2156  1.8471 -0.2420
  208MOL0     H28073  -0.030   4.335   6.200  1.1269 -1.7937 -1.2933
  208MOL0     H28074  -0.147   4.531   6.276  3.5216 -0.1174  0.5770
  208MOL0     H28075  -0.134   4.613   6.123 -2.4950  1.5324  1.3077
  208MOL0     H28076  -0.428   4.350   6.006  0.9113 -1.0553 -0.5726
  208MOL0     H28077   0.283   4.327   5.623  1.0942 -0.0051 -1.6189
  208MOL0     H28078   0.541   4.179   5.459  2.1889 -1.0611  1.4023
  208MOL0     H28079   0.435   4.320   5.465  2.2706  1.6551 -0.8357
  208MOL0     H28080   0.599   4.336   5.519 -1.4982  1.4209  1.7675
  209MOL0     O28081   1.784   8.033   6.021 -0.0042 -0.4696  0.3831
  209MOL0     C28082   1.731   7.920   6.024  0.6587  0.3111 -0.3118
  209MOL0     O28083   1.785   7.799   5.973 -0.0699 -0.6935  0.0634
  209MOL0     C28084   1.889   7.810   5.879 -0.5845  0.7508  0.7077
  209MOL0     C28085   1.858   7.757   5.756 -0.1017  0.0074 -0.2383
  209MOL0     C28086   1.954   7.759   5.655  0.7887 -0.5091 -0.0445
  209MOL0     C28087   2.073   7.827   5.673 -0.2665 -0.3887 -0.3001
  209MOL0     O28088   2.157   7.821   5.562 -0.5153  0.4520  0.4816
  209MOL0     C28089   2.290   7.881   5.568  0.8907  0.7671 -0.3775
  209MOL0     C28090   2.349   7.846   5.426  0.4444 -1.1012  0.4329
  209MOL0     C28091   2.496   7.885   5.433 -0.0943 -0.1714 -0.5029
  209MOL0     C28092   2.527   7.972   5.312 -0.5006 -0.4467 -0.2565
  209MOL0     C28093   2.682   8.009   5.308 -0.4420 -0.5047 -0.2441
  209MOL0     C28094   2.707   8.163   5.272  0.1440 -0.1368 -0.0888
  209MOL0     C28095   2.633   8.207   5.139  0.4212  0.4392 -0.2617
  209MOL0     C28096   2.714   8.177   5.012 -1.5345  0.9000  0.4126
  209MOL0     N28097   2.819   8.280   4.998  0.3284 -0.6116 -0.0041
  209MOL0     C28098   2.953   8.268   5.010  0.0197 -0.3934  0.1201
  209MOL0     C28099   3.001   8.388   4.975 -0.5921  0.1246 -0.5809
  209MOL0     C28100   3.140   8.428   4.955  1.1541 -0.5248  0.4285
  209MOL0     C28101   3.202   8.492   5.089 -0.3873  0.3174 -0.2475
  209MOL0     C28102   3.171   8.638   5.103 -0.2909 -0.0590 -0.8595
  209MOL0     C28103   3.186   8.709   4.967  0.2195 -0.4850  0.0623
  209MOL0     O28104   3.191   8.857   4.991  0.9399  0.0620 -0.2193
  209MOL0     C28105   3.204   8.933   4.886 -0.5615 -0.0451 -0.2090
  209MOL0     C28106   3.102   8.961   4.788  0.1263 -0.6099  0.6896
  209MOL0     C28107   3.110   9.066   4.694 -0.3587  0.5275  0.0580
  209MOL0     C28108   3.225   9.148   4.699 -0.4895 -0.8907  0.5181
  209MOL0     C28109   3.240   9.253   4.597 -0.3957  1.0229 -0.7598
  209MOL0     O28110   3.121   9.297   4.535 -0.6151  0.5916 -0.1179
  209MOL0     C28111   3.105   9.366   4.420 -0.1101  0.0312 -0.0461
  209MOL0     C28112   3.208   9.401   4.342  0.1702  0.5661 -0.2975
  209MOL0     C28113   3.179   9.455   4.220 -1.0198 -0.5697 -0.2440
  209MOL0     C28114   3.053   9.503   4.182 -0.0947 -1.0328  0.3966
  209MOL0     O28115   3.042   9.580   4.064 -0.2550 -0.0296 -0.3274
  209MOL0     C28116   2.911   9.595   4.013  0.3266 -0.8988  0.1325
  209MOL0     C28117   2.920   9.684   3.894  0.5186  0.2000 -0.5392
  209MOL0     C28118   3.016   9.627   3.793  0.0819  0.1140 -0.4334
  209MOL0     C28119   2.959   9.500   3.728 -0.2233 -0.4562  0.6172
  209MOL0     C28120   2.844   9.536   3.627  0.1337  0.5994 -0.7862
  209MOL0     C28121   2.816   9.415   3.532  0.0514  0.6867  0.4907
  209MOL0     C28122   2.752   9.303   3.604  0.3023  0.5638  0.2806
  209MOL0     C28123   2.686   9.193   3.512 -0.7733  0.2403 -0.0684
  209MOL0    Cl28124   2.814   9.134   3.399 -0.0113  0.6030  0.2534
  209MOL0     C28125   2.950   9.454   4.262 -1.3559 -0.0570 -0.0328
  209MOL0     C28126   2.971   9.391   4.379 -0.5458 -0.1158 -1.3523
  209MOL0     O28127   3.360   9.285   4.568 -0.1541 -0.0789  0.3628
  209MOL0     C28128   3.334   9.119   4.788  0.4040  0.6365  0.5867
  209MOL0     C28129   3.317   9.011   4.882 -0.4008  0.4069  0.1947
  209MOL0     N28130   2.906   8.479   4.958  0.3656  0.5651  1.0764
  209MOL0     N28131   2.794   8.415   4.976 -0.6520  0.1670 -0.0967
  209MOL0     C28132   2.105   7.885   5.804  0.0918  0.6102  0.0060
  209MOL0     C28133   2.012   7.878   5.901 -0.7335 -0.0320  0.4934
  209MOL0     C28134   1.603   7.908   6.093  0.1910 -0.3814 -0.1426
  209MOL0     C28135   1.577   7.783   6.159  0.0011 -0.4603 -0.2219
  209MOL0     C28136   1.454   7.763   6.225  0.3318 -0.0824  0.0810
  209MOL0     C28137   1.359   7.865   6.236  0.7540 -0.1647  0.5155
  209MOL0     O28138   1.238   7.856   6.293  0.4809  0.0703  0.0528
  209MOL0     C28139   1.198   7.743   6.374  0.0566  0.3183 -0.3074
  209MOL0     C28140   1.090   7.789   6.473  0.3815  0.0462  0.5789
  209MOL0     C28141   0.962   7.836   6.398  0.1727  0.2189 -0.0295
  209MOL0     C28142   0.833   7.821   6.484 -0.0501  0.4807  0.0691
  209MOL0     C28143   0.817   7.911   6.591  1.2201  0.3103 -0.4748
  209MOL0     C28144   0.779   7.993   6.672  0.2663 -0.2855 -0.5580
  209MOL0     C28145   1.383   7.983   6.170 -0.6459  0.2397 -0.6056
  209MOL0     C28146   1.505   8.012   6.105 -0.1532  0.0349 -0.4174
  209MOL0     C28147   1.516   8.147   6.045 -0.9705 -0.2291 -0.4513
  209MOL0     H28148   1.761   7.708   5.750  0.2213 -0.8214  0.9111
  209MOL0     H28149   1.940   7.713   5.558  0.3140  1.7215 -1.0960
  209MOL0     H28150   2.288   7.989   5.585  1.8268  0.9640 -1.3780
  209MOL0     H28151   2.353   7.839   5.647  1.6556  0.3329 -1.2016
  209MOL0     H28152   2.298   7.904   5.348 -1.6006 -1.2895  1.5546
  209MOL0     H28153   2.355   7.740   5.401  0.4409 -1.2532  1.0669
  209MOL0     H28154   2.568   7.803   5.431  1.0290  0.7803 -0.1793
  209MOL0     H28155   2.515   7.941   5.525  2.5069  1.7078 -2.0403
  209MOL0     H28156   2.486   7.918   5.226 -0.8297  0.1165 -0.4583
  209MOL0     H28157   2.476   8.069   5.315  2.3614  1.1545 -0.2735
  209MOL0     H28158   2.725   7.978   5.403 -2.3709 -0.2830  0.7372
  209MOL0     H28159   2.739   7.955   5.231 -0.8243 -0.4907 -0.5384
  209MOL0     H28160   2.693   8.230   5.357  1.2831 -0.6644  0.5336
  209MOL0     H28161   2.815   8.172   5.257  0.1670  1.4811  0.8561
  209MOL0     H28162   2.608   8.313   5.136  0.2589  0.4011 -2.8875
  209MOL0     H28163   2.535   8.160   5.131  0.6204  0.1411 -1.2112
  209MOL0     H28164   2.751   8.074   5.014  1.6273  1.9024 -0.0610
  209MOL0     H28165   2.648   8.178   4.925  0.2915 -2.8796 -1.2706
  209MOL0     H28166   2.994   8.172   5.040  0.4074  0.3528  2.1824
  209MOL0     H28167   3.201   8.340   4.933  0.0236 -0.5503 -3.2981
  209MOL0     H28168   3.133   8.490   4.866 -2.3456  0.9015  1.5193
  209MOL0     H28169   3.174   8.438   5.179 -2.0412 -1.0356 -1.4917
  209MOL0     H28170   3.310   8.481   5.083 -0.6408 -4.2636  0.5161
  209MOL0     H28171   3.242   8.688   5.170  0.7135 -0.7608 -1.3771
  209MOL0     H28172   3.073   8.657   5.149 -0.8991  0.0631 -2.1627
  209MOL0     H28173   3.096   8.698   4.905  1.4057  1.6720 -2.2432
  209MOL0     H28174   3.273   8.675   4.910 -0.9084 -2.5461 -0.5367
  209MOL0     H28175   3.016   8.896   4.786  2.6600 -4.3295  1.3487
  209MOL0     H28176   3.033   9.081   4.620 -0.8121  2.3390  0.8346
  209MOL0     H28177   3.315   9.396   4.358 -0.1611 -1.9988  1.6354
  209MOL0     H28178   3.266   9.477   4.159 -0.8816  0.2896  0.2551
  209MOL0     H28179   2.870   9.494   4.003  1.9036 -1.6302  0.7355
  209MOL0     H28180   2.853   9.656   4.082  1.6355  0.5995 -0.0370
  209MOL0     H28181   2.822   9.697   3.847  0.5382 -0.7246 -0.8631
  209MOL0     H28182   2.954   9.785   3.920  0.1204  0.5178 -1.2328
  209MOL0     H28183   3.042   9.702   3.718  1.6512  1.0931  1.0170
  209MOL0     H28184   3.116   9.614   3.836 -0.0256  0.0140 -0.2115
  209MOL0     H28185   2.916   9.434   3.803  1.3212 -2.8915 -0.5160
  209MOL0     H28186   3.039   9.443   3.681 -0.6279 -1.9578  1.6759
  209MOL0     H28187   2.875   9.617   3.561 -0.7117  2.1161  0.6047
  209MOL0     H28188   2.747   9.555   3.674  0.7960  1.9655  0.0886
  209MOL0     H28189   2.747   9.452   3.455 -0.6853 -0.2665  0.6669
  209MOL0     H28190   2.904   9.379   3.478  0.4063 -0.0642  1.5563
  209MOL0     H28191   2.677   9.336   3.677  0.3830 -2.4455  1.8442
  209MOL0     H28192   2.832   9.257   3.661 -1.4753 -1.3540  1.3478
  209MOL0     H28193   2.650   9.116   3.581 -0.8514  0.2522 -0.0953
  209MOL0     H28194   2.602   9.224   3.448  0.3305 -1.2603 -2.3581
  209MOL0     H28195   2.844   9.476   4.251 -1.2364  0.3189 -0.4934
  209MOL0     H28196   2.890   9.365   4.446  0.7566 -0.3034  0.1965
  209MOL0     H28197   3.419   9.187   4.794  0.2963  0.8486 -0.2155
  209MOL0     H28198   3.388   9.005   4.964  2.3889  1.6029 -1.9679
  209MOL0     H28199   2.198   7.934   5.832  0.8256 -1.4638  1.5505
  209MOL0     H28200   2.029   7.929   5.995 -0.2592  2.4801 -0.8926
  209MOL0     H28201   1.647   7.700   6.161  1.4768  0.7331 -1.0260
  209MOL0     H28202   1.442   7.665   6.272  0.0555 -0.4971 -0.8284
  209MOL0     H28203   1.286   7.704   6.426 -0.0051  2.0943  1.2268
  209MOL0     H28204   1.158   7.667   6.305 -1.3090 -0.1379  0.9254
  209MOL0     H28205   1.137   7.869   6.531  0.3229  1.6738 -1.5140
  209MOL0     H28206   1.054   7.710   6.540 -1.3183  0.0398 -0.3153
  209MOL0     H28207   0.951   7.779   6.306 -0.9405 -0.5227  0.5537
  209MOL0     H28208   0.972   7.939   6.361 -0.7156 -0.3425 -1.9327
  209MOL0     H28209   0.745   7.837   6.421 -0.4806 -0.5193  0.3991
  209MOL0     H28210   0.832   7.717   6.519  1.4130  0.3835 -0.1101
  209MOL0     H28211   0.750   8.063   6.749  1.7960  0.2294 -0.4267
  209MOL0     H28212   1.310   8.063   6.174 -0.7949  0.0858 -0.1761
  209MOL0     H28213   1.598   8.199   6.095  1.6427 -0.5873 -4.0177
  209MOL0     H28214   1.531   8.150   5.937 -1.1445  1.0853 -0.4594
  209MOL0     H28215   1.430   8.212   6.059 -0.4600  0.0170  1.8787
  210MOL0     O28216   0.320   3.687   1.405  0.1477 -0.0347  0.8729
  210MOL0     C28217   0.302   3.808   1.426  0.1191  0.0329 -0.8179
  210MOL0     O28218   0.182   3.861   1.436  0.0441 -0.5917 -0.2237
  210MOL0     C28219   0.069   3.799   1.400 -0.7389 -0.2592 -0.5387
  210MOL0     C28220   0.048   3.666   1.439  0.5255 -0.3280 -0.3268
  210MOL0     C28221  -0.077   3.610   1.407 -0.1006  0.4044 -0.6275
  210MOL0     C28222  -0.184   3.688   1.347 -1.2799 -0.4027  0.6657
  210MOL0     O28223  -0.303   3.620   1.329  0.6239  0.3350 -0.0719
  210MOL0     C28224  -0.438   3.676   1.296 -0.6128 -0.2412 -0.2873
  210MOL0     C28225  -0.544   3.575   1.341 -0.1733 -0.2275 -0.2380
  210MOL0     C28226  -0.687   3.618   1.320 -0.1180  0.3420 -0.4554
  210MOL0     C28227  -0.791   3.509   1.325 -0.8553 -0.0478  0.1996
  210MOL0     C28228  -0.922   3.579   1.302 -0.4529 -0.7629  0.5511
  210MOL0     C28229  -1.032   3.485   1.292 -1.1942  0.2791 -0.4235
  210MOL0     C28230  -1.173   3.540   1.298 -0.3962  0.6205 -1.2170
  210MOL0     C28231  -1.282   3.429   1.327  0.2746 -0.1073 -0.2905
  210MOL0     N28232  -1.423   3.477   1.330  0.6425 -0.5326 -0.3266
  210MOL0     C28233  -1.537   3.412   1.273 -0.6323 -0.4386 -1.4288
  210MOL0     C28234  -1.647   3.469   1.342 -0.7181 -0.2032 -0.0380
  210MOL0     C28235  -1.795   3.429   1.325  0.1062  0.1972  0.2431
  210MOL0     C28236  -1.861   3.483   1.194  0.4217  0.3802 -0.0350
  210MOL0     C28237  -2.009   3.434   1.176  0.6881  0.0530  0.8713
  210MOL0     C28238  -2.096   3.458   1.302 -0.2407 -0.0673 -0.3210
  210MOL0     O28239  -2.109   3.594   1.321 -0.3118 -0.2615  0.5697
  210MOL0     C28240  -2.124   3.629   1.455  0.5232 -1.2259 -0.0890
  210MOL0     C28241  -2.010   3.663   1.529  0.3304 -0.0699  0.3342
  210MOL0     C28242  -2.027   3.703   1.666  0.8304  0.4887  0.8385
  210MOL0     C28243  -2.156   3.710   1.731 -0.3345  0.3997  0.5709
  210MOL0     C28244  -2.162   3.754   1.869 -0.1957  0.6812  0.2600
  210MOL0     O28245  -2.051   3.785   1.936 -0.1431  0.1369  0.3865
  210MOL0     C28246  -2.038   3.816   2.072 -0.0206 -0.5217  0.2183
  210MOL0     C28247  -2.133   3.803   2.168  0.6651  0.2138  0.3745
  210MOL0     C28248  -2.108   3.806   2.304  0.1297 -0.1106  0.5401
  210MOL0     C28249  -1.980   3.838   2.342 -0.0353 -0.1954 -0.0163
  210MOL0     O28250  -1.963   3.854   2.477 -0.1926 -0.4719 -0.8580
  210MOL0     C28251  -1.831   3.876   2.533 -0.2603 -0.7350  0.0510
  210MOL0     C28252  -1.811   3.847   2.679 -0.7370 -0.6463  0.0388
  210MOL0     C28253  -1.666   3.874   2.714 -0.2847 -0.3210 -0.6973
  210MOL0     C28254  -1.642   3.842   2.870  0.3910  0.4308  0.1942
  210MOL0     C28255  -1.492   3.817   2.902 -0.1194 -0.1987  0.7296
  210MOL0     C28256  -1.468   3.821   3.057 -0.4458 -0.1676  0.0215
  210MOL0     C28257  -1.318   3.801   3.091 -0.1604 -0.4395  1.0185
  210MOL0     C28258  -1.303   3.794   3.238 -0.9161  0.6165  0.2704
  210MOL0    Cl28259  -1.133   3.751   3.279 -0.1470  0.4240  0.2285
  210MOL0     C28260  -1.877   3.852   2.251 -0.8331  1.0256  0.9959
  210MOL0     C28261  -1.908   3.840   2.116  0.2732  0.3369  0.5654
  210MOL0     O28262  -2.276   3.764   1.911 -0.1486  0.6982  0.2209
  210MOL0     C28263  -2.264   3.666   1.651  0.5405 -0.2879 -0.4287
  210MOL0     C28264  -2.251   3.632   1.517 -0.3742 -0.2519 -0.3441
  210MOL0     N28265  -1.598   3.562   1.435  0.1294  0.1686  0.5458
  210MOL0     N28266  -1.467   3.569   1.418  0.5045  0.5030  0.1078
  210MOL0     C28267  -0.163   3.825   1.326 -0.2113  0.4374 -0.1165
  210MOL0     C28268  -0.035   3.875   1.349  0.3359 -0.4089 -0.1672
  210MOL0     C28269   0.411   3.904   1.470  0.4380  0.6320 -0.0180
  210MOL0     C28270   0.382   4.042   1.468  0.2434 -0.3410  0.1090
  210MOL0     C28271   0.476   4.141   1.519  0.1296  0.7889  0.0874
  210MOL0     C28272   0.601   4.100   1.570  0.1673 -0.3430 -0.1716
  210MOL0     O28273   0.690   4.194   1.620  0.3038  0.4087  0.3578
  210MOL0     C28274   0.823   4.153   1.640  0.3546  0.6139  0.3274
  210MOL0     C28275   0.904   4.281   1.646  0.5295  0.0607 -0.4837
  210MOL0     C28276   0.903   4.338   1.498  0.0192 -0.9017  0.0623
  210MOL0     C28277   1.007   4.272   1.406  0.9792  0.1695 -0.1232
  210MOL0     C28278   1.148   4.293   1.439 -0.0964  1.2990 -0.5310
  210MOL0     C28279   1.255   4.330   1.478 -0.3807  0.1601 -0.5381
  210MOL0     C28280   0.624   3.953   1.573  0.6355  0.8179 -0.1332
  210MOL0     C28281   0.540   3.854   1.522 -0.4190  0.1552  0.1222
  210MOL0     C28282   0.577   3.709   1.534 -0.3994  0.2955  0.1862
  210MOL0     H28283   0.121   3.621   1.506 -0.6861 -1.8579  0.0018
  210MOL0     H28284  -0.108   3.511   1.441  1.5165  0.3146  0.7445
  210MOL0     H28285  -0.450   3.772   1.348 -4.0729 -0.0849 -1.1068
  210MOL0     H28286  -0.442   3.695   1.189  2.6644  2.2122 -0.1133
  210MOL0     H28287  -0.518   3.538   1.440  3.8284 -0.1846 -1.1251
  210MOL0     H28288  -0.526   3.491   1.274  0.1186  1.2491 -2.0978
  210MOL0     H28289  -0.679   3.663   1.221  6.1328  1.1485  0.0049
  210MOL0     H28290  -0.708   3.699   1.390 -0.8624  1.0187 -1.4258
  210MOL0     H28291  -0.766   3.426   1.258  1.7077  0.1625  0.7893
  210MOL0     H28292  -0.788   3.462   1.424 -2.4938 -2.4143 -0.7703
  210MOL0     H28293  -0.936   3.662   1.373  0.4778  1.1919 -1.4082
  210MOL0     H28294  -0.913   3.630   1.205 -1.8196 -0.6218  0.4714
  210MOL0     H28295  -1.021   3.420   1.205 -0.1668  1.1374 -0.9624
  210MOL0     H28296  -1.020   3.418   1.377  1.3090 -1.1507 -1.8115
  210MOL0     H28297  -1.200   3.584   1.201  0.9337  1.0970 -1.3823
  210MOL0     H28298  -1.176   3.624   1.367  1.7831  0.0594 -0.3525
  210MOL0     H28299  -1.277   3.343   1.260 -1.1916 -0.7035  0.3325
  210MOL0     H28300  -1.252   3.383   1.422  2.0268  0.7147 -0.4057
  210MOL0     H28301  -1.544   3.326   1.207 -0.9423  0.8447 -3.1592
  210MOL0     H28302  -1.794   3.319   1.322  4.5239 -0.0000  1.8965
  210MOL0     H28303  -1.844   3.460   1.417  1.1636  1.0677  0.5358
  210MOL0     H28304  -1.871   3.591   1.199  0.7432  0.3843  0.5365
  210MOL0     H28305  -1.797   3.443   1.115 -0.7991 -1.7742 -0.0144
  210MOL0     H28306  -2.027   3.326   1.162 -1.2999  0.3069  1.1091
  210MOL0     H28307  -2.056   3.494   1.097 -2.3034 -1.3127  1.4521
  210MOL0     H28308  -2.053   3.405   1.387  0.1078 -0.8274 -0.9605
  210MOL0     H28309  -2.194   3.414   1.281 -1.1848  0.0568  3.2120
  210MOL0     H28310  -1.914   3.657   1.479  0.9742 -0.1791  1.5623
  210MOL0     H28311  -1.933   3.716   1.718  1.8296 -2.1802 -0.1098
  210MOL0     H28312  -2.236   3.780   2.141  1.7976 -0.3147 -4.3277
  210MOL0     H28313  -2.189   3.782   2.372  0.9214 -2.1595  0.8553
  210MOL0     H28314  -1.760   3.814   2.477  0.1135  1.4060 -1.9794
  210MOL0     H28315  -1.799   3.979   2.517 -0.6140 -1.1589 -5.0408
  210MOL0     H28316  -1.866   3.915   2.744  0.3648  0.0827  0.2253
  210MOL0     H28317  -1.841   3.745   2.704 -0.8695 -0.4031  0.8927
  210MOL0     H28318  -1.603   3.814   2.648  1.5159  1.6300 -0.8429
  210MOL0     H28319  -1.646   3.981   2.709 -0.0301 -0.3471 -0.2893
  210MOL0     H28320  -1.702   3.756   2.902  0.3687  1.2625  2.5230
  210MOL0     H28321  -1.678   3.927   2.929  0.8016  0.5308  0.3018
  210MOL0     H28322  -1.433   3.901   2.864  0.3208 -0.6532  0.3932
  210MOL0     H28323  -1.451   3.723   2.864 -0.3684 -0.0031 -0.0264
  210MOL0     H28324  -1.500   3.918   3.096  0.8713  1.1210 -1.8920
  210MOL0     H28325  -1.522   3.740   3.107 -0.4936  0.3417  0.8283
  210MOL0     H28326  -1.250   3.868   3.037 -1.4810  1.3100  1.4129
  210MOL0     H28327  -1.284   3.704   3.054 -1.8247 -0.6643 -0.0442
  210MOL0     H28328  -1.321   3.889   3.288 -1.9582  0.6825 -0.2023
  210MOL0     H28329  -1.368   3.710   3.266  0.3201 -0.7484 -0.7828
  210MOL0     H28330  -1.772   3.849   2.275 -0.6506 -1.8333  0.2793
  210MOL0     H28331  -1.828   3.850   2.043  0.4771  1.5896  0.9450
  210MOL0     H28332  -2.365   3.661   1.689  1.0869 -2.7234  0.9045
  210MOL0     H28333  -2.344   3.593   1.475  0.5959 -1.5793 -1.3525
  210MOL0     H28334  -0.232   3.887   1.270 -2.0189 -1.2933  0.1089
  210MOL0     H28335  -0.025   3.983   1.342 -1.0026 -0.1992  0.7724
  210MOL0     H28336   0.287   4.077   1.430  0.8238 -0.4473 -1.5243
  210MOL0     H28337   0.440   4.243   1.524  1.4670  1.3138 -0.7828
  210MOL0     H28338   0.858   4.090   1.558  1.3124  0.6911  0.6702
  210MOL0     H28339   0.830   4.096   1.734  1.3224 -1.2970 -0.8283
  210MOL0     H28340   1.007   4.250   1.666  0.0241 -0.0879  2.1901
  210MOL0     H28341   0.865   4.351   1.720  0.0505 -0.7597  0.0399
  210MOL0     H28342   0.921   4.446   1.504 -1.8777 -0.5036 -0.6406
  210MOL0     H28343   0.803   4.325   1.456 -0.4934 -2.0746  1.6014
  210MOL0     H28344   0.983   4.166   1.405  3.8265 -0.5747  0.6777
  210MOL0     H28345   1.003   4.308   1.303 -3.5919 -0.3487 -0.2979
  210MOL0     H28346   1.350   4.371   1.505  0.3589 -2.0635  0.4894
  210MOL0     H28347   0.717   3.911   1.610  1.1433  0.8044 -1.4058
  210MOL0     H28348   0.583   3.650   1.442  0.5519 -0.1430  0.5167
  210MOL0     H28349   0.676   3.696   1.579 -0.4997  3.2929  1.5111
  210MOL0     H28350   0.505   3.665   1.603  0.0837 -0.8362  0.0010
  211MOL0     O28351  10.271   6.534   7.687 -1.3284  0.1552  0.0607
  211MOL0     C28352  10.183   6.572   7.756  0.0893  0.3475  0.0334
  211MOL0     O28353  10.197   6.639   7.879 -0.1512  0.8751 -0.0567
  211MOL0     C28354  10.315   6.629   7.952  0.2468 -0.4970  0.0895
  211MOL0     C28355  10.403   6.516   7.964 -0.2284 -0.7718  1.0203
  211MOL0     C28356  10.529   6.522   8.030  0.9554 -0.2961  0.6964
  211MOL0     C28357  10.569   6.640   8.087  0.2950 -0.0233  0.1865
  211MOL0     O28358  10.686   6.654   8.153  0.1019 -0.3564  0.5555
  211MOL0     C28359  10.754   6.540   8.207  0.4948  0.6734 -0.2462
  211MOL0     C28360  10.833   6.574   8.335 -0.0720  0.7666  0.1821
  211MOL0     C28361  10.928   6.688   8.304  0.2544  0.6015  0.0644
  211MOL0     C28362  11.040   6.661   8.201 -0.5350  0.0306  1.5736
  211MOL0     C28363  11.155   6.757   8.214 -0.3182 -0.2057 -0.2752
  211MOL0     C28364  11.282   6.717   8.127  0.3724 -0.5440  0.1862
  211MOL0     C28365  11.414   6.800   8.158 -0.0214  0.0750  0.0295
  211MOL0     C28366  11.530   6.750   8.072 -0.0130  0.1043  0.3951
  211MOL0     N28367  11.647   6.827   8.107 -0.8496  1.0413 -0.0393
  211MOL0     C28368  11.781   6.778   8.128  1.2120  0.2693  1.0604
  211MOL0     C28369  11.860   6.885   8.143 -0.3275  0.4334 -0.0447
  211MOL0     C28370  12.006   6.884   8.167  0.9000  0.9001 -0.3635
  211MOL0     C28371  12.079   6.988   8.085  0.8616  0.2486 -0.4133
  211MOL0     C28372  12.230   6.988   8.107  0.6792 -0.2592 -0.6518
  211MOL0     C28373  12.293   7.098   8.017 -0.2207  1.1664  0.3241
  211MOL0     O28374  12.434   7.101   8.012 -0.5699  0.9347  0.2300
  211MOL0     C28375  12.512   7.104   8.122  0.1015  0.0858  0.0805
  211MOL0     C28376  12.478   7.171   8.235 -0.1122 -0.5012  0.1375
  211MOL0     C28377  12.558   7.164   8.347  0.4237  0.4384  0.1608
  211MOL0     C28378  12.665   7.074   8.352 -0.8229 -0.9717 -0.5928
  211MOL0     C28379  12.744   7.064   8.473 -0.3370  0.0832  0.6877
  211MOL0     O28380  12.706   7.152   8.571  0.0531  0.1019 -0.0289
  211MOL0     C28381  12.782   7.148   8.690  0.9544 -0.1248 -0.5544
  211MOL0     C28382  12.918   7.172   8.703  0.1083 -0.1005  0.9775
  211MOL0     C28383  12.970   7.166   8.830  0.0880 -0.5357 -0.0866
  211MOL0     C28384  12.903   7.116   8.942 -0.2395  0.6867 -0.5163
  211MOL0     O28385  12.961   7.098   9.068  0.3236 -0.1132 -0.3728
  211MOL0     C28386  13.094   7.049   9.074 -0.2667  0.0720 -0.2064
  211MOL0     C28387  13.109   6.947   9.192 -0.2980 -0.5551 -0.7818
  211MOL0     C28388  13.241   6.889   9.246  0.1404  0.7229  0.1956
  211MOL0     C28389  13.325   6.835   9.139  0.2327 -0.0067 -0.8767
  211MOL0     C28390  13.434   6.746   9.200  0.8309  0.4900 -0.0675
  211MOL0     C28391  13.497   6.668   9.072  0.7370  0.3449 -0.3909
  211MOL0     C28392  13.643   6.630   9.098  0.1982 -0.4972  0.5868
  211MOL0     C28393  13.699   6.557   8.974  0.1399 -0.4847  0.1301
  211MOL0    Cl28394  13.685   6.661   8.831  0.3319 -0.2745 -0.1496
  211MOL0     C28395  12.766   7.099   8.929 -0.0896 -0.1362  0.3723
  211MOL0     C28396  12.708   7.118   8.800  0.1462 -0.0110 -0.1842
  211MOL0     O28397  12.862   7.008   8.460  0.4716 -0.4099 -0.3848
  211MOL0     C28398  12.705   7.013   8.230  1.3261 -0.5993 -0.0294
  211MOL0     C28399  12.628   7.028   8.118 -0.6054  0.0958 -0.2318
  211MOL0     N28400  11.773   6.995   8.143 -0.0181  0.9374  0.1396
  211MOL0     N28401  11.651   6.961   8.112 -0.5922  0.0930 -0.0873
  211MOL0     C28402  10.486   6.754   8.077 -0.7814  0.5372 -0.9212
  211MOL0     C28403  10.360   6.745   8.019  0.4641 -0.0429  0.6284
  211MOL0     C28404  10.043   6.548   7.712  0.5014  0.3344 -0.7055
  211MOL0     C28405   9.951   6.612   7.788  0.2807  0.0126 -0.3766
  211MOL0     C28406   9.811   6.600   7.763 -0.1870  0.6254 -0.7328
  211MOL0     C28407   9.765   6.529   7.658 -0.4433 -0.0049 -0.3295
  211MOL0     O28408   9.629   6.536   7.630 -0.0240 -0.0907 -0.2004
  211MOL0     C28409   9.588   6.492   7.501  0.3223  0.3304  0.7431
  211MOL0     C28410   9.430   6.494   7.506 -0.3863 -0.4296 -0.9539
  211MOL0     C28411   9.381   6.469   7.368  0.5922 -0.5294 -1.0151
  211MOL0     C28412   9.231   6.454   7.377 -0.7699  0.0600 -0.0142
  211MOL0     C28413   9.194   6.398   7.247  0.3051  0.4342 -0.0862
  211MOL0     C28414   9.148   6.379   7.134 -0.3079  0.5587  0.0019
  211MOL0     C28415   9.860   6.451   7.590 -0.6388  1.1784 -0.1351
  211MOL0     C28416   9.996   6.452   7.624 -0.2573  0.6716 -0.7756
  211MOL0     C28417  10.078   6.331   7.563  0.3197 -0.0132  0.3452
  211MOL0     H28418  10.373   6.421   7.920 -1.6688 -1.1679  2.7639
  211MOL0     H28419  10.587   6.431   8.035 -0.9942 -1.6005  0.7237
  211MOL0     H28420  10.679   6.466   8.235 -1.6311  3.1029  0.9626
  211MOL0     H28421  10.821   6.497   8.133 -0.0332 -0.1429 -0.2639
  211MOL0     H28422  10.898   6.487   8.353 -0.5417  0.2688 -0.4651
  211MOL0     H28423  10.762   6.603   8.414 -1.5182 -0.4987 -0.6029
  211MOL0     H28424  10.976   6.705   8.402  0.3197 -0.2281  0.1828
  211MOL0     H28425  10.883   6.783   8.275  2.3693  0.8696 -2.7663
  211MOL0     H28426  11.073   6.559   8.221 -1.7232 -1.1706 -1.8283
  211MOL0     H28427  11.004   6.662   8.098  2.0304  4.2999  0.4634
  211MOL0     H28428  11.122   6.854   8.176  1.1794  0.5782  0.3184
  211MOL0     H28429  11.184   6.773   8.318  0.9969 -2.6486 -0.1916
  211MOL0     H28430  11.306   6.610   8.123  0.1560 -0.5659 -1.5367
  211MOL0     H28431  11.256   6.735   8.022 -0.3143 -1.3271  0.2131
  211MOL0     H28432  11.446   6.785   8.262 -0.7570  2.6309  0.6966
  211MOL0     H28433  11.407   6.908   8.140 -1.8576 -0.1123 -0.5563
  211MOL0     H28434  11.532   6.643   8.093 -0.1405 -0.1865 -0.9771
  211MOL0     H28435  11.510   6.771   7.966 -0.7751 -0.2279  0.4621
  211MOL0     H28436  11.804   6.672   8.127 -0.1831 -0.0790  2.2002
  211MOL0     H28437  12.015   6.903   8.274 -1.0142  1.7345 -0.3193
  211MOL0     H28438  12.061   6.793   8.142 -0.8304 -0.4469  0.5849
  211MOL0     H28439  12.061   6.980   7.977 -1.4540 -2.4958  0.0766
  211MOL0     H28440  12.038   7.087   8.109  1.1041  0.3322 -0.3430
  211MOL0     H28441  12.269   6.889   8.082  2.8426  0.4615 -0.3482
  211MOL0     H28442  12.254   6.998   8.213  1.3162 -0.4202 -0.7768
  211MOL0     H28443  12.250   7.193   8.051  0.2047  1.4471  0.0750
  211MOL0     H28444  12.254   7.079   7.917  0.1611  1.5014  0.1139
  211MOL0     H28445  12.386   7.226   8.253  1.4789  2.2367  0.4709
  211MOL0     H28446  12.518   7.203   8.440 -0.0763 -0.8694  0.5241
  211MOL0     H28447  12.973   7.200   8.613 -2.5434 -0.2283 -0.7722
  211MOL0     H28448  13.074   7.194   8.842 -0.7999  2.7441  0.8219
  211MOL0     H28449  13.130   6.999   8.983  2.8280  0.6277  0.5919
  211MOL0     H28450  13.160   7.131   9.104 -1.5683  0.3720  1.9721
  211MOL0     H28451  13.076   6.997   9.284  1.9548  1.2007 -0.8531
  211MOL0     H28452  13.030   6.874   9.176  0.9731 -2.4965  1.1687
  211MOL0     H28453  13.298   6.972   9.290  1.1414 -0.5667  1.3861
  211MOL0     H28454  13.215   6.809   9.316 -0.9907  0.3182 -0.6477
  211MOL0     H28455  13.384   6.919   9.101  2.7291  0.7866  4.0084
  211MOL0     H28456  13.269   6.784   9.060  1.2432 -1.6207 -0.5968
  211MOL0     H28457  13.392   6.673   9.270 -2.0455 -0.8239 -2.9019
  211MOL0     H28458  13.506   6.808   9.254 -0.6703  2.7362 -0.5177
  211MOL0     H28459  13.440   6.580   9.040  3.3301 -1.6551  0.0959
  211MOL0     H28460  13.485   6.741   8.992  2.1461  0.9859 -0.0709
  211MOL0     H28461  13.652   6.555   9.177  0.3992  0.1493  1.1918
  211MOL0     H28462  13.697   6.721   9.124 -2.2724  1.3619 -0.4067
  211MOL0     H28463  13.806   6.539   8.981  0.7246  1.7114 -1.7950
  211MOL0     H28464  13.640   6.467   8.954 -1.2550  0.0243  1.7498
  211MOL0     H28465  12.714   7.086   9.023  1.4247 -1.2485  1.1005
  211MOL0     H28466  12.601   7.106   8.790 -0.0938  1.1044  0.8979
  211MOL0     H28467  12.790   6.946   8.241  2.4822  0.8884  0.4229
  211MOL0     H28468  12.642   6.971   8.027 -2.5279 -1.7369  0.5370
  211MOL0     H28469  10.507   6.844   8.133  0.3995  1.0445 -2.1141
  211MOL0     H28470  10.298   6.834   8.012  0.3812 -0.2200 -2.6257
  211MOL0     H28471   9.987   6.667   7.874  1.2739 -0.1295 -0.6854
  211MOL0     H28472   9.748   6.653   7.833  0.0325 -0.8225  0.6321
  211MOL0     H28473   9.622   6.391   7.474 -1.2775  0.1131 -0.6581
  211MOL0     H28474   9.620   6.564   7.426  0.1013  0.9737  1.2587
  211MOL0     H28475   9.393   6.593   7.532  0.7594  0.4519 -2.5155
  211MOL0     H28476   9.407   6.425   7.588  1.9570 -0.2929 -0.0988
  211MOL0     H28477   9.436   6.380   7.337  1.9484 -0.3478  0.7304
  211MOL0     H28478   9.415   6.559   7.315  1.1201 -2.2265 -3.7512
  211MOL0     H28479   9.206   6.389   7.461  1.6360  1.5068  1.9436
  211MOL0     H28480   9.177   6.548   7.391 -2.5730 -0.7080 -1.3314
  211MOL0     H28481   9.114   6.343   7.039  2.1674 -1.9888 -0.0678
  211MOL0     H28482   9.832   6.381   7.512  1.0891 -2.2925  2.0802
  211MOL0     H28483  10.152   6.280   7.625 -1.5702 -1.2648  1.6926
  211MOL0     H28484  10.008   6.258   7.522 -1.6972  2.0717 -0.1309
  211MOL0     H28485  10.119   6.384   7.477  0.2231  0.6319  0.6881
  212MOL0     O28486   1.059   2.670   2.748  0.7735  0.0951 -0.0163
  212MOL0     C28487   1.038   2.704   2.629  0.6735 -0.6258 -0.5321
  212MOL0     O28488   1.125   2.717   2.526  0.1927 -0.3923 -0.0030
  212MOL0     C28489   1.258   2.730   2.558  0.0452  0.1697 -0.6652
  212MOL0     C28490   1.321   2.858   2.539 -0.4679 -0.8961 -0.0095
  212MOL0     C28491   1.457   2.875   2.565  0.2428  0.1420 -0.2615
  212MOL0     C28492   1.526   2.769   2.623  0.3227  0.8298 -0.0313
  212MOL0     O28493   1.655   2.784   2.671  0.2011  0.6565 -0.0006
  212MOL0     C28494   1.709   2.913   2.699 -0.3368  0.3475 -0.8721
  212MOL0     C28495   1.838   2.894   2.781  0.0030  1.3467  0.0535
  212MOL0     C28496   1.958   2.831   2.709 -0.1516 -0.8099  0.0711
  212MOL0     C28497   2.076   2.796   2.804  0.1922 -0.0163  0.0594
  212MOL0     C28498   2.200   2.781   2.733 -0.0098 -0.0357  0.0111
  212MOL0     C28499   2.310   2.756   2.826  0.3005 -0.2529 -0.6869
  212MOL0     C28500   2.448   2.751   2.756 -0.0281  0.3953 -0.5463
  212MOL0     C28501   2.556   2.726   2.867 -0.0724 -0.4729 -0.1195
  212MOL0     N28502   2.697   2.748   2.810  0.5001  0.2186 -0.1864
  212MOL0     C28503   2.747   2.858   2.748 -0.4515 -0.3328 -1.1604
  212MOL0     C28504   2.870   2.814   2.722 -0.1673  0.4812  0.3475
  212MOL0     C28505   2.973   2.903   2.668 -0.2524 -0.6464  0.4750
  212MOL0     C28506   3.020   3.018   2.749  0.3110 -0.4687  0.1178
  212MOL0     C28507   3.134   3.093   2.682  0.4200  0.0526  1.1809
  212MOL0     C28508   3.195   3.201   2.770  0.0731  0.1872 -0.8594
  212MOL0     O28509   3.305   3.278   2.714  0.7444  0.2491  0.6193
  212MOL0     C28510   3.417   3.202   2.694 -0.8941 -0.2248 -0.2527
  212MOL0     C28511   3.481   3.210   2.579  0.4562  0.2505  0.9180
  212MOL0     C28512   3.604   3.157   2.557 -0.7831  0.0760 -0.0586
  212MOL0     C28513   3.677   3.097   2.657  0.1289 -0.4351  0.2358
  212MOL0     C28514   3.808   3.043   2.621 -0.4353  0.2691 -0.1555
  212MOL0     O28515   3.877   3.100   2.522 -0.0420  0.9231 -0.4433
  212MOL0     C28516   3.995   3.060   2.479 -0.0499 -0.1541  1.4167
  212MOL0     C28517   4.014   3.064   2.339  0.4916 -0.8123 -0.1699
  212MOL0     C28518   4.147   3.049   2.286  0.7470 -0.4971 -0.3346
  212MOL0     C28519   4.251   3.005   2.371 -0.2434 -0.4904  0.3157
  212MOL0     O28520   4.368   2.971   2.304 -0.4261 -0.8975  0.0218
  212MOL0     C28521   4.442   2.856   2.356  0.3199 -0.4421 -0.2840
  212MOL0     C28522   4.539   2.816   2.248  0.3576  0.3641  0.1766
  212MOL0     C28523   4.662   2.902   2.241  0.3565  0.3837 -0.0321
  212MOL0     C28524   4.761   2.869   2.137 -0.1084 -0.2207  0.1260
  212MOL0     C28525   4.884   2.803   2.202 -0.3486 -0.5823  0.9081
  212MOL0     C28526   5.000   2.753   2.109 -1.0506  0.0201 -0.3082
  212MOL0     C28527   5.074   2.878   2.068 -0.3442 -0.0201 -0.0300
  212MOL0     C28528   5.200   2.835   2.001  0.2362 -0.7065 -0.3870
  212MOL0    Cl28529   5.300   2.988   1.989 -0.1836  0.1089 -0.1198
  212MOL0     C28530   4.233   2.999   2.508 -0.4200  0.2249 -0.0791
  212MOL0     C28531   4.110   3.028   2.563  1.4757 -0.4171  0.2686
  212MOL0     O28532   3.851   2.947   2.688 -0.9511 -0.2050 -0.2208
  212MOL0     C28533   3.608   3.075   2.780 -0.3277  0.3162 -0.0007
  212MOL0     C28534   3.487   3.138   2.797  0.5565  0.9373  0.6792
  212MOL0     N28535   2.892   2.682   2.767 -0.4264 -0.7761 -0.2669
  212MOL0     N28536   2.783   2.648   2.830  0.1404 -0.1050  0.2442
  212MOL0     C28537   1.464   2.649   2.634  0.1788  0.7377 -0.1007
  212MOL0     C28538   1.336   2.627   2.599  1.2894 -0.5967 -0.3048
  212MOL0     C28539   0.895   2.743   2.607  1.0189  0.0185  0.1493
  212MOL0     C28540   0.878   2.857   2.525 -0.6540  1.3910  0.1487
  212MOL0     C28541   0.760   2.904   2.490  0.3211 -0.1900 -0.2153
  212MOL0     C28542   0.645   2.845   2.530  0.7808  0.2032 -0.5020
  212MOL0     O28543   0.511   2.884   2.491 -0.9216  0.1515  0.1377
  212MOL0     C28544   0.488   2.999   2.410  0.1862 -0.6355  0.3775
  212MOL0     C28545   0.349   3.057   2.412  1.5935 -0.2808 -0.7166
  212MOL0     C28546   0.309   3.085   2.559 -0.7089 -0.4635  0.0775
  212MOL0     C28547   0.172   3.156   2.565 -1.0008 -0.5347  0.4611
  212MOL0     C28548   0.057   3.060   2.574  0.4541  0.1810 -0.5348
  212MOL0     C28549  -0.028   2.973   2.548 -0.4949  0.1975 -0.1246
  212MOL0     C28550   0.658   2.738   2.618 -1.0029  0.3699  0.5744
  212MOL0     C28551   0.779   2.691   2.671  0.2525  0.7126  0.1308
  212MOL0     C28552   0.793   2.582   2.775  0.2882  0.6509  0.4796
  212MOL0     H28553   1.260   2.947   2.524  1.6301  0.7300  0.5941
  212MOL0     H28554   1.501   2.972   2.543 -4.1349  1.8430 -3.1362
  212MOL0     H28555   1.731   2.969   2.609  0.6905  0.7634 -0.3705
  212MOL0     H28556   1.635   2.951   2.770 -1.2215 -2.2061 -0.3124
  212MOL0     H28557   1.804   2.822   2.856 -1.7814  2.0023 -0.0868
  212MOL0     H28558   1.861   2.991   2.825  0.4737  1.4894 -0.4812
  212MOL0     H28559   1.989   2.915   2.646 -3.7949 -1.1083 -2.4432
  212MOL0     H28560   1.928   2.740   2.657 -2.4911  1.2973 -2.6021
  212MOL0     H28561   2.094   2.882   2.870  2.0515  1.4014 -2.1422
  212MOL0     H28562   2.037   2.711   2.861 -0.5916 -0.1781 -0.6969
  212MOL0     H28563   2.200   2.706   2.653 -3.1448  0.6637 -0.7861
  212MOL0     H28564   2.209   2.879   2.686  1.1436  0.5560  1.3960
  212MOL0     H28565   2.313   2.830   2.906 -2.2413 -2.2819  1.4871
  212MOL0     H28566   2.296   2.657   2.870 -0.5101 -1.5263 -3.5936
  212MOL0     H28567   2.461   2.845   2.702  0.7823  0.2127 -0.6672
  212MOL0     H28568   2.458   2.661   2.696  1.6074 -2.4376  3.4969
  212MOL0     H28569   2.549   2.799   2.949 -1.1072 -1.6519  0.8808
  212MOL0     H28570   2.544   2.627   2.910 -2.4639 -0.4691 -0.6549
  212MOL0     H28571   2.721   2.962   2.734  2.3717  0.7338  0.5499
  212MOL0     H28572   3.059   2.845   2.631  1.0054  0.8498  0.9568
  212MOL0     H28573   2.937   2.953   2.578 -0.4748  0.8625  1.3776
  212MOL0     H28574   2.947   3.098   2.766  0.5779 -0.2729  0.3524
  212MOL0     H28575   3.071   2.985   2.840  1.8071  1.4050  0.0337
  212MOL0     H28576   3.100   3.139   2.588  3.1793  1.1240  0.6225
  212MOL0     H28577   3.206   3.021   2.642 -1.4822 -1.2650 -0.0788
  212MOL0     H28578   3.217   3.161   2.870  0.8462  0.3056 -0.9762
  212MOL0     H28579   3.123   3.279   2.796  1.4918  0.7867  1.6724
  212MOL0     H28580   3.430   3.273   2.507 -1.2566  1.1340  2.8292
  212MOL0     H28581   3.656   3.183   2.466  0.6178  1.2635  1.0327
  212MOL0     H28582   3.929   3.080   2.274  0.4240  1.0778  0.3038
  212MOL0     H28583   4.158   3.068   2.180  0.8871 -0.7505 -0.3664
  212MOL0     H28584   4.496   2.888   2.446  0.6476  0.8583 -0.9201
  212MOL0     H28585   4.379   2.769   2.379 -0.1738 -0.2694 -0.9610
  212MOL0     H28586   4.576   2.715   2.267  1.2212  0.0956 -2.4769
  212MOL0     H28587   4.486   2.816   2.152 -0.6696  2.8873  0.6607
  212MOL0     H28588   4.622   3.003   2.227  0.2091  0.9060  3.2545
  212MOL0     H28589   4.705   2.901   2.341  1.6542  0.0257 -0.5765
  212MOL0     H28590   4.782   2.953   2.071  1.0748  0.3212  1.1688
  212MOL0     H28591   4.719   2.796   2.067  2.1771 -1.9502  0.4264
  212MOL0     H28592   4.857   2.721   2.269  0.8114 -2.0833 -0.3821
  212MOL0     H28593   4.935   2.872   2.269  1.5917 -0.7548 -0.3221
  212MOL0     H28594   5.075   2.688   2.155 -0.7758  2.0104  2.2545
  212MOL0     H28595   4.966   2.704   2.017  0.9746 -1.0176 -0.5594
  212MOL0     H28596   5.109   2.941   2.151  2.8851 -0.8227 -0.6502
  212MOL0     H28597   5.014   2.948   2.009 -1.2799  1.3499  2.4070
  212MOL0     H28598   5.253   2.762   2.064 -1.7110 -0.5638  1.5172
  212MOL0     H28599   5.175   2.794   1.903  0.5916 -1.1420 -0.2999
  212MOL0     H28600   4.317   2.978   2.573  0.5299  2.7951 -0.3637
  212MOL0     H28601   4.106   3.029   2.672  0.3527 -1.2135  0.2520
  212MOL0     H28602   3.650   3.020   2.863 -2.6981 -1.7556 -0.0535
  212MOL0     H28603   3.439   3.139   2.895 -1.0898 -2.1619  0.0480
  212MOL0     H28604   1.516   2.563   2.675 -0.8216  0.7626  1.2790
  212MOL0     H28605   1.285   2.536   2.626 -1.9785  0.4974 -2.2288
  212MOL0     H28606   0.960   2.912   2.481 -0.4102  1.0626  0.1821
  212MOL0     H28607   0.746   2.983   2.417  0.0062  1.2780  1.3435
  212MOL0     H28608   0.524   2.986   2.308 -3.3862  2.4234 -1.5199
  212MOL0     H28609   0.558   3.075   2.446 -0.1080  0.9323 -2.1157
  212MOL0     H28610   0.281   2.979   2.375 -1.9778  1.5219  1.5025
  212MOL0     H28611   0.338   3.154   2.363  0.1253  0.8183  1.5922
  212MOL0     H28612   0.383   3.143   2.613 -1.3993 -1.3608  2.0628
  212MOL0     H28613   0.296   2.986   2.605 -0.7647 -0.1905  0.6526
  212MOL0     H28614   0.185   3.210   2.659  0.0717  2.8883 -1.4633
  212MOL0     H28615   0.162   3.238   2.492  0.6979 -0.7322 -0.0359
  212MOL0     H28616  -0.102   2.902   2.517 -1.1169  0.0427  1.6002
  212MOL0     H28617   0.571   2.691   2.662  0.0469 -1.9103  0.3309
  212MOL0     H28618   0.857   2.503   2.735 -2.6036 -1.0704 -1.0610
  212MOL0     H28619   0.841   2.614   2.868 -0.0039  1.6631  0.2978
  212MOL0     H28620   0.697   2.532   2.787 -1.1175  1.8385 -3.9683
  213MOL0     O28621   5.341   3.932   3.664  0.1561  0.0235  0.4921
  213MOL0     C28622   5.313   3.814   3.679  0.1842 -0.2804 -0.6001
  213MOL0     O28623   5.379   3.714   3.628 -0.4301  0.0733  0.3611
  213MOL0     C28624   5.514   3.741   3.599  0.3374 -0.5345 -0.4839
  213MOL0     C28625   5.554   3.770   3.470  0.1907 -0.2887 -0.2901
  213MOL0     C28626   5.687   3.792   3.440 -0.0727  0.0349  0.7115
  213MOL0     C28627   5.778   3.785   3.549 -0.9090 -0.3192 -0.0162
  213MOL0     O28628   5.903   3.833   3.520 -0.5559  0.0002  1.2076
  213MOL0     C28629   6.006   3.768   3.591 -0.0626 -0.4038  0.3194
  213MOL0     C28630   6.117   3.745   3.488 -0.0456  0.2846 -0.3621
  213MOL0     C28631   6.250   3.708   3.561  0.7413  0.1976 -0.4082
  213MOL0     C28632   6.373   3.755   3.486  0.3107 -0.5548 -0.3540
  213MOL0     C28633   6.513   3.697   3.537  0.2533  0.5289  0.1688
  213MOL0     C28634   6.618   3.731   3.432 -0.1039  0.6822 -0.9253
  213MOL0     C28635   6.761   3.692   3.479  0.1726 -0.0113 -0.2248
  213MOL0     C28636   6.852   3.704   3.357  0.5740 -0.2264 -0.2991
  213MOL0     N28637   6.989   3.713   3.404  0.5399  0.5134 -0.2828
  213MOL0     C28638   7.052   3.808   3.481 -0.5950  0.0368 -1.7021
  213MOL0     C28639   7.170   3.752   3.512  0.8249  0.0991  0.2434
  213MOL0     C28640   7.270   3.833   3.590  0.3086  0.1497 -0.3169
  213MOL0     C28641   7.344   3.940   3.516 -1.0054 -0.2972  0.9073
  213MOL0     C28642   7.430   3.884   3.401  0.8843  0.5110 -0.2798
  213MOL0     C28643   7.537   3.981   3.353 -0.2029 -0.6410  0.0830
  213MOL0     O28644   7.623   4.028   3.461  0.2482  0.1823  0.2635
  213MOL0     C28645   7.759   3.978   3.462  0.1891 -0.1914  0.7979
  213MOL0     C28646   7.790   3.848   3.416 -0.5347  0.4781 -0.0070
  213MOL0     C28647   7.921   3.801   3.405 -0.4628  0.1941 -0.1023
  213MOL0     C28648   8.019   3.891   3.440  0.1365  0.6446  0.8167
  213MOL0     C28649   8.162   3.841   3.426  0.3573  0.1383 -0.8708
  213MOL0     O28650   8.184   3.723   3.355 -0.6703 -0.2650  0.2177
  213MOL0     C28651   8.313   3.694   3.316  0.0324  0.3965  0.0507
  213MOL0     C28652   8.312   3.641   3.188 -0.3554  0.0580  0.5903
  213MOL0     C28653   8.433   3.599   3.128 -0.1237 -0.2455 -0.2414
  213MOL0     C28654   8.554   3.619   3.197 -0.0792 -0.6553 -1.0708
  213MOL0     O28655   8.672   3.602   3.134  0.4426  0.2187  0.1882
  213MOL0     C28656   8.797   3.571   3.205  0.3348  0.2458  0.0478
  213MOL0     C28657   8.883   3.703   3.232 -0.7683 -0.1057  0.0436
  213MOL0     C28658   9.004   3.663   3.318 -0.6402  0.0625 -0.0805
  213MOL0     C28659   9.088   3.782   3.362 -0.6249  0.2646 -0.3074
  213MOL0     C28660   9.149   3.750   3.500  0.6647 -0.0074  0.6218
  213MOL0     C28661   9.240   3.861   3.554  0.1118  0.4756 -0.3153
  213MOL0     C28662   9.156   3.984   3.619 -0.1580 -0.1257  1.0112
  213MOL0     C28663   9.104   3.948   3.755 -0.1787  0.6075  0.1447
  213MOL0    Cl28664   9.214   4.006   3.878 -0.4563 -0.0086 -0.2366
  213MOL0     C28665   8.557   3.687   3.322 -0.1715  0.0881  0.1322
  213MOL0     C28666   8.438   3.715   3.386 -0.8277 -0.0604  0.7207
  213MOL0     O28667   8.253   3.908   3.472 -0.2827 -0.0679  0.2245
  213MOL0     C28668   7.996   4.022   3.487  0.1257 -0.7149  0.1134
  213MOL0     C28669   7.860   4.053   3.514  0.4227 -0.2078  0.4782
  213MOL0     N28670   7.174   3.629   3.468  0.2218  0.8255 -0.5536
  213MOL0     N28671   7.076   3.613   3.391  0.2692  0.2582 -0.1409
  213MOL0     C28672   5.742   3.760   3.686  0.5867  0.1709  0.6836
  213MOL0     C28673   5.606   3.730   3.703  1.2393  0.2957  0.4570
  213MOL0     C28674   5.187   3.780   3.755  0.0477  0.1340  0.8709
  213MOL0     C28675   5.088   3.879   3.750 -0.7425  0.2045  0.0519
  213MOL0     C28676   4.964   3.858   3.823 -0.4465  1.0606 -0.0550
  213MOL0     C28677   4.929   3.728   3.871 -0.0259  0.3696  0.8705
  213MOL0     O28678   4.802   3.694   3.914 -0.2782  0.1107 -0.4194
  213MOL0     C28679   4.700   3.788   3.953  0.2293  0.4850 -0.0161
  213MOL0     C28680   4.606   3.816   3.839  1.2213 -0.3558  0.4478
  213MOL0     C28681   4.512   3.695   3.812 -0.1739 -0.2975  0.3985
  213MOL0     C28682   4.575   3.611   3.703  0.0198 -0.0052 -0.9696
  213MOL0     C28683   4.536   3.473   3.713  0.2344  0.3375  0.1240
  213MOL0     C28684   4.499   3.356   3.726  0.0532 -0.5733  0.1974
  213MOL0     C28685   5.022   3.626   3.863 -0.4929  0.1329 -0.5722
  213MOL0     C28686   5.154   3.653   3.817 -0.7493  0.9252 -0.6233
  213MOL0     C28687   5.250   3.540   3.844  0.5899  0.0302  0.5388
  213MOL0     H28688   5.500   3.773   3.375  3.7953 -0.0476 -2.5114
  213MOL0     H28689   5.730   3.797   3.340 -0.1648 -1.1986  0.5852
  213MOL0     H28690   6.042   3.845   3.659  0.9018  1.5914 -2.2615
  213MOL0     H28691   5.982   3.672   3.639  1.1653  0.4470  2.7852
  213MOL0     H28692   6.126   3.840   3.434 -4.0318  0.5287 -0.8695
  213MOL0     H28693   6.090   3.664   3.419 -2.3245  1.0338 -0.4250
  213MOL0     H28694   6.247   3.599   3.570 -1.5495  0.2225 -0.3116
  213MOL0     H28695   6.256   3.750   3.662  0.3231 -1.5962  0.4002
  213MOL0     H28696   6.351   3.723   3.384  1.4409  1.1087 -1.1567
  213MOL0     H28697   6.378   3.864   3.483  3.6339 -0.6341 -1.1368
  213MOL0     H28698   6.537   3.748   3.631  0.9731  1.9178 -0.7253
  213MOL0     H28699   6.519   3.589   3.552 -0.6562  0.6089  1.2364
  213MOL0     H28700   6.602   3.668   3.344 -0.6042  0.5818 -0.7658
  213MOL0     H28701   6.615   3.834   3.396  0.0601  0.0635 -2.8624
  213MOL0     H28702   6.777   3.589   3.515  3.0646  0.3397 -0.3120
  213MOL0     H28703   6.796   3.755   3.562  0.8350 -0.8517  0.1555
  213MOL0     H28704   6.834   3.618   3.292  2.3226 -1.7886  1.1599
  213MOL0     H28705   6.837   3.797   3.300  1.5165 -0.7099 -1.3734
  213MOL0     H28706   7.010   3.905   3.507  1.5667  0.8074 -0.9336
  213MOL0     H28707   7.220   3.880   3.675  0.4413 -0.7636  0.2764
  213MOL0     H28708   7.339   3.768   3.644 -0.7066  1.2917  2.5544
  213MOL0     H28709   7.281   4.024   3.483  0.9153  0.4810 -1.0475
  213MOL0     H28710   7.408   3.987   3.591 -0.2675 -0.2780  0.2832
  213MOL0     H28711   7.368   3.866   3.313  0.9650 -2.7813  0.2008
  213MOL0     H28712   7.464   3.783   3.427 -0.5866 -0.5379 -2.1634
  213MOL0     H28713   7.486   4.066   3.307 -0.1067 -0.9807 -0.6550
  213MOL0     H28714   7.596   3.941   3.270  0.3263  1.5250 -0.6664
  213MOL0     H28715   7.712   3.775   3.394  3.2522 -4.8257  2.0994
  213MOL0     H28716   7.930   3.700   3.368  2.9845  0.5384 -0.5759
  213MOL0     H28717   8.218   3.634   3.135 -0.0337  1.0729 -0.1503
  213MOL0     H28718   8.438   3.565   3.025 -1.7901 -0.7252 -0.1855
  213MOL0     H28719   8.774   3.514   3.295 -0.2512 -0.6693 -0.6619
  213MOL0     H28720   8.865   3.507   3.148  2.5477  0.8497  1.8359
  213MOL0     H28721   8.916   3.755   3.141 -1.4136  0.9060  0.3742
  213MOL0     H28722   8.829   3.784   3.282 -0.9519  0.1186 -0.5014
  213MOL0     H28723   8.963   3.617   3.409 -4.7055 -2.4945 -2.8894
  213MOL0     H28724   9.063   3.592   3.261 -1.7883 -0.1393 -1.0657
  213MOL0     H28725   9.029   3.872   3.384  2.2211  1.8557  1.4261
  213MOL0     H28726   9.165   3.800   3.287  0.1185 -0.0248  0.3662
  213MOL0     H28727   9.199   3.653   3.506 -0.3812 -0.4945  2.3239
  213MOL0     H28728   9.069   3.734   3.573 -0.7358 -0.3097 -0.9366
  213MOL0     H28729   9.304   3.817   3.632 -1.1947 -1.4980 -0.2669
  213MOL0     H28730   9.301   3.899   3.472 -1.4417  2.7770 -0.5039
  213MOL0     H28731   9.075   4.000   3.548  3.4122  0.6473 -3.3454
  213MOL0     H28732   9.218   4.074   3.625  0.8354 -0.3773 -2.8183
  213MOL0     H28733   9.008   3.993   3.780 -0.9900 -1.4030  0.9052
  213MOL0     H28734   9.087   3.840   3.769 -1.5667  0.8896  0.8456
  213MOL0     H28735   8.650   3.701   3.376 -0.7270  1.2312  0.8453
  213MOL0     H28736   8.430   3.743   3.491 -1.5988  0.3462  0.5634
  213MOL0     H28737   8.073   4.094   3.512  1.2012 -2.4688  2.1242
  213MOL0     H28738   7.830   4.151   3.547  0.7409 -0.3911  1.3299
  213MOL0     H28739   5.808   3.767   3.772 -0.7433 -0.2844  1.7924
  213MOL0     H28740   5.576   3.707   3.805 -4.1117 -1.0075 -1.1260
  213MOL0     H28741   5.101   3.971   3.694 -2.7331  0.1670 -0.5175
  213MOL0     H28742   4.887   3.934   3.818  0.6050  2.1467 -0.6777
  213MOL0     H28743   4.736   3.885   3.990  0.8744  0.5619 -0.8401
  213MOL0     H28744   4.644   3.750   4.039 -1.1461  1.4111 -0.4613
  213MOL0     H28745   4.661   3.843   3.748 -1.0425 -1.4389 -1.3388
  213MOL0     H28746   4.545   3.901   3.872  1.8526  0.3083 -0.0630
  213MOL0     H28747   4.417   3.727   3.768  0.3686 -3.1654 -3.4494
  213MOL0     H28748   4.495   3.637   3.903 -0.6597 -2.4101 -0.9768
  213MOL0     H28749   4.554   3.659   3.607  1.4943  2.5812 -0.1057
  213MOL0     H28750   4.684   3.611   3.714 -0.0373  0.7222 -0.3339
  213MOL0     H28751   4.476   3.252   3.735  1.2830 -0.9487 -0.7949
  213MOL0     H28752   4.997   3.526   3.898 -1.9376  0.2686 -1.1320
  213MOL0     H28753   5.255   3.514   3.950  0.3100 -0.4150  0.4464
  213MOL0     H28754   5.220   3.455   3.782  0.2288  0.0606  0.6662
  213MOL0     H28755   5.354   3.556   3.813  0.3282 -3.1456 -2.6526
  214MOL0     O28756   1.140  11.253   9.311 -0.5098 -0.2372 -0.2084
  214MOL0     C28757   1.128  11.328   9.413  0.0489 -0.0768 -0.8674
  214MOL0     O28758   1.225  11.347   9.508 -0.4733  0.5775  0.1855
  214MOL0     C28759   1.362  11.303   9.493  0.7758  0.0500  0.0926
  214MOL0     C28760   1.414  11.246   9.604 -0.1434 -0.8764 -0.4876
  214MOL0     C28761   1.528  11.167   9.607  0.1099 -0.4136 -0.0983
  214MOL0     C28762   1.602  11.160   9.486  0.1085  0.1537  0.2100
  214MOL0     O28763   1.706  11.077   9.472  0.1229  0.5002 -0.4702
  214MOL0     C28764   1.728  10.976   9.565 -0.3863 -0.3868  0.4188
  214MOL0     C28765   1.868  10.913   9.535  0.3460  1.0970 -0.6781
  214MOL0     C28766   1.986  10.956   9.627  0.2765 -0.1972 -0.3463
  214MOL0     C28767   2.107  10.883   9.590  0.3191  0.0825  0.1356
  214MOL0     C28768   2.232  10.957   9.603  0.4588 -0.5367  0.6333
  214MOL0     C28769   2.358  10.865   9.574 -0.5255 -0.7494 -0.2534
  214MOL0     C28770   2.475  10.956   9.577 -0.0592 -0.2210  0.4393
  214MOL0     C28771   2.508  11.037   9.705 -0.7439  0.5149 -0.7685
  214MOL0     N28772   2.516  10.937   9.807 -0.7579 -0.5614  0.0167
  214MOL0     C28773   2.611  10.839   9.833 -0.8232  0.3477 -0.0238
  214MOL0     C28774   2.579  10.770   9.947 -0.6948 -0.0078  0.9651
  214MOL0     C28775   2.666  10.673  10.021  0.1786 -0.3399  0.2105
  214MOL0     C28776   2.761  10.751  10.112 -0.1010  0.7475 -0.2048
  214MOL0     C28777   2.870  10.664  10.160 -0.0945  0.1186  0.0399
  214MOL0     C28778   2.965  10.750  10.242 -0.1106  0.7094 -0.5228
  214MOL0     O28779   3.085  10.675  10.276 -0.5347 -0.1007 -0.1798
  214MOL0     C28780   3.185  10.726  10.349  0.4609  1.5426  1.0252
  214MOL0     C28781   3.179  10.848  10.412 -0.0134 -0.2617  0.0851
  214MOL0     C28782   3.287  10.874  10.503  0.1723 -0.7031 -0.5642
  214MOL0     C28783   3.388  10.787  10.530 -0.7342 -0.0916 -0.4108
  214MOL0     C28784   3.494  10.804  10.633  0.3535  0.2315 -0.0662
  214MOL0     O28785   3.587  10.703  10.635  1.4750 -0.7810 -0.0988
  214MOL0     C28786   3.710  10.727  10.700 -0.4034 -0.6607 -1.1572
  214MOL0     C28787   3.720  10.749  10.839 -0.5895 -1.6409  1.0452
  214MOL0     C28788   3.844  10.754  10.898 -0.1454  0.6597  0.1642
  214MOL0     C28789   3.959  10.762  10.823  0.6474 -0.8401 -0.2916
  214MOL0     O28790   4.086  10.795  10.868  0.0957  0.1693  0.8380
  214MOL0     C28791   4.121  10.738  10.994 -0.2474  0.8114 -0.2623
  214MOL0     C28792   4.272  10.721  11.003 -0.1630 -0.4575 -0.8064
  214MOL0     C28793   4.346  10.858  11.003 -0.4066 -0.2874 -0.7206
  214MOL0     C28794   4.494  10.838  10.978  0.2281  0.3034  1.1199
  214MOL0     C28795   4.567  10.963  10.975 -0.2625 -0.2150  0.1865
  214MOL0     C28796   4.722  10.929  10.953 -0.3020 -0.5689  0.2919
  214MOL0     C28797   4.805  11.057  10.957 -0.6011 -0.1283 -0.8669
  214MOL0     C28798   4.776  11.143  10.843  0.7297 -0.1306  0.4447
  214MOL0    Cl28799   4.841  11.067  10.707 -0.2572 -0.1091 -0.1709
  214MOL0     C28800   3.945  10.747  10.689  0.6086  0.0715 -0.7243
  214MOL0     C28801   3.824  10.727  10.625  0.2871 -0.3103  0.0405
  214MOL0     O28802   3.500  10.903  10.705 -0.3443 -0.0347 -0.1717
  214MOL0     C28803   3.390  10.658  10.464  0.1091 -0.2361  0.9569
  214MOL0     C28804   3.291  10.635  10.372  0.0790  0.0381 -0.3459
  214MOL0     N28805   2.467  10.842   9.995 -0.2476  0.7276  0.2439
  214MOL0     N28806   2.432  10.936   9.919 -0.2540  0.6207 -0.2441
  214MOL0     C28807   1.560  11.225   9.371  0.4059  0.2994 -0.2483
  214MOL0     C28808   1.441  11.302   9.378  0.4749 -0.1519 -0.3017
  214MOL0     C28809   0.993  11.395   9.430  0.7839 -0.9313  0.4773
  214MOL0     C28810   0.900  11.376   9.317  0.2029 -0.1273  0.0967
  214MOL0     C28811   0.777  11.442   9.317  0.4839  0.7129 -1.2089
  214MOL0     C28812   0.740  11.522   9.426 -0.9135 -0.5597  0.5872
  214MOL0     O28813   0.622  11.597   9.431 -0.4587 -0.2225 -0.3754
  214MOL0     C28814   0.556  11.641   9.321  0.3301  0.3778  0.9266
  214MOL0     C28815   0.470  11.742   9.380  0.0085 -0.5826 -0.0553
  214MOL0     C28816   0.398  11.816   9.269 -0.1487 -0.4025 -0.9325
  214MOL0     C28817   0.308  11.932   9.316 -0.3737 -0.6651  0.1137
  214MOL0     C28818   0.181  11.878   9.361  0.7234 -0.3196 -0.6105
  214MOL0     C28819   0.076  11.838   9.417 -0.0834 -0.0335 -0.1695
  214MOL0     C28820   0.829  11.529   9.540  0.4490 -0.4460  0.4891
  214MOL0     C28821   0.952  11.465   9.546  0.2199 -0.0674 -0.1307
  214MOL0     C28822   1.027  11.476   9.672  0.2706 -0.0539 -0.8766
  214MOL0     H28823   1.350  11.242   9.691 -1.9758 -0.7788 -1.7656
  214MOL0     H28824   1.554  11.120   9.701 -0.0119  2.1552  1.3185
  214MOL0     H28825   1.731  11.027   9.662  0.7102  0.6583 -0.1301
  214MOL0     H28826   1.646  10.903   9.563  0.0552 -0.8889 -0.5473
  214MOL0     H28827   1.889  10.942   9.432 -0.6489  0.6878 -1.0061
  214MOL0     H28828   1.865  10.804   9.549 -0.2538  1.3535  1.6230
  214MOL0     H28829   1.965  10.915   9.726 -1.3664 -1.2893 -1.1095
  214MOL0     H28830   2.004  11.064   9.636  0.4523 -0.3605  1.5476
  214MOL0     H28831   2.097  10.787   9.642 -3.4527 -1.2235 -2.6017
  214MOL0     H28832   2.102  10.852   9.486 -0.8339 -0.2000  0.2541
  214MOL0     H28833   2.240  11.029   9.521  1.0128  0.3802  1.4747
  214MOL0     H28834   2.238  11.009   9.699  0.9267  0.1793  0.2253
  214MOL0     H28835   2.370  10.788   9.651 -1.4974 -2.2114 -1.5008
  214MOL0     H28836   2.346  10.808   9.482 -2.9992 -1.5437  0.4876
  214MOL0     H28837   2.459  11.028   9.496 -0.8691 -1.8522 -0.9103
  214MOL0     H28838   2.557  10.886   9.557 -0.6058 -0.8674  0.4382
  214MOL0     H28839   2.604  11.091   9.697 -1.2785  1.5429 -0.4833
  214MOL0     H28840   2.429  11.110   9.726 -0.9352  0.9766 -2.8317
  214MOL0     H28841   2.708  10.834   9.784 -0.1843  1.3324  1.0921
  214MOL0     H28842   2.598  10.614  10.083 -0.1731 -1.3889 -1.1087
  214MOL0     H28843   2.727  10.616   9.950  1.3627  2.5278 -1.2489
  214MOL0     H28844   2.812  10.833  10.061  1.7654 -0.5636 -0.5456
  214MOL0     H28845   2.709  10.792  10.199  0.3675  2.9881 -0.9295
  214MOL0     H28846   2.928  10.622  10.078  1.3839 -1.6373  1.8538
  214MOL0     H28847   2.834  10.587  10.229 -1.4286  2.2578  1.8615
  214MOL0     H28848   2.914  10.775  10.335 -2.0593  0.0593 -1.3767
  214MOL0     H28849   2.982  10.848  10.197  0.4108  0.7949 -0.1483
  214MOL0     H28850   3.099  10.921  10.405  1.1971  1.5147  2.8453
  214MOL0     H28851   3.296  10.972  10.549  1.3968 -0.0941 -2.0224
  214MOL0     H28852   3.631  10.731  10.899 -1.7605 -2.5501 -0.8638
  214MOL0     H28853   3.855  10.748  11.006  3.7681 -0.6091 -0.1475
  214MOL0     H28854   4.092  10.799  11.080  0.4369  1.8343 -0.7321
  214MOL0     H28855   4.074  10.639  11.004 -0.6125  0.9780 -0.3173
  214MOL0     H28856   4.303  10.660  11.088 -1.0383  0.3501  0.1163
  214MOL0     H28857   4.299  10.665  10.913  0.1585  0.9345 -1.6055
  214MOL0     H28858   4.305  10.922  10.925  0.2349  2.9841  1.4578
  214MOL0     H28859   4.335  10.921  11.092  0.7285  0.6876 -1.2602
  214MOL0     H28860   4.505  10.792  10.879  1.2448  0.5338  1.1148
  214MOL0     H28861   4.542  10.778  11.057 -0.8179  0.1585  1.6631
  214MOL0     H28862   4.564  11.012  11.073  1.4171  0.4522 -0.0427
  214MOL0     H28863   4.528  11.023  10.892  1.8297  1.5771  0.3818
  214MOL0     H28864   4.750  10.847  11.020 -0.7433 -3.2430 -2.5707
  214MOL0     H28865   4.718  10.883  10.854 -1.9473 -1.0834  0.5643
  214MOL0     H28866   4.912  11.036  10.942 -0.9763 -2.0289 -1.0954
  214MOL0     H28867   4.790  11.113  11.049  3.5793 -0.1470  0.0424
  214MOL0     H28868   4.670  11.167  10.830  0.9348  0.6121  0.0513
  214MOL0     H28869   4.829  11.239  10.851 -1.8581  1.6699 -2.0002
  214MOL0     H28870   4.024  10.757  10.616 -1.6436 -2.6028 -3.8035
  214MOL0     H28871   3.811  10.709  10.519  0.0802  1.8384 -0.3442
  214MOL0     H28872   3.461  10.576  10.471 -1.2496 -1.9462 -2.7979
  214MOL0     H28873   3.307  10.538  10.328 -1.7109 -0.4346 -0.0471
  214MOL0     H28874   1.611  11.221   9.275  1.7941  2.3645  0.3297
  214MOL0     H28875   1.411  11.371   9.300  0.3724  0.4250  0.2341
  214MOL0     H28876   0.927  11.325   9.225  0.5114  4.3847 -2.6662
  214MOL0     H28877   0.713  11.438   9.229  0.6438 -3.4981 -1.3512
  214MOL0     H28878   0.499  11.563   9.270  2.1746  0.5204 -1.5663
  214MOL0     H28879   0.623  11.683   9.245 -0.4077 -0.9302 -0.5153
  214MOL0     H28880   0.530  11.810   9.440 -1.0343  1.4812 -1.2411
  214MOL0     H28881   0.393  11.685   9.434  0.6274 -1.6325 -0.2642
  214MOL0     H28882   0.330  11.747   9.219  1.5605 -1.4495 -1.9284
  214MOL0     H28883   0.464  11.855   9.190 -0.4108 -0.8052 -1.3530
  214MOL0     H28884   0.367  11.977   9.397  0.2230 -3.5193  1.4058
  214MOL0     H28885   0.289  12.004   9.236 -0.7445 -0.8973 -0.0095
  214MOL0     H28886  -0.008  11.794   9.468  1.0472 -1.3948  0.6015
  214MOL0     H28887   0.802  11.603   9.614 -3.6526 -1.9217  0.6951
  214MOL0     H28888   0.964  11.519   9.750  0.5233  0.4915 -0.9680
  214MOL0     H28889   1.067  11.381   9.709 -1.0826  0.3205  1.7871
  214MOL0     H28890   1.112  11.545   9.666  0.6646 -0.3237  0.8699
  215MOL0     O28891   6.196   0.562   7.845  0.4976  0.0898  0.2930
  215MOL0     C28892   6.150   0.457   7.798 -0.2814  0.0399 -0.1346
  215MOL0     O28893   6.214   0.344   7.765  0.0497 -0.0429  0.5670
  215MOL0     C28894   6.350   0.322   7.778  0.1901 -1.0411  0.4833
  215MOL0     C28895   6.397   0.209   7.720 -0.5412  0.8855  0.5289
  215MOL0     C28896   6.533   0.168   7.730 -0.2378 -0.5130  0.1485
  215MOL0     C28897   6.630   0.245   7.799  0.0778 -0.7576 -0.3904
  215MOL0     O28898   6.757   0.194   7.816  0.4233 -0.1961  0.3953
  215MOL0     C28899   6.872   0.284   7.834  0.2776  0.4004 -0.3253
  215MOL0     C28900   6.986   0.206   7.777 -0.1169  0.3742 -0.2615
  215MOL0     C28901   6.991   0.222   7.628  0.2669 -0.2417  0.0294
  215MOL0     C28902   7.053   0.355   7.579  0.4755  0.3520 -0.4893
  215MOL0     C28903   7.149   0.338   7.468 -0.1346 -0.5870 -1.0645
  215MOL0     C28904   7.071   0.321   7.336  0.6213 -0.0966  1.0504
  215MOL0     C28905   6.974   0.435   7.302  0.0234  0.0565  0.4727
  215MOL0     C28906   6.933   0.445   7.150  0.6552  1.0132  0.0796
  215MOL0     N28907   6.811   0.530   7.144  0.0519  0.1357  0.2119
  215MOL0     C28908   6.801   0.666   7.176  0.2944  0.8534  0.8706
  215MOL0     C28909   6.678   0.698   7.145 -0.1966 -0.1542  0.6777
  215MOL0     C28910   6.619   0.837   7.135 -0.1776  0.2276 -0.7005
  215MOL0     C28911   6.473   0.855   7.170 -0.0262  0.4326 -0.3216
  215MOL0     C28912   6.417   1.000   7.135  0.0899 -0.2439 -0.1164
  215MOL0     C28913   6.265   0.987   7.136  0.3961 -0.1369  0.4521
  215MOL0     O28914   6.208   1.106   7.078  0.6136 -0.5301 -0.1283
  215MOL0     C28915   6.069   1.095   7.048  0.4247 -0.9609  0.1596
  215MOL0     C28916   6.010   1.210   6.996  0.2821  0.0595 -0.2415
  215MOL0     C28917   5.874   1.218   6.958  0.1513  0.7441  0.4215
  215MOL0     C28918   5.795   1.104   6.974  0.6576 -0.8771  0.2346
  215MOL0     C28919   5.651   1.103   6.935 -0.6697  0.3561  0.6188
  215MOL0     O28920   5.568   1.010   6.997  0.3489 -0.2835  0.2923
  215MOL0     C28921   5.432   1.019   6.987  0.3731 -0.1177  0.0818
  215MOL0     C28922   5.368   0.894   6.995  0.2544  0.3402  0.8089
  215MOL0     C28923   5.229   0.885   6.995  0.0560  0.5786  0.3145
  215MOL0     C28924   5.148   0.995   7.001 -0.3706 -0.7941 -0.6383
  215MOL0     O28925   5.022   0.966   7.027  0.1128  0.1298 -0.4009
  215MOL0     C28926   4.925   1.068   7.023  0.0042 -0.9611  0.5663
  215MOL0     C28927   4.782   1.010   7.059  0.5973 -0.0193 -0.3792
  215MOL0     C28928   4.769   0.919   7.188 -1.0910 -0.0348 -0.5464
  215MOL0     C28929   4.625   0.882   7.224  0.4381 -0.1925  0.3617
  215MOL0     C28930   4.606   0.785   7.340 -0.2410  0.4444  0.1153
  215MOL0     C28931   4.471   0.715   7.324 -0.2954  0.3526 -0.0857
  215MOL0     C28932   4.465   0.630   7.455 -0.0548  0.0452  0.7523
  215MOL0     C28933   4.367   0.679   7.564 -0.4507 -0.8889  0.2614
  215MOL0    Cl28934   4.195   0.681   7.500  0.4223  0.3045 -0.0197
  215MOL0     C28935   5.213   1.124   6.999 -1.0819 -0.0197  0.5451
  215MOL0     C28936   5.354   1.138   6.991  0.2300  0.3325 -0.1935
  215MOL0     O28937   5.610   1.185   6.857  0.1290 -0.2143  0.2421
  215MOL0     C28938   5.850   0.987   7.031  0.0765  0.1357  0.6748
  215MOL0     C28939   5.986   0.986   7.073  0.0180  0.1656 -0.9527
  215MOL0     N28940   6.610   0.578   7.119  0.5439 -0.1356 -0.2895
  215MOL0     N28941   6.691   0.481   7.107  0.0178 -0.0801  0.2730
  215MOL0     C28942   6.579   0.357   7.867  0.7100 -0.2291  0.8018
  215MOL0     C28943   6.440   0.393   7.855 -0.5651  0.2638  0.1586
  215MOL0     C28944   6.005   0.461   7.765  0.1946 -0.6537 -0.0182
  215MOL0     C28945   5.932   0.336   7.767  0.1471  0.2027  0.0164
  215MOL0     C28946   5.798   0.332   7.708  0.2436  0.0419 -1.0360
  215MOL0     C28947   5.744   0.450   7.651 -0.6808  0.6604 -0.0124
  215MOL0     O28948   5.631   0.438   7.580 -0.1918 -0.7770 -0.5013
  215MOL0     C28949   5.515   0.418   7.652 -0.5077  0.0829 -0.2954
  215MOL0     C28950   5.460   0.281   7.632  0.5485 -0.0543 -0.1051
  215MOL0     C28951   5.428   0.247   7.486  0.6109 -0.2792  0.3962
  215MOL0     C28952   5.345   0.122   7.469 -0.4395 -0.5512 -0.1972
  215MOL0     C28953   5.221   0.125   7.529  0.1556 -0.3158  0.3444
  215MOL0     C28954   5.103   0.137   7.574  0.0071  0.7337  0.5898
  215MOL0     C28955   5.802   0.572   7.680 -0.6523  0.0195  0.2869
  215MOL0     C28956   5.928   0.581   7.733 -0.8935  0.1591  0.1605
  215MOL0     C28957   5.966   0.723   7.756 -0.2034  0.2174 -0.0596
  215MOL0     H28958   6.332   0.144   7.662 -2.8202  2.5722  1.0654
  215MOL0     H28959   6.563   0.071   7.690  0.6035 -0.0785 -0.3006
  215MOL0     H28960   6.851   0.378   7.783 -1.8010 -0.0921 -0.4401
  215MOL0     H28961   6.889   0.304   7.941  1.2017  2.7147 -0.8518
  215MOL0     H28962   6.988   0.098   7.792  0.4550  0.1565 -1.7045
  215MOL0     H28963   7.076   0.244   7.826  0.4549  0.5904 -1.4418
  215MOL0     H28964   6.900   0.216   7.567  0.2781  1.0188 -0.1341
  215MOL0     H28965   7.048   0.134   7.595  0.9471 -0.9476  2.7862
  215MOL0     H28966   6.976   0.430   7.559  0.5911  0.6073 -0.0024
  215MOL0     H28967   7.103   0.401   7.665 -1.1114 -1.3076  1.4207
  215MOL0     H28968   7.204   0.433   7.464  1.3012 -1.4122 -1.6796
  215MOL0     H28969   7.224   0.259   7.477  1.6246  0.9411 -1.4920
  215MOL0     H28970   7.141   0.314   7.252 -1.5046  2.1271 -1.0464
  215MOL0     H28971   7.017   0.226   7.328 -0.4280  0.5277  0.6002
  215MOL0     H28972   7.014   0.533   7.326  0.3599  0.2753 -0.8638
  215MOL0     H28973   6.880   0.409   7.352 -0.9175 -0.7071 -1.5338
  215MOL0     H28974   7.018   0.497   7.103  0.7140 -0.1041 -1.1032
  215MOL0     H28975   6.910   0.346   7.108  0.1359  0.7621  0.9549
  215MOL0     H28976   6.882   0.737   7.189  2.4705 -0.8129 -2.1877
  215MOL0     H28977   6.682   0.901   7.197 -2.2446 -0.8607  2.7594
  215MOL0     H28978   6.632   0.861   7.029  1.1616  0.5612 -0.4830
  215MOL0     H28979   6.409   0.785   7.114 -2.9986  2.4157  0.3837
  215MOL0     H28980   6.452   0.827   7.273 -1.9488  2.7938  0.0037
  215MOL0     H28981   6.465   1.018   7.038  1.0738  1.2287  0.6186
  215MOL0     H28982   6.456   1.080   7.197  0.9195  1.3560 -2.5379
  215MOL0     H28983   6.226   0.979   7.238 -0.9802 -2.1661 -0.1730
  215MOL0     H28984   6.247   0.900   7.073 -0.0401  1.2187 -1.3628
  215MOL0     H28985   6.074   1.297   6.990  0.1651  0.0599 -2.3749
  215MOL0     H28986   5.826   1.305   6.916  1.7315  0.5787 -1.9441
  215MOL0     H28987   5.431   0.806   6.983  1.6611  1.2122  1.5256
  215MOL0     H28988   5.182   0.787   6.995  0.9069  0.1545  1.1342
  215MOL0     H28989   4.945   1.159   7.080  0.2376  0.0674 -1.0798
  215MOL0     H28990   4.922   1.101   6.919  0.6788 -1.6040  0.3314
  215MOL0     H28991   4.704   1.086   7.056  0.2492 -0.3894 -2.4952
  215MOL0     H28992   4.757   0.945   6.974 -1.5795  1.2050 -0.7576
  215MOL0     H28993   4.827   0.828   7.174 -1.1097 -0.3921  1.4671
  215MOL0     H28994   4.813   0.973   7.272 -2.7308 -1.4074  1.2680
  215MOL0     H28995   4.582   0.825   7.142  0.0300 -1.8031  1.6320
  215MOL0     H28996   4.575   0.979   7.233  4.3651  2.4688 -2.9440
  215MOL0     H28997   4.614   0.848   7.429  0.0634  3.1982 -1.7572
  215MOL0     H28998   4.689   0.715   7.326  0.5631  1.5857 -1.0751
  215MOL0     H28999   4.389   0.788   7.314 -0.4945 -0.0719 -2.1361
  215MOL0     H29000   4.465   0.658   7.231 -1.1685  1.4567 -0.7386
  215MOL0     H29001   4.564   0.620   7.500  1.3524  3.2148 -1.3320
  215MOL0     H29002   4.430   0.535   7.413 -0.3598  0.1653  0.7375
  215MOL0     H29003   4.369   0.618   7.654  2.6497 -2.1993 -0.5713
  215MOL0     H29004   4.391   0.783   7.588  2.3821 -1.8409  2.0273
  215MOL0     H29005   5.150   1.212   7.015 -0.7969 -0.1995  3.1339
  215MOL0     H29006   5.400   1.235   7.004  1.1243 -0.0886 -0.1727
  215MOL0     H29007   5.792   0.898   7.054  3.0908 -2.1604 -0.0308
  215MOL0     H29008   6.019   0.890   7.110  1.7124  0.3687 -1.8115
  215MOL0     H29009   6.648   0.416   7.927  0.8871 -3.0801  3.7367
  215MOL0     H29010   6.402   0.488   7.890 -1.6086  1.6061 -4.0316
  215MOL0     H29011   5.979   0.247   7.807  2.6535  2.0279  1.3701
  215MOL0     H29012   5.745   0.238   7.706  1.0321 -0.4062 -1.4372
  215MOL0     H29013   5.450   0.499   7.617 -0.5573  0.1611 -0.0259
  215MOL0     H29014   5.513   0.421   7.761 -1.3494 -0.0812 -0.3016
  215MOL0     H29015   5.377   0.258   7.699  1.2572 -3.1650 -0.1571
  215MOL0     H29016   5.528   0.203   7.667 -0.2763 -0.2914  1.0248
  215MOL0     H29017   5.521   0.234   7.429 -0.5042  3.5836 -2.7915
  215MOL0     H29018   5.381   0.337   7.444  2.1068  0.9794  1.2824
  215MOL0     H29019   5.337   0.100   7.362  0.9860  3.6417 -1.3667
  215MOL0     H29020   5.402   0.038   7.512  0.0542  0.3901  1.0638
  215MOL0     H29021   5.006   0.127   7.619 -0.7280 -2.4464 -1.3617
  215MOL0     H29022   5.748   0.658   7.642  0.2947  0.1725 -0.7913
  215MOL0     H29023   6.027   0.741   7.846  0.3201  0.3258 -0.4273
  215MOL0     H29024   6.021   0.745   7.664 -1.9124 -1.0223 -1.4415
  215MOL0     H29025   5.876   0.784   7.762 -0.3059  0.2833 -1.9029
  216MOL0     O29026   4.801   1.534   4.202  0.1149 -0.3592  0.3312
  216MOL0     C29027   4.818   1.412   4.219  0.7461 -0.2066  0.3180
  216MOL0     O29028   4.718   1.329   4.227  0.0688 -0.7226 -0.3095
  216MOL0     C29029   4.589   1.365   4.197  0.3161 -0.3475  0.1721
  216MOL0     C29030   4.548   1.380   4.068 -0.4211 -0.1021  0.1865
  216MOL0     C29031   4.418   1.414   4.041 -0.2612  0.4479  0.6647
  216MOL0     C29032   4.329   1.434   4.147 -0.5107 -0.3634  0.4491
  216MOL0     O29033   4.193   1.460   4.130  0.5360  0.7251 -0.0246
  216MOL0     C29034   4.140   1.502   4.002  0.0501 -0.0535  0.1455
  216MOL0     C29035   3.997   1.555   4.020 -0.1853 -0.2214  0.6274
  216MOL0     C29036   3.923   1.590   3.895 -1.1053  0.9482 -0.3484
  216MOL0     C29037   3.774   1.608   3.925  0.4255  0.1642  0.9437
  216MOL0     C29038   3.702   1.666   3.802  1.0025 -0.4751  0.1118
  216MOL0     C29039   3.548   1.657   3.810 -0.0785 -0.3415  0.4033
  216MOL0     C29040   3.478   1.784   3.864  0.3027 -0.1537 -0.0748
  216MOL0     C29041   3.452   1.778   4.016 -0.7157  0.1216 -0.4043
  216MOL0     N29042   3.359   1.678   4.069  0.2400 -0.2054  0.2197
  216MOL0     C29043   3.246   1.625   4.007 -0.3953 -0.7967 -0.4734
  216MOL0     C29044   3.178   1.562   4.108  0.5753  0.2603  0.5220
  216MOL0     C29045   3.040   1.500   4.101 -0.2796  0.0682 -0.4400
  216MOL0     C29046   2.934   1.615   4.070 -0.2952  0.2231 -0.6374
  216MOL0     C29047   2.797   1.551   4.048 -0.7527  0.0807  0.0908
  216MOL0     C29048   2.737   1.515   4.185 -0.6487  0.6344 -0.2201
  216MOL0     O29049   2.742   1.372   4.201 -0.2373 -0.0458  0.8196
  216MOL0     C29050   2.635   1.300   4.161  0.1142  0.0141  0.1654
  216MOL0     C29051   2.512   1.351   4.111  0.4206 -0.3248 -0.5549
  216MOL0     C29052   2.413   1.256   4.077 -0.8377  0.1173  0.8098
  216MOL0     C29053   2.416   1.120   4.112 -0.6490  0.0370  0.5906
  216MOL0     C29054   2.300   1.030   4.093  0.1974  0.1396  0.3751
  216MOL0     O29055   2.184   1.078   4.033 -0.0986  0.1582 -0.1620
  216MOL0     C29056   2.081   0.999   4.070  0.8933 -0.2693  0.4656
  216MOL0     C29057   2.027   0.898   3.990 -0.5325  0.1414 -1.1275
  216MOL0     C29058   1.895   0.852   4.015  0.4833 -0.2252 -0.3954
  216MOL0     C29059   1.821   0.889   4.129  0.1320  0.0877  0.0647
  216MOL0     O29060   1.691   0.841   4.152 -0.0875 -0.1296  0.6858
  216MOL0     C29061   1.598   0.921   4.089  0.3479  0.2068 -0.1934
  216MOL0     C29062   1.477   0.924   4.179  0.4038 -0.3016  0.4608
  216MOL0     C29063   1.404   0.786   4.205 -0.3366 -0.1435  0.0233
  216MOL0     C29064   1.288   0.805   4.293  0.6432 -0.1500 -0.1109
  216MOL0     C29065   1.203   0.680   4.305 -0.0219 -0.8509 -0.1961
  216MOL0     C29066   1.075   0.699   4.388  0.9151  0.1255  0.6073
  216MOL0     C29067   0.998   0.573   4.421 -0.7994 -0.1123  0.1965
  216MOL0     C29068   0.904   0.543   4.307 -0.1313  0.8075  0.4145
  216MOL0    Cl29069   0.788   0.672   4.264 -0.2880 -0.6244 -0.4123
  216MOL0     C29070   1.875   0.992   4.198 -0.2954 -0.0473 -0.1857
  216MOL0     C29071   1.999   1.047   4.170 -0.3084  0.3745 -0.3828
  216MOL0     O29072   2.305   0.927   4.162  0.0487 -0.2171  0.1604
  216MOL0     C29073   2.535   1.084   4.173  0.3291 -0.3816 -1.0396
  216MOL0     C29074   2.645   1.166   4.188 -0.8854 -0.4992  0.0671
  216MOL0     N29075   3.246   1.586   4.224  0.1323  0.3476  0.0313
  216MOL0     N29076   3.359   1.634   4.197  0.2562 -0.2532  0.1303
  216MOL0     C29077   4.371   1.429   4.271  0.4527 -0.1304  0.1762
  216MOL0     C29078   4.492   1.389   4.296 -0.2456  0.6065  0.3784
  216MOL0     C29079   4.956   1.364   4.252 -0.7836  0.3521  0.3810
  216MOL0     C29080   4.963   1.256   4.337 -0.3033  0.4215  0.0950
  216MOL0     C29081   5.094   1.204   4.370 -0.2734 -0.2908  0.0078
  216MOL0     C29082   5.207   1.266   4.334  0.3088 -0.4730 -0.3338
  216MOL0     O29083   5.328   1.225   4.379  0.0848  0.4389  0.1005
  216MOL0     C29084   5.450   1.272   4.339 -0.2187  0.0176  0.2566
  216MOL0     C29085   5.520   1.179   4.233 -0.9244  0.7759  0.0783
  216MOL0     C29086   5.673   1.204   4.215 -0.8715 -0.0207 -0.5206
  216MOL0     C29087   5.735   1.118   4.099  0.7570 -0.7814 -0.5732
  216MOL0     C29088   5.877   1.141   4.090  0.1473  0.2100  0.2481
  216MOL0     C29089   5.997   1.155   4.076  0.2748  0.1063  0.1476
  216MOL0     C29090   5.198   1.365   4.236 -0.5724 -0.4834 -0.5963
  216MOL0     C29091   5.073   1.415   4.194 -0.1427  0.1782  0.2906
  216MOL0     C29092   5.069   1.524   4.090 -0.6431 -0.0088 -1.0387
  216MOL0     H29093   4.612   1.347   3.986  0.8893  0.7272  0.8298
  216MOL0     H29094   4.390   1.418   3.937 -0.1779 -0.1093  0.6218
  216MOL0     H29095   4.200   1.587   3.967  1.4971 -1.2855 -0.4464
  216MOL0     H29096   4.156   1.428   3.923  0.5812 -0.1385  0.3261
  216MOL0     H29097   3.999   1.649   4.076 -0.9235 -1.8894  3.6538
  216MOL0     H29098   3.937   1.488   4.083  2.2326 -2.8568  0.3494
  216MOL0     H29099   3.945   1.509   3.826 -2.3625 -0.1468  0.4981
  216MOL0     H29100   3.958   1.685   3.851  0.5879 -0.2294 -1.6666
  216MOL0     H29101   3.734   1.513   3.960  0.4993  0.0366  0.6882
  216MOL0     H29102   3.761   1.688   3.998  0.4824  2.7851 -1.7111
  216MOL0     H29103   3.730   1.768   3.777 -1.4573 -0.0994 -1.4637
  216MOL0     H29104   3.728   1.605   3.715 -1.0156  1.8312 -2.2335
  216MOL0     H29105   3.508   1.647   3.708  0.0881  0.6753  0.2331
  216MOL0     H29106   3.532   1.567   3.869  1.4664 -0.3955  0.7833
  216MOL0     H29107   3.381   1.797   3.814 -1.0412  1.6413  2.7242
  216MOL0     H29108   3.538   1.873   3.842 -2.5900  2.0419  0.2322
  216MOL0     H29109   3.547   1.772   4.069  0.7104  1.0515 -2.6702
  216MOL0     H29110   3.419   1.874   4.057 -0.7178  0.6946 -1.6828
  216MOL0     H29111   3.218   1.636   3.903  0.6528 -0.0037 -0.6897
  216MOL0     H29112   3.049   1.416   4.031 -0.2868 -1.3787  1.2397
  216MOL0     H29113   3.015   1.454   4.197  0.1799  0.6279 -0.0425
  216MOL0     H29114   2.922   1.694   4.144  0.3764 -2.0332  2.0266
  216MOL0     H29115   2.961   1.673   3.981  0.0838 -1.1258 -1.4315
  216MOL0     H29116   2.798   1.463   3.984 -3.8531 -0.1454  0.2222
  216MOL0     H29117   2.727   1.621   4.002 -1.0047  0.0829  0.4755
  216MOL0     H29118   2.649   1.575   4.207 -1.0081  0.1858 -0.4090
  216MOL0     H29119   2.800   1.555   4.265 -1.7700  1.0686  0.4749
  216MOL0     H29120   2.488   1.457   4.102  4.9323  0.9333 -0.1530
  216MOL0     H29121   2.325   1.296   4.028 -1.2413 -2.0464 -0.3429
  216MOL0     H29122   2.094   0.855   3.917 -0.0033  0.3459 -0.7748
  216MOL0     H29123   1.853   0.774   3.952 -0.4592  1.2928 -1.6906
  216MOL0     H29124   1.643   1.019   4.074  1.6625 -0.4367 -0.5803
  216MOL0     H29125   1.557   0.885   3.994  2.1087 -0.2766 -0.8073
  216MOL0     H29126   1.522   0.963   4.271  3.5943 -0.4677 -0.9220
  216MOL0     H29127   1.403   0.995   4.140 -0.3834 -2.9449 -3.4243
  216MOL0     H29128   1.366   0.749   4.109 -0.1143 -0.9359  0.2410
  216MOL0     H29129   1.473   0.715   4.250 -0.8676 -0.2015  0.7597
  216MOL0     H29130   1.231   0.895   4.269  2.1573  1.2271  1.1579
  216MOL0     H29131   1.325   0.840   4.391 -4.2858  3.3943  0.8792
  216MOL0     H29132   1.267   0.600   4.344  0.9704  0.8163  1.7561
  216MOL0     H29133   1.175   0.662   4.201  0.4461  2.5391 -1.0245
  216MOL0     H29134   1.099   0.752   4.481 -2.8192  2.3299  0.4808
  216MOL0     H29135   1.022   0.778   4.335  1.9077 -1.2116 -2.6333
  216MOL0     H29136   0.937   0.583   4.512  0.7929  2.8283  1.0592
  216MOL0     H29137   1.059   0.486   4.446  1.2569  1.4563  0.8504
  216MOL0     H29138   0.963   0.517   4.219  2.0265  5.7775  0.0715
  216MOL0     H29139   0.844   0.453   4.327 -1.1829  0.5735 -3.0417
  216MOL0     H29140   1.809   1.038   4.271  0.0140  1.7975 -1.0008
  216MOL0     H29141   2.031   1.141   4.214  2.2266 -0.5327 -0.1104
  216MOL0     H29142   2.537   0.987   4.222  1.0174 -0.9179 -2.0811
  216MOL0     H29143   2.731   1.124   4.238  0.8951  3.7328  0.9540
  216MOL0     H29144   4.300   1.431   4.353 -2.0016 -1.6571 -1.7828
  216MOL0     H29145   4.520   1.380   4.401 -0.3956 -0.3335  0.3501
  216MOL0     H29146   4.872   1.215   4.379 -0.6260  1.4159  0.4008
  216MOL0     H29147   5.089   1.120   4.439 -1.4985 -1.0682 -0.9829
  216MOL0     H29148   5.516   1.288   4.425 -2.4729  0.7232  1.9472
  216MOL0     H29149   5.446   1.375   4.303  3.1353  0.2712  0.2909
  216MOL0     H29150   5.472   1.189   4.135 -0.4038  2.6520 -0.0201
  216MOL0     H29151   5.509   1.077   4.272 -1.8233  1.1996  0.9836
  216MOL0     H29152   5.723   1.181   4.310 -1.0378 -0.4535 -0.5341
  216MOL0     H29153   5.699   1.308   4.196  0.8610 -0.4175 -0.5525
  216MOL0     H29154   5.718   1.013   4.126  0.6642 -0.8782 -0.9937
  216MOL0     H29155   5.698   1.150   4.001  0.8660 -2.5394 -1.2330
  216MOL0     H29156   6.103   1.149   4.075  0.2576 -0.6623  0.9545
  216MOL0     H29157   5.281   1.420   4.193 -1.8899  0.6281 -1.8474
  216MOL0     H29158   5.032   1.618   4.131 -0.4142 -0.4384  0.2198
  216MOL0     H29159   5.174   1.539   4.062 -0.4826  1.4467  0.1969
  216MOL0     H29160   5.010   1.487   4.006  0.4009 -0.0887 -1.7498
  217MOL0     O29161  10.929   3.730   4.442  0.9371  0.1207 -0.3733
  217MOL0     C29162  10.877   3.831   4.488 -0.0690  0.7793 -0.7213
  217MOL0     O29163  10.898   3.885   4.616 -0.1567  0.2226 -0.1471
  217MOL0     C29164  11.000   3.833   4.684  0.4513  0.0153 -0.5320
  217MOL0     C29165  10.978   3.824   4.829 -0.8930  0.4681 -0.0113
  217MOL0     C29166  11.090   3.781   4.903 -0.2645 -0.5084  0.2472
  217MOL0     C29167  11.212   3.743   4.841  0.2204 -0.3598 -0.5263
  217MOL0     O29168  11.312   3.708   4.934  0.1289 -0.2951 -0.0583
  217MOL0     C29169  11.430   3.632   4.895  0.9203  0.7777  0.3859
  217MOL0     C29170  11.545   3.729   4.865 -1.3219 -0.5715 -0.0937
  217MOL0     C29171  11.681   3.657   4.880  0.6171  0.0713  0.3315
  217MOL0     C29172  11.733   3.631   4.746 -0.6249 -0.0520  0.2752
  217MOL0     C29173  11.886   3.625   4.759  0.0818 -0.1146 -0.3441
  217MOL0     C29174  11.938   3.500   4.833  0.1259  0.7360 -0.5066
  217MOL0     C29175  12.084   3.492   4.849  0.3021 -0.0514  0.8592
  217MOL0     C29176  12.131   3.605   4.938 -0.3099 -0.8775 -0.5292
  217MOL0     N29177  12.279   3.608   4.959  0.0197 -0.0977 -1.1702
  217MOL0     C29178  12.360   3.665   4.867  0.5727  0.0317 -0.7306
  217MOL0     C29179  12.490   3.628   4.904  0.4947 -0.5685  0.4370
  217MOL0     C29180  12.619   3.663   4.831 -0.1512  0.1113  0.4644
  217MOL0     C29181  12.743   3.629   4.917  0.5308  0.8179  0.3851
  217MOL0     C29182  12.866   3.642   4.829  0.4129 -0.4189  1.0157
  217MOL0     C29183  13.004   3.632   4.898  0.5322 -0.3628 -0.3518
  217MOL0     O29184  13.046   3.756   4.962 -0.5204 -0.2329 -0.4701
  217MOL0     C29185  13.175   3.748   5.013 -0.0239 -0.2159 -0.6213
  217MOL0     C29186  13.222   3.853   5.089 -0.0027 -0.5617 -0.4469
  217MOL0     C29187  13.341   3.848   5.162 -0.6577  0.0999 -0.0930
  217MOL0     C29188  13.433   3.743   5.138 -0.1602 -0.3189  1.0188
  217MOL0     C29189  13.578   3.758   5.177 -0.3263  1.2874 -0.2271
  217MOL0     O29190  13.648   3.644   5.162  0.0255  0.0201 -0.4811
  217MOL0     C29191  13.777   3.629   5.194  0.2967 -0.3205 -0.8455
  217MOL0     C29192  13.877   3.728   5.176 -0.4250  0.3178  0.2036
  217MOL0     C29193  14.016   3.701   5.205  0.1388  0.1960 -0.4446
  217MOL0     C29194  14.052   3.573   5.259  0.9028  0.8160  0.4423
  217MOL0     O29195  14.180   3.548   5.288  0.0764 -0.9690  0.2633
  217MOL0     C29196  14.230   3.409   5.286 -0.2429 -0.0431  0.2785
  217MOL0     C29197  14.388   3.422   5.265 -0.2576 -0.3063  0.2019
  217MOL0     C29198  14.460   3.496   5.381  0.7239  0.5506  0.3382
  217MOL0     C29199  14.602   3.463   5.386  0.3782  1.1697  0.6660
  217MOL0     C29200  14.673   3.558   5.471 -0.0675  0.0338 -0.1629
  217MOL0     C29201  14.829   3.520   5.484  0.3694  0.0886  0.5484
  217MOL0     C29202  14.856   3.382   5.528 -0.2368  0.0598  0.5199
  217MOL0     C29203  15.004   3.353   5.542 -0.1331  0.1870 -0.4262
  217MOL0    Cl29204  15.066   3.422   5.709 -0.0966  0.0514 -0.1534
  217MOL0     C29205  13.954   3.475   5.276  0.3361 -0.7136  0.6756
  217MOL0     C29206  13.812   3.499   5.242 -0.3565 -1.2027 -0.1727
  217MOL0     O29207  13.624   3.870   5.199  0.0811  0.1611 -0.6181
  217MOL0     C29208  13.390   3.638   5.059  0.8277  0.1505 -0.2047
  217MOL0     C29209  13.253   3.631   5.005 -1.1630  0.1091 -0.6990
  217MOL0     N29210  12.475   3.546   5.014 -0.1795 -0.0060  0.0662
  217MOL0     N29211  12.351   3.529   5.044  0.4575  0.0188  0.0327
  217MOL0     C29212  11.235   3.750   4.700  0.1404 -0.0068 -0.4639
  217MOL0     C29213  11.126   3.803   4.626  0.6689  0.0366  0.2129
  217MOL0     C29214  10.774   3.898   4.405  0.1416 -0.6343 -0.4043
  217MOL0     C29215  10.726   4.023   4.449 -0.7242 -0.3494 -0.2196
  217MOL0     C29216  10.630   4.099   4.374  0.1159 -0.5052 -0.7964
  217MOL0     C29217  10.586   4.049   4.252  0.3975 -1.8533  0.0188
  217MOL0     O29218  10.483   4.111   4.183  0.6001  0.0571  0.5484
  217MOL0     C29219  10.411   4.229   4.235  0.2977  0.3630 -0.2798
  217MOL0     C29220  10.274   4.255   4.168 -0.6613 -0.3964 -0.1388
  217MOL0     C29221  10.291   4.348   4.045  0.6375 -0.0395 -1.3328
  217MOL0     C29222  10.159   4.397   3.992  0.1891 -0.1569 -0.2276
  217MOL0     C29223  10.059   4.297   3.956  0.3242 -0.3029 -1.4264
  217MOL0     C29224   9.966   4.224   3.921  1.1319 -0.0724  0.5140
  217MOL0     C29225  10.624   3.926   4.218  0.0973 -0.3482 -0.3415
  217MOL0     C29226  10.720   3.853   4.285  0.7747  0.6666 -0.0703
  217MOL0     C29227  10.758   3.709   4.229  0.0459 -0.0511 -0.4440
  217MOL0     H29228  10.881   3.852   4.868 -0.3148  2.0781  0.3473
  217MOL0     H29229  11.096   3.786   5.011  4.8367 -0.0359  0.2076
  217MOL0     H29230  11.449   3.570   4.983 -0.6606 -0.7424 -0.2721
  217MOL0     H29231  11.432   3.567   4.808  3.6953  0.2498  0.7412
  217MOL0     H29232  11.554   3.811   4.936  1.8403 -1.6635  0.9382
  217MOL0     H29233  11.521   3.785   4.774 -1.5116  0.3287  0.4951
  217MOL0     H29234  11.667   3.570   4.945 -0.0975  0.4397  0.6990
  217MOL0     H29235  11.738   3.726   4.943  1.7887 -0.8870  0.3426
  217MOL0     H29236  11.691   3.541   4.700 -1.9173  1.6841 -2.1492
  217MOL0     H29237  11.710   3.708   4.672  1.5305  0.8860  0.4953
  217MOL0     H29238  11.934   3.633   4.661  0.0157  1.8907 -0.2440
  217MOL0     H29239  11.908   3.717   4.813  0.5257 -1.0475  1.1414
  217MOL0     H29240  11.886   3.509   4.929  1.3324 -1.7223  0.4746
  217MOL0     H29241  11.910   3.402   4.794 -0.9851  1.1912 -0.8781
  217MOL0     H29242  12.122   3.508   4.747 -0.5274  2.2636  0.8496
  217MOL0     H29243  12.110   3.393   4.886 -1.7551 -2.0188 -2.4481
  217MOL0     H29244  12.111   3.706   4.900  1.1618 -1.3534 -2.7618
  217MOL0     H29245  12.091   3.588   5.038 -0.0005 -3.1681 -0.7505
  217MOL0     H29246  12.324   3.728   4.786 -2.0083 -0.0113  0.2838
  217MOL0     H29247  12.630   3.612   4.735  1.6664  2.7397 -0.8710
  217MOL0     H29248  12.627   3.772   4.819 -0.9552  0.6074  3.5713
  217MOL0     H29249  12.749   3.691   5.007 -0.4899  0.9249  0.3957
  217MOL0     H29250  12.749   3.523   4.941  2.9940 -0.0487 -3.2775
  217MOL0     H29251  12.866   3.741   4.781 -0.8116 -1.1288 -0.5240
  217MOL0     H29252  12.858   3.563   4.755  1.2429 -0.0198  0.4855
  217MOL0     H29253  13.085   3.601   4.832  2.8123 -1.3139  2.6596
  217MOL0     H29254  13.007   3.553   4.974  1.7592  1.7083  1.9316
  217MOL0     H29255  13.166   3.943   5.111  0.2902  0.1638 -2.4365
  217MOL0     H29256  13.364   3.929   5.230  1.7230 -0.2330 -0.4182
  217MOL0     H29257  13.843   3.822   5.135  0.7149  0.1074 -1.3078
  217MOL0     H29258  14.093   3.777   5.196  1.4512 -0.5888  2.6319
  217MOL0     H29259  14.223   3.359   5.383  0.9846  1.3703  1.1257
  217MOL0     H29260  14.177   3.348   5.213  0.5449 -0.7905  0.3181
  217MOL0     H29261  14.432   3.323   5.253  1.0863  0.4783 -1.7076
  217MOL0     H29262  14.404   3.480   5.174 -2.1841  3.1197  1.8523
  217MOL0     H29263  14.448   3.604   5.372  2.6016  0.8872  1.3939
  217MOL0     H29264  14.406   3.462   5.470 -2.1614 -0.7855 -1.7565
  217MOL0     H29265  14.646   3.452   5.286  0.2507 -1.8962  0.8620
  217MOL0     H29266  14.609   3.362   5.427  2.3407  2.7692  4.8150
  217MOL0     H29267  14.625   3.562   5.570 -0.9221 -1.9760 -0.4348
  217MOL0     H29268  14.666   3.652   5.416 -0.1358  0.0046 -0.2048
  217MOL0     H29269  14.864   3.524   5.381 -1.0122  1.0543  0.0817
  217MOL0     H29270  14.887   3.591   5.543 -0.4980  0.5203  0.9109
  217MOL0     H29271  14.822   3.321   5.444  0.6403  0.3044 -0.0212
  217MOL0     H29272  14.792   3.352   5.612  1.7760 -4.1011  0.8615
  217MOL0     H29273  15.027   3.247   5.529  1.3655  0.1854  1.7024
  217MOL0     H29274  15.054   3.407   5.462 -1.2235 -0.4285 -1.5581
  217MOL0     H29275  13.972   3.373   5.310 -1.3293 -1.3679 -0.2577
  217MOL0     H29276  13.734   3.424   5.245 -0.8281 -0.7423 -0.8374
  217MOL0     H29277  13.449   3.547   5.058  0.4511 -0.0981 -1.3174
  217MOL0     H29278  13.210   3.541   4.963 -1.8861 -0.2554  0.7792
  217MOL0     H29279  11.335   3.739   4.659 -0.2493  2.1085 -2.1783
  217MOL0     H29280  11.145   3.822   4.521  1.5758  1.1767  0.5630
  217MOL0     H29281  10.769   4.074   4.536  2.3809  1.4655 -2.5787
  217MOL0     H29282  10.609   4.202   4.401  0.9083 -0.8759  1.4359
  217MOL0     H29283  10.484   4.310   4.232  0.6844  0.0035 -0.6778
  217MOL0     H29284  10.397   4.211   4.342 -0.5275 -0.3175 -0.4880
  217MOL0     H29285  10.214   4.303   4.247 -1.3631  0.7626 -1.3249
  217MOL0     H29286  10.234   4.160   4.131 -0.3523 -1.0083  1.0647
  217MOL0     H29287  10.348   4.294   3.969  0.3013  0.1675 -1.7348
  217MOL0     H29288  10.344   4.437   4.080  2.7211 -2.3613  2.1449
  217MOL0     H29289  10.107   4.472   4.053  1.0104 -1.0983  1.6954
  217MOL0     H29290  10.178   4.455   3.901 -1.9201  0.4847 -0.3171
  217MOL0     H29291   9.883   4.165   3.886  2.9520 -1.8161 -1.1040
  217MOL0     H29292  10.585   3.880   4.127  0.7323  1.9171 -1.8572
  217MOL0     H29293  10.678   3.678   4.161 -1.0424 -2.1455  1.6303
  217MOL0     H29294  10.839   3.709   4.155 -0.8049 -2.2396 -1.4912
  217MOL0     H29295  10.773   3.635   4.308 -2.3770 -2.0564 -1.6867
  218MOL0     O29296   5.818   1.934   5.713 -0.3698  0.1564  0.4664
  218MOL0     C29297   5.739   1.835   5.712  0.4294  0.3895 -1.3607
  218MOL0     O29298   5.770   1.704   5.673 -0.2364  0.2467  0.6320
  218MOL0     C29299   5.886   1.685   5.609  1.6042 -0.3175 -0.1080
  218MOL0     C29300   5.880   1.659   5.473  0.7072 -0.0586  0.2749
  218MOL0     C29301   6.000   1.643   5.399 -0.2646  0.5179  1.2934
  218MOL0     C29302   6.123   1.661   5.459 -0.3917 -0.5667  1.3443
  218MOL0     O29303   6.236   1.654   5.375  0.1458 -0.2489  0.3761
  218MOL0     C29304   6.304   1.782   5.375  0.4003 -0.0836 -0.0784
  218MOL0     C29305   6.395   1.780   5.255  0.4627  0.2391 -0.3114
  218MOL0     C29306   6.522   1.689   5.287 -0.1598  0.3322  0.6168
  218MOL0     C29307   6.639   1.775   5.336  0.9521 -0.1159 -0.4297
  218MOL0     C29308   6.756   1.694   5.394  0.2019  0.4705  0.2388
  218MOL0     C29309   6.811   1.579   5.306  0.0776 -0.2326  0.1072
  218MOL0     C29310   6.850   1.616   5.164 -0.4330 -0.3779  0.0156
  218MOL0     C29311   6.919   1.498   5.099  0.2995  0.0298  0.2871
  218MOL0     N29312   7.061   1.503   5.133  0.2321  0.6094  0.4160
  218MOL0     C29313   7.131   1.397   5.192  0.0332  0.1645  0.5361
  218MOL0     C29314   7.258   1.405   5.143  0.3875  0.3748 -0.7109
  218MOL0     C29315   7.375   1.318   5.164 -0.7051 -0.0213 -0.2492
  218MOL0     C29316   7.391   1.229   5.045 -0.3232 -0.1205 -0.2396
  218MOL0     C29317   7.511   1.144   5.054 -0.2524  0.0764 -0.1706
  218MOL0     C29318   7.635   1.224   5.094  0.2932  0.3069 -0.4426
  218MOL0     O29319   7.748   1.131   5.083  0.7408 -0.2346 -0.1954
  218MOL0     C29320   7.868   1.182   5.048  0.3371  0.4372  1.1877
  218MOL0     C29321   7.903   1.318   5.038  0.3988 -0.7508 -0.4742
  218MOL0     C29322   8.035   1.354   5.007  0.3175  0.3218  0.1789
  218MOL0     C29323   8.119   1.257   4.954 -0.0974  0.5489  0.1426
  218MOL0     C29324   8.257   1.289   4.909  0.8181 -0.5582  0.3992
  218MOL0     O29325   8.349   1.183   4.859 -0.8212  0.2558 -0.1444
  218MOL0     C29326   8.488   1.195   4.839  0.4126  0.1945  0.3807
  218MOL0     C29327   8.535   1.113   4.736  0.1519 -0.5073  0.1021
  218MOL0     C29328   8.673   1.121   4.709 -0.0054 -0.2249  0.6037
  218MOL0     C29329   8.759   1.203   4.777  0.2444 -0.2584 -0.3588
  218MOL0     O29330   8.887   1.221   4.742 -0.3634  0.6499  0.1070
  218MOL0     C29331   8.913   1.339   4.663 -0.0131  0.6030 -0.2985
  218MOL0     C29332   8.930   1.308   4.510  0.2273 -0.1763  0.3957
  218MOL0     C29333   9.053   1.210   4.490 -0.5780  0.1215  0.2782
  218MOL0     C29334   9.068   1.172   4.341  0.5108 -0.3979 -0.7021
  218MOL0     C29335   9.200   1.082   4.331  0.1656 -0.0664 -0.2162
  218MOL0     C29336   9.213   1.041   4.190  0.5039  0.2098  0.4329
  218MOL0     C29337   9.345   0.966   4.158 -0.1347 -0.1590  0.0473
  218MOL0     C29338   9.471   1.042   4.173 -0.7890 -0.5366  0.1281
  218MOL0    Cl29339   9.524   1.003   4.344  0.2067  0.2096 -0.0133
  218MOL0     C29340   8.711   1.281   4.891 -0.3814  0.3244 -0.2839
  218MOL0     C29341   8.573   1.278   4.919 -0.2668  0.2627  0.0466
  218MOL0     O29342   8.295   1.401   4.931 -0.5573  0.2175 -0.5418
  218MOL0     C29343   8.079   1.121   4.946  0.3688 -0.6327 -0.6613
  218MOL0     C29344   7.954   1.082   4.996 -0.1553 -0.4101  0.8222
  218MOL0     N29345   7.259   1.523   5.065 -0.1786 -0.1800 -0.5059
  218MOL0     N29346   7.146   1.584   5.059 -0.4395 -0.4999  0.0272
  218MOL0     C29347   6.132   1.681   5.593  0.0679 -0.1433  1.1303
  218MOL0     C29348   6.011   1.690   5.665 -0.4694  0.4642 -0.4345
  218MOL0     C29349   5.599   1.868   5.756 -0.4440  0.1353 -0.2337
  218MOL0     C29350   5.578   1.988   5.830 -0.0716  0.0770  0.2934
  218MOL0     C29351   5.456   2.019   5.888  0.6831 -0.2457 -0.3393
  218MOL0     C29352   5.345   1.940   5.875  0.5815 -0.2714 -0.3882
  218MOL0     O29353   5.226   1.991   5.917  0.4479  0.1580 -0.3524
  218MOL0     C29354   5.121   1.900   5.955 -0.3647  0.0653  0.8521
  218MOL0     C29355   5.015   1.981   6.035 -0.4044  0.3475 -0.2811
  218MOL0     C29356   5.060   2.057   6.159  0.2666 -0.6098 -0.1399
  218MOL0     C29357   4.942   2.109   6.231 -0.2685 -0.1320  0.6434
  218MOL0     C29358   4.876   1.996   6.300 -0.2041  0.7946 -0.3140
  218MOL0     C29359   4.826   1.888   6.323 -0.1899  0.3863  0.0609
  218MOL0     C29360   5.366   1.820   5.805  0.5406 -0.7350  0.9462
  218MOL0     C29361   5.488   1.785   5.744 -0.5089 -0.2314  0.4206
  218MOL0     C29362   5.482   1.653   5.671 -0.8681 -0.3922 -0.3878
  218MOL0     H29363   5.789   1.638   5.417  1.3984 -0.5664 -0.6939
  218MOL0     H29364   5.988   1.609   5.296 -2.0428 -0.7209  1.8726
  218MOL0     H29365   6.225   1.857   5.366 -0.9533 -1.1461  2.1889
  218MOL0     H29366   6.367   1.791   5.465  2.0319  0.1184 -1.2018
  218MOL0     H29367   6.435   1.882   5.244  0.0531  0.4612  0.2286
  218MOL0     H29368   6.350   1.742   5.163  1.5380 -0.0099 -0.7563
  218MOL0     H29369   6.548   1.626   5.201 -0.3015 -0.9483  1.4858
  218MOL0     H29370   6.493   1.617   5.364 -1.9297 -0.4873 -0.7268
  218MOL0     H29371   6.665   1.843   5.255  1.5426 -1.0223 -1.0169
  218MOL0     H29372   6.600   1.846   5.410  0.5617  1.9607 -2.5159
  218MOL0     H29373   6.843   1.759   5.412  1.0222 -0.8849  1.3659
  218MOL0     H29374   6.721   1.672   5.496 -2.7475  1.3708 -0.4751
  218MOL0     H29375   6.906   1.554   5.355  2.3045  3.4164 -1.9361
  218MOL0     H29376   6.741   1.495   5.308 -2.6930  1.7682  4.6424
  218MOL0     H29377   6.907   1.710   5.163  0.3931 -0.6528  3.7759
  218MOL0     H29378   6.758   1.635   5.109  0.1999 -2.3993 -1.8790
  218MOL0     H29379   6.877   1.405   5.138  1.0036  0.3591  1.9599
  218MOL0     H29380   6.901   1.498   4.992 -0.4948 -1.3140  0.3975
  218MOL0     H29381   7.101   1.331   5.273 -1.6216 -0.2611 -0.3705
  218MOL0     H29382   7.458   1.386   5.181 -0.7263 -0.4777  1.8904
  218MOL0     H29383   7.363   1.260   5.256 -0.2004  0.0674 -0.1265
  218MOL0     H29384   7.305   1.163   5.032  2.2750 -3.5740 -1.7723
  218MOL0     H29385   7.399   1.288   4.953 -0.8400 -0.8620 -0.7719
  218MOL0     H29386   7.538   1.094   4.960  0.3716  1.2734 -0.6540
  218MOL0     H29387   7.487   1.068   5.129  0.8961  0.4271  0.5851
  218MOL0     H29388   7.633   1.256   5.199 -1.0995 -0.4910 -0.2002
  218MOL0     H29389   7.641   1.308   5.024 -0.9928  0.2614 -0.6288
  218MOL0     H29390   7.842   1.397   5.080  1.0872  0.3636 -1.4943
  218MOL0     H29391   8.065   1.457   5.019  0.0506  0.4702 -0.3747
  218MOL0     H29392   8.467   1.046   4.684 -1.3189  1.0045  0.0062
  218MOL0     H29393   8.716   1.074   4.621 -0.6133 -3.1444  1.7216
  218MOL0     H29394   8.823   1.402   4.664  0.0454  0.6777  0.6636
  218MOL0     H29395   8.991   1.399   4.710 -1.3041  0.5252  2.0783
  218MOL0     H29396   8.840   1.260   4.473  1.7394 -2.0209 -1.1299
  218MOL0     H29397   8.949   1.396   4.447  0.1778  0.6771  1.5345
  218MOL0     H29398   9.152   1.246   4.518 -0.0161 -0.5975 -0.7413
  218MOL0     H29399   9.035   1.117   4.546 -0.1057 -1.4398 -2.0446
  218MOL0     H29400   9.083   1.259   4.277 -0.0473 -2.0119 -3.1262
  218MOL0     H29401   8.978   1.115   4.316 -0.3899 -0.9548  3.1674
  218MOL0     H29402   9.193   0.995   4.397 -0.5696 -0.0297 -0.2349
  218MOL0     H29403   9.279   1.148   4.367  0.2338  0.0080 -0.5051
  218MOL0     H29404   9.129   0.976   4.164  1.1230 -0.1752 -0.6338
  218MOL0     H29405   9.210   1.126   4.121  0.1502  0.1004  0.3102
  218MOL0     H29406   9.336   0.933   4.054  1.6849 -0.9844  0.1226
  218MOL0     H29407   9.355   0.880   4.225  3.9726  1.5841  1.9895
  218MOL0     H29408   9.534   1.000   4.094  3.8700  0.0917  3.1134
  218MOL0     H29409   9.459   1.150   4.158 -1.0488 -0.7491 -1.4010
  218MOL0     H29410   8.775   1.350   4.946 -3.1882  1.1203  2.2677
  218MOL0     H29411   8.529   1.337   4.999  0.3225 -0.4513  0.9144
  218MOL0     H29412   8.155   1.054   4.907 -1.6391 -3.2360 -0.3629
  218MOL0     H29413   7.910   0.982   4.997  0.8573 -0.9998 -2.2088
  218MOL0     H29414   6.228   1.681   5.644  0.4791  0.1784  0.3804
  218MOL0     H29415   6.014   1.717   5.771 -1.3221  0.7266 -0.4763
  218MOL0     H29416   5.667   2.045   5.854 -0.9027  1.7789 -0.5446
  218MOL0     H29417   5.441   2.113   5.940 -2.0378 -0.7931  0.0190
  218MOL0     H29418   5.157   1.804   5.995  1.0134  0.2386  0.0817
  218MOL0     H29419   5.076   1.876   5.858  0.7687 -0.4977  0.4472
  218MOL0     H29420   4.940   1.903   6.050  0.4211 -0.7180 -1.5135
  218MOL0     H29421   4.982   2.059   5.966  1.2642  0.9362 -0.4557
  218MOL0     H29422   5.118   2.139   6.116 -2.5521  1.0234 -1.0697
  218MOL0     H29423   5.127   1.997   6.222 -0.2287  0.8339  1.8483
  218MOL0     H29424   4.959   2.190   6.302 -1.3944 -0.5103  1.3792
  218MOL0     H29425   4.869   2.143   6.157 -1.1073 -2.2722  0.3997
  218MOL0     H29426   4.797   1.800   6.376  0.4169  0.5967  0.7533
  218MOL0     H29427   5.281   1.755   5.788  0.3262 -0.2938  0.2827
  218MOL0     H29428   5.383   1.627   5.633 -0.2118 -2.6982 -0.7176
  218MOL0     H29429   5.539   1.649   5.578 -3.1596 -1.3213 -1.8396
  218MOL0     H29430   5.525   1.570   5.728  0.9415  1.2651  0.7617
  219MOL0     O29431   1.993  10.846   6.089 -0.6124  0.7033  0.2814
  219MOL0     C29432   1.939  10.864   5.981  0.4253  0.0227 -0.3733
  219MOL0     O29433   2.000  10.892   5.857 -0.6245  0.1286 -0.4122
  219MOL0     C29434   2.133  10.901   5.852 -0.4966 -0.8117  0.0138
  219MOL0     C29435   2.207  10.826   5.763 -0.0277 -0.9760 -0.9467
  219MOL0     C29436   2.346  10.835   5.757 -0.4247  0.2682  0.0097
  219MOL0     C29437   2.416  10.934   5.838  0.5290 -0.0251 -0.2499
  219MOL0     O29438   2.547  10.954   5.803  0.0641  0.4250 -0.2461
  219MOL0     C29439   2.621  11.069   5.849 -0.6611  0.2397  0.1503
  219MOL0     C29440   2.740  11.085   5.746  0.4791 -0.2578  0.3732
  219MOL0     C29441   2.829  10.966   5.774  0.7520 -0.6702 -1.1715
  219MOL0     C29442   2.935  11.007   5.879  0.1105  0.4046 -0.2101
  219MOL0     C29443   3.003  10.882   5.931 -0.2470  0.3722 -0.3514
  219MOL0     C29444   3.122  10.929   6.020  0.1403 -0.3874 -0.1926
  219MOL0     C29445   3.242  10.822   6.026 -0.9481 -0.2845  0.1852
  219MOL0     C29446   3.363  10.901   6.075  0.1002 -0.7062  0.2027
  219MOL0     N29447   3.490  10.831   6.055  0.5445  0.4316 -0.4016
  219MOL0     C29448   3.512  10.709   6.113 -0.6410  0.4330 -0.8796
  219MOL0     C29449   3.647  10.694   6.100  0.1157  0.0864 -0.0135
  219MOL0     C29450   3.719  10.581   6.162 -0.8622  0.7794 -0.3162
  219MOL0     C29451   3.870  10.585   6.135  0.6453 -0.0312 -1.0903
  219MOL0     C29452   3.925  10.460   6.204  0.7556 -0.4636  0.0744
  219MOL0     C29453   4.074  10.459   6.177  0.7041  0.0980  0.6740
  219MOL0     O29454   4.139  10.351   6.248 -0.1967  0.2834 -0.5812
  219MOL0     C29455   4.276  10.341   6.263 -0.0520  0.2511  0.0325
  219MOL0     C29456   4.310  10.211   6.289  0.6046  0.2191  0.5126
  219MOL0     C29457   4.446  10.176   6.308  0.0239  0.1196  1.3523
  219MOL0     C29458   4.549  10.274   6.309  1.0884  0.8003 -0.4288
  219MOL0     C29459   4.680  10.224   6.375  1.1598 -0.8625 -0.8744
  219MOL0     O29460   4.781  10.317   6.380  0.3172 -0.0906  0.1089
  219MOL0     C29461   4.885  10.287   6.461 -0.5317 -0.0496  0.3092
  219MOL0     C29462   4.867  10.237   6.592  0.1043  0.4386 -0.5612
  219MOL0     C29463   4.975  10.218   6.685  0.4943  0.0476 -0.0900
  219MOL0     C29464   5.100  10.241   6.644  0.0698 -1.0976  1.0539
  219MOL0     O29465   5.200  10.251   6.743  0.1658  0.6063 -0.3616
  219MOL0     C29466   5.275  10.133   6.767  0.9011 -0.1030  0.2583
  219MOL0     C29467   5.365  10.151   6.895  0.0605 -0.3283 -0.2837
  219MOL0     C29468   5.294  10.142   7.033 -0.8108  0.1675  0.0548
  219MOL0     C29469   5.213  10.270   7.072 -0.2465  0.1672  0.3822
  219MOL0     C29470   5.137  10.262   7.213 -0.3684  0.2219 -0.0745
  219MOL0     C29471   4.991  10.204   7.196  0.1031  0.2355  0.3747
  219MOL0     C29472   4.915  10.188   7.326  0.2559 -0.8934  0.3280
  219MOL0     C29473   4.768  10.199   7.307 -0.1231 -1.0536  0.4581
  219MOL0    Cl29474   4.706  10.065   7.233  0.0327  0.5245 -0.0020
  219MOL0     C29475   5.128  10.289   6.512  0.3897 -0.4131  0.2686
  219MOL0     C29476   5.021  10.311   6.423  0.2231 -0.2398  0.2816
  219MOL0     O29477   4.681  10.110   6.420  0.3606  0.4113  0.6999
  219MOL0     C29478   4.507  10.407   6.275  0.1610  0.3476  0.4495
  219MOL0     C29479   4.372  10.437   6.244  0.3988 -0.2467  0.1648
  219MOL0     N29480   3.699  10.799   6.027  0.1813  0.0470  1.2884
  219MOL0     N29481   3.603  10.885   6.010 -0.1723  0.4586  0.4466
  219MOL0     C29482   2.346  11.006   5.932  0.3990 -0.1920  0.2248
  219MOL0     C29483   2.209  10.984   5.939  0.4331  0.8280 -0.0300
  219MOL0     C29484   1.798  10.851   5.976  0.0351 -0.2071  0.8064
  219MOL0     C29485   1.745  10.818   5.846 -0.7775 -0.5484 -0.5740
  219MOL0     C29486   1.609  10.802   5.831 -0.9704 -0.3071  0.1058
  219MOL0     C29487   1.525  10.806   5.941  0.3219 -0.0465 -0.6912
  219MOL0     O29488   1.384  10.805   5.945  0.0460  0.4509 -0.5649
  219MOL0     C29489   1.316  10.730   5.841 -0.5008  0.1384  0.5343
  219MOL0     C29490   1.192  10.665   5.896 -0.3056  0.2983 -0.5940
  219MOL0     C29491   1.118  10.589   5.779  0.2550  0.1782  0.7155
  219MOL0     C29492   1.024  10.475   5.822  0.4492  0.1042  0.6292
  219MOL0     C29493   0.904  10.530   5.892 -0.8757 -0.8500  0.6145
  219MOL0     C29494   0.799  10.582   5.933 -0.6250 -0.5347 -0.3338
  219MOL0     C29495   1.569  10.850   6.065  0.4500  0.6763  0.2246
  219MOL0     C29496   1.707  10.868   6.084 -0.3655 -0.4883  0.2295
  219MOL0     C29497   1.754  10.911   6.219  0.4675  0.1537  0.4504
  219MOL0     H29498   2.156  10.767   5.687 -0.2165  0.4846 -1.9840
  219MOL0     H29499   2.407  10.775   5.690  0.7949 -2.2726  3.0992
  219MOL0     H29500   2.557  11.155   5.830  1.7793  2.0430 -0.3640
  219MOL0     H29501   2.656  11.073   5.953 -2.0213  1.6301  0.5833
  219MOL0     H29502   2.802  11.175   5.757  0.5248 -0.3008  0.4712
  219MOL0     H29503   2.695  11.084   5.647  0.5559  1.4867  0.2831
  219MOL0     H29504   2.881  10.923   5.687  1.6462  1.3922 -1.7291
  219MOL0     H29505   2.774  10.885   5.822  2.2128 -0.0330  1.8310
  219MOL0     H29506   3.016  11.072   5.844 -0.7414  2.9664  2.3132
  219MOL0     H29507   2.887  11.061   5.961  1.5922 -0.4813  1.3200
  219MOL0     H29508   2.932  10.815   5.981 -1.8157  2.9104  1.0373
  219MOL0     H29509   3.046  10.827   5.847 -1.0192 -3.4698  1.5429
  219MOL0     H29510   3.155  11.028   5.985 -1.5685 -0.3085 -1.7234
  219MOL0     H29511   3.095  10.942   6.125 -0.2129  1.1965 -0.4429
  219MOL0     H29512   3.262  10.780   5.927  0.8330 -0.1296  0.4613
  219MOL0     H29513   3.222  10.740   6.096  0.3240  0.1105  1.0501
  219MOL0     H29514   3.365  10.981   6.001  2.1482 -0.1324  0.8180
  219MOL0     H29515   3.350  10.949   6.172  2.5986  0.6136 -0.0425
  219MOL0     H29516   3.436  10.643   6.154  0.2225 -2.6707 -3.7957
  219MOL0     H29517   3.703  10.572   6.270 -2.4767  0.8505 -0.5384
  219MOL0     H29518   3.674  10.494   6.113  1.2452 -0.1921 -0.6653
  219MOL0     H29519   3.894  10.586   6.028 -0.1181  1.7276 -1.2813
  219MOL0     H29520   3.915  10.674   6.179  0.4433 -1.5290  2.4792
  219MOL0     H29521   3.871  10.378   6.155  0.8812 -0.0791 -0.7336
  219MOL0     H29522   3.911  10.455   6.312 -4.1982  2.7793 -0.1107
  219MOL0     H29523   4.126  10.551   6.204 -0.6957  0.9663  0.4941
  219MOL0     H29524   4.095  10.443   6.071  2.3253  0.1375  0.9579
  219MOL0     H29525   4.232  10.137   6.302  0.0024  0.7891  0.1927
  219MOL0     H29526   4.467  10.071   6.329  1.0387 -0.7689 -3.0088
  219MOL0     H29527   4.771  10.221   6.639  1.0304  0.0508  1.2898
  219MOL0     H29528   4.953  10.193   6.788  0.6947  2.4122  0.5912
  219MOL0     H29529   5.206  10.049   6.784 -2.0544  1.8076 -1.5992
  219MOL0     H29530   5.328  10.099   6.678  0.2732  0.2010 -0.2362
  219MOL0     H29531   5.449  10.082   6.880  2.0061  2.1159 -1.5003
  219MOL0     H29532   5.416  10.248   6.894 -1.5858  0.5728 -0.0189
  219MOL0     H29533   5.224  10.059   7.033  0.5188 -1.0134  1.3832
  219MOL0     H29534   5.371  10.119   7.108  0.9044  0.6121 -1.4845
  219MOL0     H29535   5.129  10.276   7.002 -1.0654 -2.0618  1.0967
  219MOL0     H29536   5.273  10.362   7.073  0.2081 -0.1238  0.3880
  219MOL0     H29537   5.120  10.360   7.258 -1.9388  0.6758 -1.5484
  219MOL0     H29538   5.200  10.207   7.283 -0.6117  1.1277  0.8883
  219MOL0     H29539   4.930  10.270   7.134 -1.5064 -0.6080  0.9809
  219MOL0     H29540   5.009  10.105   7.154  1.4833  0.9463 -0.7542
  219MOL0     H29541   4.956  10.271   7.385 -0.4911 -0.8424  0.7879
  219MOL0     H29542   4.936  10.099   7.386 -1.8033 -2.6532 -1.3824
  219MOL0     H29543   4.711  10.215   7.399  0.6776 -1.4063  1.0274
  219MOL0     H29544   4.749  10.289   7.248  0.5363 -2.0893 -1.4220
  219MOL0     H29545   5.233  10.312   6.496 -0.0856  1.0419 -0.9846
  219MOL0     H29546   5.029  10.361   6.327  0.3042  0.7872  0.8110
  219MOL0     H29547   4.593  10.474   6.274  1.7713 -1.5109  2.6512
  219MOL0     H29548   4.346  10.542   6.234  0.0348 -0.4726 -1.7589
  219MOL0     H29549   2.389  11.077   6.002 -3.5480  1.2096  1.4797
  219MOL0     H29550   2.152  11.048   6.006  2.1295  2.2601  0.1249
  219MOL0     H29551   1.805  10.796   5.758  2.5709 -1.1717  1.6491
  219MOL0     H29552   1.567  10.786   5.732 -0.3615  0.4374 -0.2775
  219MOL0     H29553   1.385  10.649   5.813 -0.1570  0.3871  0.6479
  219MOL0     H29554   1.299  10.788   5.750  1.0947  3.0002  1.9431
  219MOL0     H29555   1.125  10.744   5.931  0.0446  1.9587 -3.3763
  219MOL0     H29556   1.209  10.595   5.978 -0.7385 -2.7762 -2.9735
  219MOL0     H29557   1.192  10.551   5.708  0.1050 -0.7612  1.0594
  219MOL0     H29558   1.054  10.660   5.725  0.1706 -0.1546  0.3738
  219MOL0     H29559   0.983  10.429   5.732  1.5493 -0.2039  0.2695
  219MOL0     H29560   1.090  10.399   5.866  1.5496  0.4596 -0.3383
  219MOL0     H29561   0.702  10.613   5.963 -0.3735  1.3916 -1.3392
  219MOL0     H29562   1.496  10.863   6.145  0.1618 -1.7128  0.4222
  219MOL0     H29563   1.813  11.002   6.204 -1.2750  1.1567 -0.7198
  219MOL0     H29564   1.666  10.946   6.273 -2.1486 -0.7818 -2.8972
  219MOL0     H29565   1.800  10.831   6.278  0.2738 -0.0639  0.3099
  220MOL0     O29566   1.854   3.260   6.482  0.1029  0.3184  0.7597
  220MOL0     C29567   1.819   3.188   6.394 -0.1515  0.4050  0.9495
  220MOL0     O29568   1.895   3.144   6.286  0.3728 -0.4675 -0.1478
  220MOL0     C29569   2.033   3.157   6.269  0.4291 -0.5333 -0.0801
  220MOL0     C29570   2.122   3.193   6.364 -0.3714 -0.0968 -0.5227
  220MOL0     C29571   2.252   3.200   6.337 -0.3652  0.4392 -0.4370
  220MOL0     C29572   2.305   3.160   6.213  0.4348 -0.2392  0.3599
  220MOL0     O29573   2.445   3.174   6.192 -0.1742  0.7983 -0.6001
  220MOL0     C29574   2.492   3.190   6.063 -0.3739 -0.2141 -0.0242
  220MOL0     C29575   2.628   3.255   6.044 -0.2982 -0.2104  0.1587
  220MOL0     C29576   2.634   3.402   6.073  0.2617 -0.0719  0.3182
  220MOL0     C29577   2.687   3.442   6.212 -0.7084 -0.1444 -0.4986
  220MOL0     C29578   2.679   3.598   6.233  0.6649  0.0010 -0.1089
  220MOL0     C29579   2.751   3.635   6.366 -0.1346  0.4600  1.0729
  220MOL0     C29580   2.748   3.784   6.391 -0.3534 -0.9074  0.4135
  220MOL0     C29581   2.812   3.823   6.520 -0.7584  0.8713  0.1711
  220MOL0     N29582   2.959   3.853   6.520 -1.0135 -0.3247 -0.1157
  220MOL0     C29583   3.016   3.969   6.472  0.1318 -0.7947 -0.1338
  220MOL0     C29584   3.148   3.967   6.512  0.3404  0.7411 -0.3759
  220MOL0     C29585   3.258   4.061   6.499  0.5657  0.0462 -0.6459
  220MOL0     C29586   3.358   4.016   6.395  0.1077  0.1695 -0.2520
  220MOL0     C29587   3.469   4.105   6.346 -0.5233 -0.7092 -0.4642
  220MOL0     C29588   3.417   4.244   6.303 -0.7419 -0.3589 -0.1114
  220MOL0     O29589   3.515   4.338   6.303  0.1279 -0.6483 -0.2142
  220MOL0     C29590   3.626   4.309   6.230 -0.4478 -0.2931  0.3670
  220MOL0     C29591   3.624   4.282   6.092 -0.0959 -0.1510 -0.7103
  220MOL0     C29592   3.752   4.255   6.036  0.0813  0.9314  0.1100
  220MOL0     C29593   3.877   4.255   6.102 -0.3821  0.0747  0.5572
  220MOL0     C29594   4.005   4.218   6.041 -0.0995 -0.6167  0.2056
  220MOL0     O29595   4.107   4.173   6.121  0.5559 -0.2280  0.2340
  220MOL0     C29596   4.218   4.104   6.066 -0.9868  0.6593 -0.0663
  220MOL0     C29597   4.341   4.128   6.119 -0.3664  0.2798 -0.6206
  220MOL0     C29598   4.457   4.071   6.068  0.2406 -0.4212 -0.0384
  220MOL0     C29599   4.456   3.988   5.957  0.9470 -1.4520  0.0267
  220MOL0     O29600   4.563   3.941   5.888  0.7804 -0.2282 -0.2715
  220MOL0     C29601   4.663   4.032   5.864  0.2593  0.7747 -0.0795
  220MOL0     C29602   4.755   3.962   5.764  0.8878 -1.0241 -0.2007
  220MOL0     C29603   4.681   3.943   5.622 -0.0178 -0.1162  0.4153
  220MOL0     C29604   4.762   3.868   5.521  0.1198 -0.5144 -0.2125
  220MOL0     C29605   4.684   3.768   5.440 -0.4575  0.4597  1.0548
  220MOL0     C29606   4.781   3.715   5.323  0.8838 -0.1631 -0.3440
  220MOL0     C29607   4.731   3.602   5.228  0.1758 -0.4909  0.0100
  220MOL0     C29608   4.616   3.652   5.142  0.4541 -0.1873  0.3332
  220MOL0    Cl29609   4.574   3.514   5.025  0.1407 -0.1158  0.2941
  220MOL0     C29610   4.326   3.965   5.902  0.2992 -0.1281  0.1325
  220MOL0     C29611   4.215   4.016   5.957  0.4652 -0.2804  0.0381
  220MOL0     O29612   4.009   4.235   5.916 -1.1274 -0.6245  0.6159
  220MOL0     C29613   3.874   4.297   6.238 -0.6659  0.6952  0.4641
  220MOL0     C29614   3.749   4.326   6.296 -0.4637  0.3134 -0.0256
  220MOL0     N29615   3.171   3.842   6.575 -0.4255 -0.0597  0.6708
  220MOL0     N29616   3.060   3.776   6.571 -0.7096 -0.1986  0.2769
  220MOL0     C29617   2.214   3.130   6.108 -0.6408  0.3760  0.2572
  220MOL0     C29618   2.079   3.137   6.135 -0.4372  0.0463 -0.6912
  220MOL0     C29619   1.680   3.148   6.399 -0.4074  0.9645  0.5068
  220MOL0     C29620   1.635   3.059   6.499 -0.6157 -0.9298  0.1952
  220MOL0     C29621   1.510   3.000   6.504 -0.7768  0.2836 -0.1720
  220MOL0     C29622   1.420   3.041   6.403 -0.1553  0.4524  0.7680
  220MOL0     O29623   1.292   3.003   6.424 -0.5411 -0.5411  0.8006
  220MOL0     C29624   1.185   3.043   6.328 -0.3986 -0.0711  0.0082
  220MOL0     C29625   1.080   2.930   6.344 -0.7333 -0.0403  0.0606
  220MOL0     C29626   0.982   2.948   6.227  0.6829 -0.9217  0.3676
  220MOL0     C29627   0.839   2.899   6.252 -0.8783 -0.2759 -1.2511
  220MOL0     C29628   0.757   2.989   6.335  0.2714 -0.0890  0.2721
  220MOL0     C29629   0.702   3.069   6.402 -0.6242  0.6844 -0.1418
  220MOL0     C29630   1.465   3.137   6.311  0.4639 -0.9262 -0.3639
  220MOL0     C29631   1.591   3.195   6.305 -0.0673  0.3981  0.0065
  220MOL0     C29632   1.631   3.299   6.205  0.3522  0.5926 -0.1684
  220MOL0     H29633   2.095   3.201   6.469 -0.6734  3.3932 -0.7497
  220MOL0     H29634   2.321   3.210   6.420 -1.4856  1.9878  0.3451
  220MOL0     H29635   2.510   3.090   6.023  1.9787 -0.9976  2.7024
  220MOL0     H29636   2.419   3.256   6.014 -1.3811 -0.8363  0.5949
  220MOL0     H29637   2.647   3.226   5.940 -1.0545  0.3265 -0.1387
  220MOL0     H29638   2.705   3.203   6.102  0.9573  2.4205  0.9760
  220MOL0     H29639   2.534   3.446   6.067  0.3850  0.3858  1.4125
  220MOL0     H29640   2.691   3.449   5.992 -3.0304  3.0849 -0.4379
  220MOL0     H29641   2.639   3.382   6.290  0.3079 -1.5943 -0.9484
  220MOL0     H29642   2.793   3.413   6.217 -0.7812 -0.6930 -1.8342
  220MOL0     H29643   2.724   3.648   6.146 -1.0060  2.0283  0.1202
  220MOL0     H29644   2.576   3.633   6.242  0.9044  0.4048  1.3788
  220MOL0     H29645   2.694   3.593   6.450 -0.8207 -0.1766  0.3060
  220MOL0     H29646   2.853   3.595   6.362  0.0145  0.9418 -0.7358
  220MOL0     H29647   2.646   3.825   6.389  0.3812  1.0203  0.2640
  220MOL0     H29648   2.808   3.826   6.311  1.3237 -2.0026  1.0480
  220MOL0     H29649   2.770   3.917   6.557 -0.6293  0.6581  0.8821
  220MOL0     H29650   2.784   3.743   6.590 -0.3449 -1.4535 -2.1531
  220MOL0     H29651   2.978   4.041   6.401  0.7973 -1.2110 -0.9374
  220MOL0     H29652   3.227   4.164   6.477  1.1653  0.4386  0.2759
  220MOL0     H29653   3.301   4.076   6.598  0.2475  3.4117 -0.8868
  220MOL0     H29654   3.404   3.928   6.442 -0.5323 -0.8436 -1.4653
  220MOL0     H29655   3.295   4.001   6.307 -0.7147  0.4826  0.2718
  220MOL0     H29656   3.520   4.058   6.261  0.4213 -1.8820  0.7044
  220MOL0     H29657   3.537   4.113   6.431  0.2658 -0.4700 -1.1054
  220MOL0     H29658   3.347   4.283   6.377 -2.1062 -1.2254 -0.9059
  220MOL0     H29659   3.374   4.233   6.203  0.2364  1.5584 -0.7901
  220MOL0     H29660   3.534   4.290   6.033  1.4771  2.6905 -3.0116
  220MOL0     H29661   3.747   4.217   5.934 -2.0230 -0.4638  0.6570
  220MOL0     H29662   4.356   4.191   6.207 -0.7625  0.1565 -0.4666
  220MOL0     H29663   4.553   4.084   6.118  0.6565  0.5772 -1.0756
  220MOL0     H29664   4.615   4.123   5.829 -1.1389  1.1793  2.5714
  220MOL0     H29665   4.719   4.060   5.954 -3.4435 -1.0318  3.1156
  220MOL0     H29666   4.854   4.008   5.760 -0.1753  1.3246 -1.0450
  220MOL0     H29667   4.779   3.859   5.792  1.2979 -0.6289  0.9387
  220MOL0     H29668   4.583   3.901   5.646  0.6810 -1.3284  1.3263
  220MOL0     H29669   4.663   4.043   5.584  1.0010  0.2088  0.7407
  220MOL0     H29670   4.844   3.819   5.575  0.3034  1.0836  1.0398
  220MOL0     H29671   4.814   3.926   5.444  0.3394 -1.9157 -1.1713
  220MOL0     H29672   4.593   3.815   5.400 -0.5272 -0.4106  0.1457
  220MOL0     H29673   4.651   3.685   5.502 -0.8027 -0.3927 -0.2420
  220MOL0     H29674   4.807   3.798   5.256  1.1045  0.2548  0.2553
  220MOL0     H29675   4.873   3.686   5.375  0.4310  0.8602  1.0868
  220MOL0     H29676   4.697   3.515   5.285 -0.6965 -0.2691 -0.1474
  220MOL0     H29677   4.815   3.567   5.168  0.5624  2.5581 -1.4075
  220MOL0     H29678   4.526   3.689   5.191  1.4652  1.1984  1.2368
  220MOL0     H29679   4.654   3.740   5.088 -0.2488  0.8550  1.4860
  220MOL0     H29680   4.327   3.890   5.825 -1.2174  0.7213 -0.7646
  220MOL0     H29681   4.121   3.988   5.910  2.0439 -0.9744 -2.9715
  220MOL0     H29682   3.966   4.299   6.295  0.3596 -0.5748 -1.0748
  220MOL0     H29683   3.759   4.372   6.394 -0.8328  1.1420 -0.3654
  220MOL0     H29684   2.242   3.114   6.004  0.4379  1.6225  0.3184
  220MOL0     H29685   2.003   3.115   6.061  0.4825 -1.0398 -1.3410
  220MOL0     H29686   1.705   3.030   6.577  0.5162 -0.9157 -0.7963
  220MOL0     H29687   1.494   2.928   6.584  1.9219 -2.1373 -1.6052
  220MOL0     H29688   1.219   3.055   6.225 -0.6510  2.3394  0.1591
  220MOL0     H29689   1.141   3.138   6.357 -0.9473 -0.1800 -0.4525
  220MOL0     H29690   1.042   2.937   6.446  1.9368  0.1143  1.1194
  220MOL0     H29691   1.127   2.832   6.332  0.5021  0.4164  1.0059
  220MOL0     H29692   1.023   2.894   6.141 -0.5042 -2.1174  0.5280
  220MOL0     H29693   0.967   3.052   6.197 -0.2537 -2.1652 -4.1270
  220MOL0     H29694   0.791   2.887   6.154  2.0529 -2.0292 -2.6138
  220MOL0     H29695   0.838   2.798   6.294  1.1008  0.1793  0.0195
  220MOL0     H29696   0.660   3.131   6.479  1.3668  0.0754  1.4970
  220MOL0     H29697   1.392   3.168   6.237  1.4089  1.6342 -0.3179
  220MOL0     H29698   1.542   3.307   6.141  0.3364  0.3490 -0.1766
  220MOL0     H29699   1.641   3.388   6.268 -0.2299  0.1283  0.5917
  220MOL0     H29700   1.720   3.274   6.146  2.4284  1.6557  2.3410
  221MOL0     O29701   1.978   2.936   8.871  0.2692 -0.1177  0.8216
  221MOL0     C29702   1.997   3.057   8.875 -0.4286 -0.2594  0.1316
  221MOL0     O29703   2.112   3.117   8.926 -0.2155  0.1343  0.1057
  221MOL0     C29704   2.209   3.027   8.953 -0.4690  0.2893  0.2099
  221MOL0     C29705   2.289   2.982   8.855 -0.3383  0.7504 -0.0465
  221MOL0     C29706   2.386   2.887   8.889 -0.0510 -0.1367 -0.6565
  221MOL0     C29707   2.406   2.850   9.023 -0.1742  0.1311  0.1354
  221MOL0     O29708   2.517   2.765   9.037  0.3095  0.4559  0.3622
  221MOL0     C29709   2.536   2.692   9.163 -0.0873  0.0675  0.7044
  221MOL0     C29710   2.623   2.567   9.150 -0.2617  0.1391 -0.0614
  221MOL0     C29711   2.765   2.586   9.100  0.1637  0.0391 -0.7760
  221MOL0     C29712   2.831   2.455   9.062 -0.2898  0.3582 -0.5244
  221MOL0     C29713   2.979   2.479   9.037  0.2180 -0.0023 -1.1489
  221MOL0     C29714   3.054   2.340   9.047  0.3956  0.6451 -0.4299
  221MOL0     C29715   3.206   2.352   9.009 -0.2958  0.3331 -0.0660
  221MOL0     C29716   3.273   2.215   9.024 -0.6629  0.2756  0.0187
  221MOL0     N29717   3.412   2.203   8.978 -0.3142 -0.2662 -0.2400
  221MOL0     C29718   3.474   2.097   8.917  0.1949 -0.5971 -0.1440
  221MOL0     C29719   3.605   2.130   8.915  0.6739  0.0037 -0.7183
  221MOL0     C29720   3.708   2.032   8.867  0.0546  0.3233 -0.0649
  221MOL0     C29721   3.764   2.067   8.726  0.3208  0.1982  0.4500
  221MOL0     C29722   3.680   2.009   8.617  0.1211  0.1782  0.4527
  221MOL0     C29723   3.551   2.089   8.575 -0.4513  0.4519 -1.4384
  221MOL0     O29724   3.527   2.102   8.435 -0.2753  0.0293 -0.3361
  221MOL0     C29725   3.559   2.219   8.373  0.0870 -0.1438 -0.4466
  221MOL0     C29726   3.465   2.269   8.282  0.4479 -0.3887  0.0035
  221MOL0     C29727   3.497   2.390   8.208  0.2165  0.0801 -0.0978
  221MOL0     C29728   3.617   2.449   8.221 -0.6974 -0.4665 -0.1677
  221MOL0     C29729   3.667   2.559   8.130  0.1117  0.3631  0.3124
  221MOL0     O29730   3.793   2.597   8.152  0.5951  0.8542 -0.3646
  221MOL0     C29731   3.841   2.706   8.091  0.7152  0.3018  0.0919
  221MOL0     C29732   3.766   2.808   8.027  0.3284 -0.7304 -0.4872
  221MOL0     C29733   3.835   2.882   7.923 -0.1622  0.4600 -0.6532
  221MOL0     C29734   3.969   2.876   7.901 -0.9276  0.4556 -0.0298
  221MOL0     O29735   4.035   2.968   7.820  0.3993  0.5062  0.1474
  221MOL0     C29736   4.048   3.091   7.883 -0.2421 -0.1029  0.0565
  221MOL0     C29737   4.181   3.161   7.849  0.0776  0.2799  0.0463
  221MOL0     C29738   4.179   3.308   7.895  0.2228 -0.3623  0.0727
  221MOL0     C29739   4.304   3.377   7.845  0.4902 -0.1041 -0.7981
  221MOL0     C29740   4.311   3.517   7.915  0.2500  0.4997  0.0740
  221MOL0     C29741   4.446   3.592   7.888  0.8994  0.2597 -0.7654
  221MOL0     C29742   4.463   3.724   7.960 -0.3136 -0.1999  1.5615
  221MOL0     C29743   4.383   3.838   7.907  0.4671 -0.1527  0.4520
  221MOL0    Cl29744   4.481   3.917   7.777  0.4151  0.1775 -0.5562
  221MOL0     C29745   4.052   2.786   7.980 -0.2507 -0.0552 -0.0666
  221MOL0     C29746   3.980   2.704   8.064 -0.0546  0.1556 -1.1382
  221MOL0     O29747   3.596   2.594   8.035  0.0215 -0.0206  0.4541
  221MOL0     C29748   3.705   2.403   8.325 -0.1010  0.1186  0.3163
  221MOL0     C29749   3.686   2.282   8.389  0.6298  0.6629 -0.6175
  221MOL0     N29750   3.616   2.259   8.959 -0.2287 -0.4009 -0.1551
  221MOL0     N29751   3.498   2.307   8.988 -0.4000 -0.4214  0.1101
  221MOL0     C29752   2.329   2.908   9.130 -0.4629 -0.5111  0.1260
  221MOL0     C29753   2.227   2.993   9.088  0.2042  0.2027  0.9520
  221MOL0     C29754   1.890   3.149   8.820 -0.3465 -0.1289 -0.2743
  221MOL0     C29755   1.763   3.097   8.828 -0.8863 -0.6588  0.2395
  221MOL0     C29756   1.656   3.176   8.790 -0.2537  0.0850  0.0476
  221MOL0     C29757   1.673   3.309   8.744 -0.0329 -0.7989 -0.0557
  221MOL0     O29758   1.555   3.388   8.737 -0.2474  0.1343  0.7845
  221MOL0     C29759   1.576   3.510   8.660 -0.3175 -0.1902 -0.3293
  221MOL0     C29760   1.452   3.588   8.663 -0.0418  0.3902  0.5081
  221MOL0     C29761   1.442   3.699   8.555 -0.9542  0.7104  0.2339
  221MOL0     C29762   1.548   3.811   8.550  1.0303 -0.0766 -1.0497
  221MOL0     C29763   1.546   3.887   8.675  0.2588  0.6455 -1.0028
  221MOL0     C29764   1.547   3.968   8.770  0.2691  0.7920  0.3409
  221MOL0     C29765   1.804   3.359   8.726  0.9158  0.2658  0.3737
  221MOL0     C29766   1.912   3.280   8.767  0.1518 -0.2319  0.3808
  221MOL0     C29767   2.047   3.350   8.747  0.1697  0.1516 -0.3909
  221MOL0     H29768   2.277   3.004   8.749  0.7379 -1.3093 -0.6566
  221MOL0     H29769   2.455   2.846   8.817 -0.8361 -1.3445 -0.7419
  221MOL0     H29770   2.589   2.757   9.233 -0.2081  0.6615  0.2571
  221MOL0     H29771   2.437   2.669   9.204  0.2733 -0.4371  1.2997
  221MOL0     H29772   2.573   2.500   9.079  1.0055 -2.0111  0.9873
  221MOL0     H29773   2.628   2.516   9.246 -0.8401  3.9407  2.1763
  221MOL0     H29774   2.827   2.641   9.172  1.5019 -1.2584 -0.8968
  221MOL0     H29775   2.757   2.653   9.014 -0.2690 -0.1480 -0.8862
  221MOL0     H29776   2.830   2.394   9.153  2.3322 -0.8993 -1.2368
  221MOL0     H29777   2.792   2.400   8.976  0.0994 -1.7387  0.5602
  221MOL0     H29778   2.994   2.525   8.939 -0.3176 -1.1591 -1.7923
  221MOL0     H29779   3.026   2.545   9.111  0.1352  0.9406 -1.9133
  221MOL0     H29780   3.049   2.298   9.148  1.8068  1.3642 -0.0345
  221MOL0     H29781   3.008   2.268   8.979 -0.6163 -0.4522  1.3348
  221MOL0     H29782   3.257   2.417   9.081  1.2470 -2.8450  1.9766
  221MOL0     H29783   3.206   2.388   8.906  0.7774  0.8037  0.0798
  221MOL0     H29784   3.275   2.200   9.132  0.0850 -2.3452 -0.2763
  221MOL0     H29785   3.208   2.150   8.965  1.8489  1.7984 -4.9557
  221MOL0     H29786   3.430   2.004   8.882 -0.8794  0.3209 -1.2932
  221MOL0     H29787   3.791   2.034   8.938 -2.0435 -1.3344  2.6245
  221MOL0     H29788   3.680   1.926   8.859 -2.6695  1.0069 -0.4447
  221MOL0     H29789   3.789   2.172   8.705  0.4619  0.7061  2.8955
  221MOL0     H29790   3.858   2.013   8.713  0.3169  0.5275 -1.1797
  221MOL0     H29791   3.648   1.907   8.640 -1.1061  0.7358  1.3972
  221MOL0     H29792   3.745   2.000   8.530  1.0651 -1.2467  1.2660
  221MOL0     H29793   3.561   2.189   8.618  2.8793 -0.7800  1.0879
  221MOL0     H29794   3.467   2.042   8.626  1.4902 -1.3272  0.3050
  221MOL0     H29795   3.368   2.225   8.264  0.2852 -1.3607  2.7044
  221MOL0     H29796   3.434   2.422   8.125  1.3479  0.2242 -0.9346
  221MOL0     H29797   3.661   2.826   8.047  0.4212  0.8607 -1.3252
  221MOL0     H29798   3.781   2.960   7.869  0.6619  0.2356 -1.8251
  221MOL0     H29799   3.973   3.163   7.848  1.3806  2.8058  2.1649
  221MOL0     H29800   4.054   3.071   7.991  1.6447  0.5567  0.1070
  221MOL0     H29801   4.261   3.105   7.898  0.6593 -0.0344 -1.2367
  221MOL0     H29802   4.211   3.151   7.744  2.2807  1.9789  0.4546
  221MOL0     H29803   4.092   3.346   7.840 -0.8615 -2.3504  0.3441
  221MOL0     H29804   4.159   3.309   8.002  0.1611 -0.8963  0.0682
  221MOL0     H29805   4.304   3.396   7.737 -1.4236 -0.9876 -0.9915
  221MOL0     H29806   4.387   3.318   7.885 -0.6176  0.9262  3.6298
  221MOL0     H29807   4.322   3.497   8.022  2.4510 -0.5629 -0.2850
  221MOL0     H29808   4.226   3.575   7.878  0.9492  0.8286 -1.0541
  221MOL0     H29809   4.528   3.525   7.915  0.4000  1.3356  4.6634
  221MOL0     H29810   4.455   3.619   7.783  1.6289  4.6336  0.2031
  221MOL0     H29811   4.567   3.756   7.952 -0.6588  0.4844 -1.1560
  221MOL0     H29812   4.446   3.718   8.068 -2.7833  2.7727  1.4798
  221MOL0     H29813   4.290   3.805   7.860  0.5914 -0.4340  0.4024
  221MOL0     H29814   4.358   3.917   7.979 -1.1901  1.0198 -1.2932
  221MOL0     H29815   4.159   2.768   7.976 -0.1489  0.6541 -1.5661
  221MOL0     H29816   4.031   2.622   8.114 -1.8910 -1.0111 -1.0741
  221MOL0     H29817   3.794   2.460   8.350  0.7318 -1.2187  0.5097
  221MOL0     H29818   3.761   2.247   8.459 -0.1465 -1.1635 -0.6476
  221MOL0     H29819   2.348   2.876   9.232 -0.5284 -0.2495  0.2214
  221MOL0     H29820   2.147   3.031   9.151 -0.1931  0.4611  0.3171
  221MOL0     H29821   1.755   2.996   8.868 -1.3167 -0.3492  0.9487
  221MOL0     H29822   1.558   3.131   8.803 -0.7678  0.9635 -0.6429
  221MOL0     H29823   1.601   3.493   8.554 -2.4584 -2.3490 -0.5779
  221MOL0     H29824   1.647   3.576   8.709 -1.9166  0.8818  0.6523
  221MOL0     H29825   1.451   3.644   8.758  1.2692  1.9579 -0.3401
  221MOL0     H29826   1.365   3.523   8.658 -1.4298  2.2380 -3.1499
  221MOL0     H29827   1.344   3.747   8.570 -1.5020  0.8149 -2.9117
  221MOL0     H29828   1.437   3.653   8.456 -1.5197  0.9931  0.1237
  221MOL0     H29829   1.645   3.768   8.522  0.1232 -1.3207 -2.4973
  221MOL0     H29830   1.529   3.880   8.467  0.8119 -0.6994 -1.5275
  221MOL0     H29831   1.543   4.029   8.858 -0.6971 -0.4744  1.2252
  221MOL0     H29832   1.833   3.450   8.675 -1.0512  2.1055  2.3586
  221MOL0     H29833   2.081   3.390   8.843 -4.0050  0.3773  1.1924
  221MOL0     H29834   2.123   3.282   8.706  0.4125 -0.5201  1.0847
  221MOL0     H29835   2.036   3.430   8.674  1.2265  2.4567  1.8266
  222MOL0     O29836   3.928   5.530   0.950  0.0961 -0.4314  0.3614
  222MOL0     C29837   3.844   5.598   0.883  0.6631  0.5981 -0.3828
  222MOL0     O29838   3.858   5.721   0.844 -0.5521  0.2513 -0.1972
  222MOL0     C29839   3.974   5.791   0.877  0.3176  0.2315  0.6299
  222MOL0     C29840   4.078   5.778   0.792  0.5807  0.5719 -0.3022
  222MOL0     C29841   4.198   5.852   0.822  0.2636  0.2165 -0.3821
  222MOL0     C29842   4.202   5.927   0.937  0.7318 -0.1729 -0.9266
  222MOL0     O29843   4.326   5.996   0.962  0.1243 -0.0891  0.2312
  222MOL0     C29844   4.355   6.044   1.092 -0.5686 -0.2136 -0.4313
  222MOL0     C29845   4.482   6.132   1.095 -0.7057 -0.4334  0.2927
  222MOL0     C29846   4.478   6.271   1.024  0.5620  0.5411  0.8632
  222MOL0     C29847   4.607   6.341   1.039 -0.2812  0.6217  0.6849
  222MOL0     C29848   4.592   6.488   0.995  0.6978  0.0026 -0.0090
  222MOL0     C29849   4.731   6.550   0.987  0.1541 -1.0042  0.0384
  222MOL0     C29850   4.744   6.686   0.908 -0.0049  0.1063  0.3680
  222MOL0     C29851   4.877   6.759   0.921 -0.5383 -0.1778 -0.8212
  222MOL0     N29852   4.988   6.675   0.879 -0.4196  0.1799  0.1134
  222MOL0     C29853   5.056   6.596   0.970  0.4860  0.5860 -0.2923
  222MOL0     C29854   5.158   6.543   0.901  0.5079 -0.1306  0.4081
  222MOL0     C29855   5.274   6.447   0.937 -0.2752  0.0350 -0.2792
  222MOL0     C29856   5.412   6.522   0.945 -0.1233 -0.1250 -0.4640
  222MOL0     C29857   5.501   6.462   1.055 -0.3200 -0.2450 -0.9921
  222MOL0     C29858   5.559   6.330   1.023  0.9127  0.2027 -0.1860
  222MOL0     O29859   5.625   6.280   1.140  0.1347 -0.7323  0.3622
  222MOL0     C29860   5.745   6.338   1.179 -0.0261 -0.3207 -0.5425
  222MOL0     C29861   5.793   6.300   1.303  1.4722  0.5990  1.0069
  222MOL0     C29862   5.910   6.347   1.353 -0.0982  0.1275  0.1002
  222MOL0     C29863   5.992   6.430   1.270  0.1830 -0.2762 -0.0201
  222MOL0     C29864   6.126   6.482   1.311 -0.3750 -0.2134 -0.2341
  222MOL0     O29865   6.195   6.422   1.411 -0.0894 -0.1026  0.1131
  222MOL0     C29866   6.316   6.473   1.442  0.1238  0.6642 -0.3028
  222MOL0     C29867   6.331   6.605   1.479  0.8116  1.3312 -0.0476
  222MOL0     C29868   6.450   6.653   1.531  0.3761  0.0638  0.0618
  222MOL0     C29869   6.560   6.576   1.562 -0.7050  0.3902 -0.1228
  222MOL0     O29870   6.669   6.636   1.622  0.4895  1.0410 -0.2483
  222MOL0     C29871   6.786   6.556   1.651 -1.0506 -0.0294  0.0686
  222MOL0     C29872   6.911   6.640   1.654  0.0037  0.7859  0.3566
  222MOL0     C29873   6.953   6.683   1.509 -1.0284 -1.0618 -0.8164
  222MOL0     C29874   7.068   6.785   1.513  0.0943 -0.0972 -0.0885
  222MOL0     C29875   7.201   6.717   1.557 -0.5166 -1.1338  0.0892
  222MOL0     C29876   7.324   6.789   1.509 -0.6943  0.2568 -1.5764
  222MOL0     C29877   7.448   6.693   1.541 -0.4659 -0.1259  0.4916
  222MOL0     C29878   7.583   6.761   1.517 -0.3840  0.0923  0.0846
  222MOL0    Cl29879   7.613   6.803   1.345 -0.3137 -0.1909 -0.3500
  222MOL0     C29880   6.542   6.441   1.529  0.1400  0.6453  0.0371
  222MOL0     C29881   6.423   6.393   1.471  0.1768 -0.0995  0.1904
  222MOL0     O29882   6.160   6.584   1.251 -0.0174  0.2052  0.3500
  222MOL0     C29883   5.942   6.468   1.147  0.4656  0.6547 -0.2855
  222MOL0     C29884   5.828   6.409   1.098 -0.5669 -1.1619  0.2465
  222MOL0     N29885   5.164   6.618   0.780 -0.0230  0.5617 -0.5899
  222MOL0     N29886   5.061   6.692   0.770 -0.6293  0.2065 -0.1681
  222MOL0     C29887   4.088   5.932   1.023  0.7283  0.4009 -0.2238
  222MOL0     C29888   3.975   5.848   0.995  0.3026 -0.5636  0.0307
  222MOL0     C29889   3.715   5.527   0.842  0.4498 -0.1232  0.1542
  222MOL0     C29890   3.648   5.452   0.938 -0.8033 -0.6318 -0.0483
  222MOL0     C29891   3.532   5.387   0.904  1.0491 -0.6044 -0.4399
  222MOL0     C29892   3.483   5.373   0.775  0.6215 -0.4090  0.4639
  222MOL0     O29893   3.374   5.306   0.735  0.5717  0.6556 -0.4567
  222MOL0     C29894   3.291   5.229   0.830 -0.0637 -0.0475 -0.6148
  222MOL0     C29895   3.165   5.184   0.754  0.2765  0.4916  0.5285
  222MOL0     C29896   3.073   5.105   0.846 -0.2748 -1.3043 -0.5343
  222MOL0     C29897   2.966   5.030   0.769  0.4200 -0.0883 -0.2023
  222MOL0     C29898   2.884   4.959   0.870 -0.2257  0.8256  0.2813
  222MOL0     C29899   2.809   4.900   0.949 -0.3042 -0.7286  0.5472
  222MOL0     C29900   3.552   5.457   0.683 -0.5985 -0.3740  0.0111
  222MOL0     C29901   3.657   5.534   0.712 -0.2295  0.1272 -0.2605
  222MOL0     C29902   3.723   5.617   0.601  0.1057 -0.4985 -0.1728
  222MOL0     H29903   4.061   5.724   0.700 -1.7541  2.5517 -1.1458
  222MOL0     H29904   4.282   5.838   0.755  1.1918 -0.5606  0.8918
  222MOL0     H29905   4.266   6.102   1.118 -0.6229 -0.3017 -0.4182
  222MOL0     H29906   4.360   5.961   1.163 -1.4910  0.3239  0.2918
  222MOL0     H29907   4.564   6.065   1.066  1.1373  1.0602  1.7189
  222MOL0     H29908   4.512   6.148   1.199  0.0166  3.6129 -0.3482
  222MOL0     H29909   4.403   6.336   1.070  0.2737  1.1983 -0.4824
  222MOL0     H29910   4.451   6.258   0.919 -0.5037  1.6931  0.9748
  222MOL0     H29911   4.637   6.335   1.143 -0.2684  0.8112  0.6917
  222MOL0     H29912   4.685   6.290   0.982 -2.7647 -4.0281  0.9317
  222MOL0     H29913   4.550   6.495   0.894 -0.5046 -2.1269  0.2803
  222MOL0     H29914   4.517   6.541   1.054 -1.4534 -0.6865 -1.9651
  222MOL0     H29915   4.770   6.566   1.087 -1.2998 -1.1555  0.6600
  222MOL0     H29916   4.796   6.485   0.928  0.8031 -0.1628 -0.1915
  222MOL0     H29917   4.666   6.757   0.937  0.3028 -0.0957  1.7473
  222MOL0     H29918   4.725   6.665   0.802 -0.9529 -1.4011  0.7989
  222MOL0     H29919   4.879   6.862   0.884 -0.1249  0.8388  1.7923
  222MOL0     H29920   4.878   6.782   1.028 -2.8892  0.3302 -0.8585
  222MOL0     H29921   5.031   6.580   1.074  0.5783 -0.3109 -0.4018
  222MOL0     H29922   5.258   6.389   1.028  1.7473 -2.5715 -1.4789
  222MOL0     H29923   5.284   6.369   0.862  1.7799 -0.9186  0.8868
  222MOL0     H29924   5.462   6.515   0.848  0.1354  2.3418 -0.5758
  222MOL0     H29925   5.401   6.630   0.956  2.1381  0.0682  0.5111
  222MOL0     H29926   5.442   6.457   1.147 -1.5957 -0.6226 -1.8087
  222MOL0     H29927   5.584   6.530   1.075  0.5211 -1.3316 -0.6474
  222MOL0     H29928   5.625   6.333   0.936  0.0685  3.2212 -0.8312
  222MOL0     H29929   5.475   6.262   1.004  0.6199  0.8300 -1.2226
  222MOL0     H29930   5.724   6.235   1.356  0.4220  0.8226 -0.0203
  222MOL0     H29931   5.932   6.310   1.453 -1.0872 -0.2124  0.2040
  222MOL0     H29932   6.258   6.685   1.472  2.1301  2.6047  0.4591
  222MOL0     H29933   6.438   6.759   1.550 -1.1134  0.2177 -1.5573
  222MOL0     H29934   6.782   6.509   1.750  0.6109 -0.0129  0.1712
  222MOL0     H29935   6.795   6.483   1.570 -0.4779  1.9214 -1.6802
  222MOL0     H29936   6.903   6.722   1.726 -0.7151 -0.1517  1.3768
  222MOL0     H29937   6.985   6.569   1.690 -0.5825 -0.5572 -0.9723
  222MOL0     H29938   6.985   6.591   1.459  0.0933 -0.9448 -0.3350
  222MOL0     H29939   6.877   6.732   1.447 -0.4471  0.8620 -0.0987
  222MOL0     H29940   7.033   6.857   1.588 -0.4444 -0.4765  0.0285
  222MOL0     H29941   7.080   6.835   1.417 -4.6587 -1.1208 -1.5004
  222MOL0     H29942   7.204   6.621   1.505 -0.6290 -2.4137  2.3026
  222MOL0     H29943   7.215   6.703   1.665 -0.7206  0.1350  0.2917
  222MOL0     H29944   7.328   6.800   1.400  2.0431  1.6975 -1.4169
  222MOL0     H29945   7.325   6.888   1.554 -0.6427  0.4939 -2.0901
  222MOL0     H29946   7.448   6.604   1.478  2.7787  0.4686 -0.4977
  222MOL0     H29947   7.434   6.664   1.646 -0.3877 -0.6167  0.3702
  222MOL0     H29948   7.578   6.846   1.586  0.6437 -0.3070  0.6793
  222MOL0     H29949   7.668   6.700   1.550  1.2948  1.2816 -1.8279
  222MOL0     H29950   6.627   6.376   1.542  3.2905  4.4156 -0.0560
  222MOL0     H29951   6.411   6.287   1.451  0.9362  0.0776 -1.3569
  222MOL0     H29952   5.981   6.553   1.091 -0.4506  0.3657 -1.4252
  222MOL0     H29953   5.789   6.436   1.000 -0.7956  0.3889  0.7531
  222MOL0     H29954   4.082   5.991   1.114 -0.7377  3.0100 -1.9154
  222MOL0     H29955   3.896   5.847   1.070 -1.1352  1.4751 -1.3382
  222MOL0     H29956   3.674   5.452   1.043  2.2944 -2.4448 -0.6886
  222MOL0     H29957   3.473   5.355   0.990  2.5934 -1.1031  0.4896
  222MOL0     H29958   3.263   5.294   0.913  0.2045  2.9074 -2.6771
  222MOL0     H29959   3.356   5.148   0.864  1.1645  1.2786  0.2839
  222MOL0     H29960   3.194   5.122   0.669  1.0040  1.2474  0.2042
  222MOL0     H29961   3.110   5.271   0.718  0.1980  0.7342  1.2141
  222MOL0     H29962   3.023   5.171   0.916 -1.2523 -0.1696 -2.2234
  222MOL0     H29963   3.137   5.034   0.900 -1.2817  0.4912  3.3584
  222MOL0     H29964   2.909   5.105   0.712  2.3709  0.6764 -1.2399
  222MOL0     H29965   3.009   4.954   0.704 -0.5388 -0.4559 -0.4324
  222MOL0     H29966   2.755   4.850   1.026 -0.3367  0.5623  1.4059
  222MOL0     H29967   3.521   5.455   0.579  1.8185 -1.7105 -0.7641
  222MOL0     H29968   3.732   5.717   0.645 -1.8461 -1.1638  1.8970
  222MOL0     H29969   3.815   5.575   0.560 -2.1910 -5.0458 -1.2145
  222MOL0     H29970   3.659   5.619   0.513  1.7263  1.1811 -1.4186
  223MOL0     O29971  11.129   1.907   3.481 -1.0026  0.0358  0.1033
  223MOL0     C29972  11.144   1.901   3.606  0.4793 -0.4932 -0.3540
  223MOL0     O29973  11.212   1.990   3.677 -0.1399 -0.0828  0.7336
  223MOL0     C29974  11.314   2.064   3.624 -0.0166 -0.6976  0.2673
  223MOL0     C29975  11.333   2.191   3.684 -0.5532 -0.4454 -0.1481
  223MOL0     C29976  11.425   2.279   3.641  0.2574 -0.1087 -0.0821
  223MOL0     C29977  11.524   2.247   3.544 -0.2065 -0.3116  0.1563
  223MOL0     O29978  11.628   2.333   3.519 -0.4663  0.2616 -0.5629
  223MOL0     C29979  11.586   2.473   3.511  0.6172  0.3746  0.0365
  223MOL0     C29980  11.698   2.539   3.438 -0.2157  0.3650  0.1590
  223MOL0     C29981  11.679   2.688   3.425  0.0211  0.1632 -0.7218
  223MOL0     C29982  11.701   2.743   3.567 -0.6896 -1.5293  0.5895
  223MOL0     C29983  11.772   2.886   3.564 -0.0707  0.0656 -0.8341
  223MOL0     C29984  11.679   2.999   3.508 -0.2867 -0.5502  0.0839
  223MOL0     C29985  11.754   3.137   3.544  0.0860 -0.0896  0.0362
  223MOL0     C29986  11.882   3.180   3.469 -0.9211 -0.0629 -0.1961
  223MOL0     N29987  11.933   3.315   3.515 -0.4765  0.0552 -0.0419
  223MOL0     C29988  12.037   3.376   3.456 -0.9307 -0.2671 -0.2851
  223MOL0     C29989  12.058   3.483   3.530 -0.0320 -0.9572 -0.0117
  223MOL0     C29990  12.173   3.581   3.504 -0.0491  0.5862 -0.0396
  223MOL0     C29991  12.216   3.663   3.624 -0.3883  0.1322 -0.2819
  223MOL0     C29992  12.270   3.586   3.739  0.2020 -0.1754 -0.1288
  223MOL0     C29993  12.329   3.678   3.849  0.4141 -0.5641  0.0816
  223MOL0     O29994  12.390   3.592   3.950 -0.6625 -0.0569  0.2386
  223MOL0     C29995  12.533   3.586   3.943  0.2954 -0.6813 -0.9861
  223MOL0     C29996  12.593   3.638   4.055  0.1907  1.1190 -0.6362
  223MOL0     C29997  12.733   3.630   4.081 -0.2143  0.5607  0.8761
  223MOL0     C29998  12.814   3.569   3.984  0.2315 -0.9058  0.4021
  223MOL0     C29999  12.958   3.570   3.996 -0.0272 -0.1426 -0.2863
  223MOL0     O30000  13.043   3.547   3.890  0.0101  0.1365  0.4368
  223MOL0     C30001  13.181   3.573   3.892  0.2694 -0.7253 -0.0769
  223MOL0     C30002  13.239   3.688   3.940  0.8145 -0.2950 -0.3695
  223MOL0     C30003  13.372   3.728   3.915  0.3698  0.3911 -0.6900
  223MOL0     C30004  13.451   3.638   3.849 -0.6214  0.2423  0.6576
  223MOL0     O30005  13.581   3.673   3.831 -0.1710 -0.6263 -0.5277
  223MOL0     C30006  13.694   3.586   3.855  0.2989  0.4247 -0.4316
  223MOL0     C30007  13.758   3.540   3.729 -0.0833 -0.4919  0.3834
  223MOL0     C30008  13.826   3.664   3.659  0.4492  0.2947  0.4152
  223MOL0     C30009  13.959   3.622   3.593 -0.5602  0.1785  0.4635
  223MOL0     C30010  14.004   3.729   3.487  0.2296 -0.5839  0.1056
  223MOL0     C30011  14.129   3.686   3.418 -0.6051  0.5134  0.0410
  223MOL0     C30012  14.255   3.694   3.500 -0.2388 -0.2719  0.0695
  223MOL0     C30013  14.387   3.661   3.432  0.1894 -0.0701  0.5684
  223MOL0    Cl30014  14.406   3.483   3.410 -0.3634 -0.1241 -0.3226
  223MOL0     C30015  13.403   3.523   3.788  0.0133 -0.1116 -0.8742
  223MOL0     C30016  13.267   3.488   3.811 -0.6020 -0.3917  0.4073
  223MOL0     O30017  13.002   3.599   4.110 -0.9161 -0.1536  0.1739
  223MOL0     C30018  12.748   3.516   3.865 -0.5097  0.8036 -0.3861
  223MOL0     C30019  12.610   3.520   3.848 -0.2350 -0.2241  0.3883
  223MOL0     N30020  11.967   3.484   3.636  0.2823 -0.0358 -0.3478
  223MOL0     N30021  11.885   3.383   3.624 -0.1903  0.1514  0.0500
  223MOL0     C30022  11.513   2.123   3.483 -0.3221 -1.2437 -0.2721
  223MOL0     C30023  11.409   2.030   3.520  0.8710 -0.5703  0.3651
  223MOL0     C30024  11.053   1.805   3.680 -0.0904 -0.8925 -0.4687
  223MOL0     C30025  11.027   1.837   3.815 -0.1261  0.1873  0.0718
  223MOL0     C30026  10.946   1.752   3.895 -0.7630  0.4395 -0.2729
  223MOL0     C30027  10.876   1.643   3.841 -0.3407 -0.5132 -0.1688
  223MOL0     O30028  10.785   1.572   3.903  0.6286  1.0536 -0.3233
  223MOL0     C30029  10.823   1.535   4.042  0.5043 -0.1126  1.1166
  223MOL0     C30030  10.720   1.440   4.095 -0.2230 -0.5247 -0.6231
  223MOL0     C30031  10.582   1.508   4.093  0.1096 -0.0142  0.2546
  223MOL0     C30032  10.463   1.414   4.137  0.3675  0.6954  0.7885
  223MOL0     C30033  10.438   1.300   4.048 -0.3868 -0.0463  0.6276
  223MOL0     C30034  10.430   1.202   3.979 -0.7386 -0.0387  0.4998
  223MOL0     C30035  10.906   1.616   3.714 -0.7292 -0.1517 -0.1204
  223MOL0     C30036  10.992   1.690   3.629  1.1678  0.4538 -1.0760
  223MOL0     C30037  11.020   1.642   3.485 -0.8301  0.5360 -0.4023
  223MOL0     H30038  11.265   2.207   3.767  0.3935  0.6401  0.4545
  223MOL0     H30039  11.414   2.371   3.697 -0.3824  0.0709 -0.4858
  223MOL0     H30040  11.502   2.490   3.443 -0.2014  0.4329  1.0409
  223MOL0     H30041  11.565   2.508   3.612 -0.9368  0.0173 -0.1257
  223MOL0     H30042  11.719   2.497   3.340  2.0547 -1.7728  1.4688
  223MOL0     H30043  11.791   2.516   3.490 -0.5320  0.7600  0.9208
  223MOL0     H30044  11.586   2.723   3.379  0.8044  1.7715 -1.1599
  223MOL0     H30045  11.766   2.718   3.365 -0.4098  0.5420 -1.1607
  223MOL0     H30046  11.612   2.761   3.627 -0.2840  0.0615  0.7626
  223MOL0     H30047  11.771   2.683   3.627 -0.6194  0.7445  2.9614
  223MOL0     H30048  11.804   2.920   3.663 -1.1330  0.4405 -0.6069
  223MOL0     H30049  11.864   2.873   3.507  1.5273  1.0046  1.3493
  223MOL0     H30050  11.672   2.996   3.399  0.6378 -2.8683  0.0336
  223MOL0     H30051  11.581   2.996   3.557 -0.2275 -2.3573  0.1381
  223MOL0     H30052  11.773   3.145   3.651 -1.5905  0.8585  0.3060
  223MOL0     H30053  11.670   3.205   3.522 -1.6229 -0.9873  3.1270
  223MOL0     H30054  11.957   3.101   3.478 -0.7277  0.2675  1.6269
  223MOL0     H30055  11.859   3.191   3.363  0.9387  1.5529 -0.4650
  223MOL0     H30056  12.101   3.337   3.377  0.8173  0.9063  0.4959
  223MOL0     H30057  12.256   3.518   3.471 -2.7558 -2.4526 -1.5669
  223MOL0     H30058  12.136   3.651   3.428 -0.4434 -2.1600 -2.5747
  223MOL0     H30059  12.297   3.726   3.586 -1.0028  0.1004 -1.7587
  223MOL0     H30060  12.127   3.717   3.658 -0.5892 -1.2523  1.5397
  223MOL0     H30061  12.349   3.517   3.708  0.8937  0.5660 -0.0252
  223MOL0     H30062  12.182   3.532   3.776 -0.0397 -2.6640 -3.7472
  223MOL0     H30063  12.253   3.743   3.894 -0.4479 -2.0688  0.8475
  223MOL0     H30064  12.405   3.738   3.798  0.2626 -0.8769 -0.5243
  223MOL0     H30065  12.524   3.683   4.126  1.0323  0.7259  0.4674
  223MOL0     H30066  12.781   3.676   4.167  0.2692 -0.2136  1.0260
  223MOL0     H30067  13.174   3.759   3.990 -0.0846 -0.0041 -1.8965
  223MOL0     H30068  13.403   3.827   3.947 -0.3138  0.2626  0.4305
  223MOL0     H30069  13.762   3.645   3.917  0.8887  0.0300 -0.6964
  223MOL0     H30070  13.669   3.494   3.908  1.4602 -0.9851 -2.2229
  223MOL0     H30071  13.836   3.465   3.742  0.7588 -0.2159 -2.4480
  223MOL0     H30072  13.686   3.501   3.657 -0.7157 -0.1392  0.8146
  223MOL0     H30073  13.756   3.695   3.581  0.2193  2.0307  1.2608
  223MOL0     H30074  13.835   3.759   3.712  1.3748  0.4093  0.0733
  223MOL0     H30075  13.953   3.520   3.553  1.6361  0.4618 -0.7142
  223MOL0     H30076  14.031   3.618   3.675  0.3061  0.7471 -0.2398
  223MOL0     H30077  14.029   3.821   3.540  1.7472 -0.6479 -0.4327
  223MOL0     H30078  13.926   3.744   3.411  2.1419  2.1817 -1.4648
  223MOL0     H30079  14.122   3.582   3.382  0.1954  0.3623  0.3022
  223MOL0     H30080  14.135   3.741   3.324 -1.1522 -1.0026 -0.9269
  223MOL0     H30081  14.253   3.621   3.582  1.7804  0.5285  0.8981
  223MOL0     H30082  14.270   3.791   3.547  0.8307  0.7085 -2.1541
  223MOL0     H30083  14.379   3.711   3.335  1.0194 -2.1638 -0.6676
  223MOL0     H30084  14.477   3.693   3.485 -1.1734  3.2561  1.0841
  223MOL0     H30085  13.465   3.455   3.729 -0.6248 -0.5025 -1.1040
  223MOL0     H30086  13.219   3.399   3.770 -0.1626 -1.3434  1.8931
  223MOL0     H30087  12.810   3.485   3.781  1.0651 -0.3428  1.1281
  223MOL0     H30088  12.561   3.474   3.763  0.8884 -3.0982  1.2024
  223MOL0     H30089  11.591   2.104   3.410  0.0398 -0.5370 -0.0755
  223MOL0     H30090  11.399   1.933   3.471 -0.0315  0.8778 -2.4977
  223MOL0     H30091  11.063   1.929   3.860  0.9200  0.2830 -0.9404
  223MOL0     H30092  10.934   1.786   3.997 -0.1397 -0.3322  0.0631
  223MOL0     H30093  10.829   1.623   4.106  0.6807  2.4489 -2.1615
  223MOL0     H30094  10.920   1.485   4.037  0.3843 -0.3031  0.6729
  223MOL0     H30095  10.750   1.406   4.195  2.6195  1.9952 -0.4567
  223MOL0     H30096  10.719   1.349   4.033  0.9008 -0.9929  0.0029
  223MOL0     H30097  10.556   1.541   3.992 -1.6167 -0.9888  0.3373
  223MOL0     H30098  10.590   1.593   4.160  1.1275 -0.7439  1.0864
  223MOL0     H30099  10.489   1.375   4.236  0.0567 -0.7308  0.3386
  223MOL0     H30100  10.366   1.463   4.148 -1.0552 -1.3806 -1.4860
  223MOL0     H30101  10.431   1.119   3.910 -0.5568 -1.6780  2.3716
  223MOL0     H30102  10.862   1.524   3.677  1.0510 -0.7419 -0.8800
  223MOL0     H30103  10.965   1.707   3.416  0.2941  0.5540 -1.3062
  223MOL0     H30104  11.128   1.638   3.469 -0.9425 -2.0439 -0.8333
  223MOL0     H30105  10.982   1.542   3.466 -0.2373  0.2947 -0.3430
  224MOL0     O30106   4.080   7.110   9.900  0.4560 -0.1117  0.1302
  224MOL0     C30107   4.002   7.147   9.987 -0.1339 -0.1829 -0.0802
  224MOL0     O30108   4.026   7.151  10.117  0.2300  0.5953 -0.3109
  224MOL0     C30109   4.144   7.096  10.170 -0.2612 -0.1000  0.7543
  224MOL0     C30110   4.275   7.120  10.112 -0.0300 -0.4392  0.1887
  224MOL0     C30111   4.383   7.066  10.176 -0.6024  0.3695  0.0524
  224MOL0     C30112   4.372   6.986  10.286 -0.6819  0.8289 -0.9850
  224MOL0     O30113   4.492   6.970  10.354  0.3282  0.1393  0.8586
  224MOL0     C30114   4.484   6.906  10.488  0.2799  1.0055  0.2009
  224MOL0     C30115   4.612   6.938  10.562 -0.5788  0.0216  0.1875
  224MOL0     C30116   4.619   6.852  10.688  0.3980  0.6305  0.5437
  224MOL0     C30117   4.732   6.894  10.767 -0.4684  0.4235 -0.3704
  224MOL0     C30118   4.742   6.799  10.897  0.0931 -0.4021 -0.0069
  224MOL0     C30119   4.823   6.862  11.018 -0.5885  0.1153  0.4073
  224MOL0     C30120   4.869   6.763  11.123 -0.5999 -0.2641  1.0015
  224MOL0     C30121   4.982   6.823  11.211  0.2156 -0.3772  0.1707
  224MOL0     N30122   5.103   6.852  11.134  0.3269 -0.5309 -0.1913
  224MOL0     C30123   5.199   6.760  11.111 -0.2941  0.0787 -0.4519
  224MOL0     C30124   5.293   6.831  11.044  0.0810 -0.5900 -0.2205
  224MOL0     C30125   5.431   6.797  10.983  0.4362 -0.2697 -1.0977
  224MOL0     C30126   5.561   6.845  11.067 -0.2235 -0.7784 -0.1935
  224MOL0     C30127   5.588   6.767  11.198 -0.3169  0.6155  1.0049
  224MOL0     C30128   5.630   6.618  11.171 -0.2184  0.1098  0.0333
  224MOL0     O30129   5.750   6.610  11.080  0.3244  0.1400 -0.1729
  224MOL0     C30130   5.876   6.617  11.141  0.2252  0.6183 -0.4489
  224MOL0     C30131   5.982   6.643  11.061  0.1628 -0.3854  0.2156
  224MOL0     C30132   6.110   6.651  11.109 -0.3392  0.3116  0.3294
  224MOL0     C30133   6.129   6.635  11.249 -1.1750 -0.4503  0.6399
  224MOL0     C30134   6.270   6.641  11.303  0.1470  0.0104  0.3365
  224MOL0     O30135   6.382   6.626  11.221 -0.4486 -0.0039 -0.4389
  224MOL0     C30136   6.508   6.609  11.274 -0.4167 -0.0096  0.8955
  224MOL0     C30137   6.615   6.618  11.175 -0.0617  0.2112 -0.0583
  224MOL0     C30138   6.746   6.592  11.206  0.3862  0.0854 -0.3022
  224MOL0     C30139   6.779   6.553  11.338 -0.6067  0.1242 -0.2431
  224MOL0     O30140   6.908   6.533  11.375  0.6358 -0.3863 -0.2484
  224MOL0     C30141   6.935   6.391  11.386 -0.1059 -0.0982 -1.3689
  224MOL0     C30142   7.024   6.349  11.273  0.3406 -0.4533  0.6118
  224MOL0     C30143   7.168   6.406  11.295  0.4308 -0.0991  0.0392
  224MOL0     C30144   7.250   6.375  11.169 -0.3505  0.5256 -0.0624
  224MOL0     C30145   7.396   6.398  11.195 -0.3808 -0.0351 -0.2401
  224MOL0     C30146   7.476   6.363  11.071  0.2398  0.0205  0.4927
  224MOL0     C30147   7.624   6.415  11.075 -0.0756  0.3374  0.5348
  224MOL0     C30148   7.711   6.332  10.982  0.2950  0.2042  1.2392
  224MOL0    Cl30149   7.644   6.292  10.819  0.2207  0.0972  0.5734
  224MOL0     C30150   6.672   6.537  11.434 -0.0052 -0.2166 -0.4933
  224MOL0     C30151   6.544   6.568  11.405 -0.0699 -0.0339  0.7645
  224MOL0     O30152   6.272   6.665  11.419 -0.1258 -0.3514 -0.0630
  224MOL0     C30153   6.020   6.603  11.332 -0.2604 -0.3904  0.2871
  224MOL0     C30154   5.890   6.610  11.279 -0.4850  0.1350 -0.3360
  224MOL0     N30155   5.257   6.968  11.042  0.4666 -0.8458 -0.3613
  224MOL0     N30156   5.137   6.974  11.086 -0.0844 -0.4156  0.2101
  224MOL0     C30157   4.243   6.953  10.335 -0.6440  0.4263 -0.1184
  224MOL0     C30158   4.136   7.019  10.281  0.2003 -0.7629 -0.5517
  224MOL0     C30159   3.864   7.174   9.949  0.5117  0.0806  0.1884
  224MOL0     C30160   3.771   7.228  10.048  0.3142 -0.8980  0.2243
  224MOL0     C30161   3.637   7.261  10.021 -0.1308 -0.1955  0.0187
  224MOL0     C30162   3.588   7.236   9.897 -0.0128 -0.2168  0.3629
  224MOL0     O30163   3.462   7.285   9.852  0.0949  0.4129  0.0587
  224MOL0     C30164   3.416   7.408   9.908  0.6311 -0.1933 -0.0105
  224MOL0     C30165   3.337   7.494   9.801 -0.0868  0.9728 -0.5701
  224MOL0     C30166   3.284   7.619   9.856 -0.5824 -0.1122 -0.5190
  224MOL0     C30167   3.146   7.602   9.930 -0.0632 -0.3320  0.2524
  224MOL0     C30168   3.088   7.725   9.969  0.3949 -0.4418  0.0613
  224MOL0     C30169   3.056   7.836  10.011 -0.3508  0.6500 -0.5510
  224MOL0     C30170   3.666   7.178   9.798  0.1113 -0.0854 -1.5241
  224MOL0     C30171   3.796   7.139   9.826 -0.4108 -0.4733 -0.2065
  224MOL0     C30172   3.864   7.054   9.712 -0.7235  0.0977 -0.1884
  224MOL0     H30173   4.285   7.179  10.022 -0.7544 -1.0356 -0.2968
  224MOL0     H30174   4.478   7.107  10.144 -0.6518  0.0009 -0.5697
  224MOL0     H30175   4.411   6.943  10.560  0.5791  1.3469  0.3316
  224MOL0     H30176   4.477   6.798  10.478  2.6272  0.8470 -0.2704
  224MOL0     H30177   4.609   7.043  10.595 -2.9288  0.5951 -1.6335
  224MOL0     H30178   4.703   6.930  10.501 -0.3903  2.2597  0.1004
  224MOL0     H30179   4.618   6.746  10.662 -3.9385  0.8159 -0.9383
  224MOL0     H30180   4.531   6.875  10.749 -0.2926  1.4539 -0.7163
  224MOL0     H30181   4.824   6.884  10.708 -0.4640  0.6990 -0.4085
  224MOL0     H30182   4.718   6.997  10.799 -0.3902  0.5336 -0.6891
  224MOL0     H30183   4.639   6.787  10.933  0.0085  1.7587  0.6213
  224MOL0     H30184   4.792   6.707  10.863  1.1243  0.2082 -0.1760
  224MOL0     H30185   4.906   6.920  10.978  0.4835 -1.6898 -0.1107
  224MOL0     H30186   4.752   6.933  11.061 -2.4679 -1.4271 -0.0353
  224MOL0     H30187   4.904   6.670  11.078 -1.3321  0.1230 -0.4407
  224MOL0     H30188   4.794   6.740  11.199 -0.8219  0.4438  1.0063
  224MOL0     H30189   4.946   6.917  11.255 -0.6941 -0.9454  0.6628
  224MOL0     H30190   5.002   6.743  11.282 -3.9476 -3.6120 -1.8548
  224MOL0     H30191   5.189   6.653  11.124  4.1249 -0.4244  0.5388
  224MOL0     H30192   5.437   6.689  10.970  0.6556 -0.5778  1.1872
  224MOL0     H30193   5.449   6.839  10.883  1.8397  1.3120 -0.2483
  224MOL0     H30194   5.636   6.828  10.989 -0.3720 -1.2850 -0.2313
  224MOL0     H30195   5.552   6.951  11.090 -2.0589 -0.6368 -1.3251
  224MOL0     H30196   5.509   6.771  11.273  1.9836 -3.5823  4.0515
  224MOL0     H30197   5.675   6.814  11.245  0.4126  0.2358  0.0842
  224MOL0     H30198   5.542   6.565  11.134  0.1537 -0.4046 -0.1381
  224MOL0     H30199   5.644   6.562  11.264 -2.6279  2.8614  2.2492
  224MOL0     H30200   5.968   6.657  10.955 -2.1235  3.3948  0.8395
  224MOL0     H30201   6.195   6.676  11.046  0.6064  1.1077  1.8633
  224MOL0     H30202   6.593   6.651  11.074  0.7213 -2.5485 -1.2268
  224MOL0     H30203   6.829   6.607  11.138  0.7525  2.1782  0.5129
  224MOL0     H30204   6.990   6.375  11.479 -0.0120 -1.0592 -1.5757
  224MOL0     H30205   6.845   6.329  11.380 -0.8629  0.9597 -1.1625
  224MOL0     H30206   7.027   6.240  11.262  5.3396 -0.6942  1.9073
  224MOL0     H30207   6.972   6.397  11.190  1.6583  0.8456  0.5094
  224MOL0     H30208   7.167   6.513  11.315 -1.6232 -0.0820 -0.0380
  224MOL0     H30209   7.220   6.362  11.381  0.1237 -2.8340 -1.0733
  224MOL0     H30210   7.217   6.435  11.084 -1.5128 -2.6052 -1.9457
  224MOL0     H30211   7.238   6.271  11.139 -4.1551 -0.4412  3.7398
  224MOL0     H30212   7.429   6.333  11.276  1.3990 -0.4574 -1.2530
  224MOL0     H30213   7.409   6.501  11.231  1.8296  0.3618 -1.9413
  224MOL0     H30214   7.474   6.255  11.052 -0.1212 -0.2726  2.0352
  224MOL0     H30215   7.419   6.401  10.986 -0.6126 -0.3465  0.8866
  224MOL0     H30216   7.663   6.403  11.177  0.3690 -0.1132  0.3134
  224MOL0     H30217   7.627   6.521  11.048 -0.8471 -0.3970 -2.8844
  224MOL0     H30218   7.805   6.387  10.975 -0.3870  1.8264  3.4934
  224MOL0     H30219   7.737   6.238  11.031  3.3420  0.6470  0.6540
  224MOL0     H30220   6.694   6.504  11.535 -0.2925 -0.5659 -0.5395
  224MOL0     H30221   6.470   6.547  11.481  0.7027  2.5715  2.3835
  224MOL0     H30222   6.038   6.595  11.438 -1.7010  0.3265  0.6160
  224MOL0     H30223   5.816   6.586  11.354  0.0339 -0.9669 -0.1468
  224MOL0     H30224   4.240   6.894  10.426  2.6070  1.2976  0.6820
  224MOL0     H30225   4.041   6.997  10.328 -0.9701  2.6209 -1.0981
  224MOL0     H30226   3.800   7.235  10.153 -1.3208  1.1372  0.6199
  224MOL0     H30227   3.579   7.311  10.097 -0.2817  2.4020 -1.6809
  224MOL0     H30228   3.494   7.473   9.951  0.4840 -0.8726  1.3522
  224MOL0     H30229   3.353   7.376   9.991  1.1108  1.2224  0.9308
  224MOL0     H30230   3.265   7.427   9.754 -0.4954  1.5915 -0.8283
  224MOL0     H30231   3.410   7.523   9.725  0.8663  0.8131  0.2615
  224MOL0     H30232   3.268   7.678   9.766  1.0710 -0.2849 -0.9729
  224MOL0     H30233   3.365   7.660   9.916  0.9797 -1.5594 -1.5310
  224MOL0     H30234   3.075   7.549   9.865  1.4273  0.1280 -1.8608
  224MOL0     H30235   3.164   7.556  10.028  3.7528  2.9077  1.3592
  224MOL0     H30236   3.035   7.935  10.047  0.9532  0.4595  0.8120
  224MOL0     H30237   3.630   7.153   9.698 -0.7866 -1.9141 -0.7830
  224MOL0     H30238   3.796   7.007   9.641  1.2822 -3.3174 -0.0448
  224MOL0     H30239   3.925   7.124   9.654 -1.7323  2.8803  1.8803
  224MOL0     H30240   3.923   6.973   9.755  0.6002  1.9518  1.7006
  225MOL0     O30241   6.343   8.828   9.511 -0.3883 -0.8620 -0.3745
  225MOL0     C30242   6.310   8.783   9.398  0.5401  0.1077 -0.7724
  225MOL0     O30243   6.397   8.747   9.301 -0.3997  0.0369  0.3472
  225MOL0     C30244   6.525   8.712   9.340 -0.4222 -0.6771  0.1607
  225MOL0     C30245   6.640   8.760   9.280  0.5624 -0.2320  0.1543
  225MOL0     C30246   6.769   8.710   9.305 -0.2946  0.2870 -0.0470
  225MOL0     C30247   6.782   8.607   9.398 -0.5720  1.0115  0.3843
  225MOL0     O30248   6.901   8.540   9.428  0.1051 -0.5333  0.1418
  225MOL0     C30249   7.018   8.625   9.439  0.4273  0.3918 -0.5204
  225MOL0     C30250   7.126   8.592   9.348  0.3709 -0.5748  0.3725
  225MOL0     C30251   7.259   8.660   9.369 -0.3073  0.7966  0.3369
  225MOL0     C30252   7.362   8.613   9.269 -0.0408  0.0720  0.4577
  225MOL0     C30253   7.499   8.676   9.293  0.1556 -0.0305 -0.1900
  225MOL0     C30254   7.599   8.613   9.202 -0.7047 -0.0039  0.4809
  225MOL0     C30255   7.736   8.692   9.200  0.1863  0.4759 -0.1648
  225MOL0     C30256   7.828   8.627   9.098  0.9138  0.1944 -0.5090
  225MOL0     N30257   7.969   8.634   9.148  0.2199  0.4962 -0.1771
  225MOL0     C30258   8.051   8.745   9.138  0.1692 -0.2102 -0.4936
  225MOL0     C30259   8.158   8.706   9.198 -0.6020 -0.8347  0.5347
  225MOL0     C30260   8.269   8.805   9.221 -0.9021 -0.1492  1.1194
  225MOL0     C30261   8.313   8.822   9.357 -0.0034  0.0330  0.0786
  225MOL0     C30262   8.206   8.867   9.460 -1.1917  0.6521  0.7712
  225MOL0     C30263   8.148   9.001   9.440 -0.1153 -1.0021  0.4459
  225MOL0     O30264   8.082   9.055   9.556 -0.4283 -0.1008  0.2242
  225MOL0     C30265   7.944   9.049   9.572  0.1123  0.4531  0.0761
  225MOL0     C30266   7.863   8.946   9.520  0.1665  0.2529  0.0383
  225MOL0     C30267   7.720   8.948   9.531  0.3816  0.4478  0.0213
  225MOL0     C30268   7.653   9.055   9.601 -0.1135 -0.4709 -0.3746
  225MOL0     C30269   7.507   9.062   9.611  0.8081  0.1768  0.8829
  225MOL0     O30270   7.434   8.984   9.511 -0.0832 -0.1348 -0.4836
  225MOL0     C30271   7.298   8.978   9.540 -0.1627 -0.3331 -0.7466
  225MOL0     C30272   7.254   8.881   9.629 -0.0461  0.5788  0.0044
  225MOL0     C30273   7.120   8.869   9.661  0.4813  0.3217 -0.4182
  225MOL0     C30274   7.024   8.947   9.597  0.3199  0.1404  0.1800
  225MOL0     O30275   6.888   8.940   9.616 -0.2877  0.2370  0.1698
  225MOL0     C30276   6.834   8.856   9.715  0.3408  0.5554 -0.7853
  225MOL0     C30277   6.681   8.881   9.715 -0.4089 -0.0789 -0.2802
  225MOL0     C30278   6.628   8.988   9.820  0.3255 -0.1224 -0.4279
  225MOL0     C30279   6.480   9.040   9.773 -0.4752  0.9055 -0.6263
  225MOL0     C30280   6.402   9.086   9.892  0.0195  0.1537 -0.5793
  225MOL0     C30281   6.251   9.077   9.866  0.1949 -0.4164  1.1286
  225MOL0     C30282   6.184   9.145   9.975  0.2999 -0.4215 -0.1671
  225MOL0     C30283   6.025   9.150   9.958  0.4253 -0.8423 -0.2503
  225MOL0    Cl30284   5.952   9.216  10.103  0.0967  0.1011  0.1870
  225MOL0     C30285   7.075   9.050   9.511 -0.0799  0.4050 -0.1934
  225MOL0     C30286   7.210   9.070   9.490  0.5662 -0.6426  0.7221
  225MOL0     O30287   7.463   9.139   9.694  0.6001 -0.8898  0.6268
  225MOL0     C30288   7.734   9.159   9.658 -0.2211  1.0238  0.4321
  225MOL0     C30289   7.873   9.150   9.645 -0.0226  0.2636  0.2627
  225MOL0     N30290   8.160   8.574   9.243  0.5540 -0.2182 -0.2490
  225MOL0     N30291   8.045   8.532   9.213  0.9083  0.5139  0.2391
  225MOL0     C30292   6.676   8.555   9.462  0.5521  0.2743 -0.0766
  225MOL0     C30293   6.551   8.613   9.434 -0.0785  0.7176 -0.6315
  225MOL0     C30294   6.163   8.776   9.367 -0.6273 -0.1610  0.8302
  225MOL0     C30295   6.130   8.727   9.238 -0.1214  0.4197 -0.1124
  225MOL0     C30296   5.999   8.724   9.192 -0.1821 -0.1601 -1.0585
  225MOL0     C30297   5.894   8.762   9.265  0.3602 -0.3020 -0.8090
  225MOL0     O30298   5.767   8.753   9.216  0.2930  1.1089  0.4567
  225MOL0     C30299   5.656   8.737   9.305  0.3845 -0.6180  0.5493
  225MOL0     C30300   5.536   8.682   9.226  1.1393  0.2766 -0.1420
  225MOL0     C30301   5.418   8.645   9.318 -0.3653  1.0840  0.0530
  225MOL0     C30302   5.320   8.756   9.330  0.2788 -0.4553 -0.4870
  225MOL0     C30303   5.246   8.783   9.209 -0.0015 -0.0587 -0.2627
  225MOL0     C30304   5.178   8.815   9.119 -0.3994 -0.0895  0.7400
  225MOL0     C30305   5.921   8.815   9.393 -0.2381  0.5497  0.0804
  225MOL0     C30306   6.054   8.827   9.447  0.1862  0.0397 -0.6016
  225MOL0     C30307   6.071   8.871   9.594  0.0557  0.4832  0.7842
  225MOL0     H30308   6.627   8.835   9.202  3.0152  0.2360  0.1072
  225MOL0     H30309   6.852   8.748   9.247 -0.2570  0.5299  0.1632
  225MOL0     H30310   6.997   8.732   9.427  1.4142  0.5611 -0.7553
  225MOL0     H30311   7.041   8.606   9.545  0.1854 -2.8817 -0.9297
  225MOL0     H30312   7.086   8.613   9.248 -3.2159  0.2438  1.7977
  225MOL0     H30313   7.139   8.484   9.355 -2.7009 -1.1769 -1.1534
  225MOL0     H30314   7.295   8.642   9.471 -1.1170 -2.1009  0.1977
  225MOL0     H30315   7.246   8.767   9.350  2.6441  0.9535 -1.4311
  225MOL0     H30316   7.364   8.503   9.267 -2.0685  0.0103 -1.0320
  225MOL0     H30317   7.323   8.641   9.170 -0.0570 -0.5568  0.2794
  225MOL0     H30318   7.506   8.785   9.294  1.7635 -0.1078 -0.6823
  225MOL0     H30319   7.528   8.652   9.396 -0.8065  2.4836  0.7290
  225MOL0     H30320   7.622   8.508   9.220  3.7446  0.1815 -2.4422
  225MOL0     H30321   7.550   8.632   9.106 -3.8015 -1.8962  1.5622
  225MOL0     H30322   7.780   8.678   9.299 -0.6206 -2.6302 -0.1603
  225MOL0     H30323   7.721   8.798   9.177  0.8659  0.6580  0.2044
  225MOL0     H30324   7.798   8.522   9.083 -1.0607  0.3932  1.5652
  225MOL0     H30325   7.815   8.689   9.008  4.0981  0.9981 -0.5255
  225MOL0     H30326   8.024   8.844   9.103  2.8703  0.6620 -0.3898
  225MOL0     H30327   8.357   8.771   9.166 -1.7033 -0.0154 -0.2777
  225MOL0     H30328   8.238   8.905   9.192 -0.7319 -0.3724  0.1291
  225MOL0     H30329   8.352   8.728   9.398 -0.7608  0.4793  1.8992
  225MOL0     H30330   8.398   8.891   9.359  0.2752 -0.3031 -0.2035
  225MOL0     H30331   8.266   8.868   9.552 -0.2362  0.8798  0.1616
  225MOL0     H30332   8.123   8.797   9.474 -0.2227 -0.6533  0.2068
  225MOL0     H30333   8.083   8.995   9.352 -0.1353  0.9538  0.2896
  225MOL0     H30334   8.229   9.073   9.426 -1.1968  0.2813  0.6223
  225MOL0     H30335   7.908   8.868   9.461  0.0068 -1.8174  2.4963
  225MOL0     H30336   7.673   8.867   9.476 -2.5981 -0.1701  3.1068
  225MOL0     H30337   7.326   8.810   9.668  0.0202  1.8743  2.4724
  225MOL0     H30338   7.083   8.792   9.727 -0.4010 -1.4135 -2.7850
  225MOL0     H30339   6.850   8.753   9.684  0.9534 -0.2925  2.0331
  225MOL0     H30340   6.872   8.872   9.817  1.9895  0.6839 -1.3885
  225MOL0     H30341   6.647   8.913   9.616 -1.4059 -1.9811 -0.5958
  225MOL0     H30342   6.633   8.787   9.743  1.3309 -0.8991  0.1440
  225MOL0     H30343   6.618   8.942   9.919 -1.8238  1.3693  0.1397
  225MOL0     H30344   6.691   9.075   9.839 -2.6635  1.8645  1.2982
  225MOL0     H30345   6.423   8.964   9.718  2.5068 -3.6922  2.0008
  225MOL0     H30346   6.486   9.124   9.703 -2.6374 -0.0670 -2.0803
  225MOL0     H30347   6.442   9.187   9.904  0.7982 -0.0467 -1.3912
  225MOL0     H30348   6.419   9.021   9.979 -0.5661 -1.5766 -1.7024
  225MOL0     H30349   6.228   9.117   9.767 -1.0940 -1.2144  1.0717
  225MOL0     H30350   6.216   8.974   9.855 -3.2903  0.8051 -0.7168
  225MOL0     H30351   6.211   9.249   9.956 -0.9977  0.0138  0.2542
  225MOL0     H30352   6.215   9.106  10.072  1.5784  1.6565  0.3202
  225MOL0     H30353   5.999   9.211   9.871  2.5128 -0.0403 -0.3654
  225MOL0     H30354   5.977   9.052   9.954  1.5319 -1.3905 -0.4975
  225MOL0     H30355   7.003   9.115   9.462  1.6164  1.8573 -0.8799
  225MOL0     H30356   7.251   9.144   9.422  0.3495  0.9774  2.2852
  225MOL0     H30357   7.683   9.236   9.716 -4.1022  0.2665 -1.6785
  225MOL0     H30358   7.935   9.232   9.679  2.4156 -0.9494 -0.9668
  225MOL0     H30359   6.672   8.467   9.524 -1.7921 -0.9377 -1.7702
  225MOL0     H30360   6.470   8.575   9.496  1.9655 -0.3640  1.5923
  225MOL0     H30361   6.203   8.691   9.166 -1.7359  0.6029 -1.9372
  225MOL0     H30362   5.971   8.687   9.094  1.7966 -1.5345 -1.1626
  225MOL0     H30363   5.629   8.832   9.352  0.4783  0.0401 -0.6750
  225MOL0     H30364   5.680   8.668   9.386 -2.1571 -1.2872  0.8134
  225MOL0     H30365   5.577   8.589   9.185  0.3136 -1.5483  2.8031
  225MOL0     H30366   5.488   8.750   9.156 -0.6031 -0.5951  0.1504
  225MOL0     H30367   5.466   8.624   9.414  1.2876  0.4127 -0.8533
  225MOL0     H30368   5.379   8.552   9.275 -2.3693  2.3296 -0.9837
  225MOL0     H30369   5.259   8.726   9.415  0.3776 -2.0688 -0.9460
  225MOL0     H30370   5.370   8.848   9.362  0.2622 -0.6136  0.0020
  225MOL0     H30371   5.125   8.849   9.032 -1.4816  2.5629  2.3292
  225MOL0     H30372   5.834   8.836   9.454  0.1044 -0.5744  1.0107
  225MOL0     H30373   5.970   8.882   9.636 -0.0881  2.7660  0.0262
  225MOL0     H30374   6.126   8.789   9.640 -1.4823 -1.4806 -0.7250
  225MOL0     H30375   6.119   8.968   9.610  1.9769 -0.1741 -0.5674
  226MOL0     O30376   3.166   4.456   9.577  0.0779 -0.0393  0.0573
  226MOL0     C30377   3.064   4.444   9.506 -0.5225 -0.5069  0.0230
  226MOL0     O30378   3.054   4.344   9.413  0.3756 -0.6323  0.6805
  226MOL0     C30379   3.162   4.271   9.381  0.4171 -0.2252 -0.5460
  226MOL0     C30380   3.249   4.320   9.283  0.6615  0.5114 -0.6702
  226MOL0     C30381   3.356   4.240   9.247 -0.0662 -0.6414  0.6629
  226MOL0     C30382   3.372   4.116   9.302  0.1891  0.1524 -0.0641
  226MOL0     O30383   3.474   4.044   9.249  0.1538  0.1625  0.0555
  226MOL0     C30384   3.543   3.962   9.344 -0.1592  0.3793  0.4629
  226MOL0     C30385   3.689   3.949   9.283  0.2408  0.0501 -0.2261
  226MOL0     C30386   3.781   3.858   9.357 -0.5704 -0.3189 -0.2392
  226MOL0     C30387   3.925   3.902   9.341 -0.6003  0.6348  0.4022
  226MOL0     C30388   3.999   3.783   9.404 -0.8742 -0.3430  0.4280
  226MOL0     C30389   4.155   3.808   9.394 -0.2510 -0.6330  0.3093
  226MOL0     C30390   4.236   3.713   9.483  0.6939 -0.4805  0.5656
  226MOL0     C30391   4.240   3.569   9.419  0.1153 -0.0949 -0.7110
  226MOL0     N30392   4.305   3.473   9.508  0.5383 -0.9060 -0.8351
  226MOL0     C30393   4.445   3.467   9.524 -0.0339  0.4579 -0.3094
  226MOL0     C30394   4.467   3.382   9.626  0.4992 -0.2467 -0.1153
  226MOL0     C30395   4.611   3.351   9.669 -0.7202  0.9763 -0.4703
  226MOL0     C30396   4.632   3.196   9.647 -0.2226  0.5162  0.2099
  226MOL0     C30397   4.754   3.122   9.705  0.9827  0.2250 -0.0338
  226MOL0     C30398   4.880   3.204   9.690 -0.3366 -0.4589  0.8254
  226MOL0     O30399   4.994   3.133   9.741  0.5284 -0.3630  0.8792
  226MOL0     C30400   5.117   3.192   9.704  0.0478  0.0882 -0.9718
  226MOL0     C30401   5.221   3.115   9.731  0.6260  0.5787 -0.0498
  226MOL0     C30402   5.352   3.157   9.713 -0.0194 -0.0509  0.6517
  226MOL0     C30403   5.387   3.280   9.655 -0.0349 -1.1676 -1.0165
  226MOL0     C30404   5.525   3.325   9.632 -0.0165  0.0231  1.1795
  226MOL0     O30405   5.623   3.269   9.707  0.1741 -0.3756  0.1348
  226MOL0     C30406   5.756   3.279   9.670 -0.2013  0.0340 -0.8258
  226MOL0     C30407   5.826   3.391   9.607 -0.1765 -0.4706 -0.4271
  226MOL0     C30408   5.961   3.364   9.575  0.0253  1.2704 -0.8746
  226MOL0     C30409   6.034   3.259   9.626  0.2047  0.1916  0.3770
  226MOL0     O30410   6.167   3.261   9.593 -0.2002 -0.7884 -0.1630
  226MOL0     C30411   6.250   3.159   9.647  0.3023 -0.3255  0.0090
  226MOL0     C30412   6.396   3.161   9.627  0.4436 -0.7037 -0.1095
  226MOL0     C30413   6.432   3.150   9.472  0.3898 -0.8444  0.2179
  226MOL0     C30414   6.573   3.195   9.441 -0.0715 -0.1295 -0.0002
  226MOL0     C30415   6.599   3.239   9.295  0.0262 -0.7133 -0.1178
  226MOL0     C30416   6.751   3.241   9.268 -0.1197 -0.2485 -0.9309
  226MOL0     C30417   6.778   3.252   9.119 -0.0851 -0.2743  0.2403
  226MOL0     C30418   6.936   3.263   9.101  0.0130 -0.6070  1.3416
  226MOL0    Cl30419   7.039   3.149   9.194  0.1770  0.1364  0.1163
  226MOL0     C30420   5.966   3.169   9.703 -1.0707 -0.6506 -0.3571
  226MOL0     C30421   5.836   3.177   9.720  0.6391 -0.1069  0.3596
  226MOL0     O30422   5.545   3.376   9.518  0.0542 -0.3922 -0.1869
  226MOL0     C30423   5.274   3.368   9.618 -0.6266 -0.2321 -0.8435
  226MOL0     C30424   5.141   3.325   9.651 -0.1428 -0.3371  0.4216
  226MOL0     N30425   4.345   3.336   9.673  0.4685  0.1117 -0.3993
  226MOL0     N30426   4.245   3.386   9.597 -0.6443  0.4297  0.0025
  226MOL0     C30427   3.294   4.078   9.412  0.1722  0.0758  0.9545
  226MOL0     C30428   3.188   4.156   9.452  0.1390  0.6261 -0.0310
  226MOL0     C30429   2.951   4.535   9.534  0.2097 -0.5411  0.2334
  226MOL0     C30430   2.819   4.485   9.508 -0.3893 -0.4408  0.4717
  226MOL0     C30431   2.708   4.566   9.531  1.3467  0.0055  0.0157
  226MOL0     C30432   2.713   4.691   9.585  0.3662 -0.3975 -0.0142
  226MOL0     O30433   2.603   4.768   9.602 -0.8937  0.1287 -0.6912
  226MOL0     C30434   2.501   4.759   9.502 -0.2202 -0.4412  0.0265
  226MOL0     C30435   2.439   4.901   9.510  0.5794  0.2479 -0.4922
  226MOL0     C30436   2.357   4.928   9.631 -1.1011  0.2289  0.1294
  226MOL0     C30437   2.303   5.071   9.636  0.0193 -0.6816  0.5191
  226MOL0     C30438   2.193   5.085   9.729 -0.2847  0.5227 -0.1953
  226MOL0     C30439   2.088   5.083   9.802  0.3255  0.1151  0.3488
  226MOL0     C30440   2.843   4.742   9.606  0.0025  0.0290  0.3949
  226MOL0     C30441   2.964   4.668   9.584 -0.8695 -0.3276 -1.0540
  226MOL0     C30442   3.101   4.739   9.608  0.2553  0.4965  0.3809
  226MOL0     H30443   3.223   4.416   9.238 -1.7394  0.7361  0.9939
  226MOL0     H30444   3.418   4.264   9.161  0.2638  0.2288  1.1325
  226MOL0     H30445   3.542   4.003   9.445  2.9652  0.2546  0.6322
  226MOL0     H30446   3.485   3.870   9.356 -1.1711  0.5906 -2.1673
  226MOL0     H30447   3.736   4.047   9.294 -2.8389  2.0731 -2.9653
  226MOL0     H30448   3.688   3.918   9.178  0.1526 -0.0756 -0.1880
  226MOL0     H30449   3.760   3.756   9.326  0.7467 -1.3805  2.0729
  226MOL0     H30450   3.760   3.860   9.464  0.8971 -2.1507  0.1402
  226MOL0     H30451   3.954   3.911   9.236  0.5444 -0.7571  0.5753
  226MOL0     H30452   3.940   3.999   9.389  2.1449 -0.7545  2.6323
  226MOL0     H30453   3.972   3.786   9.510 -0.3990 -3.3475  0.7285
  226MOL0     H30454   3.980   3.686   9.357 -0.3825 -0.2748  0.0755
  226MOL0     H30455   4.183   3.803   9.288 -3.0072 -0.9701 -0.4880
  226MOL0     H30456   4.182   3.910   9.424  1.2455 -0.9588  0.1517
  226MOL0     H30457   4.179   3.701   9.576 -0.2467  0.8795  0.1916
  226MOL0     H30458   4.331   3.759   9.512  0.4351  1.2190 -1.1425
  226MOL0     H30459   4.140   3.535   9.392  0.4329 -0.7603 -1.0517
  226MOL0     H30460   4.295   3.578   9.325 -1.5967  1.3138 -1.6369
  226MOL0     H30461   4.524   3.509   9.463 -0.8079  2.1167 -0.2251
  226MOL0     H30462   4.688   3.405   9.613 -0.2164  0.6909 -0.0592
  226MOL0     H30463   4.624   3.379   9.773  0.2137  1.6569 -0.7565
  226MOL0     H30464   4.544   3.149   9.692  0.6926 -3.1318 -1.4593
  226MOL0     H30465   4.629   3.178   9.540  0.8227  3.2230 -0.3488
  226MOL0     H30466   4.760   3.023   9.660 -2.9621  0.2658 -1.0031
  226MOL0     H30467   4.728   3.092   9.807 -1.3750 -1.4330 -1.0506
  226MOL0     H30468   4.869   3.299   9.742  2.8327  0.6283 -0.2696
  226MOL0     H30469   4.903   3.227   9.585 -0.6092 -2.1147  0.3753
  226MOL0     H30470   5.200   3.015   9.765  1.4701  0.2075 -0.5735
  226MOL0     H30471   5.425   3.078   9.732  2.3223  1.8823  0.1854
  226MOL0     H30472   5.778   3.479   9.565 -0.4750  0.8783  2.5399
  226MOL0     H30473   6.020   3.434   9.516 -1.8895  0.5137 -3.8951
  226MOL0     H30474   6.242   3.155   9.756 -0.5073 -1.3064 -0.0775
  226MOL0     H30475   6.211   3.065   9.608 -1.1388  0.9522 -1.7844
  226MOL0     H30476   6.432   3.259   9.659 -2.4551  0.4157 -0.0704
  226MOL0     H30477   6.441   3.086   9.693 -2.0183  1.5690  4.5805
  226MOL0     H30478   6.414   3.050   9.433  0.5899 -1.6202  2.0215
  226MOL0     H30479   6.360   3.219   9.427  3.7268  2.4994 -0.4848
  226MOL0     H30480   6.647   3.118   9.466  1.2247  1.9393  3.1703
  226MOL0     H30481   6.596   3.281   9.506 -3.6658  0.2553  0.9711
  226MOL0     H30482   6.553   3.337   9.278 -0.5539 -1.1161 -0.9387
  226MOL0     H30483   6.557   3.155   9.239 -0.9380 -0.3754  0.0858
  226MOL0     H30484   6.806   3.321   9.318 -0.9286 -0.6658  0.6683
  226MOL0     H30485   6.787   3.141   9.293  2.5437  0.3771 -1.8800
  226MOL0     H30486   6.723   3.337   9.076  1.0497  0.3859  0.0451
  226MOL0     H30487   6.749   3.162   9.064  1.7216 -0.2392 -0.8731
  226MOL0     H30488   6.963   3.266   8.995 -1.7951  1.2951  0.8742
  226MOL0     H30489   6.962   3.363   9.135 -3.6504  0.5199  1.3030
  226MOL0     H30490   6.018   3.085   9.750 -0.1658  0.0193 -0.1105
  226MOL0     H30491   5.784   3.097   9.772 -0.1249  0.2073  0.0899
  226MOL0     H30492   5.291   3.469   9.580 -0.8772  0.2482  0.2933
  226MOL0     H30493   5.056   3.387   9.626 -1.3226 -2.1000 -0.1767
  226MOL0     H30494   3.323   3.984   9.457  0.1317  0.3247  1.4992
  226MOL0     H30495   3.138   4.135   9.546  2.5150 -1.0186  0.9790
  226MOL0     H30496   2.805   4.382   9.476 -1.0246 -0.0874 -0.4120
  226MOL0     H30497   2.618   4.513   9.500  1.3088 -0.2194  0.5055
  226MOL0     H30498   2.434   4.681   9.537 -1.5035  1.4048  1.9529
  226MOL0     H30499   2.552   4.746   9.406  0.6440  2.3365  0.0112
  226MOL0     H30500   2.390   4.928   9.415 -0.4644 -0.5842 -0.2044
  226MOL0     H30501   2.521   4.972   9.521  2.8028 -1.4812 -4.0003
  226MOL0     H30502   2.429   4.915   9.713  2.5122 -1.0799 -2.9436
  226MOL0     H30503   2.271   4.861   9.639 -1.2413  0.3471 -0.3496
  226MOL0     H30504   2.392   5.130   9.659  0.9148 -2.4445  1.8822
  226MOL0     H30505   2.259   5.094   9.539  0.7184 -0.5603  0.2298
  226MOL0     H30506   1.999   5.100   9.860  0.4449  0.0429  0.5563
  226MOL0     H30507   2.842   4.840   9.653 -2.8077 -0.3625  1.3324
  226MOL0     H30508   3.081   4.838   9.648  0.5779  0.6215  0.2388
  226MOL0     H30509   3.159   4.677   9.677  0.1056  0.6849  0.6727
  226MOL0     H30510   3.163   4.747   9.517  3.2925 -0.4506  2.2010
  227MOL0     O30511   5.687   0.217   6.458 -0.2381  0.0917 -1.0849
  227MOL0     C30512   5.648   0.138   6.373 -0.2918 -0.5874  0.5673
  227MOL0     O30513   5.728   0.088   6.272 -0.4105 -0.5339  0.7023
  227MOL0     C30514   5.861   0.122   6.258  0.3682  0.2081 -0.6764
  227MOL0     C30515   5.943   0.126   6.373 -0.0704 -0.4605  0.2514
  227MOL0     C30516   6.081   0.146   6.349  0.1146  0.0696  0.0915
  227MOL0     C30517   6.133   0.176   6.226  0.6469  0.0401 -0.0685
  227MOL0     O30518   6.271   0.199   6.219  1.0336  0.0891 -0.4986
  227MOL0     C30519   6.336   0.219   6.088 -0.2652 -0.5919  0.1516
  227MOL0     C30520   6.439   0.107   6.061  0.5994 -0.1849 -0.7372
  227MOL0     C30521   6.533   0.095   6.182  0.4819  0.7224 -0.0022
  227MOL0     C30522   6.670   0.042   6.144  0.8873  0.1272 -0.3378
  227MOL0     C30523   6.743  -0.030   6.261 -0.4100  0.3034  0.3979
  227MOL0     C30524   6.889  -0.049   6.229 -0.2726  0.2374  0.0942
  227MOL0     C30525   6.961  -0.119   6.344 -0.1549 -0.1883 -0.2141
  227MOL0     C30526   7.057  -0.033   6.434 -0.3892  0.5135  0.6084
  227MOL0     N30527   6.978   0.054   6.529 -0.0733 -0.3651 -1.3447
  227MOL0     C30528   6.971   0.193   6.529 -0.8027  0.2905 -0.1133
  227MOL0     C30529   6.891   0.220   6.632 -0.4335 -0.0900 -0.2446
  227MOL0     C30530   6.863   0.357   6.673  0.1619  0.1174  0.5946
  227MOL0     C30531   6.964   0.402   6.782 -1.0440 -0.6287 -0.7929
  227MOL0     C30532   7.099   0.439   6.718 -0.1259  0.1352  0.5432
  227MOL0     C30533   7.161   0.559   6.786  0.8670  0.5397  0.3499
  227MOL0     O30534   7.263   0.621   6.705 -0.6633  0.3623 -0.2371
  227MOL0     C30535   7.389   0.567   6.712 -0.1225  0.8907  0.7689
  227MOL0     C30536   7.439   0.475   6.811 -0.5084  0.7392  0.1716
  227MOL0     C30537   7.569   0.422   6.801  0.4545 -0.8742 -0.1961
  227MOL0     C30538   7.657   0.467   6.698  1.1577  0.2218  0.1521
  227MOL0     C30539   7.791   0.412   6.675 -0.0811  0.7234 -0.4965
  227MOL0     O30540   7.874   0.454   6.572  0.6567  0.0311 -0.7822
  227MOL0     C30541   7.997   0.404   6.568 -0.2771  0.0470 -0.3466
  227MOL0     C30542   8.100   0.488   6.523  0.5617 -0.2944  0.2761
  227MOL0     C30543   8.235   0.438   6.523  0.4236  0.2046  0.2692
  227MOL0     C30544   8.262   0.303   6.557 -0.4225  1.0097 -0.1210
  227MOL0     O30545   8.383   0.236   6.563 -0.2499  0.3019 -0.3608
  227MOL0     C30546   8.503   0.301   6.516 -0.1666 -0.3278 -0.0779
  227MOL0     C30547   8.523   0.267   6.367 -0.9623 -1.1805 -0.1543
  227MOL0     C30548   8.666   0.217   6.331 -0.1023  0.1661 -0.0049
  227MOL0     C30549   8.689   0.218   6.183  0.3949  0.4409 -0.3951
  227MOL0     C30550   8.826   0.171   6.144  0.0718  0.4708 -0.1064
  227MOL0     C30551   8.936   0.271   6.165  0.4110  0.3191 -0.0336
  227MOL0     C30552   9.071   0.213   6.145  0.0011  0.0956 -0.6396
  227MOL0     C30553   9.179   0.322   6.182 -0.1524  0.3271 -0.6479
  227MOL0    Cl30554   9.342   0.243   6.196  0.1358  0.0260  0.1940
  227MOL0     C30555   8.154   0.215   6.575 -0.1242  0.1262 -0.9453
  227MOL0     C30556   8.028   0.263   6.589  0.3323  0.2944  0.0884
  227MOL0     O30557   7.833   0.345   6.773 -0.0811  0.2461 -0.1410
  227MOL0     C30558   7.602   0.552   6.600 -0.6677 -0.6078  0.6698
  227MOL0     C30559   7.475   0.597   6.610  0.3581 -1.2022 -0.8996
  227MOL0     N30560   6.849   0.103   6.694  0.0617 -0.0931  0.7414
  227MOL0     N30561   6.903   0.002   6.638 -0.1865  0.6396  1.1352
  227MOL0     C30562   6.050   0.168   6.112  0.7816  0.2339  0.2505
  227MOL0     C30563   5.921   0.125   6.132  0.0004 -0.8883  0.1467
  227MOL0     C30564   5.511   0.082   6.366  1.2034  0.7020  0.0574
  227MOL0     C30565   5.465   0.027   6.241 -0.1365  0.2889  0.0473
  227MOL0     C30566   5.342  -0.037   6.224  0.0962 -0.3444 -1.0599
  227MOL0     C30567   5.248  -0.033   6.330  0.5793  0.2326 -0.1367
  227MOL0     O30568   5.127  -0.084   6.338  0.5026  0.3170  0.1300
  227MOL0     C30569   5.099  -0.190   6.245 -0.2122  0.2113 -0.1958
  227MOL0     C30570   4.955  -0.257   6.258 -0.6779  0.5774 -0.7507
  227MOL0     C30571   4.839  -0.150   6.235  0.6128  0.3106 -0.6247
  227MOL0     C30572   4.699  -0.223   6.258 -0.6148 -0.3560  0.1611
  227MOL0     C30573   4.586  -0.141   6.208 -0.9176 -0.2290  0.6345
  227MOL0     C30574   4.498  -0.068   6.175  0.5893  0.3632 -0.3952
  227MOL0     C30575   5.284   0.025   6.445  0.2346 -0.2253 -0.0984
  227MOL0     C30576   5.413   0.080   6.470 -0.0380  0.0543 -0.7251
  227MOL0     C30577   5.430   0.129   6.614  0.1844 -0.9579  0.2188
  227MOL0     H30578   5.913   0.107   6.476 -0.2692 -0.9618  0.1076
  227MOL0     H30579   6.145   0.131   6.435 -1.3476  0.1813  1.2565
  227MOL0     H30580   6.266   0.234   6.005 -0.2057  0.7080  0.3087
  227MOL0     H30581   6.388   0.315   6.092 -1.1410 -0.1245  3.4102
  227MOL0     H30582   6.489   0.132   5.967  0.0549  1.2178 -0.6685
  227MOL0     H30583   6.390   0.009   6.056  2.9680 -1.4388 -0.5626
  227MOL0     H30584   6.480   0.024   6.246 -1.2647  1.8788 -0.0896
  227MOL0     H30585   6.540   0.192   6.232  0.4618  0.2178  0.9901
  227MOL0     H30586   6.671  -0.022   6.055  3.4183 -3.2076  1.8172
  227MOL0     H30587   6.723   0.135   6.123  2.7502 -0.6660  0.5928
  227MOL0     H30588   6.726   0.027   6.353  2.0718  1.0371  0.4783
  227MOL0     H30589   6.704  -0.132   6.268  1.4369 -0.5818 -1.2252
  227MOL0     H30590   6.896  -0.117   6.144 -1.0222  1.2463 -0.7977
  227MOL0     H30591   6.930   0.047   6.198 -1.2962  0.7112  0.1343
  227MOL0     H30592   7.028  -0.192   6.298  0.6203  0.7809 -0.6567
  227MOL0     H30593   6.891  -0.171   6.411 -1.4293  0.6079 -0.8744
  227MOL0     H30594   7.130  -0.089   6.493 -1.2390  1.2127  2.3975
  227MOL0     H30595   7.106   0.031   6.360 -2.7682  1.3131 -0.3739
  227MOL0     H30596   7.025   0.254   6.457 -0.3019  0.9534  0.7982
  227MOL0     H30597   6.850   0.431   6.593  2.4364  1.7791  1.6560
  227MOL0     H30598   6.765   0.344   6.719 -1.1114  0.2955 -1.8778
  227MOL0     H30599   6.911   0.489   6.821 -2.4559 -0.7740 -2.2703
  227MOL0     H30600   6.968   0.344   6.874  1.6329  1.7853  0.7824
  227MOL0     H30601   7.084   0.451   6.610  0.7706 -1.0263  0.2742
  227MOL0     H30602   7.160   0.349   6.723 -2.0260 -1.1958  0.4890
  227MOL0     H30603   7.189   0.525   6.886  0.2082 -1.7796 -0.1962
  227MOL0     H30604   7.078   0.630   6.792 -0.1769  0.1431 -4.7536
  227MOL0     H30605   7.383   0.437   6.896 -1.6151  1.5086 -0.1958
  227MOL0     H30606   7.603   0.353   6.877  0.7674 -3.6352 -2.6433
  227MOL0     H30607   8.076   0.592   6.505 -2.8450 -1.3755 -2.6304
  227MOL0     H30608   8.310   0.515   6.513 -0.5928  1.0705 -1.0252
  227MOL0     H30609   8.493   0.405   6.548 -2.1777 -0.9089  1.3640
  227MOL0     H30610   8.592   0.263   6.566  1.8266  0.2241 -2.9314
  227MOL0     H30611   8.463   0.181   6.335  0.3353 -1.4208 -2.1646
  227MOL0     H30612   8.500   0.362   6.316  0.6057 -0.7677 -0.1204
  227MOL0     H30613   8.741   0.282   6.377  1.6176 -1.0313 -1.0003
  227MOL0     H30614   8.695   0.119   6.371  0.3827  0.3265  0.0437
  227MOL0     H30615   8.672   0.322   6.153 -0.1144  0.4886  0.0462
  227MOL0     H30616   8.613   0.150   6.142  0.1125  0.8183 -0.5050
  227MOL0     H30617   8.826   0.137   6.040  0.0677  1.4305 -0.4288
  227MOL0     H30618   8.838   0.084   6.209 -3.3315 -1.2068 -1.4278
  227MOL0     H30619   8.921   0.362   6.107 -0.8009  2.0606  2.7642
  227MOL0     H30620   8.935   0.301   6.271  1.7050  1.0305 -0.1952
  227MOL0     H30621   9.072   0.179   6.041 -3.5795  1.9075 -1.4375
  227MOL0     H30622   9.079   0.132   6.218 -1.5925  0.3338 -0.1457
  227MOL0     H30623   9.189   0.404   6.110  1.0202  2.2460  1.5565
  227MOL0     H30624   9.159   0.376   6.275 -0.6135 -0.3005 -0.3746
  227MOL0     H30625   8.159   0.108   6.594 -3.4916  0.1646  0.9351
  227MOL0     H30626   7.953   0.186   6.604  0.2957 -0.3115 -2.6758
  227MOL0     H30627   7.676   0.591   6.532 -1.8822 -1.2481 -1.0811
  227MOL0     H30628   7.429   0.654   6.530  2.7015  0.9682 -0.8272
  227MOL0     H30629   6.078   0.193   6.010  2.9053 -2.4843  0.0375
  227MOL0     H30630   5.853   0.121   6.048 -2.3338 -3.8683  1.9474
  227MOL0     H30631   5.530   0.029   6.154 -0.0664 -1.6772  0.0070
  227MOL0     H30632   5.324  -0.080   6.126  2.5981 -2.6859 -0.6269
  227MOL0     H30633   5.173  -0.264   6.274  1.3490  2.7150  2.8629
  227MOL0     H30634   5.110  -0.159   6.141 -0.9875  3.7579  0.6255
  227MOL0     H30635   4.934  -0.306   6.353 -1.2530  1.1019 -0.6031
  227MOL0     H30636   4.942  -0.337   6.183 -2.2869 -0.8335  0.9459
  227MOL0     H30637   4.841  -0.092   6.142 -1.4336 -1.9016 -2.1838
  227MOL0     H30638   4.837  -0.081   6.319 -1.9963 -1.0973  0.5963
  227MOL0     H30639   4.697  -0.322   6.211  0.6138 -0.3511  0.0827
  227MOL0     H30640   4.688  -0.231   6.366  2.3884 -0.0638  0.5783
  227MOL0     H30641   4.417  -0.002   6.153  2.6355  2.4629 -2.1255
  227MOL0     H30642   5.205   0.029   6.519 -1.6223 -0.1884 -1.9969
  227MOL0     H30643   5.377   0.223   6.628  2.9446  0.7696 -0.0758
  227MOL0     H30644   5.376   0.061   6.680 -1.6275  0.4246  0.2107
  227MOL0     H30645   5.535   0.148   6.640  0.3709  0.1973 -1.2289
  228MOL0     O30646  11.094   6.129   0.367 -1.0198 -0.6964  0.0251
  228MOL0     C30647  10.986   6.177   0.358  0.4218 -0.1338 -1.3452
  228MOL0     O30648  10.949   6.294   0.419 -0.1984  0.3306 -0.8461
  228MOL0     C30649  11.037   6.376   0.487  0.8694 -0.5481 -0.5252
  228MOL0     C30650  11.152   6.427   0.421 -0.4743 -0.0288 -0.7029
  228MOL0     C30651  11.238   6.519   0.487 -0.1388 -0.1786  0.0196
  228MOL0     C30652  11.210   6.559   0.616  0.3453  0.1165  0.0295
  228MOL0     O30653  11.297   6.650   0.670 -0.4465 -0.1160 -0.3635
  228MOL0     C30654  11.387   6.579   0.760 -0.4662  0.1659  0.0820
  228MOL0     C30655  11.505   6.671   0.784  0.5619  0.7006 -1.1135
  228MOL0     C30656  11.608   6.602   0.874  0.2405  0.2460 -0.9010
  228MOL0     C30657  11.749   6.669   0.845  1.1525 -0.6851 -0.8572
  228MOL0     C30658  11.834   6.653   0.965  0.0300  0.2173 -0.3973
  228MOL0     C30659  11.969   6.710   0.937 -0.1439 -0.0183 -0.6961
  228MOL0     C30660  12.061   6.685   1.057 -1.2146  0.1449  0.7229
  228MOL0     C30661  12.206   6.741   1.033 -0.3087  0.8002 -0.3215
  228MOL0     N30662  12.215   6.883   1.008 -0.3717 -0.1248  0.7894
  228MOL0     C30663  12.160   6.984   1.081  0.4800 -0.4703 -0.0462
  228MOL0     C30664  12.195   7.098   1.014 -0.0311  0.0781  0.0637
  228MOL0     C30665  12.172   7.243   1.067  0.8849 -0.2124 -0.5407
  228MOL0     C30666  12.262   7.269   1.188 -0.4724 -0.1228 -0.2362
  228MOL0     C30667  12.401   7.331   1.143 -0.9933  0.2095 -0.2723
  228MOL0     C30668  12.485   7.238   1.055 -0.2519 -0.1226 -0.0183
  228MOL0     O30669  12.617   7.260   1.092 -1.0326  0.1273 -0.2114
  228MOL0     C30670  12.710   7.172   1.046 -0.0073  0.4733  0.2606
  228MOL0     C30671  12.824   7.168   1.118 -0.2864  0.6979  0.5034
  228MOL0     C30672  12.929   7.091   1.077  0.1460 -0.2121 -0.2795
  228MOL0     C30673  12.918   7.006   0.961  0.0766 -0.0323  0.1897
  228MOL0     C30674  13.025   6.917   0.914 -0.4842  0.6018 -0.8848
  228MOL0     O30675  13.109   6.877   1.016  0.3411  0.6064  0.1441
  228MOL0     C30676  13.213   6.801   0.981  0.7398  0.8205  0.2035
  228MOL0     C30677  13.211   6.664   0.990  0.3708  0.3557  0.5952
  228MOL0     C30678  13.330   6.588   0.965 -0.2172 -0.0723  0.1485
  228MOL0     C30679  13.450   6.651   0.919  0.6765  0.1501 -0.9038
  228MOL0     O30680  13.569   6.588   0.885 -1.3734  0.4755 -0.2846
  228MOL0     C30681  13.600   6.465   0.952  0.1562  0.4290 -0.1091
  228MOL0     C30682  13.717   6.393   0.890  0.1847 -0.6983  0.3336
  228MOL0     C30683  13.846   6.456   0.940  0.9257 -0.5743  0.1107
  228MOL0     C30684  13.965   6.378   0.892 -0.3850 -0.6071 -0.3781
  228MOL0     C30685  14.090   6.417   0.966  1.1996  0.3122  0.5944
  228MOL0     C30686  14.222   6.353   0.919  0.4271  0.3405 -0.0162
  228MOL0     C30687  14.325   6.359   1.028  0.1113 -0.5559  0.3564
  228MOL0     C30688  14.432   6.449   0.986  0.2007  0.6565  0.4100
  228MOL0    Cl30689  14.575   6.436   1.089 -0.4767 -0.3697  0.0875
  228MOL0     C30690  13.444   6.791   0.900  0.1192  0.1733 -1.0274
  228MOL0     C30691  13.324   6.860   0.936  0.5798 -0.8438 -0.1581
  228MOL0     O30692  13.032   6.896   0.794 -0.2635  0.1436  0.5158
  228MOL0     C30693  12.795   7.007   0.897  0.6459  0.3722 -0.0518
  228MOL0     C30694  12.690   7.087   0.938 -0.0835 -0.0168 -0.3740
  228MOL0     N30695  12.273   7.064   0.912  0.1424  0.5953 -0.9417
  228MOL0     N30696  12.293   6.934   0.909 -0.7142 -0.4540  0.2909
  228MOL0     C30697  11.101   6.505   0.683 -0.0985  0.5011  0.5021
  228MOL0     C30698  11.011   6.419   0.615  1.1711  0.2600 -0.4943
  228MOL0     C30699  10.876   6.092   0.299 -0.2133 -0.8497 -0.7837
  228MOL0     C30700  10.742   6.142   0.309 -0.3482 -0.3082  1.0342
  228MOL0     C30701  10.640   6.073   0.247  0.6717  0.0536  0.0202
  228MOL0     C30702  10.662   5.954   0.190 -0.1098 -0.2517  0.6869
  228MOL0     O30703  10.570   5.869   0.136  0.2744  0.5540 -0.4821
  228MOL0     C30704  10.432   5.904   0.109  0.2582  0.3805 -0.4529
  228MOL0     C30705  10.367   5.808   0.004 -0.4872  0.1533 -0.3003
  228MOL0     C30706  10.382   5.659   0.033 -0.2566 -0.1028 -0.7545
  228MOL0     C30707  10.287   5.577  -0.046  0.2528 -0.0557  0.5107
  228MOL0     C30708  10.310   5.591  -0.189 -0.1138  0.2562 -0.5541
  228MOL0     C30709  10.339   5.604  -0.305 -0.6300  0.3583 -0.7664
  228MOL0     C30710  10.791   5.910   0.175 -0.4948 -0.1378 -1.0325
  228MOL0     C30711  10.901   5.975   0.232 -1.0988  0.6353  0.9115
  228MOL0     C30712  11.038   5.909   0.211  0.5834 -0.6047 -0.6325
  228MOL0     H30713  11.170   6.382   0.324 -0.5251  2.1296 -1.7572
  228MOL0     H30714  11.321   6.578   0.449 -1.4117  1.1506 -0.8158
  228MOL0     H30715  11.341   6.568   0.859 -1.4946  0.8008 -0.3118
  228MOL0     H30716  11.421   6.488   0.709  3.7901  1.1801  0.7505
  228MOL0     H30717  11.467   6.761   0.834 -0.1757 -0.1080 -0.1738
  228MOL0     H30718  11.539   6.689   0.682 -1.8852 -2.4837 -2.6477
  228MOL0     H30719  11.613   6.495   0.851  0.4016  0.3653 -1.4511
  228MOL0     H30720  11.587   6.594   0.981  3.5282  0.8753 -0.0725
  228MOL0     H30721  11.783   6.615   0.755 -0.9579  1.2259 -2.9547
  228MOL0     H30722  11.737   6.775   0.821 -1.9501 -1.0184 -1.1774
  228MOL0     H30723  11.791   6.691   1.058 -0.6807  0.5676 -0.8645
  228MOL0     H30724  11.841   6.544   0.976 -0.0115  0.3197  0.7645
  228MOL0     H30725  12.017   6.689   0.841  2.2118  2.7942 -0.2637
  228MOL0     H30726  11.959   6.817   0.917  0.3970  0.0779 -0.4843
  228MOL0     H30727  12.075   6.578   1.073 -1.4057 -0.1364 -0.8739
  228MOL0     H30728  12.023   6.727   1.151 -2.2415  2.3606 -0.6075
  228MOL0     H30729  12.266   6.727   1.123 -1.9314  1.3689  0.9024
  228MOL0     H30730  12.239   6.690   0.941  1.1941  0.1159  0.5622
  228MOL0     H30731  12.102   6.978   1.173  1.3266  1.4206  0.6770
  228MOL0     H30732  12.170   7.322   0.991  0.8896  0.0596 -0.2630
  228MOL0     H30733  12.075   7.250   1.116  1.7048  2.6360  0.8860
  228MOL0     H30734  12.203   7.333   1.254 -0.4364 -0.5896  0.2583
  228MOL0     H30735  12.283   7.174   1.239 -1.3159  0.9519  2.2600
  228MOL0     H30736  12.459   7.342   1.234 -0.5995 -0.7246 -0.3914
  228MOL0     H30737  12.393   7.434   1.108  0.5323  0.8899  1.2758
  228MOL0     H30738  12.464   7.248   0.948 -0.9673  2.1690  0.2834
  228MOL0     H30739  12.451   7.136   1.076 -1.9180  0.2948 -0.5108
  228MOL0     H30740  12.832   7.228   1.208 -0.2042 -4.6766  4.5616
  228MOL0     H30741  13.015   7.081   1.143 -1.7638 -3.2289  2.0493
  228MOL0     H30742  13.130   6.609   1.038  0.4915 -0.0804  0.3073
  228MOL0     H30743  13.329   6.481   0.984  1.4541  0.1358  1.6853
  228MOL0     H30744  13.613   6.488   1.058  0.6764 -1.6234  0.3220
  228MOL0     H30745  13.513   6.401   0.936 -0.8540  1.2783  1.6783
  228MOL0     H30746  13.710   6.290   0.927 -0.9762 -0.9322 -0.4923
  228MOL0     H30747  13.717   6.406   0.782  2.0299  0.3451  0.4220
  228MOL0     H30748  13.862   6.557   0.901 -1.3543 -0.5101 -0.8109
  228MOL0     H30749  13.844   6.470   1.048 -1.8832 -0.6078  0.1264
  228MOL0     H30750  13.989   6.405   0.789  2.1197  3.9787  1.1443
  228MOL0     H30751  13.936   6.273   0.905 -2.1009 -0.0331  0.7897
  228MOL0     H30752  14.086   6.379   1.069  0.4851 -1.9148 -0.1996
  228MOL0     H30753  14.092   6.526   0.952  0.0359  0.3455  0.5586
  228MOL0     H30754  14.215   6.245   0.901  3.8474 -0.0212  0.1439
  228MOL0     H30755  14.241   6.398   0.821  0.7348  0.7256  0.2174
  228MOL0     H30756  14.363   6.261   1.058  1.0952  0.5132  2.9175
  228MOL0     H30757  14.285   6.394   1.124 -0.0802 -1.4460  0.6124
  228MOL0     H30758  14.457   6.426   0.882  1.6877  2.1472  0.3860
  228MOL0     H30759  14.391   6.549   0.999  1.2844  1.1575  0.1438
  228MOL0     H30760  13.523   6.850   0.855  1.2863  0.6918  1.5653
  228MOL0     H30761  13.336   6.966   0.919 -2.3413 -0.4688 -0.3544
  228MOL0     H30762  12.778   6.949   0.806 -1.2621 -3.3169  2.3834
  228MOL0     H30763  12.596   7.080   0.885  0.1809 -1.9360 -0.6815
  228MOL0     H30764  11.079   6.543   0.782 -0.0092 -2.0137  1.5581
  228MOL0     H30765  10.927   6.374   0.668  1.8657 -1.4065 -0.7309
  228MOL0     H30766  10.722   6.234   0.362 -0.4018 -0.4412  1.2451
  228MOL0     H30767  10.542   6.119   0.252  0.9908  0.6460  1.2848
  228MOL0     H30768  10.415   6.010   0.089  1.1832  0.1468 -2.7835
  228MOL0     H30769  10.384   5.870   0.201  1.0393  0.1563 -0.1193
  228MOL0     H30770  10.417   5.820  -0.093 -2.0768 -1.9980 -1.4897
  228MOL0     H30771  10.261   5.834  -0.007  0.1213  2.0635 -2.4526
  228MOL0     H30772  10.374   5.640   0.140  1.6881  1.4547 -0.2738
  228MOL0     H30773  10.483   5.626   0.011  0.2198 -0.2715  1.4769
  228MOL0     H30774  10.305   5.476  -0.007  2.2155 -1.1407 -2.7578
  228MOL0     H30775  10.183   5.605  -0.024  0.1089  0.6720 -0.9722
  228MOL0     H30776  10.370   5.611  -0.407  0.1561  0.3749 -0.5350
  228MOL0     H30777  10.800   5.809   0.136 -1.8700 -0.9273  0.5405
  228MOL0     H30778  11.110   5.976   0.165  0.7339  0.7384  1.4669
  228MOL0     H30779  11.078   5.894   0.312  0.1791  1.9133 -0.0384
  228MOL0     H30780  11.023   5.812   0.162  1.7201 -1.1457  0.0684
  229MOL0     O30781   2.191   4.936   1.903  0.3492 -0.1585  0.2315
  229MOL0     C30782   2.156   5.016   1.822 -0.9262  0.9410  0.2862
  229MOL0     O30783   2.241   5.075   1.731  0.0962  0.1220 -0.3500
  229MOL0     C30784   2.375   5.049   1.756 -0.6449 -0.2147  0.6571
  229MOL0     C30785   2.444   5.123   1.856 -0.3745  0.5391  0.1422
  229MOL0     C30786   2.579   5.091   1.881  0.7489  0.0761 -0.1405
  229MOL0     C30787   2.656   4.997   1.805  0.2877 -0.9858 -0.2824
  229MOL0     O30788   2.778   4.969   1.845  0.6469  0.3980 -0.4784
  229MOL0     C30789   2.878   4.973   1.741  0.5938  0.2095  0.1082
  229MOL0     C30790   3.019   4.962   1.799  0.0179  0.3551 -0.2181
  229MOL0     C30791   3.110   4.943   1.677 -0.0970 -0.0524 -0.0665
  229MOL0     C30792   3.261   4.949   1.704 -0.1239  0.4326 -0.4594
  229MOL0     C30793   3.350   4.895   1.592  0.2215  0.1331  0.0071
  229MOL0     C30794   3.490   4.897   1.646 -0.3195 -0.4061  0.1690
  229MOL0     C30795   3.596   4.872   1.537 -0.0530  0.9672  0.2161
  229MOL0     C30796   3.606   4.727   1.490 -0.5610 -0.3749 -0.3975
  229MOL0     N30797   3.724   4.727   1.398  0.0691  0.3110  0.0945
  229MOL0     C30798   3.853   4.739   1.434 -0.5070  0.5977 -0.1158
  229MOL0     C30799   3.924   4.734   1.321  0.6676 -0.5687  0.2770
  229MOL0     C30800   4.074   4.746   1.296 -0.0071 -0.3274  0.0602
  229MOL0     C30801   4.152   4.700   1.411 -0.1683 -0.2880  0.1304
  229MOL0     C30802   4.293   4.652   1.387 -0.9276 -0.2372 -0.2202
  229MOL0     C30803   4.389   4.768   1.369 -0.4202  0.0164 -0.6323
  229MOL0     O30804   4.437   4.820   1.500  0.5922 -0.6464 -0.3651
  229MOL0     C30805   4.524   4.923   1.488 -0.1194  0.4684  0.3551
  229MOL0     C30806   4.496   5.030   1.571  0.8369 -0.2698  0.6023
  229MOL0     C30807   4.578   5.146   1.555 -0.2886  0.1740  0.1533
  229MOL0     C30808   4.691   5.141   1.465  0.4410  0.4026  0.2229
  229MOL0     C30809   4.781   5.265   1.460  0.1179  0.5728  0.5475
  229MOL0     O30810   4.886   5.255   1.371  0.6211 -0.2596  0.6421
  229MOL0     C30811   4.981   5.351   1.370 -0.3165  0.3110  0.0743
  229MOL0     C30812   4.967   5.477   1.303 -0.0542  0.4277 -0.0225
  229MOL0     C30813   5.074   5.568   1.304  0.3299 -0.5731 -0.2138
  229MOL0     C30814   5.190   5.544   1.373  0.4213 -0.4707 -0.1120
  229MOL0     O30815   5.302   5.621   1.380 -0.1173  0.9249  0.6815
  229MOL0     C30816   5.299   5.755   1.321 -0.1675 -0.4835 -0.0111
  229MOL0     C30817   5.441   5.821   1.330 -0.9581  1.0823 -0.1183
  229MOL0     C30818   5.546   5.747   1.249  1.3506  0.2085  0.3334
  229MOL0     C30819   5.680   5.822   1.221  0.1941  0.4828 -0.4786
  229MOL0     C30820   5.759   5.845   1.355  0.7427 -0.1998  0.5711
  229MOL0     C30821   5.886   5.923   1.322  0.6693  0.0869  0.0120
  229MOL0     C30822   5.988   5.905   1.437 -0.1315  0.3521 -0.2026
  229MOL0     C30823   6.098   6.014   1.449 -0.2965 -0.5214 -0.4148
  229MOL0    Cl30824   6.248   5.946   1.528 -0.1626 -0.1293  0.2112
  229MOL0     C30825   5.207   5.418   1.430  0.3015  0.5051 -0.6491
  229MOL0     C30826   5.103   5.319   1.435  0.0439 -0.4250 -0.5347
  229MOL0     O30827   4.772   5.359   1.540  0.2751 -0.3444 -0.4524
  229MOL0     C30828   4.718   5.029   1.391 -0.3834  0.4135 -0.6240
  229MOL0     C30829   4.627   4.922   1.392  0.4230 -0.2277 -0.0963
  229MOL0     N30830   3.835   4.712   1.219 -0.2072 -0.4509 -0.0331
  229MOL0     N30831   3.713   4.706   1.267 -0.2530 -0.1786 -0.3274
  229MOL0     C30832   2.589   4.926   1.704  0.0364 -0.4056  0.2462
  229MOL0     C30833   2.454   4.951   1.680  0.2519  0.0096  0.3186
  229MOL0     C30834   2.019   5.054   1.821  0.1022  0.4337  0.0076
  229MOL0     C30835   1.945   5.047   1.936 -0.5389 -0.4998  0.2251
  229MOL0     C30836   1.817   5.081   1.939  0.2788  0.6700 -0.1040
  229MOL0     C30837   1.747   5.121   1.820  0.0116  1.2186  1.0279
  229MOL0     O30838   1.614   5.150   1.808  0.5521 -1.0250  0.1347
  229MOL0     C30839   1.546   5.202   1.929 -0.0178  0.9758  0.4534
  229MOL0     C30840   1.405   5.208   1.893  0.2428  0.4092 -0.0490
  229MOL0     C30841   1.323   5.292   1.998  0.2704  0.3932  0.1004
  229MOL0     C30842   1.188   5.315   1.936  0.8971 -0.4583 -0.0333
  229MOL0     C30843   1.122   5.180   1.907  0.9170 -0.6630 -0.0405
  229MOL0     C30844   1.076   5.066   1.893  0.3934 -0.0195 -1.1607
  229MOL0     C30845   1.823   5.142   1.706  0.3454  0.1790  0.3524
  229MOL0     C30846   1.954   5.094   1.703 -0.4010  0.5666 -0.3896
  229MOL0     C30847   2.013   5.088   1.569  0.4730 -0.0711  0.5474
  229MOL0     H30848   2.393   5.194   1.920  1.3204 -0.4162  2.6854
  229MOL0     H30849   2.637   5.146   1.953  1.0922 -0.3304 -0.1023
  229MOL0     H30850   2.845   4.891   1.677  0.2078  0.5528 -0.1398
  229MOL0     H30851   2.860   5.067   1.687 -1.6763  0.0885  0.5237
  229MOL0     H30852   3.018   4.872   1.861  1.1199  1.3692  1.3361
  229MOL0     H30853   3.039   5.045   1.867 -1.0010 -0.8250  1.6198
  229MOL0     H30854   3.093   5.014   1.595  1.6748  2.1320  1.3233
  229MOL0     H30855   3.088   4.843   1.637 -2.1561 -0.7686  2.6105
  229MOL0     H30856   3.281   5.055   1.719 -0.7356  0.7438 -1.6882
  229MOL0     H30857   3.285   4.892   1.795  0.9663 -2.3470 -2.3501
  229MOL0     H30858   3.325   4.791   1.568 -1.4689  0.8485 -1.5416
  229MOL0     H30859   3.335   4.950   1.499 -3.2079 -0.1264  0.2644
  229MOL0     H30860   3.496   4.994   1.695 -2.1905 -0.7231  1.1155
  229MOL0     H30861   3.494   4.814   1.717  1.3273 -1.3238 -0.8991
  229MOL0     H30862   3.693   4.897   1.582  2.3714  1.0877 -4.4583
  229MOL0     H30863   3.584   4.943   1.455  0.8485  0.8837  0.0019
  229MOL0     H30864   3.617   4.655   1.571 -3.4423 -0.9624 -0.4263
  229MOL0     H30865   3.520   4.699   1.429  0.8997 -3.3838 -1.2436
  229MOL0     H30866   3.889   4.763   1.533  0.7040  0.3742 -0.4886
  229MOL0     H30867   4.093   4.675   1.215  0.5045 -1.2593  0.9765
  229MOL0     H30868   4.108   4.846   1.266 -0.2816  0.8228  3.1775
  229MOL0     H30869   4.153   4.783   1.482  0.5583  1.1959 -1.5317
  229MOL0     H30870   4.099   4.617   1.458 -0.3978 -0.7727 -0.9484
  229MOL0     H30871   4.311   4.583   1.303  2.9668  1.8497 -1.3657
  229MOL0     H30872   4.327   4.610   1.482 -1.5957 -1.8853 -0.6719
  229MOL0     H30873   4.343   4.849   1.312 -0.0807  1.3677  0.9499
  229MOL0     H30874   4.472   4.721   1.315 -1.1864 -0.7333 -1.1906
  229MOL0     H30875   4.411   5.026   1.639 -0.2087  1.1535 -0.5712
  229MOL0     H30876   4.558   5.234   1.616 -1.1970  0.6878 -0.8535
  229MOL0     H30877   4.870   5.505   1.264 -0.0289  1.3544  0.5454
  229MOL0     H30878   5.065   5.661   1.250  1.9213 -0.6995 -0.7388
  229MOL0     H30879   5.262   5.751   1.219 -2.6285  0.7417  0.7753
  229MOL0     H30880   5.225   5.813   1.376  0.2733 -0.3965  0.5076
  229MOL0     H30881   5.429   5.927   1.304 -2.1814  1.4215  1.6591
  229MOL0     H30882   5.465   5.822   1.436 -0.3395  1.4780 -0.2566
  229MOL0     H30883   5.564   5.647   1.290 -3.0726 -1.4591 -1.2040
  229MOL0     H30884   5.495   5.717   1.156 -3.3492  0.2700  2.6033
  229MOL0     H30885   5.659   5.921   1.182  0.5245  1.0595  0.7439
  229MOL0     H30886   5.733   5.756   1.152 -2.8378 -1.6259 -1.0220
  229MOL0     H30887   5.783   5.747   1.397 -1.0577 -0.1263  1.8859
  229MOL0     H30888   5.691   5.898   1.423  0.7481  0.8617 -0.2285
  229MOL0     H30889   5.925   5.884   1.227  1.6851 -0.0955  0.4919
  229MOL0     H30890   5.859   6.029   1.322  0.7947  0.1193  0.3639
  229MOL0     H30891   6.026   5.804   1.422 -0.3296  0.0534  1.2066
  229MOL0     H30892   5.939   5.900   1.534  1.2707  2.0267  0.6574
  229MOL0     H30893   6.129   6.038   1.347  2.5956 -0.0343  0.4934
  229MOL0     H30894   6.064   6.107   1.495  2.3885  0.5481 -0.3982
  229MOL0     H30895   5.304   5.399   1.475 -0.2138 -1.0671 -0.1470
  229MOL0     H30896   5.119   5.229   1.494 -2.8629 -1.5800 -1.3404
  229MOL0     H30897   4.800   5.042   1.320 -1.4569  1.9586 -1.6633
  229MOL0     H30898   4.652   4.850   1.315  4.0132  1.5033 -0.7477
  229MOL0     H30899   2.627   4.843   1.646  0.4942  1.0774 -1.6728
  229MOL0     H30900   2.413   4.893   1.598 -0.5524  1.9447 -0.6934
  229MOL0     H30901   1.993   5.022   2.030 -0.0647 -0.0451  0.1103
  229MOL0     H30902   1.773   5.069   2.038 -0.3331 -1.0514 -0.5351
  229MOL0     H30903   1.593   5.293   1.968  0.8012  1.8797 -2.3563
  229MOL0     H30904   1.566   5.126   2.005 -3.1522 -1.7922 -1.2016
  229MOL0     H30905   1.367   5.106   1.887 -0.4002  0.6177  0.4347
  229MOL0     H30906   1.390   5.253   1.794  1.9273  1.1051 -0.0339
  229MOL0     H30907   1.371   5.390   2.011 -1.0093  1.0797 -0.0957
  229MOL0     H30908   1.316   5.246   2.097  2.5456  1.1418  0.6792
  229MOL0     H30909   1.129   5.381   2.001  0.5168  2.2725 -2.9311
  229MOL0     H30910   1.202   5.364   1.839  0.2738  0.9876  0.5756
  229MOL0     H30911   1.042   4.965   1.885 -3.0430  0.9996 -0.8913
  229MOL0     H30912   1.761   5.168   1.621 -2.0622 -0.3057  1.8680
  229MOL0     H30913   2.065   4.993   1.552 -1.3152 -1.4160  2.1942
  229MOL0     H30914   1.938   5.084   1.489  1.1682  2.6788 -0.3358
  229MOL0     H30915   2.080   5.172   1.551 -0.0563  0.0911 -0.7638
  230MOL0     O30916  10.256  11.279   8.126  0.5102 -0.2191 -0.3981
  230MOL0     C30917  10.150  11.269   8.058  0.9374  0.3322  0.5654
  230MOL0     O30918  10.146  11.290   7.922  0.5071 -0.3465 -0.2847
  230MOL0     C30919  10.248  11.347   7.861 -0.6630 -0.0534  0.6149
  230MOL0     C30920  10.255  11.483   7.845 -0.3905 -0.6659  0.3798
  230MOL0     C30921  10.361  11.546   7.781 -0.1423  0.6732  0.8870
  230MOL0     C30922  10.460  11.469   7.715  0.6152 -0.8937 -0.2481
  230MOL0     O30923  10.560  11.521   7.641  0.0886 -0.0136 -0.2607
  230MOL0     C30924  10.608  11.660   7.641 -0.5191  0.6959  0.6021
  230MOL0     C30925  10.701  11.664   7.522  0.2580  0.9833  0.1790
  230MOL0     C30926  10.824  11.570   7.523  0.7017  0.5867 -0.0817
  230MOL0     C30927  10.921  11.583   7.404  0.0277 -0.0178 -0.5199
  230MOL0     C30928  10.875  11.507   7.271 -0.1761 -0.6965 -0.5537
  230MOL0     C30929  10.992  11.523   7.172 -0.6252  0.0018  0.4235
  230MOL0     C30930  10.982  11.447   7.043  0.0953  0.6580  0.1222
  230MOL0     C30931  11.040  11.309   7.045 -0.3134  0.5139 -0.4480
  230MOL0     N30932  11.192  11.314   7.039 -0.9844  0.2289  0.2615
  230MOL0     C30933  11.267  11.292   6.924 -0.1403  1.4721 -0.3918
  230MOL0     C30934  11.389  11.314   6.956 -0.8580 -0.7697  0.1517
  230MOL0     C30935  11.503  11.310   6.858  0.2008 -0.2303  0.1745
  230MOL0     C30936  11.641  11.333   6.916  0.3543 -0.1691 -0.0896
  230MOL0     C30937  11.748  11.351   6.812  1.0395  0.4182 -0.3727
  230MOL0     C30938  11.870  11.426   6.860  0.8242  0.4353 -0.9090
  230MOL0     O30939  11.915  11.371   6.987 -0.5194 -0.3582 -0.6889
  230MOL0     C30940  12.042  11.404   7.032 -0.3970 -0.0761  0.6005
  230MOL0     C30941  12.105  11.317   7.123  0.3613 -0.5486 -0.1452
  230MOL0     C30942  12.234  11.342   7.171 -0.4255 -0.6093  0.5804
  230MOL0     C30943  12.312  11.459   7.123  0.3881 -0.6712 -0.4945
  230MOL0     C30944  12.458  11.475   7.168 -1.1889 -0.4547  0.9071
  230MOL0     O30945  12.509  11.394   7.270 -0.3783 -0.3347  0.2014
  230MOL0     C30946  12.642  11.378   7.257  0.0330 -0.4711  1.0709
  230MOL0     C30947  12.727  11.476   7.311  0.2993  0.8809 -0.0325
  230MOL0     C30948  12.857  11.461   7.285 -0.3408 -0.5643  0.4664
  230MOL0     C30949  12.919  11.361   7.215 -1.2721 -0.2919 -0.1437
  230MOL0     O30950  13.057  11.376   7.201  0.1050 -0.6387  0.3077
  230MOL0     C30951  13.124  11.305   7.089 -0.3342 -0.5431 -0.3851
  230MOL0     C30952  13.274  11.339   7.106 -1.0701 -0.0156  0.4948
  230MOL0     C30953  13.358  11.235   7.039 -0.6105  0.6476 -0.2094
  230MOL0     C30954  13.485  11.204   7.121 -0.2922 -0.7903  0.1147
  230MOL0     C30955  13.574  11.094   7.059  0.7726  0.0580  0.1039
  230MOL0     C30956  13.687  11.060   7.158 -0.3200 -0.3801 -0.1199
  230MOL0     C30957  13.800  10.982   7.088  0.8170  0.4332 -0.0485
  230MOL0     C30958  13.928  10.980   7.161 -0.1365 -0.2056 -0.0737
  230MOL0    Cl30959  14.028  10.871   7.077 -0.0299  0.6335 -0.3957
  230MOL0     C30960  12.839  11.267   7.155 -0.5775  0.8250  0.5294
  230MOL0     C30961  12.700  11.281   7.173 -0.0058 -0.2774  0.0232
  230MOL0     O30962  12.523  11.562   7.105 -0.0484  0.2148 -0.3994
  230MOL0     C30963  12.252  11.538   7.029  0.1333 -1.0602 -0.3043
  230MOL0     C30964  12.123  11.515   6.989  0.5593  0.5345  0.3804
  230MOL0     N30965  11.401  11.350   7.096  0.3109 -0.3261  0.0763
  230MOL0     N30966  11.279  11.346   7.145  0.4007 -0.2778  0.8723
  230MOL0     C30967  10.450  11.328   7.723 -0.2798  0.2580 -0.0412
  230MOL0     C30968  10.350  11.268   7.799 -0.1713  0.0479 -0.0857
  230MOL0     C30969  10.017  11.223   8.133 -0.4630  0.1946  0.0034
  230MOL0     C30970   9.892  11.274   8.100 -0.6998  0.1977 -0.1724
  230MOL0     C30971   9.781  11.263   8.178  0.4230  0.0374  0.0115
  230MOL0     C30972   9.771  11.175   8.287  0.1248  0.7287  0.1796
  230MOL0     O30973   9.662  11.157   8.369  0.0202  0.2049 -0.1516
  230MOL0     C30974   9.537  11.217   8.339 -0.1103 -0.3361  0.6723
  230MOL0     C30975   9.541  11.347   8.404 -0.1321 -0.0991  0.3903
  230MOL0     C30976   9.421  11.439   8.384  0.6258  0.0933 -0.4567
  230MOL0     C30977   9.442  11.571   8.455  0.2002 -0.3953  0.5843
  230MOL0     C30978   9.412  11.545   8.602 -0.2160 -1.0466 -0.1627
  230MOL0     C30979   9.366  11.532   8.708 -0.3209  0.7167 -0.8773
  230MOL0     C30980   9.890  11.099   8.307 -0.1790 -0.9591 -0.6509
  230MOL0     C30981  10.012  11.125   8.233  0.5748 -0.4052  0.3349
  230MOL0     C30982  10.130  11.031   8.241 -0.0652 -0.4539 -0.0700
  230MOL0     H30983  10.187  11.546   7.902 -1.9077 -0.4484 -1.5774
  230MOL0     H30984  10.363  11.654   7.770 -1.4030  0.4833 -2.9135
  230MOL0     H30985  10.529  11.735   7.627 -0.4559  0.3931 -1.9680
  230MOL0     H30986  10.673  11.679   7.727 -1.4322 -2.7820  2.2701
  230MOL0     H30987  10.740  11.766   7.515 -0.5800  1.3115  0.2369
  230MOL0     H30988  10.641  11.652   7.431 -0.3121 -0.8347  0.7436
  230MOL0     H30989  10.796  11.466   7.542  0.4780  1.0464  2.4572
  230MOL0     H30990  10.876  11.590   7.617 -0.6048 -1.2077  1.1157
  230MOL0     H30991  10.947  11.689   7.392  1.0475 -0.3050 -0.9571
  230MOL0     H30992  11.014  11.532   7.431  0.4172  0.8797 -0.1358
  230MOL0     H30993  10.858  11.402   7.297 -2.0674 -0.4469 -0.6265
  230MOL0     H30994  10.782  11.554   7.237  1.1865  1.8248 -1.0309
  230MOL0     H30995  10.994  11.630   7.150  1.1041 -0.1064 -0.0909
  230MOL0     H30996  11.086  11.502   7.224  1.6987  2.7326 -2.2129
  230MOL0     H30997  11.027  11.493   6.955  1.1190  0.1978  0.3843
  230MOL0     H30998  10.877  11.443   7.013 -0.2399 -0.0146  1.2914
  230MOL0     H30999  11.008  11.257   7.136 -0.3517  1.8924  0.3474
  230MOL0     H31000  11.002  11.255   6.958 -0.9880  0.4161 -0.0998
  230MOL0     H31001  11.228  11.252   6.831 -1.2180  0.4356  0.4664
  230MOL0     H31002  11.495  11.210   6.815  0.1034 -0.5331  0.8889
  230MOL0     H31003  11.476  11.391   6.789  0.8174 -0.2509 -0.0959
  230MOL0     H31004  11.625  11.419   6.982  0.2095  0.4687 -0.9277
  230MOL0     H31005  11.682  11.251   6.975 -0.4243 -0.7350 -0.3113
  230MOL0     H31006  11.716  11.402   6.721  2.9114 -0.8291 -1.8291
  230MOL0     H31007  11.794  11.258   6.775  1.7056  1.3417 -1.9714
  230MOL0     H31008  11.855  11.534   6.867  2.7113  0.6465  1.1504
  230MOL0     H31009  11.946  11.410   6.783 -0.2562  0.1173 -1.9276
  230MOL0     H31010  12.042  11.237   7.160 -1.5891  0.4612 -1.0838
  230MOL0     H31011  12.278  11.261   7.228  0.6979 -0.3375  0.1294
  230MOL0     H31012  12.691  11.565   7.361 -1.1333  0.6848 -0.6646
  230MOL0     H31013  12.924  11.537   7.324  1.8521 -1.8655 -0.5657
  230MOL0     H31014  13.102  11.198   7.091 -2.1389 -0.4858 -5.1473
  230MOL0     H31015  13.086  11.336   6.991 -2.5512  0.9163  0.8372
  230MOL0     H31016  13.302  11.430   7.052  1.5175  1.1279  3.4637
  230MOL0     H31017  13.307  11.352   7.209  0.9630 -1.4769  0.0833
  230MOL0     H31018  13.306  11.139   7.032 -2.5655  1.4405  1.9833
  230MOL0     H31019  13.381  11.259   6.935  1.6538  1.3789  0.4011
  230MOL0     H31020  13.459  11.183   7.225 -2.3281  1.1133  0.0606
  230MOL0     H31021  13.544  11.296   7.120 -1.8761  0.2669  0.6139
  230MOL0     H31022  13.603  11.138   6.963 -0.8090 -0.0033 -0.4180
  230MOL0     H31023  13.510  11.007   7.045 -2.2523  1.9732  0.9975
  230MOL0     H31024  13.723  11.145   7.217  0.1276 -2.0845  2.1826
  230MOL0     H31025  13.645  10.993   7.233 -0.1454 -1.6353 -1.1171
  230MOL0     H31026  13.802  11.025   6.987 -1.1691  2.7303  0.8001
  230MOL0     H31027  13.753  10.883   7.077 -2.5441  1.9772 -1.2554
  230MOL0     H31028  13.969  11.081   7.158  1.4523 -0.8351 -0.3181
  230MOL0     H31029  13.927  10.964   7.269 -0.0639  0.2130 -0.0114
  230MOL0     H31030  12.871  11.184   7.093 -0.2048  1.9453 -0.8135
  230MOL0     H31031  12.622  11.218   7.132 -1.0441  1.7162 -1.2046
  230MOL0     H31032  12.311  11.624   6.998 -0.7848 -0.3532 -0.1318
  230MOL0     H31033  12.089  11.601   6.933  3.5826  0.7391 -1.3421
  230MOL0     H31034  10.536  11.279   7.678  0.1992  0.9789  0.0678
  230MOL0     H31035  10.359  11.163   7.826  1.5572  0.4699  1.1603
  230MOL0     H31036   9.884  11.340   8.014 -0.9806 -0.9451 -1.0496
  230MOL0     H31037   9.700  11.333   8.157  1.5975  1.8295  1.2123
  230MOL0     H31038   9.456  11.156   8.380 -1.7129  0.4362 -1.1618
  230MOL0     H31039   9.517  11.223   8.231  1.5071 -0.8858  0.3164
  230MOL0     H31040   9.629  11.394   8.360 -0.4362  0.6595  0.5633
  230MOL0     H31041   9.552  11.327   8.511  3.4138  0.3497  0.2223
  230MOL0     H31042   9.334  11.384   8.422 -0.4261  0.6014 -1.9927
  230MOL0     H31043   9.398  11.449   8.277 -1.1561  1.9904  0.0326
  230MOL0     H31044   9.542  11.614   8.440 -0.7580  1.6708 -0.2756
  230MOL0     H31045   9.383  11.647   8.403 -0.1150 -1.3365 -0.4885
  230MOL0     H31046   9.323  11.516   8.805 -0.5872  1.1674 -0.9196
  230MOL0     H31047   9.886  11.016   8.378 -1.2795 -1.1699 -0.9363
  230MOL0     H31048  10.168  11.018   8.139  1.1054  1.6093  0.0519
  230MOL0     H31049  10.212  11.066   8.306  0.7208 -3.1285  0.5250
  230MOL0     H31050  10.107  10.927   8.269 -1.5377 -0.6023 -1.6846
  231MOL0     O31051   7.392   4.846   6.451  0.1390  0.1957  0.5444
  231MOL0     C31052   7.343   4.960   6.478  0.2087 -0.0811  1.2046
  231MOL0     O31053   7.420   5.075   6.484  0.2465  0.2354  1.0148
  231MOL0     C31054   7.547   5.068   6.444  0.0849  0.1441  0.2740
  231MOL0     C31055   7.640   4.976   6.496 -0.9444  0.5674 -0.2232
  231MOL0     C31056   7.778   4.972   6.455 -0.0384  0.2564 -0.1887
  231MOL0     C31057   7.827   5.068   6.367  0.4512 -0.0899 -0.1103
  231MOL0     O31058   7.962   5.060   6.331 -0.0734  0.4425 -0.0866
  231MOL0     C31059   8.041   5.173   6.378 -0.4384  0.3993  0.0562
  231MOL0     C31060   8.183   5.123   6.394 -0.4782  0.0487 -1.2375
  231MOL0     C31061   8.191   4.995   6.492 -0.4620  0.3128 -0.3781
  231MOL0     C31062   8.330   4.929   6.512 -0.5643 -0.7917 -0.1447
  231MOL0     C31063   8.319   4.788   6.561 -0.0094 -0.4827 -0.1250
  231MOL0     C31064   8.464   4.726   6.578  0.5586  0.1962 -0.0672
  231MOL0     C31065   8.454   4.571   6.593 -0.3321  0.2831 -0.9260
  231MOL0     C31066   8.600   4.506   6.598  0.7981  0.2014 -0.4075
  231MOL0     N31067   8.604   4.367   6.552  0.3361 -0.3432  0.1835
  231MOL0     C31068   8.599   4.323   6.421 -0.4171 -0.5932  0.2510
  231MOL0     C31069   8.636   4.198   6.431  0.0897  0.8610 -0.4921
  231MOL0     C31070   8.649   4.097   6.330  0.3932  0.1125 -0.3910
  231MOL0     C31071   8.502   4.066   6.289  0.1061  0.3406  0.1869
  231MOL0     C31072   8.499   3.929   6.206  0.1234 -0.0329 -0.4775
  231MOL0     C31073   8.395   3.939   6.098  0.3467  1.1518  0.7604
  231MOL0     O31074   8.263   3.940   6.154 -0.3991  0.3425  0.0670
  231MOL0     C31075   8.162   3.897   6.069 -0.3041 -0.2462  0.2501
  231MOL0     C31076   8.175   3.889   5.931  0.0445 -0.2604 -0.0374
  231MOL0     C31077   8.069   3.861   5.849  0.3147 -0.7395  0.0731
  231MOL0     C31078   7.936   3.838   5.902 -1.0987  0.3568 -0.2237
  231MOL0     C31079   7.822   3.800   5.824 -0.2936 -0.6871  0.4758
  231MOL0     O31080   7.736   3.710   5.879 -0.4295  0.4730  0.4195
  231MOL0     C31081   7.602   3.689   5.842  0.2943 -0.1411  0.1708
  231MOL0     C31082   7.523   3.624   5.934 -0.3895 -0.9962  0.3345
  231MOL0     C31083   7.396   3.595   5.902 -0.3829 -0.3903 -0.5327
  231MOL0     C31084   7.338   3.620   5.781  0.4107 -0.0106 -0.1529
  231MOL0     O31085   7.206   3.595   5.757  0.1017  0.4095  0.6964
  231MOL0     C31086   7.122   3.578   5.870 -0.5044 -0.8990  0.0710
  231MOL0     C31087   6.977   3.563   5.826 -0.6817  0.3905 -0.4538
  231MOL0     C31088   6.886   3.574   5.950 -0.3507 -0.3345 -0.0304
  231MOL0     C31089   6.746   3.554   5.907  0.2021  0.8455 -1.0384
  231MOL0     C31090   6.674   3.491   6.022 -0.1160 -0.2776  0.6137
  231MOL0     C31091   6.532   3.455   5.972 -1.6980 -0.0904 -0.1207
  231MOL0     C31092   6.459   3.376   6.075 -0.1566  0.3714  0.3050
  231MOL0     C31093   6.312   3.356   6.035 -0.4367  0.2836 -0.1868
  231MOL0    Cl31094   6.198   3.490   6.027 -0.1810 -0.2793  0.1138
  231MOL0     C31095   7.413   3.694   5.696 -0.4198 -0.3489  0.0195
  231MOL0     C31096   7.546   3.735   5.720 -0.4948 -0.1590 -0.3554
  231MOL0     O31097   7.815   3.853   5.712  0.7344  0.1722 -0.6217
  231MOL0     C31098   7.927   3.849   6.040 -0.0389 -0.0070  0.4656
  231MOL0     C31099   8.036   3.882   6.125  0.8085 -0.1079 -0.0184
  231MOL0     N31100   8.655   4.162   6.562 -0.1780  0.4754  0.8377
  231MOL0     N31101   8.638   4.265   6.636 -0.1029  0.3101  0.5161
  231MOL0     C31102   7.739   5.163   6.315  0.5682 -0.1919  0.1996
  231MOL0     C31103   7.598   5.162   6.352 -0.8280 -0.2026 -0.5737
  231MOL0     C31104   7.200   4.967   6.508 -0.2351 -0.2278  0.4810
  231MOL0     C31105   7.142   4.852   6.559  0.2361 -0.0356  0.5013
  231MOL0     C31106   7.008   4.849   6.604  0.1964 -0.7691 -0.2369
  231MOL0     C31107   6.931   4.971   6.594  0.1589  0.4303  0.2743
  231MOL0     O31108   6.808   4.972   6.656 -0.0954  0.1046  0.5287
  231MOL0     C31109   6.738   5.096   6.659 -0.1478 -0.4505  0.4371
  231MOL0     C31110   6.607   5.046   6.722  0.1638 -0.2378 -0.0329
  231MOL0     C31111   6.532   4.947   6.630 -1.0228 -1.0360 -0.8756
  231MOL0     C31112   6.402   4.907   6.688  0.3655 -0.9986  0.0158
  231MOL0     C31113   6.317   5.015   6.745  0.3874 -0.2924  0.3919
  231MOL0     C31114   6.236   5.096   6.785 -0.5078 -0.5890 -0.6687
  231MOL0     C31115   6.993   5.078   6.536 -0.6867 -0.2621 -0.0561
  231MOL0     C31116   7.122   5.081   6.487  0.4132  0.3855 -0.4798
  231MOL0     C31117   7.173   5.214   6.432 -0.2532  0.0240  0.4817
  231MOL0     H31118   7.599   4.909   6.571 -0.9412  0.4004 -0.3686
  231MOL0     H31119   7.854   4.903   6.492 -0.3416  0.9521  1.9040
  231MOL0     H31120   8.027   5.253   6.304  0.8460 -0.3316 -1.0133
  231MOL0     H31121   8.008   5.216   6.473 -3.0285  4.0763 -2.2174
  231MOL0     H31122   8.240   5.201   6.445  1.9160 -2.2405 -0.1527
  231MOL0     H31123   8.223   5.095   6.296  0.2400  1.0765 -1.2459
  231MOL0     H31124   8.137   4.919   6.435  0.0887  0.1541 -0.6937
  231MOL0     H31125   8.139   5.005   6.587 -0.9271  0.8185 -0.6767
  231MOL0     H31126   8.389   4.934   6.420 -1.2499 -0.7716 -0.5897
  231MOL0     H31127   8.386   4.984   6.587  2.5405 -0.2256 -2.6662
  231MOL0     H31128   8.277   4.792   6.662  1.0321 -0.1566  0.3159
  231MOL0     H31129   8.249   4.728   6.503 -0.5879 -1.3385  1.4170
  231MOL0     H31130   8.527   4.756   6.494  0.2004  0.0281 -0.4000
  231MOL0     H31131   8.520   4.766   6.664 -0.7496  1.0202  0.4203
  231MOL0     H31132   8.398   4.519   6.516  1.0662 -2.5872 -0.1289
  231MOL0     H31133   8.400   4.550   6.686 -0.2246  0.7558 -0.7486
  231MOL0     H31134   8.668   4.561   6.533 -0.6694  2.4486 -0.1707
  231MOL0     H31135   8.644   4.512   6.698 -1.0275 -0.4613  0.4962
  231MOL0     H31136   8.582   4.383   6.332  1.1110  1.0411  0.9951
  231MOL0     H31137   8.713   4.136   6.250 -0.9473 -1.0372 -2.1013
  231MOL0     H31138   8.711   4.015   6.366 -0.3411  0.0384  0.7466
  231MOL0     H31139   8.443   4.046   6.379 -0.9505  0.9700 -0.3540
  231MOL0     H31140   8.451   4.150   6.241  0.8030  1.9027  2.0512
  231MOL0     H31141   8.476   3.839   6.265  0.5774 -0.2483 -0.6276
  231MOL0     H31142   8.596   3.917   6.158 -0.6664  0.7226 -2.3679
  231MOL0     H31143   8.404   3.849   6.036 -1.9513  1.0852  0.4285
  231MOL0     H31144   8.414   4.023   6.030 -1.9315  1.3348  0.2554
  231MOL0     H31145   8.276   3.895   5.890 -0.4884  3.2819 -1.2484
  231MOL0     H31146   8.091   3.849   5.743 -0.5518 -0.2909 -0.1655
  231MOL0     H31147   7.571   3.595   6.027  0.4537 -0.3796  0.0980
  231MOL0     H31148   7.346   3.572   5.996 -0.4865  2.8731  0.3292
  231MOL0     H31149   7.164   3.494   5.926  2.1876  0.0515 -0.3825
  231MOL0     H31150   7.138   3.668   5.930  0.1579 -1.8171  1.3213
  231MOL0     H31151   6.954   3.641   5.753  1.1548  0.1431 -1.3614
  231MOL0     H31152   6.968   3.468   5.774 -0.1157  1.8528 -3.4746
  231MOL0     H31153   6.917   3.509   6.033  1.6079  1.4514  0.7450
  231MOL0     H31154   6.894   3.680   5.978 -0.5293  0.3999 -2.5239
  231MOL0     H31155   6.737   3.487   5.820 -2.3731 -2.4330  1.4723
  231MOL0     H31156   6.696   3.648   5.881 -0.4169  1.4049  1.8048
  231MOL0     H31157   6.663   3.548   6.114 -0.4388 -1.0454  1.0650
  231MOL0     H31158   6.727   3.400   6.051  0.9601  0.6919  1.8220
  231MOL0     H31159   6.469   3.539   5.941  0.6082  1.9180  0.2581
  231MOL0     H31160   6.541   3.400   5.878 -3.9955  2.0627 -1.7214
  231MOL0     H31161   6.464   3.419   6.175  1.8092 -0.3349  0.5585
  231MOL0     H31162   6.503   3.276   6.083 -1.5691 -0.3571 -0.6958
  231MOL0     H31163   6.302   3.296   5.945 -0.6399 -1.6337  1.0500
  231MOL0     H31164   6.275   3.285   6.109  2.2382 -1.2102 -0.1755
  231MOL0     H31165   7.356   3.727   5.609 -2.5125  0.7922  1.7269
  231MOL0     H31166   7.590   3.795   5.642 -2.5002  0.6531 -0.9263
  231MOL0     H31167   7.838   3.829   6.099 -0.5429  1.4239  0.2367
  231MOL0     H31168   8.020   3.882   6.233 -0.5575 -1.1755 -0.1866
  231MOL0     H31169   7.771   5.241   6.247  0.1943  0.6602  0.9758
  231MOL0     H31170   7.528   5.239   6.325 -0.1279  0.3490 -0.8600
  231MOL0     H31171   7.198   4.760   6.567 -1.4250 -1.1639 -0.2126
  231MOL0     H31172   6.960   4.760   6.645 -1.0194  0.3102  0.7770
  231MOL0     H31173   6.723   5.146   6.563  0.5740  0.9417  1.0184
  231MOL0     H31174   6.795   5.168   6.718 -2.4922  1.5809  0.3609
  231MOL0     H31175   6.534   5.127   6.729 -1.5872 -1.7081 -0.4302
  231MOL0     H31176   6.628   4.999   6.818  1.6967  0.5133  0.0205
  231MOL0     H31177   6.591   4.858   6.609  1.0529 -0.0316  0.3003
  231MOL0     H31178   6.520   4.999   6.535  1.4657  3.3378  0.9038
  231MOL0     H31179   6.346   4.853   6.610 -1.0319 -0.2130  0.4472
  231MOL0     H31180   6.424   4.841   6.771  0.3730 -0.2591  0.6115
  231MOL0     H31181   6.163   5.171   6.809  0.1890 -0.3612  0.8906
  231MOL0     H31182   6.937   5.170   6.522  0.1832  0.5787  1.7390
  231MOL0     H31183   7.231   5.205   6.340  0.7461  1.7121  0.8999
  231MOL0     H31184   7.094   5.286   6.407 -0.9832 -1.0671 -0.4514
  231MOL0     H31185   7.237   5.262   6.506  2.2134 -0.8499 -0.9648
  232MOL0     O31186   5.613  10.876   8.822 -0.2837 -0.3865  0.5965
  232MOL0     C31187   5.541  10.876   8.719 -0.0592 -0.3788  0.1436
  232MOL0     O31188   5.588  10.891   8.591  0.0869 -0.0836  0.2237
  232MOL0     C31189   5.725  10.897   8.582 -0.1484 -1.2096  0.3159
  232MOL0     C31190   5.771  10.999   8.504 -0.5323 -0.0666  0.0762
  232MOL0     C31191   5.906  11.027   8.493  0.1885 -0.6694 -0.2669
  232MOL0     C31192   6.004  10.946   8.567  0.4796  0.3561 -0.1813
  232MOL0     O31193   6.134  10.987   8.551  0.1154  0.3427 -0.0462
  232MOL0     C31194   6.232  10.946   8.649  0.3612  0.6760 -0.4957
  232MOL0     C31195   6.193  11.012   8.778 -0.2131  0.5926 -0.2903
  232MOL0     C31196   6.302  10.996   8.879  0.5689 -0.6186 -0.2840
  232MOL0     C31197   6.270  11.106   8.988  0.1008  0.8891 -0.3329
  232MOL0     C31198   6.385  11.100   9.090 -0.1681  0.2138  0.0090
  232MOL0     C31199   6.383  10.974   9.183 -0.9798 -0.4308 -0.5760
  232MOL0     C31200   6.454  10.989   9.316 -0.0026 -0.3814  0.0068
  232MOL0     C31201   6.602  11.026   9.304  0.8486 -0.1485 -0.4686
  232MOL0     N31202   6.682  10.900   9.296  0.3886 -0.5387 -0.4754
  232MOL0     C31203   6.736  10.826   9.397 -0.7158 -0.4539  0.5989
  232MOL0     C31204   6.813  10.729   9.332  0.5353  0.9332 -0.3197
  232MOL0     C31205   6.871  10.609   9.394 -0.1903  0.3235  0.4369
  232MOL0     C31206   6.805  10.480   9.351  0.3287  0.5433  0.7307
  232MOL0     C31207   6.809  10.446   9.196 -0.3918 -0.5390 -0.5555
  232MOL0     C31208   6.951  10.470   9.139 -0.2607 -0.0713 -0.2771
  232MOL0     O31209   7.038  10.390   9.218  0.2159  0.0033 -0.3782
  232MOL0     C31210   7.175  10.399   9.192  0.5228 -0.3823 -0.1682
  232MOL0     C31211   7.244  10.294   9.262 -0.4697 -0.1530  0.2022
  232MOL0     C31212   7.381  10.296   9.262  0.5983  0.2863 -0.2682
  232MOL0     C31213   7.455  10.392   9.189  0.4323  0.3204  0.2057
  232MOL0     C31214   7.594  10.394   9.207 -0.5273 -0.1834  0.0131
  232MOL0     O31215   7.655  10.272   9.223  0.0432 -0.4829 -0.3290
  232MOL0     C31216   7.792  10.254   9.207 -0.6054  0.0394 -0.2481
  232MOL0     C31217   7.849  10.295   9.088  0.1775 -0.7970  0.1688
  232MOL0     C31218   7.992  10.290   9.070 -0.7010  0.7922  0.2161
  232MOL0     C31219   8.069  10.242   9.176  0.1940 -0.2099 -0.7174
  232MOL0     O31220   8.202  10.214   9.160  0.5483  0.5753 -0.1000
  232MOL0     C31221   8.274  10.272   9.052 -0.3002 -0.0515 -0.4681
  232MOL0     C31222   8.413  10.239   9.070 -0.7801 -0.1429 -0.6902
  232MOL0     C31223   8.511  10.285   8.966 -0.4528  0.2630  0.8180
  232MOL0     C31224   8.649  10.233   8.989 -0.6857 -0.8026 -0.7018
  232MOL0     C31225   8.765  10.304   8.921  0.3938 -0.3865 -0.2766
  232MOL0     C31226   8.903  10.240   8.950 -0.1325  0.0925  0.5329
  232MOL0     C31227   9.014  10.331   8.895 -1.1119  0.9865  0.9610
  232MOL0     C31228   9.150  10.271   8.881  0.4370  0.2014 -1.0392
  232MOL0    Cl31229   9.225  10.218   9.043 -0.0133 -0.2066 -0.1177
  232MOL0     C31230   8.009  10.205   9.306  0.8318 -0.3762  1.0443
  232MOL0     C31231   7.870  10.218   9.321  0.5376 -0.1653  0.2603
  232MOL0     O31232   7.656  10.505   9.205  1.1099  0.0509  0.6082
  232MOL0     C31233   7.387  10.488   9.102 -0.3866  1.2388  0.5189
  232MOL0     C31234   7.246  10.484   9.103 -0.1365  0.0159 -0.4667
  232MOL0     N31235   6.812  10.756   9.194  0.3542 -0.6262 -0.0491
  232MOL0     N31236   6.724  10.853   9.175 -0.4714 -0.4413 -0.3354
  232MOL0     C31237   5.957  10.830   8.632  0.2905  0.4560 -0.9826
  232MOL0     C31238   5.818  10.810   8.645 -0.4706  0.0275  0.7342
  232MOL0     C31239   5.399  10.841   8.745  1.0918  0.9587  0.1460
  232MOL0     C31240   5.369  10.799   8.872 -0.4282  0.2146  0.5314
  232MOL0     C31241   5.232  10.779   8.908  0.0893 -0.3638 -0.0970
  232MOL0     C31242   5.131  10.793   8.817  0.2964 -0.3929  1.3342
  232MOL0     O31243   5.001  10.764   8.857 -0.5061 -0.5014  0.0880
  232MOL0     C31244   4.888  10.764   8.765  0.9283  0.0783  0.4834
  232MOL0     C31245   4.766  10.735   8.856  0.0974  0.4334  1.0915
  232MOL0     C31246   4.730  10.850   8.954 -0.0504 -0.5216  0.7502
  232MOL0     C31247   4.588  10.833   8.996  0.2658 -0.2256  0.3942
  232MOL0     C31248   4.565  10.712   9.072  0.3235 -0.2933  0.4042
  232MOL0     C31249   4.532  10.610   9.135 -0.0010  0.5334  0.0776
  232MOL0     C31250   5.162  10.834   8.681 -0.2630 -0.0663 -0.3162
  232MOL0     C31251   5.295  10.862   8.649 -0.8975  0.0686  0.3988
  232MOL0     C31252   5.319  10.903   8.505  0.4865 -0.7110  0.1436
  232MOL0     H31253   5.695  11.066   8.464 -0.9385 -1.4257 -1.5977
  232MOL0     H31254   5.946  11.117   8.447  0.1944 -0.1986  0.6363
  232MOL0     H31255   6.228  10.837   8.654 -0.1049  0.7223  0.2253
  232MOL0     H31256   6.334  10.975   8.622  0.5908 -1.6419 -2.3951
  232MOL0     H31257   6.091  10.989   8.811  0.4271 -1.4504  0.3966
  232MOL0     H31258   6.193  11.120   8.759 -0.3059  1.2520  2.9042
  232MOL0     H31259   6.399  11.029   8.840  0.8057 -0.8432  0.1189
  232MOL0     H31260   6.307  10.891   8.910 -0.7890 -0.4985  0.4527
  232MOL0     H31261   6.270  11.206   8.944 -0.5116  0.7805 -0.5827
  232MOL0     H31262   6.178  11.077   9.040  0.8473 -1.1934 -0.0799
  232MOL0     H31263   6.485  11.101   9.046  0.3576  1.1193  1.1652
  232MOL0     H31264   6.398  11.181   9.162  0.3812 -0.2975  0.5090
  232MOL0     H31265   6.280  10.949   9.207 -1.4623  1.4741 -0.4854
  232MOL0     H31266   6.430  10.891   9.130 -0.5990  0.7344 -2.1250
  232MOL0     H31267   6.436  10.900   9.377 -4.8617 -0.7670 -1.5329
  232MOL0     H31268   6.408  11.072   9.369  0.4711  0.6365 -1.1298
  232MOL0     H31269   6.623  11.079   9.211  0.7798  0.0028 -0.3989
  232MOL0     H31270   6.639  11.095   9.380  1.1791 -0.3322 -0.4609
  232MOL0     H31271   6.715  10.835   9.503  1.8244  0.0323  1.1059
  232MOL0     H31272   6.978  10.609   9.373 -0.1605  1.5557  0.5193
  232MOL0     H31273   6.856  10.609   9.502 -4.1299 -3.2059  0.1354
  232MOL0     H31274   6.836  10.385   9.396 -2.3811 -1.4282 -1.3096
  232MOL0     H31275   6.701  10.479   9.383 -1.1096  0.1231 -3.4805
  232MOL0     H31276   6.734  10.497   9.135 -0.4459 -0.4146 -0.3858
  232MOL0     H31277   6.785  10.339   9.191  1.1220 -1.2148  3.2182
  232MOL0     H31278   6.984  10.575   9.139  2.9293 -0.9551 -1.2843
  232MOL0     H31279   6.952  10.442   9.034  0.6612  0.0348 -0.3109
  232MOL0     H31280   7.189  10.233   9.333  0.2577  1.6799  2.4695
  232MOL0     H31281   7.424  10.232   9.338 -1.8215 -0.0287  0.9088
  232MOL0     H31282   7.790  10.348   9.014  1.3558  3.5596  2.0480
  232MOL0     H31283   8.032  10.320   8.974  0.4938 -2.0209 -0.2480
  232MOL0     H31284   8.238  10.241   8.953  1.9039  3.2997 -2.5297
  232MOL0     H31285   8.264  10.380   9.058 -0.0113 -0.0340 -0.3157
  232MOL0     H31286   8.451  10.292   9.158  1.8669  4.8985 -4.3824
  232MOL0     H31287   8.407  10.132   9.091  2.0551 -0.0293  1.2714
  232MOL0     H31288   8.477  10.270   8.863  0.9430 -0.6219  0.4507
  232MOL0     H31289   8.528  10.393   8.963  0.1436  0.3382  3.8599
  232MOL0     H31290   8.652  10.126   8.969  1.8132 -0.9894  0.3099
  232MOL0     H31291   8.668  10.248   9.096  1.9079  3.6965 -1.5194
  232MOL0     H31292   8.766  10.406   8.961  2.9130 -0.9183  1.2245
  232MOL0     H31293   8.749  10.305   8.812 -0.6053 -0.9076 -0.1474
  232MOL0     H31294   8.918  10.230   9.058 -1.3319 -0.6185  0.6496
  232MOL0     H31295   8.922  10.140   8.911 -0.8101  0.2655 -0.2655
  232MOL0     H31296   9.019  10.425   8.952  1.1839  0.2809  2.0716
  232MOL0     H31297   8.988  10.355   8.792  0.9138  1.8019  0.5896
  232MOL0     H31298   9.153  10.187   8.811  0.7178  0.1374 -0.9524
  232MOL0     H31299   9.221  10.350   8.852  1.0114 -0.1502 -0.6230
  232MOL0     H31300   8.072  10.161   9.383  3.7819 -1.3022 -1.6837
  232MOL0     H31301   7.824  10.188   9.415 -2.3664  1.7346 -0.4110
  232MOL0     H31302   7.441  10.557   9.038 -0.6117  2.0087  1.1449
  232MOL0     H31303   7.203  10.549   9.027  3.4051  3.1501 -0.0978
  232MOL0     H31304   6.023  10.761   8.684 -0.4978 -0.3789 -1.0566
  232MOL0     H31305   5.780  10.724   8.699 -0.6160 -0.8172 -0.6527
  232MOL0     H31306   5.444  10.778   8.947 -0.6516  2.3135  1.4110
  232MOL0     H31307   5.194  10.747   9.005 -0.1542  0.3173  0.0373
  232MOL0     H31308   4.905  10.683   8.694  0.8993  2.7065 -2.7421
  232MOL0     H31309   4.877  10.866   8.727  0.8415 -0.2007 -0.2498
  232MOL0     H31310   4.786  10.638   8.903  1.2071  0.5248  0.8360
  232MOL0     H31311   4.688  10.738   8.780  0.2237  2.8269  0.9537
  232MOL0     H31312   4.722  10.949   8.910  0.2268  0.4506  2.7795
  232MOL0     H31313   4.807  10.850   9.031  0.0411 -0.8394  0.6614
  232MOL0     H31314   4.553  10.916   9.058  1.0381  0.7297 -0.4107
  232MOL0     H31315   4.537  10.845   8.900  1.1289  2.9989  0.1903
  232MOL0     H31316   4.523  10.523   9.196  0.6861  0.4173  0.0169
  232MOL0     H31317   5.092  10.855   8.601 -0.8907  0.7175  0.4283
  232MOL0     H31318   5.379  10.830   8.450  0.5217 -1.4260  1.1036
  232MOL0     H31319   5.226  10.925   8.452  0.7934  1.8418  0.5359
  232MOL0     H31320   5.372  10.999   8.514  2.7623 -1.8571 -0.3354
  233MOL0     O31321   5.877   3.810   9.659  0.0535  0.2741  0.5706
  233MOL0     C31322   5.811   3.772   9.761 -0.7767 -0.4340 -0.5109
  233MOL0     O31323   5.863   3.724   9.883  0.6396 -0.4693  0.9680
  233MOL0     C31324   5.996   3.716   9.900 -0.1311 -0.8061  0.3131
  233MOL0     C31325   6.057   3.599   9.929 -0.2783  0.3843  0.1521
  233MOL0     C31326   6.198   3.586   9.936 -0.0535  0.2478 -0.1520
  233MOL0     C31327   6.285   3.705   9.929  0.3011 -0.2670 -0.1339
  233MOL0     O31328   6.416   3.671   9.933 -0.1952  0.1257 -0.7689
  233MOL0     C31329   6.512   3.769   9.887 -0.9655 -0.0810  0.3125
  233MOL0     C31330   6.657   3.747   9.935 -0.0838 -0.3584  0.0432
  233MOL0     C31331   6.746   3.848   9.865  0.3548 -0.1432  0.8154
  233MOL0     C31332   6.892   3.828   9.894  0.1051  0.4600  0.6881
  233MOL0     C31333   6.984   3.935   9.844 -0.1180  0.0539  0.6645
  233MOL0     C31334   7.114   3.949   9.924  0.0510  0.5261 -0.2314
  233MOL0     C31335   7.205   3.824   9.906  0.1652 -0.4132  0.9428
  233MOL0     C31336   7.314   3.837   9.798 -0.5895  0.0907  0.3168
  233MOL0     N31337   7.412   3.732   9.816 -0.2890 -0.4677  0.2622
  233MOL0     C31338   7.444   3.641   9.730  0.2802  1.0446 -0.6010
  233MOL0     C31339   7.543   3.569   9.793  1.0142 -0.2426 -0.3924
  233MOL0     C31340   7.633   3.460   9.725  0.4568  0.1411 -0.1763
  233MOL0     C31341   7.700   3.381   9.831  0.5003 -0.5643 -0.9045
  233MOL0     C31342   7.759   3.252   9.776 -0.0918  0.1350 -0.0605
  233MOL0     C31343   7.849   3.175   9.872  0.4118  0.3595 -0.5843
  233MOL0     O31344   7.927   3.088   9.799 -0.9014 -0.1892  0.3491
  233MOL0     C31345   8.028   3.023   9.864 -0.4563  0.4172  0.6706
  233MOL0     C31346   8.073   3.046   9.999 -0.0956  0.0705  0.2960
  233MOL0     C31347   8.185   2.979  10.055  0.9529 -0.1622  0.1710
  233MOL0     C31348   8.249   2.884   9.984 -0.1543  0.1454 -0.2509
  233MOL0     C31349   8.381   2.817  10.037  0.1189  0.3469 -0.6455
  233MOL0     O31350   8.429   2.860  10.159  0.2555  1.0877  1.2295
  233MOL0     C31351   8.543   2.805  10.213 -0.3324 -0.1069  0.1089
  233MOL0     C31352   8.665   2.795  10.140  0.3001 -0.0280 -0.4269
  233MOL0     C31353   8.783   2.756  10.208  0.2023 -0.1392 -0.3935
  233MOL0     C31354   8.782   2.720  10.345 -1.1247  0.2241 -0.6964
  233MOL0     O31355   8.895   2.689  10.425 -0.2312 -0.2003 -0.3372
  233MOL0     C31356   9.006   2.641  10.351 -0.0500  0.2813  0.0929
  233MOL0     C31357   9.116   2.555  10.427  0.2410 -0.1697 -0.0127
  233MOL0     C31358   9.062   2.438  10.501 -0.7775 -0.5261 -0.8326
  233MOL0     C31359   9.176   2.362  10.561  0.4772 -0.4812 -1.0645
  233MOL0     C31360   9.137   2.227  10.625  0.3751  0.2946 -0.1469
  233MOL0     C31361   9.260   2.136  10.669  0.8754 -0.2356 -0.0609
  233MOL0     C31362   9.368   2.200  10.754  0.2612  0.3734 -0.5193
  233MOL0     C31363   9.445   2.095  10.836  0.5651  1.0967 -0.5962
  233MOL0    Cl31364   9.520   1.962  10.736 -0.0894 -0.4500  0.6533
  233MOL0     C31365   8.660   2.719  10.408  0.3833  0.4125 -0.1189
  233MOL0     C31366   8.536   2.768  10.354 -0.4376 -0.0942  0.5763
  233MOL0     O31367   8.427   2.730   9.976 -0.4659 -0.1970 -0.7629
  233MOL0     C31368   8.193   2.852   9.851  0.1185 -0.0968 -0.4133
  233MOL0     C31369   8.083   2.910   9.804  0.5574  0.0131 -0.0084
  233MOL0     N31370   7.561   3.612   9.920 -0.0280 -0.3076  0.3360
  233MOL0     N31371   7.489   3.717   9.931  0.4251 -0.4504  0.0231
  233MOL0     C31372   6.219   3.826   9.914  0.4414 -0.1586  0.1105
  233MOL0     C31373   6.078   3.834   9.888  1.0738  0.6724 -0.0315
  233MOL0     C31374   5.666   3.764   9.747  0.0421 -0.8190 -0.9015
  233MOL0     C31375   5.591   3.653   9.793 -0.3814  0.0242  0.0605
  233MOL0     C31376   5.451   3.645   9.778 -0.5631 -0.1384  0.0222
  233MOL0     C31377   5.380   3.741   9.716 -0.0450  0.3020 -0.1413
  233MOL0     O31378   5.247   3.718   9.697 -0.2017 -0.7746 -0.3370
  233MOL0     C31379   5.160   3.825   9.674  0.6272  0.1232  0.2616
  233MOL0     C31380   5.016   3.779   9.705 -0.1776  0.6764  0.0890
  233MOL0     C31381   4.993   3.709   9.836  0.3620  0.0729 -0.0351
  233MOL0     C31382   5.058   3.756   9.970  0.5952  0.9738  0.4300
  233MOL0     C31383   5.086   3.896   9.982 -0.5298  0.1295  0.0965
  233MOL0     C31384   5.105   4.014   9.995 -0.2919  0.1612  0.4053
  233MOL0     C31385   5.450   3.847   9.662  0.0003 -0.0322  0.6775
  233MOL0     C31386   5.589   3.865   9.685  0.0700 -0.0694  0.0919
  233MOL0     C31387   5.649   4.001   9.640  0.3403  0.5915  0.1517
  233MOL0     H31388   6.002   3.506   9.919 -0.0223  0.4735 -2.8862
  233MOL0     H31389   6.241   3.493   9.971 -0.2948  0.4745  0.7584
  233MOL0     H31390   6.510   3.749   9.780  0.6385  0.3221  0.1752
  233MOL0     H31391   6.484   3.873   9.908  4.0888  1.3951  1.0818
  233MOL0     H31392   6.692   3.649   9.900 -2.4143 -0.4426 -2.3416
  233MOL0     H31393   6.657   3.769  10.042  1.5743  0.3289 -0.0626
  233MOL0     H31394   6.716   3.952   9.881 -3.8560 -0.7384 -1.6250
  233MOL0     H31395   6.733   3.837   9.757  2.8556  0.3750  0.4166
  233MOL0     H31396   6.902   3.814  10.002  1.1242 -0.3316  0.5004
  233MOL0     H31397   6.914   3.730   9.851  2.7550  1.2561  0.0232
  233MOL0     H31398   7.011   3.921   9.739  0.8224  1.0495  0.7664
  233MOL0     H31399   6.931   4.030   9.855  1.1796  0.6306  2.4382
  233MOL0     H31400   7.176   4.033   9.892  0.7248 -0.3215 -1.1988
  233MOL0     H31401   7.090   3.942  10.031  1.2512 -0.1380  0.0066
  233MOL0     H31402   7.150   3.729   9.899 -0.5850  0.1272 -1.2962
  233MOL0     H31403   7.255   3.811  10.003  1.1357 -0.6623  0.4194
  233MOL0     H31404   7.263   3.832   9.701 -3.7020 -0.5061  1.8473
  233MOL0     H31405   7.361   3.934   9.814 -1.1732  0.5737 -0.7673
  233MOL0     H31406   7.406   3.626   9.629  0.2345  2.9806 -0.9122
  233MOL0     H31407   7.559   3.407   9.665 -2.7498  3.1854  0.7007
  233MOL0     H31408   7.707   3.502   9.656 -2.1653  0.3917 -3.0187
  233MOL0     H31409   7.781   3.433   9.884  0.2118 -3.2227  2.4718
  233MOL0     H31410   7.628   3.358   9.909  3.3711 -1.6315  1.6384
  233MOL0     H31411   7.821   3.271   9.687  0.3600 -1.9024 -0.2436
  233MOL0     H31412   7.677   3.188   9.742 -0.2756  0.6401 -0.5834
  233MOL0     H31413   7.797   3.117   9.949  1.0418 -1.0672 -1.1987
  233MOL0     H31414   7.914   3.243   9.927  0.9030  0.0791 -0.8103
  233MOL0     H31415   8.029   3.131  10.050 -0.1627  0.3306 -0.1888
  233MOL0     H31416   8.218   2.995  10.157 -1.6780 -0.0334  1.0790
  233MOL0     H31417   8.670   2.826  10.036  1.7380 -0.8533 -0.6232
  233MOL0     H31418   8.876   2.759  10.153 -0.1335  0.8999 -0.9289
  233MOL0     H31419   8.965   2.563  10.286  2.2590 -1.6145  0.7644
  233MOL0     H31420   9.060   2.715  10.290 -2.5559  2.0271 -0.1403
  233MOL0     H31421   9.198   2.526  10.362  1.6076 -0.5690  1.8047
  233MOL0     H31422   9.176   2.615  10.497  1.2352 -1.4557  0.2631
  233MOL0     H31423   8.999   2.471  10.584 -0.6825 -0.4465 -0.7933
  233MOL0     H31424   9.009   2.365  10.439  2.1031 -1.3252 -2.5202
  233MOL0     H31425   9.229   2.417  10.639 -0.4788 -2.1027  0.8252
  233MOL0     H31426   9.246   2.334  10.482  1.3829  0.9894 -0.8263
  233MOL0     H31427   9.071   2.165  10.564  0.3763  0.7748 -0.6429
  233MOL0     H31428   9.077   2.242  10.715 -1.3209  1.3881 -1.4015
  233MOL0     H31429   9.221   2.050  10.724  1.3826 -0.0907  0.5443
  233MOL0     H31430   9.308   2.099  10.578 -1.1744 -1.6719 -0.6255
  233MOL0     H31431   9.312   2.261  10.825 -1.1009 -1.6643  0.2715
  233MOL0     H31432   9.430   2.263  10.690  0.6135 -1.2198 -1.8070
  233MOL0     H31433   9.522   2.130  10.905  1.6653 -1.9916 -0.0883
  233MOL0     H31434   9.372   2.048  10.904 -1.2063  1.7701 -1.9453
  233MOL0     H31435   8.644   2.693  10.512 -2.0759 -1.2075 -0.8261
  233MOL0     H31436   8.450   2.785  10.418  0.5434  3.7670  1.1450
  233MOL0     H31437   8.253   2.786   9.788 -1.7257 -0.7797 -1.5326
  233MOL0     H31438   8.048   2.873   9.708 -3.2004  0.6155  0.9898
  233MOL0     H31439   6.266   3.924   9.922 -0.5615  0.4599 -1.0910
  233MOL0     H31440   6.036   3.933   9.871 -3.1118 -0.6902  1.0029
  233MOL0     H31441   5.644   3.585   9.860 -2.2462 -0.3882  1.1743
  233MOL0     H31442   5.397   3.554   9.806 -1.6347  0.4115 -0.2318
  233MOL0     H31443   5.173   3.868   9.574  4.4305 -0.0778  0.5160
  233MOL0     H31444   5.188   3.905   9.743  1.6864 -0.8745  1.0368
  233MOL0     H31445   4.988   3.708   9.626 -0.2788  0.7437  0.0625
  233MOL0     H31446   4.949   3.866   9.708 -1.0468 -0.0182  2.1911
  233MOL0     H31447   5.022   3.604   9.828  0.9104  0.3608 -2.8542
  233MOL0     H31448   4.885   3.701   9.846  0.5473 -2.3046  0.7600
  233MOL0     H31449   4.996   3.714  10.051 -2.1200 -1.0525 -2.4705
  233MOL0     H31450   5.149   3.696   9.975 -0.1190 -0.1115  0.8713
  233MOL0     H31451   5.127   4.119  10.001  0.7556  0.0231 -0.6029
  233MOL0     H31452   5.399   3.928   9.612 -2.0182 -1.9931 -0.6322
  233MOL0     H31453   5.678   3.995   9.535  1.6283  0.7195  0.4800
  233MOL0     H31454   5.578   4.084   9.650  2.3074  2.0621  5.0022
  233MOL0     H31455   5.739   4.020   9.699 -1.1101 -0.7123  3.0495
  234MOL0     O31456   5.382   0.433   9.313 -0.1225 -0.3066 -0.1506
  234MOL0     C31457   5.318   0.322   9.294  0.5461 -0.3554 -0.8272
  234MOL0     O31458   5.366   0.206   9.253  0.2574  0.2337 -0.1334
  234MOL0     C31459   5.508   0.193   9.234  0.3391  0.0322  0.2324
  234MOL0     C31460   5.569   0.085   9.299 -0.2747  0.6096 -0.0451
  234MOL0     C31461   5.712   0.061   9.280  0.3633 -0.6936 -0.0735
  234MOL0     C31462   5.784   0.148   9.188  0.8198 -0.7154 -0.8871
  234MOL0     O31463   5.915   0.123   9.159 -0.3525  0.6290  0.2118
  234MOL0     C31464   5.991   0.221   9.086  0.4484  0.5700  0.1736
  234MOL0     C31465   6.032   0.338   9.180  0.0598  0.4717  0.8210
  234MOL0     C31466   6.114   0.440   9.094 -0.0839 -0.8394  0.9059
  234MOL0     C31467   6.165   0.554   9.189  0.4742  0.0814 -0.4773
  234MOL0     C31468   6.237   0.675   9.134  0.7532  0.6623  0.8006
  234MOL0     C31469   6.375   0.645   9.074  0.1133  0.6118  0.1565
  234MOL0     C31470   6.445   0.771   9.037  0.5502 -0.1646  0.1832
  234MOL0     C31471   6.549   0.778   8.927  0.3466 -0.2636 -0.4849
  234MOL0     N31472   6.675   0.735   8.979 -0.8402 -0.4248  0.9093
  234MOL0     C31473   6.771   0.816   9.032  0.8766  0.1150 -0.4978
  234MOL0     C31474   6.852   0.722   9.085  0.0081 -0.0127  0.5721
  234MOL0     C31475   6.976   0.753   9.178  0.1613  0.9986  0.1699
  234MOL0     C31476   7.078   0.851   9.123 -0.0709  0.3772  0.3860
  234MOL0     C31477   7.202   0.849   9.205 -0.9777  0.1356  0.1507
  234MOL0     C31478   7.307   0.946   9.151 -0.2930 -0.4044 -1.1351
  234MOL0     O31479   7.388   0.874   9.059 -0.1339  0.6950  0.3504
  234MOL0     C31480   7.480   0.942   8.985 -0.5730 -0.1922  0.5026
  234MOL0     C31481   7.522   0.879   8.863  0.7789 -0.3647 -0.4037
  234MOL0     C31482   7.616   0.950   8.782  0.2723 -0.1893  0.4823
  234MOL0     C31483   7.670   1.076   8.817 -0.1143 -0.9099  0.1379
  234MOL0     C31484   7.756   1.147   8.713 -0.0744 -0.2785 -0.0393
  234MOL0     O31485   7.742   1.287   8.707 -0.1650  0.1402 -0.2658
  234MOL0     C31486   7.812   1.361   8.616 -0.7870 -0.3849  0.1393
  234MOL0     C31487   7.949   1.351   8.589  0.5852  0.0124 -0.3254
  234MOL0     C31488   8.002   1.417   8.482  0.6149 -1.3001 -0.5153
  234MOL0     C31489   7.937   1.523   8.417 -0.4593 -0.5240 -0.6710
  234MOL0     O31490   8.011   1.608   8.342 -0.2491  0.2553 -0.6702
  234MOL0     C31491   7.951   1.732   8.299  0.1257  0.4203 -0.0600
  234MOL0     C31492   8.046   1.822   8.238 -0.0928  0.0013  0.5589
  234MOL0     C31493   8.168   1.750   8.161  0.4392 -0.2259  0.0454
  234MOL0     C31494   8.230   1.858   8.071 -0.1890 -0.4247  0.7447
  234MOL0     C31495   8.353   1.808   7.991 -0.1419 -1.3615  0.2780
  234MOL0     C31496   8.466   1.787   8.082 -0.1197  0.3461 -0.2125
  234MOL0     C31497   8.590   1.742   8.003  0.1262  1.2553  0.7151
  234MOL0     C31498   8.720   1.722   8.085  0.4085  0.3376  0.8197
  234MOL0    Cl31499   8.833   1.645   7.971  0.0699  0.2185  0.2798
  234MOL0     C31500   7.800   1.533   8.440  0.7958  0.5690 -0.4427
  234MOL0     C31501   7.740   1.457   8.539  0.8399 -1.3480 -0.0381
  234MOL0     O31502   7.832   1.079   8.646 -0.4352  0.7355  0.9528
  234MOL0     C31503   7.618   1.143   8.929  0.0409  0.1365  0.0055
  234MOL0     C31504   7.529   1.075   9.006 -0.0436  0.3841 -0.9969
  234MOL0     N31505   6.808   0.595   9.065 -0.6921 -0.2039  0.7451
  234MOL0     N31506   6.702   0.608   9.000 -0.5832 -0.4415  0.6048
  234MOL0     C31507   5.717   0.263   9.128 -0.5824 -0.3045  0.1329
  234MOL0     C31508   5.584   0.287   9.155  0.2351  0.6456  0.2133
  234MOL0     C31509   5.174   0.324   9.337  0.0306 -0.3986 -0.5392
  234MOL0     C31510   5.120   0.203   9.377 -0.3743 -0.4772 -0.4544
  234MOL0     C31511   4.986   0.197   9.430 -0.1375  0.0508 -1.5023
  234MOL0     C31512   4.900   0.309   9.442 -0.4083 -0.4645  1.1239
  234MOL0     O31513   4.775   0.309   9.486  0.1782  0.6075  0.9574
  234MOL0     C31514   4.770   0.322   9.630 -0.0259 -0.6584  0.2763
  234MOL0     C31515   4.620   0.327   9.665  0.0876  0.0868  0.3758
  234MOL0     C31516   4.567   0.183   9.645  1.2808 -0.7596  0.4835
  234MOL0     C31517   4.425   0.165   9.716  0.1040  0.8253 -0.1349
  234MOL0     C31518   4.328   0.276   9.711 -0.9878 -0.1994  0.8055
  234MOL0     C31519   4.253   0.374   9.718 -0.9653  0.2126 -0.4936
  234MOL0     C31520   4.960   0.435   9.414  0.4014 -1.0348  0.2454
  234MOL0     C31521   5.087   0.447   9.353 -0.1582  1.2819 -0.2013
  234MOL0     C31522   5.126   0.585   9.323  0.2822 -0.3885 -0.6471
  234MOL0     H31523   5.505   0.025   9.363 -0.7763  1.8513  0.6589
  234MOL0     H31524   5.765  -0.021   9.327  0.3789 -0.3901  0.4448
  234MOL0     H31525   6.078   0.178   9.036  1.2016 -0.6411  2.3879
  234MOL0     H31526   5.936   0.264   9.002  2.7619  2.1902 -0.6011
  234MOL0     H31527   6.096   0.300   9.260  1.0846  2.3573  0.9689
  234MOL0     H31528   5.940   0.384   9.215  1.0895  3.4913 -0.1040
  234MOL0     H31529   6.046   0.482   9.019  0.8334  2.9653  1.9537
  234MOL0     H31530   6.196   0.393   9.039  0.9275  1.1599  0.6214
  234MOL0     H31531   6.084   0.584   9.256  1.1090  1.2716 -0.2167
  234MOL0     H31532   6.231   0.499   9.257 -0.7220 -1.4667 -0.5035
  234MOL0     H31533   6.178   0.719   9.053 -0.0484 -0.3834  0.7985
  234MOL0     H31534   6.248   0.755   9.209 -0.6712  1.5604  0.0927
  234MOL0     H31535   6.415   0.596   9.163 -2.7478 -0.8572  0.7365
  234MOL0     H31536   6.369   0.572   8.993  0.4795  1.4732 -0.6589
  234MOL0     H31537   6.495   0.801   9.130  1.0207  3.0624 -0.9902
  234MOL0     H31538   6.372   0.851   9.021  1.8013  1.3501  1.7063
  234MOL0     H31539   6.537   0.713   8.840 -0.4737 -3.1378  1.6447
  234MOL0     H31540   6.559   0.883   8.896 -1.0908 -0.2474 -0.9361
  234MOL0     H31541   6.773   0.922   9.054  3.1389  0.5871 -2.5427
  234MOL0     H31542   6.941   0.788   9.276  1.4161 -0.6751  1.2588
  234MOL0     H31543   7.026   0.658   9.198 -1.1206 -0.6833 -3.7088
  234MOL0     H31544   7.102   0.834   9.017  1.2329  2.7786  0.2343
  234MOL0     H31545   7.037   0.952   9.123  1.3850  0.9776 -0.0279
  234MOL0     H31546   7.236   0.748   9.226  0.9104  1.2761  3.1430
  234MOL0     H31547   7.173   0.876   9.307 -1.8331  1.2937 -0.3675
  234MOL0     H31548   7.370   0.979   9.234 -0.9658  0.7904 -1.0781
  234MOL0     H31549   7.262   1.040   9.116 -0.8067 -0.5489 -0.8660
  234MOL0     H31550   7.499   0.775   8.838  0.7286 -0.4694  0.0661
  234MOL0     H31551   7.634   0.909   8.683  0.4141  1.2865 -0.1133
  234MOL0     H31552   8.009   1.272   8.632  0.4436 -0.3715 -0.8221
  234MOL0     H31553   8.109   1.407   8.461  1.6956  3.2433  1.5721
  234MOL0     H31554   7.868   1.703   8.235 -0.1517  0.4143  0.3003
  234MOL0     H31555   7.912   1.778   8.390  1.6593 -2.1814  2.0505
  234MOL0     H31556   7.985   1.873   8.162 -2.0090 -1.4975  0.9940
  234MOL0     H31557   8.090   1.890   8.310 -0.5373  0.9281 -0.0216
  234MOL0     H31558   8.245   1.727   8.235  0.3507 -1.0999 -0.1284
  234MOL0     H31559   8.144   1.655   8.111  0.8521 -1.4671  2.1094
  234MOL0     H31560   8.266   1.942   8.132 -0.4470  1.0076 -0.9755
  234MOL0     H31561   8.151   1.894   8.005  0.8092  0.3542 -0.0677
  234MOL0     H31562   8.382   1.887   7.920 -0.6991 -0.6618  0.8172
  234MOL0     H31563   8.322   1.719   7.935  0.9686 -0.4848 -1.8755
  234MOL0     H31564   8.495   1.887   8.117  1.7390  0.6677 -2.4249
  234MOL0     H31565   8.445   1.714   8.161  0.0029  2.0659  1.4712
  234MOL0     H31566   8.605   1.811   7.920  1.7538 -0.0068 -0.1015
  234MOL0     H31567   8.565   1.641   7.968  5.6956 -0.4341  0.6592
  234MOL0     H31568   8.760   1.822   8.102  1.2096  0.9472 -3.4816
  234MOL0     H31569   8.711   1.665   8.178 -1.0053  0.4618  0.7795
  234MOL0     H31570   7.731   1.603   8.396 -0.8434 -0.4499  0.4132
  234MOL0     H31571   7.633   1.467   8.552  1.0584  0.0830  0.9206
  234MOL0     H31572   7.658   1.241   8.950  0.8299 -0.1949  0.1008
  234MOL0     H31573   7.480   1.128   9.087  1.6819  0.5778 -0.0292
  234MOL0     H31574   5.762   0.347   9.076 -2.7500 -0.8730 -2.9156
  234MOL0     H31575   5.526   0.366   9.108  0.0315  0.5392  0.2864
  234MOL0     H31576   5.175   0.110   9.368  0.7791  0.2238 -0.8321
  234MOL0     H31577   4.940   0.099   9.438  1.6360 -0.6882  1.2932
  234MOL0     H31578   4.817   0.418   9.655 -3.3500  0.7498  1.7769
  234MOL0     H31579   4.832   0.240   9.666  2.5298  0.5732 -0.9802
  234MOL0     H31580   4.571   0.400   9.598 -1.0151  1.5518  2.6441
  234MOL0     H31581   4.609   0.366   9.767  1.2902  0.2730  0.4414
  234MOL0     H31582   4.634   0.106   9.684  1.1819 -0.2149  1.7976
  234MOL0     H31583   4.550   0.171   9.538  0.7823 -0.0843  0.4754
  234MOL0     H31584   4.368   0.075   9.689  0.2118 -0.0279  2.2110
  234MOL0     H31585   4.442   0.152   9.823 -0.9592  1.5713  0.1451
  234MOL0     H31586   4.182   0.453   9.729 -1.8067 -0.6057  0.1784
  234MOL0     H31587   4.889   0.517   9.425 -1.9889 -3.1808  2.2582
  234MOL0     H31588   5.195   0.587   9.238  2.0821  1.6661  0.7618
  234MOL0     H31589   5.040   0.646   9.295 -0.0502  0.0579  1.2404
  234MOL0     H31590   5.168   0.642   9.406 -2.0598 -0.1579  0.4465
  235MOL0     O31591   3.009   6.909   0.890  0.5321 -0.7943 -0.0935
  235MOL0     C31592   2.970   7.023   0.911  0.0545 -0.5110 -0.4635
  235MOL0     O31593   3.049   7.128   0.898  0.0168  0.2763  0.0763
  235MOL0     C31594   3.174   7.127   0.834 -0.7849 -0.5479 -0.3884
  235MOL0     C31595   3.220   7.254   0.792  0.2196  0.8103  0.1916
  235MOL0     C31596   3.338   7.267   0.720  0.4303  0.8718  0.8801
  235MOL0     C31597   3.427   7.159   0.712 -0.1584 -0.4292  0.1944
  235MOL0     O31598   3.542   7.153   0.632  0.6341 -0.1004 -0.0445
  235MOL0     C31599   3.580   7.277   0.556  1.2868 -0.0747  0.0443
  235MOL0     C31600   3.722   7.251   0.484  0.3520  0.3838 -0.8147
  235MOL0     C31601   3.749   7.343   0.362  0.1714  0.0422 -0.0396
  235MOL0     C31602   3.870   7.290   0.277  0.5250  2.0408 -0.1025
  235MOL0     C31603   3.998   7.324   0.351 -0.7474  0.5544 -0.4924
  235MOL0     C31604   4.119   7.315   0.250 -0.4408  0.3532  0.2530
  235MOL0     C31605   4.248   7.353   0.324  0.4655 -0.1427  0.7007
  235MOL0     C31606   4.363   7.352   0.224 -0.3195  0.3879 -0.2213
  235MOL0     N31607   4.374   7.479   0.153  0.2517  0.4180  0.2653
  235MOL0     C31608   4.493   7.549   0.148  0.7776 -0.1383 -0.7738
  235MOL0     C31609   4.479   7.639   0.055 -0.7459 -0.3662  0.4006
  235MOL0     C31610   4.575   7.745   0.020 -0.8457  0.4318  0.6484
  235MOL0     C31611   4.688   7.688  -0.073  0.5439 -0.4801  0.3227
  235MOL0     C31612   4.789   7.591   0.000  0.1911  0.3551 -0.6503
  235MOL0     C31613   4.866   7.664   0.117  0.7165  0.0810 -0.8176
  235MOL0     O31614   4.948   7.776   0.080  0.1136 -0.3077  0.1797
  235MOL0     C31615   5.082   7.765   0.063  0.6450 -0.1155  0.1369
  235MOL0     C31616   5.134   7.856  -0.018  0.4235 -0.0319  0.0699
  235MOL0     C31617   5.270   7.852  -0.047  0.9918 -0.5168 -0.4580
  235MOL0     C31618   5.354   7.751   0.005  0.2125 -0.0681  0.7948
  235MOL0     C31619   5.495   7.747  -0.024 -0.3354  0.5882 -0.2441
  235MOL0     O31620   5.566   7.673   0.074 -0.1255 -0.6363  0.2855
  235MOL0     C31621   5.699   7.641   0.078  0.4865  0.4017 -0.3841
  235MOL0     C31622   5.729   7.562   0.184  0.5084 -0.9806 -0.6973
  235MOL0     C31623   5.860   7.541   0.210  0.1849  0.2261 -0.1011
  235MOL0     C31624   5.964   7.582   0.127 -0.6311 -0.4030 -0.1643
  235MOL0     O31625   6.098   7.558   0.161 -0.1576  0.1583 -0.8899
  235MOL0     C31626   6.138   7.493   0.280  0.4936 -0.2677 -0.1308
  235MOL0     C31627   6.295   7.494   0.275 -0.5121  0.6132 -0.0388
  235MOL0     C31628   6.340   7.450   0.134  0.4627  0.3174 -0.0235
  235MOL0     C31629   6.500   7.454   0.135  0.6851 -0.0292  0.4256
  235MOL0     C31630   6.559   7.393   0.005  0.0651 -0.8187 -1.1396
  235MOL0     C31631   6.712   7.388   0.008 -0.2278  0.6207  0.4336
  235MOL0     C31632   6.769   7.331  -0.122  0.3597  0.1596  0.3508
  235MOL0     C31633   6.921   7.364  -0.132 -0.2204 -0.4839  0.3251
  235MOL0    Cl31634   7.011   7.242  -0.023  0.0657  0.2200 -0.0313
  235MOL0     C31635   5.935   7.653   0.015  0.0440  0.1752 -0.0336
  235MOL0     C31636   5.800   7.684  -0.007  0.2593 -0.1950 -0.0703
  235MOL0     O31637   5.541   7.800  -0.122 -0.4426 -0.4916  0.1197
  235MOL0     C31638   5.301   7.660   0.093  0.8236  0.3958  0.7004
  235MOL0     C31639   5.166   7.666   0.121 -0.1613 -0.3459 -0.6516
  235MOL0     N31640   4.358   7.617  -0.014  0.1427 -0.8305 -0.8931
  235MOL0     N31641   4.290   7.530   0.053 -0.4362 -0.2971  0.2439
  235MOL0     C31642   3.395   7.041   0.772 -0.3233 -0.7302 -0.5860
  235MOL0     C31643   3.266   7.025   0.825 -0.2297 -0.7254  0.3098
  235MOL0     C31644   2.824   7.048   0.936 -1.5351  0.1585  0.0077
  235MOL0     C31645   2.785   7.181   0.961 -0.6156  0.3348  0.0723
  235MOL0     C31646   2.656   7.217   0.966  0.5900 -0.2193  0.1281
  235MOL0     C31647   2.551   7.123   0.973 -0.5312  0.2518 -1.1718
  235MOL0     O31648   2.420   7.160   0.978 -0.5137 -0.1984 -0.1067
  235MOL0     C31649   2.385   7.275   1.051  0.4788  0.5482  0.3156
  235MOL0     C31650   2.277   7.247   1.155  0.2275  0.2276  0.0629
  235MOL0     C31651   2.136   7.237   1.084  0.1000  0.5490  0.3399
  235MOL0     C31652   2.012   7.184   1.167  0.0133  0.1634  0.6005
  235MOL0     C31653   1.909   7.292   1.184  0.5639 -0.2804 -0.0895
  235MOL0     C31654   1.833   7.385   1.207  0.5113 -0.6227  0.5959
  235MOL0     C31655   2.593   6.987   0.983 -0.3342  0.0973 -0.1681
  235MOL0     C31656   2.724   6.948   0.947 -0.4015 -0.6676 -0.8956
  235MOL0     C31657   2.752   6.797   0.948  0.0714  0.4870 -0.0775
  235MOL0     H31658   3.151   7.338   0.790  2.1435  2.5407  1.5585
  235MOL0     H31659   3.356   7.361   0.667 -0.9429 -1.1350 -3.6317
  235MOL0     H31660   3.508   7.306   0.480  0.5538 -1.1804  0.3007
  235MOL0     H31661   3.593   7.354   0.634  0.1952  0.5751 -0.3947
  235MOL0     H31662   3.725   7.150   0.443  3.1146  0.9512 -2.2329
  235MOL0     H31663   3.804   7.247   0.556 -0.2781 -0.1974 -0.1090
  235MOL0     H31664   3.758   7.448   0.389 -1.6413 -0.3056  2.2848
  235MOL0     H31665   3.659   7.340   0.300  1.3222 -0.0328 -1.7911
  235MOL0     H31666   3.861   7.183   0.260 -0.0311  2.5012 -3.6303
  235MOL0     H31667   3.867   7.337   0.178 -0.1042  3.7289  0.6735
  235MOL0     H31668   3.994   7.424   0.394  3.2906 -0.2720  2.4725
  235MOL0     H31669   3.998   7.252   0.434  0.1038  0.5971 -0.4541
  235MOL0     H31670   4.133   7.218   0.202  2.9237  0.1660  1.3276
  235MOL0     H31671   4.096   7.395   0.179 -2.9797 -0.6949 -0.1956
  235MOL0     H31672   4.262   7.277   0.401  0.3970 -0.2783  0.5799
  235MOL0     H31673   4.242   7.450   0.373  0.5785  0.6715 -0.8234
  235MOL0     H31674   4.458   7.328   0.273 -0.4198  1.0752  0.3237
  235MOL0     H31675   4.351   7.280   0.143 -0.9828  0.3752 -0.1181
  235MOL0     H31676   4.581   7.526   0.207 -0.7673 -2.0841  0.9048
  235MOL0     H31677   4.524   7.814  -0.048 -2.6625 -1.9520 -0.5266
  235MOL0     H31678   4.627   7.803   0.098  3.7816 -1.7716 -0.4509
  235MOL0     H31679   4.634   7.639  -0.155  1.4275  0.3786 -0.8137
  235MOL0     H31680   4.744   7.773  -0.113 -0.2909 -0.4496 -0.8356
  235MOL0     H31681   4.862   7.556  -0.073 -0.2734  0.5488 -1.2119
  235MOL0     H31682   4.744   7.499   0.039 -2.8034  1.7482 -0.5926
  235MOL0     H31683   4.922   7.585   0.167  0.8792  1.7027  1.7434
  235MOL0     H31684   4.795   7.694   0.195 -2.0689 -0.4033 -2.9988
  235MOL0     H31685   5.070   7.934  -0.058  0.3079  0.7010  1.6218
  235MOL0     H31686   5.315   7.929  -0.109  0.8796  1.2564  1.5321
  235MOL0     H31687   5.643   7.521   0.235 -0.2086  0.8909 -0.3002
  235MOL0     H31688   5.885   7.484   0.299  0.2362 -1.3597 -1.0846
  235MOL0     H31689   6.107   7.555   0.365 -1.9160  0.1233 -1.1946
  235MOL0     H31690   6.103   7.389   0.285 -0.7271  0.1344  0.2427
  235MOL0     H31691   6.324   7.597   0.297 -0.1102  0.2756  1.0841
  235MOL0     H31692   6.343   7.433   0.352 -0.0280  2.2679  1.0188
  235MOL0     H31693   6.309   7.347   0.113  0.9674 -0.5546  3.0593
  235MOL0     H31694   6.308   7.521   0.056 -1.6263 -0.7941 -0.2436
  235MOL0     H31695   6.533   7.400   0.224 -0.9951 -1.8151  0.0316
  235MOL0     H31696   6.519   7.562   0.145  0.0136  0.1196  0.1926
  235MOL0     H31697   6.517   7.438  -0.086  0.1104  1.0008 -0.3034
  235MOL0     H31698   6.525   7.289   0.003 -0.4826 -0.6605 -0.4211
  235MOL0     H31699   6.755   7.488   0.020  3.1541 -0.5555 -0.5748
  235MOL0     H31700   6.751   7.333   0.095  2.3330  3.2806  1.1597
  235MOL0     H31701   6.722   7.384  -0.206 -2.3659 -1.3718  0.7749
  235MOL0     H31702   6.741   7.227  -0.140  1.3824 -0.1968  0.7397
  235MOL0     H31703   6.950   7.340  -0.235  1.2447  1.1358  0.3307
  235MOL0     H31704   6.931   7.472  -0.118 -1.9595 -0.1482 -0.7092
  235MOL0     H31705   6.014   7.683  -0.053 -1.0876  1.0319 -1.0131
  235MOL0     H31706   5.776   7.750  -0.090 -2.9406 -0.4258  0.5310
  235MOL0     H31707   5.371   7.586   0.130  1.9967 -0.0541 -2.1788
  235MOL0     H31708   5.124   7.589   0.185  1.8575 -0.4231  0.6620
  235MOL0     H31709   3.470   6.963   0.774  1.8583  1.2550  0.4049
  235MOL0     H31710   3.240   6.932   0.874 -2.5151 -0.7604 -0.8210
  235MOL0     H31711   2.857   7.261   0.969 -1.6057  1.4713 -1.6782
  235MOL0     H31712   2.626   7.322   0.972  0.4750 -0.1697 -1.1251
  235MOL0     H31713   2.344   7.352   0.985 -2.8104 -1.6503 -0.4281
  235MOL0     H31714   2.468   7.326   1.102  0.1902  1.3465 -0.0031
  235MOL0     H31715   2.260   7.333   1.221 -1.5884 -0.4396  0.5057
  235MOL0     H31716   2.311   7.163   1.216  2.3302  0.9949  0.0249
  235MOL0     H31717   2.163   7.156   1.016 -3.4647 -0.1948 -0.3753
  235MOL0     H31718   2.112   7.327   1.027 -1.1674 -0.3286 -0.5637
  235MOL0     H31719   1.965   7.106   1.106  1.1646 -0.6943  0.7926
  235MOL0     H31720   2.047   7.136   1.258  1.0845  0.5431  0.3997
  235MOL0     H31721   1.767   7.468   1.224  0.5022 -0.7450  1.1880
  235MOL0     H31722   2.524   6.903   0.986 -0.3639  0.0427 -1.6187
  235MOL0     H31723   2.824   6.767   0.872  0.6227  0.5226  0.4295
  235MOL0     H31724   2.794   6.767   1.044 -0.5589  1.0868  0.4032
  235MOL0     H31725   2.664   6.737   0.923  0.0691  1.2015 -2.0106
  236MOL0     O31726   5.340   6.754   5.645 -0.0774  0.1573 -0.4897
  236MOL0     C31727   5.310   6.673   5.736 -0.8586 -0.9448  0.9521
  236MOL0     O31728   5.398   6.624   5.828  0.3919  0.0481 -0.1828
  236MOL0     C31729   5.526   6.672   5.848 -0.5454 -0.9454 -0.4417
  236MOL0     C31730   5.601   6.598   5.943  0.0969  0.2088 -0.1896
  236MOL0     C31731   5.739   6.619   5.963  0.1856 -0.1230  0.0668
  236MOL0     C31732   5.810   6.718   5.884  0.2386  0.3987  0.3288
  236MOL0     O31733   5.944   6.753   5.888 -0.1618 -0.0005 -0.2552
  236MOL0     C31734   6.032   6.676   5.971  0.5613 -0.3260 -0.6950
  236MOL0     C31735   6.174   6.716   5.920  0.1088 -0.2010  0.1646
  236MOL0     C31736   6.281   6.628   5.987  0.0170 -0.1606  0.5936
  236MOL0     C31737   6.415   6.690   5.980  0.0873 -0.2222  0.7955
  236MOL0     C31738   6.528   6.624   6.057 -0.2416 -0.1725 -0.2455
  236MOL0     C31739   6.662   6.705   6.043  0.3129 -0.3257  0.5260
  236MOL0     C31740   6.782   6.617   6.088 -0.6053  0.0607  0.7620
  236MOL0     C31741   6.905   6.692   6.035 -0.2253  0.5043  0.0550
  236MOL0     N31742   7.022   6.678   6.118  0.3815  0.4106  0.9972
  236MOL0     C31743   7.053   6.744   6.233 -0.3882  0.0438 -0.5372
  236MOL0     C31744   7.164   6.685   6.281 -0.0547  0.6814 -0.8153
  236MOL0     C31745   7.227   6.717   6.411  0.9866  0.7627  0.7549
  236MOL0     C31746   7.343   6.810   6.396 -0.1560 -0.2002  0.4462
  236MOL0     C31747   7.389   6.856   6.536 -0.2240  0.5023 -0.0919
  236MOL0     C31748   7.504   6.955   6.518 -0.2986 -1.3032 -0.4814
  236MOL0     O31749   7.541   7.006   6.646  0.3079  0.1431  0.3924
  236MOL0     C31750   7.647   7.093   6.648  0.3899 -0.0789 -0.4396
  236MOL0     C31751   7.719   7.145   6.543  0.7679  0.0535  0.4186
  236MOL0     C31752   7.821   7.235   6.568  0.0310 -0.3071 -0.0768
  236MOL0     C31753   7.854   7.278   6.698 -0.0878  0.0637  1.2368
  236MOL0     C31754   7.968   7.374   6.709 -0.7868  0.0035  0.1561
  236MOL0     O31755   7.974   7.432   6.832  0.1637  0.2130 -0.1766
  236MOL0     C31756   8.068   7.518   6.876  0.4542 -0.4037  0.0065
  236MOL0     C31757   8.034   7.597   7.000  0.1613  0.8795  0.2178
  236MOL0     C31758   8.133   7.670   7.066  0.3816  0.5813  1.1409
  236MOL0     C31759   8.256   7.695   7.000  0.3684  0.0262 -0.9077
  236MOL0     O31760   8.338   7.784   7.066  0.5195 -0.5918 -0.0208
  236MOL0     C31761   8.469   7.824   7.017  0.1854  0.6129  0.2634
  236MOL0     C31762   8.544   7.895   7.128 -0.0356 -1.0990  0.4514
  236MOL0     C31763   8.682   7.920   7.068  1.1067  0.1964  0.1393
  236MOL0     C31764   8.786   7.997   7.158 -0.0854 -0.0474  0.0749
  236MOL0     C31765   8.922   8.026   7.101 -0.4841  1.1464 -0.5050
  236MOL0     C31766   9.004   7.904   7.052  0.3655  0.5416  0.4498
  236MOL0     C31767   9.151   7.942   7.029  0.4682 -0.3979  0.6042
  236MOL0     C31768   9.239   7.826   6.978  0.8421 -0.8867 -0.1984
  236MOL0    Cl31769   9.411   7.881   6.978 -0.3506  0.5490  0.1111
  236MOL0     C31770   8.278   7.646   6.867  0.0146 -0.3827 -0.8331
  236MOL0     C31771   8.187   7.566   6.806 -0.0703  0.8740  0.0795
  236MOL0     O31772   8.046   7.376   6.616  0.0328  0.3969  0.0359
  236MOL0     C31773   7.786   7.228   6.801  1.0192 -0.6085 -0.1565
  236MOL0     C31774   7.688   7.136   6.775  0.0216  0.4338  0.7125
  236MOL0     N31775   7.189   6.573   6.209 -0.1151 -0.1007 -0.0097
  236MOL0     N31776   7.101   6.570   6.113 -0.4867  0.2983  0.7678
  236MOL0     C31777   5.738   6.793   5.791 -0.0389  0.6433  0.4783
  236MOL0     C31778   5.597   6.775   5.779  0.1692 -0.4771 -0.6442
  236MOL0     C31779   5.166   6.613   5.740 -0.2244 -0.6069  0.7925
  236MOL0     C31780   5.146   6.502   5.814 -0.2301  0.2340 -0.0414
  236MOL0     C31781   5.020   6.446   5.831  0.7208  0.3127 -0.1110
  236MOL0     C31782   4.915   6.504   5.757  0.8291 -0.0255 -0.2151
  236MOL0     O31783   4.794   6.441   5.796 -0.0148  0.0618  0.6304
  236MOL0     C31784   4.669   6.503   5.757 -0.0161  0.3739  0.9274
  236MOL0     C31785   4.551   6.414   5.792  0.7305  0.2860  0.8605
  236MOL0     C31786   4.523   6.421   5.942 -0.2470  0.2524 -0.2928
  236MOL0     C31787   4.402   6.328   5.976 -0.3243  0.0350 -0.2136
  236MOL0     C31788   4.275   6.385   5.928 -0.5895 -0.6197  0.5830
  236MOL0     C31789   4.169   6.413   5.888  0.1639 -0.1591 -0.3559
  236MOL0     C31790   4.925   6.618   5.678  0.6760  0.1419  0.0373
  236MOL0     C31791   5.054   6.676   5.672 -1.2140 -0.3795 -0.1907
  236MOL0     C31792   5.071   6.790   5.589  0.3388  0.3885 -0.0839
  236MOL0     H31793   5.550   6.520   5.998  0.2384  1.2689  1.5396
  236MOL0     H31794   5.794   6.563   6.038  3.9901  0.5499 -1.9726
  236MOL0     H31795   6.021   6.691   6.079 -0.4999 -0.0825 -0.8223
  236MOL0     H31796   6.019   6.570   5.948 -0.6462  0.3728 -3.7163
  236MOL0     H31797   6.194   6.821   5.941  1.6994 -0.2176 -1.0408
  236MOL0     H31798   6.171   6.705   5.811 -1.6262 -3.1466  0.3898
  236MOL0     H31799   6.285   6.530   5.940  0.3622 -0.6841  1.6781
  236MOL0     H31800   6.253   6.609   6.091  1.1861 -2.1043  0.5931
  236MOL0     H31801   6.451   6.696   5.877 -2.2581 -0.3424 -0.0966
  236MOL0     H31802   6.401   6.793   6.013 -0.7066  0.3547 -1.2167
  236MOL0     H31803   6.498   6.629   6.162 -0.0501  0.9949 -0.2346
  236MOL0     H31804   6.527   6.522   6.018  0.6271 -0.1274 -0.4050
  236MOL0     H31805   6.687   6.733   5.941 -0.9103  1.5205  0.6919
  236MOL0     H31806   6.657   6.789   6.113 -0.2724 -0.3212  0.4862
  236MOL0     H31807   6.773   6.522   6.034 -1.2825  0.8270 -0.5214
  236MOL0     H31808   6.790   6.610   6.196  0.9794 -4.5977  0.5659
  236MOL0     H31809   6.931   6.649   5.938 -1.0316  1.7473 -0.7428
  236MOL0     H31810   6.891   6.799   6.022 -0.5688  0.1880 -2.5681
  236MOL0     H31811   7.004   6.820   6.293 -0.8362 -1.5202  1.1822
  236MOL0     H31812   7.151   6.762   6.476 -2.4951 -2.4295 -0.8102
  236MOL0     H31813   7.261   6.628   6.465  2.6029  2.4125  2.6835
  236MOL0     H31814   7.425   6.762   6.341 -0.5865  0.5293 -0.8726
  236MOL0     H31815   7.317   6.901   6.341  1.1230  1.1841  2.0412
  236MOL0     H31816   7.413   6.772   6.603 -0.0984  1.6612  1.3737
  236MOL0     H31817   7.305   6.907   6.584 -0.2954 -0.0080  0.3365
  236MOL0     H31818   7.473   7.036   6.451  1.5725  2.5453  2.8365
  236MOL0     H31819   7.590   6.909   6.469 -0.8034 -3.3525  0.4358
  236MOL0     H31820   7.692   7.120   6.440 -1.1096  1.2876  0.5696
  236MOL0     H31821   7.869   7.270   6.477 -0.6932  1.1700  0.0742
  236MOL0     H31822   7.932   7.586   7.036  0.7855 -2.3821  1.3590
  236MOL0     H31823   8.114   7.715   7.164  2.2994  0.6000  1.5510
  236MOL0     H31824   8.516   7.728   6.993 -1.9415  0.1187 -2.4441
  236MOL0     H31825   8.468   7.891   6.931  1.8202 -0.0566 -0.3101
  236MOL0     H31826   8.487   7.985   7.151  1.3848  0.3902 -1.5140
  236MOL0     H31827   8.535   7.832   7.217 -0.5814 -3.6832 -1.3010
  236MOL0     H31828   8.733   7.829   7.035  2.7136  2.6242 -5.3310
  236MOL0     H31829   8.674   7.973   6.972 -0.9903  1.0697  0.7579
  236MOL0     H31830   8.792   7.945   7.255 -1.6226  0.7486  0.6341
  236MOL0     H31831   8.738   8.092   7.181  0.6206  0.4908 -0.6266
  236MOL0     H31832   8.981   8.077   7.177  4.2182 -1.8161 -1.7299
  236MOL0     H31833   8.898   8.090   7.016 -4.7461  0.2070 -0.2198
  236MOL0     H31834   8.985   7.816   7.114 -3.9681  1.7800  1.2641
  236MOL0     H31835   8.965   7.873   6.954  1.6843 -0.3468  0.1893
  236MOL0     H31836   9.194   7.981   7.122  1.5398 -0.2267  0.0604
  236MOL0     H31837   9.146   8.014   6.947  0.6884 -1.7179 -0.5926
  236MOL0     H31838   9.235   7.740   7.046  0.0006 -1.1612 -0.5878
  236MOL0     H31839   9.201   7.793   6.881  1.5218 -2.1649 -0.0490
  236MOL0     H31840   8.368   7.678   6.816  0.0478  1.7629  0.4741
  236MOL0     H31841   8.203   7.534   6.704 -0.2138 -2.0496  0.8793
  236MOL0     H31842   7.807   7.252   6.905 -0.4956  0.2377 -0.0152
  236MOL0     H31843   7.644   7.088   6.862  1.4246 -1.9187  0.2193
  236MOL0     H31844   5.792   6.860   5.726  1.2476  0.4645  1.3390
  236MOL0     H31845   5.554   6.842   5.705  0.8858 -0.2841 -0.9012
  236MOL0     H31846   5.227   6.446   5.859 -0.7975 -0.5997 -0.0318
  236MOL0     H31847   5.013   6.359   5.895  1.0905 -1.0561 -1.8640
  236MOL0     H31848   4.674   6.521   5.650  3.0722  0.5151  1.0238
  236MOL0     H31849   4.649   6.597   5.809  0.3416  0.1625  1.4605
  236MOL0     H31850   4.546   6.309   5.764  0.1356 -0.0904  2.2722
  236MOL0     H31851   4.470   6.461   5.736  1.3112  0.5385  0.2211
  236MOL0     H31852   4.498   6.525   5.966 -0.0984  0.6809 -1.9010
  236MOL0     H31853   4.616   6.386   5.987 -0.3582 -2.0130 -1.6351
  236MOL0     H31854   4.422   6.235   5.923  2.7366  2.1327 -3.1564
  236MOL0     H31855   4.398   6.308   6.084 -1.3128 -0.4246 -0.3311
  236MOL0     H31856   4.075   6.447   5.848 -0.4175 -0.2349  0.8804
  236MOL0     H31857   4.841   6.676   5.642  1.0069  0.1959 -0.6671
  236MOL0     H31858   4.972   6.818   5.554  0.2776  1.1340  0.6350
  236MOL0     H31859   5.118   6.881   5.630  0.9734 -0.4068  1.0116
  236MOL0     H31860   5.118   6.748   5.500 -3.6158 -0.4387 -1.9620
  237MOL0     O31861   4.369   3.995   4.273  0.2379 -0.8741 -0.2155
  237MOL0     C31862   4.391   3.990   4.155  0.4169  0.1033  0.2056
  237MOL0     O31863   4.497   4.054   4.095 -0.2634  0.0056 -0.2053
  237MOL0     C31864   4.587   4.130   4.166 -0.7775  0.1997 -1.0634
  237MOL0     C31865   4.550   4.266   4.192  1.2307  0.7293 -0.6439
  237MOL0     C31866   4.630   4.338   4.283  0.3970  0.3240 -0.1782
  237MOL0     C31867   4.740   4.275   4.351  0.6745 -0.4524  0.4626
  237MOL0     O31868   4.822   4.345   4.432 -0.4256  0.3655 -0.0385
  237MOL0     C31869   4.763   4.458   4.501 -0.0025 -0.0247 -0.6971
  237MOL0     C31870   4.800   4.591   4.438 -0.2467  0.0288  0.2584
  237MOL0     C31871   4.721   4.714   4.518 -0.8211 -0.4981  0.9737
  237MOL0     C31872   4.683   4.842   4.448  0.0016  0.2756  0.5883
  237MOL0     C31873   4.810   4.899   4.366 -0.0261  0.4226  0.0688
  237MOL0     C31874   4.925   4.933   4.461 -0.8785 -0.4577 -0.1110
  237MOL0     C31875   5.024   5.037   4.406  0.4293  0.1831 -0.1078
  237MOL0     C31876   5.152   5.042   4.482 -0.0152  0.0079  0.5959
  237MOL0     N31877   5.252   5.090   4.387 -0.8116  0.3216  0.0799
  237MOL0     C31878   5.302   5.030   4.277  0.0514  0.1093  0.9963
  237MOL0     C31879   5.367   5.121   4.203 -0.4339  0.3478 -0.4012
  237MOL0     C31880   5.438   5.124   4.075 -0.6402  0.2287  0.9306
  237MOL0     C31881   5.329   5.146   3.963  0.0363 -0.2449 -0.3724
  237MOL0     C31882   5.395   5.178   3.822 -0.6722  0.5645  0.2898
  237MOL0     C31883   5.290   5.180   3.714 -0.6453  0.5193  0.5239
  237MOL0     O31884   5.356   5.169   3.583 -0.0197  0.4710 -0.2034
  237MOL0     C31885   5.282   5.155   3.473  0.0146 -0.5622  0.4518
  237MOL0     C31886   5.150   5.200   3.459 -0.3040 -0.7959 -0.2224
  237MOL0     C31887   5.079   5.167   3.339  0.0989  0.4563 -0.1915
  237MOL0     C31888   5.147   5.121   3.222 -0.1627 -0.3676  0.9144
  237MOL0     C31889   5.079   5.106   3.093 -0.2320 -0.0765 -0.3513
  237MOL0     O31890   4.945   5.140   3.079 -0.5404 -0.2890 -0.3355
  237MOL0     C31891   4.888   5.114   2.962  0.1539  0.4754  0.2124
  237MOL0     C31892   4.945   5.141   2.836 -0.3175 -0.9713  0.5369
  237MOL0     C31893   4.869   5.120   2.717 -0.7255 -0.2970  0.1797
  237MOL0     C31894   4.739   5.074   2.721  0.2202  0.3787  0.2446
  237MOL0     O31895   4.675   5.045   2.603 -0.7015 -0.2312  0.9998
  237MOL0     C31896   4.565   4.946   2.610  0.3186  0.0705 -0.3798
  237MOL0     C31897   4.515   4.883   2.476 -0.0341 -0.9104  0.5044
  237MOL0     C31898   4.608   4.781   2.408 -0.1206  0.1281 -0.3253
  237MOL0     C31899   4.534   4.680   2.316  0.2046 -0.3496 -0.6898
  237MOL0     C31900   4.625   4.589   2.233  1.0003 -0.1356  0.1465
  237MOL0     C31901   4.703   4.492   2.317  0.4378 -0.3737 -0.0800
  237MOL0     C31902   4.774   4.388   2.221  0.3901  0.6315  0.0032
  237MOL0     C31903   4.873   4.302   2.298 -0.4202  0.2813  0.3251
  237MOL0    Cl31904   4.789   4.163   2.369  0.7738 -0.0144 -0.0512
  237MOL0     C31905   4.675   5.068   2.841  0.1632 -0.0250  0.7899
  237MOL0     C31906   4.752   5.094   2.956  0.6954  0.7330 -0.6245
  237MOL0     O31907   5.156   5.074   3.006  0.1551  0.8988 -0.2453
  237MOL0     C31908   5.291   5.093   3.232 -1.0019  0.5531  0.3053
  237MOL0     C31909   5.352   5.124   3.356 -0.3109 -0.1111  0.2968
  237MOL0     N31910   5.356   5.243   4.276  0.3525  0.8019 -0.1266
  237MOL0     N31911   5.279   5.224   4.377 -0.7597 -0.5222 -0.5862
  237MOL0     C31912   4.771   4.143   4.320  0.7314 -0.5384 -0.1730
  237MOL0     C31913   4.692   4.065   4.229 -0.5517 -0.5622  0.3606
  237MOL0     C31914   4.288   3.915   4.070  0.1509 -0.4010 -0.5080
  237MOL0     C31915   4.266   3.961   3.936  0.2635 -0.6716 -0.0282
  237MOL0     C31916   4.199   3.885   3.842  0.3299 -0.4204  0.2087
  237MOL0     C31917   4.143   3.769   3.881 -0.1037  0.1037 -0.6836
  237MOL0     O31918   4.059   3.703   3.793 -0.4367 -0.4299  0.0693
  237MOL0     C31919   4.113   3.662   3.664 -1.1200 -0.3134  0.2444
  237MOL0     C31920   3.992   3.639   3.568 -0.2742 -0.0420  0.1736
  237MOL0     C31921   3.878   3.560   3.629  0.2208 -0.1058 -0.3192
  237MOL0     C31922   3.789   3.502   3.526 -0.1122 -0.3916  0.3656
  237MOL0     C31923   3.699   3.596   3.466  0.8765 -0.1283  0.0756
  237MOL0     C31924   3.633   3.688   3.428 -0.5770  0.2044 -0.1656
  237MOL0     C31925   4.138   3.734   4.016 -0.7354 -0.3648  0.2656
  237MOL0     C31926   4.218   3.804   4.117 -0.1079 -0.4250  1.1492
  237MOL0     C31927   4.222   3.745   4.250 -0.3202 -0.5256 -0.8711
  237MOL0     H31928   4.458   4.309   4.154  0.2289 -1.3337 -0.6956
  237MOL0     H31929   4.601   4.442   4.288 -2.0325 -0.3335  0.9343
  237MOL0     H31930   4.654   4.453   4.509  0.0837 -1.2500 -0.0098
  237MOL0     H31931   4.792   4.444   4.605  0.4618 -0.3404 -0.8633
  237MOL0     H31932   4.779   4.585   4.331 -2.6230 -3.2621  0.7573
  237MOL0     H31933   4.909   4.597   4.449 -0.2688  0.4401  0.2521
  237MOL0     H31934   4.779   4.741   4.607 -1.5846  1.4994  0.9181
  237MOL0     H31935   4.626   4.684   4.561 -1.1845  1.0283  1.3069
  237MOL0     H31936   4.602   4.831   4.375  0.9752  0.4501 -0.5714
  237MOL0     H31937   4.652   4.917   4.521 -1.5585 -1.8300  2.2234
  237MOL0     H31938   4.848   4.822   4.298 -1.0948  1.0069 -1.2211
  237MOL0     H31939   4.778   4.991   4.316 -0.6229  0.4535  0.4923
  237MOL0     H31940   4.872   4.977   4.546  0.4079 -0.1846  0.5862
  237MOL0     H31941   4.981   4.842   4.484 -1.5063 -0.6982  0.4833
  237MOL0     H31942   4.971   5.133   4.406 -0.2189 -0.1674 -0.1292
  237MOL0     H31943   5.049   4.998   4.307  1.0140 -1.0267  0.5014
  237MOL0     H31944   5.136   5.121   4.557 -1.0260  0.1656  0.2258
  237MOL0     H31945   5.175   4.952   4.538 -4.0535 -0.9117  1.0998
  237MOL0     H31946   5.279   4.928   4.247 -0.3809  0.6194 -0.4518
  237MOL0     H31947   5.514   5.202   4.087  0.5975 -0.1062 -3.1761
  237MOL0     H31948   5.493   5.031   4.054  0.7782  1.5198 -1.4991
  237MOL0     H31949   5.261   5.060   3.958 -1.8475  1.1931 -0.9224
  237MOL0     H31950   5.269   5.225   4.009  0.5234  0.2200 -0.5258
  237MOL0     H31951   5.470   5.102   3.798 -0.4289  1.4842 -2.1669
  237MOL0     H31952   5.442   5.277   3.820 -0.9654  0.7147  0.7902
  237MOL0     H31953   5.229   5.270   3.719 -0.3259  0.7470  0.3511
  237MOL0     H31954   5.227   5.092   3.727  1.8295 -1.2548  1.3410
  237MOL0     H31955   5.100   5.250   3.542 -1.3592 -0.5835 -0.9663
  237MOL0     H31956   4.972   5.178   3.324  0.5222  1.2118 -3.3519
  237MOL0     H31957   5.045   5.184   2.826 -0.0569 -0.4662  4.0060
  237MOL0     H31958   4.908   5.138   2.617 -1.1753 -1.0125 -0.1280
  237MOL0     H31959   4.579   4.859   2.675  4.0385  0.1236 -0.9202
  237MOL0     H31960   4.487   5.009   2.654  0.6935  0.3351 -0.0814
  237MOL0     H31961   4.422   4.834   2.505 -0.1451  0.3784  2.5291
  237MOL0     H31962   4.500   4.968   2.409  0.6086 -0.8895  0.3810
  237MOL0     H31963   4.698   4.835   2.378 -0.8412  2.8464  1.9114
  237MOL0     H31964   4.653   4.709   2.476 -0.0816  0.4516 -0.0051
  237MOL0     H31965   4.466   4.740   2.255 -2.3449  0.5830  2.7355
  237MOL0     H31966   4.468   4.621   2.379 -0.4680  0.8856 -0.2044
  237MOL0     H31967   4.689   4.654   2.172  1.1214  0.1958  0.6211
  237MOL0     H31968   4.558   4.523   2.177  0.3482 -1.8267  2.7020
  237MOL0     H31969   4.773   4.545   2.384 -1.8582  1.5744  0.9229
  237MOL0     H31970   4.639   4.433   2.383  0.5395 -0.9753 -0.5114
  237MOL0     H31971   4.827   4.442   2.142  0.8974  0.7815  0.4411
  237MOL0     H31972   4.695   4.332   2.171 -0.1618  1.3194  0.0939
  237MOL0     H31973   4.952   4.284   2.225 -1.9166 -3.1900 -0.6416
  237MOL0     H31974   4.909   4.363   2.381  0.1831 -0.6039  0.7226
  237MOL0     H31975   4.569   5.052   2.863  0.0442 -1.9219 -0.8647
  237MOL0     H31976   4.696   5.101   3.049  0.9162  2.4419 -0.5918
  237MOL0     H31977   5.350   5.061   3.147  0.5888 -2.9365  2.4612
  237MOL0     H31978   5.460   5.108   3.361  0.1642  2.3729 -0.6453
  237MOL0     H31979   4.859   4.100   4.366  1.0641  0.5001  0.2027
  237MOL0     H31980   4.717   3.963   4.203  1.9834  0.2888 -0.8340
  237MOL0     H31981   4.311   4.053   3.900  1.4492 -1.1037  0.2840
  237MOL0     H31982   4.188   3.921   3.740  0.2288  0.6522  0.5805
  237MOL0     H31983   4.183   3.579   3.671 -1.1649 -0.3970 -0.2902
  237MOL0     H31984   4.177   3.739   3.620 -0.3556 -0.7906  0.5165
  237MOL0     H31985   4.019   3.586   3.476 -0.1283  1.5647 -0.7473
  237MOL0     H31986   3.956   3.739   3.541 -0.5787 -0.8559 -2.8241
  237MOL0     H31987   3.814   3.622   3.692  0.3960 -2.0400  1.8872
  237MOL0     H31988   3.909   3.481   3.698  0.8895  2.1112  2.0226
  237MOL0     H31989   3.845   3.467   3.440 -2.4126  0.6440 -1.6853
  237MOL0     H31990   3.735   3.416   3.567 -0.3372 -1.0186 -1.1915
  237MOL0     H31991   3.584   3.781   3.407 -1.5346 -0.0405  0.8361
  237MOL0     H31992   4.086   3.641   4.039 -1.1349 -0.3332 -0.4598
  237MOL0     H31993   4.168   3.814   4.315  0.1186 -1.5581  0.6415
  237MOL0     H31994   4.170   3.650   4.256  0.0814 -0.6656  1.0284
  237MOL0     H31995   4.324   3.730   4.287 -0.6066  0.7948  0.5682
  238MOL0     O31996   3.717   0.787   8.232  0.4975  0.0590  0.7280
  238MOL0     C31997   3.636   0.881   8.230  0.2085  0.3419 -0.7977
  238MOL0     O31998   3.663   1.006   8.247  0.6841 -0.5585 -0.1437
  238MOL0     C31999   3.783   1.070   8.264  0.5659  1.1053  0.6031
  238MOL0     C32000   3.909   1.016   8.233 -0.2277  0.1973 -0.1687
  238MOL0     C32001   4.022   1.097   8.266 -0.3325  0.1173  0.2738
  238MOL0     C32002   4.016   1.227   8.320  0.4324  0.8852 -0.4544
  238MOL0     O32003   4.117   1.312   8.355 -0.4736 -0.1842  0.2105
  238MOL0     C32004   4.255   1.263   8.356  0.2194  0.1053 -0.2925
  238MOL0     C32005   4.327   1.369   8.417  0.6246 -0.6155  0.2579
  238MOL0     C32006   4.478   1.368   8.405  0.1082  0.4145  0.1118
  238MOL0     C32007   4.549   1.448   8.522  0.4004  0.4871 -0.6979
  238MOL0     C32008   4.697   1.443   8.507 -0.2029 -0.6445  0.7129
  238MOL0     C32009   4.771   1.528   8.608  0.1838  0.4387 -0.3655
  238MOL0     C32010   4.922   1.504   8.590 -0.1240  0.7754 -0.3296
  238MOL0     C32011   5.017   1.613   8.610  0.3728 -1.6286  0.4316
  238MOL0     N32012   5.161   1.583   8.596  0.3470  0.3407 -0.0387
  238MOL0     C32013   5.237   1.525   8.692 -0.6956  0.0595  0.7751
  238MOL0     C32014   5.359   1.506   8.635  0.3457  0.7908  0.2466
  238MOL0     C32015   5.476   1.435   8.702  0.2853  0.3917 -0.6900
  238MOL0     C32016   5.610   1.493   8.655 -0.1618 -0.1631 -0.4948
  238MOL0     C32017   5.719   1.394   8.706  0.0667 -0.0667  0.2501
  238MOL0     C32018   5.850   1.475   8.761  0.9098  0.4301 -0.8796
  238MOL0     O32019   5.889   1.572   8.673 -0.0059  0.5508  1.1256
  238MOL0     C32020   6.022   1.590   8.674 -0.2628 -1.0668  0.4331
  238MOL0     C32021   6.094   1.594   8.551  0.2555 -0.1721 -0.2219
  238MOL0     C32022   6.236   1.621   8.552  0.6447  1.1251  0.3597
  238MOL0     C32023   6.304   1.662   8.665 -0.4306  0.9889  0.2567
  238MOL0     C32024   6.440   1.723   8.654  0.5765 -0.2963  0.2582
  238MOL0     O32025   6.472   1.786   8.537 -0.2166 -0.6222  0.3784
  238MOL0     C32026   6.608   1.835   8.517 -0.2190 -0.6349  0.6398
  238MOL0     C32027   6.677   1.797   8.393  0.4044 -0.2564 -0.9054
  238MOL0     C32028   6.805   1.845   8.367  0.3987  0.3934  0.1259
  238MOL0     C32029   6.870   1.925   8.454 -0.8556  0.4291 -1.3613
  238MOL0     O32030   6.998   1.961   8.417 -0.3855  0.4156  0.4982
  238MOL0     C32031   7.088   2.011   8.519 -0.2536  0.5085  0.7754
  238MOL0     C32032   7.230   2.040   8.479 -0.4886  0.1931  0.1211
  238MOL0     C32033   7.328   2.052   8.594  0.2837 -0.0553  0.2735
  238MOL0     C32034   7.471   2.059   8.538  0.1527 -0.2043 -0.3444
  238MOL0     C32035   7.573   2.120   8.641 -0.1381 -0.1619  0.8157
  238MOL0     C32036   7.715   2.088   8.589 -0.2800 -0.7103 -0.8618
  238MOL0     C32037   7.823   2.163   8.661 -0.1047 -0.7529 -0.6347
  238MOL0     C32038   7.955   2.105   8.605 -0.6279 -0.4518  0.5533
  238MOL0    Cl32039   8.006   2.182   8.451  0.0203 -0.1289  0.0422
  238MOL0     C32040   6.805   1.965   8.569 -0.5291 -0.1765 -0.2056
  238MOL0     C32041   6.675   1.928   8.595  0.2886  0.8981 -0.0720
  238MOL0     O32042   6.511   1.720   8.753  0.5364  0.1445 -0.1460
  238MOL0     C32043   6.231   1.669   8.781  0.4626 -0.7568 -0.4467
  238MOL0     C32044   6.094   1.645   8.786  0.3703  0.4727 -0.5327
  238MOL0     N32045   5.360   1.540   8.499  0.7217 -0.5491 -0.1436
  238MOL0     N32046   5.241   1.595   8.483  0.8738  0.3768 -0.2894
  238MOL0     C32047   3.882   1.279   8.338 -1.2737 -0.1550  0.4530
  238MOL0     C32048   3.771   1.204   8.305 -0.4034  0.1153 -0.7542
  238MOL0     C32049   3.489   0.860   8.197 -0.1455 -1.1727 -0.1763
  238MOL0     C32050   3.426   0.964   8.126  0.7981  0.0295  0.3236
  238MOL0     C32051   3.290   0.951   8.102  0.2106  0.1103 -0.1293
  238MOL0     C32052   3.216   0.843   8.157 -0.6387 -0.3809 -0.0812
  238MOL0     O32053   3.083   0.824   8.149  0.0757  0.3876 -0.3082
  238MOL0     C32054   2.992   0.940   8.128  0.5027  0.4618  0.7609
  238MOL0     C32055   2.851   0.882   8.104 -0.6988 -1.3151  0.0787
  238MOL0     C32056   2.746   0.989   8.075  0.0442 -0.2876 -0.1416
  238MOL0     C32057   2.615   0.922   8.037 -0.4842 -0.1872 -0.1105
  238MOL0     C32058   2.501   1.016   8.032 -0.5723 -0.1890  0.5884
  238MOL0     C32059   2.403   1.089   8.026 -0.0057 -0.3634  0.0317
  238MOL0     C32060   3.285   0.739   8.208  1.1483  0.5593  0.4133
  238MOL0     C32061   3.415   0.741   8.231  0.0558  0.1392 -0.1365
  238MOL0     C32062   3.484   0.619   8.289  0.0733  0.2918  0.1626
  238MOL0     H32063   3.917   0.913   8.198  0.1562 -0.5971  2.0640
  238MOL0     H32064   4.126   1.071   8.252 -0.6375 -0.3284 -1.4357
  238MOL0     H32065   4.278   1.169   8.407  5.2744  0.5953 -1.2308
  238MOL0     H32066   4.285   1.256   8.252 -3.7321 -0.8333 -1.5598
  238MOL0     H32067   4.310   1.372   8.524  1.0787  3.3568  0.3575
  238MOL0     H32068   4.303   1.468   8.378  1.1779 -0.0978  1.1986
  238MOL0     H32069   4.509   1.411   8.309 -7.1796 -0.3469 -3.1929
  238MOL0     H32070   4.519   1.267   8.413  0.4317  0.4052 -1.3847
  238MOL0     H32071   4.520   1.553   8.537  1.6570  0.9507 -1.3320
  238MOL0     H32072   4.521   1.399   8.615  2.5150  0.3431 -0.0777
  238MOL0     H32073   4.717   1.336   8.519 -0.3066 -0.9753 -1.5930
  238MOL0     H32074   4.717   1.461   8.401  0.1635 -0.2764  0.8454
  238MOL0     H32075   4.742   1.632   8.591  1.4776  0.4976 -2.6201
  238MOL0     H32076   4.736   1.491   8.704  0.4917 -1.1669 -0.8364
  238MOL0     H32077   4.948   1.463   8.492  0.5917  0.0969  0.1311
  238MOL0     H32078   4.941   1.432   8.670 -3.0188  0.3008  0.0295
  238MOL0     H32079   4.995   1.692   8.537 -2.1330 -1.3505  1.3786
  238MOL0     H32080   4.991   1.664   8.703 -1.7355  1.5952 -1.6958
  238MOL0     H32081   5.212   1.501   8.795 -0.0289  0.4183  1.0250
  238MOL0     H32082   5.469   1.451   8.809  0.1878 -2.4780 -0.1740
  238MOL0     H32083   5.478   1.325   8.693  2.6769  0.4128 -1.1695
  238MOL0     H32084   5.614   1.503   8.546  3.8364 -0.3274 -0.5152
  238MOL0     H32085   5.621   1.590   8.705 -0.3414 -0.9262  1.0884
  238MOL0     H32086   5.737   1.329   8.620 -0.4013  2.0418 -1.5282
  238MOL0     H32087   5.698   1.337   8.797 -3.3520  1.2015  0.4275
  238MOL0     H32088   5.931   1.404   8.779  2.7201  2.4001 -0.8433
  238MOL0     H32089   5.822   1.527   8.853  0.2859  2.4632 -2.1590
  238MOL0     H32090   6.036   1.559   8.466  1.3455 -1.7399 -0.3608
  238MOL0     H32091   6.280   1.608   8.453 -0.9386 -2.2935 -0.0415
  238MOL0     H32092   6.626   1.735   8.321  1.8096 -2.4704 -0.0891
  238MOL0     H32093   6.843   1.811   8.271 -1.6137 -1.5889 -0.0494
  238MOL0     H32094   7.037   2.097   8.565 -1.2954  0.1623  0.2897
  238MOL0     H32095   7.090   1.933   8.595  3.7021  2.2968  2.8347
  238MOL0     H32096   7.267   1.961   8.413  0.7331  0.0857  0.9084
  238MOL0     H32097   7.237   2.139   8.435 -0.0030 -0.1710 -0.6431
  238MOL0     H32098   7.314   2.144   8.651  1.5441  1.1034 -1.2213
  238MOL0     H32099   7.317   1.972   8.669  1.4964  1.5260  2.2599
  238MOL0     H32100   7.477   2.113   8.443  0.8421  1.0764  0.3949
  238MOL0     H32101   7.495   1.954   8.522  0.2586  0.0955 -2.4135
  238MOL0     H32102   7.557   2.075   8.739  0.3920 -1.0333  0.5124
  238MOL0     H32103   7.550   2.226   8.659  3.7859  0.7520  1.2972
  238MOL0     H32104   7.742   1.982   8.595  0.7751 -0.8421 -4.7226
  238MOL0     H32105   7.726   2.115   8.483  1.0341  0.4887 -0.4468
  238MOL0     H32106   7.822   2.144   8.768  3.2900  1.7156 -0.0134
  238MOL0     H32107   7.818   2.270   8.638 -0.8809 -1.0871 -2.2334
  238MOL0     H32108   8.036   2.115   8.678  0.0492  1.1784 -0.3719
  238MOL0     H32109   7.945   1.997   8.592 -2.6667 -0.6167  2.6826
  238MOL0     H32110   6.849   2.030   8.644  1.1575  0.2915 -1.5330
  238MOL0     H32111   6.614   1.950   8.682 -1.0207  0.1844 -0.7825
  238MOL0     H32112   6.271   1.708   8.874  1.3000 -2.6335  0.0156
  238MOL0     H32113   6.041   1.684   8.872 -1.4947  0.4587 -1.6045
  238MOL0     H32114   3.872   1.376   8.385 -0.3801 -0.2632  0.8833
  238MOL0     H32115   3.676   1.253   8.322 -0.6368 -0.4592 -0.3374
  238MOL0     H32116   3.470   1.054   8.085 -2.1568  0.5012 -2.0998
  238MOL0     H32117   3.244   1.029   8.041  0.1803 -0.8284 -1.3446
  238MOL0     H32118   3.035   0.994   8.043 -1.8634 -0.7485 -1.3269
  238MOL0     H32119   2.988   0.999   8.220  1.7535  0.8521  0.5837
  238MOL0     H32120   2.818   0.824   8.191  1.5177 -1.3867  0.9150
  238MOL0     H32121   2.855   0.822   8.013 -0.4065 -1.4595  0.1852
  238MOL0     H32122   2.773   1.060   7.996 -1.1352 -0.1233 -0.4177
  238MOL0     H32123   2.731   1.054   8.161  1.4025 -1.4048  0.9954
  238MOL0     H32124   2.633   0.875   7.940  0.7990  1.0470 -0.5052
  238MOL0     H32125   2.595   0.847   8.114 -0.4278 -0.7232 -0.6109
  238MOL0     H32126   2.322   1.159   8.014  1.3883  2.0453  3.1148
  238MOL0     H32127   3.222   0.659   8.245 -0.2138  1.4621  0.0974
  238MOL0     H32128   3.408   0.541   8.293  1.0256 -0.5992  2.1807
  238MOL0     H32129   3.560   0.587   8.217 -1.8268 -1.3171 -1.2218
  238MOL0     H32130   3.532   0.627   8.387 -1.7212 -1.7747  1.2988
  239MOL0     O32131   5.844   7.430   2.784 -0.5878  0.3763 -0.0321
  239MOL0     C32132   5.873   7.439   2.663 -0.4573 -0.2140 -0.6232
  239MOL0     O32133   6.000   7.433   2.610  0.1313  0.1386 -0.2776
  239MOL0     C32134   6.116   7.433   2.689  0.4106  0.7267  0.6054
  239MOL0     C32135   6.161   7.316   2.737  0.6155  0.0451  0.0004
  239MOL0     C32136   6.290   7.306   2.793  0.8492  0.2054  0.1943
  239MOL0     C32137   6.363   7.417   2.813 -0.5046 -0.4457 -0.1737
  239MOL0     O32138   6.487   7.430   2.861  0.4097  0.0959  0.0257
  239MOL0     C32139   6.557   7.301   2.885  0.0600 -0.4816 -0.8167
  239MOL0     C32140   6.700   7.330   2.943  0.3394 -0.4676 -0.5386
  239MOL0     C32141   6.797   7.375   2.831  0.8364  0.3808  0.3757
  239MOL0     C32142   6.934   7.303   2.862  0.6676  0.2673  0.3589
  239MOL0     C32143   7.049   7.360   2.784 -0.5520  0.4207 -0.1952
  239MOL0     C32144   7.023   7.359   2.637  0.5327  0.3277  0.4058
  239MOL0     C32145   7.140   7.398   2.544 -0.2875  0.6072  0.6861
  239MOL0     C32146   7.180   7.544   2.550  0.8872 -0.7898  0.2386
  239MOL0     N32147   7.317   7.564   2.495 -0.2276  0.8346 -0.5801
  239MOL0     C32148   7.369   7.511   2.379  0.7839 -0.1660  0.1158
  239MOL0     C32149   7.503   7.523   2.386  0.9290 -0.5270  0.5245
  239MOL0     C32150   7.606   7.475   2.282 -0.4046 -0.1970 -0.0045
  239MOL0     C32151   7.743   7.437   2.347 -0.1065 -0.3790 -0.0932
  239MOL0     C32152   7.843   7.380   2.246  0.4856  0.0160 -0.4905
  239MOL0     C32153   7.894   7.467   2.142  0.2594 -0.1178 -0.3990
  239MOL0     O32154   7.955   7.399   2.040 -0.3210  0.1648  0.9973
  239MOL0     C32155   8.088   7.408   2.012  0.4765  0.0726  0.4917
  239MOL0     C32156   8.180   7.485   2.086 -0.8273  0.0899 -0.6303
  239MOL0     C32157   8.315   7.473   2.047 -0.5210 -1.0763  0.0575
  239MOL0     C32158   8.364   7.399   1.938  0.7390  0.0406  0.2898
  239MOL0     C32159   8.503   7.392   1.905  1.4213  0.4426  0.4488
  239MOL0     O32160   8.580   7.482   1.970  0.3182 -0.0767 -0.7502
  239MOL0     C32161   8.716   7.498   1.944  0.0761  0.4888  0.2163
  239MOL0     C32162   8.800   7.392   1.905 -0.4908 -0.1741 -1.0089
  239MOL0     C32163   8.936   7.407   1.881  0.6151  0.1536  0.6219
  239MOL0     C32164   8.993   7.533   1.902 -0.4876 -0.7099  0.0756
  239MOL0     O32165   9.133   7.537   1.902  0.7472  0.5315  0.0505
  239MOL0     C32166   9.209   7.647   1.946  0.3609 -0.5396 -0.1714
  239MOL0     C32167   9.352   7.615   1.923 -0.4744  1.0340 -0.0461
  239MOL0     C32168   9.434   7.747   1.882  0.7341  0.1397  0.2979
  239MOL0     C32169   9.584   7.714   1.898 -0.0547 -0.1899  0.1051
  239MOL0     C32170   9.629   7.643   1.772  0.7058 -0.7762 -0.2811
  239MOL0     C32171   9.773   7.674   1.727 -0.6913  0.6377  0.6341
  239MOL0     C32172   9.880   7.624   1.829  1.0153 -0.0037  0.5504
  239MOL0     C32173  10.020   7.640   1.774 -0.2062 -1.1062  0.0271
  239MOL0    Cl32174  10.132   7.554   1.880 -0.2807 -0.2315 -0.3107
  239MOL0     C32175   8.910   7.646   1.931  0.2627  0.2789 -0.2277
  239MOL0     C32176   8.773   7.623   1.952  0.1987  0.7835 -0.5146
  239MOL0     O32177   8.543   7.324   1.807  0.7216 -0.1835 -0.0925
  239MOL0     C32178   8.265   7.331   1.864  0.0237 -0.4316  0.3634
  239MOL0     C32179   8.135   7.335   1.905  0.2565  0.3229 -0.7410
  239MOL0     N32180   7.536   7.579   2.510 -0.3201 -0.1521 -0.8304
  239MOL0     N32181   7.423   7.602   2.576 -0.2658 -0.0978 -0.1425
  239MOL0     C32182   6.305   7.539   2.779 -1.0878 -0.8446  0.8199
  239MOL0     C32183   6.185   7.553   2.712  0.4197  0.6634 -0.0097
  239MOL0     C32184   5.768   7.465   2.577  0.1417  0.7566 -0.2253
  239MOL0     C32185   5.665   7.369   2.568  0.5343 -0.1183  1.0110
  239MOL0     C32186   5.575   7.376   2.462  0.0257  0.7773 -0.4192
  239MOL0     C32187   5.581   7.480   2.367  1.4821 -0.2891  0.5340
  239MOL0     O32188   5.500   7.502   2.249  0.3386  0.0086  0.0054
  239MOL0     C32189   5.417   7.395   2.221 -0.4958 -0.3365  0.6107
  239MOL0     C32190   5.333   7.420   2.089 -0.5813  0.0712  1.2555
  239MOL0     C32191   5.190   7.466   2.107  0.4972 -0.7938 -0.4952
  239MOL0     C32192   5.103   7.379   2.211  0.6612 -0.0017 -0.2924
  239MOL0     C32193   4.960   7.399   2.188 -0.5501  0.5992  0.0728
  239MOL0     C32194   4.838   7.409   2.175 -0.0506 -0.2773  0.3264
  239MOL0     C32195   5.676   7.575   2.387  0.1333 -0.1154 -0.3821
  239MOL0     C32196   5.778   7.569   2.485  0.2759 -0.3836 -0.5295
  239MOL0     C32197   5.875   7.687   2.489  0.6360 -0.3004 -0.1134
  239MOL0     H32198   6.109   7.222   2.722  0.9211 -0.2125  0.5407
  239MOL0     H32199   6.308   7.202   2.819 -3.1981 -0.0486  2.7753
  239MOL0     H32200   6.504   7.250   2.966  0.5447 -0.1638 -0.2871
  239MOL0     H32201   6.557   7.233   2.799 -0.6599 -0.9906 -0.4257
  239MOL0     H32202   6.739   7.243   2.997  2.4429  1.2126  0.8192
  239MOL0     H32203   6.696   7.412   3.016  0.4644 -1.4436  0.6045
  239MOL0     H32204   6.815   7.481   2.813  0.2670  0.6598  1.3373
  239MOL0     H32205   6.754   7.330   2.741 -0.2892 -1.7555  1.8817
  239MOL0     H32206   6.968   7.312   2.966  1.0048 -0.2927  0.2993
  239MOL0     H32207   6.917   7.197   2.841  1.4718  0.3822 -0.9624
  239MOL0     H32208   7.061   7.465   2.810  1.1598 -0.4895  3.1216
  239MOL0     H32209   7.142   7.307   2.806 -0.8501 -0.8430 -1.7907
  239MOL0     H32210   7.000   7.257   2.605  1.7227  0.7315 -1.9230
  239MOL0     H32211   6.941   7.430   2.619 -0.1401 -0.3123  0.8758
  239MOL0     H32212   7.123   7.387   2.436  1.2584 -0.4559  0.5126
  239MOL0     H32213   7.228   7.338   2.571 -1.3279 -2.1349 -1.5195
  239MOL0     H32214   7.112   7.607   2.492  2.8535  0.2851 -1.0340
  239MOL0     H32215   7.173   7.575   2.655  0.1304 -1.9013  0.5286
  239MOL0     H32216   7.312   7.466   2.298  0.6450 -0.3471  0.3119
  239MOL0     H32217   7.568   7.385   2.232 -0.5100  0.8337 -1.9064
  239MOL0     H32218   7.613   7.542   2.196  0.2329 -1.2235 -0.7789
  239MOL0     H32219   7.778   7.529   2.394 -1.2700 -1.2797  2.7476
  239MOL0     H32220   7.731   7.364   2.428 -1.2727  1.5183  1.5283
  239MOL0     H32221   7.788   7.298   2.198  3.6734 -1.6691 -1.5734
  239MOL0     H32222   7.927   7.331   2.297  0.2435 -1.8326 -1.7489
  239MOL0     H32223   7.955   7.543   2.190 -1.8322 -0.1010  2.5217
  239MOL0     H32224   7.810   7.523   2.099  1.9992  2.5675 -0.5363
  239MOL0     H32225   8.158   7.537   2.178  2.5622  0.0258  0.3621
  239MOL0     H32226   8.392   7.533   2.094  1.7640 -2.3545 -1.8706
  239MOL0     H32227   8.770   7.288   1.907  1.5510 -0.8197  1.3714
  239MOL0     H32228   8.995   7.318   1.864 -0.4915 -0.2029 -1.8865
  239MOL0     H32229   9.176   7.731   1.883 -0.6295 -0.3772  0.5455
  239MOL0     H32230   9.198   7.672   2.052 -0.1848  2.0770 -0.7700
  239MOL0     H32231   9.384   7.575   2.019  2.5351 -0.2525 -1.4373
  239MOL0     H32232   9.362   7.530   1.854  0.1190 -1.3559  2.8149
  239MOL0     H32233   9.414   7.776   1.778  3.5938 -0.4358 -0.4993
  239MOL0     H32234   9.407   7.817   1.962  0.7717  0.1152  0.3311
  239MOL0     H32235   9.608   7.648   1.982  0.5348 -1.5244 -1.0638
  239MOL0     H32236   9.636   7.809   1.911 -3.0102  1.9934 -2.4976
  239MOL0     H32237   9.564   7.678   1.692  1.2762  0.8080 -0.0861
  239MOL0     H32238   9.615   7.535   1.773 -0.7185 -0.6560 -2.0824
  239MOL0     H32239   9.797   7.612   1.639  0.0563 -0.9268  1.8876
  239MOL0     H32240   9.795   7.778   1.701  2.2476 -0.5630 -2.5253
  239MOL0     H32241   9.873   7.517   1.849 -1.2736  0.1367  0.7629
  239MOL0     H32242   9.872   7.680   1.923 -1.3340  1.3107 -0.3396
  239MOL0     H32243  10.038   7.619   1.668  0.8768  2.8191 -0.7429
  239MOL0     H32244  10.048   7.745   1.782  2.2732 -1.5415 -1.6525
  239MOL0     H32245   8.943   7.749   1.940  2.9462 -0.6833  3.3399
  239MOL0     H32246   8.707   7.705   1.977  0.7513  1.4771 -1.2379
  239MOL0     H32247   8.288   7.283   1.769  0.8001 -1.4355  1.0436
  239MOL0     H32248   8.050   7.285   1.861 -3.2006  2.8519  2.3820
  239MOL0     H32249   6.373   7.620   2.801 -0.8142 -1.1629  1.1593
  239MOL0     H32250   6.148   7.650   2.683 -2.2006 -0.7110 -1.6961
  239MOL0     H32251   5.682   7.290   2.641 -1.1490  2.2301  4.1881
  239MOL0     H32252   5.500   7.297   2.456 -0.2465  0.9963  0.0272
  239MOL0     H32253   5.344   7.385   2.302 -2.6334  0.1055 -1.1570
  239MOL0     H32254   5.472   7.301   2.211  3.5743  1.8440  0.6435
  239MOL0     H32255   5.330   7.337   2.018 -3.6136  0.1253  1.1863
  239MOL0     H32256   5.386   7.497   2.032  0.2439 -1.6154 -0.3685
  239MOL0     H32257   5.148   7.455   2.006  2.3330 -1.4989 -1.2265
  239MOL0     H32258   5.183   7.572   2.131 -0.0807 -1.0914  0.7221
  239MOL0     H32259   5.135   7.275   2.209  0.4169 -0.2040  2.4631
  239MOL0     H32260   5.123   7.417   2.311 -0.2096 -2.1780  0.7742
  239MOL0     H32261   4.735   7.423   2.149 -0.3825 -3.0857 -0.2221
  239MOL0     H32262   5.682   7.655   2.313  0.2754 -0.4557 -0.7387
  239MOL0     H32263   5.980   7.658   2.494  1.9094  3.2182 -2.1121
  239MOL0     H32264   5.873   7.744   2.395 -1.1767  0.2550  0.2286
  239MOL0     H32265   5.843   7.758   2.566 -4.2097 -1.7130 -0.5533
  240MOL0     O32266  10.423  10.815   8.252  0.4225 -0.2598  0.7684
  240MOL0     C32267  10.333  10.734   8.268  0.4304  0.5487 -0.0846
  240MOL0     O32268  10.271  10.675   8.163 -0.3548 -0.5105  0.4653
  240MOL0     C32269  10.326  10.694   8.038  0.6016 -0.1676  0.0576
  240MOL0     C32270  10.282  10.801   7.957  0.1721  0.1062 -0.0735
  240MOL0     C32271  10.338  10.841   7.840 -0.2279 -0.0066  0.0013
  240MOL0     C32272  10.437  10.753   7.780  1.5631  0.8762  0.8646
  240MOL0     O32273  10.495  10.779   7.656  0.1810 -0.1469  0.1969
  240MOL0     C32274  10.643  10.776   7.643  0.5531 -0.2246  0.5447
  240MOL0     C32275  10.686  10.723   7.509 -0.7408  0.5790  0.0989
  240MOL0     C32276  10.653  10.589   7.467 -0.1606  0.2128  0.5041
  240MOL0     C32277  10.756  10.527   7.370 -0.4710  0.6707 -0.3705
  240MOL0     C32278  10.718  10.385   7.345  0.2941  0.0458  0.4419
  240MOL0     C32279  10.812  10.329   7.238 -0.4571  0.4704  0.4919
  240MOL0     C32280  10.800  10.174   7.219 -0.3145  0.0868  1.0575
  240MOL0     C32281  10.898  10.129   7.107 -0.0810  0.3519  0.2007
  240MOL0     N32282  11.033  10.187   7.108 -0.6290  0.9847 -0.0156
  240MOL0     C32283  11.125  10.133   7.194 -0.0649 -1.1355  0.0971
  240MOL0     C32284  11.242  10.205   7.158  0.0735 -0.0049 -0.8427
  240MOL0     C32285  11.377  10.183   7.228 -0.4981 -0.5635 -0.7401
  240MOL0     C32286  11.487  10.226   7.139  0.0079  0.1978  1.4321
  240MOL0     C32287  11.619  10.237   7.212  0.8711 -1.5120  0.5114
  240MOL0     C32288  11.741  10.240   7.120  0.2164  0.1735  0.5264
  240MOL0     O32289  11.746  10.116   7.055 -0.3901 -0.8295  0.6239
  240MOL0     C32290  11.825  10.114   6.941 -0.3723  0.2931  0.1520
  240MOL0     C32291  11.776  10.046   6.834  0.3324  0.2041  0.1238
  240MOL0     C32292  11.838  10.043   6.720 -1.0154 -0.4692  0.7421
  240MOL0     C32293  11.954  10.122   6.699 -0.4442 -0.2341  0.0540
  240MOL0     C32294  12.025  10.134   6.569 -0.1749  0.1324 -0.8380
  240MOL0     O32295  12.154  10.185   6.567  0.4025  0.2259 -0.3580
  240MOL0     C32296  12.220  10.213   6.452  0.2901 -0.4941 -0.2176
  240MOL0     C32297  12.336  10.295   6.469 -0.4847  0.2522 -0.7486
  240MOL0     C32298  12.434  10.312   6.367 -0.0355  0.1923 -0.3846
  240MOL0     C32299  12.415  10.255   6.248 -0.1999 -0.5180 -0.3331
  240MOL0     O32300  12.509  10.270   6.163 -0.6760  0.1290  0.2334
  240MOL0     C32301  12.533  10.163   6.069 -0.6436  0.5718 -0.0414
  240MOL0     C32302  12.689  10.163   6.013  0.1427 -0.2193 -0.2030
  240MOL0     C32303  12.706  10.287   5.911  0.4738 -0.5663 -0.4068
  240MOL0     C32304  12.850  10.299   5.859  0.1240  0.2672  0.2943
  240MOL0     C32305  12.867  10.422   5.769  1.1994  0.1321 -0.8419
  240MOL0     C32306  12.989  10.426   5.691 -0.3714 -0.2767  0.2636
  240MOL0     C32307  13.116  10.427   5.771 -0.8943 -0.3007  0.0376
  240MOL0     C32308  13.240  10.450   5.690  0.2962  0.2111 -0.1484
  240MOL0    Cl32309  13.250  10.609   5.612 -0.1117  0.1763 -0.2064
  240MOL0     C32310  12.303  10.177   6.226  0.2043 -0.2911 -0.1452
  240MOL0     C32311  12.206  10.151   6.329  0.1790  0.8510  1.0655
  240MOL0     O32312  11.968  10.082   6.475  0.0206 -0.5132  0.1338
  240MOL0     C32313  12.014  10.183   6.814  0.2443  0.4956 -0.3148
  240MOL0     C32314  11.944  10.182   6.934 -0.0347 -0.5551  0.5233
  240MOL0     N32315  11.209  10.297   7.055 -0.2188 -0.1017 -0.1842
  240MOL0     N32316  11.085  10.278   7.021 -0.3764  0.7077 -1.2544
  240MOL0     C32317  10.478  10.640   7.853 -0.3615 -0.2641 -0.6275
  240MOL0     C32318  10.427  10.617   7.981  0.1108  0.8005 -0.4799
  240MOL0     C32319  10.269  10.712   8.397 -0.5513 -0.1630 -0.6689
  240MOL0     C32320  10.138  10.679   8.404  0.3702  0.4838 -0.2105
  240MOL0     C32321  10.068  10.671   8.526 -0.2852 -0.8201  0.4070
  240MOL0     C32322  10.126  10.714   8.646 -0.1481  0.1716  0.3857
  240MOL0     O32323  10.066  10.710   8.771 -0.6266 -0.4291  0.5155
  240MOL0     C32324   9.924  10.722   8.788 -1.1962 -0.5193 -0.4053
  240MOL0     C32325   9.881  10.861   8.725  0.1263  0.0872 -0.3518
  240MOL0     C32326   9.724  10.881   8.746 -0.1499 -0.1840  0.2855
  240MOL0     C32327   9.685  11.024   8.721  0.8043 -0.2518 -0.2262
  240MOL0     C32328   9.543  11.045   8.701 -0.4129  0.0282  0.3919
  240MOL0     C32329   9.430  11.078   8.666  0.2047  0.4018  0.3172
  240MOL0     C32330  10.263  10.743   8.642 -0.3293 -0.1495  0.5166
  240MOL0     C32331  10.336  10.744   8.522  0.2594 -0.3575  0.2998
  240MOL0     C32332  10.482  10.753   8.537 -0.8153  0.2807 -0.2199
  240MOL0     H32333  10.213  10.877   7.994  1.0763  1.7722 -1.6101
  240MOL0     H32334  10.304  10.928   7.784 -0.3736  0.2238  0.4438
  240MOL0     H32335  10.682  10.877   7.660 -2.0051  1.1101 -0.8581
  240MOL0     H32336  10.682  10.710   7.721 -0.5861 -0.0747  1.2629
  240MOL0     H32337  10.795  10.736   7.510 -0.7125  0.3398  1.0296
  240MOL0     H32338  10.654  10.797   7.435  2.6912  0.3905 -1.7693
  240MOL0     H32339  10.554  10.591   7.419 -0.0387  0.0488  0.2443
  240MOL0     H32340  10.649  10.525   7.556  1.6354 -0.8633 -0.1403
  240MOL0     H32341  10.759  10.582   7.276  2.1268 -0.5761 -1.0951
  240MOL0     H32342  10.858  10.525   7.410 -0.7250 -1.8991  0.3094
  240MOL0     H32343  10.726  10.325   7.435  2.3197  1.1308  1.0523
  240MOL0     H32344  10.618  10.395   7.301  0.5215  0.1542 -0.0574
  240MOL0     H32345  10.797  10.384   7.145  0.9475 -0.1162 -0.1170
  240MOL0     H32346  10.912  10.348   7.276 -1.7864  1.9880  3.5713
  240MOL0     H32347  10.695  10.158   7.195 -0.1371  1.8086 -1.1977
  240MOL0     H32348  10.820  10.116   7.310 -0.2490  0.5548  1.3448
  240MOL0     H32349  10.909  10.021   7.113  0.8863  0.4820  1.0729
  240MOL0     H32350  10.855  10.155   7.010  0.4063  0.7375  0.0856
  240MOL0     H32351  11.114  10.051   7.264  2.0562 -2.5905 -1.1370
  240MOL0     H32352  11.380  10.247   7.317 -2.6734 -1.5099  0.1011
  240MOL0     H32353  11.387  10.078   7.259  3.0519  0.1350  0.9735
  240MOL0     H32354  11.502  10.149   7.063  1.0261  0.3289  1.4951
  240MOL0     H32355  11.456  10.318   7.087 -0.7602 -1.6001 -1.5278
  240MOL0     H32356  11.636  10.163   7.290  2.2802  0.5782  2.3021
  240MOL0     H32357  11.615  10.335   7.259  1.8424  0.4409 -3.0620
  240MOL0     H32358  11.829  10.264   7.180 -0.0917  1.7629  0.3904
  240MOL0     H32359  11.731  10.322   7.049 -1.4375  0.7670  1.3746
  240MOL0     H32360  11.679   9.998   6.847 -2.5579  4.6430 -2.2092
  240MOL0     H32361  11.784   9.995   6.639 -0.2266  0.5815 -0.4391
  240MOL0     H32362  12.359  10.339   6.565 -0.8704  0.9807 -0.9806
  240MOL0     H32363  12.524  10.366   6.392 -1.3664  2.4847 -0.2947
  240MOL0     H32364  12.542  10.072   6.129  2.4780  0.3978 -0.6367
  240MOL0     H32365  12.455  10.155   5.993  0.2438  0.2366 -0.9210
  240MOL0     H32366  12.758  10.176   6.097  2.2551  0.1777 -1.8793
  240MOL0     H32367  12.705  10.068   5.962 -1.4964  0.0389 -1.2755
  240MOL0     H32368  12.639  10.278   5.825 -0.1841  0.8280 -0.0673
  240MOL0     H32369  12.677  10.381   5.958 -3.9212 -0.4916 -2.7290
  240MOL0     H32370  12.881  10.213   5.799 -0.0536  1.2019 -1.1924
  240MOL0     H32371  12.917  10.308   5.945  2.2794 -0.7719 -1.1989
  240MOL0     H32372  12.855  10.508   5.835  2.2019  0.6452 -1.2938
  240MOL0     H32373  12.785  10.417   5.697  0.5942 -2.2233 -0.0782
  240MOL0     H32374  12.991  10.346   5.617 -3.6871  1.0611 -1.4782
  240MOL0     H32375  12.993  10.511   5.622 -0.8917 -1.7257 -1.6305
  240MOL0     H32376  13.123  10.331   5.823 -0.5292 -0.4970 -0.3660
  240MOL0     H32377  13.114  10.504   5.849  1.2354  1.1211 -1.2104
  240MOL0     H32378  13.323  10.431   5.758 -2.1490  3.8319  4.3560
  240MOL0     H32379  13.239  10.372   5.612 -0.0924 -0.0317  0.0946
  240MOL0     H32380  12.292  10.138   6.125  0.7523 -0.7313 -0.0431
  240MOL0     H32381  12.137  10.072   6.302 -0.0129  1.2734  0.3163
  240MOL0     H32382  12.113  10.228   6.806  1.2570 -1.3424  0.9282
  240MOL0     H32383  11.996  10.215   7.024 -1.3401 -1.9865  1.8729
  240MOL0     H32384  10.548  10.566   7.815  2.3518  2.3712 -1.1605
  240MOL0     H32385  10.456  10.524   8.030 -1.2857 -0.3006 -1.6144
  240MOL0     H32386  10.081  10.648   8.317  1.2299  1.6828 -1.2298
  240MOL0     H32387   9.961  10.653   8.533 -0.5064  0.9020  2.2589
  240MOL0     H32388   9.908  10.733   8.896  1.5376  5.5062 -0.1832
  240MOL0     H32389   9.866  10.636   8.753 -1.0238 -0.7146 -0.2209
  240MOL0     H32390   9.917  10.866   8.621  4.0268  1.7272  0.8807
  240MOL0     H32391   9.937  10.939   8.777  0.2548 -0.4860  0.3793
  240MOL0     H32392   9.702  10.856   8.850  2.4577  0.7639  1.1216
  240MOL0     H32393   9.676  10.805   8.683  0.5681 -1.5900  1.4019
  240MOL0     H32394   9.712  11.084   8.808  1.0940 -0.1879 -0.3616
  240MOL0     H32395   9.739  11.060   8.633 -0.9223  0.7521 -0.9336
  240MOL0     H32396   9.334  11.121   8.645 -0.6465 -1.2958  0.5352
  240MOL0     H32397  10.306  10.763   8.740 -2.9061 -4.3423  2.8084
  240MOL0     H32398  10.543  10.663   8.520  1.1726  1.5411 -0.1144
  240MOL0     H32399  10.514  10.831   8.467 -2.1087  1.6529  0.6690
  240MOL0     H32400  10.504  10.784   8.640  0.4409 -0.6007 -0.1973
  241MOL0     O32401   2.212   6.318   8.374  0.4642 -0.0887  0.7796
  241MOL0     C32402   2.245   6.389   8.469 -0.3181  0.5884 -0.3392
  241MOL0     O32403   2.356   6.368   8.548 -0.4556 -0.1247  0.1472
  241MOL0     C32404   2.472   6.338   8.483 -0.2823 -0.0966  0.6252
  241MOL0     C32405   2.496   6.299   8.347 -0.8868 -0.4425 -0.3326
  241MOL0     C32406   2.623   6.285   8.293  0.3563  0.7699 -0.1916
  241MOL0     C32407   2.735   6.317   8.369  0.1470 -0.0691  0.4017
  241MOL0     O32408   2.860   6.281   8.325  0.0008 -0.5212  0.4955
  241MOL0     C32409   2.934   6.194   8.407 -0.1808 -0.2405 -0.9848
  241MOL0     C32410   3.035   6.120   8.326  0.6689 -0.2806 -0.1687
  241MOL0     C32411   3.140   6.057   8.417 -0.6199 -0.8591  0.4131
  241MOL0     C32412   3.174   5.914   8.403 -0.3277  0.6484 -0.4222
  241MOL0     C32413   3.268   5.872   8.517  0.4386  0.0419  0.1673
  241MOL0     C32414   3.315   5.716   8.502 -0.4756 -0.4652 -0.5349
  241MOL0     C32415   3.410   5.671   8.618 -0.0614 -0.6757  0.1297
  241MOL0     C32416   3.452   5.527   8.589  0.2739 -0.1364 -0.0555
  241MOL0     N32417   3.518   5.476   8.711 -0.3152 -0.3489 -0.6938
  241MOL0     C32418   3.582   5.546   8.811 -0.2026  0.4498  0.2809
  241MOL0     C32419   3.616   5.453   8.902 -0.2883  0.7379  0.0353
  241MOL0     C32420   3.682   5.480   9.035  0.3618  0.2037 -0.5350
  241MOL0     C32421   3.670   5.356   9.124 -0.0640  0.2599 -0.3388
  241MOL0     C32422   3.530   5.311   9.173 -0.0408  0.4634  0.5517
  241MOL0     C32423   3.480   5.381   9.305 -0.7209 -0.4849  0.2454
  241MOL0     O32424   3.347   5.362   9.336  0.0879 -0.1657 -1.0531
  241MOL0     C32425   3.253   5.444   9.276 -0.2987 -0.6960 -0.1189
  241MOL0     C32426   3.123   5.450   9.338 -0.3616  0.6059 -0.3635
  241MOL0     C32427   3.033   5.542   9.294 -0.3994  0.3319 -0.4790
  241MOL0     C32428   3.056   5.625   9.184 -0.5557 -0.9292 -0.7081
  241MOL0     C32429   2.965   5.739   9.150  0.4678 -0.5808  0.6136
  241MOL0     O32430   2.841   5.724   9.187 -0.7539  0.1688  0.0382
  241MOL0     C32431   2.758   5.830   9.191  0.6891 -0.6229 -0.0150
  241MOL0     C32432   2.786   5.961   9.237 -0.2865  0.2927  0.2728
  241MOL0     C32433   2.683   6.055   9.229  0.1244 -0.2100  0.1901
  241MOL0     C32434   2.551   6.032   9.191 -0.9701  0.8110  0.8005
  241MOL0     O32435   2.458   6.130   9.193  0.0026  0.5794  0.1672
  241MOL0     C32436   2.389   6.147   9.064  0.1222  0.1481  0.6331
  241MOL0     C32437   2.244   6.098   9.045 -0.7836 -0.1602 -0.3906
  241MOL0     C32438   2.190   6.164   8.914 -0.6130 -0.3400 -0.1951
  241MOL0     C32439   2.039   6.168   8.900  0.4681  0.5605 -0.8325
  241MOL0     C32440   2.001   6.224   8.767  0.4442 -0.0948 -1.2918
  241MOL0     C32441   1.854   6.175   8.733 -0.7762 -0.8186  0.0101
  241MOL0     C32442   1.796   6.261   8.622 -0.3538  0.8027 -0.3533
  241MOL0     C32443   1.738   6.390   8.674  0.4294  0.3622  0.9669
  241MOL0    Cl32444   1.642   6.476   8.539  0.3871  0.6256  0.0301
  241MOL0     C32445   2.526   5.901   9.155 -0.2737 -0.1451  0.4087
  241MOL0     C32446   2.622   5.796   9.162 -0.4987 -0.4610  0.0079
  241MOL0     O32447   3.018   5.838   9.103  0.5623  0.2526  0.3888
  241MOL0     C32448   3.176   5.612   9.116 -0.4314 -0.4726 -0.6076
  241MOL0     C32449   3.276   5.528   9.163 -0.0641  0.2982 -0.3976
  241MOL0     N32450   3.579   5.330   8.852 -0.0805  0.1660  0.4315
  241MOL0     N32451   3.518   5.341   8.741  0.4891 -0.5960 -0.1601
  241MOL0     C32452   2.721   6.357   8.504 -0.1323 -0.4129  0.6195
  241MOL0     C32453   2.592   6.369   8.555  0.0284 -0.2674  0.4891
  241MOL0     C32454   2.150   6.493   8.519  0.4926  0.5450 -0.5514
  241MOL0     C32455   2.152   6.521   8.657 -0.0346  0.3581 -1.0267
  241MOL0     C32456   2.051   6.605   8.721 -0.3130 -0.4788 -0.1388
  241MOL0     C32457   1.978   6.686   8.643 -0.0025  0.4639 -0.3873
  241MOL0     O32458   1.910   6.781   8.715  0.1009  0.8161  0.9473
  241MOL0     C32459   1.840   6.883   8.642 -0.3292 -0.8168 -0.5100
  241MOL0     C32460   1.939   6.976   8.575  0.4895 -0.2524  0.8575
  241MOL0     C32461   2.011   7.092   8.656 -0.7653  0.1617 -0.8367
  241MOL0     C32462   2.094   7.041   8.776 -0.3024  0.2484  0.4393
  241MOL0     C32463   2.140   7.160   8.846  0.3689  0.1372 -0.5274
  241MOL0     C32464   2.166   7.268   8.893 -0.5089 -1.0136 -0.7777
  241MOL0     C32465   1.976   6.664   8.505  0.2997 -0.0059 -0.4872
  241MOL0     C32466   2.053   6.563   8.443 -0.2673 -0.2508  0.2077
  241MOL0     C32467   2.043   6.542   8.287 -0.1799  0.2527 -0.6997
  241MOL0     H32468   2.416   6.276   8.276 -0.3937  1.8123 -1.7262
  241MOL0     H32469   2.641   6.258   8.189  1.7299  0.5488  0.0836
  241MOL0     H32470   2.985   6.255   8.482 -2.0150  0.2072 -0.0490
  241MOL0     H32471   2.869   6.119   8.455 -1.6268  1.5831  0.0519
  241MOL0     H32472   3.075   6.196   8.258  1.2661 -1.2043 -0.8746
  241MOL0     H32473   2.975   6.041   8.279  0.2742 -0.4024  0.5301
  241MOL0     H32474   3.103   6.069   8.519  0.7537 -1.0511  0.9451
  241MOL0     H32475   3.227   6.123   8.417 -0.1252 -1.5010 -0.0025
  241MOL0     H32476   3.080   5.859   8.404 -0.4922  0.9432  0.0076
  241MOL0     H32477   3.221   5.899   8.305  3.1872  0.7103  1.0890
  241MOL0     H32478   3.365   5.923   8.510  0.8667 -0.5223  1.6175
  241MOL0     H32479   3.225   5.906   8.611 -0.5012 -0.7211  0.0317
  241MOL0     H32480   3.237   5.640   8.494  0.5936 -1.5477 -0.9087
  241MOL0     H32481   3.379   5.707   8.414  0.6773  1.3278  0.0573
  241MOL0     H32482   3.361   5.672   8.716 -0.6305  1.4256 -0.1260
  241MOL0     H32483   3.497   5.738   8.622 -0.2723  0.0260 -3.6545
  241MOL0     H32484   3.361   5.474   8.561 -0.8286  1.6673 -0.0664
  241MOL0     H32485   3.513   5.527   8.498 -0.8377  2.9465 -0.9196
  241MOL0     H32486   3.597   5.651   8.835 -0.9169 -0.0482  3.4549
  241MOL0     H32487   3.783   5.518   9.017  0.2994  0.4352 -0.4014
  241MOL0     H32488   3.627   5.555   9.093  1.1507 -0.2223  0.8000
  241MOL0     H32489   3.726   5.279   9.071  0.0075 -1.0608  1.5483
  241MOL0     H32490   3.734   5.375   9.211  0.4593  0.8467 -0.8375
  241MOL0     H32491   3.528   5.204   9.196 -0.6903  0.8105  2.2607
  241MOL0     H32492   3.463   5.322   9.086  2.7014 -2.1605 -2.1409
  241MOL0     H32493   3.500   5.488   9.289  3.0505 -1.4712 -3.5235
  241MOL0     H32494   3.543   5.347   9.388 -0.6885  2.2078  1.4233
  241MOL0     H32495   3.090   5.387   9.420  1.2911  0.5422  0.3003
  241MOL0     H32496   2.938   5.559   9.344  1.4124 -1.5855  4.1382
  241MOL0     H32497   2.889   5.985   9.261  0.6372 -0.5206 -2.4239
  241MOL0     H32498   2.708   6.153   9.268 -0.5303  0.0725 -0.0700
  241MOL0     H32499   2.396   6.254   9.040  1.4344 -0.6089 -3.0607
  241MOL0     H32500   2.446   6.096   8.986 -0.8821  1.6395 -1.1615
  241MOL0     H32501   2.240   5.989   9.041 -0.5441 -0.3193  2.0356
  241MOL0     H32502   2.188   6.142   9.128  1.2095  2.5377 -0.3727
  241MOL0     H32503   2.232   6.265   8.904 -0.2290 -0.4012  0.7400
  241MOL0     H32504   2.245   6.106   8.838  2.6663  0.6679  1.2184
  241MOL0     H32505   1.988   6.218   8.982 -0.7121 -4.8805  2.2925
  241MOL0     H32506   2.011   6.062   8.907  0.8152  0.4638 -0.8780
  241MOL0     H32507   2.065   6.197   8.683  0.9967 -1.2674 -0.5134
  241MOL0     H32508   1.998   6.334   8.774  0.5258 -0.0896 -1.3475
  241MOL0     H32509   1.857   6.067   8.715  2.6864 -0.9435  0.5850
  241MOL0     H32510   1.796   6.190   8.825  0.2167  1.1797  0.3777
  241MOL0     H32511   1.714   6.213   8.567 -0.8818  0.8217  0.4087
  241MOL0     H32512   1.881   6.289   8.559  0.4115  1.9530  1.1242
  241MOL0     H32513   1.671   6.366   8.757  0.5570  1.0556  1.2769
  241MOL0     H32514   1.827   6.445   8.706  1.7382 -1.0708 -0.0298
  241MOL0     H32515   2.429   5.864   9.124 -0.3757 -1.7905  2.5131
  241MOL0     H32516   2.605   5.692   9.136  2.7761 -1.0768 -0.1551
  241MOL0     H32517   3.196   5.681   9.034 -1.5081 -0.3792 -0.8204
  241MOL0     H32518   3.377   5.538   9.124  0.3127  1.4818  0.8053
  241MOL0     H32519   2.802   6.390   8.568 -0.1699  0.9630 -0.0071
  241MOL0     H32520   2.581   6.403   8.658 -2.5621 -1.3904  0.6570
  241MOL0     H32521   2.225   6.471   8.721 -1.8698  2.1460  2.7792
  241MOL0     H32522   2.048   6.621   8.829  1.0819  3.6611 -0.5523
  241MOL0     H32523   1.783   6.941   8.715  1.8944  0.9292 -0.0351
  241MOL0     H32524   1.780   6.834   8.565  0.1592 -2.8520  0.3608
  241MOL0     H32525   1.902   7.016   8.480  2.7668 -0.0043 -0.0096
  241MOL0     H32526   2.027   6.922   8.539  0.0742 -0.1890 -0.2930
  241MOL0     H32527   1.931   7.155   8.696  0.1317  0.2928  0.8356
  241MOL0     H32528   2.073   7.145   8.583 -0.3776 -1.5862 -1.8262
  241MOL0     H32529   2.033   6.982   8.844  0.6080  1.7746  2.6963
  241MOL0     H32530   2.178   6.982   8.740 -1.2729 -0.8027 -0.1898
  241MOL0     H32531   2.188   7.368   8.925 -0.4158 -1.2356 -0.1374
  241MOL0     H32532   1.925   6.734   8.440 -0.0086 -0.9205 -1.2482
  241MOL0     H32533   1.972   6.619   8.254 -1.9793 -0.3133  1.5281
  241MOL0     H32534   2.139   6.531   8.237  0.8320 -0.0522  1.2340
  241MOL0     H32535   1.996   6.446   8.265  1.2094  0.1616 -3.6216
  242MOL0     O32536   4.313   3.050   6.711  0.0798  0.2589 -0.5088
  242MOL0     C32537   4.344   3.065   6.591 -0.5193 -0.3937 -0.5619
  242MOL0     O32538   4.470   3.110   6.538 -0.1288  0.1282  0.4153
  242MOL0     C32539   4.585   3.120   6.610 -0.6591 -0.6081 -0.7940
  242MOL0     C32540   4.710   3.123   6.540 -0.0153 -1.2561 -0.4533
  242MOL0     C32541   4.831   3.137   6.610 -0.0535 -1.1893 -0.5855
  242MOL0     C32542   4.842   3.164   6.744  1.0873  0.6283  0.0985
  242MOL0     O32543   4.965   3.174   6.803  0.4954 -0.1122  1.0958
  242MOL0     C32544   4.966   3.286   6.882  0.2324 -0.0913 -1.1683
  242MOL0     C32545   5.112   3.322   6.920  0.4688 -0.3638 -0.0738
  242MOL0     C32546   5.182   3.359   6.794  0.0566 -0.0247  0.7528
  242MOL0     C32547   5.329   3.369   6.816 -0.4421  0.2960  0.4245
  242MOL0     C32548   5.404   3.456   6.714  0.3302 -0.1859  0.1374
  242MOL0     C32549   5.546   3.500   6.749  0.8599  0.3339  0.6438
  242MOL0     C32550   5.626   3.546   6.638 -0.2730  0.5819  0.7137
  242MOL0     C32551   5.705   3.437   6.554  0.3189  0.4498  0.2589
  242MOL0     N32552   5.817   3.385   6.633  0.1735 -0.3596 -0.6201
  242MOL0     C32553   5.818   3.274   6.718  0.8505  0.9898  0.1832
  242MOL0     C32554   5.927   3.286   6.795 -0.2724  0.1201 -0.2617
  242MOL0     C32555   5.992   3.189   6.897 -0.1060 -0.8920  1.2776
  242MOL0     C32556   6.117   3.116   6.834  0.4186  0.5298  0.1636
  242MOL0     C32557   6.103   3.027   6.710 -0.6197  0.8121  0.1151
  242MOL0     C32558   6.019   2.897   6.731  0.5092  0.5343 -0.6692
  242MOL0     O32559   5.880   2.924   6.746 -0.2683  0.1884 -0.7266
  242MOL0     C32560   5.800   2.823   6.776  0.7248  0.2209  1.0884
  242MOL0     C32561   5.781   2.708   6.696  0.5100  0.2296  0.2609
  242MOL0     C32562   5.665   2.623   6.706  0.1859 -0.0890 -1.7567
  242MOL0     C32563   5.575   2.641   6.819 -0.0540 -0.1102  0.1833
  242MOL0     C32564   5.462   2.543   6.839 -1.3749 -0.1262  0.5365
  242MOL0     O32565   5.392   2.569   6.948  0.2048 -0.8338 -0.4867
  242MOL0     C32566   5.294   2.481   6.983 -0.5148  0.1228 -0.1331
  242MOL0     C32567   5.324   2.359   7.054 -0.1886  0.2048  0.2131
  242MOL0     C32568   5.227   2.275   7.097 -0.4981  0.5051 -0.1859
  242MOL0     C32569   5.092   2.315   7.065  0.6399  0.0967  0.2885
  242MOL0     O32570   4.975   2.250   7.102 -0.0369 -0.1721  0.2669
  242MOL0     C32571   4.997   2.132   7.182  0.5910 -0.8628 -0.2076
  242MOL0     C32572   4.862   2.074   7.217 -0.5508 -0.7352  1.3325
  242MOL0     C32573   4.862   1.945   7.307  0.3053  0.0799  0.2968
  242MOL0     C32574   4.777   1.819   7.257  0.1449  1.3510  0.0816
  242MOL0     C32575   4.751   1.715   7.370 -0.6379  0.1100  0.1411
  242MOL0     C32576   4.639   1.750   7.477  0.7400 -0.5033  0.0591
  242MOL0     C32577   4.497   1.748   7.416 -0.1640  1.0138  1.0105
  242MOL0     C32578   4.402   1.788   7.527  0.4444  0.3737  0.3978
  242MOL0    Cl32579   4.409   1.673   7.662 -0.1153  0.0796  0.2210
  242MOL0     C32580   5.066   2.435   7.002  0.7037  0.3581 -0.0805
  242MOL0     C32581   5.168   2.511   6.953  0.6429 -0.7961  0.5344
  242MOL0     O32582   5.454   2.445   6.766 -0.4853  0.2670  0.9308
  242MOL0     C32583   5.602   2.750   6.906  1.1675  0.0371  0.5309
  242MOL0     C32584   5.704   2.844   6.873  0.8554  0.4584 -0.8796
  242MOL0     N32585   5.995   3.402   6.760 -0.4257  0.3034  0.3610
  242MOL0     N32586   5.920   3.464   6.676 -0.2111 -0.0506 -0.0588
  242MOL0     C32587   4.716   3.149   6.814  0.7864 -0.4039  0.6057
  242MOL0     C32588   4.591   3.141   6.749  0.1586 -0.9311 -0.3847
  242MOL0     C32589   4.227   3.037   6.507  0.1014  0.0302  0.1547
  242MOL0     C32590   4.108   3.108   6.549 -0.3067 -0.1964 -0.5470
  242MOL0     C32591   3.986   3.100   6.475 -0.8149 -0.2332  0.3171
  242MOL0     C32592   3.990   3.029   6.345  0.7217 -0.2697  0.3500
  242MOL0     O32593   3.891   3.021   6.248 -0.4885 -0.1037  0.0072
  242MOL0     C32594   3.777   3.104   6.244 -0.3565  0.3435 -0.0099
  242MOL0     C32595   3.805   3.245   6.200 -0.6200  0.0952  0.4986
  242MOL0     C32596   3.860   3.264   6.057 -0.0869 -0.1094 -0.6954
  242MOL0     C32597   4.002   3.208   6.025  0.8151 -0.7686 -0.2924
  242MOL0     C32598   4.032   3.249   5.890 -0.6250  0.3228 -0.4780
  242MOL0     C32599   4.052   3.279   5.779  0.3741  0.5649  0.7647
  242MOL0     C32600   4.103   2.955   6.317 -0.0577 -0.7662  0.2703
  242MOL0     C32601   4.225   2.963   6.389 -0.2278 -0.0295 -0.1555
  242MOL0     C32602   4.340   2.881   6.335 -0.3614 -0.8124  0.3794
  242MOL0     H32603   4.721   3.112   6.433 -0.6802 -3.5856 -0.3268
  242MOL0     H32604   4.923   3.126   6.553  1.6869 -2.2778  2.2247
  242MOL0     H32605   4.913   3.370   6.835 -1.1648  0.6464  1.5110
  242MOL0     H32606   4.922   3.269   6.981  1.2454  1.5399 -0.3887
  242MOL0     H32607   5.169   3.242   6.968  2.1540  0.2309 -0.9797
  242MOL0     H32608   5.112   3.405   6.991 -1.0392  0.6009 -1.1319
  242MOL0     H32609   5.143   3.456   6.761  0.4762 -0.8825 -2.6003
  242MOL0     H32610   5.154   3.293   6.712 -3.0975  0.2930  1.4250
  242MOL0     H32611   5.351   3.417   6.911  0.2016  0.9344 -0.0362
  242MOL0     H32612   5.366   3.267   6.829  0.1833  0.5669  0.7652
  242MOL0     H32613   5.398   3.397   6.622  0.6465  0.3581 -0.2447
  242MOL0     H32614   5.341   3.544   6.696  0.3276  0.1900  1.8457
  242MOL0     H32615   5.546   3.573   6.830 -0.2338  0.5845  0.4428
  242MOL0     H32616   5.596   3.410   6.784  1.9125  0.5967 -0.1306
  242MOL0     H32617   5.697   3.616   6.682 -0.5188 -1.4694  4.7793
  242MOL0     H32618   5.563   3.595   6.563 -2.2597 -3.1366 -0.2748
  242MOL0     H32619   5.647   3.351   6.521  1.4424 -1.4686  2.8966
  242MOL0     H32620   5.737   3.496   6.467 -1.6546  1.3761  0.0903
  242MOL0     H32621   5.753   3.187   6.722  1.7456  0.3559  2.1195
  242MOL0     H32622   6.025   3.243   6.987 -1.8744 -1.5082  2.3529
  242MOL0     H32623   5.914   3.117   6.926 -2.0765  0.0027 -1.3934
  242MOL0     H32624   6.198   3.188   6.823  0.8079  0.4570  2.0896
  242MOL0     H32625   6.173   3.051   6.902  3.5681  0.0539 -2.6226
  242MOL0     H32626   6.202   2.999   6.673 -2.3482 -5.2746 -0.9974
  242MOL0     H32627   6.059   3.082   6.627 -1.0894 -1.0869 -0.9540
  242MOL0     H32628   6.057   2.851   6.822  0.8463  0.0567 -1.0419
  242MOL0     H32629   6.036   2.827   6.649  1.0463 -1.1595  0.8365
  242MOL0     H32630   5.840   2.683   6.609 -1.8101 -0.5402 -1.1722
  242MOL0     H32631   5.663   2.541   6.635 -0.5706 -0.0741 -1.7608
  242MOL0     H32632   5.427   2.337   7.081 -0.9992 -0.9375  2.6602
  242MOL0     H32633   5.243   2.179   7.146 -1.7579  0.6632  0.5872
  242MOL0     H32634   5.051   2.055   7.126 -1.3604 -0.8607 -2.2066
  242MOL0     H32635   5.047   2.157   7.276  0.8150  2.8488 -1.1746
  242MOL0     H32636   4.804   2.139   7.284 -0.7993  1.6778 -1.0433
  242MOL0     H32637   4.802   2.058   7.127 -0.3508  1.0952  0.8265
  242MOL0     H32638   4.967   1.917   7.326  0.2238  0.5740  1.5522
  242MOL0     H32639   4.815   1.978   7.400 -1.6915 -1.0309 -0.2694
  242MOL0     H32640   4.832   1.774   7.174  0.2940  2.1396 -0.2631
  242MOL0     H32641   4.679   1.849   7.219  0.1242  1.0512 -0.1037
  242MOL0     H32642   4.845   1.697   7.424 -0.3533 -0.1904 -0.4437
  242MOL0     H32643   4.724   1.621   7.321  2.0212 -0.7259  0.1040
  242MOL0     H32644   4.652   1.682   7.561  3.5822  1.6761  1.5847
  242MOL0     H32645   4.659   1.855   7.503  1.3608  0.2314 -2.9366
  242MOL0     H32646   4.476   1.648   7.377 -1.2114  2.3036 -2.0292
  242MOL0     H32647   4.489   1.809   7.325 -3.3523 -0.3385  0.2794
  242MOL0     H32648   4.445   1.884   7.556  4.3855 -0.8009 -0.9836
  242MOL0     H32649   4.298   1.786   7.493  0.9915 -1.8075 -1.3643
  242MOL0     H32650   4.963   2.458   6.979  0.3583 -1.4638 -0.4407
  242MOL0     H32651   5.164   2.602   6.895  0.3463 -0.7211  0.6712
  242MOL0     H32652   5.531   2.769   6.985  0.3709 -1.0993  0.1099
  242MOL0     H32653   5.713   2.935   6.932  2.8551 -1.3634  1.8687
  242MOL0     H32654   4.716   3.152   6.923 -1.7478 -1.7248  0.7205
  242MOL0     H32655   4.499   3.150   6.805 -0.1578 -1.9778 -0.7065
  242MOL0     H32656   4.114   3.182   6.629 -1.8270 -2.5519  1.9298
  242MOL0     H32657   3.904   3.155   6.520  1.8300  2.0914  2.6495
  242MOL0     H32658   3.723   3.116   6.339 -1.9574  1.3006 -0.9977
  242MOL0     H32659   3.719   3.046   6.173 -1.3341 -1.3283  2.0588
  242MOL0     H32660   3.864   3.292   6.280 -0.7995  1.6732 -0.2679
  242MOL0     H32661   3.704   3.288   6.201 -2.1129 -2.8815 -2.4078
  242MOL0     H32662   3.857   3.371   6.033 -0.7997 -0.0395 -0.3144
  242MOL0     H32663   3.791   3.209   5.993  0.5109 -1.7620  0.0258
  242MOL0     H32664   4.065   3.258   6.099 -0.9793 -1.3506  1.7396
  242MOL0     H32665   3.998   3.100   6.040  0.3007 -0.5953  0.8938
  242MOL0     H32666   4.070   3.299   5.675 -0.0996 -2.9529 -0.1338
  242MOL0     H32667   4.090   2.893   6.229  0.7067  1.4000 -1.4501
  242MOL0     H32668   4.434   2.934   6.351  0.0850 -1.1461 -1.0409
  242MOL0     H32669   4.352   2.791   6.396 -1.3324 -0.9867  0.3330
  242MOL0     H32670   4.331   2.861   6.228  0.9973  2.6116 -0.4902
  243MOL0     O32671   0.347  10.984   2.121 -0.1798 -0.2880  0.2281
  243MOL0     C32672   0.350  10.930   2.229  0.5584  0.5980 -0.1794
  243MOL0     O32673   0.461  10.866   2.280 -0.4793 -0.4950 -0.7715
  243MOL0     C32674   0.571  10.832   2.202 -0.8250 -0.1377 -0.2283
  243MOL0     C32675   0.574  10.712   2.128 -0.5842 -0.6850 -0.4154
  243MOL0     C32676   0.693  10.666   2.063  0.1397 -0.3733  0.2993
  243MOL0     C32677   0.813  10.740   2.077 -0.1200 -1.0021 -0.4227
  243MOL0     O32678   0.932  10.698   2.013 -0.0646  1.0350  0.7786
  243MOL0     C32679   1.059  10.735   2.060 -0.0827 -0.1683 -0.4511
  243MOL0     C32680   1.160  10.645   1.978 -0.1332 -0.2277  0.8668
  243MOL0     C32681   1.305  10.653   2.032  0.7963 -0.3877 -0.8988
  243MOL0     C32682   1.410  10.612   1.931  0.0891 -0.1674  0.0985
  243MOL0     C32683   1.549  10.627   1.987 -0.2963  0.7314  0.2713
  243MOL0     C32684   1.640  10.587   1.873 -0.2654 -0.2359  0.4372
  243MOL0     C32685   1.791  10.605   1.898 -0.9164 -0.1682 -0.0770
  243MOL0     C32686   1.839  10.752   1.913 -0.8233  0.2103  0.2406
  243MOL0     N32687   1.983  10.763   1.878  0.1366  0.5370 -0.1879
  243MOL0     C32688   2.057  10.720   1.776 -0.9041  0.0841  0.1453
  243MOL0     C32689   2.182  10.763   1.793  0.6087 -0.3646 -1.0984
  243MOL0     C32690   2.298  10.744   1.702  0.4682  0.2081 -0.0031
  243MOL0     C32691   2.358  10.601   1.736  0.0875  1.1380 -0.6002
  243MOL0     C32692   2.456  10.549   1.635  0.9268  0.2237  0.5352
  243MOL0     C32693   2.588  10.620   1.656 -0.3098  0.7807 -0.1063
  243MOL0     O32694   2.671  10.582   1.541  0.2695  0.2373  0.0087
  243MOL0     C32695   2.799  10.569   1.573 -0.3073  0.2936  0.4543
  243MOL0     C32696   2.867  10.453   1.523  0.2089 -0.4379  0.0547
  243MOL0     C32697   3.001  10.434   1.554 -0.3564 -0.4309  1.1258
  243MOL0     C32698   3.071  10.539   1.615 -0.6475  0.5223 -0.7750
  243MOL0     C32699   3.222  10.533   1.623  0.6071 -0.1063 -0.1729
  243MOL0     O32700   3.289  10.640   1.673  0.5942  0.2492 -0.0677
  243MOL0     C32701   3.425  10.643   1.682  0.2225  0.6244  0.1629
  243MOL0     C32702   3.493  10.759   1.656 -0.4734 -0.2448 -1.3349
  243MOL0     C32703   3.628  10.766   1.664  0.2391  0.1515  0.4184
  243MOL0     C32704   3.704  10.660   1.699  0.4360 -0.7966 -0.1130
  243MOL0     O32705   3.837  10.688   1.711  0.3641 -0.6979  0.5993
  243MOL0     C32706   3.926  10.596   1.782 -0.3550 -0.4784  0.0446
  243MOL0     C32707   3.910  10.620   1.933 -0.2699  0.0438 -0.5856
  243MOL0     C32708   3.984  10.521   2.030 -0.2182 -0.4874  1.2374
  243MOL0     C32709   3.910  10.391   2.035 -0.1596 -0.3221 -0.1956
  243MOL0     C32710   3.992  10.280   2.094  0.1626  0.1041  0.2199
  243MOL0     C32711   3.924  10.144   2.075 -0.7325 -0.5064 -0.3085
  243MOL0     C32712   3.994  10.033   2.160 -0.0266 -0.2315 -0.0743
  243MOL0     C32713   3.933   9.899   2.110  0.3388  0.2427 -0.3246
  243MOL0    Cl32714   3.757   9.903   2.147  0.5723  0.5186  0.2292
  243MOL0     C32715   3.636  10.542   1.724 -0.1452 -0.4539  0.4447
  243MOL0     C32716   3.498  10.526   1.705  0.6916 -1.4138  0.4816
  243MOL0     O32717   3.280  10.436   1.578  0.5227  0.4455  0.4756
  243MOL0     C32718   3.005  10.662   1.651  0.6780 -0.2989 -0.2279
  243MOL0     C32719   2.863  10.667   1.643  0.0648  0.4838 -0.5652
  243MOL0     N32720   2.186  10.822   1.917 -0.7425 -0.5300  0.4765
  243MOL0     N32721   2.064  10.825   1.966  0.5099 -0.7594  0.1610
  243MOL0     C32722   0.810  10.867   2.145 -0.0945 -0.4468  0.5035
  243MOL0     C32723   0.691  10.906   2.200  0.1307  0.4437  0.1296
  243MOL0     C32724   0.233  10.943   2.316 -0.3163 -0.2141  0.0570
  243MOL0     C32725   0.240  10.873   2.438  0.3096 -0.2283 -0.3003
  243MOL0     C32726   0.140  10.883   2.546 -0.2190 -0.2808  0.0242
  243MOL0     C32727   0.025  10.947   2.513 -0.0177  0.1380  0.4552
  243MOL0     O32728  -0.084  10.972   2.598  0.3470 -0.1256  0.4446
  243MOL0     C32729  -0.070  10.919   2.732 -0.3197  0.4828  0.0250
  243MOL0     C32730  -0.097  10.765   2.741  0.6956 -0.2173  0.0360
  243MOL0     C32731  -0.203  10.717   2.638 -0.7415 -0.1265  0.7719
  243MOL0     C32732  -0.345  10.712   2.685 -0.3493 -0.4442 -0.9417
  243MOL0     C32733  -0.395  10.851   2.687 -0.3057  0.6259 -0.1922
  243MOL0     C32734  -0.425  10.968   2.692 -0.3580 -0.6735 -0.6291
  243MOL0     C32735   0.007  10.996   2.383  0.3597 -0.5159 -0.5091
  243MOL0     C32736   0.108  11.002   2.281  1.0252 -0.5040 -0.5912
  243MOL0     C32737   0.063  11.041   2.138  0.2274  0.0119  0.0655
  243MOL0     H32738   0.486  10.648   2.116  0.5127 -2.1445 -1.0085
  243MOL0     H32739   0.696  10.581   1.996  3.0306 -0.5173  0.4659
  243MOL0     H32740   1.065  10.843   2.044 -0.3292 -0.1331 -0.3208
  243MOL0     H32741   1.068  10.716   2.167 -0.4946  0.3747 -0.3152
  243MOL0     H32742   1.161  10.659   1.870 -0.0041  0.1771  0.9185
  243MOL0     H32743   1.126  10.542   1.997  1.0049 -0.9430 -0.7397
  243MOL0     H32744   1.318  10.591   2.121 -3.6052 -0.7749 -0.3379
  243MOL0     H32745   1.329  10.757   2.059  0.1854 -0.6039  0.5784
  243MOL0     H32746   1.391  10.508   1.903  0.0013  0.5983 -3.0351
  243MOL0     H32747   1.404  10.675   1.842 -1.9680  0.9419  0.9671
  243MOL0     H32748   1.565  10.731   2.017 -2.2262  1.0031  0.4898
  243MOL0     H32749   1.557  10.564   2.076  2.0112  0.5838  0.0371
  243MOL0     H32750   1.623  10.484   1.841 -1.2274  0.7714 -2.6090
  243MOL0     H32751   1.613  10.644   1.784  1.6421 -0.8030 -0.5627
  243MOL0     H32752   1.835  10.572   1.804 -0.4665  0.8925 -0.2543
  243MOL0     H32753   1.829  10.546   1.982  0.0090  1.2560  0.5382
  243MOL0     H32754   1.787  10.824   1.850  1.5775 -0.3185 -2.5698
  243MOL0     H32755   1.818  10.786   2.015 -1.4616 -1.6013  0.7642
  243MOL0     H32756   2.024  10.661   1.691  1.4347  0.4382 -1.0866
  243MOL0     H32757   2.255  10.733   1.602  0.2453 -1.2540  0.2317
  243MOL0     H32758   2.378  10.818   1.696  0.4976  0.1191 -0.8748
  243MOL0     H32759   2.401  10.610   1.836 -1.3924  0.8842  0.0922
  243MOL0     H32760   2.276  10.529   1.749  1.0437  0.5421  3.0422
  243MOL0     H32761   2.412  10.560   1.536 -2.5390 -4.1342  1.2541
  243MOL0     H32762   2.466  10.440   1.642  4.2045  0.5008  1.4899
  243MOL0     H32763   2.635  10.587   1.749 -0.2853  0.1115 -0.3504
  243MOL0     H32764   2.570  10.727   1.673 -0.6594  0.5848  0.8038
  243MOL0     H32765   2.827  10.384   1.450 -2.9646 -0.6280  1.8123
  243MOL0     H32766   3.044  10.340   1.520 -2.3564 -1.4570  1.2421
  243MOL0     H32767   3.432  10.839   1.615  0.8691 -0.3284 -3.6591
  243MOL0     H32768   3.678  10.859   1.639  2.3183 -0.8906  0.4604
  243MOL0     H32769   3.900  10.496   1.746  1.5676 -0.3355 -1.9395
  243MOL0     H32770   4.026  10.618   1.744 -0.0302  0.8493  1.5348
  243MOL0     H32771   3.953  10.717   1.963 -1.6343 -0.2235  2.7273
  243MOL0     H32772   3.805  10.624   1.962 -0.9215 -1.2809 -2.6119
  243MOL0     H32773   4.091  10.512   2.010 -0.5871 -3.9534  0.1514
  243MOL0     H32774   3.979  10.559   2.132  1.7383 -0.9015  1.5146
  243MOL0     H32775   3.896  10.366   1.929  2.9124  2.3027 -1.4107
  243MOL0     H32776   3.817  10.390   2.092  1.2643  1.2395  2.3687
  243MOL0     H32777   4.010  10.297   2.201  3.3742  2.0721 -0.4860
  243MOL0     H32778   4.092  10.279   2.050  0.1958  2.1202  0.1477
  243MOL0     H32779   3.816  10.149   2.093 -1.0050  0.2450 -1.9318
  243MOL0     H32780   3.945  10.118   1.971 -0.5533 -0.9948 -0.1505
  243MOL0     H32781   3.962  10.044   2.264  0.4694 -2.5978  0.3839
  243MOL0     H32782   4.103  10.038   2.157 -0.0219  0.4694  0.7586
  243MOL0     H32783   3.950   9.889   2.002 -5.2434  0.9588 -1.5557
  243MOL0     H32784   3.968   9.813   2.167 -0.8554  0.7994  1.3272
  243MOL0     H32785   3.688  10.454   1.762 -0.0528 -0.5269  0.1511
  243MOL0     H32786   3.441  10.442   1.743 -1.0945  0.2861  1.7757
  243MOL0     H32787   3.049  10.747   1.702 -0.3505  0.0923  0.0278
  243MOL0     H32788   2.816  10.763   1.665 -0.3997 -0.3074  2.2001
  243MOL0     H32789   0.887  10.943   2.144  0.0383 -0.5789 -0.4994
  243MOL0     H32790   0.694  10.994   2.263 -3.5397 -1.6747  3.7538
  243MOL0     H32791   0.333  10.823   2.462 -0.2887 -0.6549  1.2814
  243MOL0     H32792   0.152  10.844   2.646 -5.1077 -1.2433  0.4429
  243MOL0     H32793  -0.144  10.961   2.801  0.6423 -0.8578  1.9825
  243MOL0     H32794   0.027  10.943   2.775  1.2596  1.5891 -3.7919
  243MOL0     H32795  -0.131  10.741   2.842 -0.0158  3.1323  0.7185
  243MOL0     H32796  -0.005  10.708   2.724  0.2024 -1.2547  0.7390
  243MOL0     H32797  -0.183  10.611   2.622 -3.4660 -0.5279 -0.5704
  243MOL0     H32798  -0.199  10.769   2.542 -2.9104 -0.8889  0.2189
  243MOL0     H32799  -0.410  10.652   2.621  0.7773 -2.4009 -0.3228
  243MOL0     H32800  -0.354  10.664   2.783 -3.8198 -1.9113 -1.8513
  243MOL0     H32801  -0.435  11.074   2.699 -0.6357 -0.7502  0.2555
  243MOL0     H32802  -0.091  11.016   2.340  1.5194 -1.0401 -3.6475
  243MOL0     H32803   0.078  10.951   2.078 -1.9233 -0.6563  0.4776
  243MOL0     H32804  -0.044  11.064   2.140 -0.0182 -1.1154  0.9096
  243MOL0     H32805   0.119  11.121   2.087  1.3492 -1.1130 -0.5107
  244MOL0     O32806   3.965  10.448   3.805 -0.2852 -0.8286 -0.6787
  244MOL0     C32807   3.898  10.531   3.745 -0.1579  0.0724  0.7783
  244MOL0     O32808   3.952  10.604   3.638 -0.4511 -0.1370  0.8024
  244MOL0     C32809   4.083  10.575   3.599  0.4111 -0.3210  0.6338
  244MOL0     C32810   4.200  10.626   3.664  0.1452  0.4488 -0.6724
  244MOL0     C32811   4.330  10.601   3.623  0.9395  1.1864 -0.8807
  244MOL0     C32812   4.353  10.533   3.502  0.5450  0.3809 -0.2677
  244MOL0     O32813   4.482  10.506   3.473 -0.4745 -0.3401  0.2899
  244MOL0     C32814   4.514  10.408   3.370 -0.7365  0.3270 -0.0630
  244MOL0     C32815   4.569  10.472   3.243  0.0497  0.1615 -0.4151
  244MOL0     C32816   4.684  10.566   3.265 -0.0094  0.1857  0.3146
  244MOL0     C32817   4.752  10.600   3.137  0.0402 -0.8155  0.4209
  244MOL0     C32818   4.885  10.674   3.156  0.0953  0.2647  0.3328
  244MOL0     C32819   4.944  10.704   3.018  0.5929 -0.9187 -0.0241
  244MOL0     C32820   5.084  10.767   3.022 -0.5945 -0.1087  0.0867
  244MOL0     C32821   5.120  10.822   2.884 -0.7468  0.0290  0.4575
  244MOL0     N32822   5.252  10.890   2.883  0.0491 -0.3593 -0.1327
  244MOL0     C32823   5.306  11.008   2.936  0.0435 -0.5542  0.1788
  244MOL0     C32824   5.433  11.016   2.878  0.1218 -0.2878 -0.4114
  244MOL0     C32825   5.522  11.136   2.887  0.0588  0.0807 -0.0672
  244MOL0     C32826   5.677  11.102   2.909 -0.2197  0.2871 -0.1649
  244MOL0     C32827   5.746  11.003   2.807  1.0059  0.0876  0.1091
  244MOL0     C32828   5.888  10.998   2.843  0.5371  0.1830  0.0577
  244MOL0     O32829   5.952  10.928   2.737 -0.5859 -0.5534 -0.3121
  244MOL0     C32830   6.088  10.895   2.748 -0.5392 -0.0352 -0.9538
  244MOL0     C32831   6.142  10.796   2.662  0.3232 -0.5002  0.5277
  244MOL0     C32832   6.277  10.766   2.666 -0.3994 -0.3849  0.0704
  244MOL0     C32833   6.362  10.815   2.766  0.2383 -0.7198 -0.6332
  244MOL0     C32834   6.510  10.791   2.760  0.0645  0.4478 -0.4876
  244MOL0     O32835   6.596  10.874   2.832  0.8255  0.7190  0.2417
  244MOL0     C32836   6.731  10.857   2.829 -0.4837  0.3973 -0.0194
  244MOL0     C32837   6.794  10.736   2.864 -0.3053  0.4815 -0.1760
  244MOL0     C32838   6.936  10.736   2.886 -1.0478 -0.6673  0.0280
  244MOL0     C32839   7.015  10.850   2.871  0.4399 -0.7573  0.6147
  244MOL0     O32840   7.150  10.837   2.881 -0.1329  0.5706 -0.1712
  244MOL0     C32841   7.231  10.953   2.892  0.1622 -0.4210 -0.8457
  244MOL0     C32842   7.379  10.904   2.905 -0.5511  0.0213 -0.7580
  244MOL0     C32843   7.477  11.013   2.943  0.3325  0.8141 -0.3822
  244MOL0     C32844   7.621  10.967   2.992 -0.7895  1.1031 -0.5339
  244MOL0     C32845   7.709  10.903   2.877 -0.2726  0.3186 -0.5527
  244MOL0     C32846   7.832  10.825   2.911  0.2509 -0.3396  0.0680
  244MOL0     C32847   7.798  10.673   2.942  0.0361  0.0369 -0.2842
  244MOL0     C32848   7.916  10.578   2.971 -0.0131  0.2632 -0.1287
  244MOL0    Cl32849   8.046  10.592   2.844 -0.0354  0.0661 -0.2091
  244MOL0     C32850   6.945  10.967   2.827  0.3374 -0.0917 -0.5754
  244MOL0     C32851   6.806  10.974   2.812 -0.9336  0.5707  0.8860
  244MOL0     O32852   6.554  10.705   2.675  0.0751 -0.4650 -0.2757
  244MOL0     C32853   6.302  10.906   2.862  0.1231 -0.2085 -0.4792
  244MOL0     C32854   6.171  10.947   2.851 -0.6819 -0.3042 -0.0558
  244MOL0     N32855   5.450  10.909   2.789 -0.2324 -0.0118  0.7011
  244MOL0     N32856   5.344  10.832   2.800  0.2517  0.1974  0.7580
  244MOL0     C32857   4.242  10.499   3.422 -0.8817  0.3819 -0.8755
  244MOL0     C32858   4.108  10.517   3.467  0.0519 -0.1520 -0.2215
  244MOL0     C32859   3.746  10.533   3.761  0.4317  0.4405 -0.0937
  244MOL0     C32860   3.698  10.476   3.881  0.6958  0.2798 -0.4052
  244MOL0     C32861   3.563  10.477   3.908  0.0916  0.1768 -0.4605
  244MOL0     C32862   3.471  10.561   3.835 -0.5380 -0.0812 -0.3277
  244MOL0     O32863   3.344  10.580   3.879 -0.1135  0.5764  0.3177
  244MOL0     C32864   3.293  10.513   3.991  0.1171 -0.4830  0.2083
  244MOL0     C32865   3.241  10.368   3.974  0.0176  0.1739 -0.0137
  244MOL0     C32866   3.140  10.346   3.859  0.1394 -0.1586  0.7489
  244MOL0     C32867   3.119  10.197   3.814  0.1543  0.2834 -0.0371
  244MOL0     C32868   2.992  10.146   3.862 -0.1867  0.0718 -0.4242
  244MOL0     C32869   2.886  10.105   3.893  0.0468  0.9193 -0.0468
  244MOL0     C32870   3.519  10.620   3.720 -0.4494 -0.0653 -0.9440
  244MOL0     C32871   3.655  10.610   3.684 -0.2304 -0.6804  0.9207
  244MOL0     C32872   3.688  10.674   3.552 -0.6036  0.0711  0.5469
  244MOL0     H32873   4.192  10.697   3.746 -2.5632 -2.5127  1.9518
  244MOL0     H32874   4.420  10.637   3.672  0.2646  1.6779  0.0375
  244MOL0     H32875   4.593  10.346   3.414 -1.1811 -0.3219 -0.1676
  244MOL0     H32876   4.433  10.352   3.324  0.1884 -0.6448 -0.5491
  244MOL0     H32877   4.492  10.541   3.206  2.1465  2.5751 -0.5495
  244MOL0     H32878   4.593  10.390   3.175  1.0079  0.0301  0.0720
  244MOL0     H32879   4.749  10.515   3.336  0.4851  3.0905  2.0827
  244MOL0     H32880   4.658  10.657   3.318 -0.0017  1.7474 -2.1953
  244MOL0     H32881   4.765  10.505   3.083 -1.8052 -0.7402 -0.2441
  244MOL0     H32882   4.686  10.661   3.075  0.7293 -0.6322 -0.1329
  244MOL0     H32883   4.864  10.757   3.224  0.8493  0.2384  0.6086
  244MOL0     H32884   4.951  10.607   3.212  1.5407  0.9622 -0.4617
  244MOL0     H32885   4.936  10.622   2.946  1.3703 -0.5528 -0.5368
  244MOL0     H32886   4.889  10.791   2.982  0.3974 -0.7144  0.7549
  244MOL0     H32887   5.157  10.693   3.058 -1.7742 -0.0743  2.8269
  244MOL0     H32888   5.095  10.842   3.101  2.3790 -0.7770  0.4451
  244MOL0     H32889   5.119  10.734   2.819 -2.1627 -0.5022  1.1670
  244MOL0     H32890   5.043  10.892   2.849 -1.5564 -2.1687 -2.6222
  244MOL0     H32891   5.252  11.081   2.997  2.5043  1.9460 -0.4094
  244MOL0     H32892   5.508  11.198   2.798  0.4049  3.4699  2.0769
  244MOL0     H32893   5.490  11.195   2.973 -4.0999  1.8682 -2.5164
  244MOL0     H32894   5.725  11.200   2.918  0.1639 -0.0936  3.1165
  244MOL0     H32895   5.688  11.050   3.004 -2.2916 -0.0613 -0.0657
  244MOL0     H32896   5.741  11.023   2.700 -0.4615 -2.3706 -0.3688
  244MOL0     H32897   5.702  10.906   2.833  0.9850  0.5359  1.9301
  244MOL0     H32898   5.893  10.949   2.940  0.1987  0.7249  0.3519
  244MOL0     H32899   5.939  11.094   2.858 -0.8214  1.0208 -0.4552
  244MOL0     H32900   6.074  10.749   2.591  0.3442  1.5910 -0.9609
  244MOL0     H32901   6.315  10.696   2.592  0.6613  1.2079 -0.9345
  244MOL0     H32902   6.744  10.641   2.881 -1.6646  1.3360  0.8471
  244MOL0     H32903   6.989  10.647   2.918 -1.3703 -0.4712  1.1600
  244MOL0     H32904   7.239  11.021   2.807  6.0175 -0.2879 -0.5562
  244MOL0     H32905   7.188  11.007   2.977  0.2964 -1.5898 -0.0218
  244MOL0     H32906   7.387  10.819   2.974  0.2311  1.2303  0.7122
  244MOL0     H32907   7.413  10.875   2.805 -2.7193 -3.6475 -0.6283
  244MOL0     H32908   7.479  11.084   2.860 -0.3446  1.1880 -0.0933
  244MOL0     H32909   7.439  11.072   3.027  3.1893  3.0786 -0.5356
  244MOL0     H32910   7.599  10.890   3.066  0.9643  0.8284 -0.2644
  244MOL0     H32911   7.673  11.054   3.034 -0.0221  0.0606  0.7804
  244MOL0     H32912   7.743  10.987   2.815  1.0429  0.4690  0.3228
  244MOL0     H32913   7.644  10.842   2.815 -0.8758  0.2915  0.0887
  244MOL0     H32914   7.900  10.826   2.826 -1.1602 -1.6554 -1.1232
  244MOL0     H32915   7.881  10.867   3.000 -2.3768  1.3751  0.7974
  244MOL0     H32916   7.741  10.628   2.861 -1.0441  0.0546  0.4547
  244MOL0     H32917   7.728  10.658   3.025  0.4095  0.2663  0.0809
  244MOL0     H32918   7.956  10.603   3.070 -2.0930 -1.5037  1.2491
  244MOL0     H32919   7.884  10.473   2.970 -1.4750  0.6912 -0.9295
  244MOL0     H32920   6.997  11.061   2.811 -2.7346  1.2271 -4.3186
  244MOL0     H32921   6.752  11.066   2.788 -0.5453  0.4850 -0.4199
  244MOL0     H32922   6.365  10.961   2.932  1.5556 -2.0232 -0.2466
  244MOL0     H32923   6.145  11.035   2.909  3.6279  0.0574  1.7019
  244MOL0     H32924   4.262  10.468   3.320  0.1338 -2.2692  0.0352
  244MOL0     H32925   4.024  10.486   3.407 -1.3252  0.0988  1.4979
  244MOL0     H32926   3.761  10.424   3.953  0.0416 -1.3787 -1.0019
  244MOL0     H32927   3.533  10.422   3.996 -0.4138 -0.5887 -1.0998
  244MOL0     H32928   3.210  10.581   4.014 -0.8947 -1.2838 -0.9300
  244MOL0     H32929   3.363  10.513   4.075 -0.5511 -0.6681  0.7825
  244MOL0     H32930   3.191  10.329   4.063 -0.2990 -1.2154 -0.7710
  244MOL0     H32931   3.327  10.303   3.956 -1.4645 -2.2752  1.1643
  244MOL0     H32932   3.167  10.394   3.764  0.4801 -1.2070  0.3063
  244MOL0     H32933   3.041  10.387   3.881 -0.4698  0.2747 -2.3404
  244MOL0     H32934   3.134  10.193   3.706  0.6008  3.2020 -0.1641
  244MOL0     H32935   3.197  10.132   3.856  1.1981  1.2827 -0.3751
  244MOL0     H32936   2.783  10.093   3.919  0.1340  1.1766  0.4380
  244MOL0     H32937   3.450  10.671   3.655 -2.2872 -0.2916  0.7285
  244MOL0     H32938   3.778  10.737   3.560 -1.4944  1.4559  0.1390
  244MOL0     H32939   3.719  10.609   3.470  0.3737 -0.4331  1.3009
  244MOL0     H32940   3.610  10.741   3.514 -0.1994  0.5027  0.4525
  245MOL0     O32941   2.504   8.601   2.560  0.5439  0.2080  0.0836
  245MOL0     C32942   2.506   8.678   2.654  0.3296 -0.5235 -0.3493
  245MOL0     O32943   2.408   8.766   2.683  1.2820  0.2178  0.5078
  245MOL0     C32944   2.299   8.780   2.602  0.2812 -0.2685 -0.2977
  245MOL0     C32945   2.173   8.708   2.631 -0.5095 -0.5252  0.1889
  245MOL0     C32946   2.074   8.705   2.527 -0.5204  0.0588 -0.3200
  245MOL0     C32947   2.086   8.791   2.418 -0.3365  0.2360  0.2497
  245MOL0     O32948   1.994   8.771   2.319  0.4218 -0.3305 -0.1633
  245MOL0     C32949   1.965   8.890   2.247  0.6828  0.8679  0.9387
  245MOL0     C32950   1.811   8.879   2.211 -0.6175 -0.4055  0.0778
  245MOL0     C32951   1.776   8.748   2.147 -0.2015  0.6222  0.0850
  245MOL0     C32952   1.854   8.722   2.020 -0.3457  0.3669 -0.4099
  245MOL0     C32953   1.802   8.614   1.929 -0.1287 -0.5674 -0.2863
  245MOL0     C32954   1.886   8.615   1.802 -0.8321  0.1776 -0.8809
  245MOL0     C32955   1.864   8.498   1.700  0.1422 -0.3067  0.5905
  245MOL0     C32956   1.943   8.369   1.743  0.3342 -0.6228 -0.5795
  245MOL0     N32957   1.919   8.256   1.661  0.1400  0.9438 -0.3760
  245MOL0     C32958   2.008   8.168   1.597 -0.3399 -0.1418 -0.3206
  245MOL0     C32959   1.926   8.083   1.532  0.7293  0.4087  0.6148
  245MOL0     C32960   1.975   7.962   1.461 -1.2444  0.3477  0.0647
  245MOL0     C32961   1.913   7.937   1.323  0.0721  0.3073 -0.3391
  245MOL0     C32962   1.939   8.045   1.215 -0.2228 -0.2784 -0.7281
  245MOL0     C32963   1.867   8.005   1.090  0.4158 -0.0583 -0.3638
  245MOL0     O32964   1.807   8.119   1.025 -0.3702  0.1062 -0.5876
  245MOL0     C32965   1.678   8.137   1.031  0.3847 -0.2022  0.6726
  245MOL0     C32966   1.587   8.078   0.940  0.0068 -0.2327 -0.0374
  245MOL0     C32967   1.451   8.117   0.940 -0.5897 -0.1464  0.9740
  245MOL0     C32968   1.409   8.224   1.023 -0.4855  0.1753  0.6073
  245MOL0     C32969   1.271   8.275   1.020 -0.3819  0.0984  0.9331
  245MOL0     O32970   1.183   8.197   0.944 -0.4076 -0.3944 -0.4756
  245MOL0     C32971   1.057   8.242   0.920 -0.4880 -0.9276  0.1826
  245MOL0     C32972   0.954   8.145   0.918  0.0515  0.2483 -0.1938
  245MOL0     C32973   0.823   8.177   0.880  0.3694 -0.7434 -0.3434
  245MOL0     C32974   0.790   8.307   0.850  0.4120 -0.8211 -0.8325
  245MOL0     O32975   0.665   8.338   0.801 -0.4222 -0.0398 -0.4975
  245MOL0     C32976   0.568   8.329   0.900  0.4648  0.1275 -1.0059
  245MOL0     C32977   0.434   8.365   0.843  0.4301  0.2794 -0.3184
  245MOL0     C32978   0.373   8.243   0.761 -1.0697 -0.2633  0.3699
  245MOL0     C32979   0.224   8.257   0.738 -0.3920  0.0508  0.1855
  245MOL0     C32980   0.138   8.190   0.851  0.3623 -0.4275  0.1365
  245MOL0     C32981  -0.004   8.152   0.812  0.5468  0.0939 -0.5762
  245MOL0     C32982  -0.070   8.081   0.938  0.6895  0.4714 -0.4799
  245MOL0     C32983  -0.221   8.051   0.921 -0.0970 -1.0308 -0.3158
  245MOL0    Cl32984  -0.251   7.938   0.774  0.0737 -0.2440 -0.3807
  245MOL0     C32985   0.889   8.402   0.855 -0.5031  1.0786  0.3742
  245MOL0     C32986   1.017   8.378   0.892 -0.3660  0.7992  0.4909
  245MOL0     O32987   1.241   8.377   1.084 -0.1267 -0.6941 -0.1876
  245MOL0     C32988   1.502   8.279   1.113 -0.4337  0.7975 -0.1008
  245MOL0     C32989   1.633   8.233   1.118 -0.8612  0.6356 -0.1600
  245MOL0     N32990   1.797   8.113   1.559  0.2476 -0.0945 -0.5026
  245MOL0     N32991   1.791   8.198   1.655 -0.6407  0.6097 -0.0209
  245MOL0     C32992   2.196   8.872   2.402 -0.0153 -0.3621  0.1832
  245MOL0     C32993   2.302   8.868   2.496  0.0593  0.6282 -0.0060
  245MOL0     C32994   2.607   8.675   2.755 -0.3558 -0.4811  0.0706
  245MOL0     C32995   2.575   8.721   2.883 -0.6108 -0.2296 -0.9937
  245MOL0     C32996   2.679   8.753   2.978 -0.4148 -0.0030  0.2949
  245MOL0     C32997   2.806   8.711   2.958 -0.2209  1.0094  0.0652
  245MOL0     O32998   2.899   8.728   3.056 -0.6715  0.2091 -0.0707
  245MOL0     C32999   2.999   8.822   3.019 -0.4664  0.2458  0.0728
  245MOL0     C33000   3.075   8.860   3.141  0.5547  0.2107 -0.1968
  245MOL0     C33001   3.163   8.741   3.194 -0.0393 -0.0612 -0.4831
  245MOL0     C33002   3.300   8.729   3.131 -0.2700  0.0923 -0.2183
  245MOL0     C33003   3.384   8.632   3.209 -0.0107  1.3532  0.7348
  245MOL0     C33004   3.465   8.562   3.272 -1.0924 -0.4321  1.0159
  245MOL0     C33005   2.832   8.638   2.841 -0.1131 -0.8818  0.4488
  245MOL0     C33006   2.736   8.620   2.735 -0.0230  0.2873  0.0337
  245MOL0     C33007   2.785   8.548   2.609  0.4584  0.2673 -0.3170
  245MOL0     H33008   2.174   8.635   2.712 -1.0003  0.8483  1.4704
  245MOL0     H33009   1.990   8.636   2.522 -2.5755  2.4663 -1.7749
  245MOL0     H33010   1.996   8.984   2.293  1.9876  1.0874 -0.2915
  245MOL0     H33011   2.022   8.889   2.153 -0.7347 -0.3600  0.0364
  245MOL0     H33012   1.790   8.950   2.129  0.0378 -1.0027 -0.6233
  245MOL0     H33013   1.741   8.890   2.294 -3.4601 -1.5025 -1.9813
  245MOL0     H33014   1.669   8.759   2.130 -0.7959 -1.0600  2.2834
  245MOL0     H33015   1.791   8.667   2.219  4.6943  0.8556 -0.3099
  245MOL0     H33016   1.840   8.813   1.960 -2.1180 -1.1962 -2.5001
  245MOL0     H33017   1.958   8.701   2.048 -1.4353 -0.6459  3.4291
  245MOL0     H33018   1.814   8.512   1.965 -0.7405 -1.3002 -2.0642
  245MOL0     H33019   1.696   8.633   1.906 -1.1019 -3.3615  1.3951
  245MOL0     H33020   1.884   8.709   1.747  1.9975  0.0091 -1.4116
  245MOL0     H33021   1.990   8.604   1.834 -0.3734  1.2879 -1.9030
  245MOL0     H33022   1.888   8.531   1.598  1.1994  1.6083  1.4099
  245MOL0     H33023   1.757   8.474   1.703 -0.0037  0.3558  0.8193
  245MOL0     H33024   2.051   8.388   1.748  0.1205  0.2929  1.7457
  245MOL0     H33025   1.915   8.342   1.845 -0.7644 -0.8900 -0.9421
  245MOL0     H33026   2.117   8.176   1.593 -0.3942  0.6788 -0.1812
  245MOL0     H33027   2.082   7.973   1.445 -1.2490 -0.3601 -0.5027
  245MOL0     H33028   1.960   7.879   1.530  2.4307  0.0887  0.7164
  245MOL0     H33029   1.974   7.850   1.296  0.5872  0.3634  0.6233
  245MOL0     H33030   1.806   7.921   1.338  0.2016 -0.0190  0.2689
  245MOL0     H33031   2.043   8.069   1.193  0.7101  0.4483  3.6129
  245MOL0     H33032   1.907   8.145   1.247  1.5965  0.0944 -0.0006
  245MOL0     H33033   1.791   7.930   1.116  0.6496  0.2965  1.4849
  245MOL0     H33034   1.947   7.960   1.031  1.0738 -0.5292  0.8370
  245MOL0     H33035   1.621   7.992   0.884 -0.0681 -1.1458  1.2911
  245MOL0     H33036   1.390   8.074   0.862  2.8046 -1.0611 -1.3730
  245MOL0     H33037   0.971   8.040   0.941 -2.8258 -1.2516 -3.8484
  245MOL0     H33038   0.745   8.104   0.861 -0.0566 -0.4751  0.3409
  245MOL0     H33039   0.562   8.232   0.950  0.1685  0.5420 -0.2253
  245MOL0     H33040   0.592   8.401   0.978 -3.6529 -0.0007  0.6349
  245MOL0     H33041   0.361   8.382   0.923  0.5595 -0.3465 -0.0618
  245MOL0     H33042   0.431   8.458   0.786  1.6946 -1.0513 -2.6742
  245MOL0     H33043   0.422   8.251   0.663  0.6306  1.9832  1.3217
  245MOL0     H33044   0.404   8.147   0.804  3.2894  0.4906 -0.5560
  245MOL0     H33045   0.211   8.211   0.640  0.8359 -1.1244  0.5400
  245MOL0     H33046   0.192   8.361   0.740 -1.8729 -0.3718  0.3313
  245MOL0     H33047   0.135   8.252   0.941  2.9442 -0.0221  0.0230
  245MOL0     H33048   0.192   8.099   0.880 -0.1733  0.0949  3.1237
  245MOL0     H33049  -0.054   8.246   0.788 -0.0675  0.1307  0.7816
  245MOL0     H33050   0.005   8.077   0.733  2.0922 -1.4575  0.9732
  245MOL0     H33051  -0.053   8.153   1.019 -2.1166  2.5199 -1.5614
  245MOL0     H33052  -0.020   7.985   0.953  2.8708  1.6669  0.3942
  245MOL0     H33053  -0.267   7.997   1.004  0.9576  0.1871  1.1061
  245MOL0     H33054  -0.274   8.144   0.900 -1.8193 -2.5266 -3.4293
  245MOL0     H33055   0.869   8.502   0.818  3.0331  1.0220 -2.1307
  245MOL0     H33056   1.088   8.459   0.889 -0.3009  0.7621  0.9523
  245MOL0     H33057   1.480   8.357   1.185  2.6408 -1.5560  3.8353
  245MOL0     H33058   1.702   8.275   1.190 -1.1695  2.6766 -0.9858
  245MOL0     H33059   2.205   8.947   2.324 -2.9604 -0.1943 -0.0947
  245MOL0     H33060   2.394   8.925   2.491  0.8769 -0.6965 -0.7517
  245MOL0     H33061   2.479   8.761   2.911 -0.6484 -1.6868  1.2274
  245MOL0     H33062   2.655   8.805   3.070 -2.8234  2.3715 -1.5096
  245MOL0     H33063   2.970   8.918   2.974 -1.1845  0.4217  0.8843
  245MOL0     H33064   3.072   8.789   2.945  1.0938  2.6015  0.4408
  245MOL0     H33065   3.009   8.902   3.217  1.7860  3.2322 -0.6661
  245MOL0     H33066   3.141   8.946   3.127  0.5801  0.5340  1.6485
  245MOL0     H33067   3.110   8.645   3.189 -1.1523  0.5985 -1.6018
  245MOL0     H33068   3.169   8.763   3.301 -1.8049  0.5722 -0.4814
  245MOL0     H33069   3.280   8.688   3.032 -1.5449 -1.8574  0.7862
  245MOL0     H33070   3.335   8.832   3.121 -3.2243  1.1280 -0.9953
  245MOL0     H33071   3.532   8.494   3.320 -0.7399 -1.7783 -1.2247
  245MOL0     H33072   2.929   8.589   2.835  0.4653 -0.1537  2.7888
  245MOL0     H33073   2.862   8.478   2.640 -1.7216 -2.5268 -0.7324
  245MOL0     H33074   2.707   8.492   2.556 -0.8241  1.8768 -0.2309
  245MOL0     H33075   2.829   8.619   2.538  1.3873 -0.9734 -1.0204
  246MOL0     O33076   3.766   4.383  10.394 -0.1273  0.1183  0.4120
  246MOL0     C33077   3.717   4.495  10.428 -0.2007 -0.5342  0.2045
  246MOL0     O33078   3.790   4.597  10.499  0.3686 -0.2977 -0.9753
  246MOL0     C33079   3.904   4.548  10.567 -0.0144  0.6060  0.0944
  246MOL0     C33080   4.025   4.551  10.504  0.2205 -0.0903 -0.2169
  246MOL0     C33081   4.139   4.518  10.576  0.0692 -0.2253  0.0887
  246MOL0     C33082   4.136   4.459  10.701  1.0276 -0.2916 -0.5370
  246MOL0     O33083   4.243   4.418  10.779 -0.0907 -0.0736  0.9280
  246MOL0     C33084   4.375   4.464  10.739  0.1166  0.4043  0.3721
  246MOL0     C33085   4.409   4.584  10.818 -0.2810 -0.6444  0.1402
  246MOL0     C33086   4.541   4.652  10.764  0.3253 -0.6275 -0.5255
  246MOL0     C33087   4.584   4.755  10.869  0.3366  0.7444  0.7711
  246MOL0     C33088   4.730   4.799  10.850 -0.7683 -0.5508 -1.2567
  246MOL0     C33089   4.755   4.941  10.910 -0.0178  0.6285  0.3299
  246MOL0     C33090   4.904   4.980  10.879 -0.1905 -0.1935  0.0978
  246MOL0     C33091   5.010   4.900  10.951  0.6280 -1.0461 -0.1207
  246MOL0     N33092   5.134   4.976  10.929 -0.1490 -0.2601  0.2405
  246MOL0     C33093   5.203   4.986  10.811 -0.6073 -1.0813 -0.3406
  246MOL0     C33094   5.332   4.994  10.845 -0.4417  0.2207  0.0832
  246MOL0     C33095   5.446   5.017  10.748  0.4673  0.2698  0.4058
  246MOL0     C33096   5.573   5.084  10.803 -0.4359  1.4742  0.2267
  246MOL0     C33097   5.687   5.088  10.689  0.5905  0.0527 -0.3901
  246MOL0     C33098   5.812   5.140  10.746 -0.8419  0.3134 -0.5322
  246MOL0     O33099   5.814   5.285  10.763 -0.4629  0.6523 -0.2318
  246MOL0     C33100   5.943   5.336  10.780 -0.2020 -0.2406 -0.0662
  246MOL0     C33101   6.069   5.287  10.723 -0.0479  0.2478  0.6442
  246MOL0     C33102   6.189   5.360  10.743  0.1535  0.8440 -0.9728
  246MOL0     C33103   6.196   5.482  10.807 -0.5104 -0.1125 -0.6532
  246MOL0     C33104   6.325   5.546  10.806  0.4624  0.8534  0.4788
  246MOL0     O33105   6.431   5.466  10.771  0.0747  0.3310  0.2879
  246MOL0     C33106   6.556   5.510  10.786 -0.2703 -0.5473 -0.8016
  246MOL0     C33107   6.594   5.636  10.736  0.0484 -0.4126  0.2059
  246MOL0     C33108   6.731   5.668  10.738 -0.7223 -0.1822 -0.0414
  246MOL0     C33109   6.827   5.574  10.790 -0.6532 -0.4505  0.0827
  246MOL0     O33110   6.960   5.601  10.800  0.1175  0.6021  0.7089
  246MOL0     C33111   7.033   5.610  10.677  0.0273 -0.2121 -1.0804
  246MOL0     C33112   7.134   5.492  10.685  1.1458  0.4128  0.4173
  246MOL0     C33113   7.234   5.487  10.574 -0.3786 -0.2833 -0.7730
  246MOL0     C33114   7.309   5.620  10.551  0.2295 -0.2149 -0.6481
  246MOL0     C33115   7.429   5.589  10.464  0.4386 -0.1073 -0.0998
  246MOL0     C33116   7.488   5.721  10.424 -0.2237  0.3380 -0.1300
  246MOL0     C33117   7.610   5.715  10.336  0.1093  0.7325  1.5362
  246MOL0     C33118   7.633   5.857  10.287 -0.3633 -0.2878  0.0684
  246MOL0    Cl33119   7.498   5.920  10.199 -0.1207 -0.1909  0.3904
  246MOL0     C33120   6.790   5.453  10.838 -0.6748  0.1265  1.1051
  246MOL0     C33121   6.652   5.428  10.840  0.1066  0.4555 -1.2858
  246MOL0     O33122   6.333   5.658  10.854 -0.0175 -0.1021  0.0500
  246MOL0     C33123   6.070   5.536  10.841  0.5119  0.1293  1.0957
  246MOL0     C33124   5.953   5.471  10.817 -0.1967 -0.3520 -0.1864
  246MOL0     N33125   5.341   5.007  10.981 -0.0810  0.0904  0.2734
  246MOL0     N33126   5.220   4.998  11.034  0.0267  0.6114 -0.3306
  246MOL0     C33127   4.011   4.443  10.759  0.4473  0.1103 -0.6198
  246MOL0     C33128   3.900   4.499  10.694 -0.1132 -1.0094  0.4755
  246MOL0     C33129   3.573   4.517  10.386  0.0565 -0.0313 -0.3831
  246MOL0     C33130   3.526   4.651  10.386  0.5494 -0.2582  0.1152
  246MOL0     C33131   3.393   4.679  10.346 -0.2589  0.0050 -0.0915
  246MOL0     C33132   3.306   4.577  10.312  0.0026 -0.9959 -0.8313
  246MOL0     O33133   3.196   4.620  10.255 -0.5466 -0.4982 -0.0400
  246MOL0     C33134   3.089   4.530  10.234  0.3707 -0.2747 -0.2062
  246MOL0     C33135   2.962   4.610  10.213 -0.7999  0.3695 -0.0038
  246MOL0     C33136   2.937   4.695  10.340  1.1603  0.7586  0.6029
  246MOL0     C33137   2.805   4.771  10.339  0.3284 -0.1361 -0.4241
  246MOL0     C33138   2.782   4.827  10.475 -0.1983 -0.0385  0.1556
  246MOL0     C33139   2.764   4.866  10.587  0.1368  0.0529 -0.7886
  246MOL0     C33140   3.349   4.445  10.315  0.2209 -0.1307 -0.1952
  246MOL0     C33141   3.482   4.413  10.340 -0.2917 -0.2757 -1.3790
  246MOL0     C33142   3.509   4.255  10.339 -0.0438  0.3312 -0.3899
  246MOL0     H33143   4.042   4.572  10.399 -1.0424 -0.4808 -0.5257
  246MOL0     H33144   4.225   4.534  10.511 -1.5954 -1.8400 -2.7393
  246MOL0     H33145   4.453   4.387  10.746 -1.6104 -1.5683 -0.9983
  246MOL0     H33146   4.386   4.476  10.631  0.7644  2.7352  0.6426
  246MOL0     H33147   4.421   4.553  10.922 -0.9043  0.4540  0.5589
  246MOL0     H33148   4.330   4.658  10.832  0.9742  1.0252 -1.2560
  246MOL0     H33149   4.518   4.710  10.674  2.4053  2.3913  0.7504
  246MOL0     H33150   4.614   4.577  10.733  2.1830  1.1882 -0.7710
  246MOL0     H33151   4.516   4.839  10.852  1.1064  1.0097 -1.3072
  246MOL0     H33152   4.571   4.712  10.969  0.7845 -4.5983 -1.1425
  246MOL0     H33153   4.797   4.726  10.897  1.5332  1.0307 -1.9576
  246MOL0     H33154   4.741   4.812  10.742  1.2588 -1.8849 -1.2604
  246MOL0     H33155   4.690   5.015  10.862 -2.8296 -1.8194  0.0498
  246MOL0     H33156   4.729   4.932  11.016 -1.8120  0.6609 -0.0732
  246MOL0     H33157   4.922   5.087  10.891  3.7599 -0.7567  0.7457
  246MOL0     H33158   4.916   4.964  10.771 -3.7821  3.6257 -1.1532
  246MOL0     H33159   4.989   4.896  11.058 -0.4846  1.2428 -0.1880
  246MOL0     H33160   5.021   4.797  10.915  2.0940 -1.2901  0.9325
  246MOL0     H33161   5.171   5.015  10.711  1.3658 -0.2501 -0.7757
  246MOL0     H33162   5.463   4.916  10.710 -2.3659 -1.4753  3.3220
  246MOL0     H33163   5.401   5.075  10.666 -1.9839  0.8467  2.0643
  246MOL0     H33164   5.537   5.179  10.842 -1.5180  0.9107  0.6390
  246MOL0     H33165   5.603   5.022  10.888 -0.4946  1.7211  0.4293
  246MOL0     H33166   5.654   5.160  10.613 -0.3572  0.7998  0.6862
  246MOL0     H33167   5.709   4.993  10.640 -2.6654 -0.2616 -1.4942
  246MOL0     H33168   5.887   5.111  10.672 -0.5710 -0.8883  0.1824
  246MOL0     H33169   5.838   5.099  10.844  2.6850  1.2936 -0.9484
  246MOL0     H33170   6.068   5.196  10.663 -1.1974  1.1964 -0.8382
  246MOL0     H33171   6.275   5.306  10.706 -0.1298 -1.4262  1.3378
  246MOL0     H33172   6.519   5.703  10.696  0.8921  1.1020  1.0571
  246MOL0     H33173   6.769   5.759  10.692 -2.3392  0.6159  0.1290
  246MOL0     H33174   6.968   5.604  10.588  1.2054 -1.3043 -1.8974
  246MOL0     H33175   7.094   5.700  10.687 -1.7664  0.8026  2.1258
  246MOL0     H33176   7.186   5.496  10.781  1.5001  1.9050  0.1947
  246MOL0     H33177   7.081   5.397  10.680  4.0545 -1.2372 -1.8283
  246MOL0     H33178   7.312   5.413  10.596 -0.1317 -0.2147 -1.3953
  246MOL0     H33179   7.172   5.462  10.488  0.8703 -0.7546 -1.5532
  246MOL0     H33180   7.340   5.649  10.652 -1.6369  2.8436 -0.8304
  246MOL0     H33181   7.238   5.691  10.511 -0.4165  0.2419  1.2042
  246MOL0     H33182   7.399   5.525  10.380  2.4270  0.8783 -1.6490
  246MOL0     H33183   7.512   5.534  10.509 -0.3606 -2.2655 -1.0981
  246MOL0     H33184   7.403   5.775  10.383 -0.5872  1.5965  2.1321
  246MOL0     H33185   7.512   5.773  10.517 -0.5649  0.7891 -0.2904
  246MOL0     H33186   7.585   5.650  10.252  1.0265  0.5420  1.4005
  246MOL0     H33187   7.697   5.666  10.379  0.3576 -0.4175 -0.1675
  246MOL0     H33188   7.653   5.925  10.370  3.5642 -1.5820  0.4093
  246MOL0     H33189   7.720   5.851  10.221 -0.5950 -1.6407 -0.1448
  246MOL0     H33190   6.857   5.382  10.885  0.4950 -0.8059 -1.7430
  246MOL0     H33191   6.619   5.343  10.897  1.2475  0.3686 -0.7304
  246MOL0     H33192   6.052   5.638  10.870 -0.8584 -0.5464  2.7797
  246MOL0     H33193   5.856   5.513  10.842  0.1812 -0.0607  0.8148
  246MOL0     H33194   4.013   4.407  10.861  0.3307  1.4283 -0.1353
  246MOL0     H33195   3.808   4.517  10.747 -1.0533 -0.9811 -1.1021
  246MOL0     H33196   3.590   4.737  10.406 -0.8404  0.8393 -0.0214
  246MOL0     H33197   3.367   4.784  10.336  0.6396  1.0488  5.3205
  246MOL0     H33198   3.076   4.454  10.312  3.7751 -0.3592  0.4394
  246MOL0     H33199   3.096   4.473  10.140 -0.0659 -1.8288  0.6656
  246MOL0     H33200   2.871   4.550  10.199  0.0148 -0.7668 -0.5803
  246MOL0     H33201   2.968   4.681  10.130  2.6370  0.4224  0.1687
  246MOL0     H33202   3.026   4.759  10.340  4.3125 -3.1533  0.1206
  246MOL0     H33203   2.947   4.640  10.434 -0.6604  1.1690  1.0648
  246MOL0     H33204   2.812   4.860  10.276 -1.3337  1.0741  1.0295
  246MOL0     H33205   2.728   4.704  10.298  0.2664 -0.0733 -0.4099
  246MOL0     H33206   2.761   4.899  10.689  0.2826 -1.0464 -0.4135
  246MOL0     H33207   3.272   4.370  10.297 -0.9510  1.4644 -2.3471
  246MOL0     H33208   3.546   4.224  10.240 -2.3437  1.1545 -1.5886
  246MOL0     H33209   3.580   4.222  10.415  1.2554 -0.9235 -2.0526
  246MOL0     H33210   3.413   4.203  10.337  0.0940  0.0788 -1.9159
  247MOL0     O33211   0.861   1.365   3.831  0.3736  0.0894 -0.0550
  247MOL0     C33212   0.805   1.473   3.814  0.4025 -0.0926 -0.2441
  247MOL0     O33213   0.808   1.541   3.693 -0.6073  0.2023 -0.1114
  247MOL0     C33214   0.901   1.500   3.597 -0.4736 -0.0028 -0.3608
  247MOL0     C33215   1.024   1.558   3.586  0.4445  0.1017  0.2239
  247MOL0     C33216   1.110   1.521   3.480 -0.4821 -0.1141 -0.4453
  247MOL0     C33217   1.076   1.418   3.390 -0.2463 -0.0977  0.2128
  247MOL0     O33218   1.176   1.381   3.299  0.0885  0.5009  0.4744
  247MOL0     C33219   1.156   1.268   3.208  0.5382 -0.3780  0.0963
  247MOL0     C33220   1.293   1.224   3.148 -0.0568  0.6522 -0.7243
  247MOL0     C33221   1.382   1.332   3.103 -1.6779 -0.3604  0.1363
  247MOL0     C33222   1.480   1.288   2.987  0.2529  0.1799 -0.6192
  247MOL0     C33223   1.555   1.416   2.950  0.1740  0.6076  0.5657
  247MOL0     C33224   1.589   1.416   2.803  0.2082  0.4974  0.1818
  247MOL0     C33225   1.689   1.299   2.762  0.9222 -0.1298 -0.1357
  247MOL0     C33226   1.822   1.318   2.839 -0.4444  0.4351  0.2583
  247MOL0     N33227   1.930   1.228   2.795  0.0828 -0.0064  0.3032
  247MOL0     C33228   2.031   1.262   2.707 -0.2199  0.1647 -0.2084
  247MOL0     C33229   2.122   1.166   2.716 -0.7254 -0.8172 -0.0303
  247MOL0     C33230   2.239   1.143   2.632 -0.1750  0.1395 -0.0477
  247MOL0     C33231   2.346   1.254   2.653 -0.5765  0.0721 -0.2540
  247MOL0     C33232   2.452   1.276   2.538  0.8656  0.7277 -0.7265
  247MOL0     C33233   2.546   1.157   2.523  0.2082  0.2705 -0.6792
  247MOL0     O33234   2.631   1.170   2.638 -0.6437 -0.1876  0.2671
  247MOL0     C33235   2.760   1.192   2.616 -0.3093 -0.6510  0.1105
  247MOL0     C33236   2.833   1.147   2.498 -0.2618 -0.7348 -0.0951
  247MOL0     C33237   2.967   1.174   2.486 -0.4084 -0.2988 -0.2559
  247MOL0     C33238   3.039   1.229   2.596  0.6871 -1.0916  0.9931
  247MOL0     C33239   3.184   1.257   2.582  0.2082  0.2416  0.5013
  247MOL0     O33240   3.258   1.215   2.470  0.2234  0.2516 -0.0942
  247MOL0     C33241   3.386   1.252   2.458 -0.8283  0.8769  0.4572
  247MOL0     C33242   3.417   1.302   2.332 -0.5670  0.2394  0.4204
  247MOL0     C33243   3.544   1.346   2.297  0.0907 -1.1332  0.0640
  247MOL0     C33244   3.646   1.324   2.388 -0.2223  0.2229 -0.4010
  247MOL0     O33245   3.777   1.360   2.369  0.1992 -0.0903 -0.0584
  247MOL0     C33246   3.832   1.395   2.240  0.3705  0.2158  0.4823
  247MOL0     C33247   3.976   1.423   2.255  0.2001 -0.1853 -0.8899
  247MOL0     C33248   4.059   1.296   2.262  0.7113  0.0427 -0.1176
  247MOL0     C33249   4.206   1.303   2.283  0.5932 -0.3972 -0.9617
  247MOL0     C33250   4.262   1.164   2.316 -0.0292 -0.3480  0.3871
  247MOL0     C33251   4.402   1.174   2.371  0.8081  0.7663 -0.7553
  247MOL0     C33252   4.491   1.054   2.322  0.8316  0.0288  0.1784
  247MOL0     C33253   4.640   1.076   2.351 -0.5919  0.1394  0.2519
  247MOL0    Cl33254   4.738   0.940   2.290 -0.1909  0.3075 -0.0989
  247MOL0     C33255   3.618   1.270   2.515  0.6889 -0.8242 -1.2282
  247MOL0     C33256   3.489   1.227   2.553 -0.2360  0.1818 -0.3738
  247MOL0     O33257   3.226   1.319   2.670  0.1465  0.2960 -0.1116
  247MOL0     C33258   2.970   1.264   2.709  0.6480  0.4482  0.2204
  247MOL0     C33259   2.828   1.256   2.718 -0.7392  0.1665 -0.2621
  247MOL0     N33260   2.077   1.073   2.799  0.5757  0.5433 -0.2464
  247MOL0     N33261   1.964   1.108   2.851 -0.6379  0.4434  0.2005
  247MOL0     C33262   0.953   1.359   3.411 -0.5531  0.2674  0.1558
  247MOL0     C33263   0.871   1.396   3.514  0.5994  0.1838 -0.9643
  247MOL0     C33264   0.747   1.540   3.922  0.2327  0.2868 -0.4272
  247MOL0     C33265   0.762   1.682   3.915  0.5157  0.4382 -0.5623
  247MOL0     C33266   0.707   1.762   4.018  0.1558 -0.5222 -0.2247
  247MOL0     C33267   0.636   1.705   4.122  0.5751  0.7996  0.3360
  247MOL0     O33268   0.576   1.777   4.215 -0.5233 -0.1224 -0.5611
  247MOL0     C33269   0.604   1.916   4.235 -0.3947  0.0184 -0.2546
  247MOL0     C33270   0.578   1.957   4.379 -1.0485  0.2333 -0.3586
  247MOL0     C33271   0.442   1.899   4.433 -0.3704 -0.6404  0.0443
  247MOL0     C33272   0.422   1.955   4.571  0.5052 -0.3026 -0.0866
  247MOL0     C33273   0.294   1.917   4.628  0.0147 -0.4316 -0.4819
  247MOL0     C33274   0.182   1.908   4.678  0.2295 -0.9148 -0.7898
  247MOL0     C33275   0.625   1.563   4.128  0.4974  0.4865  0.2037
  247MOL0     C33276   0.678   1.482   4.032 -1.5651  0.0103  0.0836
  247MOL0     C33277   0.668   1.331   4.049 -0.5036 -0.1887 -1.0685
  247MOL0     H33278   1.046   1.637   3.657 -0.4271  1.1416 -0.6405
  247MOL0     H33279   1.204   1.575   3.485 -1.9221  2.6312 -0.6790
  247MOL0     H33280   1.116   1.178   3.255 -0.0731 -0.7267 -1.0732
  247MOL0     H33281   1.094   1.309   3.128 -0.8026  1.7919  2.1199
  247MOL0     H33282   1.275   1.148   3.071 -1.7290 -0.1695  0.4040
  247MOL0     H33283   1.343   1.170   3.229 -0.6911 -2.5396 -2.2847
  247MOL0     H33284   1.432   1.375   3.191  1.2258  2.7154 -2.7254
  247MOL0     H33285   1.331   1.420   3.062 -2.3421  0.0299  1.7287
  247MOL0     H33286   1.544   1.208   3.026 -1.0328  0.4630  2.3789
  247MOL0     H33287   1.406   1.259   2.912 -1.2195  1.6945  0.1960
  247MOL0     H33288   1.508   1.512   2.975  1.8882  1.6644 -0.1306
  247MOL0     H33289   1.645   1.427   3.012  0.7007 -2.5461  0.5190
  247MOL0     H33290   1.502   1.406   2.738  1.3692 -1.7196 -1.1603
  247MOL0     H33291   1.644   1.508   2.781  0.2089  0.5828  0.5285
  247MOL0     H33292   1.710   1.314   2.656  2.6667 -0.5851  0.1171
  247MOL0     H33293   1.640   1.202   2.777  1.6746 -0.3456  1.1040
  247MOL0     H33294   1.858   1.421   2.838 -1.0892  0.6613  0.1660
  247MOL0     H33295   1.801   1.304   2.946 -0.1065 -0.0685  0.2652
  247MOL0     H33296   2.037   1.343   2.635  0.1999 -0.4492 -0.8754
  247MOL0     H33297   2.283   1.049   2.667  2.7143  1.2410 -0.4527
  247MOL0     H33298   2.218   1.129   2.525  0.7632 -1.7235 -0.0239
  247MOL0     H33299   2.293   1.348   2.673 -3.1431 -1.3042 -0.1420
  247MOL0     H33300   2.402   1.239   2.745  0.5051  1.5855 -0.6215
  247MOL0     H33301   2.509   1.366   2.561  1.1359  0.9415 -2.1552
  247MOL0     H33302   2.402   1.291   2.441  1.3458  0.4189 -1.0238
  247MOL0     H33303   2.597   1.177   2.429 -0.4576 -0.9474 -1.3250
  247MOL0     H33304   2.493   1.061   2.521  0.5428  0.0944 -1.1150
  247MOL0     H33305   2.793   1.099   2.410 -2.0411  1.0426 -0.3232
  247MOL0     H33306   3.016   1.143   2.394 -0.8685 -0.9443 -0.2867
  247MOL0     H33307   3.333   1.327   2.267 -0.7548 -0.6574  0.3040
  247MOL0     H33308   3.559   1.404   2.208  1.9437  1.2620  1.8032
  247MOL0     H33309   3.817   1.316   2.166 -0.8544  1.8933 -1.1626
  247MOL0     H33310   3.781   1.488   2.213  1.1524  0.4280 -0.3321
  247MOL0     H33311   4.013   1.484   2.172  1.5922  0.7656  0.3770
  247MOL0     H33312   3.979   1.485   2.344  1.4312 -1.8271  0.2861
  247MOL0     H33313   4.019   1.226   2.336  0.7892  3.3415  3.3923
  247MOL0     H33314   4.037   1.254   2.164  1.5639 -0.0558 -0.2764
  247MOL0     H33315   4.223   1.371   2.367 -0.3011 -1.9602  0.5492
  247MOL0     H33316   4.251   1.346   2.193 -0.2674 -0.1758 -1.3056
  247MOL0     H33317   4.258   1.098   2.229  2.4794  0.4523 -0.4110
  247MOL0     H33318   4.196   1.116   2.390  0.0544  0.9099  1.3137
  247MOL0     H33319   4.451   1.268   2.343  0.5635  0.9754 -0.4951
  247MOL0     H33320   4.401   1.160   2.479  0.5809 -3.4259 -1.1540
  247MOL0     H33321   4.483   1.029   2.216  2.5139  1.7932 -0.4269
  247MOL0     H33322   4.455   0.966   2.377 -2.1034  1.2656  0.4139
  247MOL0     H33323   4.681   1.167   2.305 -1.8567  3.5720  5.1207
  247MOL0     H33324   4.654   1.089   2.459  3.2671  1.8782 -0.2618
  247MOL0     H33325   3.706   1.257   2.578 -0.4669 -2.9682  0.0570
  247MOL0     H33326   3.467   1.186   2.650 -0.4178 -0.2104 -0.5804
  247MOL0     H33327   3.011   1.317   2.795  2.0945  0.6795 -0.5838
  247MOL0     H33328   2.759   1.278   2.799 -2.6244 -0.6054 -1.5843
  247MOL0     H33329   0.924   1.274   3.350 -2.3437  0.2965  0.8946
  247MOL0     H33330   0.778   1.347   3.540 -0.5039  1.4578 -2.3725
  247MOL0     H33331   0.822   1.729   3.838 -0.4292  1.8358 -0.4819
  247MOL0     H33332   0.710   1.871   4.008  1.6432 -0.0682  3.6327
  247MOL0     H33333   0.532   1.971   4.174  0.7314  1.4242 -0.3657
  247MOL0     H33334   0.706   1.949   4.213 -0.4125  0.3439  0.1486
  247MOL0     H33335   0.588   2.065   4.391  2.4605  0.1092 -0.9847
  247MOL0     H33336   0.665   1.926   4.438 -0.3403  0.3877 -1.2956
  247MOL0     H33337   0.438   1.790   4.437 -0.8412 -0.6212  3.6436
  247MOL0     H33338   0.359   1.936   4.373  0.8852  0.6499 -0.9654
  247MOL0     H33339   0.507   1.928   4.634  1.1690 -4.2539 -2.3718
  247MOL0     H33340   0.421   2.065   4.572 -1.8805 -0.2198 -2.1625
  247MOL0     H33341   0.077   1.913   4.701  0.3813  2.0591 -0.3798
  247MOL0     H33342   0.584   1.521   4.220 -2.7557 -1.1496 -1.7751
  247MOL0     H33343   0.627   1.288   4.141  0.3551 -0.0942 -0.6356
  247MOL0     H33344   0.593   1.292   3.979  0.3187 -2.4705 -0.7724
  247MOL0     H33345   0.763   1.284   4.023  0.6352  1.2640  0.2568
  248MOL0     O33346   3.673   9.147  11.269  0.0359  0.1555 -0.4882
  248MOL0     C33347   3.618   9.051  11.319 -0.0226  0.8971 -0.6705
  248MOL0     O33348   3.683   8.943  11.366 -0.2965  0.5691 -1.1409
  248MOL0     C33349   3.811   8.927  11.320 -0.2141  0.4811  0.3046
  248MOL0     C33350   3.836   8.838  11.219 -1.0387 -0.0838 -0.0749
  248MOL0     C33351   3.958   8.829  11.159 -0.2577 -0.4429  0.0121
  248MOL0     C33352   4.068   8.909  11.199  0.1654 -0.1793 -0.7923
  248MOL0     O33353   4.194   8.904  11.143 -0.0918  0.2742 -0.6557
  248MOL0     C33354   4.221   8.809  11.038 -0.6376  0.4360 -0.4126
  248MOL0     C33355   4.372   8.807  11.024 -0.3919 -0.5702  0.4967
  248MOL0     C33356   4.416   8.708  10.913 -0.7011  0.1243  0.3130
  248MOL0     C33357   4.568   8.696  10.907 -0.2081  0.1481 -0.2849
  248MOL0     C33358   4.591   8.575  10.824 -0.1870 -0.3858  0.7143
  248MOL0     C33359   4.737   8.540  10.798 -0.4491  0.2281 -0.0164
  248MOL0     C33360   4.740   8.413  10.705 -0.6759 -0.9735  0.1009
  248MOL0     C33361   4.861   8.322  10.744 -0.4578 -0.4880 -0.5599
  248MOL0     N33362   4.900   8.222  10.640  0.2550 -0.4759  0.1468
  248MOL0     C33363   4.811   8.124  10.597 -0.5286  0.0235  0.2715
  248MOL0     C33364   4.888   8.044  10.514 -0.5357  0.2235 -0.1280
  248MOL0     C33365   4.824   7.925  10.434 -0.0295 -0.2483  0.4621
  248MOL0     C33366   4.860   7.794  10.501 -0.6107  0.2364  0.4540
  248MOL0     C33367   5.003   7.779  10.547 -0.3446  0.3751  0.2624
  248MOL0     C33368   5.041   7.643  10.608 -0.2514 -0.8805 -0.0230
  248MOL0     O33369   4.960   7.611  10.721 -0.7082  0.8263  0.0179
  248MOL0     C33370   5.031   7.546  10.823 -0.8244  0.8702  1.3254
  248MOL0     C33371   5.111   7.436  10.794  0.9619 -0.4432  0.0973
  248MOL0     C33372   5.185   7.377  10.889  0.2190 -0.2989 -0.0472
  248MOL0     C33373   5.190   7.432  11.014 -0.2079 -0.8049  0.2753
  248MOL0     C33374   5.284   7.381  11.116 -1.0293  0.4952 -0.4626
  248MOL0     O33375   5.396   7.313  11.071  0.2978  0.2287 -0.8538
  248MOL0     C33376   5.477   7.270  11.177 -0.1681 -0.2132 -0.3808
  248MOL0     C33377   5.600   7.332  11.183  0.7200 -0.2741  0.0361
  248MOL0     C33378   5.698   7.291  11.273 -0.0416 -0.0526  0.4652
  248MOL0     C33379   5.667   7.184  11.366 -0.1068  0.5393 -0.7299
  248MOL0     O33380   5.769   7.133  11.444  0.0552 -0.1001  0.7335
  248MOL0     C33381   5.758   7.013  11.525  0.1819  0.2612  0.4542
  248MOL0     C33382   5.897   6.958  11.540  0.3562  0.2388  0.2988
  248MOL0     C33383   5.996   7.059  11.610 -0.3280 -0.2544 -0.1087
  248MOL0     C33384   6.138   7.000  11.634  0.6216  0.3103  0.0924
  248MOL0     C33385   6.239   7.095  11.690  0.2002  0.0721  0.5553
  248MOL0     C33386   6.382   7.043  11.716  0.2038 -0.1250 -0.6977
  248MOL0     C33387   6.397   6.885  11.703 -0.2339  0.7589 -0.6267
  248MOL0     C33388   6.530   6.831  11.758  0.3981  0.6897 -0.2477
  248MOL0    Cl33389   6.520   6.655  11.734 -0.1854 -0.0197  0.3511
  248MOL0     C33390   5.544   7.127  11.360  0.5429  0.1867 -0.9020
  248MOL0     C33391   5.450   7.171  11.268 -0.2236  0.6967  0.3334
  248MOL0     O33392   5.264   7.403  11.232  0.4877 -0.0186  0.3466
  248MOL0     C33393   5.122   7.539  11.054  0.0759 -0.7474  0.6824
  248MOL0     C33394   5.036   7.591  10.953 -0.6362 -0.5967  0.3087
  248MOL0     N33395   5.014   8.099  10.504 -0.3295 -0.2640  0.4559
  248MOL0     N33396   5.022   8.194  10.597  0.3308 -0.2467  0.8745
  248MOL0     C33397   4.048   8.994  11.310  0.3544 -0.6790 -0.6318
  248MOL0     C33398   3.917   9.006  11.362  0.5816  0.3757  0.5274
  248MOL0     C33399   3.472   9.055  11.315 -0.0272  0.5337  0.1704
  248MOL0     C33400   3.399   8.929  11.313 -0.2395  0.8994 -0.0355
  248MOL0     C33401   3.260   8.934  11.320  0.7828  0.0880  0.3666
  248MOL0     C33402   3.190   9.050  11.341  0.6700 -0.1321  0.0913
  248MOL0     O33403   3.050   9.055  11.338 -0.0295 -0.4120 -0.4330
  248MOL0     C33404   2.979   8.948  11.390  0.3562 -0.4110  0.7565
  248MOL0     C33405   2.849   8.996  11.464  0.2468  0.0778 -0.0218
  248MOL0     C33406   2.881   9.102  11.565 -0.7928 -0.4629 -0.4841
  248MOL0     C33407   2.796   9.095  11.688  0.2155 -0.1029 -0.4321
  248MOL0     C33408   2.651   9.126  11.661  0.4600  1.2584 -0.4754
  248MOL0     C33409   2.533   9.148  11.646  0.4783 -1.0055  0.4438
  248MOL0     C33410   3.258   9.171  11.323  0.1987 -0.1220 -0.5160
  248MOL0     C33411   3.399   9.176  11.328 -0.4670  0.6935 -0.4983
  248MOL0     C33412   3.460   9.313  11.337  1.1371  0.1219 -0.9699
  248MOL0     H33413   3.758   8.766  11.193 -3.7731  2.7331 -0.2219
  248MOL0     H33414   3.974   8.742  11.096 -1.6258 -2.8273  2.7458
  248MOL0     H33415   4.178   8.710  11.057  1.4823 -0.2513  1.1881
  248MOL0     H33416   4.174   8.842  10.944 -0.3175 -0.2865 -0.8404
  248MOL0     H33417   4.420   8.771  11.115 -1.4339 -2.1529  0.4632
  248MOL0     H33418   4.405   8.906  10.993  0.1960 -0.2061  2.1701
  248MOL0     H33419   4.376   8.738  10.815  0.9453 -0.1201 -0.4548
  248MOL0     H33420   4.361   8.615  10.929 -3.0013  1.2559 -0.4252
  248MOL0     H33421   4.614   8.784  10.861 -1.5069  2.2651  2.2004
  248MOL0     H33422   4.613   8.676  11.005  0.0799 -2.8271 -0.9253
  248MOL0     H33423   4.533   8.493  10.865 -1.0565  1.1133  2.6455
  248MOL0     H33424   4.552   8.600  10.725  0.8814  3.4024  1.0853
  248MOL0     H33425   4.802   8.616  10.752  0.5939 -1.2436 -1.0510
  248MOL0     H33426   4.772   8.501  10.894 -2.4651  0.7384  0.9776
  248MOL0     H33427   4.750   8.450  10.603 -1.2384  1.6659  0.9066
  248MOL0     H33428   4.651   8.350  10.702 -1.1475 -0.2971 -0.3327
  248MOL0     H33429   4.945   8.385  10.773 -0.8032  0.7694 -2.1597
  248MOL0     H33430   4.834   8.269  10.836 -2.8262  0.5403 -0.5817
  248MOL0     H33431   4.715   8.088  10.631  0.5865 -2.0484  1.4377
  248MOL0     H33432   4.716   7.942  10.425  0.1190  0.4197 -0.2158
  248MOL0     H33433   4.862   7.924  10.331  1.0684 -0.3576  0.8585
  248MOL0     H33434   4.803   7.786  10.595 -1.5371 -2.1049 -0.2123
  248MOL0     H33435   4.831   7.715  10.431  1.7363 -0.2496 -0.0396
  248MOL0     H33436   5.027   7.855  10.621 -0.1561  0.5505  0.0227
  248MOL0     H33437   5.070   7.792  10.462 -1.8111 -0.1939 -1.0429
  248MOL0     H33438   5.149   7.640  10.624 -0.0902 -1.9356 -1.1387
  248MOL0     H33439   5.020   7.560  10.540 -0.7627 -1.1576  0.4620
  248MOL0     H33440   5.124   7.397  10.693  2.8466  2.7399 -1.0223
  248MOL0     H33441   5.241   7.285  10.875 -0.2689 -0.4576 -1.0743
  248MOL0     H33442   5.619   7.407  11.107  2.0955 -2.4591 -1.9121
  248MOL0     H33443   5.790   7.347  11.283  0.1850 -0.4085  0.3925
  248MOL0     H33444   5.716   7.031  11.624 -2.6076  2.2255 -0.9741
  248MOL0     H33445   5.700   6.934  11.477  1.6188 -0.5778  0.0233
  248MOL0     H33446   5.893   6.879  11.615 -1.1699  1.2079  1.3131
  248MOL0     H33447   5.938   6.918  11.447  1.4716 -1.3517  1.4374
  248MOL0     H33448   6.000   7.150  11.550  1.0267  2.4686  3.7422
  248MOL0     H33449   5.949   7.079  11.707 -1.9787 -0.5941 -0.8140
  248MOL0     H33450   6.162   6.962  11.534  1.0632 -0.9932  0.6724
  248MOL0     H33451   6.134   6.906  11.690  2.7832  0.0555 -0.1030
  248MOL0     H33452   6.193   7.128  11.784  1.2073  1.4983  0.5885
  248MOL0     H33453   6.259   7.183  11.628 -1.5080  0.1201  0.0273
  248MOL0     H33454   6.444   7.100  11.647 -0.9031 -0.4433 -1.9988
  248MOL0     H33455   6.411   7.077  11.816  3.2440  0.3733 -1.6779
  248MOL0     H33456   6.382   6.846  11.602  1.8141 -0.7405 -0.4133
  248MOL0     H33457   6.327   6.832  11.768  0.2405  0.7320 -0.1205
  248MOL0     H33458   6.616   6.871  11.702  0.0987  0.2375 -1.0524
  248MOL0     H33459   6.553   6.851  11.863  0.8524  3.4729 -0.7949
  248MOL0     H33460   5.515   7.059  11.440 -1.9411  1.5439 -0.5276
  248MOL0     H33461   5.355   7.121  11.261  0.2336 -0.3744  1.5054
  248MOL0     H33462   5.125   7.576  11.156  0.6293  0.7260  0.1607
  248MOL0     H33463   4.974   7.674  10.985  0.4412  0.3139  0.0784
  248MOL0     H33464   4.130   9.059  11.339  0.0335 -0.9952  1.0863
  248MOL0     H33465   3.901   9.093  11.425 -1.8771 -0.1841  0.7948
  248MOL0     H33466   3.448   8.832  11.311  0.2854  1.1271  0.9561
  248MOL0     H33467   3.202   8.842  11.321  1.1025 -0.1684 -1.4564
  248MOL0     H33468   3.044   8.882  11.449  1.2999 -0.3766 -0.2119
  248MOL0     H33469   2.948   8.880  11.310 -1.9423  0.1582  1.0950
  248MOL0     H33470   2.797   8.915  11.516 -0.2695 -0.5370 -1.4361
  248MOL0     H33471   2.782   9.029  11.385  0.6270 -0.3385 -0.5292
  248MOL0     H33472   2.888   9.200  11.517 -0.2446 -0.2877 -0.0713
  248MOL0     H33473   2.984   9.073  11.592 -0.1521  1.2723 -0.9293
  248MOL0     H33474   2.799   8.995  11.733  1.5174  0.4988  0.9040
  248MOL0     H33475   2.843   9.164  11.758 -0.3001  0.1980 -0.3806
  248MOL0     H33476   2.429   9.171  11.646  0.4400 -0.9562  2.7151
  248MOL0     H33477   3.202   9.263  11.321  1.0896  0.4230 -1.1702
  248MOL0     H33478   3.388   9.368  11.399  0.1361 -0.7565 -1.3376
  248MOL0     H33479   3.556   9.309  11.390  0.2963  0.2331  0.6375
  248MOL0     H33480   3.472   9.356  11.238 -0.5748 -0.8482 -1.6257
  249MOL0     O33481   1.926   9.791  11.081 -0.2520 -0.2029  0.0142
  249MOL0     C33482   1.878   9.688  11.035  0.0945  0.6910  0.3712
  249MOL0     O33483   1.931   9.563  11.052 -0.1956  0.0583  0.3118
  249MOL0     C33484   2.043   9.559  11.134 -0.0431 -0.1861  0.1005
  249MOL0     C33485   2.037   9.490  11.254 -0.1662 -0.1268  0.3172
  249MOL0     C33486   2.153   9.490  11.338 -0.4350  0.1005  0.6315
  249MOL0     C33487   2.271   9.556  11.295  0.7595 -0.3099  0.1440
  249MOL0     O33488   2.380   9.557  11.373 -0.0605  0.8766  0.2430
  249MOL0     C33489   2.373   9.520  11.513 -0.3268  0.1057  0.0024
  249MOL0     C33490   2.514   9.508  11.574 -0.1334 -0.0876  0.0913
  249MOL0     C33491   2.566   9.643  11.598  0.3833 -0.4129 -0.2388
  249MOL0     C33492   2.699   9.636  11.670  0.8322  0.3109 -0.2935
  249MOL0     C33493   2.771   9.769  11.697 -0.3022 -0.5008 -0.4488
  249MOL0     C33494   2.890   9.749  11.789 -0.8216 -0.5484 -0.4779
  249MOL0     C33495   2.995   9.864  11.791 -0.0682 -0.4434 -0.2251
  249MOL0     C33496   3.109   9.834  11.885 -0.4734 -0.5123 -0.1922
  249MOL0     N33497   3.194   9.949  11.895  0.7820  0.0991  0.3362
  249MOL0     C33498   3.180  10.064  11.969  0.4589 -0.4404  0.1511
  249MOL0     C33499   3.291  10.135  11.958  0.2295 -0.2161 -0.1774
  249MOL0     C33500   3.319  10.271  12.017  0.0492 -0.1159 -0.8425
  249MOL0     C33501   3.427  10.282  12.118 -0.3790 -0.5078  0.3971
  249MOL0     C33502   3.537  10.169  12.123  0.0328  0.5441  1.4699
  249MOL0     C33503   3.628  10.229  12.227 -0.8101  1.0852 -0.1067
  249MOL0     O33504   3.719  10.119  12.241  0.8423  0.0861 -0.2667
  249MOL0     C33505   3.837  10.150  12.301 -0.3921 -0.4515  0.2911
  249MOL0     C33506   3.936  10.050  12.299 -0.2341 -0.3126 -0.2992
  249MOL0     C33507   4.068  10.077  12.359  0.1874 -0.0425 -0.4920
  249MOL0     C33508   4.103  10.199  12.423  0.8499  0.1274 -0.5451
  249MOL0     C33509   4.223  10.215  12.503  1.2034 -0.2179  0.9751
  249MOL0     O33510   4.299  10.108  12.537  0.1331  0.2858 -0.0471
  249MOL0     C33511   4.434  10.127  12.551  0.4605  0.0558 -0.0462
  249MOL0     C33512   4.503  10.202  12.458 -0.6814  0.7211 -0.0799
  249MOL0     C33513   4.644  10.213  12.479  1.0966  0.3606  0.0234
  249MOL0     C33514   4.716  10.153  12.581 -0.5064  1.8354 -0.1012
  249MOL0     O33515   4.852  10.163  12.573 -0.0436  0.2471 -0.1173
  249MOL0     C33516   4.924  10.109  12.682  0.2152  0.4658  0.3637
  249MOL0     C33517   5.066  10.161  12.668 -0.7697  0.3446  0.2320
  249MOL0     C33518   5.156  10.096  12.779 -0.2939  0.3448  0.0893
  249MOL0     C33519   5.287  10.169  12.805 -0.1953 -0.0956 -0.0723
  249MOL0     C33520   5.375  10.106  12.917 -0.1437  0.3600  1.2192
  249MOL0     C33521   5.406   9.958  12.898  0.8061 -0.1804  1.2733
  249MOL0     C33522   5.487   9.896  13.011  0.4219  0.7941 -0.1698
  249MOL0     C33523   5.627   9.948  13.020 -0.6442  1.4943  0.3373
  249MOL0    Cl33524   5.715   9.930  12.859  0.2661 -0.0147  0.3970
  249MOL0     C33525   4.640  10.086  12.678 -0.0729  0.4218 -0.4002
  249MOL0     C33526   4.505  10.070  12.651 -0.6551  0.0952 -1.1073
  249MOL0     O33527   4.244  10.328  12.530  0.5770 -0.2270 -0.2722
  249MOL0     C33528   3.998  10.293  12.429 -0.2504  1.4421  0.8960
  249MOL0     C33529   3.875  10.272  12.370  0.5085 -0.4209 -0.1434
  249MOL0     N33530   3.377  10.062  11.883  0.3851  0.0928 -0.0124
  249MOL0     N33531   3.322   9.948  11.851 -0.1880  0.1732  0.2915
  249MOL0     C33532   2.268   9.626  11.172 -0.1882 -0.1005 -0.1193
  249MOL0     C33533   2.160   9.623  11.093  0.1386  0.5369 -0.1788
  249MOL0     C33534   1.758   9.694  10.943  0.1759 -0.5006  0.1890
  249MOL0     C33535   1.685   9.576  10.925  0.7807  0.4234 -0.3027
  249MOL0     C33536   1.573   9.570  10.847  0.1090 -0.7571  0.4750
  249MOL0     C33537   1.531   9.686  10.784  0.3383 -0.0937  0.5645
  249MOL0     O33538   1.407   9.681  10.724  0.5528 -0.3067 -0.3158
  249MOL0     C33539   1.338   9.807  10.709 -0.5711 -0.2076  0.4007
  249MOL0     C33540   1.193   9.792  10.665 -0.0307 -0.2118 -0.5369
  249MOL0     C33541   1.128   9.925  10.635  0.3020 -0.0645 -0.2737
  249MOL0     C33542   1.115  10.021  10.756 -0.1131 -0.0096 -0.0286
  249MOL0     C33543   1.007   9.963  10.839 -0.0228 -0.4622 -0.1529
  249MOL0     C33544   0.906   9.914  10.887  0.2065  0.3790 -0.2629
  249MOL0     C33545   1.607   9.802  10.783 -0.6394 -0.3221 -0.5925
  249MOL0     C33546   1.723   9.804  10.862  0.1489 -0.4512  0.3486
  249MOL0     C33547   1.826   9.926  10.846 -0.5706  0.4463  1.9310
  249MOL0     H33548   1.948   9.434  11.281 -1.5433  1.3646 -0.9300
  249MOL0     H33549   2.138   9.434  11.430  0.6126  2.7978  2.5733
  249MOL0     H33550   2.324   9.604  11.562 -0.1038  1.2776 -1.7155
  249MOL0     H33551   2.320   9.428  11.538 -0.0965  0.0415  0.2610
  249MOL0     H33552   2.584   9.450  11.512  0.4761  0.9693 -0.2429
  249MOL0     H33553   2.498   9.456  11.669 -2.4931  0.3338 -0.0177
  249MOL0     H33554   2.491   9.708  11.646  0.9567  2.1726 -2.5509
  249MOL0     H33555   2.569   9.686  11.497 -1.5204  0.4628  0.0293
  249MOL0     H33556   2.665   9.598  11.767 -1.4754 -1.3556 -1.6653
  249MOL0     H33557   2.764   9.562  11.623 -2.8897 -2.1190 -2.2009
  249MOL0     H33558   2.818   9.803  11.604  2.4362  0.4204  1.1736
  249MOL0     H33559   2.704   9.850  11.725 -0.0461  0.6699 -2.9431
  249MOL0     H33560   2.853   9.741  11.892 -2.7292  2.3823 -0.8184
  249MOL0     H33561   2.946   9.657  11.766 -0.3526 -0.3567 -0.1226
  249MOL0     H33562   2.943   9.955  11.823 -1.3170 -0.4635 -1.9928
  249MOL0     H33563   3.034   9.877  11.689  1.8833 -1.3238  0.3756
  249MOL0     H33564   3.070   9.802  11.982  0.6961 -0.3566  0.3419
  249MOL0     H33565   3.171   9.752  11.848  2.1129  0.7141  1.2041
  249MOL0     H33566   3.083  10.088  12.010  0.4727  2.5988 -1.3324
  249MOL0     H33567   3.327  10.352  11.944 -0.5303 -0.2828 -1.0949
  249MOL0     H33568   3.227  10.291  12.073  0.2904 -1.1501 -0.0379
  249MOL0     H33569   3.476  10.376  12.091 -0.6271 -0.4305  0.2047
  249MOL0     H33570   3.383  10.289  12.217  0.2055 -0.0166  0.6290
  249MOL0     H33571   3.594  10.152  12.031  0.0060 -0.1897  1.5808
  249MOL0     H33572   3.504  10.070  12.156 -0.2496 -0.7789 -2.2295
  249MOL0     H33573   3.572  10.251  12.319 -1.7947  0.1912 -0.4693
  249MOL0     H33574   3.679  10.320  12.193 -0.9403  1.7644  1.4459
  249MOL0     H33575   3.912   9.954  12.256  3.2080 -0.7020 -1.7266
  249MOL0     H33576   4.132   9.991  12.376 -0.4094 -0.0292  2.2378
  249MOL0     H33577   4.458  10.255  12.375  0.8625  1.4151 -0.5139
  249MOL0     H33578   4.692  10.284  12.414 -2.8776  2.0804 -1.3355
  249MOL0     H33579   4.889  10.149  12.778  1.1062 -4.1849  2.9439
  249MOL0     H33580   4.914  10.000  12.682 -0.3403  0.5091 -0.2943
  249MOL0     H33581   5.105  10.122  12.574  1.6921 -1.1885  1.7833
  249MOL0     H33582   5.070  10.271  12.671  1.3585  0.3865 -1.6881
  249MOL0     H33583   5.095  10.101  12.869 -2.8045  3.6074 -1.5690
  249MOL0     H33584   5.178   9.991  12.759  2.1365  0.9412 -0.7427
  249MOL0     H33585   5.251  10.260  12.854 -2.0095 -1.3209  0.9803
  249MOL0     H33586   5.333  10.190  12.708 -1.1753 -1.9328 -1.0003
  249MOL0     H33587   5.331  10.113  13.017 -3.2779  1.6936 -0.1100
  249MOL0     H33588   5.474  10.151  12.927  0.8085 -1.4543  0.3161
  249MOL0     H33589   5.315   9.897  12.909  0.4043  0.0346 -0.6038
  249MOL0     H33590   5.459   9.939  12.805  1.8043  3.5744  0.9306
  249MOL0     H33591   5.483   9.788  12.991  0.3117  0.7813 -0.0831
  249MOL0     H33592   5.435   9.906  13.106 -0.2768  0.6637 -0.5279
  249MOL0     H33593   5.624  10.053  13.049 -1.6325  1.6975 -0.4286
  249MOL0     H33594   5.686   9.896  13.095 -4.1973  0.7252  2.8464
  249MOL0     H33595   4.690  10.036  12.761 -0.6868  0.0782 -0.2298
  249MOL0     H33596   4.454  10.016  12.730 -2.5103  1.9425 -0.9811
  249MOL0     H33597   4.012  10.380  12.492  1.4868  0.1931  2.3776
  249MOL0     H33598   3.795  10.343  12.387  0.8229 -0.1151  0.0818
  249MOL0     H33599   2.359   9.676  11.142  0.2124 -0.3553  0.6396
  249MOL0     H33600   2.172   9.672  10.997  1.1474  1.2414  0.2785
  249MOL0     H33601   1.701   9.481  10.974  0.3028  0.0075 -0.9374
  249MOL0     H33602   1.518   9.477  10.836 -0.5005 -0.1477 -2.8136
  249MOL0     H33603   1.390   9.865  10.632  2.4296 -2.0943  0.8698
  249MOL0     H33604   1.354   9.866  10.800  0.8679  0.5101 -0.2830
  249MOL0     H33605   1.141   9.743  10.748  2.5240 -2.4552 -0.1389
  249MOL0     H33606   1.182   9.726  10.578  1.6573 -0.1852 -0.8082
  249MOL0     H33607   1.033   9.922  10.582  0.6608 -1.7087 -0.8654
  249MOL0     H33608   1.196   9.981  10.570 -0.0832  1.5435  0.6369
  249MOL0     H33609   1.216  10.019  10.797  0.3919 -1.0168 -1.2424
  249MOL0     H33610   1.077  10.119  10.724  0.8286  1.1792  2.2651
  249MOL0     H33611   0.831   9.853  10.932  0.0407 -0.3669 -1.4940
  249MOL0     H33612   1.573   9.893  10.735  1.6518  0.1346 -1.4325
  249MOL0     H33613   1.803   9.992  10.762 -0.0897 -2.3736 -0.5965
  249MOL0     H33614   1.842   9.985  10.936 -0.7303  1.5202  1.2639
  249MOL0     H33615   1.923   9.890  10.810 -2.1325 -2.9098  0.6009
  250MOL0     O33616   2.511   9.894   2.719 -0.5102  0.4297 -0.1060
  250MOL0     C33617   2.487  10.006   2.765  0.0590 -0.7135  0.4711
  250MOL0     O33618   2.579  10.086   2.821 -0.4309 -0.2724  0.0558
  250MOL0     C33619   2.714  10.047   2.825  0.8572 -0.2672 -0.3322
  250MOL0     C33620   2.737   9.937   2.897 -0.2365  0.3211 -0.2287
  250MOL0     C33621   2.861   9.899   2.911 -0.3896  0.5799 -0.6028
  250MOL0     C33622   2.965   9.971   2.845  0.0958  0.4032  1.5075
  250MOL0     O33623   3.101   9.940   2.849 -0.0394 -0.1138 -1.1256
  250MOL0     C33624   3.152   9.865   2.964  1.0096 -0.5538  0.6687
  250MOL0     C33625   3.304   9.863   2.965  0.2680  0.5432  0.5813
  250MOL0     C33626   3.355   9.817   2.825 -0.1669 -0.3805 -0.5716
  250MOL0     C33627   3.500   9.787   2.828  0.0529  0.0793  0.0238
  250MOL0     C33628   3.553   9.755   2.691  0.4061 -0.1182  0.1126
  250MOL0     C33629   3.702   9.722   2.707 -0.2893 -0.2462  0.4279
  250MOL0     C33630   3.753   9.648   2.584 -0.0570  0.1275 -0.1664
  250MOL0     C33631   3.901   9.616   2.599  0.2844  0.9734  0.2783
  250MOL0     N33632   3.988   9.733   2.609  0.0175 -0.7608 -0.0675
  250MOL0     C33633   4.041   9.806   2.501  0.8389  0.4176 -0.8841
  250MOL0     C33634   4.123   9.898   2.554  0.0332 -0.2029 -0.0635
  250MOL0     C33635   4.189  10.001   2.471 -0.3654 -0.3415 -0.3652
  250MOL0     C33636   4.297  10.094   2.536 -0.7443 -0.1710 -0.0149
  250MOL0     C33637   4.234  10.219   2.602 -0.0871  0.1466 -0.6876
  250MOL0     C33638   4.344  10.317   2.637 -0.1492  0.5245  0.0793
  250MOL0     O33639   4.431  10.258   2.730  1.0685  0.6861 -0.5214
  250MOL0     C33640   4.562  10.295   2.733 -0.0849  0.8614  0.1268
  250MOL0     C33641   4.645  10.217   2.813  1.2577  0.2809 -0.7342
  250MOL0     C33642   4.779  10.230   2.813  0.2044 -0.6084 -0.3121
  250MOL0     C33643   4.848  10.331   2.743 -0.0587 -0.1432  0.8835
  250MOL0     C33644   4.991  10.346   2.737  0.5594 -0.1920 -0.0990
  250MOL0     O33645   5.070  10.267   2.810 -0.2851 -0.0541 -0.5373
  250MOL0     C33646   5.199  10.309   2.838  0.0102 -0.1092 -0.2118
  250MOL0     C33647   5.304  10.208   2.836  0.4722 -0.2440  1.0445
  250MOL0     C33648   5.437  10.232   2.861 -0.3876  0.7329 -1.0126
  250MOL0     C33649   5.479  10.367   2.879  0.3370 -0.3951  0.8223
  250MOL0     O33650   5.613  10.389   2.898 -0.8133 -0.1995 -0.0800
  250MOL0     C33651   5.683  10.507   2.851  0.3538  0.3246 -0.9372
  250MOL0     C33652   5.824  10.506   2.918 -1.3437  0.0132 -0.1788
  250MOL0     C33653   5.939  10.431   2.849  0.5617 -0.2472 -0.4339
  250MOL0     C33654   6.069  10.480   2.901 -0.1474  0.5690 -0.0937
  250MOL0     C33655   6.173  10.373   2.870 -0.4936 -0.3072 -1.1792
  250MOL0     C33656   6.317  10.423   2.913 -0.4792 -0.2639  0.4936
  250MOL0     C33657   6.429  10.327   2.883  0.4951  0.5197 -0.4215
  250MOL0     C33658   6.556  10.361   2.955  0.3814 -0.1141  0.4617
  250MOL0    Cl33659   6.688  10.249   2.897  0.0090 -0.0604 -0.2996
  250MOL0     C33660   5.377  10.469   2.884 -0.8249  0.2793  0.8609
  250MOL0     C33661   5.242  10.441   2.858 -0.2577 -0.4515  0.1333
  250MOL0     O33662   5.025  10.435   2.662 -0.2362  0.8297  0.0892
  250MOL0     C33663   4.761  10.420   2.675 -0.3247 -0.3162  0.4227
  250MOL0     C33664   4.627  10.406   2.668  0.9186  0.2698 -0.2547
  250MOL0     N33665   4.116   9.898   2.686  0.8355  0.5998  0.1254
  250MOL0     N33666   4.038   9.794   2.722 -0.2597 -0.6601 -0.3376
  250MOL0     C33667   2.941  10.076   2.759  0.5536 -0.3026 -0.3579
  250MOL0     C33668   2.806  10.110   2.744 -0.6376 -0.2839 -0.3143
  250MOL0     C33669   2.349  10.062   2.734 -0.6797  0.3968  0.2719
  250MOL0     C33670   2.336  10.199   2.722  0.1160 -0.0336  0.4424
  250MOL0     C33671   2.215  10.261   2.690  0.1277 -0.2101 -1.3486
  250MOL0     C33672   2.096  10.190   2.668 -0.0244  0.3216  0.2427
  250MOL0     O33673   1.974  10.260   2.641  0.4140  0.6603  0.1997
  250MOL0     C33674   1.861  10.179   2.648 -0.1405 -0.2114  0.3850
  250MOL0     C33675   1.739  10.278   2.647 -0.0465 -0.6856  0.3091
  250MOL0     C33676   1.602  10.214   2.637  0.2901  0.1721  0.3024
  250MOL0     C33677   1.581  10.150   2.501 -0.1277  0.5454  0.1268
  250MOL0     C33678   1.526  10.247   2.404  0.0124 -0.0496 -0.3892
  250MOL0     C33679   1.470  10.341   2.355 -0.2507  0.1315 -0.2962
  250MOL0     C33680   2.112  10.048   2.685 -0.2196  1.0037  0.1802
  250MOL0     C33681   2.232   9.987   2.724  0.3638  0.1704 -0.6509
  250MOL0     C33682   2.218   9.844   2.751 -0.0137 -0.0883 -0.0422
  250MOL0     H33683   2.659   9.889   2.955  0.3360 -2.3177 -1.5164
  250MOL0     H33684   2.886   9.816   2.976 -1.0152  0.4964 -0.4658
  250MOL0     H33685   3.122   9.922   3.052 -0.1636  1.6024 -1.0181
  250MOL0     H33686   3.108   9.765   2.967 -0.8554  0.2360  1.0744
  250MOL0     H33687   3.339   9.790   3.039  2.2307 -0.2272 -1.0219
  250MOL0     H33688   3.349   9.959   2.990  1.6680  0.3973 -1.2043
  250MOL0     H33689   3.340   9.904   2.760  4.9231 -0.0357 -1.7584
  250MOL0     H33690   3.296   9.736   2.782 -0.7927  0.5853 -1.6044
  250MOL0     H33691   3.547   9.876   2.869  1.4226 -1.7308  2.6899
  250MOL0     H33692   3.529   9.700   2.889  2.7560 -0.8527 -2.3622
  250MOL0     H33693   3.495   9.669   2.659 -2.9015  1.4648  1.3648
  250MOL0     H33694   3.531   9.840   2.626 -0.0777  0.0193  0.4488
  250MOL0     H33695   3.750   9.817   2.734 -0.6970  0.1890 -0.3359
  250MOL0     H33696   3.718   9.650   2.787  2.7158 -0.7832 -0.5301
  250MOL0     H33697   3.732   9.703   2.492 -0.7762  0.1701  0.0134
  250MOL0     H33698   3.709   9.547   2.588  1.8752 -0.7466  0.1748
  250MOL0     H33699   3.924   9.557   2.689  1.3504  0.0834 -0.5425
  250MOL0     H33700   3.942   9.564   2.512  0.8300  0.5042  0.8003
  250MOL0     H33701   4.016   9.794   2.396 -0.8395  2.2711 -0.7396
  250MOL0     H33702   4.245   9.941   2.399  1.1038 -2.4175  2.3275
  250MOL0     H33703   4.119  10.060   2.411 -0.6986 -0.2743  0.0877
  250MOL0     H33704   4.354  10.033   2.607  1.3541  0.2684 -1.2365
  250MOL0     H33705   4.352  10.133   2.451 -3.3860 -0.8031 -2.1490
  250MOL0     H33706   4.184  10.191   2.696 -0.6953  1.6444 -0.5528
  250MOL0     H33707   4.159  10.260   2.534 -1.6192 -0.2719  0.6838
  250MOL0     H33708   4.304  10.412   2.675 -0.5809  0.9767 -1.4554
  250MOL0     H33709   4.403  10.339   2.548 -1.4716 -1.6688 -1.4230
  250MOL0     H33710   4.601  10.137   2.872  4.1889 -1.9652 -1.3526
  250MOL0     H33711   4.837  10.158   2.870  1.4981  0.0246 -0.7760
  250MOL0     H33712   5.262  10.108   2.823 -0.8336  0.5645 -1.6740
  250MOL0     H33713   5.519  10.163   2.877  0.2741  1.5873 -0.6551
  250MOL0     H33714   5.692  10.494   2.742  0.3824  0.6102 -0.9697
  250MOL0     H33715   5.625  10.597   2.871  1.5866  1.3204 -1.6148
  250MOL0     H33716   5.841  10.614   2.925 -0.6812 -0.0929 -0.1461
  250MOL0     H33717   5.820  10.460   3.017  2.3652  1.2313  0.7028
  250MOL0     H33718   5.916  10.327   2.877 -0.8885  0.1460 -0.1073
  250MOL0     H33719   5.933  10.440   2.740 -0.0731  1.2781 -0.2939
  250MOL0     H33720   6.058  10.499   3.008  0.0610 -1.3729  0.3091
  250MOL0     H33721   6.091  10.578   2.857 -0.8672  0.0802 -1.6224
  250MOL0     H33722   6.159  10.348   2.765 -2.0654 -1.5416 -0.7033
  250MOL0     H33723   6.153  10.285   2.932  0.3178  0.1494 -0.2316
  250MOL0     H33724   6.336  10.516   2.858 -0.3449 -0.8800 -0.5180
  250MOL0     H33725   6.315  10.442   3.021 -2.8292  1.3329  0.2610
  250MOL0     H33726   6.456  10.336   2.777 -1.0909  1.0416 -0.8186
  250MOL0     H33727   6.397  10.226   2.910  0.6159  0.5906 -0.0049
  250MOL0     H33728   6.599  10.460   2.936 -0.0921  0.0824  0.4018
  250MOL0     H33729   6.549  10.352   3.064 -1.7972 -0.8954  0.2956
  250MOL0     H33730   5.422  10.566   2.901 -0.0972  0.3497 -1.2750
  250MOL0     H33731   5.168  10.521   2.866  0.6099  0.4420 -0.5313
  250MOL0     H33732   4.803  10.509   2.628  1.2046  1.0552  3.9833
  250MOL0     H33733   4.570  10.485   2.620  1.3169  0.1231 -0.9908
  250MOL0     H33734   3.025  10.130   2.717  0.6252  1.2059  1.5628
  250MOL0     H33735   2.775  10.182   2.669 -0.2533  1.2680  0.9617
  250MOL0     H33736   2.421  10.262   2.748  1.5926 -1.4081 -0.8176
  250MOL0     H33737   2.202  10.368   2.677 -0.1956 -0.3304 -2.1169
  250MOL0     H33738   1.859  10.127   2.744  1.1826 -2.0126 -0.4952
  250MOL0     H33739   1.865  10.105   2.567  0.8201 -2.4058  2.3108
  250MOL0     H33740   1.738  10.338   2.555 -0.0274 -0.2691  0.5785
  250MOL0     H33741   1.748  10.336   2.740 -0.0705  1.5690 -1.0219
  250MOL0     H33742   1.514  10.276   2.653 -0.5026 -1.1664  1.4020
  250MOL0     H33743   1.609  10.135   2.713 -0.7988 -0.0381  0.1893
  250MOL0     H33744   1.673  10.104   2.462  0.3762 -1.1060  2.9630
  250MOL0     H33745   1.510  10.068   2.513 -0.4418 -0.3076 -5.0276
  250MOL0     H33746   1.423  10.428   2.313 -0.3111  1.2764  1.9920
  250MOL0     H33747   2.034   9.976   2.664 -0.2471  1.3820 -1.1065
  250MOL0     H33748   2.113   9.810   2.751 -0.0743 -0.1579  2.9689
  250MOL0     H33749   2.268   9.788   2.670 -0.4673 -0.6529  0.0589
  250MOL0     H33750   2.264   9.817   2.846 -0.8742 -0.9862  0.1355
  251MOL0     O33751   2.531   7.156   6.827 -0.0216  0.1161 -0.4513
  251MOL0     C33752   2.569   7.102   6.725 -0.1762  0.7320 -0.3163
  251MOL0     O33753   2.550   6.964   6.695 -0.7356 -0.5415  0.8698
  251MOL0     C33754   2.486   6.897   6.795  0.2195  0.4206  0.2262
  251MOL0     C33755   2.349   6.891   6.790 -0.0426 -0.4407  0.5708
  251MOL0     C33756   2.278   6.802   6.872 -0.1436  0.2119  0.2467
  251MOL0     C33757   2.349   6.731   6.974 -0.4183 -0.7789  0.1531
  251MOL0     O33758   2.272   6.659   7.061  0.0695  0.6896 -0.6545
  251MOL0     C33759   2.211   6.534   7.013 -0.4078 -0.3588  0.3911
  251MOL0     C33760   2.076   6.520   7.076  0.2972  0.2261  0.9616
  251MOL0     C33761   1.983   6.413   7.010  0.2876 -0.4764 -0.0482
  251MOL0     C33762   1.891   6.330   7.104  0.0814 -0.4094  0.3287
  251MOL0     C33763   1.810   6.221   7.031 -0.0386  0.3345 -0.2483
  251MOL0     C33764   1.896   6.097   7.003  0.2012  0.7549 -0.3474
  251MOL0     C33765   1.821   6.000   6.903  0.7974 -0.6564  0.6652
  251MOL0     C33766   1.802   6.057   6.757  1.0804  0.3132 -0.4543
  251MOL0     N33767   1.925   6.108   6.698 -0.8288 -0.2032 -0.6957
  251MOL0     C33768   1.945   6.229   6.627 -0.0943 -0.0039  0.1484
  251MOL0     C33769   2.057   6.215   6.554 -0.4024  0.2694  0.1487
  251MOL0     C33770   2.102   6.291   6.445  0.6268  0.5758  0.9713
  251MOL0     C33771   2.193   6.410   6.480 -0.6302 -0.1000  0.2049
  251MOL0     C33772   2.339   6.361   6.502  0.3923 -0.5558 -0.0109
  251MOL0     C33773   2.435   6.478   6.522 -0.1205  0.4628  0.1504
  251MOL0     O33774   2.431   6.572   6.406 -0.3621  0.3219 -0.0122
  251MOL0     C33775   2.538   6.639   6.370 -0.5278 -0.5367 -0.0152
  251MOL0     C33776   2.665   6.636   6.429  0.1408  0.6658  0.3853
  251MOL0     C33777   2.770   6.714   6.387  0.5802  0.4867  0.4803
  251MOL0     C33778   2.752   6.798   6.275 -0.1331 -1.0210 -0.6125
  251MOL0     C33779   2.866   6.872   6.224 -0.0494  0.2615  0.1828
  251MOL0     O33780   2.988   6.861   6.289 -0.0376 -0.1400 -0.0935
  251MOL0     C33781   3.103   6.922   6.230  0.2417  0.6282  0.2992
  251MOL0     C33782   3.187   7.012   6.298 -0.1105 -0.1699  0.4933
  251MOL0     C33783   3.300   7.071   6.236  0.3307  0.0602 -1.0746
  251MOL0     C33784   3.338   7.043   6.111 -0.3027 -0.4129 -0.0091
  251MOL0     O33785   3.450   7.110   6.059  0.4370 -0.3890  0.3663
  251MOL0     C33786   3.508   7.066   5.927 -0.3023  0.1137  0.5667
  251MOL0     C33787   3.622   7.150   5.888  0.1124  0.5491 -0.0948
  251MOL0     C33788   3.722   7.169   5.991 -0.2985  0.6787 -0.1105
  251MOL0     C33789   3.847   7.239   5.943  0.6510  0.0677  0.1270
  251MOL0     C33790   3.955   7.260   6.047  0.3167  0.4835 -0.2265
  251MOL0     C33791   3.920   7.367   6.160  0.3118  0.2714  0.4901
  251MOL0     C33792   4.021   7.387   6.269  0.0214 -0.1188 -0.0074
  251MOL0     C33793   4.022   7.266   6.370  0.1527  0.5676  0.1495
  251MOL0    Cl33794   4.150   7.278   6.499  0.3926  0.1977 -0.0014
  251MOL0     C33795   3.252   6.964   6.030 -0.7540 -0.3724 -0.5597
  251MOL0     C33796   3.138   6.905   6.085  0.6842 -0.8522 -0.3201
  251MOL0     O33797   2.851   6.929   6.122 -0.1354 -1.1272 -0.4714
  251MOL0     C33798   2.628   6.797   6.209  0.3546  0.1643 -0.7629
  251MOL0     C33799   2.524   6.715   6.254  0.2340 -0.4039  0.3506
  251MOL0     N33800   2.117   6.092   6.584  0.0537 -0.5372 -0.1554
  251MOL0     N33801   2.031   6.029   6.659  0.4305 -0.0941 -0.4082
  251MOL0     C33802   2.486   6.736   6.976 -0.7563  0.0955 -0.5964
  251MOL0     C33803   2.556   6.814   6.885 -0.0493 -0.2527 -0.6903
  251MOL0     C33804   2.674   7.177   6.636  0.0976 -0.2956 -0.7508
  251MOL0     C33805   2.744   7.098   6.540  0.4144  0.4862 -0.7771
  251MOL0     C33806   2.815   7.159   6.437  0.6059  0.7389  0.4588
  251MOL0     C33807   2.821   7.307   6.435 -0.1567  0.4160 -0.1628
  251MOL0     O33808   2.884   7.380   6.338  0.4224  0.0647  0.3537
  251MOL0     C33809   2.986   7.314   6.256  0.2335 -0.7595 -1.2146
  251MOL0     C33810   3.072   7.419   6.180 -0.4003  0.3815  0.5707
  251MOL0     C33811   3.114   7.547   6.268 -0.3770  0.9403 -0.1164
  251MOL0     C33812   3.238   7.619   6.208  0.4474  1.1518 -0.5867
  251MOL0     C33813   3.351   7.534   6.226  0.5709 -0.1881 -0.4840
  251MOL0     C33814   3.447   7.455   6.227 -0.0588 -0.0009 -0.1506
  251MOL0     C33815   2.765   7.378   6.541 -0.5199  0.4264  0.4707
  251MOL0     C33816   2.691   7.323   6.641 -0.2442 -0.1547 -0.1215
  251MOL0     C33817   2.652   7.406   6.754  0.2275 -0.7768 -0.2056
  251MOL0     H33818   2.303   6.940   6.704  0.1278 -1.2922 -0.0143
  251MOL0     H33819   2.169   6.798   6.869 -0.4522  2.6020  3.0926
  251MOL0     H33820   2.199   6.539   6.905  2.1811 -3.6437 -0.1744
  251MOL0     H33821   2.278   6.451   7.036 -1.7376 -1.0376  2.0012
  251MOL0     H33822   2.018   6.611   7.055  0.5365 -0.3347 -2.6512
  251MOL0     H33823   2.084   6.500   7.183 -1.6555 -0.9864  0.9393
  251MOL0     H33824   2.051   6.341   6.963  3.7824  1.9552  0.8916
  251MOL0     H33825   1.913   6.448   6.934 -0.8384 -0.3167  1.0231
  251MOL0     H33826   1.947   6.292   7.190  0.0590 -0.8535  0.1486
  251MOL0     H33827   1.827   6.408   7.148  1.8707  1.0695  0.4097
  251MOL0     H33828   1.733   6.192   7.102 -0.7525 -0.6394 -1.3914
  251MOL0     H33829   1.758   6.266   6.947  0.3552  2.9416  0.8035
  251MOL0     H33830   1.997   6.122   6.970 -0.0032 -2.2071 -3.7967
  251MOL0     H33831   1.902   6.042   7.098  1.6634  0.7012 -0.4562
  251MOL0     H33832   1.724   5.972   6.947 -0.8729  1.8162 -1.1551
  251MOL0     H33833   1.885   5.911   6.899  1.7694 -0.0176  1.5319
  251MOL0     H33834   1.757   5.979   6.695 -2.1230 -0.4672  2.5023
  251MOL0     H33835   1.733   6.141   6.768  1.3746  0.4805  0.1182
  251MOL0     H33836   1.875   6.312   6.621 -1.0281 -0.7038  0.9877
  251MOL0     H33837   2.148   6.222   6.374 -5.9332  0.1183 -3.6265
  251MOL0     H33838   2.010   6.326   6.397 -0.6131  2.1707  4.2157
  251MOL0     H33839   2.195   6.482   6.398  1.7219  0.3957  0.6127
  251MOL0     H33840   2.157   6.456   6.572  0.0159 -2.9193  1.9924
  251MOL0     H33841   2.369   6.297   6.418 -0.7549  0.4598 -1.2395
  251MOL0     H33842   2.347   6.306   6.596 -0.8350  0.3324  0.6503
  251MOL0     H33843   2.530   6.425   6.519 -0.3236  0.1343 -2.2308
  251MOL0     H33844   2.416   6.520   6.622 -1.4204 -2.2553  1.1407
  251MOL0     H33845   2.690   6.583   6.521  2.6698  0.3030 -0.4268
  251MOL0     H33846   2.862   6.697   6.442 -0.5480 -1.9202  1.7560
  251MOL0     H33847   3.168   7.037   6.401  3.1183  0.7333  0.9682
  251MOL0     H33848   3.362   7.131   6.303  0.5949 -3.1706  1.8911
  251MOL0     H33849   3.543   6.963   5.936 -1.2060 -0.6919 -3.2067
  251MOL0     H33850   3.438   7.072   5.843 -0.4454 -2.3727  0.4523
  251MOL0     H33851   3.672   7.106   5.802  0.6890 -0.2006  0.6093
  251MOL0     H33852   3.589   7.247   5.849 -0.5614 -0.0207 -0.9804
  251MOL0     H33853   3.673   7.214   6.078 -2.3588  1.0407 -1.3825
  251MOL0     H33854   3.756   7.067   6.013  1.9530  1.1534 -1.1710
  251MOL0     H33855   3.818   7.337   5.903 -0.6551 -0.8421 -1.2625
  251MOL0     H33856   3.879   7.176   5.860  0.1471 -1.1639  0.8414
  251MOL0     H33857   4.047   7.286   5.995  0.9930 -0.8542  0.2415
  251MOL0     H33858   3.971   7.161   6.091  0.6762  0.9166  0.6411
  251MOL0     H33859   3.901   7.458   6.101 -0.5495 -1.1166 -1.4753
  251MOL0     H33860   3.827   7.346   6.214  1.4670  0.3400  2.6241
  251MOL0     H33861   3.999   7.488   6.304 -4.3110  0.2204 -2.8135
  251MOL0     H33862   4.117   7.389   6.217  1.2053 -4.9476  1.4542
  251MOL0     H33863   3.926   7.267   6.423 -0.1969  1.5609 -0.4694
  251MOL0     H33864   4.026   7.167   6.325 -0.2020  1.3210 -1.6546
  251MOL0     H33865   3.279   6.944   5.927 -0.3820  1.9089 -0.9615
  251MOL0     H33866   3.063   6.848   6.030 -1.6693 -1.3003  3.0224
  251MOL0     H33867   2.622   6.857   6.119  3.0946  1.2010 -0.3538
  251MOL0     H33868   2.429   6.718   6.202  0.0429 -1.5595  0.6138
  251MOL0     H33869   2.544   6.692   7.056 -1.2939  1.8559  0.8156
  251MOL0     H33870   2.664   6.805   6.893 -0.0374  0.6238  0.4752
  251MOL0     H33871   2.736   6.991   6.553  2.1117  0.3685 -0.5003
  251MOL0     H33872   2.854   7.094   6.360 -3.4403 -1.2530 -0.2007
  251MOL0     H33873   2.948   7.239   6.186 -0.9098  1.1677 -2.7439
  251MOL0     H33874   3.060   7.266   6.321  1.7545  0.5339 -1.9087
  251MOL0     H33875   3.018   7.451   6.090  1.7028  0.9525 -0.5428
  251MOL0     H33876   3.159   7.364   6.145  0.2722  1.1117  1.0516
  251MOL0     H33877   3.128   7.515   6.372 -0.3268  0.2470 -0.3311
  251MOL0     H33878   3.044   7.631   6.264  3.0336  3.9805 -1.2054
  251MOL0     H33879   3.233   7.638   6.100  1.5258 -0.4175 -0.9430
  251MOL0     H33880   3.261   7.710   6.264  1.2602 -0.5901  2.1184
  251MOL0     H33881   3.530   7.388   6.227 -1.0324 -1.2825  1.5162
  251MOL0     H33882   2.777   7.486   6.529 -1.1878  0.1847 -4.2124
  251MOL0     H33883   2.673   7.365   6.853  0.1966 -0.0576  0.1101
  251MOL0     H33884   2.716   7.494   6.757 -0.1057 -0.5019  3.3359
  251MOL0     H33885   2.547   7.437   6.763  0.6571  0.5096  0.8863
  252MOL0     O33886   8.025   3.356   6.352  0.1598 -0.4939  0.5320
  252MOL0     C33887   7.947   3.261   6.342 -0.6630 -0.4647 -0.0206
  252MOL0     O33888   7.979   3.127   6.327 -0.1689 -0.2174  0.0817
  252MOL0     C33889   8.114   3.097   6.327  0.3376 -0.0052 -0.5382
  252MOL0     C33890   8.167   3.005   6.416 -1.0493 -0.5506  0.7267
  252MOL0     C33891   8.308   2.979   6.399  0.0405 -0.2060 -0.4566
  252MOL0     C33892   8.388   3.035   6.299 -0.3977  0.2249 -0.1609
  252MOL0     O33893   8.518   3.002   6.311 -0.5386 -0.7334  0.1587
  252MOL0     C33894   8.607   3.061   6.214  1.2798  0.7778 -0.0814
  252MOL0     C33895   8.746   3.022   6.239 -0.5164  0.3644 -0.2193
  252MOL0     C33896   8.847   3.116   6.163 -0.0642  0.0609  0.1672
  252MOL0     C33897   8.818   3.139   6.020  0.4560  0.0918 -0.6991
  252MOL0     C33898   8.920   3.208   5.935  0.1532 -0.8840 -0.2534
  252MOL0     C33899   9.060   3.163   5.959  0.5018  0.1402  1.4030
  252MOL0     C33900   9.159   3.218   5.854  0.4798  0.7497  0.5353
  252MOL0     C33901   9.300   3.200   5.887 -0.1168  0.2174 -0.2241
  252MOL0     N33902   9.378   3.296   5.806 -0.5726  0.0702 -0.0263
  252MOL0     C33903   9.422   3.271   5.678  0.1588 -0.4148 -0.2883
  252MOL0     C33904   9.516   3.363   5.662 -0.1594 -1.2459  0.0062
  252MOL0     C33905   9.604   3.369   5.533 -0.5227 -0.3523  0.1042
  252MOL0     C33906   9.528   3.380   5.398  0.2711 -0.2402 -1.0082
  252MOL0     C33907   9.454   3.514   5.390  0.8300  0.0751 -0.3040
  252MOL0     C33908   9.349   3.519   5.283  0.2126  0.6409  0.4187
  252MOL0     O33909   9.242   3.438   5.330 -0.5933  0.2117 -0.5060
  252MOL0     C33910   9.141   3.436   5.239  0.1073 -0.0506 -0.4111
  252MOL0     C33911   9.026   3.515   5.269 -0.0218 -0.1464 -0.3717
  252MOL0     C33912   8.920   3.514   5.183 -0.9876 -0.3319  0.1940
  252MOL0     C33913   8.923   3.444   5.061 -0.0698 -0.7250  0.4397
  252MOL0     C33914   8.823   3.462   4.955  0.3017  0.3505  0.3798
  252MOL0     O33915   8.822   3.363   4.864  0.0957 -0.6140 -0.3561
  252MOL0     C33916   8.736   3.361   4.761 -0.2585  0.0073  0.3348
  252MOL0     C33917   8.706   3.474   4.681  0.0314  0.4598  0.1597
  252MOL0     C33918   8.628   3.476   4.564  0.2825 -0.5511  1.0990
  252MOL0     C33919   8.567   3.354   4.529  0.0994  0.0332 -0.3642
  252MOL0     O33920   8.483   3.352   4.423 -0.3198 -0.2157  0.6573
  252MOL0     C33921   8.366   3.251   4.418  0.1491  0.5295 -0.3805
  252MOL0     C33922   8.310   3.244   4.277  0.2538  0.1167  0.7533
  252MOL0     C33923   8.259   3.385   4.234 -0.2516  0.0033 -0.0411
  252MOL0     C33924   8.126   3.421   4.308  0.0139 -0.1730  0.3962
  252MOL0     C33925   8.060   3.542   4.250 -0.1992  0.4777  0.0630
  252MOL0     C33926   7.928   3.572   4.319 -0.2881  0.1895  0.6741
  252MOL0     C33927   7.877   3.714   4.279  0.2782 -0.5914 -0.4145
  252MOL0     C33928   7.732   3.741   4.324  0.0539 -0.6249  0.4154
  252MOL0    Cl33929   7.632   3.637   4.245 -0.1695  0.3092 -0.0295
  252MOL0     C33930   8.585   3.243   4.619  0.0292 -0.4421  0.1172
  252MOL0     C33931   8.681   3.242   4.720  1.0008  0.0003 -0.2482
  252MOL0     O33932   8.754   3.567   4.956  0.4524  0.0833 -1.5929
  252MOL0     C33933   9.034   3.357   5.044 -0.7633 -0.1817  0.4217
  252MOL0     C33934   9.135   3.341   5.136  0.0219 -0.1069  0.6755
  252MOL0     N33935   9.524   3.445   5.775 -0.5397  0.1347 -0.3353
  252MOL0     N33936   9.443   3.397   5.859 -0.0950 -0.4416 -1.0029
  252MOL0     C33937   8.324   3.116   6.205 -0.0354 -0.3896  0.1310
  252MOL0     C33938   8.190   3.145   6.221  0.3781  0.6858  0.2338
  252MOL0     C33939   7.805   3.296   6.340 -0.7814  0.3963 -0.4890
  252MOL0     C33940   7.716   3.205   6.387 -0.0551 -0.0867 -0.4469
  252MOL0     C33941   7.582   3.234   6.384 -0.3398  0.8748 -1.1958
  252MOL0     C33942   7.530   3.365   6.373  0.3451  0.5687  0.2356
  252MOL0     O33943   7.393   3.387   6.395  0.1701 -0.4154  0.5552
  252MOL0     C33944   7.344   3.520   6.359  0.3936  0.4021  0.4075
  252MOL0     C33945   7.198   3.534   6.410  0.3489 -0.1310  0.6770
  252MOL0     C33946   7.103   3.412   6.388 -0.2694 -0.0233  0.2361
  252MOL0     C33947   6.961   3.449   6.439  0.7406  0.2311  0.3132
  252MOL0     C33948   6.964   3.449   6.581  0.5021  0.1711  0.2380
  252MOL0     C33949   6.982   3.439   6.700  0.1291  0.0399  0.6296
  252MOL0     C33950   7.620   3.457   6.323 -0.8904  0.8361 -0.1513
  252MOL0     C33951   7.759   3.422   6.306 -0.8578 -0.6942  0.9101
  252MOL0     C33952   7.836   3.541   6.249 -0.6007 -0.4104 -0.6560
  252MOL0     H33953   8.099   2.960   6.488 -0.7692  0.6233  1.7535
  252MOL0     H33954   8.353   2.914   6.474 -2.2173 -0.4830  0.7505
  252MOL0     H33955   8.575   3.039   6.111 -0.9849  2.9838  0.0334
  252MOL0     H33956   8.612   3.170   6.226 -0.0896  1.2268 -2.7830
  252MOL0     H33957   8.767   2.916   6.221  1.8885  0.2327  2.6882
  252MOL0     H33958   8.764   3.026   6.347 -2.0741 -3.5016  0.3524
  252MOL0     H33959   8.949   3.075   6.164 -0.2438 -0.6973 -3.3231
  252MOL0     H33960   8.855   3.216   6.208  0.8991  0.1134 -0.0891
  252MOL0     H33961   8.790   3.041   5.981 -1.5324  0.9448 -1.5428
  252MOL0     H33962   8.727   3.199   6.017  1.4531  2.1148  2.8915
  252MOL0     H33963   8.898   3.204   5.828  1.2006 -1.0141 -0.4732
  252MOL0     H33964   8.928   3.312   5.969  1.3848 -0.5568 -1.4672
  252MOL0     H33965   9.107   3.182   6.056  0.7770  1.0522  1.1025
  252MOL0     H33966   9.052   3.054   5.948 -0.6933  0.4530 -2.2433
  252MOL0     H33967   9.140   3.325   5.841  1.7391  1.3311  2.8021
  252MOL0     H33968   9.141   3.161   5.762 -0.5461 -1.6066  2.0842
  252MOL0     H33969   9.314   3.215   5.994  1.5983 -0.0165 -0.3861
  252MOL0     H33970   9.335   3.101   5.856  2.2055  0.5958  0.9303
  252MOL0     H33971   9.387   3.194   5.611 -0.8277  0.8661 -1.3067
  252MOL0     H33972   9.688   3.439   5.533 -0.6149 -0.2450 -0.1077
  252MOL0     H33973   9.660   3.275   5.533 -0.9993 -0.6536  1.1314
  252MOL0     H33974   9.610   3.382   5.325  1.0458  0.7793 -0.1418
  252MOL0     H33975   9.456   3.301   5.378 -1.5153  0.5952  1.5996
  252MOL0     H33976   9.522   3.598   5.372  0.9471 -0.0315 -0.3514
  252MOL0     H33977   9.408   3.531   5.488  2.5948  0.2805  0.5339
  252MOL0     H33978   9.394   3.481   5.191  2.3705 -1.3765  2.1766
  252MOL0     H33979   9.315   3.623   5.294 -1.2409  0.2096  0.2554
  252MOL0     H33980   9.024   3.583   5.353  1.0297  0.6582 -0.9717
  252MOL0     H33981   8.835   3.577   5.205 -1.0587  0.1258 -1.2708
  252MOL0     H33982   8.769   3.561   4.695 -0.1724  0.7173 -0.5246
  252MOL0     H33983   8.622   3.563   4.499  2.5714  0.3107  1.9447
  252MOL0     H33984   8.402   3.155   4.456 -1.3931  1.0314  2.7163
  252MOL0     H33985   8.285   3.282   4.484 -0.6077 -0.2296 -0.9347
  252MOL0     H33986   8.390   3.207   4.213 -0.7969 -0.0558 -0.4913
  252MOL0     H33987   8.239   3.161   4.269  0.2217  0.2572 -0.5472
  252MOL0     H33988   8.329   3.466   4.256 -1.3730  1.1942 -0.7843
  252MOL0     H33989   8.234   3.383   4.128 -1.0071 -2.8344  0.1079
  252MOL0     H33990   8.130   3.448   4.414 -2.6217 -2.1638  1.1078
  252MOL0     H33991   8.063   3.331   4.301  0.3482 -0.4105  0.3925
  252MOL0     H33992   8.044   3.534   4.142 -0.0350  2.5979 -0.1488
  252MOL0     H33993   8.120   3.627   4.283 -3.0457  2.2327  1.0304
  252MOL0     H33994   7.863   3.491   4.286 -1.2908 -0.2372  3.4206
  252MOL0     H33995   7.938   3.575   4.428  0.2189 -0.0088  0.6360
  252MOL0     H33996   7.895   3.731   4.173  1.6653 -1.1841 -0.3021
  252MOL0     H33997   7.943   3.772   4.346  3.0934 -2.9381 -0.9316
  252MOL0     H33998   7.712   3.723   4.430  0.6226  1.0472  0.8385
  252MOL0     H33999   7.716   3.846   4.297  6.0210  1.1045  2.1076
  252MOL0     H34000   8.540   3.149   4.590 -0.3946  0.7248 -3.5030
  252MOL0     H34001   8.701   3.154   4.780  1.2835 -0.9737 -1.6974
  252MOL0     H34002   9.042   3.302   4.951 -0.8079 -0.1276  0.3862
  252MOL0     H34003   9.207   3.264   5.111 -1.2632 -0.8767 -0.7559
  252MOL0     H34004   8.381   3.175   6.133 -1.7448 -0.2183 -1.1410
  252MOL0     H34005   8.142   3.215   6.153 -1.3458 -1.1249 -0.5340
  252MOL0     H34006   7.739   3.104   6.421  0.8667  0.8087  1.7918
  252MOL0     H34007   7.517   3.149   6.402  0.7753  0.7357  3.5799
  252MOL0     H34008   7.340   3.530   6.250  1.1299 -2.5904  0.0155
  252MOL0     H34009   7.411   3.599   6.394  2.4005 -1.4034  0.7956
  252MOL0     H34010   7.154   3.626   6.371  3.9748  1.6418  0.3252
  252MOL0     H34011   7.209   3.560   6.516 -1.7142  0.7687  0.7170
  252MOL0     H34012   7.134   3.320   6.436 -0.9619 -1.3253 -1.6791
  252MOL0     H34013   7.096   3.389   6.281  0.9012 -0.8727  0.3263
  252MOL0     H34014   6.921   3.541   6.394 -1.3020 -1.5738 -1.8390
  252MOL0     H34015   6.893   3.367   6.414 -0.3604  1.0139  0.6896
  252MOL0     H34016   7.000   3.415   6.803  0.2794 -3.2913 -0.0334
  252MOL0     H34017   7.601   3.560   6.298  0.4828  0.7490 -1.7071
  252MOL0     H34018   7.790   3.611   6.179  0.4533  1.0278  0.0589
  252MOL0     H34019   7.869   3.594   6.338  0.3189 -0.2635 -1.0693
  252MOL0     H34020   7.922   3.500   6.195 -0.9903 -3.8874  1.0437
  253MOL0     O34021   5.861   6.401   7.176 -0.1858 -0.0725 -0.3551
  253MOL0     C34022   5.817   6.511   7.203  0.6982 -0.4175 -0.8522
  253MOL0     O34023   5.848   6.580   7.317  0.4910 -0.6316 -0.4847
  253MOL0     C34024   5.942   6.540   7.409  0.4858  0.1448 -0.4711
  253MOL0     C34025   6.066   6.469   7.384  0.3738  0.6552  0.5941
  253MOL0     C34026   6.137   6.419   7.488 -0.0828 -0.1276 -0.2207
  253MOL0     C34027   6.104   6.447   7.627 -0.4492  0.5623  1.0244
  253MOL0     O34028   6.176   6.384   7.721  0.1735 -0.1936 -0.1008
  253MOL0     C34029   6.304   6.338   7.693  1.1446  1.5659  0.3718
  253MOL0     C34030   6.374   6.340   7.825 -0.1861 -0.8182 -0.0929
  253MOL0     C34031   6.523   6.311   7.808  0.3429 -0.5837  0.7919
  253MOL0     C34032   6.597   6.299   7.945  0.3626 -0.3785  0.8852
  253MOL0     C34033   6.726   6.220   7.915  0.4004  0.7306  0.0971
  253MOL0     C34034   6.813   6.191   8.047 -0.2439 -0.5632  0.3033
  253MOL0     C34035   6.750   6.081   8.141  0.3554  0.2289  0.6624
  253MOL0     C34036   6.727   5.953   8.065  0.7026 -0.1699  0.2434
  253MOL0     N34037   6.693   5.849   8.151 -0.0319  1.1375 -0.2051
  253MOL0     C34038   6.572   5.837   8.212  0.4596  0.5646 -0.0705
  253MOL0     C34039   6.584   5.721   8.280 -0.2125 -0.4443 -0.8042
  253MOL0     C34040   6.500   5.661   8.386 -0.1301 -0.7722 -0.3449
  253MOL0     C34041   6.564   5.696   8.524 -0.4945  0.6421 -1.1178
  253MOL0     C34042   6.503   5.637   8.647 -0.2009 -0.4216 -0.6928
  253MOL0     C34043   6.595   5.644   8.767 -0.3312 -0.2064  0.6414
  253MOL0     O34044   6.646   5.777   8.778 -0.6557 -0.1763 -0.5183
  253MOL0     C34045   6.726   5.786   8.887 -0.1532  0.2734  0.0272
  253MOL0     C34046   6.854   5.755   8.874 -0.0693  0.2492  0.2584
  253MOL0     C34047   6.943   5.765   8.986  0.3335 -0.0870  0.2526
  253MOL0     C34048   6.892   5.811   9.116  0.6038  1.0241  0.2927
  253MOL0     C34049   6.981   5.816   9.225  0.0909 -0.8269 -0.3661
  253MOL0     O34050   7.107   5.762   9.215  0.2572  0.2542  0.4486
  253MOL0     C34051   7.173   5.750   9.324 -1.1079  0.0803 -0.4763
  253MOL0     C34052   7.148   5.655   9.422 -0.6568 -0.3440 -0.4768
  253MOL0     C34053   7.231   5.646   9.536  0.2675  0.2874 -0.3453
  253MOL0     C34054   7.336   5.728   9.555  0.3957  0.2306 -0.4534
  253MOL0     O34055   7.414   5.715   9.667  1.0847 -0.2759  0.0112
  253MOL0     C34056   7.491   5.826   9.718 -0.3844  0.9441 -0.4042
  253MOL0     C34057   7.526   5.791   9.860 -0.6538 -0.5478 -0.3028
  253MOL0     C34058   7.612   5.660   9.890 -0.4839 -0.8906  0.4283
  253MOL0     C34059   7.771   5.672   9.892 -0.2059  0.5162  0.2404
  253MOL0     C34060   7.847   5.541   9.919 -0.2166 -0.7434  0.5358
  253MOL0     C34061   7.801   5.414   9.841  0.4095  0.0129 -0.0557
  253MOL0     C34062   7.887   5.289   9.870  0.2313  0.0167 -0.0929
  253MOL0     C34063   7.817   5.165   9.800 -0.9918  0.8330  0.0801
  253MOL0    Cl34064   7.868   5.182   9.626  0.3298  0.0526 -0.4204
  253MOL0     C34065   7.362   5.823   9.457  0.5086 -0.2880 -0.4721
  253MOL0     C34066   7.281   5.844   9.338  1.3763  0.0074 -0.3172
  253MOL0     O34067   6.929   5.858   9.329 -1.0300  0.1704  0.4848
  253MOL0     C34068   6.753   5.845   9.125 -0.1100  0.8532  0.3473
  253MOL0     C34069   6.668   5.826   9.012 -0.5352  0.4395  0.5358
  253MOL0     N34070   6.703   5.653   8.259  0.1084 -0.4311  0.2263
  253MOL0     N34071   6.769   5.735   8.177  0.1815 -0.1605 -0.1546
  253MOL0     C34072   5.984   6.524   7.654 -1.2871 -0.4448  0.5846
  253MOL0     C34073   5.916   6.566   7.547 -0.5570  0.1157  1.0011
  253MOL0     C34074   5.719   6.570   7.105 -0.1960  0.4033 -0.0144
  253MOL0     C34075   5.620   6.654   7.155 -0.9593 -0.0341 -0.8672
  253MOL0     C34076   5.530   6.720   7.072 -0.9780 -0.1756 -0.7861
  253MOL0     C34077   5.533   6.693   6.938 -0.6259 -1.0756  0.0801
  253MOL0     O34078   5.437   6.762   6.860 -0.2301 -0.2050 -0.6956
  253MOL0     C34079   5.365   6.678   6.763 -0.2582  0.4182 -0.7415
  253MOL0     C34080   5.248   6.748   6.705  0.3588  0.4259  0.0830
  253MOL0     C34081   5.137   6.785   6.803 -0.7284  0.2555  0.3728
  253MOL0     C34082   5.030   6.867   6.734 -0.4659 -0.7568  0.0832
  253MOL0     C34083   4.928   6.770   6.692 -0.2117  0.3133 -0.2289
  253MOL0     C34084   4.845   6.686   6.673  0.3867  0.0794  0.8155
  253MOL0     C34085   5.630   6.611   6.882  0.2085 -0.1174 -0.8740
  253MOL0     C34086   5.721   6.548   6.967  0.6137  0.2923  0.6066
  253MOL0     C34087   5.820   6.461   6.893 -0.0121  0.1916  0.6089
  253MOL0     H34088   6.092   6.440   7.282 -0.7962  0.4277  0.3429
  253MOL0     H34089   6.225   6.362   7.459  0.1501 -1.2143  2.3593
  253MOL0     H34090   6.299   6.235   7.656 -2.3920  1.1630  1.6128
  253MOL0     H34091   6.355   6.404   7.622  3.6010 -1.6483 -1.1159
  253MOL0     H34092   6.321   6.290   7.906  0.1354  2.5556  2.4136
  253MOL0     H34093   6.380   6.445   7.857  0.7638 -0.8065 -0.2786
  253MOL0     H34094   6.566   6.398   7.758 -0.4611 -0.8158 -0.3583
  253MOL0     H34095   6.521   6.223   7.742 -1.0878 -0.1219  0.1857
  253MOL0     H34096   6.622   6.403   7.968  0.0306  0.4065 -1.9971
  253MOL0     H34097   6.547   6.257   8.033  1.0609 -1.1437  0.9318
  253MOL0     H34098   6.709   6.132   7.853 -1.2315  0.4481  0.8877
  253MOL0     H34099   6.790   6.289   7.858  0.0103  0.5300 -0.6015
  253MOL0     H34100   6.918   6.169   8.024 -0.3542  1.2746 -2.4161
  253MOL0     H34101   6.819   6.281   8.109  0.6713  0.1739 -0.8068
  253MOL0     H34102   6.652   6.120   8.172  0.7531  0.6949  1.3833
  253MOL0     H34103   6.811   6.061   8.229  1.1316 -3.5600 -0.5758
  253MOL0     H34104   6.645   5.974   7.995  0.7400  1.5161  0.6606
  253MOL0     H34105   6.816   5.917   8.013  0.9308 -1.1053  1.2638
  253MOL0     H34106   6.492   5.908   8.227  0.2379  1.0023 -2.7676
  253MOL0     H34107   6.402   5.709   8.374 -1.4568 -3.6697 -2.1853
  253MOL0     H34108   6.478   5.555   8.373  0.7179 -0.8921 -0.8453
  253MOL0     H34109   6.660   5.643   8.521 -0.8659 -0.5053  2.6838
  253MOL0     H34110   6.584   5.803   8.538  0.8115  0.1637  1.2943
  253MOL0     H34111   6.466   5.535   8.630 -1.1333 -0.6374  2.1257
  253MOL0     H34112   6.421   5.707   8.664 -1.1665 -0.9561 -2.7576
  253MOL0     H34113   6.673   5.567   8.765 -0.8362 -0.7208  0.2807
  253MOL0     H34114   6.537   5.621   8.857  0.2299 -2.5535  0.4890
  253MOL0     H34115   6.896   5.738   8.776  0.6834  1.2965  0.3782
  253MOL0     H34116   7.048   5.741   8.974  0.4002  0.1958  0.2492
  253MOL0     H34117   7.072   5.581   9.399  2.7703 -3.4268 -3.1796
  253MOL0     H34118   7.199   5.577   9.614  0.2309  0.7277  0.0317
  253MOL0     H34119   7.574   5.838   9.648 -1.2651 -1.9541 -2.0896
  253MOL0     H34120   7.429   5.915   9.704 -0.6305  0.8096 -0.1792
  253MOL0     H34121   7.583   5.878   9.892 -1.7620  1.0703 -2.5403
  253MOL0     H34122   7.430   5.786   9.912  0.1820  1.3645  1.5759
  253MOL0     H34123   7.594   5.620   9.990 -0.7455  0.4872  0.9437
  253MOL0     H34124   7.574   5.585   9.819 -3.5916 -0.9153  1.9634
  253MOL0     H34125   7.792   5.744   9.972 -2.0685  2.8769 -1.2667
  253MOL0     H34126   7.820   5.718   9.806  0.2268  0.9440  0.7013
  253MOL0     H34127   7.822   5.521  10.023 -1.3916  0.4848  0.5113
  253MOL0     H34128   7.955   5.556   9.910 -0.0193 -1.9107  0.8407
  253MOL0     H34129   7.697   5.393   9.868  1.1991 -1.7732  1.8278
  253MOL0     H34130   7.805   5.445   9.736 -2.2392  1.5781  0.2035
  253MOL0     H34131   7.886   5.278   9.979 -0.4245 -0.9908 -0.1879
  253MOL0     H34132   7.986   5.314   9.833  1.1311 -0.5559  1.7897
  253MOL0     H34133   7.860   5.067   9.826  0.2343  0.7064 -2.2571
  253MOL0     H34134   7.708   5.162   9.811 -1.2241  0.2259 -2.0127
  253MOL0     H34135   7.458   5.872   9.460  0.0471  0.6069  0.1957
  253MOL0     H34136   7.308   5.922   9.268  2.2080  1.4438  1.5093
  253MOL0     H34137   6.710   5.896   9.211  1.4202  0.7731  1.2063
  253MOL0     H34138   6.561   5.845   9.016 -0.3908  1.0923  1.6893
  253MOL0     H34139   5.939   6.541   7.751  0.1183  4.5533  0.6566
  253MOL0     H34140   5.819   6.614   7.557 -0.3592  0.5300  0.9164
  253MOL0     H34141   5.621   6.658   7.263  1.0194  2.1364 -0.8883
  253MOL0     H34142   5.462   6.791   7.117  0.3625  1.2779 -0.9834
  253MOL0     H34143   5.334   6.592   6.823  2.0710  0.0323 -0.0001
  253MOL0     H34144   5.432   6.640   6.685  1.0519 -0.5606  0.7732
  253MOL0     H34145   5.208   6.685   6.625 -2.3568  3.3080 -1.0220
  253MOL0     H34146   5.282   6.843   6.662 -1.9252  0.7549 -1.1527
  253MOL0     H34147   5.188   6.846   6.878 -1.3794 -0.3435  1.3281
  253MOL0     H34148   5.106   6.691   6.849  1.2995 -0.6197  0.0899
  253MOL0     H34149   4.989   6.943   6.801 -1.5149 -1.7252  0.5895
  253MOL0     H34150   5.062   6.918   6.643 -1.6092  0.4805  0.3466
  253MOL0     H34151   4.776   6.604   6.663  0.9585 -0.4408  1.0396
  253MOL0     H34152   5.633   6.595   6.775 -0.7178 -0.2290 -0.8904
  253MOL0     H34153   5.787   6.359   6.871 -0.3150  0.6956 -1.5017
  253MOL0     H34154   5.840   6.501   6.793 -1.7374  0.8132  0.4736
  253MOL0     H34155   5.913   6.446   6.947  0.9785 -0.1755 -1.1241
  254MOL0     O34156   1.122   3.256   9.673 -0.1230 -0.5736 -0.0852
  254MOL0     C34157   1.040   3.165   9.669 -0.4405  0.1822  0.8429
  254MOL0     O34158   1.051   3.047   9.744  0.1646  0.2740 -0.5360
  254MOL0     C34159   1.155   3.006   9.826  0.1350  0.5121  0.3901
  254MOL0     C34160   1.248   3.080   9.892 -0.1239 -0.6279 -1.6031
  254MOL0     C34161   1.347   3.005   9.969  0.8843 -0.6753  0.4994
  254MOL0     C34162   1.341   2.865   9.972 -0.5503  0.2316 -0.0813
  254MOL0     O34163   1.433   2.785  10.038  0.6251  0.4521  0.1586
  254MOL0     C34164   1.536   2.860  10.108  0.5485 -0.3349  0.1061
  254MOL0     C34165   1.648   2.769  10.161 -0.5417  0.3023 -0.3633
  254MOL0     C34166   1.741   2.840  10.254 -0.7983 -0.1409  0.1643
  254MOL0     C34167   1.849   2.734  10.293 -0.1838 -0.2251  0.5865
  254MOL0     C34168   1.947   2.782  10.397 -1.0628 -0.1083 -0.8734
  254MOL0     C34169   2.036   2.672  10.450 -0.6236 -0.0546 -0.7774
  254MOL0     C34170   2.145   2.736  10.539 -0.1137 -0.2968 -0.1083
  254MOL0     C34171   2.250   2.808  10.454 -0.3101  0.8054  0.2161
  254MOL0     N34172   2.350   2.882  10.531  0.5800  0.6202  0.0115
  254MOL0     C34173   2.479   2.836  10.567 -0.7359 -0.1391  0.3902
  254MOL0     C34174   2.536   2.935  10.645  0.3804  0.8226  0.2936
  254MOL0     C34175   2.678   2.930  10.699 -0.2147  0.4379 -0.1411
  254MOL0     C34176   2.782   2.930  10.571  0.3111 -0.7638 -0.0485
  254MOL0     C34177   2.928   2.918  10.634 -0.4115 -0.3516  0.7168
  254MOL0     C34178   3.031   2.873  10.536  1.2397 -1.1981  0.2489
  254MOL0     O34179   3.160   2.876  10.598 -0.1591  0.2298 -1.0015
  254MOL0     C34180   3.256   2.833  10.507 -0.2344 -0.3333 -0.0996
  254MOL0     C34181   3.251   2.707  10.451 -0.1525 -0.1129  0.0305
  254MOL0     C34182   3.358   2.662  10.371 -0.5290 -0.1366  0.5869
  254MOL0     C34183   3.474   2.746  10.361 -0.6736  0.5178  0.6363
  254MOL0     C34184   3.589   2.690  10.297  0.7620 -0.8231 -0.1436
  254MOL0     O34185   3.571   2.604  10.192 -0.8094  0.1240 -0.4842
  254MOL0     C34186   3.677   2.582  10.107  0.3095 -0.8333 -0.1281
  254MOL0     C34187   3.799   2.538  10.140  0.0208  0.1537 -0.8540
  254MOL0     C34188   3.894   2.494  10.053  0.2636 -0.0196 -0.2691
  254MOL0     C34189   3.862   2.482   9.916 -0.0091  0.0656  0.0320
  254MOL0     O34190   3.935   2.440   9.812 -0.0349  0.2507 -0.2685
  254MOL0     C34191   4.080   2.466   9.820 -0.5747  0.9223 -0.4039
  254MOL0     C34192   4.136   2.427   9.691 -0.9727  0.1504  0.3400
  254MOL0     C34193   4.286   2.472   9.671 -0.9210 -0.0147 -0.0662
  254MOL0     C34194   4.329   2.444   9.529 -0.2327  0.2418  0.2736
  254MOL0     C34195   4.459   2.532   9.490 -0.1333  0.2565 -0.6841
  254MOL0     C34196   4.582   2.490   9.570 -0.2736  0.3326 -0.5503
  254MOL0     C34197   4.696   2.591   9.567 -0.1622  0.1514  0.0508
  254MOL0     C34198   4.669   2.724   9.622  0.0325 -0.2206  0.3549
  254MOL0    Cl34199   4.682   2.723   9.804  0.1315  0.1352  0.3785
  254MOL0     C34200   3.737   2.526   9.878  0.5967 -0.1308 -0.5829
  254MOL0     C34201   3.651   2.592   9.977  0.0441  0.1260  0.7796
  254MOL0     O34202   3.695   2.726  10.345 -0.0322 -0.0926 -0.4204
  254MOL0     C34203   3.483   2.865  10.429 -0.0813  0.2798  0.1803
  254MOL0     C34204   3.374   2.906  10.505 -1.0715 -0.8543  0.5979
  254MOL0     N34205   2.440   3.037  10.647 -0.1340 -0.3631  0.3280
  254MOL0     N34206   2.334   3.005  10.578  0.6725 -0.4870 -0.0592
  254MOL0     C34207   1.252   2.799   9.899 -0.0714 -0.8998  0.9637
  254MOL0     C34208   1.160   2.866   9.824  0.1251 -0.4455  0.0147
  254MOL0     C34209   0.923   3.184   9.586  0.1774 -0.1291 -1.0787
  254MOL0     C34210   0.889   3.316   9.551 -0.1439 -0.9484  0.5083
  254MOL0     C34211   0.777   3.343   9.474 -1.1211  0.2564  0.0986
  254MOL0     C34212   0.690   3.243   9.442 -0.3746 -0.4237  0.3317
  254MOL0     O34213   0.567   3.272   9.376  0.4769  1.0063  0.1872
  254MOL0     C34214   0.473   3.364   9.446 -0.5620 -0.3693 -0.8361
  254MOL0     C34215   0.336   3.300   9.436  0.2643 -0.3109  0.3346
  254MOL0     C34216   0.285   3.293   9.289 -0.0245 -0.0662 -0.0260
  254MOL0     C34217   0.188   3.406   9.236  0.2138  0.2880 -0.1154
  254MOL0     C34218   0.060   3.405   9.311 -1.1978  0.7207 -0.5038
  254MOL0     C34219  -0.040   3.424   9.379 -0.3327 -0.4991  0.4692
  254MOL0     C34220   0.721   3.111   9.479  0.3438 -0.4787  0.1009
  254MOL0     C34221   0.830   3.081   9.548  0.4779 -0.3052 -0.1301
  254MOL0     C34222   0.854   2.932   9.574 -0.0726 -0.4481  0.1709
  254MOL0     H34223   1.251   3.189   9.887 -0.5846 -0.3475  1.7641
  254MOL0     H34224   1.412   3.076  10.018 -1.6701  2.3387 -0.1245
  254MOL0     H34225   1.575   2.930  10.033 -0.0454 -1.5964 -1.4126
  254MOL0     H34226   1.492   2.916  10.191 -1.3300 -0.1229 -0.9803
  254MOL0     H34227   1.713   2.743  10.076 -1.7770 -0.6833 -1.0309
  254MOL0     H34228   1.610   2.672  10.195  1.9848 -0.5986  0.1396
  254MOL0     H34229   1.689   2.869  10.346  1.6211  0.6432  1.3468
  254MOL0     H34230   1.801   2.921  10.213  1.6153 -1.1319  1.5292
  254MOL0     H34231   1.801   2.647  10.339  2.3535 -2.0634 -0.0179
  254MOL0     H34232   1.906   2.708  10.204 -1.8064  0.2432 -0.6381
  254MOL0     H34233   2.005   2.863  10.352 -3.2218 -0.3013 -4.3174
  254MOL0     H34234   1.904   2.832  10.484  1.5158 -0.4603  0.7409
  254MOL0     H34235   1.994   2.594  10.514  0.4231  1.7651  2.3006
  254MOL0     H34236   2.082   2.621  10.365 -1.9980  0.1514 -1.6757
  254MOL0     H34237   2.195   2.649  10.582 -1.9347 -1.8349 -0.9863
  254MOL0     H34238   2.109   2.800  10.620 -1.0485 -0.1221 -0.6542
  254MOL0     H34239   2.315   2.742  10.396  0.7105  0.2298  1.9068
  254MOL0     H34240   2.206   2.878  10.383 -2.8209  0.0344  0.8955
  254MOL0     H34241   2.528   2.751  10.520 -0.6270 -0.2614  0.7229
  254MOL0     H34242   2.688   3.018  10.763 -2.8939  0.3902  0.4325
  254MOL0     H34243   2.688   2.841  10.761  0.5952  1.2683  0.9646
  254MOL0     H34244   2.768   2.841  10.509  2.6907  0.7146 -2.9695
  254MOL0     H34245   2.768   3.030  10.531  0.0026 -0.3777  0.9988
  254MOL0     H34246   2.920   2.849  10.719 -1.5193 -1.4185 -0.2256
  254MOL0     H34247   2.970   3.010  10.677  2.3116 -0.0880 -2.1296
  254MOL0     H34248   3.037   2.933  10.445  1.5577  0.9937  1.6637
  254MOL0     H34249   3.009   2.770  10.506 -1.2623 -0.8820  0.7837
  254MOL0     H34250   3.167   2.640  10.466 -0.9653  0.2307 -2.5164
  254MOL0     H34251   3.364   2.561  10.331  1.0527 -0.2964  1.1449
  254MOL0     H34252   3.825   2.516  10.243  2.7146 -3.6571 -2.1202
  254MOL0     H34253   3.983   2.440  10.085  0.3930  1.0722  1.3636
  254MOL0     H34254   4.101   2.569   9.847 -0.5493  0.3449  2.0473
  254MOL0     H34255   4.110   2.406   9.907 -1.3605  1.0531 -0.0292
  254MOL0     H34256   4.148   2.318   9.684  1.0478  0.4677 -2.6257
  254MOL0     H34257   4.080   2.467   9.606  0.8321  0.0527 -0.9407
  254MOL0     H34258   4.288   2.579   9.697 -2.5378  0.3227 -1.1942
  254MOL0     H34259   4.352   2.425   9.744  0.4495  2.5689  0.4960
  254MOL0     H34260   4.250   2.483   9.466 -1.1279  0.3484  1.4278
  254MOL0     H34261   4.350   2.337   9.517  1.5746  0.0962  3.4186
  254MOL0     H34262   4.436   2.637   9.509  0.4198  0.2478  0.1095
  254MOL0     H34263   4.477   2.523   9.382 -0.3380 -3.3061 -0.5397
  254MOL0     H34264   4.553   2.493   9.676 -2.6182  1.1188 -1.1456
  254MOL0     H34265   4.620   2.390   9.549  2.6566  1.1389  0.4591
  254MOL0     H34266   4.734   2.598   9.465  1.5109 -4.3555  0.1003
  254MOL0     H34267   4.779   2.547   9.623  0.7584  1.6512 -0.1041
  254MOL0     H34268   4.750   2.789   9.587 -0.6712  0.9195  0.7840
  254MOL0     H34269   4.573   2.762   9.585 -0.1526 -0.5288  0.5248
  254MOL0     H34270   3.702   2.509   9.777  0.6392 -2.1396 -0.3019
  254MOL0     H34271   3.561   2.632   9.930  1.7605  1.0530 -1.9217
  254MOL0     H34272   3.570   2.930  10.433 -1.4280  2.2062 -0.4326
  254MOL0     H34273   3.398   2.983  10.578 -0.8660 -0.6061  0.2715
  254MOL0     H34274   1.269   2.693   9.883  1.2863 -0.3411 -2.0201
  254MOL0     H34275   1.096   2.811   9.757  0.6735 -1.4278  0.2793
  254MOL0     H34276   0.943   3.403   9.587 -0.6139 -1.3430  2.2297
  254MOL0     H34277   0.741   3.441   9.443 -0.5271  0.3953 -0.1750
  254MOL0     H34278   0.481   3.461   9.397  0.1949 -0.5626 -1.1047
  254MOL0     H34279   0.512   3.381   9.547  1.2085  2.9989 -1.9240
  254MOL0     H34280   0.264   3.359   9.494 -0.2387 -0.3083 -0.2793
  254MOL0     H34281   0.344   3.197   9.470  1.6240 -0.6178 -0.8300
  254MOL0     H34282   0.242   3.192   9.287  1.2682 -0.7699  2.8838
  254MOL0     H34283   0.368   3.279   9.220  0.9640 -2.7063  1.5543
  254MOL0     H34284   0.241   3.502   9.234  0.9938 -0.0537  1.6584
  254MOL0     H34285   0.170   3.391   9.130  1.9894  1.7536 -0.6845
  254MOL0     H34286  -0.124   3.448   9.441  0.7023 -1.3198  2.2648
  254MOL0     H34287   0.654   3.039   9.433 -0.5636  0.5252 -0.2072
  254MOL0     H34288   0.761   2.884   9.542 -1.5365  3.5681 -2.3938
  254MOL0     H34289   0.929   2.894   9.503  0.4495 -1.7804  1.3994
  254MOL0     H34290   0.875   2.910   9.679  0.2970  1.9176  0.6505
  255MOL0     O34291   5.146   8.135   2.009  0.4167  0.1740 -0.7120
  255MOL0     C34292   5.090   8.169   1.906 -0.0254 -0.3222 -0.4218
  255MOL0     O34293   5.155   8.225   1.805 -0.8595  0.1188  0.5046
  255MOL0     C34294   5.290   8.257   1.820  0.5888  0.1899  0.0698
  255MOL0     C34295   5.378   8.202   1.721  0.2158 -0.6324  0.2452
  255MOL0     C34296   5.503   8.245   1.717 -0.8920 -0.9838 -0.0575
  255MOL0     C34297   5.551   8.339   1.810 -0.1975  1.0065  0.7221
  255MOL0     O34298   5.680   8.364   1.792  0.0596 -1.2774  0.4705
  255MOL0     C34299   5.753   8.408   1.910 -0.1992 -0.3655 -0.8003
  255MOL0     C34300   5.901   8.396   1.877  0.3628  0.1141 -0.2375
  255MOL0     C34301   5.987   8.434   1.994 -0.1755  0.1579  0.2316
  255MOL0     C34302   6.140   8.434   1.963 -0.2271  0.3045  0.2806
  255MOL0     C34303   6.218   8.446   2.096  0.2620 -0.0659  0.6936
  255MOL0     C34304   6.368   8.446   2.063 -0.1452  0.4087 -0.5904
  255MOL0     C34305   6.419   8.563   1.986 -0.2245 -0.7084 -0.3532
  255MOL0     C34306   6.436   8.677   2.095  0.0435 -0.1116 -0.4083
  255MOL0     N34307   6.570   8.656   2.162 -0.7669  0.3974  0.4429
  255MOL0     C34308   6.699   8.677   2.115  0.2986 -0.8980  0.2238
  255MOL0     C34309   6.784   8.645   2.217 -0.9094 -0.1270  0.3059
  255MOL0     C34310   6.935   8.667   2.222  0.0139 -0.1584  0.3744
  255MOL0     C34311   6.995   8.665   2.083 -0.1830  0.5573 -0.4876
  255MOL0     C34312   7.146   8.660   2.097  0.7410 -0.0048  0.6620
  255MOL0     C34313   7.202   8.611   1.964  0.4235 -1.6651  0.2846
  255MOL0     O34314   7.252   8.718   1.881 -0.3273  0.0033  0.8573
  255MOL0     C34315   7.359   8.690   1.781  0.5856 -0.3579 -0.6852
  255MOL0     C34316   7.402   8.566   1.736  0.7753 -0.2588 -0.8193
  255MOL0     C34317   7.496   8.555   1.637 -0.2234  0.6416  0.3581
  255MOL0     C34318   7.556   8.670   1.592  0.7264 -0.8981 -0.0073
  255MOL0     C34319   7.680   8.661   1.521  0.2179  0.5914 -0.1493
  255MOL0     O34320   7.737   8.775   1.486 -0.2922  0.3359  0.7862
  255MOL0     C34321   7.861   8.791   1.425  0.0141  0.4132 -0.0792
  255MOL0     C34322   7.967   8.695   1.465  0.8009 -0.2580 -0.7831
  255MOL0     C34323   8.100   8.716   1.421 -0.7869 -0.3880  0.1770
  255MOL0     C34324   8.133   8.834   1.348  0.4356  0.8458 -0.7880
  255MOL0     O34325   8.259   8.866   1.327 -0.2585  0.4834  0.5995
  255MOL0     C34326   8.369   8.775   1.354  0.3848  1.0967 -0.5450
  255MOL0     C34327   8.496   8.837   1.294 -0.8051 -0.0624 -0.2684
  255MOL0     C34328   8.541   8.974   1.368  0.2601  0.5518 -0.3556
  255MOL0     C34329   8.634   9.044   1.281  0.3515 -0.1640  0.0979
  255MOL0     C34330   8.741   9.110   1.370  0.3067 -0.0736  0.4251
  255MOL0     C34331   8.845   9.196   1.292  0.0169 -0.2919  0.6939
  255MOL0     C34332   8.942   9.108   1.219  1.0663 -0.1087  0.1125
  255MOL0     C34333   8.989   8.978   1.284  0.6968 -0.4849  0.4826
  255MOL0    Cl34334   9.151   8.913   1.233 -0.3851 -0.0732 -0.0686
  255MOL0     C34335   8.031   8.914   1.300  0.9041 -0.9926 -0.0739
  255MOL0     C34336   7.898   8.890   1.341  0.3513 -0.2953  0.4147
  255MOL0     O34337   7.725   8.551   1.500  0.2934  0.6053 -0.0522
  255MOL0     C34338   7.517   8.800   1.635  0.8066  0.4612  1.0325
  255MOL0     C34339   7.415   8.807   1.728 -0.8940 -0.1265 -0.7979
  255MOL0     N34340   6.707   8.613   2.332  0.0808  0.2927 -0.4389
  255MOL0     N34341   6.578   8.630   2.298 -0.9239  0.1859 -0.5502
  255MOL0     C34342   5.473   8.386   1.908  0.4159  0.0445 -0.9580
  255MOL0     C34343   5.335   8.339   1.918 -0.6002 -1.1589  0.0208
  255MOL0     C34344   4.944   8.159   1.901 -0.7234  0.0069 -1.2403
  255MOL0     C34345   4.885   8.172   1.772 -0.1309 -0.1567 -0.0073
  255MOL0     C34346   4.746   8.154   1.758  0.7472  0.2584  0.9731
  255MOL0     C34347   4.660   8.134   1.868 -0.0011 -0.2443  0.0742
  255MOL0     O34348   4.523   8.106   1.860  0.1941 -0.1754 -0.3063
  255MOL0     C34349   4.458   8.125   1.731  0.0262 -0.6373 -0.3980
  255MOL0     C34350   4.418   8.271   1.710 -0.3227 -0.5075  0.0922
  255MOL0     C34351   4.345   8.345   1.822  0.7354 -0.1415 -0.5809
  255MOL0     C34352   4.329   8.496   1.800 -0.5525  0.5485  0.1522
  255MOL0     C34353   4.276   8.546   1.671  0.7597  0.3616  0.0556
  255MOL0     C34354   4.232   8.591   1.570  0.3221  0.2522 -1.0209
  255MOL0     C34355   4.712   8.137   1.998  0.0966 -0.8426 -0.2776
  255MOL0     C34356   4.855   8.146   2.020  0.3898 -0.2686 -0.7532
  255MOL0     C34357   4.896   8.156   2.173 -0.9319 -0.1034  0.4203
  255MOL0     H34358   5.339   8.137   1.643  0.1303 -1.2303  0.7770
  255MOL0     H34359   5.553   8.213   1.626  1.0817 -0.1979  0.7000
  255MOL0     H34360   5.732   8.511   1.941  4.5966  0.3958  0.6198
  255MOL0     H34361   5.728   8.349   1.998 -0.5866  0.9894  0.0249
  255MOL0     H34362   5.915   8.465   1.793 -3.2720  0.1214 -1.0045
  255MOL0     H34363   5.927   8.295   1.843  0.4381  0.0920 -0.1176
  255MOL0     H34364   5.986   8.352   2.068 -0.4899 -0.6924 -0.6927
  255MOL0     H34365   5.952   8.529   2.035  0.8293  0.1649  1.1194
  255MOL0     H34366   6.171   8.348   1.903  1.1083  2.5638 -2.5352
  255MOL0     H34367   6.160   8.519   1.897  2.1442 -0.6118 -0.2975
  255MOL0     H34368   6.187   8.535   2.152 -2.1182 -0.2350 -0.2573
  255MOL0     H34369   6.201   8.356   2.155 -0.6455  0.9107  1.9817
  255MOL0     H34370   6.415   8.448   2.162 -1.0252  0.3003 -0.1610
  255MOL0     H34371   6.384   8.352   2.011 -1.9094 -0.5527  0.5060
  255MOL0     H34372   6.359   8.605   1.905  1.2865  2.6402  0.0993
  255MOL0     H34373   6.521   8.539   1.956  0.3972 -0.2515  1.2775
  255MOL0     H34374   6.433   8.775   2.047 -0.1993 -0.0014 -0.1696
  255MOL0     H34375   6.354   8.684   2.167 -0.0957  1.3505 -0.6788
  255MOL0     H34376   6.726   8.715   2.017 -1.0613  3.2755  1.2632
  255MOL0     H34377   6.953   8.754   2.285 -0.3150  1.2446 -1.3905
  255MOL0     H34378   6.983   8.582   2.271  0.3627 -1.8230 -2.6305
  255MOL0     H34379   6.962   8.572   2.038 -2.7359  0.4145  1.5000
  255MOL0     H34380   6.959   8.753   2.029 -0.1454  1.5048  0.9708
  255MOL0     H34381   7.171   8.598   2.183 -1.3007  0.7216  1.8461
  255MOL0     H34382   7.189   8.759   2.114  0.7376  0.1907 -0.3686
  255MOL0     H34383   7.128   8.548   1.913 -0.9438 -0.2456  0.4352
  255MOL0     H34384   7.290   8.549   1.982  0.7337 -1.0612  0.8759
  255MOL0     H34385   7.351   8.477   1.770 -3.3062  2.5979  1.3903
  255MOL0     H34386   7.518   8.457   1.595 -0.4074  1.2476 -1.2164
  255MOL0     H34387   7.950   8.619   1.541  1.4993 -1.8366 -2.1496
  255MOL0     H34388   8.177   8.643   1.443 -1.7284 -1.1031  1.2435
  255MOL0     H34389   8.387   8.756   1.460 -0.4324  0.5086 -0.4998
  255MOL0     H34390   8.359   8.682   1.298  3.3734  2.9888 -4.7278
  255MOL0     H34391   8.570   8.759   1.316 -1.5247 -0.2571  1.6789
  255MOL0     H34392   8.477   8.866   1.190 -2.2651  1.2398  0.3087
  255MOL0     H34393   8.447   9.028   1.383 -1.4876 -2.3994  0.0975
  255MOL0     H34394   8.588   8.945   1.463  0.7947 -0.8712 -1.0312
  255MOL0     H34395   8.582   9.111   1.213 -0.5640 -1.8798 -0.9502
  255MOL0     H34396   8.681   8.967   1.219  0.5858  0.4763 -0.5246
  255MOL0     H34397   8.784   9.048   1.449  2.8644  4.2181  2.7614
  255MOL0     H34398   8.689   9.186   1.428  1.8771  0.9101  0.6133
  255MOL0     H34399   8.781   9.253   1.223 -1.3699 -2.2368  0.3004
  255MOL0     H34400   8.887   9.265   1.366 -0.9083  1.6837 -0.5255
  255MOL0     H34401   9.029   9.174   1.209  0.0458  1.1419 -0.8845
  255MOL0     H34402   8.907   9.082   1.118  0.6023 -2.5732  0.8345
  255MOL0     H34403   8.987   8.982   1.393  0.7685 -1.4038  0.5290
  255MOL0     H34404   8.917   8.898   1.264 -1.2542  0.9845  1.3089
  255MOL0     H34405   8.055   9.010   1.256  0.3946 -0.3518  0.9986
  255MOL0     H34406   7.817   8.958   1.314 -0.3628 -1.5716 -0.8334
  255MOL0     H34407   7.562   8.892   1.599  1.0831 -0.4505 -1.1126
  255MOL0     H34408   7.379   8.904   1.761 -4.2397 -1.6468  0.4387
  255MOL0     H34409   5.522   8.460   1.970  2.3707 -0.8525 -1.3612
  255MOL0     H34410   5.261   8.381   1.984 -0.3227  0.2848 -0.5641
  255MOL0     H34411   4.949   8.182   1.685  2.7560  0.1608  2.0224
  255MOL0     H34412   4.704   8.157   1.658 -1.6672  1.7107  1.9412
  255MOL0     H34413   4.358   8.082   1.726 -0.5131  0.6773 -4.7159
  255MOL0     H34414   4.517   8.085   1.648  1.4482  0.3184  0.1046
  255MOL0     H34415   4.348   8.284   1.627 -1.6642  2.2206  1.5019
  255MOL0     H34416   4.507   8.326   1.677 -0.6811 -0.0942 -0.2056
  255MOL0     H34417   4.391   8.332   1.920 -0.7040  3.6213  0.7596
  255MOL0     H34418   4.243   8.308   1.835  1.0951 -1.2686 -0.8667
  255MOL0     H34419   4.264   8.529   1.882  1.8604 -1.5674  3.1166
  255MOL0     H34420   4.426   8.547   1.809  0.8296 -1.7660 -0.7698
  255MOL0     H34421   4.189   8.637   1.483 -1.6764  0.7182  0.1370
  255MOL0     H34422   4.648   8.125   2.086  3.2343  0.6812  2.4387
  255MOL0     H34423   4.962   8.241   2.191 -2.2244  0.6537  1.7852
  255MOL0     H34424   4.814   8.172   2.243 -1.1088 -0.2197  0.2393
  255MOL0     H34425   4.957   8.067   2.190 -3.3520 -2.6743 -2.9019
  256MOL0     O34426   5.553   2.239   9.471 -0.4800  0.3462 -0.2696
  256MOL0     C34427   5.537   2.341   9.397  0.1670  0.4579 -0.7302
  256MOL0     O34428   5.506   2.339   9.271 -0.0749  0.4816  0.5273
  256MOL0     C34429   5.497   2.220   9.202 -0.0704 -0.2714 -0.3596
  256MOL0     C34430   5.581   2.107   9.220  0.7907  0.2039 -0.2075
  256MOL0     C34431   5.571   1.989   9.146 -0.6490 -0.0994 -0.1014
  256MOL0     C34432   5.496   1.983   9.033  1.1586  0.3106 -0.1810
  256MOL0     O34433   5.511   1.877   8.943  0.4151  0.3228  0.2283
  256MOL0     C34434   5.479   1.898   8.798 -0.0491 -0.5053 -0.8075
  256MOL0     C34435   5.554   2.023   8.741  0.7288  0.0283 -0.4573
  256MOL0     C34436   5.499   2.086   8.609  0.9568 -0.0714 -0.4605
  256MOL0     C34437   5.514   1.985   8.490 -0.2971  0.4287  0.2890
  256MOL0     C34438   5.459   2.040   8.352 -0.3643  0.2303 -0.5090
  256MOL0     C34439   5.311   1.995   8.353  0.2970 -0.2493 -0.1067
  256MOL0     C34440   5.247   2.064   8.235 -0.5243  0.0777  0.4546
  256MOL0     C34441   5.094   2.032   8.226 -0.1756  0.4018  0.1591
  256MOL0     N34442   5.019   2.090   8.337  0.1509 -0.4040 -0.2217
  256MOL0     C34443   4.979   2.024   8.451 -1.1005  0.5211  0.0042
  256MOL0     C34444   4.915   2.126   8.525 -1.1691  1.0625  0.1903
  256MOL0     C34445   4.865   2.104   8.664 -0.6047  0.4809 -0.7221
  256MOL0     C34446   4.985   2.060   8.762 -0.3919 -0.6733 -0.6888
  256MOL0     C34447   5.039   2.172   8.859  0.1680 -0.0917  0.0684
  256MOL0     C34448   5.090   2.293   8.768 -0.4703 -0.2526 -0.6021
  256MOL0     O34449   5.133   2.408   8.848 -0.2456 -0.1979  0.0812
  256MOL0     C34450   5.243   2.478   8.821 -0.4934 -0.5742  0.7250
  256MOL0     C34451   5.288   2.553   8.928  0.3417  0.4621  0.0928
  256MOL0     C34452   5.405   2.625   8.912  0.4058  0.8576 -0.6327
  256MOL0     C34453   5.476   2.634   8.797  0.2088  1.4889 -0.7425
  256MOL0     C34454   5.594   2.718   8.790  0.4600 -0.6187  0.0814
  256MOL0     O34455   5.620   2.777   8.665 -0.5583  0.0948 -0.0219
  256MOL0     C34456   5.652   2.914   8.672 -0.4592 -0.5358 -0.2327
  256MOL0     C34457   5.731   2.976   8.574 -0.8487  0.0567  0.0524
  256MOL0     C34458   5.725   3.113   8.543  0.1534 -0.5863 -0.2329
  256MOL0     C34459   5.647   3.196   8.618 -0.3672 -0.2483 -0.1863
  256MOL0     O34460   5.630   3.332   8.604 -0.3188  0.1913  0.2801
  256MOL0     C34461   5.725   3.396   8.523  0.0075 -0.5204 -0.3926
  256MOL0     C34462   5.685   3.548   8.489 -0.8548  0.7654  0.4345
  256MOL0     C34463   5.800   3.630   8.447  0.0073 -0.9290 -0.4733
  256MOL0     C34464   5.854   3.587   8.307  0.3815  0.6781  0.3325
  256MOL0     C34465   5.958   3.680   8.251 -0.8408 -0.4320  0.3308
  256MOL0     C34466   6.097   3.645   8.304  0.0357  0.1255  0.2868
  256MOL0     C34467   6.195   3.730   8.224  0.0982 -0.3444  0.2639
  256MOL0     C34468   6.343   3.733   8.274 -0.1273 -0.2159  0.7386
  256MOL0    Cl34469   6.357   3.788   8.446  0.0350  0.0668 -0.1216
  256MOL0     C34470   5.575   3.141   8.729 -0.1362 -0.1861  0.0092
  256MOL0     C34471   5.570   3.005   8.749  0.0583  0.2118  1.0285
  256MOL0     O34472   5.647   2.754   8.891 -0.0060  0.4297 -0.3286
  256MOL0     C34473   5.422   2.566   8.686 -0.1842 -0.1623  0.0643
  256MOL0     C34474   5.306   2.484   8.696 -0.5014 -0.2491 -0.5840
  256MOL0     N34475   4.917   2.242   8.451 -0.2255  0.3068 -0.0602
  256MOL0     N34476   4.979   2.220   8.338 -0.2646  0.2916 -0.4229
  256MOL0     C34477   5.408   2.092   9.021  0.0646  0.2971  0.0135
  256MOL0     C34478   5.395   2.210   9.099 -0.3028  0.3448 -0.8322
  256MOL0     C34479   5.546   2.470   9.469 -0.1947 -0.3670  0.4577
  256MOL0     C34480   5.533   2.478   9.611  0.0105 -0.1128  0.0028
  256MOL0     C34481   5.520   2.599   9.683 -0.8278  0.0112  0.6591
  256MOL0     C34482   5.546   2.714   9.614 -0.2083 -0.8483 -0.4003
  256MOL0     O34483   5.557   2.838   9.679 -0.1862 -0.4033 -0.2074
  256MOL0     C34484   5.584   2.859   9.822 -0.1621  0.0995 -0.0851
  256MOL0     C34485   5.707   2.792   9.879 -0.1695 -0.2306  0.2750
  256MOL0     C34486   5.847   2.846   9.829 -0.1317 -0.0805  0.4052
  256MOL0     C34487   5.960   2.743   9.855 -0.8841 -0.0814 -0.0664
  256MOL0     C34488   6.080   2.791   9.785  0.0750 -0.0224 -0.2273
  256MOL0     C34489   6.173   2.823   9.714 -0.1699 -0.5520  0.0608
  256MOL0     C34490   5.588   2.707   9.480 -0.6854 -0.1131  0.1196
  256MOL0     C34491   5.589   2.592   9.407  0.6276  0.3249 -0.2762
  256MOL0     C34492   5.615   2.594   9.266 -0.3416 -0.5622  0.3738
  256MOL0     H34493   5.653   2.100   9.301 -1.5921  1.6225  2.1803
  256MOL0     H34494   5.634   1.905   9.174  0.7603  1.6848  2.5374
  256MOL0     H34495   5.519   1.811   8.746  0.9902 -0.2144 -0.5087
  256MOL0     H34496   5.370   1.895   8.784  0.0861 -2.3084 -1.7309
  256MOL0     H34497   5.658   1.991   8.735  1.0204  0.4200  1.7807
  256MOL0     H34498   5.562   2.107   8.811  2.4690  0.5984 -1.2864
  256MOL0     H34499   5.536   2.184   8.579 -2.4420  1.8518  1.0332
  256MOL0     H34500   5.391   2.107   8.614  1.0180  0.3546 -0.8388
  256MOL0     H34501   5.621   1.969   8.475 -0.6346  0.9006 -3.3399
  256MOL0     H34502   5.473   1.884   8.500 -0.1194  0.1566 -1.5324
  256MOL0     H34503   5.471   2.148   8.337  3.2503  0.4434  2.4346
  256MOL0     H34504   5.504   1.981   8.272 -1.8786 -1.6465 -0.0616
  256MOL0     H34505   5.304   1.887   8.336  1.0718 -0.6033  1.5423
  256MOL0     H34506   5.259   2.014   8.448 -0.2314 -3.4636  0.3612
  256MOL0     H34507   5.305   2.042   8.145 -0.9517  1.1871 -0.1141
  256MOL0     H34508   5.262   2.172   8.247 -1.8259  0.5272 -1.5539
  256MOL0     H34509   5.054   2.080   8.137  0.6562  2.7790  0.9992
  256MOL0     H34510   5.084   1.923   8.222  0.8168  0.2818  0.6691
  256MOL0     H34511   4.998   1.922   8.481  1.0810  1.3866  1.8967
  256MOL0     H34512   4.829   2.205   8.688  0.4678  0.1936  2.5551
  256MOL0     H34513   4.780   2.035   8.669 -1.1636  1.2292  2.6642
  256MOL0     H34514   4.946   1.974   8.818 -0.1109  0.4755  1.3280
  256MOL0     H34515   5.068   2.020   8.702  0.4897 -0.4136  0.3415
  256MOL0     H34516   5.114   2.135   8.929 -0.5077 -0.1696  0.7600
  256MOL0     H34517   4.953   2.208   8.916 -0.2832  0.3549 -0.8629
  256MOL0     H34518   5.004   2.329   8.711 -0.0584 -1.9746 -2.4394
  256MOL0     H34519   5.159   2.248   8.696  2.3096  2.1697  0.3806
  256MOL0     H34520   5.242   2.537   9.025  0.6503  0.2527  0.2072
  256MOL0     H34521   5.442   2.684   8.995  2.5173  1.7256 -2.1122
  256MOL0     H34522   5.795   2.915   8.511 -1.6249  0.6040 -1.3149
  256MOL0     H34523   5.796   3.145   8.468  1.1852 -0.4579  0.7655
  256MOL0     H34524   5.825   3.398   8.566  0.3931 -0.6854 -1.2726
  256MOL0     H34525   5.737   3.360   8.421  0.4976 -0.1824 -0.4564
  256MOL0     H34526   5.614   3.546   8.406  1.7572 -0.6555 -1.9386
  256MOL0     H34527   5.624   3.589   8.571 -1.9256 -0.8600  0.5053
  256MOL0     H34528   5.760   3.731   8.433 -0.9343 -0.9856  1.4482
  256MOL0     H34529   5.881   3.632   8.521 -2.9538  0.0522  3.0415
  256MOL0     H34530   5.775   3.606   8.234  0.0979  3.1231  1.1972
  256MOL0     H34531   5.878   3.480   8.304 -0.3847  0.3766  2.7666
  256MOL0     H34532   5.930   3.784   8.272 -2.7457 -0.0165 -3.2767
  256MOL0     H34533   5.961   3.677   8.141 -0.7785  0.3244  0.3033
  256MOL0     H34534   6.096   3.660   8.412 -3.7250 -1.7167  0.6592
  256MOL0     H34535   6.127   3.542   8.283  1.5110  0.1553  2.0123
  256MOL0     H34536   6.161   3.833   8.234 -0.6473 -0.4911 -0.6413
  256MOL0     H34537   6.195   3.703   8.118  0.5772 -1.5015  0.5419
  256MOL0     H34538   6.388   3.635   8.254  2.1112  1.0686 -0.9243
  256MOL0     H34539   6.406   3.805   8.221 -0.9708 -0.4061 -0.5701
  256MOL0     H34540   5.508   3.210   8.779  0.6311 -0.0957  0.9507
  256MOL0     H34541   5.501   2.976   8.828  1.8076 -0.1483  2.4795
  256MOL0     H34542   5.483   2.569   8.597  0.9579  3.2806  0.8146
  256MOL0     H34543   5.271   2.425   8.612  2.0778 -0.2396 -1.7841
  256MOL0     H34544   5.338   2.092   8.938 -1.2326 -0.2023  1.0649
  256MOL0     H34545   5.329   2.291   9.069 -1.0344 -0.5879 -1.7753
  256MOL0     H34546   5.495   2.382   9.646  0.4298 -0.4334 -0.4102
  256MOL0     H34547   5.481   2.603   9.784 -0.4593  2.3006  0.7662
  256MOL0     H34548   5.501   2.822   9.883  1.1306 -4.7084 -0.7976
  256MOL0     H34549   5.590   2.966   9.843 -1.8606  0.1221  0.4567
  256MOL0     H34550   5.702   2.682   9.875 -0.6778 -0.1704 -0.9107
  256MOL0     H34551   5.712   2.813   9.986  0.6591 -0.5287  0.3095
  256MOL0     H34552   5.883   2.940   9.872  4.2791 -1.1282 -0.5011
  256MOL0     H34553   5.834   2.859   9.721  0.1593 -3.5877 -0.1729
  256MOL0     H34554   5.981   2.741   9.963 -0.5665 -1.5324 -0.1309
  256MOL0     H34555   5.941   2.640   9.822  1.2254 -0.5920  0.1351
  256MOL0     H34556   6.251   2.856   9.649 -0.0306  3.3818  1.9224
  256MOL0     H34557   5.613   2.802   9.434 -1.6069 -0.2940 -0.7767
  256MOL0     H34558   5.688   2.516   9.241  1.9817  0.1553  4.0657
  256MOL0     H34559   5.522   2.586   9.210 -0.8099  0.7728  0.9079
  256MOL0     H34560   5.660   2.691   9.240 -1.4316 -0.1498 -0.0519
  257MOL0     O34561   6.826   9.264   5.383  0.2967 -0.5553 -0.7740
  257MOL0     C34562   6.772   9.197   5.470  0.7862  0.1869  0.4625
  257MOL0     O34563   6.830   9.137   5.571 -0.6804  0.1152  0.0033
  257MOL0     C34564   6.971   9.153   5.580 -1.2420  0.1119  0.5749
  257MOL0     C34565   7.052   9.088   5.489  0.7276 -0.5873  0.7630
  257MOL0     C34566   7.189   9.081   5.490  0.8620 -0.2530 -0.5208
  257MOL0     C34567   7.249   9.150   5.606 -0.1614  0.3054 -0.2184
  257MOL0     O34568   7.382   9.166   5.625 -1.1435 -0.2662 -0.0287
  257MOL0     C34569   7.487   9.095   5.548  0.8410 -0.6043 -0.9754
  257MOL0     C34570   7.537   9.169   5.423  0.3096  0.5642 -0.4230
  257MOL0     C34571   7.667   9.110   5.362 -0.3240  0.8797  0.8026
  257MOL0     C34572   7.725   9.191   5.251  0.4242 -0.0389 -0.6146
  257MOL0     C34573   7.850   9.126   5.188 -0.2064  0.7727 -0.0709
  257MOL0     C34574   7.890   9.210   5.061  0.1444 -0.1199 -0.1666
  257MOL0     C34575   7.983   9.149   4.955 -0.2863 -0.8657  0.4603
  257MOL0     C34576   7.948   9.024   4.876 -0.5239 -0.3669  0.1243
  257MOL0     N34577   8.051   8.981   4.777  0.3088 -0.3091  0.0980
  257MOL0     C34578   8.168   9.042   4.730  0.1787 -0.0193 -0.8438
  257MOL0     C34579   8.234   8.948   4.657 -0.6072  0.1302  0.2253
  257MOL0     C34580   8.378   8.938   4.604  0.3880 -0.3081 -0.0856
  257MOL0     C34581   8.454   8.833   4.677 -0.5277  0.3515 -0.0665
  257MOL0     C34582   8.599   8.829   4.642 -0.3859 -0.0433  0.7758
  257MOL0     C34583   8.674   8.713   4.715  0.0187  0.1807  0.4736
  257MOL0     O34584   8.814   8.729   4.711  0.4945  0.1996  0.0920
  257MOL0     C34585   8.872   8.739   4.590 -0.5079  0.1050 -0.1851
  257MOL0     C34586   8.831   8.679   4.469  0.1893 -0.7478  0.2475
  257MOL0     C34587   8.915   8.667   4.359 -0.6423 -0.3108 -0.0695
  257MOL0     C34588   9.041   8.736   4.360 -0.3314 -0.9877 -0.8300
  257MOL0     C34589   9.129   8.737   4.239  0.2066  0.5578  0.7924
  257MOL0     O34590   9.225   8.835   4.235 -0.2975 -0.4300 -0.0069
  257MOL0     C34591   9.319   8.850   4.130  0.4525 -0.7345 -0.3159
  257MOL0     C34592   9.400   8.748   4.086 -0.3032 -0.4814 -0.3821
  257MOL0     C34593   9.495   8.778   3.988 -0.0957  0.5863  0.3794
  257MOL0     C34594   9.511   8.909   3.935  0.1395 -0.6146  0.0760
  257MOL0     O34595   9.608   8.952   3.841 -0.2340  0.6390 -0.0626
  257MOL0     C34596   9.737   8.896   3.853 -0.3716 -0.1187  0.7248
  257MOL0     C34597   9.838   9.005   3.830 -0.3960  0.1577  0.7789
  257MOL0     C34598   9.989   8.975   3.828  0.0623 -0.1854 -0.1164
  257MOL0     C34599  10.024   8.844   3.755 -0.6455 -0.2663  0.6479
  257MOL0     C34600  10.179   8.809   3.756  1.1190  0.1673  0.7939
  257MOL0     C34601  10.238   8.810   3.891  0.0782  0.2772  0.5299
  257MOL0     C34602  10.386   8.762   3.891 -0.0961 -0.2394  0.1269
  257MOL0     C34603  10.423   8.620   3.840 -0.4932  0.5121  0.3200
  257MOL0    Cl34604  10.607   8.617   3.827 -0.0751  0.0633  0.1014
  257MOL0     C34605   9.432   9.006   3.984 -0.6508 -0.5376 -0.3558
  257MOL0     C34606   9.344   8.979   4.086  0.3981  0.0563  0.2970
  257MOL0     O34607   9.116   8.658   4.144 -0.3004  0.3078  1.2900
  257MOL0     C34608   9.084   8.792   4.484  0.7210  0.5007 -0.0648
  257MOL0     C34609   9.001   8.782   4.600 -0.2842 -0.0265 -1.2791
  257MOL0     N34610   8.145   8.841   4.643  0.3818  0.8806  0.5325
  257MOL0     N34611   8.039   8.865   4.710  0.3866  0.6422  0.0081
  257MOL0     C34612   7.171   9.219   5.694  1.2350 -0.0595 -0.4693
  257MOL0     C34613   7.028   9.216   5.685 -0.2976 -0.4542 -0.5619
  257MOL0     C34614   6.621   9.175   5.475 -0.0773 -0.0113 -0.0250
  257MOL0     C34615   6.579   9.044   5.482  0.0834 -0.3380  0.7838
  257MOL0     C34616   6.445   9.023   5.468  0.3543  0.1938  0.0636
  257MOL0     C34617   6.347   9.116   5.447  0.0046 -0.4419 -0.0946
  257MOL0     O34618   6.219   9.075   5.424 -0.6850 -0.1022 -0.5915
  257MOL0     C34619   6.163   9.109   5.297 -0.4919  0.3433  0.0762
  257MOL0     C34620   6.096   8.989   5.233 -0.0938 -0.2548 -0.4336
  257MOL0     C34621   5.995   8.930   5.330  0.1966 -0.1012  0.3054
  257MOL0     C34622   5.927   8.813   5.277  0.6382 -0.7148  0.5814
  257MOL0     C34623   5.789   8.790   5.327  0.1429 -0.6351  0.7823
  257MOL0     C34624   5.673   8.788   5.372 -0.0603 -0.4779 -0.4539
  257MOL0     C34625   6.391   9.249   5.444  0.7366  0.6876 -0.8354
  257MOL0     C34626   6.523   9.284   5.471  0.0411  0.1268  1.0789
  257MOL0     C34627   6.554   9.432   5.461 -0.1682 -0.4944 -0.5033
  257MOL0     H34628   7.001   9.045   5.404 -0.2943  2.6747 -0.4484
  257MOL0     H34629   7.248   9.028   5.415  1.0087 -0.2145 -0.4308
  257MOL0     H34630   7.567   9.081   5.621 -1.3159 -1.3540  1.3920
  257MOL0     H34631   7.451   8.993   5.530  0.0114 -0.7508  1.1882
  257MOL0     H34632   7.537   9.277   5.439  0.5587  0.5700 -0.4537
  257MOL0     H34633   7.464   9.164   5.342 -0.2571  0.9308  0.0492
  257MOL0     H34634   7.654   9.004   5.334  2.6453  0.1344  1.9080
  257MOL0     H34635   7.744   9.113   5.439 -1.0555 -0.4817  1.6233
  257MOL0     H34636   7.647   9.220   5.181 -1.7006  2.4738  2.5036
  257MOL0     H34637   7.746   9.285   5.302 -3.7735  0.2230  1.0357
  257MOL0     H34638   7.934   9.126   5.258 -0.3300  1.6630  0.0925
  257MOL0     H34639   7.831   9.023   5.158  2.2827  0.0891  0.4437
  257MOL0     H34640   7.796   9.242   5.015 -0.0296  0.5033  0.6025
  257MOL0     H34641   7.939   9.301   5.098  0.7438  0.3258 -1.9052
  257MOL0     H34642   8.084   9.139   4.995 -0.5234 -0.9787  1.0345
  257MOL0     H34643   7.995   9.222   4.874  2.6504 -2.8170 -1.0538
  257MOL0     H34644   7.932   8.939   4.943  0.1839 -0.9571 -0.4390
  257MOL0     H34645   7.852   9.041   4.826  0.4023  1.6778 -1.0613
  257MOL0     H34646   8.205   9.134   4.774  1.2680 -2.6318  4.4887
  257MOL0     H34647   8.366   8.909   4.500 -2.3643  1.0665 -0.2330
  257MOL0     H34648   8.424   9.037   4.613  0.3676 -0.4176  1.4660
  257MOL0     H34649   8.446   8.849   4.785  1.9407  0.9012  0.0816
  257MOL0     H34650   8.407   8.740   4.642 -1.0874  1.8900 -3.8619
  257MOL0     H34651   8.651   8.923   4.664 -0.9336  0.6790 -0.8254
  257MOL0     H34652   8.608   8.821   4.533 -0.7006 -2.4207  0.8804
  257MOL0     H34653   8.646   8.616   4.672 -2.5688 -0.7049  3.7124
  257MOL0     H34654   8.640   8.716   4.819 -0.8889 -2.8261  0.3726
  257MOL0     H34655   8.733   8.631   4.463  0.6795 -1.9552  1.3851
  257MOL0     H34656   8.883   8.614   4.270  0.7665  1.8334 -1.9883
  257MOL0     H34657   9.390   8.642   4.105  0.5861 -0.7133 -1.1384
  257MOL0     H34658   9.557   8.697   3.954 -2.6630 -1.7543  0.9158
  257MOL0     H34659   9.752   8.858   3.955 -2.9732 -0.1139  1.1683
  257MOL0     H34660   9.760   8.822   3.776  3.4241 -0.2936  1.8311
  257MOL0     H34661   9.826   9.039   3.726  0.9710 -2.3159 -0.2611
  257MOL0     H34662   9.817   9.085   3.902 -1.5185 -0.5520  1.2533
  257MOL0     H34663  10.042   9.056   3.777 -1.8305  1.4666  0.4289
  257MOL0     H34664  10.024   8.976   3.932  0.6279 -1.0463 -0.2826
  257MOL0     H34665   9.986   8.836   3.652  1.0556 -1.9581  0.0864
  257MOL0     H34666   9.970   8.766   3.808  0.2061 -1.2564  0.0919
  257MOL0     H34667  10.237   8.869   3.686 -0.4561 -3.0885 -3.8403
  257MOL0     H34668  10.185   8.708   3.714  1.6970 -0.3955  2.1645
  257MOL0     H34669  10.226   8.905   3.944 -2.8253 -0.1181  0.7474
  257MOL0     H34670  10.178   8.746   3.957 -2.0439  1.9775  0.3539
  257MOL0     H34671  10.415   8.760   3.997 -0.1185 -1.3113  0.1199
  257MOL0     H34672  10.439   8.834   3.828  2.4538 -1.4426  0.7445
  257MOL0     H34673  10.386   8.559   3.923  0.1760  1.2309  1.1740
  257MOL0     H34674  10.378   8.594   3.744  0.2858  2.1455 -0.5381
  257MOL0     H34675   9.437   9.108   3.946  1.3002 -0.4688 -0.0097
  257MOL0     H34676   9.282   9.059   4.126 -0.2626 -0.1078 -0.3694
  257MOL0     H34677   9.188   8.824   4.489  0.6382  0.5676  2.1546
  257MOL0     H34678   9.048   8.821   4.690  0.1342  1.4157 -2.0948
  257MOL0     H34679   7.212   9.288   5.767 -1.4692  1.4354 -0.2430
  257MOL0     H34680   6.964   9.265   5.757 -0.6043 -0.4079 -0.8635
  257MOL0     H34681   6.639   8.954   5.496 -0.7357 -0.6825  2.2487
  257MOL0     H34682   6.398   8.925   5.463 -0.3465  0.3699  2.1108
  257MOL0     H34683   6.239   9.140   5.224 -0.8323 -0.6020 -0.7003
  257MOL0     H34684   6.098   9.193   5.322  0.1104  0.2986  2.0020
  257MOL0     H34685   6.171   8.910   5.222  1.8735  0.8528  3.2637
  257MOL0     H34686   6.059   9.028   5.138  0.8303  1.6674 -0.0411
  257MOL0     H34687   5.916   9.005   5.341 -1.6008 -2.0009  1.1100
  257MOL0     H34688   6.035   8.911   5.431  1.5210 -2.2405 -0.5604
  257MOL0     H34689   5.918   8.826   5.168  2.5019  1.4783  0.6023
  257MOL0     H34690   5.992   8.727   5.291  0.2159 -1.3743 -1.2536
  257MOL0     H34691   5.575   8.795   5.415 -0.3253 -0.5089 -1.0540
  257MOL0     H34692   6.307   9.317   5.429 -1.3055 -1.8018 -1.4714
  257MOL0     H34693   6.470   9.494   5.429 -0.0919 -1.0518 -1.8371
  257MOL0     H34694   6.587   9.470   5.559  3.3467  2.7319 -2.6597
  257MOL0     H34695   6.631   9.448   5.385  0.5204 -0.2816  0.2204
  258MOL0     O34696   3.240   9.733   6.348  0.7001 -0.4473 -0.3692
  258MOL0     C34697   3.191   9.622   6.350 -0.1123  1.2636 -0.6060
  258MOL0     O34698   3.261   9.508   6.379  0.5074 -0.0351  0.4106
  258MOL0     C34699   3.391   9.510   6.425 -0.4716  0.5414 -0.1138
  258MOL0     C34700   3.473   9.410   6.371 -0.5612  0.0929 -0.0766
  258MOL0     C34701   3.611   9.396   6.398  0.1031 -0.1878  0.1446
  258MOL0     C34702   3.665   9.473   6.500  0.4012 -0.4221 -0.1725
  258MOL0     O34703   3.801   9.473   6.536 -0.5178  0.0607 -0.3933
  258MOL0     C34704   3.870   9.354   6.500 -0.4427  0.0551  0.1039
  258MOL0     C34705   4.015   9.353   6.555 -0.3470 -0.3929  0.1529
  258MOL0     C34706   4.069   9.210   6.568 -0.5776 -0.0290 -0.2298
  258MOL0     C34707   4.067   9.108   6.447  0.2300 -0.7308 -0.7067
  258MOL0     C34708   4.201   9.028   6.444  0.4054 -0.1084 -0.5453
  258MOL0     C34709   4.297   9.120   6.365 -0.5471 -0.4123  0.3978
  258MOL0     C34710   4.439   9.057   6.365 -0.3140  0.6638 -0.6876
  258MOL0     C34711   4.516   9.154   6.274 -0.5117 -0.2475 -0.1522
  258MOL0     N34712   4.641   9.121   6.215  0.0306  0.0557 -0.2407
  258MOL0     C34713   4.709   9.002   6.226  0.4309 -1.0602 -1.0910
  258MOL0     C34714   4.815   9.014   6.149  0.3339 -0.4696  0.8812
  258MOL0     C34715   4.906   8.897   6.122 -0.0687 -0.1364 -0.3673
  258MOL0     C34716   5.060   8.939   6.127  0.8479  0.4913  0.0454
  258MOL0     C34717   5.103   8.999   6.261 -0.3044  0.5169 -0.3638
  258MOL0     C34718   5.255   9.003   6.274 -0.2682 -0.1180 -0.1090
  258MOL0     O34719   5.324   9.051   6.162  0.4290  0.2416  0.0114
  258MOL0     C34720   5.462   9.068   6.174  0.2517 -0.3726 -0.1076
  258MOL0     C34721   5.525   9.093   6.292 -0.8047 -0.0713 -0.8747
  258MOL0     C34722   5.668   9.089   6.301 -0.0093 -0.3589  0.2419
  258MOL0     C34723   5.745   9.059   6.190  0.7284  0.6300 -0.7382
  258MOL0     C34724   5.894   9.072   6.189  0.1201 -0.1794 -0.5302
  258MOL0     O34725   5.949   9.128   6.301 -0.0606  0.6525  1.1515
  258MOL0     C34726   6.084   9.156   6.322  0.5337  0.4483 -0.0407
  258MOL0     C34727   6.111   9.221   6.437  0.3058 -0.1429 -0.3592
  258MOL0     C34728   6.234   9.251   6.483 -0.2421  0.6621 -0.0991
  258MOL0     C34729   6.351   9.190   6.423 -0.0267  0.8627 -0.6459
  258MOL0     O34730   6.472   9.203   6.491  0.1825  0.0907 -0.2259
  258MOL0     C34731   6.588   9.180   6.418 -0.4287  0.4106 -0.2406
  258MOL0     C34732   6.717   9.179   6.508  0.0191  1.0529  0.6834
  258MOL0     C34733   6.829   9.169   6.408 -0.0448  0.0054  0.6445
  258MOL0     C34734   6.960   9.159   6.479 -0.1619  1.1630 -0.6781
  258MOL0     C34735   7.079   9.124   6.386  0.5956  0.9345 -0.1739
  258MOL0     C34736   7.207   9.108   6.469  0.0448  0.3346  0.2224
  258MOL0     C34737   7.324   9.081   6.378  0.5460  0.1515 -0.1023
  258MOL0     C34738   7.448   9.037   6.447 -0.0273  0.3610 -0.4821
  258MOL0    Cl34739   7.431   8.901   6.556 -0.7460  0.4794 -0.1586
  258MOL0     C34740   6.325   9.127   6.298 -0.0808  0.2500  0.8617
  258MOL0     C34741   6.196   9.113   6.246  0.2799 -0.1069 -0.5299
  258MOL0     O34742   5.955   9.029   6.093 -0.3917 -0.7270  0.2288
  258MOL0     C34743   5.680   9.038   6.067 -0.5922  0.1743  0.2687
  258MOL0     C34744   5.543   9.039   6.060  0.5860  0.0684 -0.2906
  258MOL0     N34745   4.811   9.141   6.087  0.1242 -0.3564  0.0478
  258MOL0     N34746   4.706   9.198   6.127 -0.0689  0.0067  0.3131
  258MOL0     C34747   3.585   9.576   6.555  0.3559  0.1550  0.1886
  258MOL0     C34748   3.445   9.588   6.519  0.0502 -0.1611 -0.3758
  258MOL0     C34749   3.045   9.605   6.315 -0.0529 -0.0764 -0.2773
  258MOL0     C34750   2.960   9.711   6.360  0.1594 -0.0475  0.5213
  258MOL0     C34751   2.826   9.716   6.339  0.4058  0.1697 -0.3319
  258MOL0     C34752   2.769   9.627   6.249  0.3618 -0.9606  0.0280
  258MOL0     O34753   2.631   9.634   6.212 -0.6378 -0.1405 -0.3028
  258MOL0     C34754   2.548   9.741   6.274  0.3875  0.9532 -0.1338
  258MOL0     C34755   2.513   9.721   6.415 -0.2247 -0.2847 -0.7308
  258MOL0     C34756   2.483   9.571   6.433 -0.3615 -0.6142  0.3641
  258MOL0     C34757   2.434   9.545   6.581 -0.1769 -0.3778  0.6319
  258MOL0     C34758   2.534   9.536   6.687  0.1888  0.6553  0.1988
  258MOL0     C34759   2.611   9.513   6.782  0.1338  1.1559 -0.4077
  258MOL0     C34760   2.846   9.522   6.207  0.4374 -0.6271  1.3414
  258MOL0     C34761   2.979   9.510   6.235  0.4777  0.0118 -0.3760
  258MOL0     C34762   3.059   9.396   6.186  0.0434 -0.0866 -0.1589
  258MOL0     H34763   3.431   9.336   6.303  0.4725  1.2578 -2.0619
  258MOL0     H34764   3.660   9.315   6.345 -0.7727 -3.5788  3.9529
  258MOL0     H34765   3.826   9.259   6.532  1.3678 -1.2449 -1.0329
  258MOL0     H34766   3.877   9.353   6.391  0.1401  0.0904  0.1361
  258MOL0     H34767   4.012   9.392   6.657 -0.5197 -1.5977  0.6203
  258MOL0     H34768   4.076   9.415   6.489 -0.5666  0.9864  1.2064
  258MOL0     H34769   4.000   9.162   6.638  0.8341 -2.0471 -0.1528
  258MOL0     H34770   4.169   9.214   6.612 -0.4540  1.0925 -0.5823
  258MOL0     H34771   3.980   9.042   6.455 -1.4099  1.4400  0.4019
  258MOL0     H34772   4.051   9.160   6.352  1.1208  0.7997 -0.0399
  258MOL0     H34773   4.226   9.006   6.548  0.2077 -3.8103 -1.1608
  258MOL0     H34774   4.189   8.927   6.405  0.8657 -1.1733  1.9201
  258MOL0     H34775   4.266   9.138   6.262  0.8928  2.6924  0.4030
  258MOL0     H34776   4.301   9.217   6.415 -1.5856 -0.9678  1.6087
  258MOL0     H34777   4.426   8.956   6.324 -1.5096 -0.8567  3.0022
  258MOL0     H34778   4.492   9.054   6.461 -0.3913  1.3265 -0.6197
  258MOL0     H34779   4.448   9.185   6.194 -2.4366 -0.1502  1.4459
  258MOL0     H34780   4.532   9.245   6.332  0.5473 -0.2427 -0.4297
  258MOL0     H34781   4.684   8.910   6.278  0.8287 -0.5272  0.0703
  258MOL0     H34782   4.876   8.821   6.195  1.0367 -0.9677 -0.7386
  258MOL0     H34783   4.889   8.863   6.019 -0.2685 -0.8552 -0.1057
  258MOL0     H34784   5.117   8.849   6.101 -0.1943 -0.7255  1.7734
  258MOL0     H34785   5.074   9.020   6.054 -0.8564  1.5611  0.8519
  258MOL0     H34786   5.067   8.936   6.343 -0.3285  0.0885 -0.7066
  258MOL0     H34787   5.068   9.102   6.275  1.0628  0.8717  0.6905
  258MOL0     H34788   5.291   8.900   6.285  0.5048  0.1507 -0.0643
  258MOL0     H34789   5.281   9.063   6.362 -2.7895  1.4481 -0.3234
  258MOL0     H34790   5.476   9.120   6.385 -0.6987 -0.7989 -0.5993
  258MOL0     H34791   5.711   9.111   6.398 -0.2613 -0.9597  0.4906
  258MOL0     H34792   6.039   9.260   6.509  1.0225 -1.8889  1.3580
  258MOL0     H34793   6.250   9.315   6.570  0.5346  2.0514 -1.2200
  258MOL0     H34794   6.577   9.083   6.369  0.0891  0.9905 -1.5474
  258MOL0     H34795   6.610   9.249   6.336  1.1318 -0.5963 -0.7153
  258MOL0     H34796   6.724   9.268   6.571  4.2995  0.1937  1.7582
  258MOL0     H34797   6.727   9.092   6.572  1.8495  0.2724 -0.5816
  258MOL0     H34798   6.815   9.084   6.341  2.1134  0.4822 -0.4792
  258MOL0     H34799   6.829   9.249   6.333 -1.0407 -2.0204 -1.6541
  258MOL0     H34800   6.943   9.075   6.547  0.5612 -0.8437 -2.8149
  258MOL0     H34801   6.980   9.252   6.532 -0.3688  0.0114  1.5783
  258MOL0     H34802   7.095   9.209   6.319 -1.5324  4.3771  3.2775
  258MOL0     H34803   7.054   9.030   6.335  0.5770  1.5149 -1.2686
  258MOL0     H34804   7.231   9.197   6.528 -0.9398 -1.0765  2.9536
  258MOL0     H34805   7.194   9.026   6.540 -0.9150 -0.1491 -0.5001
  258MOL0     H34806   7.348   9.168   6.316 -1.0047  1.4047  0.9895
  258MOL0     H34807   7.299   9.012   6.298  0.6431  2.0125 -1.8274
  258MOL0     H34808   7.519   9.009   6.368 -2.5263 -0.7270 -2.5082
  258MOL0     H34809   7.478   9.119   6.512  1.6697 -0.9990  0.5467
  258MOL0     H34810   6.404   9.074   6.246  0.3090  1.3611  0.2934
  258MOL0     H34811   6.189   9.064   6.150  0.5282 -0.7497 -0.2233
  258MOL0     H34812   5.733   9.022   5.973  1.8333  0.6281  1.4629
  258MOL0     H34813   5.492   9.011   5.969 -1.2747 -1.8194  1.2355
  258MOL0     H34814   3.628   9.654   6.617 -1.0863  1.5833 -0.5165
  258MOL0     H34815   3.386   9.675   6.548 -1.7939 -2.1198  2.2108
  258MOL0     H34816   3.010   9.774   6.433  0.6008 -0.3956  0.5287
  258MOL0     H34817   2.776   9.797   6.391  0.2895 -0.8456  1.1835
  258MOL0     H34818   2.458   9.749   6.213 -0.3899  2.3376  1.1240
  258MOL0     H34819   2.592   9.841   6.270 -1.2985  1.7043 -2.8025
  258MOL0     H34820   2.426   9.787   6.426 -0.6194 -0.8652 -0.3618
  258MOL0     H34821   2.597   9.749   6.479 -0.7728  0.1493 -0.1885
  258MOL0     H34822   2.573   9.511   6.416 -0.0473  0.0338 -0.3269
  258MOL0     H34823   2.401   9.545   6.366 -0.2382 -1.8155  0.6522
  258MOL0     H34824   2.363   9.628   6.588  1.7230  1.4878 -0.9731
  258MOL0     H34825   2.392   9.444   6.582  1.8608 -1.2689  1.6493
  258MOL0     H34826   2.683   9.506   6.861  1.2616  2.1589 -1.3117
  258MOL0     H34827   2.801   9.445   6.145 -1.2379  1.6802 -0.4961
  258MOL0     H34828   3.076   9.319   6.261 -1.8343 -0.6071 -0.1953
  258MOL0     H34829   3.009   9.354   6.098  0.0361  0.6781 -0.5216
  258MOL0     H34830   3.153   9.440   6.154 -0.8901  0.9693 -1.5937
  259MOL0     O34831   6.516   2.031   1.589 -0.2523 -0.4528 -0.8943
  259MOL0     C34832   6.483   1.918   1.555  0.4874  0.0966  0.4141
  259MOL0     O34833   6.548   1.851   1.457  0.1114  0.0874  0.2381
  259MOL0     C34834   6.672   1.887   1.412  0.3775  0.0101 -0.9988
  259MOL0     C34835   6.688   1.905   1.278 -0.4737 -0.5879 -0.7671
  259MOL0     C34836   6.810   1.936   1.224  0.1386 -0.1422  0.1991
  259MOL0     C34837   6.924   1.937   1.304 -0.4606 -0.5602 -0.5120
  259MOL0     O34838   7.050   1.961   1.246  0.5373 -0.7729  0.1628
  259MOL0     C34839   7.165   1.940   1.328 -0.6558 -0.0144  0.1907
  259MOL0     C34840   7.280   1.949   1.226 -0.1132  0.6724  0.4481
  259MOL0     C34841   7.418   1.960   1.295  0.3719 -0.3803  0.5555
  259MOL0     C34842   7.537   1.983   1.205 -0.0796  0.1350  0.5024
  259MOL0     C34843   7.669   1.983   1.281 -0.4686 -0.4543  0.2355
  259MOL0     C34844   7.779   2.020   1.188 -0.2212 -0.0823  0.4995
  259MOL0     C34845   7.910   2.012   1.259 -0.3215  0.5661  0.6931
  259MOL0     C34846   8.034   2.046   1.176  0.7651  0.7642 -0.7451
  259MOL0     N34847   8.153   2.020   1.248  0.0834  0.1136 -0.4646
  259MOL0     C34848   8.204   2.102   1.346 -0.5098 -0.1602 -0.0670
  259MOL0     C34849   8.338   2.070   1.353 -0.0883 -0.1856 -0.3189
  259MOL0     C34850   8.452   2.140   1.421 -0.3536  0.5261  0.5640
  259MOL0     C34851   8.530   2.035   1.515  0.1657  0.5721  0.1371
  259MOL0     C34852   8.640   2.092   1.597 -0.6915 -0.1246 -0.5785
  259MOL0     C34853   8.747   2.155   1.516  0.2282 -0.4132  0.2856
  259MOL0     O34854   8.833   2.207   1.621 -1.0530 -0.4607  0.2187
  259MOL0     C34855   8.969   2.211   1.611 -0.3341 -0.4112  0.5000
  259MOL0     C34856   9.036   2.209   1.731 -0.1912  0.7841  0.2397
  259MOL0     C34857   9.176   2.226   1.739  0.6434  0.0963  0.2656
  259MOL0     C34858   9.256   2.243   1.626  0.9913 -0.3089 -0.7616
  259MOL0     C34859   9.398   2.268   1.641 -0.4534 -0.5597  0.1989
  259MOL0     O34860   9.450   2.305   1.765 -0.6927 -0.3458  0.3208
  259MOL0     C34861   9.585   2.326   1.791  0.3474  1.0645  0.2289
  259MOL0     C34862   9.623   2.458   1.816  0.0181 -0.2819  0.5017
  259MOL0     C34863   9.756   2.493   1.811 -1.1073  0.2925 -0.1252
  259MOL0     C34864   9.860   2.405   1.773 -0.9056 -0.9717 -1.1716
  259MOL0     O34865   9.994   2.430   1.776  0.4863  0.2290 -0.1139
  259MOL0     C34866  10.030   2.524   1.677  1.2311  0.2079 -1.0126
  259MOL0     C34867  10.177   2.540   1.705  0.0205  0.3469  0.8126
  259MOL0     C34868  10.223   2.672   1.638  0.0109  0.7982 -0.2520
  259MOL0     C34869  10.379   2.648   1.640 -0.7846  0.9572 -0.0093
  259MOL0     C34870  10.451   2.780   1.632 -0.1673 -0.0747 -0.0968
  259MOL0     C34871  10.603   2.750   1.635  0.1346 -0.4174 -0.3347
  259MOL0     C34872  10.664   2.893   1.645 -0.2583 -0.2679  0.1698
  259MOL0     C34873  10.811   2.883   1.666 -0.0400  1.0424 -0.4931
  259MOL0    Cl34874  10.892   2.769   1.543 -0.1891 -0.1496  0.1444
  259MOL0     C34875   9.817   2.277   1.757  0.2931 -0.0637 -0.2346
  259MOL0     C34876   9.683   2.232   1.767 -0.1520  0.4714 -0.3419
  259MOL0     O34877   9.466   2.247   1.541  0.0302 -0.4293  0.0445
  259MOL0     C34878   9.186   2.234   1.497 -0.3518 -0.4242 -0.7340
  259MOL0     C34879   9.044   2.222   1.494 -0.1065 -1.2217  0.0023
  259MOL0     N34880   8.354   1.965   1.259 -0.2375  0.7634  0.4080
  259MOL0     N34881   8.243   1.927   1.203  0.1609 -0.4105 -0.0024
  259MOL0     C34882   6.908   1.927   1.443 -0.1384 -0.5877  1.0345
  259MOL0     C34883   6.784   1.915   1.499 -0.5880  0.3947  1.0617
  259MOL0     C34884   6.367   1.860   1.631 -0.3291 -0.5607 -0.3352
  259MOL0     C34885   6.320   1.926   1.743  0.1665  0.5880 -0.4994
  259MOL0     C34886   6.234   1.864   1.841  0.5909  0.4506  0.8778
  259MOL0     C34887   6.183   1.738   1.822  0.0512 -0.5435  0.5423
  259MOL0     O34888   6.089   1.705   1.913  0.5394  0.0961 -0.2657
  259MOL0     C34889   6.029   1.573   1.882 -0.8041  0.7207 -0.2768
  259MOL0     C34890   5.897   1.545   1.963  0.8406  0.3808  1.1991
  259MOL0     C34891   5.922   1.571   2.113 -0.5056  0.3538 -0.0497
  259MOL0     C34892   6.050   1.510   2.166  0.0100 -0.2771 -0.1942
  259MOL0     C34893   6.046   1.479   2.305 -0.3118  0.5169 -1.0282
  259MOL0     C34894   6.055   1.469   2.418 -0.7302  0.0369  0.3883
  259MOL0     C34895   6.217   1.669   1.696 -0.1150  0.7097 -0.6150
  259MOL0     C34896   6.302   1.734   1.605  0.0667  0.2530 -0.2353
  259MOL0     C34897   6.355   1.658   1.479 -0.5053  0.1892  0.3340
  259MOL0     H34898   6.598   1.881   1.221 -0.0940 -1.1788 -1.1325
  259MOL0     H34899   6.820   1.961   1.119 -0.9491 -0.3235  0.0383
  259MOL0     H34900   7.163   2.010   1.411 -0.8990 -0.0677  0.2317
  259MOL0     H34901   7.158   1.849   1.388 -3.4529  0.5980  0.9806
  259MOL0     H34902   7.272   2.037   1.161  1.0420 -0.0105 -0.6541
  259MOL0     H34903   7.275   1.864   1.157  1.5746  2.2793 -1.8340
  259MOL0     H34904   7.425   1.860   1.339  0.5352  0.0512  1.5148
  259MOL0     H34905   7.405   2.040   1.368  0.7675 -0.0360  0.2563
  259MOL0     H34906   7.540   1.903   1.131 -1.2778 -0.6025  1.2036
  259MOL0     H34907   7.515   2.078   1.156 -0.3564  0.7762  1.8192
  259MOL0     H34908   7.673   2.069   1.348  1.9265  0.1188 -0.5503
  259MOL0     H34909   7.677   1.889   1.336  0.8853 -0.9223 -0.7136
  259MOL0     H34910   7.786   1.953   1.102 -1.4435  1.3071 -0.7325
  259MOL0     H34911   7.770   2.117   1.137 -1.3675 -1.8738 -3.0340
  259MOL0     H34912   7.932   1.907   1.282  0.9051  0.5457 -0.4735
  259MOL0     H34913   7.922   2.071   1.350  1.2249 -2.4492  2.6419
  259MOL0     H34914   8.031   1.984   1.085 -2.3862  0.2381 -0.4027
  259MOL0     H34915   8.031   2.152   1.151  2.3472  1.5727  2.0607
  259MOL0     H34916   8.161   2.191   1.391 -1.5576  0.1727 -1.6367
  259MOL0     H34917   8.515   2.193   1.349  0.5353 -1.2443 -0.0289
  259MOL0     H34918   8.411   2.215   1.489 -2.2652  0.5785 -0.5683
  259MOL0     H34919   8.466   1.968   1.573  0.3452 -0.5110 -0.8697
  259MOL0     H34920   8.579   1.954   1.461 -0.0404 -0.3926  1.3558
  259MOL0     H34921   8.687   2.016   1.661 -2.0263 -1.8805 -1.5774
  259MOL0     H34922   8.594   2.159   1.670 -1.1436  0.6834 -1.5971
  259MOL0     H34923   8.700   2.224   1.445 -2.7499 -0.3270  2.1661
  259MOL0     H34924   8.790   2.072   1.458  1.7329  0.5343  0.0113
  259MOL0     H34925   8.973   2.205   1.819  1.1756 -0.9583  1.2091
  259MOL0     H34926   9.226   2.221   1.835  0.3056 -3.2327  0.3621
  259MOL0     H34927   9.558   2.541   1.840 -0.6307 -0.7914  0.5374
  259MOL0     H34928   9.781   2.593   1.846  0.9950 -0.5210  0.8504
  259MOL0     H34929  10.001   2.492   1.577  0.9691  2.7817 -1.8310
  259MOL0     H34930   9.979   2.620   1.690  0.0316 -0.3885 -1.1762
  259MOL0     H34931  10.198   2.546   1.812 -2.2359 -1.5439  1.4481
  259MOL0     H34932  10.224   2.449   1.667 -1.2301 -0.0566  0.1630
  259MOL0     H34933  10.182   2.672   1.537  0.9953 -0.2188 -0.6632
  259MOL0     H34934  10.196   2.757   1.702 -2.0453 -0.1747  0.2489
  259MOL0     H34935  10.402   2.600   1.545  2.3811  2.0175  0.1103
  259MOL0     H34936  10.408   2.583   1.723 -0.4437  0.0782 -0.7937
  259MOL0     H34937  10.422   2.846   1.714 -1.3441  0.1207 -0.6543
  259MOL0     H34938  10.423   2.835   1.543  0.7446  1.3502  0.4661
  259MOL0     H34939  10.627   2.705   1.732 -0.2332  2.7771  1.3880
  259MOL0     H34940  10.626   2.699   1.541 -0.1581  0.5659 -0.9552
  259MOL0     H34941  10.614   2.943   1.729  0.3188  0.1296  0.2802
  259MOL0     H34942  10.645   2.956   1.558  0.8649  1.7156  1.2915
  259MOL0     H34943  10.845   2.985   1.643  1.1815  1.0761  1.2707
  259MOL0     H34944  10.832   2.859   1.770 -1.3027  0.0898 -0.4260
  259MOL0     H34945   9.884   2.193   1.745 -0.9996 -1.1411 -0.0707
  259MOL0     H34946   9.653   2.133   1.735 -1.8279  1.6404 -2.6591
  259MOL0     H34947   9.242   2.251   1.406  0.1033  1.1004 -0.1950
  259MOL0     H34948   8.990   2.219   1.399 -1.0242 -2.6279  0.5439
  259MOL0     H34949   6.987   1.939   1.515  1.6189 -1.0556 -0.7209
  259MOL0     H34950   6.769   1.912   1.606  1.0830 -0.7176  1.3027
  259MOL0     H34951   6.352   2.026   1.770 -1.2425  0.7119  0.8874
  259MOL0     H34952   6.208   1.922   1.929  0.9404 -0.2629  1.4659
  259MOL0     H34953   6.095   1.488   1.897 -0.5622  0.9561 -0.0090
  259MOL0     H34954   5.999   1.563   1.777  0.9160 -0.4644 -0.6976
  259MOL0     H34955   5.885   1.438   1.944  2.6627  0.1880  0.8926
  259MOL0     H34956   5.820   1.612   1.924  0.5847 -0.7370 -0.3062
  259MOL0     H34957   5.835   1.537   2.170  0.7090 -1.4419  0.8366
  259MOL0     H34958   5.912   1.679   2.129 -1.2956  0.6180 -2.0474
  259MOL0     H34959   6.072   1.419   2.110  0.5582  0.4876 -1.2430
  259MOL0     H34960   6.138   1.572   2.149  1.3642 -2.1860 -0.4048
  259MOL0     H34961   6.056   1.444   2.522 -0.7782  0.4281  0.4834
  259MOL0     H34962   6.190   1.565   1.684  0.9434  0.4144 -0.5361
  259MOL0     H34963   6.364   1.714   1.385  0.3499  0.0570  0.3269
  259MOL0     H34964   6.455   1.620   1.505 -0.8577  0.1588  1.6877
  259MOL0     H34965   6.277   1.588   1.448 -1.0485  1.3959 -1.1622
  260MOL0     O34966   9.567   6.635   5.394  0.0085  0.3010  0.6376
  260MOL0     C34967   9.543   6.731   5.469  1.0225 -0.7285 -0.3135
  260MOL0     O34968   9.636   6.793   5.550  0.5616 -0.1569 -0.1094
  260MOL0     C34969   9.769   6.763   5.529 -0.1273 -0.5486  0.9793
  260MOL0     C34970   9.834   6.661   5.601 -0.6628 -0.0146  0.0767
  260MOL0     C34971   9.962   6.622   5.569  0.3221 -0.8340 -0.1118
  260MOL0     C34972  10.029   6.705   5.481 -0.1290  0.2621 -0.4345
  260MOL0     O34973  10.166   6.669   5.455  0.4239 -0.5840  0.5823
  260MOL0     C34974  10.257   6.662   5.568 -0.6869 -0.1898  0.5261
  260MOL0     C34975  10.359   6.548   5.538  0.4640 -0.4540  0.2267
  260MOL0     C34976  10.500   6.558   5.588  0.4896 -0.2115  0.3013
  260MOL0     C34977  10.515   6.568   5.741 -0.8913  0.8607  0.5226
  260MOL0     C34978  10.658   6.550   5.785 -0.3826 -0.3931 -0.1540
  260MOL0     C34979  10.763   6.657   5.744 -0.1904  0.2172 -0.7590
  260MOL0     C34980  10.911   6.607   5.782 -0.5477  0.0484  0.2815
  260MOL0     C34981  10.977   6.500   5.695 -0.1560  0.0382  0.1947
  260MOL0     N34982  11.118   6.504   5.716 -0.4105 -0.1663  0.0372
  260MOL0     C34983  11.184   6.516   5.843 -0.2284  0.1299  0.4798
  260MOL0     C34984  11.318   6.524   5.805  0.0550  0.1807 -0.2801
  260MOL0     C34985  11.423   6.532   5.901  0.2878 -0.2860 -0.4114
  260MOL0     C34986  11.531   6.423   5.894  0.0118 -0.2111 -0.4952
  260MOL0     C34987  11.635   6.447   6.001  0.5708  0.2966 -0.3676
  260MOL0     C34988  11.774   6.395   5.984  0.2718 -0.3352 -0.1900
  260MOL0     O34989  11.827   6.451   5.870 -0.2382 -0.4716  0.7854
  260MOL0     C34990  11.967   6.462   5.865  0.9177 -1.1513  0.1524
  260MOL0     C34991  12.011   6.587   5.812  0.5454  0.4870  0.2007
  260MOL0     C34992  12.142   6.610   5.800 -0.5055 -0.0367  0.3384
  260MOL0     C34993  12.235   6.524   5.864  0.4654 -0.4174  0.1624
  260MOL0     C34994  12.375   6.550   5.867  0.7764  0.5521  0.0814
  260MOL0     O34995  12.429   6.592   5.751  0.4805  0.3757  0.0322
  260MOL0     C34996  12.561   6.606   5.752  0.1228 -0.3880  0.4676
  260MOL0     C34997  12.619   6.726   5.721 -0.2476 -1.1547 -0.4368
  260MOL0     C34998  12.757   6.745   5.735 -0.3927 -0.9819 -0.2301
  260MOL0     C34999  12.835   6.632   5.771 -0.5113  0.9535 -0.2575
  260MOL0     O35000  12.971   6.622   5.782  0.3839 -0.1074 -0.1283
  260MOL0     C35001  13.055   6.732   5.738  0.5448 -0.5293  0.0267
  260MOL0     C35002  13.200   6.682   5.743 -0.2972  0.1597  0.2747
  260MOL0     C35003  13.284   6.790   5.683  0.0159  0.4887 -0.1896
  260MOL0     C35004  13.431   6.746   5.677  0.3262 -0.0689 -0.1544
  260MOL0     C35005  13.537   6.848   5.657  0.7117  0.9170  0.3331
  260MOL0     C35006  13.677   6.796   5.686 -0.3110 -0.0165  0.0027
  260MOL0     C35007  13.781   6.908   5.667 -0.6710  0.0248 -0.2419
  260MOL0     C35008  13.920   6.847   5.701  0.9396  0.4920 -0.2170
  260MOL0    Cl35009  13.990   6.743   5.573  0.2850  0.0446  0.1938
  260MOL0     C35010  12.773   6.509   5.799 -0.2710 -0.5688  0.4495
  260MOL0     C35011  12.636   6.495   5.784 -0.7362  0.2590 -0.5149
  260MOL0     O35012  12.435   6.525   5.975  0.3459  0.1240 -0.0082
  260MOL0     C35013  12.192   6.406   5.921  0.9334  0.3263  0.7196
  260MOL0     C35014  12.060   6.369   5.908 -0.0502  0.3033  0.1115
  260MOL0     N35015  11.333   6.515   5.665  0.0758 -1.0349  0.0114
  260MOL0     N35016  11.213   6.509   5.619 -0.3199 -0.6653  0.0791
  260MOL0     C35017   9.965   6.801   5.408  0.8757 -0.5011  0.7935
  260MOL0     C35018   9.833   6.823   5.426 -0.1544  0.6469 -0.4752
  260MOL0     C35019   9.411   6.803   5.453 -1.0321  0.9225  0.2683
  260MOL0     C35020   9.301   6.722   5.437 -0.3944  0.0321  0.2484
  260MOL0     C35021   9.177   6.769   5.410 -0.4808 -0.4126  0.0578
  260MOL0     C35022   9.152   6.907   5.406 -0.0274  0.0051 -0.2310
  260MOL0     O35023   9.020   6.952   5.395  0.7212  0.0821  0.2014
  260MOL0     C35024   8.993   7.093   5.386 -0.4660  0.0844  0.7948
  260MOL0     C35025   8.854   7.097   5.411  0.0691 -0.9187 -0.5909
  260MOL0     C35026   8.760   7.052   5.308 -0.1382 -0.8652 -0.1452
  260MOL0     C35027   8.614   7.082   5.319 -0.0891  0.3155  0.1212
  260MOL0     C35028   8.586   7.216   5.286  0.1747  0.6990  0.4143
  260MOL0     C35029   8.573   7.331   5.244  0.4215 -0.6721 -0.2750
  260MOL0     C35030   9.268   6.989   5.423 -0.1079  0.5183 -0.1559
  260MOL0     C35031   9.401   6.943   5.442 -0.6597 -0.2094  0.6379
  260MOL0     C35032   9.520   7.040   5.450  0.0115 -0.0874  0.6751
  260MOL0     H35033   9.769   6.621   5.678 -1.4876  2.4577  0.7413
  260MOL0     H35034  10.008   6.536   5.616 -0.2282 -1.7624 -1.2025
  260MOL0     H35035  10.309   6.759   5.560  0.1484 -0.7539 -1.4126
  260MOL0     H35036  10.209   6.657   5.666  1.7940 -0.3428  1.8358
  260MOL0     H35037  10.362   6.539   5.429 -2.9885  3.3421 -0.4331
  260MOL0     H35038  10.324   6.455   5.584  2.9209 -1.3221  0.4901
  260MOL0     H35039  10.564   6.633   5.542  1.5851 -1.2620  0.0484
  260MOL0     H35040  10.545   6.464   5.554  1.1441 -0.0887  0.7953
  260MOL0     H35041  10.475   6.664   5.773  2.3942  2.2473  0.8372
  260MOL0     H35042  10.453   6.483   5.772  0.2931 -0.4393 -0.4883
  260MOL0     H35043  10.664   6.542   5.894 -0.3519 -0.2874 -0.1486
  260MOL0     H35044  10.689   6.457   5.736 -2.8147 -1.6642  0.5456
  260MOL0     H35045  10.759   6.663   5.635 -0.6815 -2.3359 -0.9493
  260MOL0     H35046  10.739   6.747   5.802 -0.3217 -0.6173  0.5318
  260MOL0     H35047  10.915   6.580   5.888  0.7001  0.6017  0.3915
  260MOL0     H35048  10.978   6.693   5.774  1.3630 -1.1673  2.0800
  260MOL0     H35049  10.945   6.398   5.715 -2.3080  0.2235 -1.8910
  260MOL0     H35050  10.951   6.527   5.592 -1.7714  1.7564  0.9917
  260MOL0     H35051  11.132   6.502   5.938 -1.5109  1.1858 -0.0392
  260MOL0     H35052  11.465   6.627   5.867  1.2011 -0.6085 -0.2245
  260MOL0     H35053  11.377   6.541   6.000 -1.1673 -1.4856 -0.9498
  260MOL0     H35054  11.498   6.319   5.896 -0.3038 -0.1779 -2.1807
  260MOL0     H35055  11.581   6.434   5.797  2.4343 -2.4778  0.3832
  260MOL0     H35056  11.591   6.395   6.086  0.5719  2.8879  1.3183
  260MOL0     H35057  11.635   6.554   6.026 -0.5624  0.1247  0.4224
  260MOL0     H35058  11.768   6.285   5.983  0.7178 -0.3602 -0.5456
  260MOL0     H35059  11.835   6.431   6.068  0.9031 -1.5753 -0.0781
  260MOL0     H35060  11.934   6.660   5.788  1.0135  0.7472 -0.5466
  260MOL0     H35061  12.166   6.703   5.750 -1.3544 -0.8114 -1.5735
  260MOL0     H35062  12.554   6.810   5.697 -0.1973 -1.3970 -1.4611
  260MOL0     H35063  12.800   6.840   5.705 -1.4622 -0.1586  0.7762
  260MOL0     H35064  13.018   6.766   5.641 -1.1606  1.1642  1.2004
  260MOL0     H35065  13.056   6.814   5.810  1.0556  2.0351 -2.6952
  260MOL0     H35066  13.224   6.672   5.849 -0.2636  2.5011  0.5394
  260MOL0     H35067  13.207   6.593   5.679 -0.5423  1.1988 -1.2664
  260MOL0     H35068  13.255   6.811   5.580  1.5175 -2.1856 -1.2628
  260MOL0     H35069  13.281   6.879   5.746  1.6960  1.6327 -1.6024
  260MOL0     H35070  13.444   6.666   5.603 -4.0343  0.7288 -2.1335
  260MOL0     H35071  13.458   6.702   5.773  4.0585  1.3245 -0.4203
  260MOL0     H35072  13.505   6.932   5.719 -2.4094 -0.5186  0.9089
  260MOL0     H35073  13.531   6.879   5.553 -0.7358 -0.9787 -0.2295
  260MOL0     H35074  13.682   6.760   5.789 -0.2796  0.5497  0.2024
  260MOL0     H35075  13.699   6.711   5.619 -2.6000 -0.1073 -0.7428
  260MOL0     H35076  13.774   6.993   5.735  0.0531 -0.2779  0.2206
  260MOL0     H35077  13.785   6.942   5.563  4.2984  2.7904  0.5298
  260MOL0     H35078  13.994   6.921   5.732 -0.3196  1.4050  0.7009
  260MOL0     H35079  13.896   6.786   5.789 -0.3853 -0.2622 -1.0623
  260MOL0     H35080  12.836   6.423   5.819  1.5624  0.7777  0.8074
  260MOL0     H35081  12.590   6.397   5.787 -0.4564  0.1297 -0.4094
  260MOL0     H35082  12.259   6.333   5.964  0.0252 -1.0164 -0.0747
  260MOL0     H35083  12.026   6.281   5.961  2.4406  0.8825  2.9500
  260MOL0     H35084  10.025   6.840   5.327  1.4522 -0.1164  1.3934
  260MOL0     H35085   9.780   6.891   5.360 -2.2726  0.6563  1.1265
  260MOL0     H35086   9.305   6.615   5.452 -0.8306 -0.2617 -1.5070
  260MOL0     H35087   9.093   6.705   5.383 -0.0886 -0.5333 -0.9074
  260MOL0     H35088   9.005   7.127   5.283 -2.2389  0.5880  0.7119
  260MOL0     H35089   9.040   7.155   5.463 -0.0938 -0.6272  1.1502
  260MOL0     H35090   8.834   7.204   5.422  3.5497 -0.2411  0.0937
  260MOL0     H35091   8.830   7.059   5.510  2.2896  0.7838  0.6856
  260MOL0     H35092   8.776   6.944   5.309 -0.8150 -0.9710 -0.3980
  260MOL0     H35093   8.786   7.080   5.206 -0.9330 -0.7240 -0.3189
  260MOL0     H35094   8.556   7.020   5.250 -1.0771  0.8443  0.4681
  260MOL0     H35095   8.591   7.059   5.423  1.6683  1.8073  0.9094
  260MOL0     H35096   8.570   7.435   5.221  1.0627 -0.2143  1.4964
  260MOL0     H35097   9.258   7.097   5.422  0.4924  0.5706 -0.9728
  260MOL0     H35098   9.548   7.044   5.555 -2.8560 -1.4063  1.5901
  260MOL0     H35099   9.598   6.999   5.385  0.0599 -2.6716  2.2231
  260MOL0     H35100   9.491   7.142   5.422 -2.7423 -1.1959 -0.9442
  261MOL0     O35101   0.364   9.139   5.926 -0.2638  0.6442 -0.1504
  261MOL0     C35102   0.375   9.137   6.045 -1.2081 -0.6580 -0.1663
  261MOL0     O35103   0.496   9.150   6.113 -0.3397 -0.5051  0.2607
  261MOL0     C35104   0.608   9.085   6.063  0.2498 -0.4059 -0.4205
  261MOL0     C35105   0.731   9.134   6.104 -0.6717 -0.0849  0.0721
  261MOL0     C35106   0.855   9.076   6.060  0.9235 -0.0350  0.0115
  261MOL0     C35107   0.860   8.969   5.972 -0.2478  0.1917  0.4973
  261MOL0     O35108   0.975   8.910   5.944 -0.0228 -0.6275  0.0672
  261MOL0     C35109   0.998   8.847   5.822  0.5889 -0.3288  0.8747
  261MOL0     C35110   1.145   8.804   5.794 -0.4203  0.5477  0.4195
  261MOL0     C35111   1.222   8.936   5.791 -0.3942  0.2946 -0.1428
  261MOL0     C35112   1.365   8.908   5.744 -0.0287 -0.6744  0.0960
  261MOL0     C35113   1.462   9.024   5.749  0.2474 -1.5183 -0.4085
  261MOL0     C35114   1.599   8.985   5.698 -0.1501  0.2727  0.3158
  261MOL0     C35115   1.708   9.088   5.712  0.5906 -0.4353 -0.0335
  261MOL0     C35116   1.832   9.035   5.646  0.1321  0.4250  0.4857
  261MOL0     N35117   1.920   9.152   5.630  0.7302 -0.0291  0.0657
  261MOL0     C35118   1.988   9.217   5.731  0.3620  0.3737 -0.7646
  261MOL0     C35119   2.054   9.322   5.674  0.1544  0.1266 -0.6478
  261MOL0     C35120   2.143   9.417   5.734 -0.7618 -0.2655  0.2211
  261MOL0     C35121   2.280   9.370   5.796 -0.0303 -0.5411 -0.2071
  261MOL0     C35122   2.357   9.484   5.863  0.0419  0.1482 -0.2177
  261MOL0     C35123   2.494   9.429   5.904  1.0035  0.5178  0.2439
  261MOL0     O35124   2.558   9.374   5.789 -0.2828  0.2670  0.2109
  261MOL0     C35125   2.689   9.353   5.796 -0.7848 -0.6771  0.4723
  261MOL0     C35126   2.785   9.456   5.827  0.2583  0.4132 -0.1793
  261MOL0     C35127   2.923   9.432   5.832  0.9723  0.3884  1.0272
  261MOL0     C35128   2.970   9.306   5.795 -0.0969 -1.0723  0.0325
  261MOL0     C35129   3.116   9.279   5.811 -0.0299 -1.2941 -0.5657
  261MOL0     O35130   3.184   9.354   5.904  0.4074 -0.3057  0.0413
  261MOL0     C35131   3.309   9.314   5.947  1.1296 -0.0710 -0.0063
  261MOL0     C35132   3.336   9.177   5.971  0.4190  0.4567 -0.0972
  261MOL0     C35133   3.457   9.143   6.024  0.7261 -0.0988  0.2034
  261MOL0     C35134   3.555   9.237   6.061  0.0253  0.1372  0.7714
  261MOL0     O35135   3.677   9.209   6.108  0.4339 -0.8826  0.4584
  261MOL0     C35136   3.753   9.122   6.024  0.6486 -1.3636  0.1717
  261MOL0     C35137   3.894   9.132   6.063 -1.4074 -0.1152  0.1478
  261MOL0     C35138   3.980   9.028   5.988  0.5152  0.0548 -0.1036
  261MOL0     C35139   4.097   8.986   6.076  0.2934 -0.8422  0.1115
  261MOL0     C35140   4.191   8.880   6.020  0.4530 -0.2683  0.1640
  261MOL0     C35141   4.120   8.762   5.940 -0.3828 -0.2598 -0.0413
  261MOL0     C35142   4.218   8.656   5.901 -0.1547  0.0905 -0.1629
  261MOL0     C35143   4.151   8.535   5.830  0.7487 -0.1974  0.1171
  261MOL0    Cl35144   4.029   8.451   5.934  0.4455  0.0112 -0.3346
  261MOL0     C35145   3.519   9.371   6.043  0.0578  0.3936  0.2806
  261MOL0     C35146   3.402   9.416   5.973  0.0625  0.6318 -0.0301
  261MOL0     O35147   3.164   9.187   5.748 -0.1947 -0.4995 -0.0791
  261MOL0     C35148   2.875   9.208   5.763 -0.6320 -0.0076 -0.2448
  261MOL0     C35149   2.738   9.229   5.758 -0.3603 -0.5101  0.4180
  261MOL0     N35150   2.011   9.330   5.540  0.0253  0.1061  0.2968
  261MOL0     N35151   1.939   9.228   5.518  0.7435  0.3243 -0.4509
  261MOL0     C35152   0.732   8.922   5.932  0.6491  0.6901  0.1697
  261MOL0     C35153   0.607   8.983   5.976 -0.0885 -0.2336  0.8145
  261MOL0     C35154   0.254   9.129   6.129  0.1001 -0.6149  0.8381
  261MOL0     C35155   0.249   9.202   6.244  0.1576  0.2060  0.0534
  261MOL0     C35156   0.129   9.221   6.308 -0.1142  0.1977 -0.1026
  261MOL0     C35157   0.005   9.165   6.256  0.0448 -0.1569  0.0154
  261MOL0     O35158  -0.117   9.175   6.310 -0.6814 -0.1158 -0.2910
  261MOL0     C35159  -0.131   9.297   6.381  0.6035  0.3130  0.3924
  261MOL0     C35160  -0.284   9.312   6.419  0.7374  0.2532  0.1316
  261MOL0     C35161  -0.338   9.198   6.501  0.5544  0.0589 -0.4083
  261MOL0     C35162  -0.477   9.220   6.563  0.1163 -0.1455  0.3173
  261MOL0     C35163  -0.501   9.102   6.649  0.4671  0.8035 -0.3193
  261MOL0     C35164  -0.530   9.013   6.723  0.4268 -0.6216 -0.1876
  261MOL0     C35165   0.010   9.082   6.139  0.6867 -0.7407  0.0513
  261MOL0     C35166   0.137   9.065   6.082  0.0733 -0.3581  0.5017
  261MOL0     C35167   0.129   8.983   5.955 -0.2939  0.6719 -0.1191
  261MOL0     H35168   0.734   9.204   6.188 -0.6630 -0.4880  0.4106
  261MOL0     H35169   0.949   9.104   6.106  0.6961  0.0065  0.4624
  261MOL0     H35170   0.952   8.748   5.827  1.8048 -0.9350  0.4423
  261MOL0     H35171   0.957   8.899   5.735  1.6031  0.0734  0.6201
  261MOL0     H35172   1.146   8.742   5.704  2.6003  0.9792  0.0376
  261MOL0     H35173   1.175   8.742   5.879  1.3401  1.2927  0.3924
  261MOL0     H35174   1.232   8.983   5.889 -0.6034  0.5239 -0.2312
  261MOL0     H35175   1.179   9.004   5.716 -1.7394  1.2829  1.4464
  261MOL0     H35176   1.397   8.826   5.810 -2.6975 -1.0978  0.9919
  261MOL0     H35177   1.367   8.874   5.640  1.5594 -2.1588  0.5437
  261MOL0     H35178   1.419   9.110   5.698  0.7746 -1.4553 -0.7562
  261MOL0     H35179   1.468   9.041   5.857  1.9440 -0.9115 -0.5757
  261MOL0     H35180   1.640   8.898   5.749  2.8214  2.1993  1.4383
  261MOL0     H35181   1.603   8.952   5.593  2.0240  0.7550  0.1982
  261MOL0     H35182   1.723   9.098   5.820  0.4524  1.0166 -0.1276
  261MOL0     H35183   1.683   9.185   5.668  1.6792 -0.6416 -1.1742
  261MOL0     H35184   1.881   8.947   5.689  2.4921  0.6920 -1.4504
  261MOL0     H35185   1.801   9.015   5.543 -1.9981 -0.4769  1.2273
  261MOL0     H35186   1.991   9.183   5.834  0.2425 -1.8242 -1.4316
  261MOL0     H35187   2.174   9.492   5.660  2.0006  0.0670  1.5840
  261MOL0     H35188   2.098   9.467   5.820 -0.1862 -0.4076  0.6141
  261MOL0     H35189   2.271   9.280   5.858 -2.9584 -1.7146 -2.1489
  261MOL0     H35190   2.338   9.335   5.710  0.2332 -0.4797 -0.0584
  261MOL0     H35191   2.306   9.505   5.957 -0.0126  1.1301 -0.4561
  261MOL0     H35192   2.373   9.572   5.800  0.1050  1.2785  1.3380
  261MOL0     H35193   2.484   9.354   5.983  1.6799 -0.8992 -0.9818
  261MOL0     H35194   2.553   9.511   5.946  1.1018  0.5902 -0.0377
  261MOL0     H35195   2.751   9.550   5.869  0.1200 -0.9907  3.1603
  261MOL0     H35196   2.993   9.506   5.868  1.7313 -0.8936  2.2696
  261MOL0     H35197   3.256   9.104   5.966  1.1120 -0.5657  2.2312
  261MOL0     H35198   3.481   9.038   6.034  1.3408 -0.1434 -1.3507
  261MOL0     H35199   3.725   9.021   6.056  1.6416 -0.8301  2.9474
  261MOL0     H35200   3.746   9.149   5.918  1.5036  1.6642  0.8046
  261MOL0     H35201   3.936   9.230   6.037 -2.5241  0.5799  0.8993
  261MOL0     H35202   3.908   9.134   6.171  0.0568  0.4284 -0.0220
  261MOL0     H35203   3.917   8.939   5.973 -0.4740  0.7362 -0.0785
  261MOL0     H35204   4.002   9.061   5.886  0.3160 -2.3344 -0.9833
  261MOL0     H35205   4.044   8.943   6.161  0.2296 -2.4888 -0.7265
  261MOL0     H35206   4.163   9.070   6.101  1.6152 -1.7599 -0.1792
  261MOL0     H35207   4.264   8.842   6.092  1.5794 -0.0801 -0.8527
  261MOL0     H35208   4.256   8.929   5.947  0.5970 -1.2599 -0.3936
  261MOL0     H35209   4.047   8.713   6.006 -0.1962 -1.7061 -0.8736
  261MOL0     H35210   4.068   8.799   5.852  2.4374  0.2885 -1.5970
  261MOL0     H35211   4.251   8.622   6.000  2.9389 -2.0964 -1.7691
  261MOL0     H35212   4.298   8.697   5.839 -2.5138  0.8440 -2.9246
  261MOL0     H35213   4.097   8.579   5.745 -0.6258  0.2683  1.2084
  261MOL0     H35214   4.222   8.459   5.797  0.1378 -0.7292  0.0310
  261MOL0     H35215   3.598   9.439   6.076  1.5111 -0.8788 -0.4785
  261MOL0     H35216   3.382   9.520   5.949 -0.1030  0.2929 -1.4313
  261MOL0     H35217   2.903   9.107   5.735 -1.0221 -1.0661  2.7661
  261MOL0     H35218   2.669   9.150   5.728  1.6402 -0.9717 -3.6740
  261MOL0     H35219   0.713   8.828   5.880 -0.3887 -0.5698  2.6501
  261MOL0     H35220   0.511   8.936   5.957  0.1363  0.3983 -2.5299
  261MOL0     H35221   0.339   9.254   6.275  1.1229 -1.3219 -0.0436
  261MOL0     H35222   0.145   9.275   6.401 -0.7727  0.8908 -0.3778
  261MOL0     H35223  -0.108   9.382   6.316  1.7917 -0.4704 -0.2657
  261MOL0     H35224  -0.063   9.299   6.466  1.2585 -1.1223 -0.0654
  261MOL0     H35225  -0.345   9.338   6.332  0.8102 -1.5693 -0.4996
  261MOL0     H35226  -0.289   9.395   6.490 -0.1919 -0.5415  1.0260
  261MOL0     H35227  -0.259   9.169   6.570  0.0575 -0.6535 -0.1216
  261MOL0     H35228  -0.349   9.117   6.428  0.5826 -0.7179  0.4271
  261MOL0     H35229  -0.463   9.306   6.630  0.7680  0.6713 -0.8391
  261MOL0     H35230  -0.554   9.234   6.487 -0.3897  2.1607  1.1599
  261MOL0     H35231  -0.564   8.932   6.784  0.9412  0.4243  1.5770
  261MOL0     H35232  -0.084   9.039   6.105 -0.5248  1.6411  0.1390
  261MOL0     H35233   0.092   9.038   5.868  0.5005  1.6087  0.1255
  261MOL0     H35234   0.229   8.946   5.931 -0.7926 -1.7328  1.1180
  261MOL0     H35235   0.058   8.903   5.979 -1.4318  2.1577  1.7657
  262MOL0     O35236   8.166   5.791   0.456  0.0231  0.0298 -0.0737
  262MOL0     C35237   8.070   5.843   0.399  0.2994 -0.8285  0.2276
  262MOL0     O35238   8.068   5.966   0.323 -0.2084  0.0994 -0.0314
  262MOL0     C35239   8.184   6.040   0.311  0.6087 -0.5341 -0.5823
  262MOL0     C35240   8.257   6.071   0.427 -0.1985  0.7750  0.8796
  262MOL0     C35241   8.390   6.128   0.407  0.6613 -0.1261 -0.6069
  262MOL0     C35242   8.439   6.160   0.282  1.2778  0.0338  0.0244
  262MOL0     O35243   8.569   6.203   0.271  0.2938 -0.3589 -0.1504
  262MOL0     C35244   8.583   6.334   0.210 -0.2467  0.2150  0.1541
  262MOL0     C35245   8.724   6.368   0.186 -1.4181 -0.2260 -0.5077
  262MOL0     C35246   8.810   6.278   0.097  0.8287 -0.0155  0.8574
  262MOL0     C35247   8.917   6.207   0.178 -0.2051  0.1276 -0.9331
  262MOL0     C35248   9.048   6.293   0.174  0.1144  0.4510 -0.0765
  262MOL0     C35249   9.163   6.209   0.231  0.3554  0.4037  0.6148
  262MOL0     C35250   9.294   6.286   0.245  0.1624  0.8337 -0.3924
  262MOL0     C35251   9.369   6.316   0.118 -0.0438  0.2599  0.5976
  262MOL0     N35252   9.436   6.190   0.065  1.4004 -0.5547  1.1373
  262MOL0     C35253   9.512   6.103   0.131 -0.2483  0.1641 -0.2424
  262MOL0     C35254   9.555   6.019   0.042 -0.0084 -0.8682  0.8687
  262MOL0     C35255   9.636   5.900   0.060  0.2697 -0.7886 -0.6904
  262MOL0     C35256   9.605   5.787  -0.039 -0.6460 -0.7138 -0.2939
  262MOL0     C35257   9.701   5.673  -0.035  0.1960  0.6331 -0.6493
  262MOL0     C35258   9.700   5.597   0.097  0.0805 -0.3603  0.5797
  262MOL0     O35259   9.794   5.489   0.085 -0.1017  0.8053 -0.1458
  262MOL0     C35260   9.905   5.515   0.161  0.2284  0.2221  0.1557
  262MOL0     C35261   9.975   5.630   0.171 -0.2669  0.1132 -1.1950
  262MOL0     C35262  10.089   5.647   0.247  0.0065  0.6536 -0.1619
  262MOL0     C35263  10.145   5.534   0.304  0.0600 -0.0405 -1.2043
  262MOL0     C35264  10.271   5.544   0.395  0.1204 -0.3292 -0.0834
  262MOL0     O35265  10.306   5.669   0.438 -0.4288 -0.4464 -0.6217
  262MOL0     C35266  10.416   5.680   0.517 -0.5558  0.2577  0.7730
  262MOL0     C35267  10.535   5.720   0.453  0.4782 -0.3051  0.2658
  262MOL0     C35268  10.652   5.749   0.518 -0.1570  0.6903  0.2625
  262MOL0     C35269  10.649   5.747   0.661 -0.4373  0.8779  0.5817
  262MOL0     O35270  10.752   5.787   0.735  0.3626 -0.0921 -0.0784
  262MOL0     C35271  10.821   5.912   0.690  0.3861  0.1630  0.2637
  262MOL0     C35272  10.918   5.947   0.795 -0.0334  0.3056 -0.5421
  262MOL0     C35273  10.992   6.080   0.776  0.6834 -0.1348 -0.1762
  262MOL0     C35274  11.137   6.080   0.847  0.7112  0.0085 -0.2922
  262MOL0     C35275  11.207   6.208   0.805 -0.4613  0.3417  0.0248
  262MOL0     C35276  11.347   6.208   0.885  0.3643 -0.0165 -0.0482
  262MOL0     C35277  11.347   6.201   1.042 -0.4915  0.0249  0.6462
  262MOL0     C35278  11.356   6.335   1.116 -0.3221 -0.0096  0.0467
  262MOL0    Cl35279  11.365   6.304   1.284  0.1472 -0.0820 -0.6807
  262MOL0     C35280  10.529   5.713   0.728  0.2351  0.2595  0.5240
  262MOL0     C35281  10.414   5.665   0.654 -0.0162 -0.4158 -0.4782
  262MOL0     O35282  10.327   5.440   0.416  0.5325  0.3788  0.4410
  262MOL0     C35283  10.088   5.412   0.274 -0.7496 -0.1101  0.5296
  262MOL0     C35284   9.966   5.403   0.207 -0.2931 -0.7869 -0.8791
  262MOL0     N35285   9.510   6.067  -0.083  0.3014 -0.4111 -0.2347
  262MOL0     N35286   9.439   6.169  -0.070  0.4450 -0.1445  0.3761
  262MOL0     C35287   8.356   6.139   0.169  0.1837 -0.0494 -0.3325
  262MOL0     C35288   8.234   6.080   0.184  0.2762 -0.8630 -1.0543
  262MOL0     C35289   7.947   5.763   0.376 -0.9726 -0.5704 -0.5546
  262MOL0     C35290   7.841   5.831   0.303  0.3835 -0.6727 -1.0152
  262MOL0     C35291   7.715   5.777   0.294 -0.3037  1.3165 -0.0258
  262MOL0     C35292   7.682   5.651   0.352 -0.2833 -0.1104 -0.1890
  262MOL0     O35293   7.553   5.606   0.346 -0.3489 -0.3271  0.1338
  262MOL0     C35294   7.511   5.490   0.421 -0.0859  0.3135  0.5776
  262MOL0     C35295   7.370   5.442   0.370 -0.2208  0.0190  0.0697
  262MOL0     C35296   7.272   5.547   0.402 -0.2790  0.5329  0.0649
  262MOL0     C35297   7.133   5.498   0.424 -0.2223  0.7262  0.2919
  262MOL0     C35298   7.053   5.604   0.484  0.2722 -0.3948 -0.9834
  262MOL0     C35299   6.977   5.692   0.519 -0.4408  0.1852 -0.2154
  262MOL0     C35300   7.787   5.580   0.404 -0.0044  0.0867 -0.4670
  262MOL0     C35301   7.914   5.636   0.428 -0.2963  0.2430  0.5926
  262MOL0     C35302   8.010   5.537   0.495 -0.7694  0.0906  0.1198
  262MOL0     H35303   8.225   6.054   0.529  1.6841 -1.8888  1.1135
  262MOL0     H35304   8.446   6.142   0.499 -4.0951  2.8314  2.2616
  262MOL0     H35305   8.528   6.346   0.116 -0.6014 -0.0121  0.3291
  262MOL0     H35306   8.540   6.405   0.281  1.5250 -0.0938  1.6020
  262MOL0     H35307   8.771   6.367   0.285  1.3475 -2.1826 -1.7139
  262MOL0     H35308   8.720   6.467   0.139 -0.7952  0.0094 -0.0726
  262MOL0     H35309   8.857   6.340   0.020 -0.2678 -2.5020 -2.0396
  262MOL0     H35310   8.741   6.215   0.038  0.8675  1.0134 -0.3279
  262MOL0     H35311   8.897   6.199   0.285 -0.5463 -0.0948 -1.0085
  262MOL0     H35312   8.932   6.107   0.134 -0.1323 -1.5367  2.5234
  262MOL0     H35313   9.072   6.328   0.073 -0.0671  2.1293  0.4262
  262MOL0     H35314   9.034   6.380   0.238 -1.0991  0.3629 -0.2144
  262MOL0     H35315   9.120   6.180   0.327  0.6675  0.4301  0.7636
  262MOL0     H35316   9.178   6.119   0.171  0.7868  1.0802 -0.3169
  262MOL0     H35317   9.355   6.228   0.314 -0.0599 -0.5748 -1.3247
  262MOL0     H35318   9.291   6.378   0.304  1.8716  0.6363  0.0550
  262MOL0     H35319   9.315   6.376   0.044  1.0260  0.4145 -0.0809
  262MOL0     H35320   9.450   6.384   0.147  0.4475  0.2383 -0.6839
  262MOL0     H35321   9.516   6.090   0.239 -0.5267  3.8873  0.3232
  262MOL0     H35322   9.742   5.925   0.049  0.2668  0.1798  1.0551
  262MOL0     H35323   9.615   5.861   0.161  0.9541 -1.8537 -0.9396
  262MOL0     H35324   9.502   5.753  -0.024 -2.0701  2.6502 -1.6126
  262MOL0     H35325   9.612   5.822  -0.142 -1.7048 -2.5889 -1.0713
  262MOL0     H35326   9.802   5.710  -0.055  0.0878  2.7164  2.1283
  262MOL0     H35327   9.678   5.605  -0.117  0.0056  0.4576 -0.4524
  262MOL0     H35328   9.603   5.547   0.112  0.5624 -1.4699  0.0753
  262MOL0     H35329   9.718   5.668   0.179  0.8781 -0.6204  0.6371
  262MOL0     H35330   9.927   5.711   0.117  0.4247  0.9245 -0.6196
  262MOL0     H35331  10.127   5.746   0.269  0.1051  0.6846 -0.4643
  262MOL0     H35332  10.531   5.717   0.344 -2.7277 -4.5446  0.2301
  262MOL0     H35333  10.734   5.778   0.453 -2.7371  2.0314 -2.6532
  262MOL0     H35334  10.871   5.903   0.593 -2.6463  0.3142 -1.4208
  262MOL0     H35335  10.750   5.994   0.677 -0.6036 -0.5687  0.9734
  262MOL0     H35336  10.868   5.947   0.892 -0.4547  0.3842 -0.7600
  262MOL0     H35337  10.997   5.871   0.795  0.6558  0.9392  1.8245
  262MOL0     H35338  11.010   6.100   0.670  1.0876  0.0576 -0.0745
  262MOL0     H35339  10.929   6.149   0.833  0.1616 -0.7664  0.0291
  262MOL0     H35340  11.199   6.003   0.800 -0.6011  0.0350 -2.1926
  262MOL0     H35341  11.127   6.070   0.956 -2.6052 -0.6754 -0.5684
  262MOL0     H35342  11.144   6.290   0.841  0.8640  1.3113  0.2441
  262MOL0     H35343  11.212   6.221   0.697  0.8871  2.0458  0.2391
  262MOL0     H35344  11.408   6.127   0.844 -1.2978 -0.2434 -2.2834
  262MOL0     H35345  11.387   6.306   0.860 -0.5619  0.0742 -1.3136
  262MOL0     H35346  11.428   6.132   1.066 -1.7722 -1.8285 -0.1446
  262MOL0     H35347  11.263   6.141   1.078  0.9133 -0.9861  2.4000
  262MOL0     H35348  11.452   6.375   1.085  0.5122 -1.7606  0.2309
  262MOL0     H35349  11.269   6.401   1.104 -0.7405 -0.4048  0.8117
  262MOL0     H35350  10.529   5.716   0.836 -2.9158 -3.8942  0.8965
  262MOL0     H35351  10.326   5.628   0.706 -0.4620 -1.2035 -1.7417
  262MOL0     H35352  10.142   5.326   0.313  0.8617  2.5772  5.0334
  262MOL0     H35353   9.919   5.308   0.189  0.3441 -1.6914  1.7983
  262MOL0     H35354   8.392   6.172   0.072  0.5413 -1.0594 -0.5587
  262MOL0     H35355   8.175   6.074   0.093 -1.2199  0.3164 -0.2205
  262MOL0     H35356   7.859   5.930   0.263 -0.0932  0.4063  1.2691
  262MOL0     H35357   7.638   5.826   0.234 -0.7102  0.4289 -0.2532
  262MOL0     H35358   7.507   5.509   0.529  0.0963  1.5528  0.3777
  262MOL0     H35359   7.576   5.407   0.391  0.9078  0.6478  1.7208
  262MOL0     H35360   7.341   5.345   0.411 -0.5339 -1.1096 -2.6047
  262MOL0     H35361   7.371   5.423   0.262 -1.0428  0.4435 -0.0240
  262MOL0     H35362   7.279   5.620   0.321  0.0497  3.3600  2.4979
  262MOL0     H35363   7.308   5.593   0.494  1.6828  1.0337 -0.8968
  262MOL0     H35364   7.092   5.477   0.325  0.7299  1.3227 -0.2457
  262MOL0     H35365   7.123   5.406   0.484 -0.1370 -0.4569 -1.4331
  262MOL0     H35366   6.909   5.774   0.530 -0.6651  0.5578 -3.3795
  262MOL0     H35367   7.760   5.485   0.448 -1.7633  0.7972  0.0794
  262MOL0     H35368   8.062   5.588   0.577  0.3343 -1.3541  0.3569
  262MOL0     H35369   7.950   5.463   0.550 -0.3513 -0.4029 -0.0835
  262MOL0     H35370   8.093   5.500   0.435  0.2717 -0.4708  1.8484
  263MOL0     O35371   3.037   8.003   0.998 -0.6654  0.6554  0.8651
  263MOL0     C35372   3.038   7.953   1.107 -0.0711 -0.1915  0.6449
  263MOL0     O35373   3.152   7.897   1.162 -0.2758  0.1715  0.2671
  263MOL0     C35374   3.273   7.918   1.099 -0.7345 -0.5369  0.0382
  263MOL0     C35375   3.339   8.046   1.109  0.1401 -0.6006 -0.2354
  263MOL0     C35376   3.467   8.075   1.060  0.6419  0.3974 -0.4697
  263MOL0     C35377   3.542   7.968   0.998  1.0462 -0.3103  0.4647
  263MOL0     O35378   3.673   7.984   0.962 -0.5164 -0.2824  0.5782
  263MOL0     C35379   3.763   8.066   1.039 -0.6363  0.0021 -0.9185
  263MOL0     C35380   3.899   8.090   0.965  0.4150 -0.0806 -0.6682
  263MOL0     C35381   3.988   7.970   0.961 -1.0590 -0.2298 -0.1402
  263MOL0     C35382   4.131   8.018   0.913  0.1408  0.2251 -0.1960
  263MOL0     C35383   4.243   7.925   0.958  0.0298  0.8053  0.0297
  263MOL0     C35384   4.384   7.965   0.925 -0.3577 -0.4166  0.3188
  263MOL0     C35385   4.412   7.931   0.779  0.4863  0.8121  0.5040
  263MOL0     C35386   4.555   7.970   0.739 -0.8110  0.0837  0.5721
  263MOL0     N35387   4.666   7.907   0.816  0.4290  0.0439  0.1951
  263MOL0     C35388   4.705   7.779   0.808  0.0520  0.4265  0.6174
  263MOL0     C35389   4.825   7.764   0.881  0.3882  0.6207 -0.5026
  263MOL0     C35390   4.918   7.649   0.910 -0.3780  0.1002 -0.5199
  263MOL0     C35391   4.849   7.513   0.893 -0.2951 -0.5559 -0.3408
  263MOL0     C35392   4.939   7.401   0.923 -0.7048 -0.0436  0.2551
  263MOL0     C35393   5.024   7.363   0.799  0.1913  0.0094 -0.9482
  263MOL0     O35394   5.127   7.464   0.773 -0.4847 -0.0881  0.2583
  263MOL0     C35395   5.235   7.449   0.857  0.0944  1.0575 -0.0181
  263MOL0     C35396   5.322   7.346   0.848 -0.6302 -0.3137  0.2615
  263MOL0     C35397   5.440   7.360   0.918  0.3031  0.4063 -0.9392
  263MOL0     C35398   5.470   7.456   1.011 -0.3706 -0.4434 -0.8707
  263MOL0     C35399   5.584   7.456   1.096 -0.0585  0.4004  0.4527
  263MOL0     O35400   5.649   7.344   1.100  0.2743  0.4201  0.1828
  263MOL0     C35401   5.738   7.327   1.195  0.5697 -0.4333  0.6751
  263MOL0     C35402   5.689   7.315   1.328 -0.8831  0.4275  0.0483
  263MOL0     C35403   5.781   7.309   1.432  0.4299  0.3989  0.9310
  263MOL0     C35404   5.920   7.310   1.406  0.6574 -0.5533  0.5227
  263MOL0     O35405   6.015   7.288   1.502 -0.5398 -0.3928  0.0372
  263MOL0     C35406   5.975   7.318   1.636 -0.2617  0.7694  0.2461
  263MOL0     C35407   6.087   7.349   1.734  0.1721  0.2038  0.0139
  263MOL0     C35408   6.158   7.217   1.755 -0.0091 -0.5584  0.0186
  263MOL0     C35409   6.290   7.239   1.824  0.3169  0.4406 -0.7553
  263MOL0     C35410   6.358   7.104   1.828  0.2771  0.4520  0.2537
  263MOL0     C35411   6.486   7.113   1.909 -0.5472 -0.2924 -0.0067
  263MOL0     C35412   6.549   6.969   1.914  0.7914 -0.6017 -0.3820
  263MOL0     C35413   6.661   6.944   1.818  0.3779 -0.0789  0.2968
  263MOL0    Cl35414   6.807   7.031   1.865 -0.1857 -0.1721 -0.3767
  263MOL0     C35415   5.972   7.328   1.271  0.4854  0.1779 -0.2474
  263MOL0     C35416   5.877   7.332   1.165 -0.5622 -1.4573  0.6488
  263MOL0     O35417   5.603   7.553   1.162 -0.0348 -0.5925 -0.2490
  263MOL0     C35418   5.367   7.552   1.034  0.0962 -0.3663 -0.1941
  263MOL0     C35419   5.252   7.551   0.954 -0.9609 -0.3603 -0.6878
  263MOL0     N35420   4.854   7.894   0.935  0.7185  0.0625 -0.1062
  263MOL0     N35421   4.756   7.973   0.889 -0.6102 -0.3383  0.3718
  263MOL0     C35422   3.477   7.841   0.974  0.1704  0.0159 -0.0274
  263MOL0     C35423   3.344   7.818   1.024 -0.4705 -0.2654 -0.6676
  263MOL0     C35424   2.916   7.960   1.192 -0.8542 -0.1049 -0.6176
  263MOL0     C35425   2.936   7.972   1.331 -0.0356  0.4733  0.1179
  263MOL0     C35426   2.821   7.994   1.408  0.1386  0.7579  0.2432
  263MOL0     C35427   2.690   8.013   1.358  0.4453 -0.6307  0.7806
  263MOL0     O35428   2.580   8.045   1.437 -0.0101 -0.1528 -0.2578
  263MOL0     C35429   2.588   8.032   1.578  0.4144  0.0264  0.2309
  263MOL0     C35430   2.455   8.076   1.624 -0.4366 -0.1879  0.4007
  263MOL0     C35431   2.465   8.116   1.772 -0.1205  0.0048  1.0365
  263MOL0     C35432   2.329   8.166   1.817  0.0677  0.2029 -0.1935
  263MOL0     C35433   2.238   8.048   1.830 -0.1170  0.1355  0.5324
  263MOL0     C35434   2.161   7.956   1.832 -0.5417  0.5888 -0.1802
  263MOL0     C35435   2.676   7.992   1.225  0.0156  0.7513  0.1939
  263MOL0     C35436   2.785   7.967   1.135 -0.4752  0.6394 -0.8424
  263MOL0     C35437   2.757   7.942   0.991 -0.2238 -0.2845  0.3980
  263MOL0     H35438   3.277   8.116   1.163 -1.1918 -2.0240  0.1461
  263MOL0     H35439   3.516   8.165   1.095 -1.4829  0.2408  3.5588
  263MOL0     H35440   3.722   8.166   1.057  0.6922  0.3383  0.5258
  263MOL0     H35441   3.763   8.021   1.139  0.2486  0.2689 -0.7878
  263MOL0     H35442   3.955   8.170   1.014  2.6184 -0.8249 -1.8281
  263MOL0     H35443   3.870   8.127   0.866 -2.3663  3.8231  1.3196
  263MOL0     H35444   3.944   7.889   0.902 -0.6003 -1.8684  1.6614
  263MOL0     H35445   4.007   7.932   1.062 -1.1650  0.2721  0.0680
  263MOL0     H35446   4.129   8.039   0.805  0.1024 -1.6306 -0.5912
  263MOL0     H35447   4.150   8.113   0.963  0.0628 -0.0753  0.4145
  263MOL0     H35448   4.238   7.902   1.064  0.2323 -2.0509 -0.4995
  263MOL0     H35449   4.207   7.834   0.910 -3.1912  0.9879  1.8838
  263MOL0     H35450   4.392   8.074   0.934 -1.9709 -0.3820  1.7663
  263MOL0     H35451   4.459   7.920   0.991  0.3608  1.4470  0.8492
  263MOL0     H35452   4.342   7.982   0.713 -1.2101  0.9581  2.3351
  263MOL0     H35453   4.397   7.823   0.769 -3.9852  1.3686 -0.8618
  263MOL0     H35454   4.565   7.934   0.636 -1.3121  1.0120  0.1833
  263MOL0     H35455   4.568   8.079   0.735  0.4767 -0.0712 -2.1088
  263MOL0     H35456   4.651   7.705   0.750 -0.0498  0.8830  0.1204
  263MOL0     H35457   5.000   7.653   0.838 -0.7986 -0.6614 -1.0581
  263MOL0     H35458   4.967   7.654   1.007 -0.1846  1.4047 -0.6682
  263MOL0     H35459   4.770   7.510   0.969  0.6153  3.3251  1.0028
  263MOL0     H35460   4.807   7.499   0.793 -0.8111  0.8986 -0.3629
  263MOL0     H35461   4.876   7.313   0.942  0.7207 -1.1366  0.1048
  263MOL0     H35462   5.009   7.414   1.006  0.1905  0.0078 -0.5026
  263MOL0     H35463   4.961   7.358   0.710 -1.0667 -1.7094 -0.0130
  263MOL0     H35464   5.074   7.266   0.806  0.0624 -0.0384 -0.7182
  263MOL0     H35465   5.309   7.266   0.776 -0.5401 -1.6456  1.6697
  263MOL0     H35466   5.507   7.275   0.909 -0.8259 -0.6847  0.3996
  263MOL0     H35467   5.590   7.294   1.369 -0.1019 -1.6698  1.0094
  263MOL0     H35468   5.745   7.293   1.533 -0.9417 -1.3949  0.2220
  263MOL0     H35469   5.901   7.397   1.650 -1.8698 -0.8444  1.3177
  263MOL0     H35470   5.925   7.230   1.677 -0.1784  1.0911  1.0567
  263MOL0     H35471   6.149   7.429   1.691  1.7318 -0.1254  1.5612
  263MOL0     H35472   6.047   7.383   1.830 -0.3120  0.0883 -0.1453
  263MOL0     H35473   6.091   7.158   1.818 -0.5688 -0.1838 -0.2212
  263MOL0     H35474   6.167   7.171   1.656 -0.3033 -1.1706  0.2707
  263MOL0     H35475   6.288   7.272   1.929  1.4330  1.0618 -0.9206
  263MOL0     H35476   6.351   7.308   1.765  2.7436 -0.2226  0.8431
  263MOL0     H35477   6.385   7.068   1.728  1.4862  0.3829  0.5920
  263MOL0     H35478   6.289   7.033   1.874 -0.3867  1.0175  0.1535
  263MOL0     H35479   6.560   7.187   1.876 -0.7405  0.1666  0.5904
  263MOL0     H35480   6.462   7.139   2.012  1.0381 -0.7016  0.5010
  263MOL0     H35481   6.471   6.895   1.891  0.1601 -0.8218  2.2077
  263MOL0     H35482   6.587   6.951   2.014  1.9977 -0.7606 -0.8525
  263MOL0     H35483   6.678   6.836   1.822  1.3026 -0.0234 -1.3870
  263MOL0     H35484   6.628   6.968   1.717 -2.6699 -0.2286  1.1318
  263MOL0     H35485   6.079   7.333   1.254  0.4367 -1.7494 -1.3861
  263MOL0     H35486   5.899   7.354   1.061  0.4839 -1.1786  0.9084
  263MOL0     H35487   5.362   7.635   1.104 -0.2012  0.3007 -0.9925
  263MOL0     H35488   5.189   7.637   0.973  2.2142  1.4836  2.7551
  263MOL0     H35489   3.537   7.762   0.931 -1.0298 -0.5611 -0.6792
  263MOL0     H35490   3.297   7.720   1.017  0.2876 -0.7414  0.5502
  263MOL0     H35491   3.035   7.947   1.368  1.1590  1.3552 -2.2586
  263MOL0     H35492   2.846   7.998   1.514 -3.5542 -1.1935  1.3796
  263MOL0     H35493   2.674   8.091   1.613 -0.9468  1.8876  0.6410
  263MOL0     H35494   2.598   7.927   1.607  1.0574  0.3693  1.3436
  263MOL0     H35495   2.380   7.997   1.615  0.0614 -0.6657  0.3785
  263MOL0     H35496   2.435   8.174   1.581 -0.4348  0.9809  2.8498
  263MOL0     H35497   2.529   8.205   1.776  1.1517 -0.9077  1.5869
  263MOL0     H35498   2.504   8.040   1.840 -1.0307 -1.0100  0.4441
  263MOL0     H35499   2.347   8.218   1.912  2.2201  0.3540 -0.6451
  263MOL0     H35500   2.283   8.244   1.756  0.9437  1.3709  0.5844
  263MOL0     H35501   2.091   7.876   1.827  0.1868 -0.2376  1.8373
  263MOL0     H35502   2.578   8.000   1.180  0.5035  0.2393 -0.9906
  263MOL0     H35503   2.652   7.954   0.965 -0.2548 -0.7246  0.3084
  263MOL0     H35504   2.814   8.016   0.935  0.1310 -0.3350  0.6844
  263MOL0     H35505   2.784   7.839   0.965  1.3159  0.1350  0.2371
  264MOL0     O35506   2.441   2.611   8.264  0.7336 -0.4717 -0.3296
  264MOL0     C35507   2.386   2.690   8.346  0.5987  0.1759 -0.4482
  264MOL0     O35508   2.439   2.799   8.398 -0.5017 -0.1752  0.7866
  264MOL0     C35509   2.553   2.859   8.338  0.8847  0.1626  0.6793
  264MOL0     C35510   2.646   2.924   8.419  0.7271 -0.0769  0.0304
  264MOL0     C35511   2.770   2.972   8.371 -0.6139 -0.6054 -0.1057
  264MOL0     C35512   2.802   2.960   8.235 -0.8086 -0.8943 -0.3307
  264MOL0     O35513   2.905   3.030   8.170  0.1070  0.1279 -0.1990
  264MOL0     C35514   3.040   3.014   8.213  0.1279 -0.4938  0.8561
  264MOL0     C35515   3.124   3.126   8.140 -0.2937  0.2334 -0.1146
  264MOL0     C35516   3.129   3.111   7.989 -0.3121 -0.4146  0.5827
  264MOL0     C35517   3.204   3.225   7.924 -0.6373 -0.4998 -0.3993
  264MOL0     C35518   3.235   3.192   7.770  0.4583  0.0560  0.5213
  264MOL0     C35519   3.337   3.283   7.706 -0.0371  0.0987 -0.5134
  264MOL0     C35520   3.317   3.295   7.556  0.3739  0.8123  0.2162
  264MOL0     C35521   3.435   3.353   7.472  0.3073 -0.3569 -0.3497
  264MOL0     N35522   3.549   3.273   7.472 -0.2294 -0.1919  0.6802
  264MOL0     C35523   3.650   3.253   7.564  0.3389 -0.0445  0.2889
  264MOL0     C35524   3.731   3.158   7.513 -0.0801 -0.2197 -0.6632
  264MOL0     C35525   3.883   3.142   7.555 -0.4938 -0.3725  0.8857
  264MOL0     C35526   3.952   3.056   7.445  0.5418  0.5710  0.4487
  264MOL0     C35527   4.085   3.002   7.480 -0.3442  0.2487  0.4725
  264MOL0     C35528   4.192   3.110   7.466 -0.7953 -0.0514 -0.1468
  264MOL0     O35529   4.316   3.065   7.530 -0.4621 -0.5630 -0.3561
  264MOL0     C35530   4.413   3.164   7.550  0.0296  0.3637 -0.1137
  264MOL0     C35531   4.513   3.142   7.649  0.2927  0.3021  0.4017
  264MOL0     C35532   4.623   3.230   7.675  0.5410  0.5025  0.2498
  264MOL0     C35533   4.626   3.345   7.600 -0.7598 -0.2666  0.3065
  264MOL0     C35534   4.739   3.435   7.626 -0.7985 -0.1218  0.1612
  264MOL0     O35535   4.741   3.550   7.555  0.7422 -0.2566 -0.0182
  264MOL0     C35536   4.834   3.647   7.590  0.2786  0.5574  0.5598
  264MOL0     C35537   4.791   3.776   7.609  0.2060 -0.3727 -0.0503
  264MOL0     C35538   4.879   3.872   7.646 -0.0459 -0.5692 -0.6992
  264MOL0     C35539   5.015   3.845   7.663 -0.0659 -0.2674 -0.1607
  264MOL0     O35540   5.099   3.951   7.675 -0.6568  0.5554 -0.7633
  264MOL0     C35541   5.244   3.938   7.653 -0.1779 -0.0872 -0.0813
  264MOL0     C35542   5.307   4.073   7.692 -0.2834  0.0917  0.6496
  264MOL0     C35543   5.463   4.071   7.699  0.3743  0.1878  0.5782
  264MOL0     C35544   5.519   4.212   7.710 -0.4085  0.5146 -0.0110
  264MOL0     C35545   5.677   4.229   7.722  0.1591 -0.1883 -0.6166
  264MOL0     C35546   5.712   4.376   7.746  0.3785  0.0335 -0.7358
  264MOL0     C35547   5.650   4.446   7.867 -0.3016 -0.5358 -0.2791
  264MOL0     C35548   5.700   4.591   7.871  0.3833  0.0372 -0.2146
  264MOL0    Cl35549   5.872   4.602   7.909 -0.6235  0.6572  0.0202
  264MOL0     C35550   5.061   3.717   7.621 -0.4556 -0.0227 -0.1136
  264MOL0     C35551   4.970   3.616   7.592 -0.5543  0.0333  0.5051
  264MOL0     O35552   4.815   3.403   7.716 -0.6572 -0.4168  0.2137
  264MOL0     C35553   4.531   3.377   7.505  0.5774 -0.0753  0.2973
  264MOL0     C35554   4.426   3.286   7.475 -0.0403 -0.4870  0.6633
  264MOL0     N35555   3.670   3.113   7.392 -0.6271 -1.1464 -0.1263
  264MOL0     N35556   3.564   3.178   7.375  0.3609 -0.1365 -0.5207
  264MOL0     C35557   2.706   2.903   8.152 -0.8502  0.0590  0.2489
  264MOL0     C35558   2.587   2.851   8.202 -0.1901 -1.0774  0.5550
  264MOL0     C35559   2.258   2.641   8.417 -0.2461 -0.1471  0.4158
  264MOL0     C35560   2.234   2.681   8.554 -0.2044  0.2970  0.5404
  264MOL0     C35561   2.116   2.654   8.623  0.3294  0.4440 -0.1251
  264MOL0     C35562   2.027   2.560   8.573  0.0801  0.6536  0.0185
  264MOL0     O35563   1.932   2.515   8.661 -0.0457  0.1729  0.2995
  264MOL0     C35564   1.876   2.386   8.651  0.2739  0.2672 -0.0917
  264MOL0     C35565   1.724   2.392   8.610 -0.0597 -0.7230  0.4915
  264MOL0     C35566   1.678   2.264   8.542 -0.2212 -0.5506  0.1888
  264MOL0     C35567   1.710   2.144   8.633  0.2906  0.0075 -0.4158
  264MOL0     C35568   1.706   2.032   8.540 -0.8074  0.4290  0.8541
  264MOL0     C35569   1.699   1.929   8.478 -0.3193 -0.2466 -0.0989
  264MOL0     C35570   2.042   2.529   8.436 -0.6286  0.3022 -0.4619
  264MOL0     C35571   2.155   2.565   8.352 -0.2495  0.0018  0.1535
  264MOL0     C35572   2.165   2.531   8.204  0.1686 -0.5440 -0.1388
  264MOL0     H35573   2.617   2.936   8.522 -3.6625  1.7728 -1.1665
  264MOL0     H35574   2.832   3.031   8.437 -1.2439 -3.8514  3.7698
  264MOL0     H35575   3.045   3.039   8.319  1.1582  1.2094  0.4430
  264MOL0     H35576   3.080   2.913   8.204  0.0114 -0.7225  2.5886
  264MOL0     H35577   3.225   3.106   8.177 -0.5740 -2.8465 -0.7088
  264MOL0     H35578   3.094   3.227   8.167  0.5717  0.7344 -0.9708
  264MOL0     H35579   3.029   3.117   7.945 -0.0047 -1.9954 -0.4008
  264MOL0     H35580   3.167   3.019   7.945 -2.5435 -0.8019 -0.6936
  264MOL0     H35581   3.160   3.324   7.939 -0.2082 -0.4605  0.6631
  264MOL0     H35582   3.299   3.233   7.978 -1.3986  0.2742  0.8885
  264MOL0     H35583   3.280   3.092   7.768  1.8636  0.5580 -3.4777
  264MOL0     H35584   3.145   3.182   7.708  2.2368  1.8829 -2.5879
  264MOL0     H35585   3.321   3.383   7.746  0.0025 -0.6234  1.4278
  264MOL0     H35586   3.439   3.253   7.735 -0.4329  1.8208  3.2232
  264MOL0     H35587   3.219   3.339   7.540 -0.5385 -1.3192 -0.4520
  264MOL0     H35588   3.312   3.192   7.519  4.2238  0.9824 -1.2803
  264MOL0     H35589   3.415   3.379   7.367  3.1282  1.5581 -0.4995
  264MOL0     H35590   3.463   3.451   7.512 -0.2462 -0.0659 -0.6527
  264MOL0     H35591   3.675   3.318   7.647 -0.4141  1.1337 -0.3712
  264MOL0     H35592   3.932   3.239   7.561  0.3351 -0.6987 -0.1871
  264MOL0     H35593   3.886   3.096   7.655  0.5352  0.0819  1.0700
  264MOL0     H35594   3.889   2.967   7.431  0.9523 -0.2551  3.2313
  264MOL0     H35595   3.960   3.113   7.352  1.0720 -1.2893 -0.6819
  264MOL0     H35596   4.124   2.914   7.428  0.3974  1.4186 -1.0200
  264MOL0     H35597   4.068   2.976   7.585 -0.1377  0.6364  0.6064
  264MOL0     H35598   4.156   3.207   7.500 -2.7890  0.4469 -3.2430
  264MOL0     H35599   4.224   3.133   7.364  2.6466  2.3915  1.2736
  264MOL0     H35600   4.497   3.049   7.703  0.7289 -0.5518 -0.8876
  264MOL0     H35601   4.694   3.201   7.751  1.4105  2.2760  0.1812
  264MOL0     H35602   4.684   3.793   7.603 -0.2229 -3.0357 -1.6782
  264MOL0     H35603   4.848   3.976   7.651  0.5107 -0.3118 -1.9520
  264MOL0     H35604   5.284   3.858   7.716 -0.5566  1.1289  1.7865
  264MOL0     H35605   5.249   3.917   7.545 -4.6145  1.0858 -0.7088
  264MOL0     H35606   5.287   4.142   7.609  1.1502 -2.1368 -1.6977
  264MOL0     H35607   5.273   4.125   7.782 -0.1228  1.3891 -0.0116
  264MOL0     H35608   5.489   4.002   7.780  0.4213 -0.4047  0.0692
  264MOL0     H35609   5.503   4.029   7.606 -2.7390 -1.4931 -0.1360
  264MOL0     H35610   5.484   4.253   7.805  0.3250 -0.8319  0.8771
  264MOL0     H35611   5.483   4.268   7.624 -0.6793  0.0692 -0.1864
  264MOL0     H35612   5.717   4.210   7.621 -1.7769  0.9892 -1.6739
  264MOL0     H35613   5.724   4.157   7.789 -3.2309 -0.9917  1.1354
  264MOL0     H35614   5.820   4.370   7.766  0.5927  1.0337 -1.4982
  264MOL0     H35615   5.684   4.431   7.656 -2.2144 -1.3576 -0.8687
  264MOL0     H35616   5.696   4.406   7.958 -3.2773 -3.6808  0.0259
  264MOL0     H35617   5.541   4.447   7.864 -0.3620 -3.3343 -2.8667
  264MOL0     H35618   5.689   4.636   7.771  0.0468  1.0323  0.2616
  264MOL0     H35619   5.641   4.643   7.947  0.3991 -0.7560  0.3505
  264MOL0     H35620   5.165   3.687   7.623 -0.7773 -1.2415 -1.0141
  264MOL0     H35621   5.001   3.512   7.587 -2.2388 -0.6839  3.1272
  264MOL0     H35622   4.531   3.472   7.452 -1.6353  1.5022  2.8041
  264MOL0     H35623   4.358   3.317   7.396 -1.4529  2.5678  2.8656
  264MOL0     H35624   2.737   2.905   8.048 -0.2827  1.9214  0.4169
  264MOL0     H35625   2.526   2.806   8.125  1.4845 -0.0298 -1.4732
  264MOL0     H35626   2.319   2.736   8.593  4.7883 -3.3076 -3.7924
  264MOL0     H35627   2.102   2.686   8.725  0.9073  1.8617 -0.4691
  264MOL0     H35628   1.866   2.341   8.750 -1.6384 -2.3917 -1.3613
  264MOL0     H35629   1.938   2.327   8.583 -0.8958 -0.2385 -0.7412
  264MOL0     H35630   1.709   2.470   8.535 -0.6952 -1.7787 -0.5119
  264MOL0     H35631   1.663   2.393   8.701 -0.1813  0.1425  0.4051
  264MOL0     H35632   1.746   2.257   8.457  1.1096  0.4249  1.1355
  264MOL0     H35633   1.571   2.256   8.518 -0.0786 -1.7448 -0.1005
  264MOL0     H35634   1.801   2.152   8.694  0.2721  1.7514 -0.5661
  264MOL0     H35635   1.633   2.129   8.709  3.6941 -2.6952  2.9000
  264MOL0     H35636   1.675   1.844   8.418 -0.1627 -0.1025 -0.3661
  264MOL0     H35637   1.967   2.464   8.392  2.0160 -2.6769 -0.9544
  264MOL0     H35638   2.249   2.467   8.176  1.3732  0.9417 -0.0874
  264MOL0     H35639   2.068   2.494   8.170  1.1201  0.3712 -4.6200
  264MOL0     H35640   2.182   2.619   8.140  3.4707 -2.4319 -2.1678
  265MOL0     O35641   7.295   2.824   5.080  0.0680 -0.8539  0.4942
  265MOL0     C35642   7.264   2.895   5.173 -0.1412  0.1089 -0.4192
  265MOL0     O35643   7.328   3.013   5.210  0.1387 -0.3199  0.5647
  265MOL0     C35644   7.456   3.017   5.156 -0.2525 -0.1713 -0.3593
  265MOL0     C35645   7.562   2.980   5.237 -0.3412 -0.5470  1.2853
  265MOL0     C35646   7.684   2.971   5.182 -0.2808 -0.2028  0.0033
  265MOL0     C35647   7.715   3.018   5.050 -0.0825  0.2467 -0.0423
  265MOL0     O35648   7.843   3.027   4.997  0.0598  0.5134 -0.0769
  265MOL0     C35649   7.951   2.945   5.047  0.0941 -0.3053  0.0141
  265MOL0     C35650   8.080   2.965   4.970 -0.1593  0.2487 -0.4702
  265MOL0     C35651   8.141   3.097   5.003 -0.4259  0.2085 -0.1848
  265MOL0     C35652   8.284   3.103   4.937  0.2939  0.0614 -0.6177
  265MOL0     C35653   8.387   3.046   5.038  0.6449 -0.5257  0.1764
  265MOL0     C35654   8.518   3.099   4.999  0.2413  0.2369 -0.8923
  265MOL0     C35655   8.631   3.035   5.085 -0.0279  0.2633  0.1427
  265MOL0     C35656   8.772   3.057   5.022  0.9982 -0.2754  0.1184
  265MOL0     N35657   8.871   3.011   5.117  0.2127  0.2263  0.3893
  265MOL0     C35658   8.941   3.081   5.218  0.3708  0.5084  0.6680
  265MOL0     C35659   8.983   2.987   5.295 -1.0079 -0.2209 -0.7272
  265MOL0     C35660   9.059   3.008   5.423  0.0924  0.1209  0.0646
  265MOL0     C35661   9.213   3.041   5.407 -0.9578  0.5683 -0.1094
  265MOL0     C35662   9.302   2.910   5.391 -0.1932 -0.7750 -0.2764
  265MOL0     C35663   9.448   2.938   5.389 -0.4713 -0.1169 -0.3855
  265MOL0     O35664   9.504   2.976   5.515  0.3258  0.0195 -0.4137
  265MOL0     C35665   9.637   2.989   5.533  0.3290 -0.1250 -0.4624
  265MOL0     C35666   9.683   3.017   5.659 -0.2862  0.5570 -0.2032
  265MOL0     C35667   9.820   3.010   5.691 -0.3195  0.1816  0.2502
  265MOL0     C35668   9.910   2.997   5.582 -0.5781 -0.2093  0.4347
  265MOL0     C35669  10.059   3.009   5.624  0.9356 -0.4879 -0.3303
  265MOL0     O35670  10.094   3.035   5.753  0.2129 -0.4670  0.1481
  265MOL0     C35671  10.227   3.037   5.763  0.1194 -0.1500 -0.3996
  265MOL0     C35672  10.291   2.928   5.826 -0.0881 -0.5130 -0.4794
  265MOL0     C35673  10.423   2.932   5.851 -0.6281  0.5959  0.8025
  265MOL0     C35674  10.500   3.054   5.819  0.1327  1.4115  0.2849
  265MOL0     O35675  10.633   3.064   5.847  0.8192 -0.2238  0.3060
  265MOL0     C35676  10.691   2.997   5.955  0.1950 -0.5602 -0.0941
  265MOL0     C35677  10.844   3.030   5.950  0.0024  0.3155 -0.4022
  265MOL0     C35678  10.901   3.032   6.099 -0.4505 -1.0129  0.6696
  265MOL0     C35679  11.061   3.050   6.113 -0.9277  0.1030  0.5801
  265MOL0     C35680  11.113   3.072   6.257  0.3729  0.5189  0.2777
  265MOL0     C35681  11.267   3.075   6.251 -0.5116 -0.4516  0.2109
  265MOL0     C35682  11.324   3.083   6.393  0.1486  0.1657 -0.5817
  265MOL0     C35683  11.477   3.095   6.391  0.7042 -0.2634 -0.3958
  265MOL0    Cl35684  11.537   3.105   6.557  0.0663 -0.0708 -0.0115
  265MOL0     C35685  10.430   3.161   5.756 -0.1052  0.3250  0.2023
  265MOL0     C35686  10.297   3.147   5.720  0.3217 -0.3338  0.3247
  265MOL0     O35687  10.125   3.032   5.532  0.5395  0.5841 -0.3066
  265MOL0     C35688   9.862   2.986   5.448 -0.3198  0.2985 -0.7114
  265MOL0     C35689   9.726   2.980   5.425  0.1393  0.6927  1.0339
  265MOL0     N35690   8.944   2.865   5.247 -0.0617 -0.1570  0.4765
  265MOL0     N35691   8.869   2.874   5.149 -0.7180  0.2286  0.0737
  265MOL0     C35692   7.608   3.061   4.971 -0.8687 -0.2944  0.5642
  265MOL0     C35693   7.478   3.054   5.026 -0.5344 -0.4706  0.8916
  265MOL0     C35694   7.129   2.863   5.234 -0.8225 -0.6499  0.0789
  265MOL0     C35695   7.078   2.959   5.321 -0.1328  0.2513 -0.1588
  265MOL0     C35696   6.957   2.947   5.386  0.0244  0.3214 -0.0284
  265MOL0     C35697   6.876   2.832   5.367 -0.2862 -0.0399  0.1423
  265MOL0     O35698   6.757   2.801   5.427  0.5868 -0.5619  0.1053
  265MOL0     C35699   6.761   2.839   5.571  0.5682 -0.3599  0.9438
  265MOL0     C35700   6.636   2.777   5.626  0.4657 -0.4174  0.3964
  265MOL0     C35701   6.612   2.626   5.603 -0.1721 -0.1939  0.4319
  265MOL0     C35702   6.466   2.572   5.619 -0.1234 -0.1328  0.1458
  265MOL0     C35703   6.401   2.598   5.752  0.1788  0.5991 -0.0044
  265MOL0     C35704   6.328   2.644   5.837 -0.3957  0.3110 -0.4093
  265MOL0     C35705   6.930   2.738   5.269  0.2236 -0.3832 -0.3334
  265MOL0     C35706   7.053   2.746   5.214  0.3361 -0.4392  0.6989
  265MOL0     C35707   7.103   2.628   5.134  0.5471 -0.3153 -0.3463
  265MOL0     H35708   7.547   2.941   5.337 -1.1968 -1.4346  0.8177
  265MOL0     H35709   7.763   2.933   5.246 -0.3803 -0.2086  0.1226
  265MOL0     H35710   7.969   2.964   5.153 -0.5522 -2.7414  0.6228
  265MOL0     H35711   7.925   2.840   5.034 -1.2620 -0.5592  3.6684
  265MOL0     H35712   8.075   2.955   4.861  0.5842  0.7530 -0.5576
  265MOL0     H35713   8.142   2.884   5.008  1.4999  1.1268 -1.1876
  265MOL0     H35714   8.139   3.107   5.112 -2.6220  2.5730 -0.3699
  265MOL0     H35715   8.072   3.173   4.967 -1.2621  0.0044  0.9192
  265MOL0     H35716   8.282   3.055   4.838  0.4928 -0.5049 -0.3518
  265MOL0     H35717   8.292   3.211   4.924 -1.7084  0.7433  2.6256
  265MOL0     H35718   8.375   3.080   5.141 -0.8670  1.9847 -0.7527
  265MOL0     H35719   8.378   2.937   5.028  0.8496 -0.6210  0.9644
  265MOL0     H35720   8.540   3.071   4.895  1.4983  0.6592 -0.7598
  265MOL0     H35721   8.527   3.207   5.012  0.7636  0.2319 -1.1720
  265MOL0     H35722   8.623   2.927   5.099 -0.8179  0.2389 -0.4013
  265MOL0     H35723   8.629   3.084   5.183 -3.0199  0.3494  0.1355
  265MOL0     H35724   8.769   2.987   4.938 -0.9779 -0.0846 -0.0007
  265MOL0     H35725   8.788   3.162   4.997 -2.5179  0.2278 -0.5109
  265MOL0     H35726   8.945   3.188   5.233 -2.7921  1.4254 -3.3141
  265MOL0     H35727   9.015   3.104   5.453 -0.4492  0.5025 -1.8225
  265MOL0     H35728   9.037   2.932   5.499 -0.8876  1.3094  1.0342
  265MOL0     H35729   9.224   3.118   5.330 -1.2753  0.9296  0.1991
  265MOL0     H35730   9.243   3.091   5.500  0.1773 -0.8875  0.3527
  265MOL0     H35731   9.285   2.864   5.293  0.6522 -0.6491 -0.4817
  265MOL0     H35732   9.276   2.835   5.467  2.2089 -0.6258  0.7782
  265MOL0     H35733   9.465   3.026   5.326  1.7014  0.3708  0.7972
  265MOL0     H35734   9.492   2.850   5.342 -1.7541  0.2922 -2.4832
  265MOL0     H35735   9.611   3.037   5.737 -0.2925 -3.5356  1.1060
  265MOL0     H35736   9.854   3.015   5.794 -0.3961  0.7123  0.2527
  265MOL0     H35737  10.235   2.836   5.846 -1.3750  0.1474 -0.8917
  265MOL0     H35738  10.472   2.847   5.897  0.9276  0.4001 -1.1181
  265MOL0     H35739  10.647   3.039   6.045 -2.6314 -0.4996 -1.4140
  265MOL0     H35740  10.672   2.889   5.966 -0.0334 -0.6644 -1.3542
  265MOL0     H35741  10.904   2.965   5.886  0.4945  0.3943 -0.0289
  265MOL0     H35742  10.855   3.131   5.911  1.4246  0.3933  0.1211
  265MOL0     H35743  10.865   3.110   6.167  1.9372  0.1176  0.7261
  265MOL0     H35744  10.878   2.944   6.160 -3.9858  0.8357  2.3835
  265MOL0     H35745  11.105   3.123   6.045 -0.2879  0.2522  1.1396
  265MOL0     H35746  11.110   2.956   6.089  1.9152  1.9294 -1.4372
  265MOL0     H35747  11.084   2.986   6.317  0.2180  1.4169  1.5444
  265MOL0     H35748  11.067   3.158   6.307  1.7721  1.0908  0.6512
  265MOL0     H35749  11.315   2.990   6.202 -0.8924 -1.0561  0.8574
  265MOL0     H35750  11.301   3.165   6.200  0.3021  0.6989  2.5990
  265MOL0     H35751  11.286   3.002   6.455 -2.2776  1.7099  0.0723
  265MOL0     H35752  11.280   3.172   6.438 -2.0265 -0.7787 -0.7476
  265MOL0     H35753  11.531   3.025   6.328 -1.7791 -2.9229  0.2392
  265MOL0     H35754  11.503   3.192   6.348 -0.1375  0.1193 -0.0643
  265MOL0     H35755  10.488   3.248   5.726  1.6252 -0.8592 -0.0387
  265MOL0     H35756  10.249   3.235   5.678  0.1233 -0.4663  0.2687
  265MOL0     H35757   9.928   2.986   5.361  0.6553  0.9431 -0.0016
  265MOL0     H35758   9.699   2.968   5.321 -1.6034 -1.2069  1.6624
  265MOL0     H35759   7.627   3.103   4.872 -0.9166 -0.6672  0.3961
  265MOL0     H35760   7.393   3.073   4.961 -0.9490 -3.2895  0.4978
  265MOL0     H35761   7.145   3.036   5.358  1.5029 -1.0713 -0.2797
  265MOL0     H35762   6.922   3.029   5.449 -3.5451 -0.9606 -0.1350
  265MOL0     H35763   6.760   2.946   5.591 -2.5501 -0.0863 -0.0173
  265MOL0     H35764   6.838   2.792   5.632  0.7764  0.6629  1.4869
  265MOL0     H35765   6.551   2.833   5.586  0.0230 -1.6684 -0.4583
  265MOL0     H35766   6.616   2.791   5.733 -0.7222 -2.7654  0.5422
  265MOL0     H35767   6.686   2.570   5.660  1.1109 -0.5276 -1.4707
  265MOL0     H35768   6.632   2.604   5.497 -1.5121 -0.2434  0.1665
  265MOL0     H35769   6.389   2.607   5.550 -0.6291 -1.5554 -0.0319
  265MOL0     H35770   6.470   2.465   5.597 -0.5706 -0.0872 -0.1800
  265MOL0     H35771   6.273   2.670   5.925 -0.4330 -2.0703  0.3500
  265MOL0     H35772   6.880   2.645   5.244 -1.1390  0.1130  0.4695
  265MOL0     H35773   7.049   2.538   5.166  1.7244 -0.0381  2.7551
  265MOL0     H35774   7.097   2.638   5.025 -1.2638  2.0267 -0.1192
  265MOL0     H35775   7.207   2.602   5.153 -0.2946 -2.6471  1.5742
  266MOL0     O35776   2.856   8.743   7.158  0.3479  0.1011  0.3426
  266MOL0     C35777   2.831   8.626   7.183  0.4076  0.3637 -0.0529
  266MOL0     O35778   2.922   8.532   7.235  0.1637 -0.1727 -0.1291
  266MOL0     C35779   3.050   8.576   7.263 -0.4857 -0.3795  0.5014
  266MOL0     C35780   3.070   8.689   7.353  1.4789 -0.6680  0.0675
  266MOL0     C35781   3.202   8.729   7.376  0.6399 -0.3170  0.2045
  266MOL0     C35782   3.312   8.656   7.327  0.2659 -0.4306  0.2215
  266MOL0     O35783   3.438   8.678   7.370 -0.6768 -0.2375  0.3301
  266MOL0     C35784   3.555   8.596   7.352 -0.6511 -0.6775 -1.1982
  266MOL0     C35785   3.690   8.659   7.412 -0.0951  0.3037 -0.0740
  266MOL0     C35786   3.680   8.670   7.570  0.0099 -0.6621  0.4717
  266MOL0     C35787   3.646   8.813   7.619 -0.7891  0.3858 -1.2532
  266MOL0     C35788   3.622   8.815   7.769  0.2106 -0.9884 -0.9864
  266MOL0     C35789   3.479   8.789   7.806  0.1388  0.7290  0.1876
  266MOL0     C35790   3.371   8.856   7.716  0.3826  0.1547 -0.2376
  266MOL0     C35791   3.231   8.858   7.775 -0.4918 -0.3460  0.1850
  266MOL0     N35792   3.135   8.923   7.685  0.3790  0.4350  0.2219
  266MOL0     C35793   3.129   9.057   7.662 -0.4337  0.8819 -0.9770
  266MOL0     C35794   3.013   9.078   7.586  0.6956 -0.3886 -0.2001
  266MOL0     C35795   2.955   9.209   7.547  0.2501  0.8484  0.0151
  266MOL0     C35796   2.904   9.285   7.665  0.4764  0.7069 -0.3972
  266MOL0     C35797   2.868   9.434   7.641 -0.1191  0.0934  0.9800
  266MOL0     C35798   2.728   9.466   7.564  0.1121 -0.2050  0.2112
  266MOL0     O35799   2.632   9.362   7.601  0.1624  0.0635  0.7088
  266MOL0     C35800   2.501   9.390   7.573 -0.3030 -0.0096 -0.0695
  266MOL0     C35801   2.450   9.480   7.475  0.2205  0.4841  0.2531
  266MOL0     C35802   2.309   9.493   7.457  0.5158  0.9492 -0.4344
  266MOL0     C35803   2.217   9.427   7.546 -0.1706 -0.0359  0.4055
  266MOL0     C35804   2.076   9.462   7.532 -0.0587 -0.1155  1.5521
  266MOL0     O35805   1.994   9.426   7.635  0.5612  0.4439 -0.2459
  266MOL0     C35806   1.865   9.464   7.661 -0.0303  0.5965 -0.1176
  266MOL0     C35807   1.791   9.565   7.589 -0.6889  0.0203 -0.8473
  266MOL0     C35808   1.663   9.603   7.622  0.3239 -0.0205 -0.0835
  266MOL0     C35809   1.599   9.533   7.728 -0.2318 -0.7647  0.0103
  266MOL0     O35810   1.472   9.561   7.769 -0.1429 -0.2790 -0.2876
  266MOL0     C35811   1.381   9.639   7.686 -0.7041  0.2482 -0.4555
  266MOL0     C35812   1.240   9.649   7.750  0.1136  0.2768  0.2390
  266MOL0     C35813   1.167   9.515   7.748 -0.4908 -0.0755 -0.2419
  266MOL0     C35814   1.030   9.535   7.817  1.0162  1.0524  0.1070
  266MOL0     C35815   0.931   9.419   7.821 -0.0430  0.4355  0.3970
  266MOL0     C35816   0.799   9.473   7.875  0.7332  0.6682  0.6304
  266MOL0     C35817   0.683   9.376   7.849  0.3253  0.0574 -0.1504
  266MOL0     C35818   0.554   9.441   7.897 -0.7348 -0.5965  0.9140
  266MOL0    Cl35819   0.551   9.484   8.068  0.0677 -0.0363 -0.1949
  266MOL0     C35820   1.666   9.434   7.800 -0.7125 -0.3019  0.0058
  266MOL0     C35821   1.796   9.392   7.767 -0.3854 -0.3413 -0.1373
  266MOL0     O35822   2.041   9.520   7.433 -0.4647  0.0000  0.0366
  266MOL0     C35823   2.270   9.346   7.648 -0.5277 -0.2577 -0.1305
  266MOL0     C35824   2.412   9.332   7.664  0.5623  0.1987 -0.5817
  266MOL0     N35825   2.955   8.959   7.575 -0.0649 -0.0362 -0.1745
  266MOL0     N35826   3.031   8.865   7.620 -0.4152  0.4858 -0.4007
  266MOL0     C35827   3.286   8.541   7.248 -0.1749 -0.9796 -0.1792
  266MOL0     C35828   3.159   8.502   7.221 -0.5525 -0.6151  0.3744
  266MOL0     C35829   2.693   8.571   7.170  1.2138  0.4607  0.1649
  266MOL0     C35830   2.589   8.666   7.152  0.5024  0.2418  0.1556
  266MOL0     C35831   2.452   8.624   7.134  0.0680 -1.1602  0.2663
  266MOL0     C35832   2.415   8.489   7.129  0.0620  0.6678  0.1389
  266MOL0     O35833   2.285   8.464   7.107  0.0169  0.0785  0.8135
  266MOL0     C35834   2.220   8.335   7.142  0.4458 -0.0043  0.2739
  266MOL0     C35835   2.095   8.319   7.053  0.1976 -0.7600 -0.6432
  266MOL0     C35836   1.964   8.287   7.127 -0.5166 -0.4351  0.2051
  266MOL0     C35837   1.837   8.326   7.041  0.1617  0.7350 -0.0060
  266MOL0     C35838   1.714   8.354   7.118  0.3425  0.1831  0.0438
  266MOL0     C35839   1.612   8.395   7.174  0.9715  0.4480 -0.2647
  266MOL0     C35840   2.516   8.398   7.153  0.5185 -0.2750  0.1189
  266MOL0     C35841   2.650   8.435   7.174  0.5310  0.8650  0.6597
  266MOL0     C35842   2.750   8.312   7.171 -0.0919 -1.1583  0.5288
  266MOL0     H35843   2.978   8.722   7.400 -1.1666 -3.4645 -2.6625
  266MOL0     H35844   3.224   8.809   7.446 -0.5129 -0.5526  0.8582
  266MOL0     H35845   3.544   8.507   7.414  2.3270  0.2302  0.8884
  266MOL0     H35846   3.573   8.558   7.251  1.1436 -2.1178 -0.4042
  266MOL0     H35847   3.710   8.754   7.361  0.0802  0.7393  0.7861
  266MOL0     H35848   3.770   8.587   7.392 -0.1927 -0.3487  1.7886
  266MOL0     H35849   3.772   8.635   7.619  0.7078  0.3293 -0.0956
  266MOL0     H35850   3.607   8.597   7.604  0.0131 -0.2711  1.3604
  266MOL0     H35851   3.742   8.864   7.616 -0.7353  0.7468  2.3015
  266MOL0     H35852   3.567   8.862   7.560 -1.6197  0.7997  0.1574
  266MOL0     H35853   3.694   8.750   7.820 -0.3935 -0.8142  0.1269
  266MOL0     H35854   3.636   8.917   7.804  3.2420 -1.5401 -0.3436
  266MOL0     H35855   3.456   8.682   7.816  0.0222  0.4616 -2.3382
  266MOL0     H35856   3.468   8.842   7.901  0.6889  2.7734 -0.8373
  266MOL0     H35857   3.363   8.796   7.625 -4.6881 -0.9586  0.6377
  266MOL0     H35858   3.402   8.958   7.691  0.3616  0.2188 -0.0057
  266MOL0     H35859   3.206   8.751   7.783  0.4576 -0.4311  3.2255
  266MOL0     H35860   3.226   8.900   7.876 -0.3154 -1.2345  0.5767
  266MOL0     H35861   3.199   9.128   7.704 -1.0545  0.5565  0.7107
  266MOL0     H35862   3.034   9.262   7.493  1.7047 -2.0268 -0.8707
  266MOL0     H35863   2.876   9.192   7.473  1.9943 -0.2477 -1.6928
  266MOL0     H35864   2.832   9.218   7.714  2.6694 -1.8061 -0.3727
  266MOL0     H35865   2.984   9.291   7.739 -0.1021 -1.2488  0.4593
  266MOL0     H35866   2.954   9.478   7.589 -0.5817  0.6172  0.6487
  266MOL0     H35867   2.861   9.486   7.737 -0.2773  1.7357  0.1139
  266MOL0     H35868   2.745   9.485   7.458 -2.7868  1.5547 -0.0336
  266MOL0     H35869   2.692   9.565   7.595 -1.1371 -0.9724  1.2968
  266MOL0     H35870   2.527   9.534   7.422 -1.4070  2.2212 -0.4650
  266MOL0     H35871   2.273   9.560   7.379  1.3023  1.2560 -0.5431
  266MOL0     H35872   1.841   9.620   7.510  1.4408  1.8994  1.6173
  266MOL0     H35873   1.626   9.687   7.564  1.7746 -0.9392 -2.4920
  266MOL0     H35874   1.431   9.735   7.669  2.1326 -1.0523 -0.1120
  266MOL0     H35875   1.378   9.591   7.588  2.2935 -0.7924 -0.1523
  266MOL0     H35876   1.260   9.681   7.853 -0.3938 -2.0944  1.1323
  266MOL0     H35877   1.167   9.719   7.707 -0.1392 -0.7402 -1.0548
  266MOL0     H35878   1.153   9.475   7.647 -0.3102  1.6032 -0.9496
  266MOL0     H35879   1.225   9.447   7.811 -0.3678 -1.2240 -1.5504
  266MOL0     H35880   0.977   9.612   7.760 -2.2066 -1.5550 -0.7404
  266MOL0     H35881   1.041   9.581   7.915 -0.7752  2.6333 -0.3863
  266MOL0     H35882   0.961   9.336   7.885 -3.5802 -0.7010  0.7753
  266MOL0     H35883   0.919   9.382   7.719 -2.7471 -0.4711  0.9589
  266MOL0     H35884   0.809   9.482   7.984  0.7324 -0.7490  0.7674
  266MOL0     H35885   0.776   9.573   7.836  0.5757  0.9516  1.4281
  266MOL0     H35886   0.702   9.282   7.902 -0.8795 -1.0341 -1.5750
  266MOL0     H35887   0.675   9.358   7.742  1.4768 -0.8368 -0.1107
  266MOL0     H35888   0.560   9.536   7.843  0.5477 -1.0797  0.1722
  266MOL0     H35889   0.470   9.381   7.858 -1.0450  1.1379 -1.3450
  266MOL0     H35890   1.629   9.390   7.892  1.2042 -0.4179  0.7655
  266MOL0     H35891   1.828   9.323   7.845  0.2432 -2.3202 -2.0455
  266MOL0     H35892   2.197   9.300   7.715 -2.1626  1.2401 -0.8045
  266MOL0     H35893   2.446   9.281   7.753 -4.8766 -0.3265  1.5717
  266MOL0     H35894   3.361   8.477   7.202  0.5253 -0.2265 -0.1126
  266MOL0     H35895   3.144   8.412   7.162  1.8214  0.3092 -1.8152
  266MOL0     H35896   2.606   8.773   7.145 -2.0694  0.6667 -0.5807
  266MOL0     H35897   2.377   8.700   7.115  0.5679 -0.6421  0.3493
  266MOL0     H35898   2.187   8.341   7.246  1.0662  1.3648  0.4167
  266MOL0     H35899   2.282   8.246   7.125  1.0862  0.7534 -1.6279
  266MOL0     H35900   2.118   8.239   6.982  1.0523  0.1359 -1.4006
  266MOL0     H35901   2.086   8.411   6.994  1.4521 -0.1348  0.0881
  266MOL0     H35902   1.965   8.337   7.224 -0.8185  0.2505 -0.1380
  266MOL0     H35903   1.953   8.178   7.136 -0.0349 -0.5060 -0.0135
  266MOL0     H35904   1.848   8.415   6.978 -0.4607  0.8923  0.1019
  266MOL0     H35905   1.814   8.250   6.967  1.7939 -0.8968  1.0856
  266MOL0     H35906   1.521   8.431   7.217 -0.5074 -2.0247 -1.1233
  266MOL0     H35907   2.497   8.292   7.168 -3.3212  0.4326  1.3679
  266MOL0     H35908   2.781   8.294   7.275  2.4466 -2.4114 -0.3487
  266MOL0     H35909   2.720   8.219   7.122  1.9386  0.1443 -3.6388
  266MOL0     H35910   2.825   8.354   7.104  0.3623  0.8040  2.1523
  267MOL0     O35911   1.443   5.651   8.488 -0.0922 -0.1751  0.1814
  267MOL0     C35912   1.361   5.649   8.392 -0.1429 -0.7117  0.0508
  267MOL0     O35913   1.395   5.642   8.260 -0.3194  0.8233 -0.0122
  267MOL0     C35914   1.527   5.614   8.228  0.1415 -0.3065  0.1536
  267MOL0     C35915   1.588   5.678   8.125  0.1281 -0.4547 -0.2577
  267MOL0     C35916   1.718   5.665   8.090  0.1680 -0.0253  0.3149
  267MOL0     C35917   1.797   5.566   8.149 -0.2693  0.5029  0.0609
  267MOL0     O35918   1.925   5.537   8.102 -0.8529  0.0086 -0.8411
  267MOL0     C35919   1.979   5.619   7.997  0.3696  0.0788  0.5422
  267MOL0     C35920   2.106   5.557   7.932  1.0859 -0.8234  0.2201
  267MOL0     C35921   2.223   5.565   8.022 -0.6066  0.5852  0.2232
  267MOL0     C35922   2.352   5.508   7.960  0.4931 -0.8434  0.6463
  267MOL0     C35923   2.464   5.520   8.054  0.6444  0.1536  0.0194
  267MOL0     C35924   2.605   5.472   8.000  0.9894  0.2423  0.6223
  267MOL0     C35925   2.717   5.491   8.102  0.3416 -0.0950 -0.6379
  267MOL0     C35926   2.703   5.417   8.233 -0.0423  0.9627 -0.8406
  267MOL0     N35927   2.815   5.437   8.326 -1.0231 -0.2851 -0.2478
  267MOL0     C35928   2.823   5.440   8.464 -0.1492  0.4190 -0.1443
  267MOL0     C35929   2.932   5.499   8.506  0.6559  0.2416  0.2574
  267MOL0     C35930   2.977   5.515   8.648 -0.0923  0.2434  0.0508
  267MOL0     C35931   3.002   5.658   8.695  0.0416  0.1328 -0.3096
  267MOL0     C35932   2.878   5.747   8.670  0.5150  0.1122 -0.2510
  267MOL0     C35933   2.862   5.853   8.773  0.2113 -0.8685  0.3750
  267MOL0     O35934   2.754   5.945   8.735 -0.3585  0.1327  1.0354
  267MOL0     C35935   2.626   5.911   8.738  0.3263  0.0174  0.2459
  267MOL0     C35936   2.540   5.983   8.653 -0.1256 -0.3709 -1.0232
  267MOL0     C35937   2.403   5.963   8.642  0.4118  1.2008  0.2953
  267MOL0     C35938   2.349   5.862   8.728  0.1151 -0.6072  0.3724
  267MOL0     C35939   2.203   5.844   8.736  0.7543  0.1028 -0.4646
  267MOL0     O35940   2.159   5.761   8.832 -0.2621  0.4974  0.7749
  267MOL0     C35941   2.025   5.751   8.859  0.0172  0.3707 -0.1097
  267MOL0     C35942   1.990   5.729   8.997  0.4038 -0.3200  0.5258
  267MOL0     C35943   1.858   5.709   9.037 -0.9304  0.2381 -0.0640
  267MOL0     C35944   1.757   5.695   8.944 -0.0671 -0.1113  0.1010
  267MOL0     O35945   1.632   5.667   8.996 -0.1073  0.3915  1.1321
  267MOL0     C35946   1.527   5.660   8.889 -0.6377  0.3062 -0.1575
  267MOL0     C35947   1.397   5.647   8.961  0.0800 -0.3936 -0.8941
  267MOL0     C35948   1.341   5.769   9.032  0.2016 -0.2699  0.6012
  267MOL0     C35949   1.225   5.732   9.123  0.0527 -0.4914  0.2024
  267MOL0     C35950   1.181   5.855   9.199  0.3074 -0.4871  0.0923
  267MOL0     C35951   1.059   5.850   9.291  0.5872 -0.1819  0.0400
  267MOL0     C35952   1.066   5.757   9.411 -0.2470 -0.7358  0.7525
  267MOL0     C35953   0.949   5.744   9.506 -0.0073  1.1427  0.0861
  267MOL0    Cl35954   0.929   5.564   9.549 -0.1997  0.0824  0.4590
  267MOL0     C35955   1.787   5.709   8.809  0.6054  0.1423  0.1058
  267MOL0     C35956   1.920   5.733   8.765  0.4968 -0.5065  0.4041
  267MOL0     O35957   2.124   5.915   8.666  0.1830  0.8293  0.4185
  267MOL0     C35958   2.437   5.785   8.804  0.7161 -0.8773  0.1007
  267MOL0     C35959   2.579   5.808   8.817  0.5224 -0.8492 -0.1160
  267MOL0     N35960   3.002   5.543   8.393  0.3919  0.3793  0.0434
  267MOL0     N35961   2.931   5.511   8.292  0.4086  0.8715  0.0395
  267MOL0     C35962   1.743   5.496   8.250 -0.3796  0.3469 -0.1571
  267MOL0     C35963   1.612   5.516   8.290  1.1202 -0.0199  0.5570
  267MOL0     C35964   1.217   5.654   8.431 -0.1774  0.7606 -0.2598
  267MOL0     C35965   1.176   5.617   8.562  0.2951 -0.2161  0.0196
  267MOL0     C35966   1.049   5.639   8.607  0.8721  0.2422 -0.2454
  267MOL0     C35967   0.951   5.686   8.515  0.1815  0.4388 -0.5697
  267MOL0     O35968   0.817   5.708   8.540  0.2432 -0.5517  0.8644
  267MOL0     C35969   0.752   5.677   8.664 -0.3662 -0.0859 -0.2002
  267MOL0     C35970   0.705   5.527   8.658  0.5877  0.7352 -0.9144
  267MOL0     C35971   0.586   5.519   8.765 -0.5052  0.5628 -0.4250
  267MOL0     C35972   0.539   5.363   8.780 -1.0939 -0.1934 -0.9672
  267MOL0     C35973   0.397   5.363   8.757  0.3733 -0.3069 -0.2162
  267MOL0     C35974   0.273   5.366   8.752  0.0128 -0.1097 -0.3175
  267MOL0     C35975   0.991   5.731   8.392 -0.4228 -0.0104  0.0169
  267MOL0     C35976   1.124   5.716   8.343 -0.8174  0.3188  1.1197
  267MOL0     C35977   1.161   5.773   8.204 -0.0280  0.2321  0.2362
  267MOL0     H35978   1.539   5.758   8.069  3.4975  0.3192 -2.4181
  267MOL0     H35979   1.755   5.733   8.013  0.4941  1.4412  1.7082
  267MOL0     H35980   1.915   5.640   7.911  1.9578  1.6092 -0.3224
  267MOL0     H35981   2.007   5.717   8.036 -2.1309  2.9972 -4.1810
  267MOL0     H35982   2.127   5.618   7.843  0.4063  0.3561  0.8319
  267MOL0     H35983   2.080   5.458   7.896 -1.1098 -0.3700  0.4330
  267MOL0     H35984   2.194   5.502   8.106  1.4691 -2.8908 -1.4690
  267MOL0     H35985   2.242   5.671   8.044  0.6847  0.4488 -0.1756
  267MOL0     H35986   2.322   5.409   7.924 -2.5049  0.6502 -1.3889
  267MOL0     H35987   2.387   5.570   7.877 -0.9405 -0.6306  0.1796
  267MOL0     H35988   2.475   5.627   8.072  0.5754  0.5902 -2.2347
  267MOL0     H35989   2.437   5.457   8.139 -3.3346 -1.1106 -1.9427
  267MOL0     H35990   2.602   5.366   7.973 -0.7409  0.0605  1.3918
  267MOL0     H35991   2.621   5.524   7.905 -1.3960 -0.0507 -0.0050
  267MOL0     H35992   2.722   5.598   8.125  0.1524  0.0574 -1.2909
  267MOL0     H35993   2.814   5.462   8.062  0.2867 -1.8806  0.4273
  267MOL0     H35994   2.605   5.437   8.277  0.0324 -1.6734  0.6864
  267MOL0     H35995   2.686   5.314   8.198 -1.8767  0.7885  0.4266
  267MOL0     H35996   2.755   5.389   8.532 -0.8470 -0.8005 -1.6708
  267MOL0     H35997   2.902   5.470   8.713 -1.8670  2.5972 -0.2405
  267MOL0     H35998   3.079   5.476   8.645  0.1682  0.9446 -1.7732
  267MOL0     H35999   3.025   5.657   8.802 -1.2538 -1.0856 -0.0172
  267MOL0     H36000   3.084   5.699   8.635 -0.2849  0.6864 -0.3882
  267MOL0     H36001   2.787   5.687   8.669  1.2360 -1.0466 -1.7739
  267MOL0     H36002   2.885   5.789   8.569  0.4534  0.4888 -0.1023
  267MOL0     H36003   2.950   5.917   8.782 -1.3184  1.4471 -0.1897
  267MOL0     H36004   2.843   5.816   8.874 -1.5014  2.2116  1.3154
  267MOL0     H36005   2.597   6.052   8.593 -0.7004  1.5918  0.5761
  267MOL0     H36006   2.333   6.020   8.582  0.2795  1.2682  0.5116
  267MOL0     H36007   2.071   5.728   9.069  1.0752  0.9979 -0.1589
  267MOL0     H36008   1.819   5.681   9.135 -2.3438  0.8147 -0.4259
  267MOL0     H36009   1.531   5.757   8.839 -0.2413  0.4958  0.2347
  267MOL0     H36010   1.552   5.570   8.833 -2.3313 -1.0762  1.1860
  267MOL0     H36011   1.330   5.622   8.877  0.6888 -0.4602 -1.3645
  267MOL0     H36012   1.402   5.564   9.032 -2.1866 -0.2873 -0.5151
  267MOL0     H36013   1.421   5.820   9.087  0.1136 -0.5405  0.9766
  267MOL0     H36014   1.316   5.842   8.954  0.8427  0.2615  0.8743
  267MOL0     H36015   1.250   5.650   9.191 -1.8126  0.8670  2.6697
  267MOL0     H36016   1.145   5.688   9.063  2.1084 -1.7603 -1.8076
  267MOL0     H36017   1.160   5.927   9.120  2.5906  0.9746  0.7232
  267MOL0     H36018   1.264   5.896   9.258  1.1410 -0.2350 -1.2181
  267MOL0     H36019   1.036   5.951   9.327 -0.7106 -1.0895  1.9255
  267MOL0     H36020   0.962   5.829   9.246 -0.8037  1.4471  2.0446
  267MOL0     H36021   1.148   5.795   9.473  1.6005 -3.3458  0.0652
  267MOL0     H36022   1.100   5.659   9.378 -1.5458 -0.1497 -2.7643
  267MOL0     H36023   0.971   5.802   9.596 -0.3840  1.5087 -0.0518
  267MOL0     H36024   0.860   5.790   9.461 -0.4899  0.6153  0.4904
  267MOL0     H36025   1.707   5.711   8.735  0.5156  0.3257  0.2066
  267MOL0     H36026   1.943   5.742   8.660 -2.3263  0.3839 -0.2134
  267MOL0     H36027   2.393   5.717   8.877 -0.0085 -0.2095  0.3002
  267MOL0     H36028   2.637   5.750   8.889 -0.9964 -0.6777  1.3229
  267MOL0     H36029   1.792   5.424   8.315  0.5570  1.3810  0.3076
  267MOL0     H36030   1.562   5.461   8.369 -1.0672  0.1324 -0.6300
  267MOL0     H36031   1.258   5.584   8.626  1.4809 -0.6765 -1.6406
  267MOL0     H36032   1.026   5.604   8.708 -0.4357  1.6923  0.0032
  267MOL0     H36033   0.661   5.736   8.664 -0.5252 -0.3295 -0.3341
  267MOL0     H36034   0.807   5.692   8.757 -0.5554 -0.0606 -0.0938
  267MOL0     H36035   0.781   5.457   8.693 -1.3968  0.0090  2.4291
  267MOL0     H36036   0.672   5.492   8.560 -0.3461 -3.5940  0.6953
  267MOL0     H36037   0.501   5.576   8.727 -2.1957 -2.6485 -1.7853
  267MOL0     H36038   0.624   5.557   8.860  1.1637 -1.5203 -0.1876
  267MOL0     H36039   0.587   5.309   8.699 -0.7732  1.4371 -1.9143
  267MOL0     H36040   0.569   5.330   8.880  3.3591  1.8843 -1.3872
  267MOL0     H36041   0.166   5.353   8.755  0.0858 -1.7431 -2.5806
  267MOL0     H36042   0.912   5.764   8.325  2.5604  1.0994 -3.2788
  267MOL0     H36043   1.247   5.841   8.199 -2.0140  2.8121 -2.3802
  267MOL0     H36044   1.181   5.684   8.143  0.9310 -1.5224  2.9499
  267MOL0     H36045   1.079   5.823   8.152 -1.4195 -2.0678  0.0714
  268MOL0     O36046   1.710   6.577   0.004  0.6901  0.5630 -0.1222
  268MOL0     C36047   1.606   6.640  -0.008 -0.0905 -0.4670 -0.5007
  268MOL0     O36048   1.607   6.775  -0.030  0.3678 -0.5866  0.4008
  268MOL0     C36049   1.720   6.842  -0.076  0.1889  0.0411 -0.0685
  268MOL0     C36050   1.814   6.879   0.014  0.0349  1.2104  0.3095
  268MOL0     C36051   1.932   6.945  -0.027  0.1991  0.0766  1.0980
  268MOL0     C36052   1.957   6.966  -0.164 -0.7756  0.8996 -0.3821
  268MOL0     O36053   2.079   7.026  -0.206 -0.2113  0.6752  0.1681
  268MOL0     C36054   2.198   6.942  -0.181 -0.3881 -0.5854  0.1582
  268MOL0     C36055   2.321   7.009  -0.242  0.3286  0.3003 -0.2742
  268MOL0     C36056   2.438   6.913  -0.235  0.2790 -0.3541  0.2293
  268MOL0     C36057   2.563   6.982  -0.306  0.5802  0.6527  0.4782
  268MOL0     C36058   2.673   6.885  -0.317  0.2604 -0.1848  0.9192
  268MOL0     C36059   2.798   6.947  -0.383 -0.2062  0.0139  1.5188
  268MOL0     C36060   2.916   6.850  -0.397 -0.7001  0.1731  0.4224
  268MOL0     C36061   2.888   6.759  -0.518  0.1088 -0.2705  0.7146
  268MOL0     N36062   3.014   6.721  -0.574 -0.7932  0.0370 -0.2067
  268MOL0     C36063   3.086   6.778  -0.676  0.0917 -1.2744 -0.6746
  268MOL0     C36064   3.203   6.712  -0.689  0.2930 -0.1187 -0.2031
  268MOL0     C36065   3.296   6.716  -0.799 -0.4007  0.3041  0.0385
  268MOL0     C36066   3.390   6.839  -0.799 -0.1587 -0.9354  0.1689
  268MOL0     C36067   3.488   6.844  -0.685  0.0850  0.1363  0.0458
  268MOL0     C36068   3.598   6.735  -0.681 -0.5409 -0.2469 -0.6951
  268MOL0     O36069   3.684   6.764  -0.791  0.1470  0.2249 -0.5083
  268MOL0     C36070   3.802   6.693  -0.808  0.2094  0.1226 -0.2197
  268MOL0     C36071   3.845   6.590  -0.725 -0.0864 -0.2061 -0.0466
  268MOL0     C36072   3.968   6.524  -0.759 -0.0475 -0.6617  0.9584
  268MOL0     C36073   4.029   6.560  -0.872 -0.0095  0.6694  0.3655
  268MOL0     C36074   4.159   6.494  -0.911 -0.1127 -0.2151 -0.5762
  268MOL0     O36075   4.218   6.519  -1.034  1.5108 -0.1534  0.5009
  268MOL0     C36076   4.321   6.446  -1.078  0.0273 -1.3426  0.4498
  268MOL0     C36077   4.437   6.428  -1.013 -0.1845 -0.6930  0.0745
  268MOL0     C36078   4.531   6.340  -1.073 -0.0711 -1.0775  0.6835
  268MOL0     C36079   4.512   6.287  -1.201 -0.1532  0.3965  0.1158
  268MOL0     O36080   4.608   6.201  -1.253  0.6507  0.0047  0.5014
  268MOL0     C36081   4.741   6.194  -1.204 -0.4325  0.8186  1.0808
  268MOL0     C36082   4.811   6.103  -1.305  0.4478  0.9068  0.1075
  268MOL0     C36083   4.821   5.960  -1.271 -0.1763 -0.1274 -0.1082
  268MOL0     C36084   4.690   5.901  -1.216  0.2957 -0.8109 -0.6511
  268MOL0     C36085   4.689   5.747  -1.212  0.4292  0.1612 -0.0186
  268MOL0     C36086   4.620   5.691  -1.086 -0.2039  0.6229  0.0200
  268MOL0     C36087   4.628   5.542  -1.082  0.5961 -0.9748  0.3029
  268MOL0     C36088   4.756   5.481  -1.021  0.6335  0.3277  0.2295
  268MOL0    Cl36089   4.762   5.520  -0.848 -0.1179  0.0093 -0.2931
  268MOL0     C36090   4.399   6.327  -1.274  0.3018  0.0711  0.2561
  268MOL0     C36091   4.298   6.394  -1.213 -0.4746  0.3121 -0.4253
  268MOL0     O36092   4.202   6.416  -0.826 -0.2267  0.0495 -0.1410
  268MOL0     C36093   3.987   6.666  -0.949  0.7472 -0.3824  0.1024
  268MOL0     C36094   3.870   6.737  -0.918  0.2505  0.4562 -0.4620
  268MOL0     N36095   3.199   6.616  -0.594 -0.0588  0.4776  0.1555
  268MOL0     N36096   3.085   6.610  -0.535 -0.7917  0.3840  1.0062
  268MOL0     C36097   1.855   6.941  -0.254 -0.2617  0.3770  0.6507
  268MOL0     C36098   1.736   6.871  -0.219  0.2419 -0.4456  0.0082
  268MOL0     C36099   1.479   6.564   0.018  0.2625  0.9632  0.8333
  268MOL0     C36100   1.480   6.426   0.003 -0.4418 -0.4413  0.3821
  268MOL0     C36101   1.372   6.340   0.016 -0.1985  0.2221 -0.9321
  268MOL0     C36102   1.246   6.393   0.047  0.7677 -0.1897 -0.4929
  268MOL0     O36103   1.129   6.325   0.061 -0.0157  0.0021 -0.1769
  268MOL0     C36104   1.119   6.200  -0.006 -0.5162 -0.1404 -0.9600
  268MOL0     C36105   1.011   6.118   0.047  0.9462  0.7883 -0.0429
  268MOL0     C36106   1.029   5.980  -0.014 -0.5736  0.9827 -0.7094
  268MOL0     C36107   0.935   5.860   0.018  0.1963 -0.5166 -0.5845
  268MOL0     C36108   0.798   5.884   0.048  0.1246 -0.1243  0.5935
  268MOL0     C36109   0.682   5.914   0.070 -0.3835  0.6140  0.5243
  268MOL0     C36110   1.243   6.536   0.067 -0.0748 -0.5046  0.3631
  268MOL0     C36111   1.354   6.627   0.059  0.2676  0.5853  0.0414
  268MOL0     C36112   1.340   6.773   0.104  0.7311 -0.5630  0.4720
  268MOL0     H36113   1.800   6.834   0.112  2.0451 -0.9387 -0.2925
  268MOL0     H36114   2.008   6.977   0.044  3.6975  1.1280 -2.7154
  268MOL0     H36115   2.218   6.927  -0.074 -1.4971  2.3661  0.8801
  268MOL0     H36116   2.186   6.843  -0.226  4.7520 -0.9976 -0.8248
  268MOL0     H36117   2.350   7.096  -0.182 -2.3792  0.4862  0.9024
  268MOL0     H36118   2.303   7.033  -0.347 -0.0234  1.9246  0.1306
  268MOL0     H36119   2.406   6.836  -0.306  1.3420  0.5443 -1.2791
  268MOL0     H36120   2.449   6.871  -0.135 -3.1631 -0.5707  0.6436
  268MOL0     H36121   2.540   7.025  -0.404  2.6691 -1.7511 -1.1944
  268MOL0     H36122   2.594   7.063  -0.240  1.7486 -0.6072  1.5206
  268MOL0     H36123   2.710   6.841  -0.224  1.5159  2.6266  1.8429
  268MOL0     H36124   2.632   6.798  -0.369 -0.1464  0.6297 -0.1646
  268MOL0     H36125   2.777   6.984  -0.484  0.8927 -2.8425  0.1482
  268MOL0     H36126   2.836   7.032  -0.325  1.5514  0.5716 -0.3521
  268MOL0     H36127   2.938   6.796  -0.304  0.9515 -0.5686 -0.3505
  268MOL0     H36128   3.003   6.915  -0.412  0.2518 -0.6937  1.9461
  268MOL0     H36129   2.822   6.675  -0.495  0.5871 -2.4814 -4.4708
  268MOL0     H36130   2.841   6.818  -0.597  1.5174 -2.1884 -1.7008
  268MOL0     H36131   3.058   6.863  -0.738  3.0343  1.4962  1.4659
  268MOL0     H36132   3.360   6.628  -0.805  0.0181  0.5938  0.1600
  268MOL0     H36133   3.228   6.728  -0.884  0.1917 -1.4853 -0.7467
  268MOL0     H36134   3.444   6.832  -0.894  1.1257  0.0012  0.7955
  268MOL0     H36135   3.327   6.929  -0.798 -1.8103 -2.0487 -0.4532
  268MOL0     H36136   3.440   6.832  -0.588  0.7527 -0.7774  0.2832
  268MOL0     H36137   3.542   6.939  -0.686 -1.0617  0.8083 -1.4267
  268MOL0     H36138   3.560   6.634  -0.667 -1.2239  0.4559  4.6611
  268MOL0     H36139   3.651   6.748  -0.586 -2.4738  0.3038  0.3607
  268MOL0     H36140   3.792   6.556  -0.636 -0.3434  2.0101  0.6966
  268MOL0     H36141   3.990   6.431  -0.708  1.1781  0.2646  2.1787
  268MOL0     H36142   4.447   6.476  -0.916 -1.7281 -0.0501 -0.0557
  268MOL0     H36143   4.615   6.305  -1.014  0.0830  1.5348  2.1789
  268MOL0     H36144   4.798   6.287  -1.202  1.3215 -0.1782  0.2186
  268MOL0     H36145   4.736   6.153  -1.103  0.5975 -0.9674  0.4569
  268MOL0     H36146   4.776   6.126  -1.407 -0.5861 -1.6036 -0.1795
  268MOL0     H36147   4.918   6.126  -1.301  0.6431  0.0773 -0.0348
  268MOL0     H36148   4.855   5.910  -1.362 -1.8711  1.7960 -1.9086
  268MOL0     H36149   4.892   5.948  -1.188 -2.9085 -1.5848  2.1608
  268MOL0     H36150   4.606   5.940  -1.275  1.8072  4.9452  0.4778
  268MOL0     H36151   4.670   5.934  -1.114 -1.6107 -4.3400  0.2940
  268MOL0     H36152   4.791   5.708  -1.220 -0.4153 -2.3573  0.2869
  268MOL0     H36153   4.651   5.707  -1.306  0.3020  1.4241 -0.5096
  268MOL0     H36154   4.665   5.726  -0.993  1.6111  2.1130 -1.3657
  268MOL0     H36155   4.512   5.708  -1.091 -0.0980  1.1727 -0.5349
  268MOL0     H36156   4.605   5.508  -1.184 -1.4436 -1.9627  1.0228
  268MOL0     H36157   4.547   5.497  -1.024 -0.1793 -2.9018 -2.0930
  268MOL0     H36158   4.754   5.373  -1.040 -1.9170  0.9835 -5.2712
  268MOL0     H36159   4.851   5.526  -1.052  1.1226  2.2861  3.9654
  268MOL0     H36160   4.386   6.287  -1.374 -0.9154 -1.4421  0.9818
  268MOL0     H36161   4.203   6.396  -1.266 -0.1140  2.9872 -1.1346
  268MOL0     H36162   4.047   6.697  -1.034  0.7983  0.3756  0.4011
  268MOL0     H36163   3.837   6.823  -0.975  3.1176  1.3529 -0.9323
  268MOL0     H36164   1.860   6.963  -0.361 -1.4282 -0.1380  0.4791
  268MOL0     H36165   1.653   6.849  -0.286  0.2018 -0.9367  0.2130
  268MOL0     H36166   1.572   6.375  -0.022  0.5113  1.1571  0.4927
  268MOL0     H36167   1.396   6.235   0.019 -2.0243 -0.2073 -0.2033
  268MOL0     H36168   1.213   6.146   0.012 -1.3449 -0.6766  2.7288
  268MOL0     H36169   1.108   6.222  -0.112 -3.2704  1.8129 -0.3769
  268MOL0     H36170   0.919   6.171   0.020  1.6474  1.4375 -1.2619
  268MOL0     H36171   1.011   6.094   0.154 -0.3853 -2.5243 -0.6473
  268MOL0     H36172   1.128   5.945   0.015 -0.7415  1.1240  0.0485
  268MOL0     H36173   1.024   5.991  -0.123  2.1998 -0.1394 -1.0119
  268MOL0     H36174   0.929   5.795  -0.069  0.9653 -0.0851 -0.9758
  268MOL0     H36175   0.975   5.813   0.109 -1.6169 -0.6327  0.1923
  268MOL0     H36176   0.580   5.938   0.087 -0.4638 -0.9642  2.6170
  268MOL0     H36177   1.141   6.569   0.085 -0.9528 -2.7585 -0.1509
  268MOL0     H36178   1.422   6.811   0.165 -0.8540  1.0245  1.7473
  268MOL0     H36179   1.327   6.841   0.019 -0.2722 -0.4384  0.7025
  268MOL0     H36180   1.256   6.782   0.174 -0.4916  2.1071 -1.1819
  269MOL0     O36181   3.509   8.617   6.561 -0.0268 -0.7838 -0.4143
  269MOL0     C36182   3.421   8.554   6.619 -0.8128 -0.4081 -0.0950
  269MOL0     O36183   3.444   8.433   6.674  0.4931 -0.7004  0.4343
  269MOL0     C36184   3.558   8.364   6.663 -0.9304  0.7441  0.0309
  269MOL0     C36185   3.684   8.421   6.704  0.4121 -0.1312  0.1051
  269MOL0     C36186   3.801   8.350   6.719 -0.5749 -0.0521 -0.0748
  269MOL0     C36187   3.796   8.212   6.685 -1.2952 -0.2224  0.1581
  269MOL0     O36188   3.910   8.130   6.696  0.2847 -0.2016 -0.4747
  269MOL0     C36189   4.026   8.187   6.629 -0.4402  0.7548 -0.4897
  269MOL0     C36190   4.123   8.074   6.589 -0.4381 -0.6513  0.5929
  269MOL0     C36191   4.259   8.135   6.551  1.7407  0.3905 -0.3242
  269MOL0     C36192   4.312   8.103   6.403 -0.4888  0.5288  0.0701
  269MOL0     C36193   4.465   8.128   6.410  0.2008  0.6888  0.4568
  269MOL0     C36194   4.511   8.112   6.265 -0.1817 -0.0041 -0.0788
  269MOL0     C36195   4.663   8.071   6.254 -0.2032 -0.3580 -0.3770
  269MOL0     C36196   4.758   8.179   6.314 -0.6695 -0.2510  0.2325
  269MOL0     N36197   4.896   8.130   6.340  0.6290  0.4215 -0.0781
  269MOL0     C36198   4.981   8.069   6.256  0.9904 -0.3260  0.7610
  269MOL0     C36199   5.100   8.060   6.331  0.3629  0.5607 -0.3866
  269MOL0     C36200   5.238   8.011   6.273  0.8187  0.3738  0.7033
  269MOL0     C36201   5.349   8.013   6.379  0.2573  0.7209 -0.3685
  269MOL0     C36202   5.470   7.940   6.329 -0.3447  0.0529 -0.7575
  269MOL0     C36203   5.540   8.019   6.211 -0.7889 -0.0810  0.9513
  269MOL0     O36204   5.656   7.946   6.160 -0.2758  0.2539  0.5232
  269MOL0     C36205   5.781   7.983   6.212 -0.6014  0.3770  0.0362
  269MOL0     C36206   5.897   7.937   6.145 -0.4847  0.8362 -0.6126
  269MOL0     C36207   6.028   7.963   6.189  0.6457  0.6731  0.5957
  269MOL0     C36208   6.051   8.039   6.309  0.2546  0.6566 -0.2812
  269MOL0     C36209   6.179   8.057   6.373  0.6821  0.4220 -0.3586
  269MOL0     O36210   6.289   8.005   6.313  0.0035 -0.6844  0.3206
  269MOL0     C36211   6.406   8.016   6.376  0.2028 -0.6980 -0.1799
  269MOL0     C36212   6.451   7.929   6.477  0.1013 -0.5953  0.3170
  269MOL0     C36213   6.572   7.951   6.544 -0.0634 -1.1026 -0.4146
  269MOL0     C36214   6.656   8.050   6.499  0.2927 -0.2943  0.5063
  269MOL0     O36215   6.777   8.074   6.562  0.6049 -1.1358 -0.2172
  269MOL0     C36216   6.874   7.967   6.549 -0.6864 -0.4369 -0.2099
  269MOL0     C36217   6.975   7.989   6.441  0.2091  0.3367  0.4533
  269MOL0     C36218   7.045   8.121   6.447  0.4421  0.3417 -0.1383
  269MOL0     C36219   7.118   8.154   6.317  0.0703 -0.1023  0.4748
  269MOL0     C36220   7.169   8.296   6.307 -0.8533 -0.4252  0.1723
  269MOL0     C36221   7.279   8.304   6.196  0.3569 -0.4162 -0.1651
  269MOL0     C36222   7.227   8.277   6.056 -0.5350 -0.8545 -0.8244
  269MOL0     C36223   7.292   8.367   5.948 -0.3429  0.6702 -1.5390
  269MOL0    Cl36224   7.178   8.411   5.812  0.1065  0.1373 -0.2526
  269MOL0     C36225   6.619   8.130   6.388  0.6787  0.1974  0.5235
  269MOL0     C36226   6.488   8.112   6.328 -0.6494 -0.0309 -0.3965
  269MOL0     O36227   6.187   8.137   6.466 -0.2696 -0.5395  0.1532
  269MOL0     C36228   5.932   8.089   6.365 -0.2831 -0.0941 -0.4031
  269MOL0     C36229   5.803   8.054   6.325 -0.8923 -0.4017 -0.0358
  269MOL0     N36230   5.078   8.119   6.450  0.3089 -0.4638  0.7557
  269MOL0     N36231   4.957   8.164   6.456 -0.5382 -0.0872 -0.4276
  269MOL0     C36232   3.673   8.147   6.659 -0.7445 -0.9775  0.2324
  269MOL0     C36233   3.551   8.219   6.647 -0.5141  0.8684 -0.0484
  269MOL0     C36234   3.286   8.622   6.638 -0.4786  0.2640  0.2995
  269MOL0     C36235   3.245   8.727   6.551  0.2209  0.2941  0.1151
  269MOL0     C36236   3.128   8.799   6.576  0.3948 -0.0517  0.1453
  269MOL0     C36237   3.045   8.777   6.686 -0.0407  0.3881  0.0070
  269MOL0     O36238   2.943   8.865   6.707  0.2516 -0.6434  0.6056
  269MOL0     C36239   2.843   8.835   6.802 -0.6473  0.0005 -0.3733
  269MOL0     C36240   2.739   8.936   6.769  0.9618 -0.1558 -0.4997
  269MOL0     C36241   2.622   8.935   6.871  0.0246 -0.2449 -0.0376
  269MOL0     C36242   2.499   9.016   6.840 -0.3157  0.6009 -0.1045
  269MOL0     C36243   2.438   8.997   6.707 -0.3802 -0.7206  0.0726
  269MOL0     C36244   2.379   8.982   6.608 -0.5118  0.4476  0.2796
  269MOL0     C36245   3.081   8.672   6.768  0.5033  0.3371 -0.2025
  269MOL0     C36246   3.200   8.589   6.745  0.0982 -0.1469 -0.3741
  269MOL0     C36247   3.222   8.482   6.857  0.3228  0.2388  0.3723
  269MOL0     H36248   3.689   8.527   6.725  0.0487  0.0753 -0.7948
  269MOL0     H36249   3.888   8.403   6.757 -0.5752  1.0238 -1.5156
  269MOL0     H36250   3.999   8.227   6.531  0.7916 -3.1029 -2.5886
  269MOL0     H36251   4.055   8.257   6.708  1.0220 -1.9846  1.5690
  269MOL0     H36252   4.079   8.025   6.501  3.0428 -1.6877 -0.7697
  269MOL0     H36253   4.144   7.996   6.662  0.3899  0.4327  1.5402
  269MOL0     H36254   4.328   8.095   6.626 -1.9907 -3.5057  1.4502
  269MOL0     H36255   4.247   8.244   6.558 -1.0391  0.2349 -1.5814
  269MOL0     H36256   4.294   7.997   6.382 -0.7232  0.6264 -0.2440
  269MOL0     H36257   4.253   8.159   6.330 -0.6354 -0.6117 -0.7278
  269MOL0     H36258   4.491   8.229   6.444 -0.0801 -0.0462  3.1390
  269MOL0     H36259   4.525   8.058   6.469  2.9281  1.2313 -1.4767
  269MOL0     H36260   4.460   8.027   6.218  1.7498 -1.9053  1.0214
  269MOL0     H36261   4.490   8.193   6.195  4.6729  0.6297 -1.1455
  269MOL0     H36262   4.683   8.073   6.146  1.8898  0.1850 -0.0118
  269MOL0     H36263   4.686   7.972   6.295  3.1471  0.2676 -0.5258
  269MOL0     H36264   4.766   8.264   6.246  1.5147  1.1669  2.0920
  269MOL0     H36265   4.715   8.219   6.407 -0.2627  1.0480 -0.1188
  269MOL0     H36266   4.973   8.035   6.153  0.3955  0.0387  0.6849
  269MOL0     H36267   5.233   7.908   6.236  1.3950  0.3116  0.7975
  269MOL0     H36268   5.258   8.080   6.190 -1.6368  1.5156  0.9671
  269MOL0     H36269   5.368   8.117   6.410  1.6021 -0.2486  2.3700
  269MOL0     H36270   5.305   7.961   6.465 -1.0978 -0.1744 -1.5644
  269MOL0     H36271   5.443   7.838   6.298  4.5877 -1.4599 -0.8193
  269MOL0     H36272   5.545   7.939   6.408 -1.0084  2.7361  0.0187
  269MOL0     H36273   5.566   8.122   6.238  0.0811 -0.1605  0.4172
  269MOL0     H36274   5.460   8.019   6.137 -1.8109 -0.8894  2.0125
  269MOL0     H36275   5.881   7.873   6.058 -0.0246  0.0388 -0.1291
  269MOL0     H36276   6.117   7.923   6.141  0.8364  0.6849  0.9360
  269MOL0     H36277   6.378   7.855   6.508 -0.0607  0.6932  3.3531
  269MOL0     H36278   6.606   7.894   6.630  1.6029 -0.0873 -0.3558
  269MOL0     H36279   6.922   7.957   6.646 -0.1063  0.6746 -0.3728
  269MOL0     H36280   6.823   7.872   6.527  0.1274 -0.8817 -0.2156
  269MOL0     H36281   7.050   7.910   6.454  0.9104  0.4566 -2.2613
  269MOL0     H36282   6.928   7.968   6.344  0.2380  1.7868  0.0955
  269MOL0     H36283   6.972   8.200   6.469  2.1314  1.3268  2.4837
  269MOL0     H36284   7.120   8.125   6.526 -1.0961 -1.7384  1.5636
  269MOL0     H36285   7.049   8.141   6.233  0.1853 -1.8495  0.6142
  269MOL0     H36286   7.201   8.085   6.303  0.8611  0.8345  0.4498
  269MOL0     H36287   7.207   8.325   6.405  1.1551 -0.0386 -0.6596
  269MOL0     H36288   7.093   8.368   6.279 -1.1626 -0.2726  1.3606
  269MOL0     H36289   7.330   8.401   6.201  1.0462 -0.8113  0.9985
  269MOL0     H36290   7.362   8.239   6.224  0.3733  0.6531  2.6080
  269MOL0     H36291   7.121   8.306   6.059 -0.0729  0.8856  1.2299
  269MOL0     H36292   7.231   8.174   6.022  2.1599 -1.3575  0.7655
  269MOL0     H36293   7.325   8.452   6.008 -1.9458 -1.3890  2.6248
  269MOL0     H36294   7.377   8.319   5.897  0.0141 -0.6702  0.2309
  269MOL0     H36295   6.678   8.214   6.352 -1.0017  0.7081 -1.2536
  269MOL0     H36296   6.453   8.177   6.249 -0.0533  0.6709 -0.0917
  269MOL0     H36297   5.948   8.150   6.454  1.9102 -0.8833 -0.1991
  269MOL0     H36298   5.720   8.085   6.388  1.5487  1.0363  2.7166
  269MOL0     H36299   3.664   8.043   6.630  1.2060 -0.7136 -1.6037
  269MOL0     H36300   3.455   8.170   6.641  0.3290 -0.9256  0.2689
  269MOL0     H36301   3.304   8.751   6.464  1.1508 -0.1152  0.6235
  269MOL0     H36302   3.096   8.881   6.513 -2.7338 -0.8282  0.5913
  269MOL0     H36303   2.881   8.859   6.902 -0.2222  0.0365 -0.5443
  269MOL0     H36304   2.794   8.737   6.802 -0.6469  0.0013 -0.6020
  269MOL0     H36305   2.688   8.912   6.675 -1.7641 -0.3841  0.9169
  269MOL0     H36306   2.769   9.041   6.758  0.5915 -0.2655 -3.0779
  269MOL0     H36307   2.655   8.957   6.973 -0.2610 -2.2977  0.5542
  269MOL0     H36308   2.581   8.834   6.869  1.1618 -0.7160 -0.3436
  269MOL0     H36309   2.424   8.987   6.914  1.0201 -2.2797  0.2561
  269MOL0     H36310   2.535   9.119   6.847  1.1252  0.0460  1.1352
  269MOL0     H36311   2.312   8.970   6.526  0.5073 -5.1111 -0.1274
  269MOL0     H36312   3.036   8.657   6.865  0.3744  0.3943 -0.2535
  269MOL0     H36313   3.303   8.496   6.929  2.8564 -1.9756 -1.8788
  269MOL0     H36314   3.131   8.451   6.910  0.3086 -0.0000  0.2096
  269MOL0     H36315   3.245   8.387   6.808  1.3253  0.3857  0.5526
  270MOL0     O36316   0.591   9.856   5.715  0.6291  0.3439 -0.4411
  270MOL0     C36317   0.567   9.735   5.689  0.0628  0.5008 -0.4580
  270MOL0     O36318   0.646   9.657   5.601 -0.3896 -0.0195 -0.2103
  270MOL0     C36319   0.777   9.697   5.573  0.4777 -0.3016 -0.0348
  270MOL0     C36320   0.868   9.602   5.602 -0.0805 -0.0519 -0.3344
  270MOL0     C36321   1.007   9.617   5.582  0.8062 -1.4432 -0.1239
  270MOL0     C36322   1.055   9.743   5.541 -0.9790 -0.2025 -0.1416
  270MOL0     O36323   1.192   9.764   5.554 -0.5664 -0.3089 -0.0604
  270MOL0     C36324   1.246   9.896   5.571  0.0060 -0.1613  0.8156
  270MOL0     C36325   1.397   9.885   5.587 -0.3332  0.6306  0.3814
  270MOL0     C36326   1.464  10.002   5.518  0.6772 -0.2066 -0.0227
  270MOL0     C36327   1.621   9.994   5.530 -0.0990  0.0990  0.6810
  270MOL0     C36328   1.696  10.094   5.432  0.2211  0.3821  0.9973
  270MOL0     C36329   1.849  10.097   5.443 -0.5512  0.0331 -0.8927
  270MOL0     C36330   1.911  10.167   5.322  0.4579  0.0228 -0.2774
  270MOL0     C36331   2.064  10.131   5.314  0.6956 -0.2177  0.2047
  270MOL0     N36332   2.132  10.190   5.423 -0.1681  0.8851  0.0709
  270MOL0     C36333   2.194  10.312   5.409 -0.3690  0.7009  0.2361
  270MOL0     C36334   2.241  10.337   5.537  0.0889 -0.2895  0.6952
  270MOL0     C36335   2.303  10.470   5.581 -0.3899  0.1959 -0.3237
  270MOL0     C36336   2.438  10.449   5.650  0.2283  0.4041  0.7393
  270MOL0     C36337   2.544  10.399   5.550  0.4425 -0.2749  0.6226
  270MOL0     C36338   2.658  10.346   5.623 -0.3916  0.1685 -0.1125
  270MOL0     O36339   2.750  10.453   5.663 -0.1021 -0.3498  0.0077
  270MOL0     C36340   2.859  10.419   5.737 -0.5063  0.0258  0.2351
  270MOL0     C36341   2.941  10.526   5.771 -0.2535 -0.3263 -0.4935
  270MOL0     C36342   3.058  10.509   5.853  0.5726 -0.3182  0.5804
  270MOL0     C36343   3.068  10.385   5.919 -0.5736 -0.3625  0.5752
  270MOL0     C36344   3.175  10.361   6.015  0.8500  0.6899  0.9604
  270MOL0     O36345   3.213  10.221   6.045 -0.1073 -0.0659  0.2145
  270MOL0     C36346   3.313  10.193   6.139  0.0205  0.4700 -0.5068
  270MOL0     C36347   3.286  10.113   6.249  0.5194 -0.5746 -0.8267
  270MOL0     C36348   3.373  10.095   6.352  1.0573 -0.1498 -0.6828
  270MOL0     C36349   3.510  10.139   6.336 -0.6762  1.2918 -0.1722
  270MOL0     O36350   3.619  10.104   6.415 -0.0376 -0.7373  0.0007
  270MOL0     C36351   3.608   9.981   6.485  0.7906 -0.7948 -0.0654
  270MOL0     C36352   3.730   9.950   6.582  0.0532 -0.1058  0.1525
  270MOL0     C36353   3.851   9.916   6.500  0.2545 -0.2582  0.2141
  270MOL0     C36354   3.956   9.836   6.578  0.4574 -0.8199  0.7833
  270MOL0     C36355   4.090   9.822   6.507  0.7097  0.2075 -0.0892
  270MOL0     C36356   4.094   9.733   6.388 -0.0298  0.3925 -0.2842
  270MOL0     C36357   4.220   9.761   6.303 -0.1671 -0.4112  0.3000
  270MOL0     C36358   4.353   9.730   6.368 -0.3128 -0.0430 -0.1500
  270MOL0    Cl36359   4.353   9.570   6.454 -0.1949  0.0469  0.1365
  270MOL0     C36360   3.538  10.227   6.230  0.8235  0.0388 -0.2507
  270MOL0     C36361   3.442  10.254   6.126 -1.0011 -0.4568  0.5181
  270MOL0     O36362   3.232  10.462   6.061 -0.9076  0.2943  0.3408
  270MOL0     C36363   2.992  10.273   5.876 -0.4976  0.5062 -0.9583
  270MOL0     C36364   2.891  10.287   5.780 -0.4833  0.0266 -0.0755
  270MOL0     N36365   2.214  10.220   5.616 -0.9698  0.3333 -0.3505
  270MOL0     N36366   2.150  10.133   5.546  0.8918  0.0422 -0.5480
  270MOL0     C36367   0.954   9.840   5.507 -0.9682 -0.7240  0.6768
  270MOL0     C36368   0.816   9.817   5.514 -0.7438 -0.2870  0.4210
  270MOL0     C36369   0.436   9.672   5.739 -0.4890 -0.5347 -0.5962
  270MOL0     C36370   0.413   9.538   5.714  0.1755  0.2482  0.7274
  270MOL0     C36371   0.297   9.472   5.768 -0.3509 -0.6793  0.1361
  270MOL0     C36372   0.203   9.539   5.840 -0.1856 -0.2303  0.0948
  270MOL0     O36373   0.093   9.499   5.904  0.8004  0.7622  0.6737
  270MOL0     C36374   0.043   9.363   5.887  0.3460  0.9874 -0.3529
  270MOL0     C36375  -0.094   9.338   5.945 -0.0100  0.0220 -0.6377
  270MOL0     C36376  -0.194   9.456   5.936 -0.2707  0.2898  1.0167
  270MOL0     C36377  -0.318   9.429   6.018 -0.2925  0.8867  0.3526
  270MOL0     C36378  -0.439   9.493   5.972  0.2207  0.0526  0.7018
  270MOL0     C36379  -0.536   9.551   5.918  0.0735 -0.2550 -0.7942
  270MOL0     C36380   0.225   9.671   5.859 -0.5958  0.2995  0.2383
  270MOL0     C36381   0.333   9.747   5.805 -0.1249  0.2300  0.1435
  270MOL0     C36382   0.316   9.901   5.815 -0.6019 -0.2697 -0.2390
  270MOL0     H36383   0.814   9.518   5.644 -5.1552  1.6888 -2.5040
  270MOL0     H36384   1.068   9.533   5.613 -0.3306 -0.9853  4.0620
  270MOL0     H36385   1.227   9.951   5.478  0.3838 -3.5798 -1.4677
  270MOL0     H36386   1.181   9.928   5.654 -1.8857 -2.6819  0.4407
  270MOL0     H36387   1.427   9.797   5.529 -0.6266 -0.5766  2.0045
  270MOL0     H36388   1.427   9.877   5.691  2.4234 -1.2118 -0.4260
  270MOL0     H36389   1.433  10.098   5.561  3.0045  1.4640 -1.8347
  270MOL0     H36390   1.444   9.993   5.411  0.5301 -1.9440  0.1239
  270MOL0     H36391   1.649  10.038   5.626 -0.1066  2.4897 -0.3429
  270MOL0     H36392   1.673   9.898   5.518  0.7081  0.8029 -2.3919
  270MOL0     H36393   1.673  10.071   5.328 -0.1779 -0.6391  1.3033
  270MOL0     H36394   1.647  10.191   5.450 -1.5466 -0.5972  1.6668
  270MOL0     H36395   1.878  10.150   5.534  0.6894 -0.8024 -0.7654
  270MOL0     H36396   1.892   9.997   5.445  0.0871  0.3058  0.7167
  270MOL0     H36397   1.893  10.275   5.326 -1.4015 -0.2801  0.1569
  270MOL0     H36398   1.860  10.135   5.231  0.3372 -3.0757  0.7876
  270MOL0     H36399   2.073  10.022   5.316  3.1821 -0.0808  2.1524
  270MOL0     H36400   2.103  10.150   5.214 -3.1633  1.1963 -1.2183
  270MOL0     H36401   2.192  10.387   5.331  0.9602  0.9950  0.4551
  270MOL0     H36402   2.325  10.522   5.488  0.1764 -1.4820 -1.1603
  270MOL0     H36403   2.244  10.532   5.649 -2.8382 -1.2499 -1.0061
  270MOL0     H36404   2.475  10.540   5.698 -0.7659  0.7259  0.9238
  270MOL0     H36405   2.423  10.380   5.734 -2.3762  2.1375  1.8161
  270MOL0     H36406   2.562  10.469   5.468  0.9687 -2.5410 -1.3308
  270MOL0     H36407   2.503  10.314   5.495 -2.4609  1.8522 -0.7304
  270MOL0     H36408   2.720  10.280   5.562 -0.3567  0.5047 -0.4424
  270MOL0     H36409   2.621  10.281   5.702 -0.2850 -0.1211 -0.2977
  270MOL0     H36410   2.910  10.624   5.738  0.8781  0.2312  0.0115
  270MOL0     H36411   3.126  10.589   5.880 -0.6035  0.2406  2.0626
  270MOL0     H36412   3.181  10.088   6.262 -0.2708  2.2853 -1.1416
  270MOL0     H36413   3.338  10.039   6.438  0.0171 -0.1072 -1.0573
  270MOL0     H36414   3.523   9.980   6.554  0.8655 -2.4026  0.0460
  270MOL0     H36415   3.585   9.909   6.407 -1.2555  0.8504 -1.0781
  270MOL0     H36416   3.741  10.032   6.653  2.2170  2.6209 -3.0395
  270MOL0     H36417   3.707   9.862   6.643 -1.0458  0.3552  0.4252
  270MOL0     H36418   3.825   9.861   6.410 -1.7241  0.1352  0.4910
  270MOL0     H36419   3.901  10.009   6.470  1.8741 -1.5230 -1.1659
  270MOL0     H36420   3.913   9.737   6.600 -3.4652  0.3863 -0.6255
  270MOL0     H36421   3.974   9.888   6.672 -1.1522 -0.4491  0.9176
  270MOL0     H36422   4.170   9.784   6.571  0.1965 -0.8483 -0.0676
  270MOL0     H36423   4.108   9.927   6.479  0.1619  0.3238 -0.0170
  270MOL0     H36424   4.086   9.631   6.426 -1.1074  1.1216  1.5605
  270MOL0     H36425   4.004   9.758   6.331  0.7526 -0.6275 -2.0414
  270MOL0     H36426   4.225   9.863   6.264  1.0378 -0.8235 -0.6913
  270MOL0     H36427   4.220   9.708   6.207 -0.8720  1.7957 -0.9997
  270MOL0     H36428   4.430   9.736   6.291 -1.7841 -1.4320 -1.8166
  270MOL0     H36429   4.359   9.806   6.446  0.9929 -0.7677  0.4849
  270MOL0     H36430   3.641  10.258   6.241  1.0446 -0.2613 -1.3011
  270MOL0     H36431   3.463  10.322   6.045 -0.5764  1.3888  2.1006
  270MOL0     H36432   3.020  10.176   5.916  0.0517  0.2454 -1.9227
  270MOL0     H36433   2.839  10.203   5.735  0.5345 -0.7096  0.0538
  270MOL0     H36434   0.986   9.940   5.478 -0.5928 -0.5852  1.5584
  270MOL0     H36435   0.750   9.902   5.499 -0.6947 -0.3580 -0.2428
  270MOL0     H36436   0.496   9.482   5.673 -1.5080 -2.9741  1.4155
  270MOL0     H36437   0.284   9.367   5.740  0.8371 -0.4368 -1.5094
  270MOL0     H36438   0.117   9.291   5.921  0.4953  0.3570 -1.9005
  270MOL0     H36439   0.025   9.351   5.779 -0.6338 -0.9949 -0.0208
  270MOL0     H36440  -0.099   9.319   6.052 -0.6819  0.8693 -0.5019
  270MOL0     H36441  -0.138   9.251   5.895 -1.4231 -0.5044  1.4075
  270MOL0     H36442  -0.236   9.489   5.841 -1.0712  3.8186  2.4426
  270MOL0     H36443  -0.135   9.541   5.972 -0.0707  1.2105 -1.2810
  270MOL0     H36444  -0.338   9.322   6.004  1.1708  0.8147 -1.6389
  270MOL0     H36445  -0.297   9.446   6.124 -0.2766  2.8190  0.0768
  270MOL0     H36446  -0.614   9.606   5.871  1.2763  4.4504  2.0571
  270MOL0     H36447   0.146   9.719   5.915 -1.1768  0.5136 -0.7340
  270MOL0     H36448   0.351   9.952   5.725 -0.0115  1.9517  1.1826
  270MOL0     H36449   0.210   9.921   5.831 -0.6536 -1.2436  0.7962
  270MOL0     H36450   0.368   9.935   5.905 -2.4084  1.8942  0.0736
  271MOL0     O36451  10.106   7.691   7.526 -0.1569  0.0263  0.2814
  271MOL0     C36452  10.113   7.617   7.614  0.3925  0.1249 -0.0195
  271MOL0     O36453  10.224   7.540   7.655  0.2616  0.1472  0.2929
  271MOL0     C36454  10.325   7.520   7.567  0.0875 -0.2349  0.1350
  271MOL0     C36455  10.402   7.411   7.600  0.6533 -0.0552 -0.2845
  271MOL0     C36456  10.503   7.363   7.513  0.3791  0.2209  0.8268
  271MOL0     C36457  10.545   7.436   7.406 -0.1773  0.2910  0.0783
  271MOL0     O36458  10.649   7.385   7.341  0.6083  0.1131 -0.2453
  271MOL0     C36459  10.697   7.463   7.226 -0.1355  0.5945 -0.3535
  271MOL0     C36460  10.806   7.374   7.170 -0.1584  0.5695  0.4041
  271MOL0     C36461  10.924   7.344   7.263 -0.2033  0.3744 -0.5629
  271MOL0     C36462  10.996   7.220   7.241  0.2957 -0.5146 -0.3137
  271MOL0     C36463  11.060   7.217   7.107  0.4991 -0.3867 -0.0491
  271MOL0     C36464  11.137   7.088   7.079 -0.1632  0.5256 -0.5530
  271MOL0     C36465  11.227   7.099   6.960 -0.6605 -0.6424 -0.0902
  271MOL0     C36466  11.283   6.963   6.923  0.3751 -0.4951 -0.2300
  271MOL0     N36467  11.405   6.976   6.847 -0.4141 -0.0590  0.3777
  271MOL0     C36468  11.533   6.980   6.904  0.3089 -0.3213  0.2576
  271MOL0     C36469  11.608   6.978   6.786 -0.1266 -0.2992 -0.0246
  271MOL0     C36470  11.759   6.964   6.773  0.7500  0.3358  0.3830
  271MOL0     C36471  11.822   7.038   6.651  0.3345 -0.1739  0.8414
  271MOL0     C36472  11.968   6.997   6.601  0.7161 -0.1647  0.0007
  271MOL0     C36473  12.042   7.097   6.521 -0.6889 -0.2578  0.3398
  271MOL0     O36474  12.170   7.041   6.493 -0.0511  0.8027 -0.1056
  271MOL0     C36475  12.256   7.124   6.429 -1.0945 -0.3991 -0.4879
  271MOL0     C36476  12.236   7.262   6.377 -0.6105  0.5071 -0.2373
  271MOL0     C36477  12.346   7.328   6.323 -0.3670  0.0351 -0.1547
  271MOL0     C36478  12.475   7.266   6.308  0.4935  0.0084  0.3190
  271MOL0     C36479  12.588   7.327   6.242 -0.1877 -0.0581  0.5087
  271MOL0     O36480  12.718   7.289   6.258 -0.0202 -0.2469  0.2435
  271MOL0     C36481  12.814   7.334   6.168  0.7272 -0.3830 -0.3261
  271MOL0     C36482  12.936   7.275   6.191  0.0330 -0.2949  0.5939
  271MOL0     C36483  13.054   7.315   6.123  0.3586 -0.5413  0.5337
  271MOL0     C36484  13.046   7.411   6.016 -0.2948 -0.3908 -0.6280
  271MOL0     O36485  13.159   7.441   5.942 -0.3569 -0.0819  0.0015
  271MOL0     C36486  13.274   7.475   6.010 -1.0095 -0.6309 -0.2887
  271MOL0     C36487  13.394   7.486   5.911  0.7816  0.0980 -0.0598
  271MOL0     C36488  13.502   7.577   5.982 -0.0194  0.2494  0.7173
  271MOL0     C36489  13.627   7.600   5.896 -0.4977 -0.3531  0.2903
  271MOL0     C36490  13.726   7.685   5.965  0.1939 -0.1069  0.2525
  271MOL0     C36491  13.843   7.728   5.879 -0.8519 -0.1907  0.4555
  271MOL0     C36492  13.935   7.613   5.827  0.6023  0.8618  0.3389
  271MOL0     C36493  14.073   7.664   5.773 -0.3407  0.4487 -0.3636
  271MOL0    Cl36494  14.043   7.782   5.642  0.3660 -0.3915 -0.1828
  271MOL0     C36495  12.925   7.477   5.997 -0.1921 -0.3951  0.0499
  271MOL0     C36496  12.807   7.432   6.059 -0.0028  1.1749  0.0455
  271MOL0     O36497  12.546   7.398   6.157 -0.4694  0.0799  0.0626
  271MOL0     C36498  12.487   7.137   6.364 -0.3772  0.7991  0.0335
  271MOL0     C36499  12.384   7.075   6.420  0.6844  0.3715  0.6230
  271MOL0     N36500  11.530   6.978   6.676 -0.2466 -0.2870 -0.3308
  271MOL0     N36501  11.410   6.961   6.715 -0.4992 -0.4004 -0.5576
  271MOL0     C36502  10.483   7.560   7.393  0.4268 -0.0111  0.0430
  271MOL0     C36503  10.368   7.604   7.467  0.6052 -0.2630 -0.8330
  271MOL0     C36504   9.992   7.601   7.711 -0.3441 -0.3332  0.2053
  271MOL0     C36505   9.966   7.474   7.761  0.1676 -0.4537  0.1841
  271MOL0     C36506   9.860   7.442   7.844 -0.1247 -0.1535 -0.1272
  271MOL0     C36507   9.765   7.539   7.880 -0.6419  0.2015 -0.2919
  271MOL0     O36508   9.671   7.500   7.979 -0.0843  0.4522  0.1581
  271MOL0     C36509   9.570   7.593   8.014 -0.1457  0.3914  0.8880
  271MOL0     C36510   9.438   7.576   7.930  0.2390  1.0345  0.8696
  271MOL0     C36511   9.341   7.685   7.971 -0.0224  0.2158 -0.0600
  271MOL0     C36512   9.335   7.822   7.886  0.4484  0.5827  0.0517
  271MOL0     C36513   9.252   7.923   7.946 -0.1524  0.4432  0.5450
  271MOL0     C36514   9.184   8.000   8.000 -0.0935 -0.7717  0.3176
  271MOL0     C36515   9.784   7.660   7.815  0.5186  0.5364 -0.0306
  271MOL0     C36516   9.888   7.692   7.730 -0.5836 -0.4552  0.5781
  271MOL0     C36517   9.885   7.833   7.669  0.9487 -0.0768 -0.4897
  271MOL0     H36518  10.368   7.357   7.688 -0.6832  1.1745 -0.0007
  271MOL0     H36519  10.546   7.264   7.524  0.3619  0.0979 -0.1565
  271MOL0     H36520  10.616   7.489   7.157  0.0325  2.4621  0.1026
  271MOL0     H36521  10.746   7.554   7.262 -0.4064  0.4186  0.4666
  271MOL0     H36522  10.862   7.430   7.094  1.8751  1.7119  2.5907
  271MOL0     H36523  10.767   7.278   7.135  1.0890 -0.0879  0.7531
  271MOL0     H36524  10.877   7.326   7.360 -2.1833  0.1851 -1.5026
  271MOL0     H36525  10.987   7.433   7.274 -3.6652  3.3063 -2.1251
  271MOL0     H36526  11.084   7.211   7.305  1.1759 -1.5973 -1.6074
  271MOL0     H36527  10.929   7.134   7.250  1.1238 -1.0658  0.9033
  271MOL0     H36528  10.993   7.242   7.024 -0.3615 -1.3960  0.3230
  271MOL0     H36529  11.137   7.295   7.108  0.2186 -0.0958  2.0239
  271MOL0     H36530  11.194   7.061   7.168  0.2136 -0.3980 -1.0629
  271MOL0     H36531  11.058   7.016   7.058  0.0059  0.4063 -0.7909
  271MOL0     H36532  11.309   7.165   6.989  0.6934 -2.2676 -0.0617
  271MOL0     H36533  11.180   7.137   6.869  1.3313  0.7612 -0.5898
  271MOL0     H36534  11.314   6.908   7.013 -2.3289  0.1990  1.2415
  271MOL0     H36535  11.211   6.902   6.869 -0.6681 -0.5541  1.1622
  271MOL0     H36536  11.571   6.986   7.006  0.5494  0.8091  0.1162
  271MOL0     H36537  11.818   7.008   6.854  1.1445 -0.0820  0.3321
  271MOL0     H36538  11.777   6.856   6.770 -0.9331  0.0504 -2.5529
  271MOL0     H36539  11.747   7.032   6.571 -0.5969 -0.8994  1.7501
  271MOL0     H36540  11.820   7.145   6.675  0.7686 -0.3199  1.5531
  271MOL0     H36541  11.948   6.908   6.540 -2.1845  0.5196 -0.2377
  271MOL0     H36542  12.011   6.960   6.695 -0.0800 -1.0492  0.0382
  271MOL0     H36543  12.053   7.189   6.579  1.1969  0.3840 -0.9300
  271MOL0     H36544  11.999   7.123   6.424  0.3832 -1.2701 -0.4338
  271MOL0     H36545  12.140   7.310   6.391 -0.8484 -0.7199  3.5767
  271MOL0     H36546  12.337   7.425   6.274 -0.5097 -0.7595 -1.7781
  271MOL0     H36547  12.937   7.197   6.266 -1.1384 -1.0189 -0.1194
  271MOL0     H36548  13.153   7.273   6.141  1.0114  1.5641  2.1647
  271MOL0     H36549  13.253   7.574   6.051 -0.0688 -0.2424 -0.7339
  271MOL0     H36550  13.301   7.407   6.091 -4.1363 -0.2667  1.2115
  271MOL0     H36551  13.432   7.384   5.901 -1.5635 -0.7073 -1.4096
  271MOL0     H36552  13.375   7.524   5.810 -0.3330  0.5069  0.2910
  271MOL0     H36553  13.461   7.678   5.987  2.1296  1.3016 -1.0083
  271MOL0     H36554  13.513   7.542   6.085  1.1466 -0.8615  0.2424
  271MOL0     H36555  13.604   7.664   5.810  1.9145 -0.1894 -0.2905
  271MOL0     H36556  13.675   7.507   5.864  1.4139  0.0138  1.9163
  271MOL0     H36557  13.765   7.631   6.052  3.0487 -0.5891 -1.2165
  271MOL0     H36558  13.692   7.774   6.020  0.8523  0.4464 -0.2274
  271MOL0     H36559  13.804   7.794   5.801 -0.4205 -0.5267 -0.0529
  271MOL0     H36560  13.908   7.790   5.942 -0.0204  0.1787 -0.7329
  271MOL0     H36561  13.888   7.579   5.735  1.4442 -0.2817  0.3111
  271MOL0     H36562  13.934   7.534   5.902 -1.1937 -1.4858 -1.9974
  271MOL0     H36563  14.119   7.706   5.862  0.2747 -1.9163  0.5121
  271MOL0     H36564  14.127   7.577   5.735 -0.6725  0.2782 -0.4554
  271MOL0     H36565  12.915   7.556   5.923  3.2284 -0.2546 -0.4445
  271MOL0     H36566  12.710   7.467   6.027 -1.6766 -2.4866  0.6575
  271MOL0     H36567  12.580   7.081   6.366 -0.6989  0.2801  1.9910
  271MOL0     H36568  12.400   6.979   6.467 -0.2258 -0.0255  0.1644
  271MOL0     H36569  10.510   7.645   7.332 -0.2607  0.2541  0.0940
  271MOL0     H36570  10.330   7.705   7.459  3.2360  0.8560 -0.3737
  271MOL0     H36571  10.050   7.408   7.739 -0.2210 -0.1728 -2.4552
  271MOL0     H36572   9.850   7.344   7.889 -1.0778  1.1378  2.6673
  271MOL0     H36573   9.608   7.695   8.000 -0.1162  0.2263 -0.2881
  271MOL0     H36574   9.544   7.582   8.120 -2.7858 -1.4062  0.1273
  271MOL0     H36575   9.399   7.477   7.957 -0.2582  1.0273  0.1596
  271MOL0     H36576   9.454   7.569   7.822  4.8089 -1.9901  1.4376
  271MOL0     H36577   9.359   7.711   8.075  2.2737  2.4612 -0.9179
  271MOL0     H36578   9.241   7.640   7.966 -1.0048  1.8424  2.5795
  271MOL0     H36579   9.439   7.847   7.864  0.6957 -2.2838 -2.8963
  271MOL0     H36580   9.299   7.794   7.786 -0.1739 -0.0002  0.4286
  271MOL0     H36581   9.133   8.078   8.053  0.5161  2.1826 -3.0800
  271MOL0     H36582   9.713   7.739   7.836  1.2357  0.7404  1.7992
  271MOL0     H36583   9.867   7.837   7.561  3.7143  0.4883 -1.0025
  271MOL0     H36584   9.800   7.892   7.707 -0.4118 -3.9153  3.1664
  271MOL0     H36585   9.987   7.869   7.689  1.1652 -0.5413 -0.7566
  272MOL0     O36586  11.057   4.922   8.352 -0.0385  0.1848  0.1820
  272MOL0     C36587  11.023   4.820   8.408  0.1760 -0.5253  0.7889
  272MOL0     O36588  11.084   4.768   8.513 -0.1020  1.0066  0.4211
  272MOL0     C36589  11.215   4.792   8.540  0.2624  0.3662 -0.1865
  272MOL0     C36590  11.250   4.902   8.617  0.4586  0.0965 -0.1756
  272MOL0     C36591  11.381   4.920   8.657 -0.0227  0.1172  0.1936
  272MOL0     C36592  11.479   4.826   8.625 -0.2662 -0.4184 -0.4703
  272MOL0     O36593  11.608   4.864   8.660 -0.3634 -1.1111  0.8922
  272MOL0     C36594  11.718   4.769   8.639 -0.5327  0.6904  0.0222
  272MOL0     C36595  11.821   4.817   8.739  0.1922 -0.0720 -0.4598
  272MOL0     C36596  11.941   4.720   8.753  0.3103 -0.5614 -0.1581
  272MOL0     C36597  12.025   4.733   8.623 -0.2671  0.3800  0.9733
  272MOL0     C36598  12.167   4.692   8.656  0.0047 -0.4045 -0.4667
  272MOL0     C36599  12.186   4.549   8.720  0.1324  0.3291 -0.1322
  272MOL0     C36600  12.331   4.537   8.760 -0.6680 -1.0133  0.4792
  272MOL0     C36601  12.371   4.399   8.821  0.4468  0.7157 -0.1250
  272MOL0     N36602  12.506   4.372   8.850 -0.1521  0.4624 -1.1307
  272MOL0     C36603  12.612   4.435   8.786 -0.2941  0.3922 -0.9318
  272MOL0     C36604  12.721   4.391   8.853 -0.4513  0.0115 -0.6832
  272MOL0     C36605  12.855   4.439   8.830  0.9411 -0.1759  1.0615
  272MOL0     C36606  12.959   4.325   8.797  0.7678  0.1359 -0.7566
  272MOL0     C36607  13.098   4.381   8.785  0.1954 -0.1304 -0.3078
  272MOL0     C36608  13.196   4.287   8.719 -0.1585  0.3987  0.1736
  272MOL0     O36609  13.324   4.349   8.728  0.1895  0.0447 -0.5037
  272MOL0     C36610  13.438   4.295   8.683 -0.0111 -0.0864  0.0332
  272MOL0     C36611  13.556   4.370   8.705  0.0819  0.0474 -0.5896
  272MOL0     C36612  13.674   4.328   8.657 -0.6199 -0.7253  0.3805
  272MOL0     C36613  13.695   4.192   8.600  0.1791  0.1341 -0.4292
  272MOL0     C36614  13.827   4.135   8.590  0.6722 -0.7526  0.0921
  272MOL0     O36615  13.831   3.998   8.564 -0.3118  0.3094  0.1020
  272MOL0     C36616  13.962   3.958   8.558  0.0373  0.2944 -0.4055
  272MOL0     C36617  14.044   3.941   8.672  0.4681  0.2495 -0.1340
  272MOL0     C36618  14.164   3.865   8.663 -0.3202 -0.3462  0.3376
  272MOL0     C36619  14.196   3.804   8.545 -0.0176  0.2688  0.0730
  272MOL0     O36620  14.294   3.714   8.521 -0.4229 -0.0826  0.2603
  272MOL0     C36621  14.408   3.712   8.604 -0.4545 -0.0864 -0.0181
  272MOL0     C36622  14.502   3.588   8.566  0.0207 -1.0828 -0.1235
  272MOL0     C36623  14.555   3.589   8.423 -0.9159  0.4155  1.2856
  272MOL0     C36624  14.651   3.477   8.382 -0.0806 -0.6814  0.9413
  272MOL0     C36625  14.668   3.480   8.221  0.1019  0.4734  0.9927
  272MOL0     C36626  14.782   3.388   8.177 -0.3129  0.0409 -0.4987
  272MOL0     C36627  14.842   3.417   8.040  0.2861  0.1347 -0.3843
  272MOL0     C36628  14.971   3.332   8.005  0.4947  0.2332  0.0523
  272MOL0    Cl36629  14.917   3.168   7.961 -0.1832  0.2790  0.5127
  272MOL0     C36630  14.102   3.809   8.437 -0.7158 -0.9802 -0.7236
  272MOL0     C36631  13.987   3.886   8.445 -0.7521  0.6922 -0.3272
  272MOL0     O36632  13.922   4.210   8.617 -0.6927 -0.2372  0.2395
  272MOL0     C36633  13.577   4.121   8.572 -0.3077  0.2914  0.3971
  272MOL0     C36634  13.451   4.168   8.615  0.1252  0.3472  0.0269
  272MOL0     N36635  12.683   4.317   8.958  0.0849  0.0608 -0.1528
  272MOL0     N36636  12.558   4.305   8.951 -0.1333  0.1340 -0.0221
  272MOL0     C36637  11.440   4.713   8.550  0.0099 -0.3771  0.1208
  272MOL0     C36638  11.312   4.700   8.512  0.2810  0.1721  0.5688
  272MOL0     C36639  10.895   4.748   8.366 -0.0537  0.2082  0.0209
  272MOL0     C36640  10.795   4.821   8.301 -0.6527  0.1279 -0.4684
  272MOL0     C36641  10.668   4.771   8.266  0.0720  0.0584 -0.4166
  272MOL0     C36642  10.643   4.636   8.287 -0.7150 -0.1840 -0.3145
  272MOL0     O36643  10.531   4.584   8.234 -0.4848 -0.1125  0.4205
  272MOL0     C36644  10.476   4.476   8.313 -0.4006  0.1767 -0.1884
  272MOL0     C36645  10.325   4.480   8.292 -0.5904 -0.1558 -0.2263
  272MOL0     C36646  10.282   4.490   8.141  0.1795 -0.4619 -1.2299
  272MOL0     C36647  10.333   4.372   8.065  0.3599 -0.1410 -0.7162
  272MOL0     C36648  10.279   4.244   8.118 -0.8589  0.2873 -0.5563
  272MOL0     C36649  10.244   4.138   8.169  0.4979 -0.7659  0.4042
  272MOL0     C36650  10.743   4.553   8.348 -0.6038  0.1574  0.4094
  272MOL0     C36651  10.870   4.605   8.384 -0.6411  0.2444 -0.2679
  272MOL0     C36652  10.969   4.499   8.427 -0.1665  0.3887  0.7895
  272MOL0     H36653  11.167   4.967   8.645  1.1097  0.0119  2.1382
  272MOL0     H36654  11.422   5.002   8.714  2.3670 -2.6929  2.9473
  272MOL0     H36655  11.684   4.669   8.667  0.7938  0.7370  1.9742
  272MOL0     H36656  11.744   4.776   8.533 -0.6133 -0.9508 -0.1268
  272MOL0     H36657  11.776   4.824   8.839  0.3218  1.1102 -0.4598
  272MOL0     H36658  11.846   4.923   8.729 -0.8291  0.5833  2.6717
  272MOL0     H36659  11.898   4.622   8.776  2.0113 -1.1641  0.5920
  272MOL0     H36660  11.982   4.766   8.842 -3.3816 -1.6317  2.3382
  272MOL0     H36661  11.985   4.670   8.543  0.3428  0.0784  0.9005
  272MOL0     H36662  12.029   4.832   8.575  0.5518 -0.2060 -0.2351
  272MOL0     H36663  12.221   4.706   8.561 -0.2983 -0.1685 -0.6046
  272MOL0     H36664  12.204   4.769   8.723  2.1736 -2.8272  1.3284
  272MOL0     H36665  12.135   4.530   8.815  0.4442 -1.7525 -0.3359
  272MOL0     H36666  12.151   4.463   8.662  0.8763 -1.8807  2.4554
  272MOL0     H36667  12.361   4.614   8.832  0.5927  2.3101 -3.2337
  272MOL0     H36668  12.396   4.562   8.676  0.3935  2.1678  2.0956
  272MOL0     H36669  12.315   4.376   8.911  0.6102  1.1855  0.0988
  272MOL0     H36670  12.343   4.331   8.740 -1.6354  0.4458  0.7665
  272MOL0     H36671  12.620   4.510   8.708 -1.2945  2.9534  1.2624
  272MOL0     H36672  12.848   4.517   8.754 -3.5611 -2.7771 -1.6559
  272MOL0     H36673  12.888   4.479   8.926 -1.0827  1.9245  0.9687
  272MOL0     H36674  12.938   4.254   8.877 -0.3081  0.3067 -0.8652
  272MOL0     H36675  12.927   4.273   8.707  0.4613  0.6219 -0.9346
  272MOL0     H36676  13.139   4.410   8.882  0.0859 -1.1220  0.0410
  272MOL0     H36677  13.094   4.465   8.714  0.9505 -0.2747 -0.5251
  272MOL0     H36678  13.162   4.265   8.618 -0.3729 -0.3195  0.3993
  272MOL0     H36679  13.199   4.193   8.775  1.4218  0.2144 -0.1704
  272MOL0     H36680  13.550   4.460   8.764  0.2195  0.3394 -1.0198
  272MOL0     H36681  13.761   4.388   8.679 -1.1389  0.0374  0.4177
  272MOL0     H36682  13.993   3.958   8.767 -0.0353  1.4490 -0.6044
  272MOL0     H36683  14.232   3.846   8.746  2.8591  1.5185 -1.6509
  272MOL0     H36684  14.470   3.802   8.606  1.0096 -1.0617  0.0755
  272MOL0     H36685  14.379   3.696   8.709 -0.7236 -4.9514 -0.5972
  272MOL0     H36686  14.585   3.586   8.637 -1.4914 -1.2418  1.7347
  272MOL0     H36687  14.443   3.498   8.586  1.0537 -1.5659  0.8678
  272MOL0     H36688  14.470   3.586   8.355 -1.1723 -0.0481  1.6236
  272MOL0     H36689  14.614   3.679   8.405  5.0055 -3.2203 -0.2548
  272MOL0     H36690  14.608   3.381   8.408  0.4888 -0.9635  0.8674
  272MOL0     H36691  14.747   3.501   8.429  0.5461 -1.4937  0.1142
  272MOL0     H36692  14.676   3.580   8.176 -2.3974 -0.0929 -0.8954
  272MOL0     H36693  14.573   3.446   8.180 -0.7060  1.2351  2.1659
  272MOL0     H36694  14.861   3.401   8.251  0.1087 -0.6375 -0.8135
  272MOL0     H36695  14.754   3.282   8.189 -1.5150  0.0735 -2.5156
  272MOL0     H36696  14.862   3.524   8.035  0.5387  0.0711 -0.8479
  272MOL0     H36697  14.776   3.402   7.953  2.3791  2.2693 -2.5119
  272MOL0     H36698  15.013   3.375   7.913 -0.8684 -0.9780 -1.1912
  272MOL0     H36699  15.056   3.347   8.072 -0.4537  2.2083  0.8882
  272MOL0     H36700  14.128   3.756   8.347 -1.9391 -1.5613 -0.7588
  272MOL0     H36701  13.917   3.870   8.364 -1.5811 -1.5848  0.7529
  272MOL0     H36702  13.600   4.031   8.516  0.3640  1.7050 -1.7352
  272MOL0     H36703  13.370   4.097   8.604  0.7078 -0.1476 -1.2350
  272MOL0     H36704  11.517   4.646   8.513 -0.9112  0.1951 -3.1379
  272MOL0     H36705  11.288   4.614   8.450  2.1464 -0.6552  0.9075
  272MOL0     H36706  10.815   4.928   8.295 -2.3354  0.5188  0.3802
  272MOL0     H36707  10.593   4.831   8.215 -1.2464 -1.3314 -0.1891
  272MOL0     H36708  10.496   4.481   8.421  0.5381 -0.7407 -0.3123
  272MOL0     H36709  10.529   4.383   8.290  0.6878  1.0111 -1.1756
  272MOL0     H36710  10.282   4.563   8.348 -1.0996  0.0695 -0.9355
  272MOL0     H36711  10.283   4.389   8.337  2.0822 -2.0399 -1.2919
  272MOL0     H36712  10.310   4.586   8.096 -0.7634 -0.1867 -1.2393
  272MOL0     H36713  10.173   4.493   8.139  0.1039 -2.2467 -0.8888
  272MOL0     H36714  10.311   4.367   7.958  1.0725  2.5626 -1.0446
  272MOL0     H36715  10.441   4.357   8.067  0.3295 -0.3089 -0.0931
  272MOL0     H36716  10.232   4.041   8.213  1.5547 -1.0508  0.0922
  272MOL0     H36717  10.723   4.447   8.356  1.3884 -0.8311 -4.4962
  272MOL0     H36718  11.066   4.544   8.454 -0.6988  0.4915  2.6638
  272MOL0     H36719  10.946   4.432   8.510  0.7507  0.6354  1.2600
  272MOL0     H36720  10.991   4.449   8.333  0.8056  1.8318  0.2104
  273MOL0     O36721   8.869   6.565  10.269 -0.2620 -0.6375 -0.3071
  273MOL0     C36722   8.843   6.577  10.386 -0.1474 -0.9686 -0.0980
  273MOL0     O36723   8.938   6.561  10.487  0.1185 -0.1743 -0.0515
  273MOL0     C36724   9.064   6.501  10.474  0.4043  0.9281 -0.3975
  273MOL0     C36725   9.157   6.528  10.580 -0.1965 -0.9776  0.3617
  273MOL0     C36726   9.292   6.485  10.568 -0.3044 -0.1927 -0.6710
  273MOL0     C36727   9.330   6.402  10.463  0.0462  0.6396 -0.1060
  273MOL0     O36728   9.449   6.339  10.451 -0.2073 -0.3977  0.0969
  273MOL0     C36729   9.542   6.351  10.560  1.0884  0.2534 -0.3338
  273MOL0     C36730   9.655   6.253  10.538 -0.0384 -0.5574  0.1905
  273MOL0     C36731   9.747   6.253  10.662  0.3561  0.7305  0.5215
  273MOL0     C36732   9.686   6.157  10.770  0.0792 -0.3560  0.3940
  273MOL0     C36733   9.778   6.121  10.882  0.0037  0.9046 -0.0958
  273MOL0     C36734   9.792   6.239  10.985 -0.2952 -0.1613 -0.5519
  273MOL0     C36735   9.908   6.222  11.085 -0.7724  0.4862  0.6381
  273MOL0     C36736   9.852   6.157  11.211  0.1781 -0.0181  0.7488
  273MOL0     N36737   9.963   6.115  11.301  0.1971 -0.4806  0.2382
  273MOL0     C36738  10.030   6.200  11.389  0.1167  0.3479  0.1064
  273MOL0     C36739  10.130   6.122  11.439  0.7860  0.0001  0.3475
  273MOL0     C36740  10.202   6.163  11.556 -0.5314 -0.0744 -0.2842
  273MOL0     C36741  10.287   6.294  11.539  0.0228 -0.0975 -0.1127
  273MOL0     C36742  10.270   6.388  11.654  0.2846 -0.1696  0.0599
  273MOL0     C36743  10.402   6.454  11.692  0.2808 -0.4622  0.4295
  273MOL0     O36744  10.371   6.543  11.795 -0.2416  0.2287  0.2652
  273MOL0     C36745  10.474   6.624  11.832  0.0012  0.7705 -1.0146
  273MOL0     C36746  10.613   6.615  11.801  0.8314  0.1676  0.4091
  273MOL0     C36747  10.706   6.691  11.864 -0.5051  0.2474  0.9589
  273MOL0     C36748  10.680   6.794  11.952 -0.4985  0.0197  0.1743
  273MOL0     C36749  10.788   6.868  12.015  0.3644  0.3734 -0.2274
  273MOL0     O36750  10.905   6.882  11.948 -0.4459 -0.0528 -1.3824
  273MOL0     C36751  10.989   6.985  11.987 -0.1439 -0.3141 -0.5227
  273MOL0     C36752  11.124   6.972  11.949 -0.1829 -0.3674 -0.2987
  273MOL0     C36753  11.229   7.062  11.978  0.1176 -0.0051 -0.3952
  273MOL0     C36754  11.195   7.193  12.020 -0.1357  0.2288 -0.5754
  273MOL0     O36755  11.289   7.291  12.030  0.0621  1.1053 -0.4631
  273MOL0     C36756  11.422   7.280  11.972  0.4332 -0.6116 -0.2982
  273MOL0     C36757  11.516   7.224  12.078 -0.5105  0.7296 -0.5174
  273MOL0     C36758  11.661   7.203  12.026  1.0345 -0.2260 -1.5015
  273MOL0     C36759  11.757   7.148  12.131 -0.5185 -0.6508  0.0906
  273MOL0     C36760  11.884   7.085  12.072 -0.3538  0.0400 -0.1221
  273MOL0     C36761  11.967   7.172  11.971 -0.7332 -0.1396 -0.2665
  273MOL0     C36762  12.072   7.088  11.891 -0.5574 -0.5562 -0.6096
  273MOL0     C36763  12.184   7.175  11.824  0.4496  0.7402  0.2430
  273MOL0    Cl36764  12.113   7.285  11.701  0.0405  0.0929 -0.2018
  273MOL0     C36765  11.061   7.213  12.054 -0.4552 -0.0462 -0.8697
  273MOL0     C36766  10.959   7.108  12.043  0.7684 -1.1474  0.1490
  273MOL0     O36767  10.763   6.911  12.130 -0.3398  0.2682  0.2852
  273MOL0     C36768  10.548   6.811  11.981  0.6004  0.4392  0.1088
  273MOL0     C36769  10.450   6.728  11.926  0.3357  0.7626 -0.2255
  273MOL0     N36770  10.133   6.007  11.371 -0.9692 -0.3795  0.7080
  273MOL0     N36771  10.038   6.005  11.283  0.0272 -0.2328 -0.1112
  273MOL0     C36772   9.233   6.369  10.369 -0.1505 -1.0456 -0.6548
  273MOL0     C36773   9.102   6.416  10.377  0.3412  0.3192  0.6327
  273MOL0     C36774   8.704   6.602  10.425  0.3209 -0.0673 -0.6081
  273MOL0     C36775   8.670   6.592  10.570  0.3701 -0.3235  0.3042
  273MOL0     C36776   8.548   6.601  10.624  0.7531  0.3990  0.5997
  273MOL0     C36777   8.437   6.620  10.538 -0.3476  0.7933 -1.3220
  273MOL0     O36778   8.321   6.620  10.607 -0.4294 -0.1345  0.2672
  273MOL0     C36779   8.204   6.629  10.531  0.4739 -0.4703 -0.6829
  273MOL0     C36780   8.090   6.614  10.626 -0.3658 -0.1186  0.1436
  273MOL0     C36781   7.955   6.643  10.576  0.3034 -0.3056 -0.0147
  273MOL0     C36782   7.845   6.578  10.664  0.2904 -0.6337 -0.9546
  273MOL0     C36783   7.710   6.617  10.620  0.6683  0.8977  0.4904
  273MOL0     C36784   7.593   6.639  10.608 -0.5496 -0.6881 -0.2750
  273MOL0     C36785   8.458   6.619  10.399  0.2755 -0.1792  0.1805
  273MOL0     C36786   8.590   6.610  10.343 -0.6270 -0.9875  0.2767
  273MOL0     C36787   8.592   6.601  10.194 -0.0600  0.5092  1.0465
  273MOL0     H36788   9.118   6.588  10.661 -0.2153 -0.0516 -0.3251
  273MOL0     H36789   9.372   6.515  10.635  0.1138 -0.2601 -1.1385
  273MOL0     H36790   9.578   6.455  10.562 -1.3516  1.1800 -1.2566
  273MOL0     H36791   9.484   6.316  10.646  2.2716 -0.4902  0.1934
  273MOL0     H36792   9.710   6.282  10.447 -0.8611  0.0169 -0.1345
  273MOL0     H36793   9.617   6.152  10.523 -0.8082 -0.0890 -1.1796
  273MOL0     H36794   9.751   6.354  10.703 -1.2869  0.2221  2.1229
  273MOL0     H36795   9.838   6.208  10.622 -0.2256 -0.9439  0.9499
  273MOL0     H36796   9.593   6.202  10.807  0.8819  3.1671 -1.4629
  273MOL0     H36797   9.662   6.062  10.722 -0.9168  0.4712 -0.8047
  273MOL0     H36798   9.756   6.026  10.933  2.4032 -1.0677 -2.4208
  273MOL0     H36799   9.879   6.094  10.848 -0.3055 -1.7801  0.8351
  273MOL0     H36800   9.804   6.335  10.935 -0.4789 -0.8927 -2.0479
  273MOL0     H36801   9.695   6.241  11.037  0.1138 -1.4575  0.3234
  273MOL0     H36802   9.944   6.324  11.098 -0.3268  0.4597 -0.3032
  273MOL0     H36803   9.990   6.162  11.043 -0.6222  1.8768 -1.1537
  273MOL0     H36804   9.788   6.232  11.259  0.3236  0.6715 -0.1070
  273MOL0     H36805   9.781   6.076  11.192 -1.3608  1.5875 -0.6687
  273MOL0     H36806  10.015   6.303  11.420  1.3196  0.8641 -0.9385
  273MOL0     H36807  10.123   6.180  11.629  1.0370  2.7879  0.8968
  273MOL0     H36808  10.268   6.078  11.576 -0.2358  0.1407 -0.3220
  273MOL0     H36809  10.394   6.275  11.529  0.4931 -1.1698  4.4782
  273MOL0     H36810  10.249   6.341  11.449  0.5199 -2.3697 -1.5975
  273MOL0     H36811  10.242   6.342  11.749 -0.9379  3.4624  1.6276
  273MOL0     H36812  10.196   6.467  11.635 -0.0604 -0.0996  1.5862
  273MOL0     H36813  10.446   6.513  11.612 -2.4682 -2.5416 -2.8636
  273MOL0     H36814  10.470   6.379  11.734  1.4836  0.4989  0.2198
  273MOL0     H36815  10.651   6.531  11.745  0.4115 -0.9405  1.7233
  273MOL0     H36816  10.810   6.671  11.843 -0.4886  0.2063  1.0827
  273MOL0     H36817  11.146   6.881  11.894 -3.0302  0.0625 -2.3587
  273MOL0     H36818  11.334   7.049  11.955  0.8309  2.3982  1.1640
  273MOL0     H36819  11.427   7.226  11.877 -1.1677 -0.1250 -0.6838
  273MOL0     H36820  11.454   7.383  11.961  0.3212 -0.8146 -3.4058
  273MOL0     H36821  11.515   7.295  12.161 -0.6442  0.2730 -0.1248
  273MOL0     H36822  11.479   7.126  12.109  1.5263  0.7504  2.3304
  273MOL0     H36823  11.644   7.137  11.941 -2.5334  0.2166 -1.2613
  273MOL0     H36824  11.687   7.297  11.977 -2.6354  1.9595  0.3528
  273MOL0     H36825  11.700   7.066  12.175  1.6975 -1.4611  1.6263
  273MOL0     H36826  11.788   7.228  12.200  0.3463  0.3580 -1.4051
  273MOL0     H36827  11.853   6.997  12.014 -0.2717  1.0750 -1.8009
  273MOL0     H36828  11.952   7.053  12.151 -0.0551  0.6501 -0.1288
  273MOL0     H36829  11.900   7.216  11.897 -1.2061 -0.7114 -0.1826
  273MOL0     H36830  12.012   7.251  12.032 -2.9518  0.0069  1.2856
  273MOL0     H36831  12.026   7.018  11.821 -1.1527 -0.0711 -0.7119
  273MOL0     H36832  12.123   7.029  11.968 -1.5841  0.5096  0.9524
  273MOL0     H36833  12.242   7.227  11.900 -0.1243 -1.6301  2.4473
  273MOL0     H36834  12.257   7.107  11.779 -1.1421 -0.8685 -0.0231
  273MOL0     H36835  11.024   7.307  12.094 -1.9931 -2.3390  3.8579
  273MOL0     H36836  10.855   7.126  12.066  1.1752 -1.0598  2.1190
  273MOL0     H36837  10.507   6.893  12.041  1.6851  0.2715  1.1187
  273MOL0     H36838  10.348   6.738  11.963  0.3982 -0.2501  0.2518
  273MOL0     H36839   9.259   6.301  10.289  0.9292 -1.3137 -0.1115
  273MOL0     H36840   9.027   6.381  10.308 -1.0688  1.9179  1.2678
  273MOL0     H36841   8.759   6.588  10.632  0.2629 -2.5150  0.3957
  273MOL0     H36842   8.538   6.597  10.732  1.2242 -1.5505  0.5933
  273MOL0     H36843   8.205   6.547  10.460 -1.3283 -0.4857 -0.7161
  273MOL0     H36844   8.182   6.724  10.483 -1.6870  1.4261  3.4995
  273MOL0     H36845   8.113   6.672  10.715 -1.5160 -0.7066  0.8410
  273MOL0     H36846   8.080   6.510  10.659 -0.5075 -0.6475 -1.4388
  273MOL0     H36847   7.946   6.606  10.473 -1.6066  0.7828 -0.3018
  273MOL0     H36848   7.941   6.751  10.569  1.6236 -0.0382  1.2192
  273MOL0     H36849   7.852   6.468  10.665 -2.2239 -0.8393 -0.4124
  273MOL0     H36850   7.839   6.613  10.767 -2.9460  0.4711 -1.4130
  273MOL0     H36851   7.492   6.659  10.580 -0.1258  0.1301 -1.3138
  273MOL0     H36852   8.384   6.628  10.320  1.4808  1.6837 -0.8146
  273MOL0     H36853   8.679   6.650  10.148  0.2266 -0.4519  0.5349
  273MOL0     H36854   8.593   6.493  10.181 -4.2482  0.3064  1.2214
  273MOL0     H36855   8.500   6.640  10.150  0.4189  0.5957  0.0932
  274MOL0     O36856   5.032   7.950   3.508 -0.8459 -0.4309  0.7350
  274MOL0     C36857   5.018   7.835   3.545  0.0697 -0.8367 -0.2505
  274MOL0     O36858   4.911   7.758   3.515  0.0299  0.1052 -0.0137
  274MOL0     C36859   4.806   7.820   3.451  0.4535  0.3320 -0.4865
  274MOL0     C36860   4.724   7.920   3.503 -0.1929 -0.0069 -0.3653
  274MOL0     C36861   4.605   7.960   3.442  0.5658 -0.0984  0.2126
  274MOL0     C36862   4.566   7.901   3.322 -0.0482 -0.2407 -0.0856
  274MOL0     O36863   4.448   7.928   3.256 -0.0378 -0.2746  0.1698
  274MOL0     C36864   4.365   8.040   3.301  0.3764  0.6036  0.8292
  274MOL0     C36865   4.232   8.042   3.225 -0.6513 -0.5931  0.2995
  274MOL0     C36866   4.248   8.044   3.076 -0.4925 -0.1163  0.1116
  274MOL0     C36867   4.318   8.161   3.015  1.0124  0.1171 -0.1506
  274MOL0     C36868   4.326   8.124   2.864 -0.5608  0.1475  0.8217
  274MOL0     C36869   4.472   8.151   2.807  0.6689  0.4054 -0.3686
  274MOL0     C36870   4.507   8.293   2.833  0.0049 -0.7393 -0.9679
  274MOL0     C36871   4.554   8.363   2.703  0.2512  0.3118 -0.0844
  274MOL0     N36872   4.682   8.311   2.649  0.1227 -0.9330 -0.3551
  274MOL0     C36873   4.809   8.342   2.696  0.1626  0.3560  1.0046
  274MOL0     C36874   4.894   8.266   2.618 -0.7887  0.6660 -0.8038
  274MOL0     C36875   5.049   8.273   2.615  1.1867  0.4140 -0.4055
  274MOL0     C36876   5.090   8.330   2.476 -0.7208 -0.5622 -0.6278
  274MOL0     C36877   5.152   8.217   2.384 -0.8253  0.5233  0.1938
  274MOL0     C36878   5.286   8.152   2.424 -0.3131  0.2190  0.0732
  274MOL0     O36879   5.387   8.246   2.417  0.1249  0.9257  0.2614
  274MOL0     C36880   5.516   8.194   2.428 -0.7751  0.2956  0.4808
  274MOL0     C36881   5.570   8.192   2.556  0.3913  0.0396 -0.3165
  274MOL0     C36882   5.699   8.150   2.569  0.2804 -0.2262  0.3972
  274MOL0     C36883   5.774   8.097   2.462 -0.7881 -0.3239  0.1240
  274MOL0     C36884   5.924   8.064   2.474  0.0255 -0.6258  0.9826
  274MOL0     O36885   5.976   8.088   2.597  0.1645  0.0455  0.1957
  274MOL0     C36886   6.107   8.037   2.623 -0.0986 -0.7378 -0.0964
  274MOL0     C36887   6.217   8.005   2.548  0.1234  0.3249  1.0234
  274MOL0     C36888   6.338   7.948   2.588 -0.2916 -0.3713  0.6619
  274MOL0     C36889   6.348   7.928   2.725 -0.3589 -0.4593 -0.4163
  274MOL0     O36890   6.473   7.891   2.767 -0.6764 -0.0845 -0.4725
  274MOL0     C36891   6.494   7.846   2.902 -0.4922 -1.2244  0.0648
  274MOL0     C36892   6.622   7.766   2.922 -0.9749 -0.1424  0.3262
  274MOL0     C36893   6.752   7.847   2.876  0.4647  0.0685 -1.1008
  274MOL0     C36894   6.875   7.782   2.949  0.2003 -0.2129 -0.7480
  274MOL0     C36895   7.007   7.861   2.941  0.0516  0.1502 -0.3364
  274MOL0     C36896   7.071   7.834   2.804  0.1283  0.3209 -0.2529
  274MOL0     C36897   7.166   7.944   2.754 -0.2246 -0.9363  0.2198
  274MOL0     C36898   7.290   7.880   2.702  0.2298 -0.3992  0.0179
  274MOL0    Cl36899   7.366   7.997   2.596  0.0901  0.2218 -0.3098
  274MOL0     C36900   6.234   7.966   2.808  0.0949  0.0473 -0.1856
  274MOL0     C36901   6.117   8.014   2.757  0.1327 -0.5024  0.1285
  274MOL0     O36902   5.967   7.997   2.381  0.5171 -0.4531  0.0425
  274MOL0     C36903   5.703   8.098   2.333 -0.1144  0.4610  0.4177
  274MOL0     C36904   5.579   8.154   2.316 -1.0451 -0.3312  0.7633
  274MOL0     N36905   4.813   8.192   2.533  0.2229  0.7259 -0.2774
  274MOL0     N36906   4.688   8.211   2.558 -0.5026 -0.3366  0.4388
  274MOL0     C36907   4.647   7.804   3.266  0.1214 -0.1166 -0.4811
  274MOL0     C36908   4.766   7.764   3.331 -0.7639 -0.4662 -0.3794
  274MOL0     C36909   5.129   7.788   3.631 -0.2975 -0.7292  0.8462
  274MOL0     C36910   5.221   7.878   3.676 -0.1891 -0.6826 -0.4028
  274MOL0     C36911   5.334   7.837   3.746  0.1975 -0.0608 -0.1857
  274MOL0     C36912   5.359   7.699   3.761  0.1867 -0.0593 -0.2022
  274MOL0     O36913   5.475   7.648   3.826 -0.2429 -0.2890 -0.0243
  274MOL0     C36914   5.570   7.727   3.902  0.2581  0.7313  0.0433
  274MOL0     C36915   5.581   7.665   4.042 -0.0169  0.1025  0.6713
  274MOL0     C36916   5.664   7.538   4.048  0.8325  1.0283  0.0075
  274MOL0     C36917   5.710   7.501   4.193  0.4944  1.1673 -0.2157
  274MOL0     C36918   5.602   7.424   4.264  0.1331  0.9090  0.1473
  274MOL0     C36919   5.503   7.363   4.302 -0.2656  0.6623  0.0355
  274MOL0     C36920   5.268   7.599   3.727 -0.1727  0.1981 -0.1400
  274MOL0     C36921   5.159   7.643   3.653 -0.9095 -0.7169  0.3816
  274MOL0     C36922   5.077   7.532   3.589 -0.1185 -0.2709  0.9367
  274MOL0     H36923   4.747   7.961   3.600  0.4285 -1.6761  0.2432
  274MOL0     H36924   4.544   8.033   3.494  0.3585  1.0093 -1.5349
  274MOL0     H36925   4.334   8.030   3.405 -0.4497 -0.4014  0.5060
  274MOL0     H36926   4.423   8.132   3.293  1.7833 -0.2730  0.7690
  274MOL0     H36927   4.170   8.128   3.254  4.9984  5.1624 -2.3126
  274MOL0     H36928   4.171   7.953   3.241 -0.4616 -0.6952  0.4688
  274MOL0     H36929   4.146   8.041   3.038  0.1659 -1.7118 -1.6944
  274MOL0     H36930   4.310   7.957   3.052  3.2666  3.0411 -3.1646
  274MOL0     H36931   4.250   8.246   3.022  0.0988 -0.7090  1.9525
  274MOL0     H36932   4.413   8.175   3.067  0.4077 -1.2216  1.4354
  274MOL0     H36933   4.295   8.024   2.831  1.4339 -0.0545 -0.5647
  274MOL0     H36934   4.260   8.190   2.807  1.1931  2.9162  1.7938
  274MOL0     H36935   4.540   8.077   2.851  0.3640  0.1269 -0.3568
  274MOL0     H36936   4.474   8.139   2.698 -1.3034 -0.3063 -0.3761
  274MOL0     H36937   4.590   8.299   2.905  0.8640  2.4002 -2.0390
  274MOL0     H36938   4.425   8.348   2.880  0.4181  0.0540 -1.1563
  274MOL0     H36939   4.475   8.363   2.628 -0.7038  2.6453  0.8204
  274MOL0     H36940   4.571   8.466   2.738 -1.5081  0.1745  1.3300
  274MOL0     H36941   4.835   8.421   2.765  1.2545  0.2767  0.6926
  274MOL0     H36942   5.069   8.350   2.690  2.1646  1.5796 -1.8020
  274MOL0     H36943   5.097   8.183   2.653  2.2434  0.7728 -0.8671
  274MOL0     H36944   5.006   8.368   2.417 -0.6313 -2.6613 -2.2331
  274MOL0     H36945   5.172   8.401   2.490  0.9421 -2.5552  0.1570
  274MOL0     H36946   5.181   8.258   2.288  0.2856  0.0584  0.3239
  274MOL0     H36947   5.073   8.141   2.376 -3.9525  3.6437 -1.7941
  274MOL0     H36948   5.313   8.073   2.354  2.3399  0.4869  0.6568
  274MOL0     H36949   5.277   8.109   2.525  1.0954  2.3887  1.2190
  274MOL0     H36950   5.519   8.243   2.637 -0.8716 -0.3736 -0.8127
  274MOL0     H36951   5.732   8.159   2.672  0.2603  1.0734  0.3071
  274MOL0     H36952   6.212   8.032   2.442 -0.9873 -1.8729  0.4508
  274MOL0     H36953   6.416   7.916   2.520 -0.9174  1.4293 -0.9976
  274MOL0     H36954   6.506   7.932   2.968  3.5927 -1.6875  0.1785
  274MOL0     H36955   6.408   7.789   2.940 -1.3090  0.7023  1.2763
  274MOL0     H36956   6.624   7.731   3.026 -0.0916 -2.2020 -0.3420
  274MOL0     H36957   6.618   7.679   2.857  0.8230  0.6830 -0.9714
  274MOL0     H36958   6.758   7.840   2.767 -3.4732  2.7750 -1.7114
  274MOL0     H36959   6.731   7.952   2.898 -1.3869 -0.4703 -0.0772
  274MOL0     H36960   6.901   7.677   2.937  3.3682 -0.1379  3.2057
  274MOL0     H36961   6.842   7.792   3.053 -1.2945 -0.4185 -1.1852
  274MOL0     H36962   7.068   7.820   3.023 -0.6296 -1.3978 -0.5797
  274MOL0     H36963   6.989   7.969   2.947  1.2366  0.3141  0.8045
  274MOL0     H36964   7.113   7.737   2.833  0.8697  0.9608  0.9071
  274MOL0     H36965   6.999   7.824   2.723  0.1810  3.1363 -0.7501
  274MOL0     H36966   7.185   8.016   2.835 -0.4599 -1.2275  0.5375
  274MOL0     H36967   7.116   7.995   2.671  0.6620 -2.0427 -1.0407
  274MOL0     H36968   7.353   7.869   2.791 -0.1737  0.3436  0.4066
  274MOL0     H36969   7.269   7.785   2.653  1.7263  0.0610 -1.5829
  274MOL0     H36970   6.244   7.957   2.915 -1.0932  0.3950 -0.0260
  274MOL0     H36971   6.039   8.043   2.826  0.1496  0.3756 -0.1991
  274MOL0     H36972   5.752   8.050   2.249 -0.6651 -1.4534  1.1364
  274MOL0     H36973   5.540   8.153   2.215  3.4465  0.1043 -1.2208
  274MOL0     H36974   4.623   7.763   3.169 -2.4286 -0.0266  0.0346
  274MOL0     H36975   4.829   7.686   3.290  0.3283 -0.1522  0.6577
  274MOL0     H36976   5.219   7.982   3.646 -0.3991 -0.5736 -0.0117
  274MOL0     H36977   5.403   7.912   3.784 -1.4733 -0.1398  3.3223
  274MOL0     H36978   5.522   7.823   3.920  0.7540  1.2442 -1.2321
  274MOL0     H36979   5.669   7.740   3.856 -0.7014  1.1295 -2.0036
  274MOL0     H36980   5.482   7.648   4.086 -2.0458  0.4283 -3.2719
  274MOL0     H36981   5.640   7.740   4.095  1.3273 -0.1963 -0.3455
  274MOL0     H36982   5.751   7.546   3.981 -0.6042 -0.3684 -2.1346
  274MOL0     H36983   5.605   7.457   4.006  2.3685  1.3215 -2.9536
  274MOL0     H36984   5.797   7.434   4.192 -1.0688 -1.0045 -1.5627
  274MOL0     H36985   5.725   7.593   4.250  0.4725  1.5100 -0.7639
  274MOL0     H36986   5.427   7.293   4.328 -0.8704  1.4285  0.3913
  274MOL0     H36987   5.291   7.494   3.742  2.8958  0.8209  0.2287
  274MOL0     H36988   5.117   7.431   3.601  0.2860 -0.0561  1.4072
  274MOL0     H36989   4.977   7.528   3.634  0.2992 -3.3423  1.8296
  274MOL0     H36990   5.065   7.547   3.482 -1.3011 -0.4167  1.0318
  275MOL0     O36991   9.309   3.544   3.200 -0.2334 -0.1338 -1.1479
  275MOL0     C36992   9.316   3.639   3.124 -0.2208  0.8392  1.0475
  275MOL0     O36993   9.375   3.751   3.155  0.5024  0.0554  0.1260
  275MOL0     C36994   9.479   3.763   3.244  0.2565 -0.5182  0.0325
  275MOL0     C36995   9.566   3.667   3.302  0.2800 -0.0789 -0.0212
  275MOL0     C36996   9.664   3.700   3.393 -0.3146  0.1197 -0.5443
  275MOL0     C36997   9.694   3.835   3.425 -0.1922  0.5303  0.6369
  275MOL0     O36998   9.799   3.858   3.509  0.4381  0.6415  0.0413
  275MOL0     C36999   9.826   3.997   3.541  0.0635  0.5000 -0.8450
  275MOL0     C37000   9.939   4.013   3.628 -0.0146  0.0059 -0.3366
  275MOL0     C37001  10.062   3.933   3.595 -2.0351 -0.0321 -0.5482
  275MOL0     C37002  10.193   3.985   3.664 -0.7119  0.1426  0.4874
  275MOL0     C37003  10.325   3.909   3.623  0.6443 -0.2234  0.3908
  275MOL0     C37004  10.444   4.007   3.613  0.2333  0.0707  0.1223
  275MOL0     C37005  10.488   4.077   3.750  0.2982 -1.1257  0.7476
  275MOL0     C37006  10.606   4.172   3.741 -0.5980 -1.1115  0.7414
  275MOL0     N37007  10.624   4.256   3.860 -0.2486 -0.1901 -0.6006
  275MOL0     C37008  10.692   4.230   3.975  0.2411  0.3374 -0.0893
  275MOL0     C37009  10.698   4.345   4.045  0.1698  0.0443  0.7289
  275MOL0     C37010  10.771   4.385   4.175 -0.3633 -0.3865  0.4084
  275MOL0     C37011  10.907   4.307   4.208  0.2860  0.2643 -0.3811
  275MOL0     C37012  10.984   4.380   4.328  0.0778 -0.8362 -0.3587
  275MOL0     C37013  11.080   4.286   4.391  0.7287  0.8096 -0.7980
  275MOL0     O37014  11.175   4.244   4.294 -0.0544  0.1495  0.2190
  275MOL0     C37015  11.293   4.300   4.301 -1.0617  0.0930 -0.7454
  275MOL0     C37016  11.395   4.231   4.372 -0.1756 -0.7235 -0.1710
  275MOL0     C37017  11.525   4.282   4.370 -0.6194 -0.0727  0.2034
  275MOL0     C37018  11.563   4.401   4.302  0.6432  0.6147  0.4486
  275MOL0     C37019  11.700   4.435   4.301 -0.7798 -0.0676 -0.0800
  275MOL0     O37020  11.783   4.358   4.387  0.3096 -1.0512  0.3118
  275MOL0     C37021  11.910   4.369   4.351  0.0242 -0.6178 -0.2640
  275MOL0     C37022  11.998   4.413   4.454 -0.0913  0.5513  0.4552
  275MOL0     C37023  12.127   4.431   4.418 -0.3973  0.0087 -1.0864
  275MOL0     C37024  12.181   4.406   4.289  0.5109 -0.7319  0.2677
  275MOL0     O37025  12.313   4.436   4.268  0.1783 -0.0824  0.5058
  275MOL0     C37026  12.359   4.432   4.131 -0.6250  0.0434 -0.0351
  275MOL0     C37027  12.508   4.417   4.137 -0.4365  0.0357 -0.4770
  275MOL0     C37028  12.565   4.436   3.998  0.1782 -0.4675  0.5738
  275MOL0     C37029  12.716   4.446   4.014  0.5698 -0.2027  0.9278
  275MOL0     C37030  12.776   4.519   3.889 -0.0161  0.2473 -0.7162
  275MOL0     C37031  12.925   4.485   3.876 -0.1637  0.3422 -0.0723
  275MOL0     C37032  13.005   4.531   3.996 -0.0792 -0.5574 -0.0767
  275MOL0     C37033  13.157   4.530   3.961  0.2361  0.1201 -0.1273
  275MOL0    Cl37034  13.190   4.651   3.840  0.2725  0.3966 -0.1369
  275MOL0     C37035  12.096   4.348   4.187  0.0126  1.1800 -0.0941
  275MOL0     C37036  11.960   4.339   4.223 -0.5399 -0.1550 -0.5012
  275MOL0     O37037  11.732   4.530   4.228 -0.3758 -0.0213 -0.0255
  275MOL0     C37038  11.461   4.469   4.233 -0.4648 -0.7036  0.3537
  275MOL0     C37039  11.327   4.420   4.235 -0.7249 -0.3148 -0.4261
  275MOL0     N37040  10.627   4.441   3.964  0.4190 -0.5881 -0.4416
  275MOL0     N37041  10.573   4.380   3.862 -0.4941 -0.3847 -0.7719
  275MOL0     C37042   9.606   3.929   3.365 -0.6384  0.0008 -0.4249
  275MOL0     C37043   9.498   3.896   3.284 -0.9000  1.0696 -0.3377
  275MOL0     C37044   9.229   3.630   3.002 -0.2089  0.1888  0.4331
  275MOL0     C37045   9.244   3.728   2.901 -0.2498 -0.0976 -0.1035
  275MOL0     C37046   9.169   3.733   2.786  1.0436 -0.3218 -0.5021
  275MOL0     C37047   9.067   3.642   2.768  0.2333  0.7141 -0.0219
  275MOL0     O37048   9.002   3.655   2.646  0.6042 -0.1601 -0.3934
  275MOL0     C37049   8.876   3.602   2.634  1.4830  0.8740  0.1624
  275MOL0     C37050   8.771   3.671   2.720  0.4771 -0.1997  0.3316
  275MOL0     C37051   8.633   3.603   2.689 -0.0685 -0.3770  1.0475
  275MOL0     C37052   8.513   3.688   2.743  0.9624  0.2061 -0.4117
  275MOL0     C37053   8.401   3.601   2.723 -0.9500  0.2822  0.5023
  275MOL0     C37054   8.305   3.529   2.714  0.8828 -0.8709 -0.0281
  275MOL0     C37055   9.049   3.539   2.861 -0.1160 -0.1415 -0.1355
  275MOL0     C37056   9.128   3.528   2.979  0.2887  0.2599 -0.1855
  275MOL0     C37057   9.118   3.404   3.063 -0.0734 -0.1962  0.7918
  275MOL0     H37058   9.554   3.562   3.278  0.4485  0.0422 -0.6563
  275MOL0     H37059   9.726   3.628   3.445 -0.1601  2.1307  2.2806
  275MOL0     H37060   9.842   4.053   3.448  0.1180  1.3636 -0.3190
  275MOL0     H37061   9.742   4.040   3.597  0.9424 -1.7409  2.4875
  275MOL0     H37062   9.892   3.983   3.721 -1.0131 -0.8693 -1.1051
  275MOL0     H37063   9.955   4.121   3.625 -2.5261  0.4483  0.5648
  275MOL0     H37064  10.087   3.942   3.489  1.4797 -0.1613  0.1531
  275MOL0     H37065  10.041   3.828   3.613 -0.1606 -0.4907 -0.8012
  275MOL0     H37066  10.199   4.090   3.633 -0.2721 -0.3010 -1.0071
  275MOL0     H37067  10.183   3.979   3.773  3.3899 -1.9277  0.9376
  275MOL0     H37068  10.351   3.828   3.691 -1.2800 -1.0607  0.1937
  275MOL0     H37069  10.309   3.857   3.528  1.2727 -1.7183  1.0840
  275MOL0     H37070  10.526   3.945   3.575 -0.9119 -0.3139 -1.9087
  275MOL0     H37071  10.427   4.084   3.536  0.7531 -0.9131 -1.0081
  275MOL0     H37072  10.523   4.000   3.820 -0.6014 -2.4406 -0.1946
  275MOL0     H37073  10.402   4.118   3.803 -0.0858  0.3649 -0.9309
  275MOL0     H37074  10.695   4.112   3.720  0.9133  0.9908  0.8312
  275MOL0     H37075  10.591   4.229   3.649  1.9532 -4.2557 -1.8853
  275MOL0     H37076  10.731   4.134   4.007 -1.9876 -0.4925  0.3472
  275MOL0     H37077  10.782   4.494   4.179  1.9541 -0.6020  0.8131
  275MOL0     H37078  10.704   4.352   4.255  3.7504 -1.4743  3.7172
  275MOL0     H37079  10.867   4.211   4.240 -1.2813  0.3969 -1.7979
  275MOL0     H37080  10.963   4.291   4.116 -0.7293  2.0469 -1.3841
  275MOL0     H37081  10.908   4.417   4.398  1.5031  1.0590  0.2651
  275MOL0     H37082  11.039   4.468   4.294  1.8703 -1.6395  0.3273
  275MOL0     H37083  11.031   4.195   4.429  1.3590  0.7899 -0.0051
  275MOL0     H37084  11.123   4.348   4.469  1.2365  1.8697 -1.8876
  275MOL0     H37085  11.370   4.143   4.431  2.7861 -0.5739  1.5169
  275MOL0     H37086  11.587   4.214   4.427  2.0246  1.5336 -0.5748
  275MOL0     H37087  11.962   4.432   4.555  1.5574  2.7219  0.7111
  275MOL0     H37088  12.190   4.485   4.489 -1.4722  1.3889 -1.1469
  275MOL0     H37089  12.312   4.360   4.063 -1.3418 -1.0084  1.5158
  275MOL0     H37090  12.329   4.533   4.101  1.7852  1.1063  0.8880
  275MOL0     H37091  12.540   4.494   4.207  0.0459  0.0181 -0.6786
  275MOL0     H37092  12.535   4.319   4.175  0.8571  0.8826  0.8627
  275MOL0     H37093  12.531   4.355   3.932 -1.5262  1.7158 -1.4414
  275MOL0     H37094  12.511   4.522   3.957  3.1897  0.6791 -1.3626
  275MOL0     H37095  12.750   4.342   4.013  1.1592 -0.0859  3.1020
  275MOL0     H37096  12.746   4.489   4.110 -1.4353 -0.6627  1.8162
  275MOL0     H37097  12.764   4.623   3.921  0.6592 -0.0372  0.5508
  275MOL0     H37098  12.724   4.492   3.797 -0.1218 -0.8272 -0.3544
  275MOL0     H37099  12.945   4.378   3.859  3.5359  0.8935 -0.1080
  275MOL0     H37100  12.962   4.543   3.791  1.3419  0.3419  0.5372
  275MOL0     H37101  12.989   4.458   4.075  0.7163  0.2659  0.8756
  275MOL0     H37102  12.974   4.631   4.026 -0.1320 -0.1275 -1.4786
  275MOL0     H37103  13.227   4.543   4.044  2.8363  1.2416 -2.3234
  275MOL0     H37104  13.192   4.440   3.910  1.6162  1.5736 -1.9187
  275MOL0     H37105  12.128   4.333   4.085 -3.0157  2.2027 -1.3042
  275MOL0     H37106  11.896   4.293   4.149  0.7076 -0.4135 -1.4570
  275MOL0     H37107  11.487   4.559   4.178  1.7276  0.0955  2.5267
  275MOL0     H37108  11.262   4.486   4.179  0.3055  1.7842  0.7259
  275MOL0     H37109   9.629   4.034   3.370 -1.5432  0.1699  1.0774
  275MOL0     H37110   9.434   3.976   3.247  0.5877  1.1590 -2.9524
  275MOL0     H37111   9.314   3.809   2.918 -2.0835  1.3906  0.6352
  275MOL0     H37112   9.181   3.811   2.712  0.3956  1.2264  0.9688
  275MOL0     H37113   8.877   3.493   2.650  2.7240  0.9642  0.8041
  275MOL0     H37114   8.838   3.622   2.534  1.3091  0.2627  0.1000
  275MOL0     H37115   8.763   3.776   2.694 -2.3294 -0.2819  0.5293
  275MOL0     H37116   8.807   3.668   2.824 -2.8737  0.3293  1.6346
  275MOL0     H37117   8.638   3.506   2.738 -0.9826 -2.2114 -2.1904
  275MOL0     H37118   8.616   3.583   2.583  2.3757 -1.6760  0.8290
  275MOL0     H37119   8.530   3.697   2.851  1.5827 -1.2723 -0.3560
  275MOL0     H37120   8.492   3.786   2.699 -1.6204  0.4533  1.1971
  275MOL0     H37121   8.224   3.463   2.688 -0.5265  1.0159 -0.6110
  275MOL0     H37122   8.977   3.460   2.840 -0.9052  0.7286 -0.7971
  275MOL0     H37123   9.037   3.336   3.033 -1.4103  2.4454 -2.0712
  275MOL0     H37124   9.206   3.340   3.055  1.0696  1.2491  1.4410
  275MOL0     H37125   9.116   3.416   3.172  1.5332  2.5709  0.5891
  276MOL0     O37126   6.320   8.446   3.659  0.6633 -0.4246 -0.7273
  276MOL0     C37127   6.300   8.435   3.536  0.9493  0.2548  0.2721
  276MOL0     O37128   6.391   8.387   3.449 -0.0966  0.6374  0.3798
  276MOL0     C37129   6.515   8.356   3.495  0.8403 -0.8455 -0.4506
  276MOL0     C37130   6.531   8.271   3.603  0.8786 -0.0664  0.4506
  276MOL0     C37131   6.651   8.235   3.652  0.1095 -0.0474 -0.0695
  276MOL0     C37132   6.767   8.269   3.585  0.1667  0.7792 -0.0930
  276MOL0     O37133   6.896   8.217   3.616  0.0014  0.1454  0.5343
  276MOL0     C37134   6.916   8.163   3.752  0.2463  0.3425 -0.0580
  276MOL0     C37135   7.064   8.123   3.776 -0.5289  0.3047 -0.0835
  276MOL0     C37136   7.170   8.221   3.733 -0.7379  0.5789  0.2212
  276MOL0     C37137   7.312   8.161   3.726 -0.1865 -0.3194 -1.0272
  276MOL0     C37138   7.401   8.284   3.692 -0.1819 -0.0263 -0.2203
  276MOL0     C37139   7.545   8.256   3.699 -0.5025  0.6741  0.4204
  276MOL0     C37140   7.602   8.252   3.849  0.3684  1.0568  0.4035
  276MOL0     C37141   7.734   8.183   3.855 -0.6289 -0.1003  0.1998
  276MOL0     N37142   7.838   8.245   3.772  0.2753 -0.0900  0.1810
  276MOL0     C37143   7.932   8.177   3.692  0.6492 -0.5177 -0.4029
  276MOL0     C37144   8.003   8.272   3.631  1.1299  0.2121 -0.0758
  276MOL0     C37145   8.108   8.231   3.538  0.5058 -0.2380 -0.1610
  276MOL0     C37146   8.199   8.349   3.491  0.2272  1.3534 -0.1761
  276MOL0     C37147   8.313   8.292   3.403 -0.2582 -0.0050 -0.3735
  276MOL0     C37148   8.407   8.403   3.360  0.5103 -0.7107  0.8171
  276MOL0     O37149   8.521   8.342   3.281 -0.2355 -0.4064 -0.7595
  276MOL0     C37150   8.623   8.414   3.227 -0.6273  0.0145  0.1775
  276MOL0     C37151   8.710   8.340   3.146  0.5417  0.1314 -0.5426
  276MOL0     C37152   8.816   8.403   3.085  0.4959 -0.6525 -0.8895
  276MOL0     C37153   8.846   8.541   3.110  0.3000  0.3944  0.1316
  276MOL0     C37154   8.973   8.607   3.075  0.4247  0.0726  0.1538
  276MOL0     O37155   9.054   8.536   2.988  0.4335  0.6812 -0.0201
  276MOL0     C37156   9.161   8.601   2.931 -0.5368 -0.4014  0.6328
  276MOL0     C37157   9.188   8.581   2.793 -0.0996 -0.1589 -0.6472
  276MOL0     C37158   9.297   8.644   2.729  0.4445 -0.1122  0.4641
  276MOL0     C37159   9.383   8.722   2.806 -1.3193 -0.1538  0.6741
  276MOL0     O37160   9.488   8.795   2.745 -0.1304 -0.2160 -0.5976
  276MOL0     C37161   9.546   8.758   2.615  0.0804 -0.1422  0.0033
  276MOL0     C37162   9.679   8.831   2.584 -0.5125  1.5654 -0.4150
  276MOL0     C37163   9.648   8.965   2.520 -0.4135  0.1216  0.0896
  276MOL0     C37164   9.782   9.038   2.494  0.0285  0.2937  0.3275
  276MOL0     C37165   9.755   9.151   2.394 -0.7422 -0.3576 -0.5478
  276MOL0     C37166   9.865   9.266   2.387 -0.3527 -0.5413 -0.4063
  276MOL0     C37167   9.866   9.362   2.511 -0.7588 -0.3780  0.8988
  276MOL0     C37168   9.987   9.455   2.500  0.6731 -0.5433 -0.1001
  276MOL0    Cl37169  10.145   9.382   2.446  0.1410  0.0831 -0.0294
  276MOL0     C37170   9.355   8.743   2.940 -0.3398  0.1516 -0.0859
  276MOL0     C37171   9.254   8.673   3.004 -0.5410  0.4267 -1.0318
  276MOL0     O37172   8.990   8.725   3.106 -0.2113 -0.1313 -0.2032
  276MOL0     C37173   8.751   8.610   3.192  0.3972 -0.2756 -0.1456
  276MOL0     C37174   8.643   8.544   3.248 -0.0579 -0.6086  0.6079
  276MOL0     N37175   7.947   8.404   3.657  0.4727 -0.3390 -0.1696
  276MOL0     N37176   7.851   8.380   3.741 -0.6644  0.1230 -0.8882
  276MOL0     C37177   6.753   8.364   3.482 -0.4794  0.1693 -0.2967
  276MOL0     C37178   6.630   8.411   3.440 -0.4895  0.3717  0.1368
  276MOL0     C37179   6.168   8.459   3.468  0.4035 -0.7932 -0.3187
  276MOL0     C37180   6.171   8.509   3.334  0.3134  0.2966  0.9932
  276MOL0     C37181   6.050   8.567   3.285 -0.1952  0.0582 -0.0513
  276MOL0     C37182   5.930   8.571   3.356  0.4091  0.0458  0.6939
  276MOL0     O37183   5.819   8.622   3.302 -0.4492 -0.3435  0.1523
  276MOL0     C37184   5.770   8.540   3.200  0.9616  0.8660 -0.5583
  276MOL0     C37185   5.663   8.617   3.116  0.2249 -0.8189 -0.4762
  276MOL0     C37186   5.532   8.655   3.187  0.2831 -1.1933 -0.1890
  276MOL0     C37187   5.478   8.782   3.113 -0.2241 -0.0855 -0.1884
  276MOL0     C37188   5.350   8.831   3.168  0.6615 -0.2421  0.4014
  276MOL0     C37189   5.237   8.864   3.199  0.7415  0.1754  0.2200
  276MOL0     C37190   5.929   8.519   3.485  0.0788 -0.0536  0.3165
  276MOL0     C37191   6.051   8.474   3.542  0.5879  0.6327  0.9623
  276MOL0     C37192   6.043   8.406   3.670 -0.1945 -0.4446  0.0312
  276MOL0     H37193   6.436   8.234   3.642 -0.8834  1.8525 -1.7387
  276MOL0     H37194   6.647   8.180   3.746 -0.6735  0.9846  0.5263
  276MOL0     H37195   6.882   8.232   3.830 -2.5778 -1.8669  0.8580
  276MOL0     H37196   6.856   8.071   3.756 -0.2507  0.6419 -0.5423
  276MOL0     H37197   7.079   8.028   3.726  0.1562 -0.3587  1.3267
  276MOL0     H37198   7.067   8.091   3.881  0.1759 -1.3800 -0.5896
  276MOL0     H37199   7.165   8.301   3.806 -0.9756  1.1047 -0.3620
  276MOL0     H37200   7.147   8.261   3.633  0.5358 -1.8252 -1.1349
  276MOL0     H37201   7.339   8.110   3.819  1.1125  1.7090 -0.2275
  276MOL0     H37202   7.311   8.081   3.651  1.4023 -1.4898  0.1251
  276MOL0     H37203   7.372   8.324   3.595 -1.1789  1.9101  0.7982
  276MOL0     H37204   7.376   8.358   3.769 -3.9130 -0.8649 -0.4376
  276MOL0     H37205   7.557   8.157   3.656 -2.5230 -0.2206  1.7552
  276MOL0     H37206   7.609   8.321   3.638 -1.6488  0.6378 -0.8504
  276MOL0     H37207   7.538   8.187   3.908  0.0957  3.6146  3.1455
  276MOL0     H37208   7.597   8.348   3.900  0.4038  1.4004 -0.2358
  276MOL0     H37209   7.758   8.188   3.962  0.9079  2.0821 -0.1685
  276MOL0     H37210   7.723   8.077   3.832 -0.9909 -0.2012  0.8374
  276MOL0     H37211   7.937   8.068   3.689 -1.5423 -0.6649 -0.2701
  276MOL0     H37212   8.177   8.156   3.578  2.2325  0.6318 -1.3826
  276MOL0     H37213   8.058   8.198   3.447  0.9313 -0.2050 -0.4032
  276MOL0     H37214   8.142   8.416   3.425  0.0046  1.2140 -0.1281
  276MOL0     H37215   8.235   8.393   3.584  0.4467  0.3332  0.2356
  276MOL0     H37216   8.272   8.233   3.320 -0.4799  0.9875 -0.9837
  276MOL0     H37217   8.368   8.229   3.473 -2.9735 -1.7773  0.3348
  276MOL0     H37218   8.433   8.471   3.442 -0.5775  1.5474 -0.6119
  276MOL0     H37219   8.366   8.474   3.288  2.2108 -1.0133 -0.5105
  276MOL0     H37220   8.693   8.235   3.125 -1.1353 -0.0387  1.3820
  276MOL0     H37221   8.880   8.344   3.021  1.1265  0.3820 -1.2348
  276MOL0     H37222   9.119   8.522   2.734 -0.0138 -0.5742 -0.3365
  276MOL0     H37223   9.296   8.638   2.621  0.3805 -1.0817  0.5120
  276MOL0     H37224   9.565   8.650   2.620  0.0697 -0.4828 -3.9523
  276MOL0     H37225   9.473   8.765   2.534 -0.5865  0.7240  0.6547
  276MOL0     H37226   9.745   8.835   2.670 -0.9042 -1.6688  0.1562
  276MOL0     H37227   9.733   8.772   2.509  0.2099  1.6340  0.0455
  276MOL0     H37228   9.586   8.943   2.432 -0.0220  0.3688 -0.2501
  276MOL0     H37229   9.586   9.029   2.584  0.8622 -0.4647  1.9834
  276MOL0     H37230   9.844   8.976   2.429  0.8883  3.6804 -2.3791
  276MOL0     H37231   9.824   9.065   2.591  1.9440  1.5956 -0.8084
  276MOL0     H37232   9.657   9.189   2.424 -0.6140  0.2291 -0.8616
  276MOL0     H37233   9.742   9.109   2.294 -1.2876 -1.2221 -0.1248
  276MOL0     H37234   9.959   9.215   2.361 -1.3546 -2.4837 -0.4251
  276MOL0     H37235   9.841   9.318   2.294  2.7327 -0.0976 -1.0577
  276MOL0     H37236   9.885   9.299   2.598  2.3588 -1.1371 -0.2107
  276MOL0     H37237   9.774   9.421   2.518 -0.2953  0.5936 -0.6241
  276MOL0     H37238   9.963   9.536   2.430  0.4818 -0.5965 -0.0953
  276MOL0     H37239  10.000   9.512   2.592 -1.9354  0.5518 -0.3238
  276MOL0     H37240   9.426   8.800   3.000  0.2854 -0.5130 -0.1737
  276MOL0     H37241   9.236   8.685   3.110  2.4747 -1.1947 -0.2028
  276MOL0     H37242   8.767   8.714   3.217  0.2110 -0.4737  0.8188
  276MOL0     H37243   8.577   8.603   3.311  1.0309  0.1174  1.1046
  276MOL0     H37244   6.846   8.389   3.432 -0.2328 -1.8523 -0.9146
  276MOL0     H37245   6.615   8.484   3.361 -3.3698 -0.1060  0.1087
  276MOL0     H37246   6.252   8.511   3.262  0.1758 -0.7788  0.7940
  276MOL0     H37247   6.052   8.616   3.188  1.2352 -0.3262 -0.2511
  276MOL0     H37248   5.712   8.460   3.246  2.9623 -1.1912 -1.4264
  276MOL0     H37249   5.849   8.491   3.143 -0.1088 -1.2588 -0.2876
  276MOL0     H37250   5.640   8.566   3.022 -1.2261  0.1817 -0.7042
  276MOL0     H37251   5.716   8.706   3.079 -1.6323  0.6722  0.2920
  276MOL0     H37252   5.551   8.683   3.290 -0.5503  2.5399 -0.9165
  276MOL0     H37253   5.454   8.581   3.169 -1.4354  0.7702 -1.2686
  276MOL0     H37254   5.560   8.853   3.125  1.0224 -1.8192  3.0846
  276MOL0     H37255   5.458   8.763   3.007 -0.0955  1.0948 -0.4323
  276MOL0     H37256   5.142   8.902   3.230  1.8043  3.0928  0.1977
  276MOL0     H37257   5.835   8.517   3.539 -1.0748  0.0165 -1.5839
  276MOL0     H37258   6.070   8.483   3.743  0.3357  0.7669 -1.3873
  276MOL0     H37259   5.938   8.382   3.691 -0.9227  2.3082 -0.1249
  276MOL0     H37260   6.089   8.307   3.675 -0.8493 -0.8082 -0.8945
  277MOL0     O37261   3.832   4.747   7.576  0.3240  0.1132  0.3472
  277MOL0     C37262   3.736   4.749   7.654  0.4793 -0.1929  0.1309
  277MOL0     O37263   3.729   4.824   7.771 -0.2727  0.8215 -0.8598
  277MOL0     C37264   3.840   4.890   7.817  0.7486  0.5106  0.8269
  277MOL0     C37265   3.922   4.972   7.744 -0.4584  0.1366  0.2052
  277MOL0     C37266   4.033   5.033   7.795  0.2591 -0.2209 -0.1219
  277MOL0     C37267   4.059   5.026   7.930 -0.5396  0.3057  0.6117
  277MOL0     O37268   4.175   5.075   7.993  0.4185  0.4960  0.3959
  277MOL0     C37269   4.257   5.171   7.928  0.2760 -0.5110 -0.0827
  277MOL0     C37270   4.392   5.171   7.990 -0.2137 -0.4668 -0.1612
  277MOL0     C37271   4.464   5.310   7.982 -0.0816  0.2730  0.0686
  277MOL0     C37272   4.621   5.293   7.993  0.0029 -0.5676 -0.2464
  277MOL0     C37273   4.692   5.429   7.976  0.8188  0.4646  0.0916
  277MOL0     C37274   4.837   5.411   7.983 -0.2552 -0.4922  0.4354
  277MOL0     C37275   4.905   5.357   8.099 -0.3580  0.2062 -0.3593
  277MOL0     C37276   4.872   5.426   8.236  0.3603  0.5350  0.2617
  277MOL0     N37277   4.966   5.370   8.332  0.6684 -0.2048 -0.8160
  277MOL0     C37278   5.096   5.404   8.353 -0.6615  0.4346  0.7710
  277MOL0     C37279   5.140   5.331   8.453 -0.5216 -0.2436 -0.1499
  277MOL0     C37280   5.270   5.331   8.524 -0.1280 -0.1286  0.1760
  277MOL0     C37281   5.320   5.473   8.552 -0.1791  0.5887  0.6503
  277MOL0     C37282   5.438   5.476   8.653 -0.5504 -0.6873 -0.0602
  277MOL0     C37283   5.566   5.456   8.578  0.0858  0.3085  0.2230
  277MOL0     O37284   5.589   5.563   8.486  0.2084 -0.1940 -0.0672
  277MOL0     C37285   5.705   5.552   8.412 -0.1057 -0.4922 -0.5630
  277MOL0     C37286   5.782   5.436   8.397 -0.0533  0.2859  0.3733
  277MOL0     C37287   5.899   5.433   8.324 -0.4834  0.6389 -0.3889
  277MOL0     C37288   5.950   5.549   8.271 -0.9557  0.4880  0.2524
  277MOL0     C37289   6.081   5.553   8.209  0.8695 -0.8596 -0.1469
  277MOL0     O37290   6.110   5.675   8.144 -0.2216  0.1094  0.2115
  277MOL0     C37291   6.224   5.692   8.068  0.1038  0.3911 -0.6231
  277MOL0     C37292   6.307   5.591   8.015  1.1546  1.1953  0.8939
  277MOL0     C37293   6.413   5.613   7.928  0.2316  0.0180  0.4330
  277MOL0     C37294   6.442   5.750   7.895 -0.1284  0.3731  0.0115
  277MOL0     O37295   6.536   5.783   7.805 -0.3971 -0.3627 -0.0125
  277MOL0     C37296   6.650   5.692   7.811  0.1804 -0.2466  0.6645
  277MOL0     C37297   6.768   5.760   7.747  0.1578  0.0211 -0.0922
  277MOL0     C37298   6.892   5.673   7.760  0.3535  0.3572  1.7781
  277MOL0     C37299   6.995   5.729   7.664  0.1698  1.0734  0.5823
  277MOL0     C37300   7.125   5.648   7.669 -0.5571  0.9032  0.3036
  277MOL0     C37301   7.228   5.701   7.569  0.2535 -0.1625  0.1219
  277MOL0     C37302   7.280   5.840   7.617 -0.8853 -0.3779  1.1500
  277MOL0     C37303   7.429   5.866   7.567 -0.2689  0.7285  0.2502
  277MOL0    Cl37304   7.538   5.748   7.649 -0.0631  0.0186 -0.0713
  277MOL0     C37305   6.368   5.850   7.961  0.1974  0.0528  1.3167
  277MOL0     C37306   6.249   5.821   8.031  0.3069 -0.4599  0.4798
  277MOL0     O37307   6.156   5.456   8.214  0.1158 -0.5793  0.0505
  277MOL0     C37308   5.876   5.665   8.280 -0.1321 -1.3719  0.5604
  277MOL0     C37309   5.747   5.668   8.341  0.1960  0.6698  0.0603
  277MOL0     N37310   5.041   5.255   8.509 -0.1581  0.1693 -0.4104
  277MOL0     N37311   4.939   5.274   8.429  0.3859  0.2813 -0.0382
  277MOL0     C37312   3.968   4.961   8.012 -0.3349  0.2676  0.4189
  277MOL0     C37313   3.857   4.897   7.957 -0.6761  0.0007 -0.1549
  277MOL0     C37314   3.611   4.680   7.604 -0.2144 -0.3203 -0.6728
  277MOL0     C37315   3.607   4.621   7.478 -0.0283 -0.4000 -0.0791
  277MOL0     C37316   3.504   4.551   7.428  0.6130 -0.0281 -0.2765
  277MOL0     C37317   3.393   4.526   7.509 -0.1887  0.3306 -0.0334
  277MOL0     O37318   3.283   4.456   7.475  0.1194 -0.8764  0.1554
  277MOL0     C37319   3.288   4.347   7.379 -0.4209 -0.1041 -0.2901
  277MOL0     C37320   3.293   4.212   7.447  0.3409 -0.3469 -0.3298
  277MOL0     C37321   3.428   4.193   7.530  0.5626 -0.6683 -0.0885
  277MOL0     C37322   3.417   4.056   7.601 -0.7966 -0.0022 -0.0539
  277MOL0     C37323   3.537   4.053   7.690  0.7304  0.1910  0.8326
  277MOL0     C37324   3.629   4.056   7.764  0.3109 -0.1722 -0.1965
  277MOL0     C37325   3.397   4.579   7.632  0.5376 -0.3208 -1.0941
  277MOL0     C37326   3.494   4.653   7.688 -0.9676 -0.7638  0.1935
  277MOL0     C37327   3.473   4.701   7.825  0.2514  0.5895 -0.5249
  277MOL0     H37328   3.906   4.983   7.637 -0.3443 -2.4278 -0.1450
  277MOL0     H37329   4.086   5.090   7.719 -0.5222 -2.6127 -2.5953
  277MOL0     H37330   4.254   5.136   7.824 -1.4183 -0.1676 -0.1711
  277MOL0     H37331   4.213   5.271   7.933 -3.1014 -1.9129  0.6861
  277MOL0     H37332   4.457   5.099   7.939  0.1612 -1.5330  1.7443
  277MOL0     H37333   4.376   5.152   8.096 -1.4558 -1.1547 -0.4557
  277MOL0     H37334   4.432   5.373   8.065 -1.1978 -0.5865  0.3089
  277MOL0     H37335   4.430   5.351   7.886 -2.7488 -1.2695  0.2580
  277MOL0     H37336   4.636   5.267   8.098 -0.7216  0.9002  0.2496
  277MOL0     H37337   4.661   5.208   7.937  0.2202  0.2813 -1.4043
  277MOL0     H37338   4.667   5.471   7.878 -3.4510 -0.0902  0.7539
  277MOL0     H37339   4.659   5.499   8.053 -0.2035  1.7624 -1.4523
  277MOL0     H37340   4.876   5.356   7.897 -0.2186 -1.6540  1.1683
  277MOL0     H37341   4.878   5.512   7.975 -0.8764 -0.2005  0.8755
  277MOL0     H37342   5.013   5.365   8.090 -0.2951 -0.3992 -0.1807
  277MOL0     H37343   4.889   5.250   8.109  0.0381  0.1833  0.0519
  277MOL0     H37344   4.878   5.535   8.227 -1.3793  0.7509  1.3370
  277MOL0     H37345   4.769   5.407   8.267  0.7689 -2.2165  0.1465
  277MOL0     H37346   5.141   5.479   8.289 -0.7427 -0.7578 -0.7488
  277MOL0     H37347   5.272   5.273   8.617  2.1355 -0.6845 -0.1477
  277MOL0     H37348   5.336   5.277   8.455  2.9165  2.9714  0.3915
  277MOL0     H37349   5.339   5.538   8.467 -0.8393 -0.5467 -0.3892
  277MOL0     H37350   5.235   5.525   8.598 -2.4725 -2.7708  0.5546
  277MOL0     H37351   5.418   5.393   8.721 -1.8346  0.0035  0.4404
  277MOL0     H37352   5.452   5.568   8.712 -0.4992 -0.1206 -0.9333
  277MOL0     H37353   5.550   5.364   8.519  1.7982  1.6228 -2.5167
  277MOL0     H37354   5.645   5.431   8.649  0.5980  0.5781 -0.2395
  277MOL0     H37355   5.749   5.343   8.442  1.2188  0.1835  1.1308
  277MOL0     H37356   5.951   5.338   8.319 -2.1291 -0.2388 -1.8199
  277MOL0     H37357   6.284   5.488   8.040  0.5407  1.0404 -0.2289
  277MOL0     H37358   6.460   5.526   7.885  2.2702  0.0924  2.3162
  277MOL0     H37359   6.672   5.659   7.913 -1.1566 -1.9023  0.4631
  277MOL0     H37360   6.630   5.604   7.749  0.3583  2.0957 -3.0924
  277MOL0     H37361   6.741   5.781   7.643 -0.6104  2.1211  0.4874
  277MOL0     H37362   6.798   5.857   7.789 -1.5496 -0.2153  1.8289
  277MOL0     H37363   6.940   5.675   7.858  1.4042 -0.1735  1.2930
  277MOL0     H37364   6.872   5.573   7.722  0.6370  0.5550  1.0796
  277MOL0     H37365   7.016   5.835   7.682  1.4245  1.6004 -3.0222
  277MOL0     H37366   6.958   5.720   7.561 -1.3694 -1.5096  1.2582
  277MOL0     H37367   7.108   5.545   7.636 -0.8802  0.8778  0.5499
  277MOL0     H37368   7.163   5.646   7.772  0.5118  3.0077 -0.0128
  277MOL0     H37369   7.311   5.629   7.567  2.1199  1.8922 -0.0126
  277MOL0     H37370   7.190   5.711   7.467  2.0297 -2.2581 -0.8350
  277MOL0     H37371   7.268   5.858   7.724  0.5221  1.4390  1.0368
  277MOL0     H37372   7.222   5.915   7.563  0.8191 -1.7904 -3.0498
  277MOL0     H37373   7.433   5.860   7.458 -2.3023  1.2041  0.1124
  277MOL0     H37374   7.445   5.971   7.591 -1.6244  0.3629  3.1814
  277MOL0     H37375   6.382   5.954   7.936 -1.8507  0.1588  0.4184
  277MOL0     H37376   6.185   5.905   8.059 -2.0609 -0.5991 -3.7054
  277MOL0     H37377   5.910   5.759   8.237 -0.9902 -1.2260  0.1855
  277MOL0     H37378   5.697   5.763   8.355  2.1594  1.8389 -0.4173
  277MOL0     H37379   3.985   4.967   8.119 -0.6693  0.8909  0.4415
  277MOL0     H37380   3.772   4.856   8.011 -1.5875  0.4132 -1.2349
  277MOL0     H37381   3.697   4.629   7.417 -0.7838 -2.4868 -1.5842
  277MOL0     H37382   3.499   4.527   7.322 -0.6218  1.5810 -0.6248
  277MOL0     H37383   3.367   4.365   7.306  2.0466  0.2995  2.3053
  277MOL0     H37384   3.202   4.343   7.311 -1.4181  1.5864  0.7849
  277MOL0     H37385   3.282   4.135   7.370 -0.3117  0.1108 -0.7022
  277MOL0     H37386   3.208   4.206   7.515  1.2640  0.3609  0.9457
  277MOL0     H37387   3.444   4.278   7.598  2.1939 -0.0841 -1.1602
  277MOL0     H37388   3.506   4.190   7.454  1.5154  0.2585  0.8204
  277MOL0     H37389   3.325   4.057   7.661  0.4791  2.7382  2.0776
  277MOL0     H37390   3.413   3.971   7.532 -0.1730 -0.7246  0.7755
  277MOL0     H37391   3.700   4.044   7.843 -2.1800 -1.6509  1.9979
  277MOL0     H37392   3.311   4.558   7.695  0.7572  0.5719 -0.4799
  277MOL0     H37393   3.561   4.669   7.881 -0.1643 -2.2134 -1.3203
  277MOL0     H37394   3.460   4.809   7.834  0.1714  0.6667 -1.4548
  277MOL0     H37395   3.383   4.653   7.865  1.3255 -0.3065  0.9228
  278MOL0     O37396   7.983   2.829   0.854  0.2707  0.0757  0.2283
  278MOL0     C37397   7.889   2.844   0.934  1.7035 -0.1813  0.6991
  278MOL0     O37398   7.891   2.929   1.042 -1.1595  0.0925 -0.7693
  278MOL0     C37399   8.009   3.003   1.062 -0.1044  0.6459  0.0979
  278MOL0     C37400   8.002   3.138   1.047  0.0710 -0.0719 -1.2694
  278MOL0     C37401   8.111   3.211   1.086 -0.4672  0.4071  0.4856
  278MOL0     C37402   8.230   3.153   1.133  0.3094  0.2520 -1.1971
  278MOL0     O37403   8.335   3.230   1.179  0.0246 -0.0141  0.0663
  278MOL0     C37404   8.457   3.166   1.216 -0.0961 -0.3313  0.4610
  278MOL0     C37405   8.552   3.280   1.254 -0.0994  0.3168 -0.0524
  278MOL0     C37406   8.699   3.254   1.250 -1.3021 -0.6394 -0.3549
  278MOL0     C37407   8.748   3.159   1.359  0.1139  0.2043 -0.1346
  278MOL0     C37408   8.907   3.148   1.345 -0.5963  0.0347 -0.1169
  278MOL0     C37409   8.962   3.082   1.465  0.0212 -0.2825  0.6952
  278MOL0     C37410   8.967   3.181   1.591 -0.2217  0.0095  0.3278
  278MOL0     C37411   9.077   3.138   1.689  0.1703  0.0248  1.3732
  278MOL0     N37412   9.209   3.165   1.635  0.2127  0.3081  0.4293
  278MOL0     C37413   9.284   3.265   1.680 -0.4543  0.4018 -0.7225
  278MOL0     C37414   9.408   3.247   1.629  0.5434  1.1374 -0.2257
  278MOL0     C37415   9.518   3.330   1.670 -0.2965  0.3955 -0.1493
  278MOL0     C37416   9.587   3.265   1.790 -0.2173 -0.4443 -0.2821
  278MOL0     C37417   9.704   3.341   1.856 -0.5470 -0.2592  1.1290
  278MOL0     C37418   9.834   3.342   1.776  0.6221 -0.2555 -0.0828
  278MOL0     O37419   9.938   3.410   1.849  0.4766 -0.1568 -0.4428
  278MOL0     C37420  10.073   3.390   1.815 -0.4477 -0.6840 -0.4756
  278MOL0     C37421  10.114   3.329   1.696  0.4432  0.4567  0.0787
  278MOL0     C37422  10.251   3.328   1.657  0.5530  0.2024 -0.6550
  278MOL0     C37423  10.348   3.380   1.743  0.1284  0.4357 -0.1238
  278MOL0     C37424  10.487   3.353   1.721 -0.5505  0.3318 -0.4359
  278MOL0     O37425  10.568   3.381   1.826  0.5388 -0.0805 -0.5015
  278MOL0     C37426  10.701   3.352   1.813 -0.4979  0.4899 -0.3434
  278MOL0     C37427  10.794   3.450   1.786 -1.3901 -0.2834  0.3151
  278MOL0     C37428  10.935   3.423   1.765  0.4195 -0.4760 -0.8330
  278MOL0     C37429  10.981   3.296   1.785 -0.6386 -0.0392 -0.6135
  278MOL0     O37430  11.114   3.274   1.773 -0.4276  0.2765 -0.1709
  278MOL0     C37431  11.157   3.138   1.737 -0.2276 -0.0763 -0.2348
  278MOL0     C37432  11.305   3.146   1.694 -0.0091 -0.7954  0.3918
  278MOL0     C37433  11.326   3.217   1.566  0.3948 -0.6165  0.0984
  278MOL0     C37434  11.476   3.225   1.547  0.6662  0.3663 -0.0550
  278MOL0     C37435  11.497   3.259   1.397  0.3448  0.1941 -0.5065
  278MOL0     C37436  11.632   3.308   1.356 -0.5190 -0.2182 -0.0853
  278MOL0     C37437  11.736   3.200   1.366  0.3569  0.3611 -0.6173
  278MOL0     C37438  11.870   3.255   1.329  0.1355  0.7742  0.3387
  278MOL0    Cl37439  11.930   3.369   1.454  0.3101 -0.4083  0.0011
  278MOL0     C37440  10.883   3.192   1.825 -0.7140  0.0575  0.7557
  278MOL0     C37441  10.755   3.219   1.840 -0.2212  0.0179  0.1621
  278MOL0     O37442  10.526   3.294   1.621  0.7894  0.0955  0.8037
  278MOL0     C37443  10.304   3.436   1.861 -0.6039  0.3333 -0.8683
  278MOL0     C37444  10.167   3.448   1.893 -0.1319  0.0836  0.1985
  278MOL0     N37445   9.408   3.129   1.559 -0.4167  0.1941 -0.2854
  278MOL0     N37446   9.294   3.078   1.571 -0.1286 -0.4696 -0.0223
  278MOL0     C37447   8.227   3.011   1.157  0.3983 -0.3980  0.0431
  278MOL0     C37448   8.116   2.935   1.112 -0.3978 -0.0715  0.1000
  278MOL0     C37449   7.760   2.775   0.890  0.5041 -0.3208 -0.6537
  278MOL0     C37450   7.760   2.702   0.768  0.5134  0.4544 -0.1316
  278MOL0     C37451   7.643   2.649   0.720  0.5656  0.3761 -0.2747
  278MOL0     C37452   7.523   2.634   0.802 -0.2616  0.2262  0.6680
  278MOL0     O37453   7.401   2.581   0.777  0.1267  0.8370  0.1688
  278MOL0     C37454   7.372   2.507   0.654 -0.5795  0.2778 -0.3999
  278MOL0     C37455   7.264   2.395   0.684  0.1284  0.0069 -0.3252
  278MOL0     C37456   7.118   2.441   0.698  0.0694 -0.0362 -1.0236
  278MOL0     C37457   7.010   2.328   0.681 -0.2130 -0.1731 -0.3585
  278MOL0     C37458   7.034   2.214   0.768 -0.2015  1.3018 -0.5581
  278MOL0     C37459   7.057   2.121   0.850 -0.4855  0.7947 -0.2946
  278MOL0     C37460   7.527   2.703   0.923  0.3434 -0.2415  0.0377
  278MOL0     C37461   7.638   2.772   0.970  0.9920 -0.1178  0.2654
  278MOL0     C37462   7.641   2.815   1.115 -0.3101 -0.2322  0.1034
  278MOL0     H37463   7.906   3.181   1.018 -1.2287 -1.7045  0.3995
  278MOL0     H37464   8.104   3.318   1.103  0.9636  0.8523 -1.4332
  278MOL0     H37465   8.442   3.101   1.302  0.2413 -1.3740 -0.2413
  278MOL0     H37466   8.499   3.110   1.132  0.9329  1.4530 -0.2650
  278MOL0     H37467   8.537   3.316   1.356  1.5594  0.8482  0.0325
  278MOL0     H37468   8.539   3.365   1.186 -1.8878 -0.2172 -0.4213
  278MOL0     H37469   8.750   3.350   1.264 -1.8005 -0.7136  2.6715
  278MOL0     H37470   8.724   3.213   1.151 -0.7054 -0.4766 -0.2731
  278MOL0     H37471   8.715   3.200   1.455  2.3227  0.3342  0.6306
  278MOL0     H37472   8.704   3.060   1.345 -2.3065  1.0988  0.6996
  278MOL0     H37473   8.943   3.095   1.256  1.8719  1.1131  0.1694
  278MOL0     H37474   8.956   3.246   1.348  1.8595 -1.0124 -1.9771
  278MOL0     H37475   8.905   2.990   1.485 -0.7448  0.1336  0.4595
  278MOL0     H37476   9.061   3.047   1.435  1.7468  3.9114  0.9061
  278MOL0     H37477   8.867   3.184   1.636  0.5771  2.2521  2.1691
  278MOL0     H37478   8.982   3.287   1.570  0.2973  0.0977  1.0858
  278MOL0     H37479   9.045   3.190   1.779 -2.4192 -2.0244  1.7750
  278MOL0     H37480   9.070   3.035   1.725  1.5168 -0.3596  0.6273
  278MOL0     H37481   9.249   3.348   1.740 -0.6664  0.7441 -1.3055
  278MOL0     H37482   9.600   3.327   1.599  1.8412  3.7271  1.9264
  278MOL0     H37483   9.494   3.435   1.690  1.4777  0.9787 -0.8774
  278MOL0     H37484   9.505   3.266   1.863  0.9646 -0.7987  1.0877
  278MOL0     H37485   9.613   3.164   1.755 -0.1051 -1.7515  3.1914
  278MOL0     H37486   9.738   3.301   1.952  0.9355 -0.6205  0.4793
  278MOL0     H37487   9.672   3.446   1.861 -3.0309 -0.8124 -1.1182
  278MOL0     H37488   9.815   3.388   1.678  0.6466 -2.4774 -1.2050
  278MOL0     H37489   9.852   3.235   1.765  3.3246 -0.1269  2.1812
  278MOL0     H37490  10.038   3.283   1.634  0.2347  1.8624 -0.7458
  278MOL0     H37491  10.281   3.274   1.568  0.9855 -2.4892  1.0162
  278MOL0     H37492  10.762   3.552   1.764 -0.6808  0.1818  1.3611
  278MOL0     H37493  11.013   3.497   1.747  0.3981 -0.4556 -0.8381
  278MOL0     H37494  11.147   3.071   1.823 -1.3578 -0.1561 -0.4066
  278MOL0     H37495  11.096   3.103   1.652 -2.1491  1.0009  0.6265
  278MOL0     H37496  11.359   3.195   1.776 -1.1676  1.2978 -0.0141
  278MOL0     H37497  11.345   3.046   1.677 -1.9445 -1.5739  0.2346
  278MOL0     H37498  11.266   3.168   1.488 -0.6339 -0.0473  0.5176
  278MOL0     H37499  11.295   3.321   1.576  1.3980 -0.4588  1.9873
  278MOL0     H37500  11.520   3.126   1.563 -0.4179 -0.1552 -0.2355
  278MOL0     H37501  11.527   3.297   1.611  0.1981  0.6891 -0.0368
  278MOL0     H37502  11.426   3.337   1.368 -2.0392 -2.6019 -2.7472
  278MOL0     H37503  11.478   3.173   1.333  1.2023  0.8062 -1.6301
  278MOL0     H37504  11.626   3.353   1.257 -1.4058 -1.8182 -0.8146
  278MOL0     H37505  11.662   3.387   1.424  0.1400 -0.7399  0.2398
  278MOL0     H37506  11.708   3.111   1.309 -2.2865 -1.0130  2.5193
  278MOL0     H37507  11.733   3.156   1.466 -0.1472 -1.2071 -1.2876
  278MOL0     H37508  11.940   3.173   1.311  0.3655  1.0038  0.1779
  278MOL0     H37509  11.863   3.305   1.232  2.9130 -0.4844 -0.6193
  278MOL0     H37510  10.927   3.094   1.842  0.1797  0.1040 -0.9958
  278MOL0     H37511  10.683   3.144   1.871  2.4782 -2.3790  1.1004
  278MOL0     H37512  10.372   3.464   1.941  0.5068 -2.1970 -0.8090
  278MOL0     H37513  10.123   3.495   1.981 -3.4868 -1.7624 -0.3349
  278MOL0     H37514   8.302   2.950   1.207  0.7760 -0.1466 -0.2116
  278MOL0     H37515   8.114   2.827   1.115 -4.4000 -0.1388  0.3217
  278MOL0     H37516   7.837   2.700   0.691  0.8416 -2.0286  0.1766
  278MOL0     H37517   7.643   2.603   0.622  1.7343  1.2034 -0.6829
  278MOL0     H37518   7.464   2.456   0.622 -0.6000  1.0726 -1.7963
  278MOL0     H37519   7.333   2.577   0.581 -0.5098 -1.7916 -2.5239
  278MOL0     H37520   7.299   2.338   0.770 -1.5525  0.1727  0.5113
  278MOL0     H37521   7.266   2.325   0.599 -0.6053  1.0516 -1.2358
  278MOL0     H37522   7.103   2.523   0.628  1.4466  1.1148 -0.0232
  278MOL0     H37523   7.093   2.486   0.794 -1.5981 -0.9331 -0.9909
  278MOL0     H37524   6.910   2.369   0.694  0.1792  1.0832 -1.1128
  278MOL0     H37525   7.005   2.294   0.577 -1.2267  0.5587 -0.5670
  278MOL0     H37526   7.078   2.035   0.911  0.1866 -0.4541 -2.1940
  278MOL0     H37527   7.443   2.702   0.991  0.4118  3.6597  0.3865
  278MOL0     H37528   7.572   2.749   1.169  1.1541 -0.6680  1.5300
  278MOL0     H37529   7.739   2.788   1.156 -0.3993 -1.4524 -0.4450
  278MOL0     H37530   7.617   2.920   1.129 -0.9544 -0.1622 -1.3282
  279MOL0     O37531   7.232   7.692   1.652  0.2362  0.5555  0.8713
  279MOL0     C37532   7.189   7.577   1.681  0.4400  0.4456 -0.8758
  279MOL0     O37533   7.256   7.457   1.658 -0.7166  0.0070 -0.3201
  279MOL0     C37534   7.363   7.455   1.572  0.5096 -0.1107  0.2760
  279MOL0     C37535   7.380   7.344   1.486 -0.5657 -0.3999  0.0597
  279MOL0     C37536   7.499   7.329   1.412 -0.2096  0.4155 -0.2610
  279MOL0     C37537   7.602   7.424   1.418 -0.0695  0.9167  0.0552
  279MOL0     O37538   7.697   7.391   1.322  0.3337  0.1077 -0.1846
  279MOL0     C37539   7.816   7.463   1.334  0.4187  0.7708 -0.5040
  279MOL0     C37540   7.924   7.396   1.253  0.3428 -0.3955  0.3793
  279MOL0     C37541   8.063   7.463   1.268  0.4204 -0.4490  0.5499
  279MOL0     C37542   8.154   7.410   1.163 -0.5324 -0.0363 -0.6970
  279MOL0     C37543   8.284   7.501   1.145 -0.2357  0.5717  0.3899
  279MOL0     C37544   8.366   7.454   1.030  0.6318 -0.3279 -0.3993
  279MOL0     C37545   8.497   7.536   1.030  0.0171 -1.1405 -0.1545
  279MOL0     C37546   8.604   7.485   0.937 -0.7698  0.6815 -0.5743
  279MOL0     N37547   8.735   7.551   0.963 -0.8386 -0.2108 -0.0590
  279MOL0     C37548   8.744   7.689   0.977 -0.3191  0.0356  0.7182
  279MOL0     C37549   8.876   7.702   1.031  0.0189  0.2770  0.2313
  279MOL0     C37550   8.943   7.834   1.055 -0.0339 -0.7648 -0.2799
  279MOL0     C37551   9.091   7.817   1.019  0.3013 -0.9912 -0.3965
  279MOL0     C37552   9.181   7.920   1.091  0.6215  0.3115 -0.1429
  279MOL0     C37553   9.314   7.956   1.017 -0.4329 -0.3462  0.4017
  279MOL0     O37554   9.348   8.095   1.048  0.2332 -0.1980 -0.1801
  279MOL0     C37555   9.446   8.147   0.965 -0.0121  0.0676  1.4864
  279MOL0     C37556   9.533   8.071   0.879 -0.3054  0.2566  0.9533
  279MOL0     C37557   9.626   8.125   0.786  0.9179 -0.3703  0.4471
  279MOL0     C37558   9.642   8.266   0.783 -0.4098 -0.1166 -0.2964
  279MOL0     C37559   9.743   8.324   0.687  0.3909  0.1895  0.1281
  279MOL0     O37560   9.764   8.458   0.704  0.4468 -0.8001  0.6213
  279MOL0     C37561   9.845   8.544   0.631 -0.6445  0.0234  1.3563
  279MOL0     C37562   9.956   8.508   0.549  0.3691 -0.3081 -0.3955
  279MOL0     C37563  10.035   8.602   0.478  0.1680  0.3369 -0.2815
  279MOL0     C37564  10.013   8.737   0.500 -0.3480  0.7598 -0.2109
  279MOL0     O37565  10.091   8.828   0.429  0.4263  0.3902  0.4705
  279MOL0     C37566  10.092   8.971   0.455  0.1726 -0.4772 -0.2058
  279MOL0     C37567  10.202   9.047   0.379  0.7381  0.0423 -0.4288
  279MOL0     C37568  10.252   9.176   0.455  0.1685 -0.9886  0.0302
  279MOL0     C37569  10.361   9.246   0.375  0.0903 -0.4757  0.0336
  279MOL0     C37570  10.422   9.367   0.442 -0.0823  0.3933  0.0508
  279MOL0     C37571  10.557   9.413   0.370  1.6766 -0.0013 -0.3533
  279MOL0     C37572  10.673   9.320   0.407  0.2370 -0.3202  0.6005
  279MOL0     C37573  10.796   9.374   0.337 -0.2393 -0.9640 -0.0435
  279MOL0    Cl37574  10.784   9.351   0.158  0.0473  0.3593  0.3028
  279MOL0     C37575   9.911   8.785   0.583  0.7099  0.2216  0.2709
  279MOL0     C37576   9.832   8.678   0.650  0.4347 -1.0849 -0.6353
  279MOL0     O37577   9.789   8.251   0.595  0.3195  0.0936 -0.8845
  279MOL0     C37578   9.566   8.344   0.866  0.2736 -0.7037 -1.1653
  279MOL0     C37579   9.465   8.287   0.957 -0.2497  0.9923  0.3376
  279MOL0     N37580   8.925   7.575   1.049 -0.3043  0.3815  0.2569
  279MOL0     N37581   8.838   7.487   1.018 -0.4245  0.3310  0.4890
  279MOL0     C37582   7.599   7.531   1.505  0.5294  0.5594  0.5046
  279MOL0     C37583   7.474   7.542   1.580 -0.2515 -0.3658  0.8943
  279MOL0     C37584   7.042   7.568   1.734 -0.1734 -0.2150  0.1811
  279MOL0     C37585   6.979   7.445   1.717 -0.6286  0.5595  0.4187
  279MOL0     C37586   6.845   7.422   1.760 -0.6339  0.4095  0.0898
  279MOL0     C37587   6.778   7.520   1.824  0.6579 -0.1184  0.7241
  279MOL0     O37588   6.654   7.503   1.873  0.2541  0.2395 -0.4946
  279MOL0     C37589   6.596   7.593   1.964 -0.7967  0.6532 -0.4138
  279MOL0     C37590   6.471   7.534   2.036 -0.7667  0.3248  0.2150
  279MOL0     C37591   6.340   7.601   1.988  0.6534 -0.2384  0.5427
  279MOL0     C37592   6.205   7.565   2.069 -0.1374 -0.3398 -0.7599
  279MOL0     C37593   6.203   7.641   2.192 -0.2480  0.1083  0.8746
  279MOL0     C37594   6.185   7.686   2.303  0.4195 -0.6476 -0.2418
  279MOL0     C37595   6.836   7.648   1.833 -0.6857 -0.4276  0.0593
  279MOL0     C37596   6.965   7.673   1.779  0.8318 -0.6427 -0.7214
  279MOL0     C37597   7.010   7.811   1.800 -0.2835  0.2720  0.4026
  279MOL0     H37598   7.296   7.277   1.468  1.3831 -2.6974 -0.9640
  279MOL0     H37599   7.516   7.239   1.352  2.3828  0.2544  0.5629
  279MOL0     H37600   7.806   7.567   1.299  0.2813  0.6606 -0.7954
  279MOL0     H37601   7.847   7.469   1.438 -2.4555  0.3169  0.4663
  279MOL0     H37602   7.889   7.384   1.150  0.6868 -3.8339  0.5507
  279MOL0     H37603   7.923   7.290   1.281  2.4691 -0.2628  1.1544
  279MOL0     H37604   8.097   7.435   1.368  1.4202 -3.3207 -0.4857
  279MOL0     H37605   8.053   7.571   1.254 -0.5895 -0.7337 -1.1227
  279MOL0     H37606   8.186   7.311   1.198  0.7854 -0.2994 -2.4981
  279MOL0     H37607   8.105   7.401   1.065 -0.4232 -1.2354 -0.6539
  279MOL0     H37608   8.253   7.605   1.129  3.0940  1.4609 -1.4018
  279MOL0     H37609   8.342   7.499   1.238 -1.2638 -1.9070  1.0564
  279MOL0     H37610   8.388   7.348   1.047 -0.3963 -0.4592  0.1627
  279MOL0     H37611   8.299   7.460   0.944 -0.4966 -1.3246  0.3754
  279MOL0     H37612   8.537   7.528   1.132  0.5940  0.2602 -0.2374
  279MOL0     H37613   8.480   7.644   1.016  2.2356 -0.6036  0.8482
  279MOL0     H37614   8.615   7.379   0.964  0.2283  1.0097  0.4098
  279MOL0     H37615   8.582   7.488   0.830  3.4347 -0.4495 -1.6486
  279MOL0     H37616   8.678   7.762   0.931  0.1467 -0.5925 -1.0211
  279MOL0     H37617   8.896   7.918   1.002  2.1293  1.1398  0.6909
  279MOL0     H37618   8.941   7.865   1.159 -0.5724  0.3901 -0.6173
  279MOL0     H37619   9.127   7.715   1.036  1.5758 -0.3435  0.9500
  279MOL0     H37620   9.092   7.834   0.911 -0.5628 -0.2876 -0.3081
  279MOL0     H37621   9.202   7.874   1.188 -2.9108 -4.0128 -1.0961
  279MOL0     H37622   9.124   8.012   1.101 -1.3518 -0.9240  0.5241
  279MOL0     H37623   9.298   7.954   0.908  0.5232 -0.7646  0.2552
  279MOL0     H37624   9.397   7.886   1.035  0.2504  0.4028  0.2309
  279MOL0     H37625   9.532   7.962   0.883  0.9384  0.2322  0.7384
  279MOL0     H37626   9.681   8.062   0.717  1.3876  1.3103 -0.7998
  279MOL0     H37627   9.963   8.403   0.521  0.9346 -0.4460  0.2384
  279MOL0     H37628  10.116   8.573   0.411  0.8638 -2.7437  1.7150
  279MOL0     H37629   9.993   9.011   0.430  0.3637 -1.2669 -2.4448
  279MOL0     H37630  10.122   8.988   0.559  4.3527  0.4400 -1.3988
  279MOL0     H37631  10.288   8.981   0.367  0.7231  0.1334 -1.0985
  279MOL0     H37632  10.174   9.065   0.274  2.4029  1.9356 -0.6109
  279MOL0     H37633  10.171   9.246   0.479  0.8189 -0.3197  0.2959
  279MOL0     H37634  10.296   9.149   0.551 -1.7033 -2.2953  0.5655
  279MOL0     H37635  10.317   9.279   0.280 -1.3395  1.7105  1.3491
  279MOL0     H37636  10.430   9.166   0.348  1.1771 -0.1822  1.8137
  279MOL0     H37637  10.442   9.339   0.546  2.2628 -0.7899 -0.6465
  279MOL0     H37638  10.353   9.452   0.440  0.0899  0.5723  0.9918
  279MOL0     H37639  10.548   9.419   0.261  0.4742 -1.9502 -0.4095
  279MOL0     H37640  10.580   9.513   0.408 -0.9924  0.4171  0.3788
  279MOL0     H37641  10.655   9.218   0.373  1.1105  0.4355 -2.3498
  279MOL0     H37642  10.684   9.310   0.516  1.8770 -3.6566  0.2575
  279MOL0     H37643  10.812   9.477   0.370 -0.7267 -0.6917 -0.6396
  279MOL0     H37644  10.879   9.317   0.380  0.2188  0.2319  0.6794
  279MOL0     H37645   9.884   8.888   0.602 -1.0364  0.2241 -1.8527
  279MOL0     H37646   9.744   8.709   0.704  1.2054 -0.7044  0.4348
  279MOL0     H37647   9.564   8.453   0.867 -1.8647 -0.6446  1.5563
  279MOL0     H37648   9.406   8.354   1.019 -1.7908 -0.3537  0.4110
  279MOL0     H37649   7.685   7.596   1.513  0.4782  0.5280  1.4217
  279MOL0     H37650   7.468   7.629   1.645 -0.1568  1.8143 -1.8314
  279MOL0     H37651   7.038   7.361   1.681 -2.0519 -0.3787  0.2216
  279MOL0     H37652   6.816   7.319   1.742  1.1178 -0.3976  1.4952
  279MOL0     H37653   6.565   7.686   1.916  0.4675  0.1445 -2.2950
  279MOL0     H37654   6.673   7.616   2.039 -1.1087  2.0045 -0.4706
  279MOL0     H37655   6.484   7.552   2.143  1.2624  2.2510 -0.2739
  279MOL0     H37656   6.466   7.426   2.016 -0.8326  0.8242 -3.0955
  279MOL0     H37657   6.332   7.573   1.883  0.1735 -2.8775  1.1986
  279MOL0     H37658   6.352   7.709   2.000 -0.7614 -0.1363  1.2088
  279MOL0     H37659   6.119   7.600   2.012  0.6196  3.1006 -0.0032
  279MOL0     H37660   6.195   7.457   2.084  1.5956 -0.2563  1.6372
  279MOL0     H37661   6.161   7.718   2.402  1.0889 -2.6313  0.6026
  279MOL0     H37662   6.781   7.722   1.890 -0.8921 -1.3121  1.0488
  279MOL0     H37663   6.939   7.867   1.862  0.2065  4.3861 -2.3899
  279MOL0     H37664   7.109   7.821   1.845 -0.4611 -1.4700  1.2550
  279MOL0     H37665   7.016   7.859   1.702 -0.8698  0.5073  0.4775
  280MOL0     O37666   6.663   2.095   0.146  0.5306  0.2362 -0.7385
  280MOL0     C37667   6.704   2.203   0.113  0.0824  0.6028 -1.1090
  280MOL0     O37668   6.838   2.233   0.131  0.0120 -0.2848  0.2928
  280MOL0     C37669   6.922   2.133   0.162  0.1964 -0.1313 -0.2048
  280MOL0     C37670   7.026   2.097   0.073  0.5433  0.0106 -0.4441
  280MOL0     C37671   7.125   2.013   0.116 -0.9758 -0.0632 -0.3552
  280MOL0     C37672   7.133   1.962   0.251 -0.2547  0.2097 -0.7657
  280MOL0     O37673   7.249   1.890   0.289 -0.1651 -0.5494 -0.5981
  280MOL0     C37674   7.268   1.842   0.423 -0.5274 -0.2764  0.7298
  280MOL0     C37675   7.409   1.795   0.420 -0.5844 -0.4230 -0.0785
  280MOL0     C37676   7.516   1.902   0.408  0.3689  0.6580 -0.1782
  280MOL0     C37677   7.650   1.848   0.408 -0.1873  0.1570 -0.7399
  280MOL0     C37678   7.763   1.949   0.431 -0.0920 -0.7247 -0.4742
  280MOL0     C37679   7.902   1.888   0.469 -0.1283 -0.1289  0.5150
  280MOL0     C37680   8.014   1.981   0.498  0.6821 -0.8356  0.4889
  280MOL0     C37681   8.149   1.912   0.534  0.0888  0.6946 -0.1700
  280MOL0     N37682   8.244   1.988   0.621  0.4880  1.4917  0.0845
  280MOL0     C37683   8.240   2.015   0.760  0.0280  0.1227 -0.0266
  280MOL0     C37684   8.341   2.100   0.781 -0.4104  0.5569  0.3864
  280MOL0     C37685   8.376   2.168   0.909  0.2924 -0.2068 -0.2694
  280MOL0     C37686   8.498   2.103   0.970  0.1059 -0.3276 -0.4718
  280MOL0     C37687   8.575   2.194   1.071 -0.3603 -0.0010  0.3002
  280MOL0     C37688   8.710   2.135   1.121  0.2955 -0.4406  0.0957
  280MOL0     O37689   8.784   2.255   1.164 -0.9332 -0.2107  0.6426
  280MOL0     C37690   8.917   2.258   1.163 -1.7346 -0.2877 -0.3030
  280MOL0     C37691   8.983   2.382   1.189 -0.2469 -0.5530  0.4167
  280MOL0     C37692   9.119   2.389   1.186 -0.2764 -0.2271  0.6604
  280MOL0     C37693   9.207   2.278   1.159  0.3805 -0.2441 -1.2922
  280MOL0     C37694   9.360   2.302   1.155  0.4588  0.6395 -0.7434
  280MOL0     O37695   9.437   2.198   1.126  0.7811  0.8893  0.2041
  280MOL0     C37696   9.568   2.223   1.105  0.6457  0.2922 -0.6996
  280MOL0     C37697   9.662   2.252   1.206 -1.0090  0.1126  0.1033
  280MOL0     C37698   9.799   2.266   1.181  0.0149  0.3121 -0.1436
  280MOL0     C37699   9.840   2.240   1.052  0.3078  0.2283 -0.5266
  280MOL0     O37700   9.974   2.228   1.015  0.2519  0.4646 -0.2742
  280MOL0     C37701  10.074   2.195   1.115 -0.4873 -0.4572  0.4558
  280MOL0     C37702  10.204   2.175   1.051 -0.4464 -0.1217  0.4340
  280MOL0     C37703  10.315   2.141   1.156  0.2044  0.3754 -0.3942
  280MOL0     C37704  10.458   2.116   1.095  0.1994  0.0222  0.0997
  280MOL0     C37705  10.546   2.065   1.209  0.1006  0.7409 -0.6500
  280MOL0     C37706  10.677   2.003   1.147 -0.5532  0.7454 -0.3062
  280MOL0     C37707  10.762   1.953   1.267 -0.2174  0.8227 -0.6013
  280MOL0     C37708  10.895   1.898   1.228  0.0789 -0.1503  0.4962
  280MOL0    Cl37709  10.864   1.732   1.161 -0.1867  0.4066 -0.2505
  280MOL0     C37710   9.758   2.209   0.946  0.7534 -0.5397 -0.0128
  280MOL0     C37711   9.617   2.210   0.973 -0.1441 -0.5873  0.1180
  280MOL0     O37712   9.397   2.408   1.201 -0.5289 -0.5220 -1.0895
  280MOL0     C37713   9.136   2.152   1.132  0.5475  0.1962  0.5986
  280MOL0     C37714   8.994   2.140   1.136  0.6651  0.2782 -0.2980
  280MOL0     N37715   8.404   2.122   0.659 -0.5012  0.2590  0.0165
  280MOL0     N37716   8.345   2.057   0.566  0.2315 -0.4127  0.2372
  280MOL0     C37717   7.033   2.000   0.343  0.1558 -0.8762  0.4645
  280MOL0     C37718   6.930   2.081   0.297  0.2060  0.0260  0.6904
  280MOL0     C37719   6.612   2.294   0.054  0.2312  0.4568 -0.4909
  280MOL0     C37720   6.489   2.332   0.120 -0.4386  0.0914 -0.6803
  280MOL0     C37721   6.399   2.429   0.066  0.1005 -0.3015 -0.0473
  280MOL0     C37722   6.417   2.481  -0.056  0.4735  0.3081  0.4936
  280MOL0     O37723   6.330   2.561  -0.123  0.1968  0.3453 -0.4395
  280MOL0     C37724   6.198   2.525  -0.127  0.4528 -0.0088  0.2888
  280MOL0     C37725   6.137   2.582  -0.251  0.8396 -0.0815 -0.7741
  280MOL0     C37726   6.004   2.526  -0.299 -0.1330  0.5251 -0.2418
  280MOL0     C37727   5.888   2.559  -0.195  1.1246 -1.0419  0.2557
  280MOL0     C37728   5.758   2.520  -0.251  0.2552  0.5174  0.1165
  280MOL0     C37729   5.659   2.469  -0.302  0.0526  0.0649  0.1744
  280MOL0     C37730   6.542   2.448  -0.123  0.4194 -0.8040 -0.6870
  280MOL0     C37731   6.641   2.365  -0.064 -0.3465 -0.0940  0.9835
  280MOL0     C37732   6.764   2.339  -0.145  0.1498 -0.3477  0.4924
  280MOL0     H37733   7.026   2.144  -0.025  0.9994 -2.6577 -1.8322
  280MOL0     H37734   7.206   1.989   0.047  1.8750  0.3163  2.6093
  280MOL0     H37735   7.261   1.917   0.502 -2.8485 -1.0297  1.3213
  280MOL0     H37736   7.193   1.763   0.435 -0.7712 -0.1513  0.1046
  280MOL0     H37737   7.426   1.716   0.346 -0.2802 -2.7437  2.3108
  280MOL0     H37738   7.430   1.751   0.518 -2.3694 -0.5654  0.2859
  280MOL0     H37739   7.510   1.969   0.494 -1.0248 -0.8144  0.9494
  280MOL0     H37740   7.490   1.968   0.325 -1.2895  1.8375  1.1826
  280MOL0     H37741   7.664   1.772   0.486  0.6900 -0.9447 -1.9107
  280MOL0     H37742   7.668   1.794   0.314  0.9493  2.0095 -1.6480
  280MOL0     H37743   7.775   2.002   0.336 -1.4691 -1.8025 -1.2809
  280MOL0     H37744   7.734   2.022   0.507  1.4163 -0.1280 -0.4327
  280MOL0     H37745   7.892   1.831   0.562  2.6068 -1.4182  0.0962
  280MOL0     H37746   7.933   1.814   0.395 -0.6996 -0.2011  0.3414
  280MOL0     H37747   7.991   2.048   0.580  0.4402  1.1299 -1.1011
  280MOL0     H37748   8.037   2.049   0.415  1.1127 -0.4029  0.9556
  280MOL0     H37749   8.132   1.812   0.573  0.5371 -0.1825 -2.0893
  280MOL0     H37750   8.200   1.896   0.438 -0.3457 -0.2680 -0.2476
  280MOL0     H37751   8.172   1.973   0.834 -0.8499  0.2238 -0.7582
  280MOL0     H37752   8.381   2.276   0.892  2.8958  0.1985  2.3500
  280MOL0     H37753   8.295   2.159   0.982 -0.0961 -1.1125 -0.7821
  280MOL0     H37754   8.469   2.010   1.021 -2.3704  0.7124  0.1222
  280MOL0     H37755   8.561   2.084   0.882 -0.9848 -1.5466 -1.0267
  280MOL0     H37756   8.516   2.232   1.155  1.0838  0.8365  0.9765
  280MOL0     H37757   8.604   2.290   1.026  2.6306 -1.3874 -1.0400
  280MOL0     H37758   8.750   2.078   1.036 -3.5777  0.5603 -2.7130
  280MOL0     H37759   8.688   2.072   1.207 -1.3818 -1.9826 -1.3855
  280MOL0     H37760   8.927   2.465   1.231 -2.0921 -1.3149 -0.4125
  280MOL0     H37761   9.167   2.483   1.213  1.6876 -0.4128 -1.8244
  280MOL0     H37762   9.630   2.248   1.310 -1.1127 -1.6350  0.0338
  280MOL0     H37763   9.871   2.281   1.260 -0.9964 -1.1938  1.1186
  280MOL0     H37764  10.086   2.282   1.180  1.1836  0.0001 -0.4343
  280MOL0     H37765  10.045   2.109   1.176  0.7300  1.1398  3.5156
  280MOL0     H37766  10.183   2.090   0.986  3.4630  0.3766 -1.7595
  280MOL0     H37767  10.244   2.260   0.995 -1.8081 -0.3289 -0.9178
  280MOL0     H37768  10.336   2.224   1.224 -1.0049  0.2154  0.2014
  280MOL0     H37769  10.285   2.051   1.210  1.1227 -1.0305 -2.1462
  280MOL0     H37770  10.502   2.204   1.048  1.0667  0.0505  0.9327
  280MOL0     H37771  10.461   2.040   1.016  2.2194 -0.7362  0.8453
  280MOL0     H37772  10.493   1.996   1.276 -1.1441  0.7753 -1.5794
  280MOL0     H37773  10.576   2.158   1.260  0.1022  1.3174 -1.6869
  280MOL0     H37774  10.661   1.923   1.074 -2.5689  1.7458 -1.0187
  280MOL0     H37775  10.730   2.084   1.096 -1.6533  3.2684  2.2539
  280MOL0     H37776  10.708   1.880   1.328  3.0444 -0.4047  1.0349
  280MOL0     H37777  10.787   2.043   1.324 -0.2611  0.6603 -0.3279
  280MOL0     H37778  10.945   1.966   1.158 -0.5510  0.4349  0.6094
  280MOL0     H37779  10.970   1.893   1.308 -1.1125  0.0470  1.6712
  280MOL0     H37780   9.790   2.191   0.844  1.1170 -1.2315  0.2176
  280MOL0     H37781   9.566   2.187   0.881  1.1670  1.2999 -1.1670
  280MOL0     H37782   9.191   2.062   1.103  0.2045  0.1060  0.2261
  280MOL0     H37783   8.946   2.043   1.126 -1.4214  0.5865  4.2102
  280MOL0     H37784   7.032   1.956   0.443 -1.2027 -2.0292 -0.0243
  280MOL0     H37785   6.854   2.125   0.361  0.5727  1.2944  0.2888
  280MOL0     H37786   6.477   2.281   0.215 -0.6398 -0.0034 -0.7551
  280MOL0     H37787   6.306   2.463   0.112  0.5149 -1.1384  1.4871
  280MOL0     H37788   6.136   2.547  -0.040 -0.7192  0.9875 -0.7466
  280MOL0     H37789   6.195   2.416  -0.134  0.2581 -0.0542  1.0505
  280MOL0     H37790   6.210   2.580  -0.333  4.0037  1.2775  1.8045
  280MOL0     H37791   6.115   2.688  -0.233 -3.3965 -1.1133  1.5423
  280MOL0     H37792   6.015   2.419  -0.319  0.2137  0.4570  0.2988
  280MOL0     H37793   5.979   2.568  -0.397  1.8518  0.1900 -0.9320
  280MOL0     H37794   5.906   2.492  -0.110  3.2902 -0.7404  0.0871
  280MOL0     H37795   5.877   2.662  -0.158 -6.5099 -2.1290  2.8694
  280MOL0     H37796   5.581   2.431  -0.365  0.6412  2.1038 -1.9620
  280MOL0     H37797   6.563   2.500  -0.215  0.1066 -1.2508 -1.0125
  280MOL0     H37798   6.851   2.369  -0.084  0.4358 -2.0455  0.9505
  280MOL0     H37799   6.772   2.234  -0.172 -0.3900  0.3281 -2.7520
  280MOL0     H37800   6.771   2.388  -0.243  0.1383 -0.1154  0.6052
  281MOL0     O37801   5.914   9.088   1.366  0.2425 -0.1252  0.0512
  281MOL0     C37802   5.869   9.079   1.250 -0.2386 -0.0132  0.5481
  281MOL0     O37803   5.956   9.060   1.148  0.3632  0.0772  0.1370
  281MOL0     C37804   6.073   9.009   1.183  0.2539 -0.5479  0.6970
  281MOL0     C37805   6.182   9.091   1.193  1.1279  0.7562 -0.1534
  281MOL0     C37806   6.311   9.040   1.224 -0.1667 -0.6948 -0.1255
  281MOL0     C37807   6.332   8.897   1.228  0.3854 -0.9680  0.1799
  281MOL0     O37808   6.453   8.838   1.244  0.4844  0.3291  0.2032
  281MOL0     C37809   6.573   8.925   1.267 -0.0667  0.9055  0.1189
  281MOL0     C37810   6.692   8.826   1.272 -0.4942  0.2774  0.7206
  281MOL0     C37811   6.830   8.890   1.295  0.2718 -0.0759  0.4208
  281MOL0     C37812   6.939   8.790   1.263  0.2973  0.3512  0.5506
  281MOL0     C37813   7.077   8.852   1.262  0.2614 -0.0989 -0.0204
  281MOL0     C37814   7.116   8.926   1.391  0.7432 -1.1741 -0.4935
  281MOL0     C37815   7.246   9.017   1.383 -0.2869  0.4422  0.1679
  281MOL0     C37816   7.359   8.949   1.303 -0.6542  0.5866  1.1135
  281MOL0     N37817   7.470   9.037   1.289 -1.4561  0.0107 -0.3786
  281MOL0     C37818   7.492   9.127   1.182  0.7311  0.2346 -0.2591
  281MOL0     C37819   7.613   9.189   1.215 -0.4442  0.2844 -1.0700
  281MOL0     C37820   7.709   9.278   1.121 -0.1361  0.6892 -0.4691
  281MOL0     C37821   7.814   9.192   1.054  0.1937 -0.0016  0.5497
  281MOL0     C37822   7.753   9.110   0.941 -0.7799 -0.0661  1.1200
  281MOL0     C37823   7.845   9.037   0.841 -0.1966 -0.9105  0.0245
  281MOL0     O37824   7.956   8.965   0.907  0.4519 -0.5717 -0.3459
  281MOL0     C37825   8.080   8.990   0.855  0.7104  0.4580  0.7230
  281MOL0     C37826   8.183   8.982   0.951 -0.1512 -0.5860 -0.1436
  281MOL0     C37827   8.318   8.996   0.915  0.3571  0.0054  0.0493
  281MOL0     C37828   8.347   9.015   0.782 -0.7518  0.7610 -0.0992
  281MOL0     C37829   8.492   9.011   0.745 -0.0017 -0.4804 -0.0941
  281MOL0     O37830   8.569   8.922   0.811 -0.4162  0.2410 -0.0014
  281MOL0     C37831   8.710   8.912   0.804  0.5736 -0.4609 -0.2463
  281MOL0     C37832   8.772   8.822   0.898  0.6271  0.1444 -0.0513
  281MOL0     C37833   8.911   8.804   0.889 -0.7028  0.5306  0.6092
  281MOL0     C37834   8.999   8.867   0.795  0.3580 -0.6107  0.6509
  281MOL0     O37835   9.134   8.857   0.782 -0.6880 -0.0682 -0.4350
  281MOL0     C37836   9.195   8.782   0.887  0.0399 -0.6825  0.4420
  281MOL0     C37837   9.351   8.782   0.875 -0.0668 -0.2632 -0.6639
  281MOL0     C37838   9.419   8.750   0.744  0.4604 -0.0854  0.0932
  281MOL0     C37839   9.378   8.612   0.688 -1.1495  0.7359  0.3000
  281MOL0     C37840   9.466   8.588   0.567  0.8282  0.0205  0.0350
  281MOL0     C37841   9.436   8.452   0.510  0.5331  0.4633 -0.5493
  281MOL0     C37842   9.547   8.406   0.417 -0.3469 -0.2386  0.7497
  281MOL0     C37843   9.555   8.504   0.288 -0.5302  0.3956 -0.4589
  281MOL0    Cl37844   9.409   8.511   0.196  0.1283 -0.3501  0.1402
  281MOL0     C37845   8.935   8.957   0.711  0.2811  0.4581 -0.3386
  281MOL0     C37846   8.791   8.975   0.714 -0.3662 -0.2344 -0.5845
  281MOL0     O37847   8.529   9.085   0.649  0.3178  0.0855  0.1319
  281MOL0     C37848   8.254   9.014   0.682  0.3341 -0.0230 -0.4415
  281MOL0     C37849   8.116   9.010   0.719 -0.4012  0.1900 -1.0136
  281MOL0     N37850   7.646   9.142   1.342  0.6815  0.1604 -0.2672
  281MOL0     N37851   7.560   9.064   1.388  0.4310  0.3994  0.3020
  281MOL0     C37852   6.218   8.815   1.221  0.2982  0.5108  0.8509
  281MOL0     C37853   6.087   8.872   1.199  0.5076  0.7355  0.2877
  281MOL0     C37854   5.718   9.118   1.224  0.0544  0.2218 -0.1268
  281MOL0     C37855   5.676   9.098   1.088  0.1138  0.2292  0.5176
  281MOL0     C37856   5.544   9.108   1.058 -0.1207 -0.7054  0.6507
  281MOL0     C37857   5.447   9.162   1.140 -0.2626  0.0427 -0.1734
  281MOL0     O37858   5.314   9.172   1.106 -0.3015  0.2768  0.4880
  281MOL0     C37859   5.218   9.251   1.177 -0.3643  1.0886 -0.3232
  281MOL0     C37860   5.103   9.256   1.091  0.0854 -0.3340 -0.4003
  281MOL0     C37861   4.988   9.318   1.158 -0.6047 -0.3073  0.4920
  281MOL0     C37862   4.943   9.250   1.285 -0.1265  0.3975 -0.1735
  281MOL0     C37863   4.810   9.304   1.330  0.0772  0.0326 -0.4850
  281MOL0     C37864   4.702   9.361   1.355 -0.4337 -0.1324  0.7800
  281MOL0     C37865   5.491   9.206   1.262 -0.6522  0.3084 -0.3765
  281MOL0     C37866   5.624   9.173   1.310  0.0715 -0.9221  0.9939
  281MOL0     C37867   5.649   9.189   1.459  0.6035 -0.7680  0.5854
  281MOL0     H37868   6.159   9.195   1.174 -0.4018  0.2237 -1.4774
  281MOL0     H37869   6.387   9.116   1.238 -2.7453  2.2202 -0.8821
  281MOL0     H37870   6.592   8.988   1.179 -2.8946 -0.5098 -1.6515
  281MOL0     H37871   6.568   8.985   1.359 -1.4902  0.1805  0.5443
  281MOL0     H37872   6.684   8.784   1.171  1.6197  1.1425  0.1376
  281MOL0     H37873   6.671   8.734   1.327 -0.2620 -1.2537 -1.5841
  281MOL0     H37874   6.825   8.922   1.400 -1.1153  0.5474  0.1959
  281MOL0     H37875   6.825   8.979   1.233  1.3270  1.6580  2.6676
  281MOL0     H37876   6.931   8.721   1.348 -3.2043 -0.8842 -0.6002
  281MOL0     H37877   6.923   8.735   1.169  0.0815 -0.0468  0.8129
  281MOL0     H37878   7.145   8.772   1.233 -0.6750  0.2613 -3.7267
  281MOL0     H37879   7.095   8.926   1.184  2.1944 -0.5730 -0.0713
  281MOL0     H37880   7.030   8.989   1.416  0.8304  0.2794 -3.3640
  281MOL0     H37881   7.137   8.854   1.471  1.0832 -3.0285 -2.1718
  281MOL0     H37882   7.284   9.015   1.486  0.0774  2.1036  0.0972
  281MOL0     H37883   7.224   9.115   1.340 -2.1384  0.3166  0.7492
  281MOL0     H37884   7.389   8.855   1.350 -1.0685  0.1410  0.4905
  281MOL0     H37885   7.318   8.923   1.205 -0.7796 -2.2671  1.8343
  281MOL0     H37886   7.432   9.137   1.092  0.0674  2.1435  0.3422
  281MOL0     H37887   7.641   9.333   1.056  1.8201  1.6707 -1.7704
  281MOL0     H37888   7.771   9.345   1.181  0.8172  0.4157 -1.1213
  281MOL0     H37889   7.892   9.260   1.018 -0.5517  0.8795  0.5754
  281MOL0     H37890   7.859   9.120   1.122 -0.3449 -0.3657  0.5250
  281MOL0     H37891   7.688   9.166   0.873 -0.1439 -2.5746 -1.7504
  281MOL0     H37892   7.690   9.029   0.981  1.3318 -2.5075 -0.2093
  281MOL0     H37893   7.876   9.113   0.769 -3.0856 -0.1637 -0.5912
  281MOL0     H37894   7.792   8.965   0.779 -2.0734 -1.8683  2.5421
  281MOL0     H37895   8.170   8.961   1.057  4.5828  1.0412  0.9906
  281MOL0     H37896   8.388   8.972   0.995 -0.5718 -0.3136  0.7837
  281MOL0     H37897   8.706   8.792   0.978 -1.1244 -0.4487 -1.6338
  281MOL0     H37898   8.943   8.746   0.975 -1.4250  2.5443  2.3304
  281MOL0     H37899   9.164   8.844   0.972  0.7260  1.0826 -0.5285
  281MOL0     H37900   9.151   8.683   0.898 -3.5636  0.6249 -0.6431
  281MOL0     H37901   9.388   8.882   0.899  0.0036 -0.4164 -0.1128
  281MOL0     H37902   9.376   8.717   0.960 -1.1709  0.9743  0.6478
  281MOL0     H37903   9.416   8.826   0.666 -1.2246 -2.1235 -1.9793
  281MOL0     H37904   9.522   8.747   0.782 -0.9343 -1.4892  4.3020
  281MOL0     H37905   9.273   8.612   0.659 -0.0837 -0.5463 -4.3310
  281MOL0     H37906   9.396   8.534   0.763  0.7572  1.3107  0.4969
  281MOL0     H37907   9.573   8.600   0.588  0.9530 -0.5164 -0.2944
  281MOL0     H37908   9.448   8.662   0.488 -0.7443  0.2517  0.5592
  281MOL0     H37909   9.436   8.378   0.591  0.3042 -0.9644 -1.7942
  281MOL0     H37910   9.341   8.447   0.455  1.0135  1.7783 -1.5437
  281MOL0     H37911   9.535   8.306   0.376  2.9132 -0.8785  1.0888
  281MOL0     H37912   9.646   8.413   0.462  0.0503 -0.9325  0.0026
  281MOL0     H37913   9.577   8.606   0.320 -2.7655  0.6164  0.5740
  281MOL0     H37914   9.635   8.472   0.220  0.4188  1.1895  0.2540
  281MOL0     H37915   8.989   9.013   0.635  1.5447 -2.5225 -1.8360
  281MOL0     H37916   8.763   9.034   0.627  2.7185  1.3268 -0.6918
  281MOL0     H37917   8.281   9.011   0.577 -2.4498 -0.0492 -1.2399
  281MOL0     H37918   8.036   8.990   0.649 -2.9291 -0.9429  1.9696
  281MOL0     H37919   6.218   8.707   1.230 -0.3491  0.0200 -3.1107
  281MOL0     H37920   6.009   8.797   1.205  2.0818 -1.0992 -0.9825
  281MOL0     H37921   5.749   9.046   1.027 -1.2785 -0.6219 -0.4828
  281MOL0     H37922   5.512   9.072   0.961 -0.2893  1.2851 -0.0806
  281MOL0     H37923   5.257   9.352   1.192 -0.6363  1.5020 -2.0940
  281MOL0     H37924   5.200   9.213   1.278  1.9715 -0.0454 -0.2578
  281MOL0     H37925   5.080   9.160   1.043 -1.2952  0.6603 -1.8263
  281MOL0     H37926   5.123   9.316   1.002 -1.4728  2.3732  0.9530
  281MOL0     H37927   4.896   9.322   1.099 -0.6914  2.4274  0.6885
  281MOL0     H37928   5.027   9.416   1.184  2.7163 -1.5157  0.5278
  281MOL0     H37929   4.930   9.143   1.265  2.3119  0.0527 -0.2105
  281MOL0     H37930   5.018   9.267   1.362  0.3937 -0.1431 -0.5556
  281MOL0     H37931   4.610   9.415   1.367 -0.9399 -0.2479 -1.8709
  281MOL0     H37932   5.420   9.250   1.331 -0.8918  0.6191 -0.8158
  281MOL0     H37933   5.691   9.099   1.505  0.5682  0.3925  3.0288
  281MOL0     H37934   5.709   9.278   1.480  0.0760 -0.4507  0.7719
  281MOL0     H37935   5.554   9.207   1.510  1.6284 -0.1357  2.3811
  282MOL0     O37936   5.338   9.633  10.193 -0.4396  0.5982  0.1825
  282MOL0     C37937   5.267   9.725  10.151  0.0472  0.7222 -0.0116
  282MOL0     O37938   5.309   9.834  10.084  0.0792  0.2085 -0.2395
  282MOL0     C37939   5.442   9.878  10.084 -0.1348  0.6637  0.1942
  282MOL0     C37940   5.538   9.850  10.184 -0.7444 -0.4060 -0.6085
  282MOL0     C37941   5.665   9.912  10.180 -0.7664  0.1984 -0.3963
  282MOL0     C37942   5.693  10.002  10.072  0.0298  0.5424  0.4635
  282MOL0     O37943   5.799  10.079  10.059 -0.5399  0.1948  0.3690
  282MOL0     C37944   5.830  10.148  10.182  0.6770 -0.1100 -0.1683
  282MOL0     C37945   5.935  10.261  10.160  0.3194 -0.2356 -0.1323
  282MOL0     C37946   6.068  10.216  10.095  0.4244  0.3664  0.1874
  282MOL0     C37947   6.135  10.089  10.152  0.2474 -0.5740 -0.3672
  282MOL0     C37948   6.264  10.060  10.073 -0.2891  0.7233 -0.4825
  282MOL0     C37949   6.339   9.942  10.135  0.0475 -0.7083 -0.4113
  282MOL0     C37950   6.402   9.957  10.279  0.2097  0.0319  0.0612
  282MOL0     C37951   6.459   9.824  10.338  0.2510  0.4501  0.7099
  282MOL0     N37952   6.572   9.855  10.425  0.2051 -0.3917  0.0973
  282MOL0     C37953   6.585   9.953  10.519 -0.3694 -0.9969  0.1146
  282MOL0     C37954   6.708   9.934  10.576 -0.2485  0.6072  1.1463
  282MOL0     C37955   6.800  10.010  10.671 -0.5595 -0.5310  0.5533
  282MOL0     C37956   6.787   9.987  10.819 -0.1113  0.1987  0.9109
  282MOL0     C37957   6.851  10.110  10.887  0.0427  0.5300  0.0771
  282MOL0     C37958   6.879  10.098  11.033  0.2115  0.4290  0.7042
  282MOL0     O37959   6.996  10.026  11.063  1.4464  0.2571 -0.2953
  282MOL0     C37960   7.112  10.096  11.034  0.0526  0.1985 -0.3155
  282MOL0     C37961   7.206  10.027  10.961  0.4560  0.3927  0.1733
  282MOL0     C37962   7.326  10.090  10.933  0.5513  0.1269  0.2197
  282MOL0     C37963   7.356  10.218  10.985 -0.3959 -1.0327  0.0571
  282MOL0     C37964   7.482  10.279  10.958  1.2641 -0.5918 -1.5515
  282MOL0     O37965   7.475  10.414  10.965  0.0098  0.1717  0.4996
  282MOL0     C37966   7.594  10.475  10.938  1.0321  0.2292 -0.1926
  282MOL0     C37967   7.604  10.564  10.839 -0.4417 -0.3225 -0.3418
  282MOL0     C37968   7.732  10.637  10.828  0.4732 -0.0306 -0.6693
  282MOL0     C37969   7.834  10.612  10.926  0.2761 -0.0388  0.2817
  282MOL0     O37970   7.958  10.665  10.918  0.4892 -0.4483 -0.6308
  282MOL0     C37971   7.988  10.754  10.809  1.0020 -0.2165  0.7958
  282MOL0     C37972   8.122  10.805  10.823  0.2945  0.6922  0.5134
  282MOL0     C37973   8.160  10.905  10.711  0.3022  0.2972 -0.0937
  282MOL0     C37974   8.311  10.939  10.699  0.2964  0.1667  0.0765
  282MOL0     C37975   8.328  11.050  10.600 -0.3441  0.6618 -0.0215
  282MOL0     C37976   8.475  11.099  10.598 -1.5922  0.3323  0.7498
  282MOL0     C37977   8.498  11.215  10.490  0.2196  0.4815 -0.2524
  282MOL0     C37978   8.648  11.259  10.477  0.3442 -0.2474  0.4264
  282MOL0    Cl37979   8.652  11.374  10.337 -0.3215  0.0709  0.0419
  282MOL0     C37980   7.809  10.528  11.026 -0.2415 -0.2617  0.2615
  282MOL0     C37981   7.685  10.467  11.037 -0.0873 -0.0771 -0.0587
  282MOL0     O37982   7.577  10.213  10.919  0.0922 -0.0673 -0.3237
  282MOL0     C37983   7.260  10.284  11.058 -0.6694  0.1387  0.8889
  282MOL0     C37984   7.141  10.220  11.084 -0.0281 -0.4573 -0.7605
  282MOL0     N37985   6.744   9.806  10.539 -0.5314 -0.0393  0.1842
  282MOL0     N37986   6.663   9.762  10.450 -0.1528 -0.0031 -0.5111
  282MOL0     C37987   5.600  10.027   9.977 -0.2049  0.7190  0.1389
  282MOL0     C37988   5.481   9.960   9.977  0.1075 -0.6075  0.0852
  282MOL0     C37989   5.120   9.696  10.148  1.0238 -0.3406 -0.0534
  282MOL0     C37990   5.073   9.570  10.120 -0.3034 -0.7020 -0.3692
  282MOL0     C37991   4.931   9.541  10.119  0.6133  0.5337 -1.0256
  282MOL0     C37992   4.835   9.638  10.158 -0.1295  0.2599  0.4732
  282MOL0     O37993   4.703   9.625  10.138  0.7055  0.2270 -0.5713
  282MOL0     C37994   4.642   9.507  10.178  1.0217 -0.1178  0.2648
  282MOL0     C37995   4.487   9.521  10.156 -0.0465 -0.9749  0.6407
  282MOL0     C37996   4.407   9.407  10.203  0.6494 -0.2535 -0.0632
  282MOL0     C37997   4.257   9.419  10.174 -0.8028  0.9319 -0.8929
  282MOL0     C37998   4.189   9.283  10.170  0.3407 -0.5111 -0.1528
  282MOL0     C37999   4.103   9.195  10.193 -0.8397  0.3528 -0.0420
  282MOL0     C38000   4.883   9.772  10.182 -0.1036 -0.4785 -0.8720
  282MOL0     C38001   5.027   9.795  10.179  0.8672 -0.6924  0.3372
  282MOL0     C38002   5.068   9.938  10.221 -0.4209  0.1695 -0.2461
  282MOL0     H38003   5.501   9.779  10.257 -1.1613  0.1348 -0.2840
  282MOL0     H38004   5.733   9.908  10.264 -0.0907 -0.9880 -0.9817
  282MOL0     H38005   5.741  10.196  10.223 -0.7010 -0.5624 -2.4491
  282MOL0     H38006   5.874  10.075  10.251 -0.1381  0.2358  0.7375
  282MOL0     H38007   5.953  10.317  10.252 -0.2306 -2.1600  1.2262
  282MOL0     H38008   5.879  10.324  10.090 -0.5114 -0.2360  0.5152
  282MOL0     H38009   6.135  10.302  10.109 -0.2223  0.7500  1.0500
  282MOL0     H38010   6.049  10.209   9.988 -2.2783  1.6617  0.4817
  282MOL0     H38011   6.156  10.120  10.254  0.0798  4.7153 -1.6573
  282MOL0     H38012   6.068  10.002  10.144 -0.0435 -0.3172 -0.7863
  282MOL0     H38013   6.235  10.045   9.969 -1.6321 -0.5050  0.0334
  282MOL0     H38014   6.338  10.140  10.065  2.2082 -1.3034  0.8586
  282MOL0     H38015   6.263   9.863  10.140 -0.8002  0.1226  0.0187
  282MOL0     H38016   6.415   9.906  10.065  1.5915  0.9280  0.3594
  282MOL0     H38017   6.328   9.992  10.351 -0.1507  2.4031 -1.3385
  282MOL0     H38018   6.480  10.034  10.277 -1.2494  1.5569 -0.7664
  282MOL0     H38019   6.389   9.766  10.398 -0.1073  2.3355  2.1939
  282MOL0     H38020   6.510   9.749  10.276  0.1676 -1.3093  2.6690
  282MOL0     H38021   6.525  10.042  10.529 -0.4368 -1.0858  0.5562
  282MOL0     H38022   6.900   9.984  10.636 -1.1254 -0.3170 -1.3673
  282MOL0     H38023   6.775  10.114  10.646  0.1886 -1.1936 -3.8946
  282MOL0     H38024   6.680   9.990  10.841 -0.1185 -2.0599  1.3814
  282MOL0     H38025   6.827   9.891  10.853 -1.3497 -0.8679 -0.5135
  282MOL0     H38026   6.782  10.194  10.874 -0.9911 -0.6238 -2.6005
  282MOL0     H38027   6.947  10.129  10.838 -1.7347  1.3614 -3.4160
  282MOL0     H38028   6.799  10.035  11.072  0.3177 -0.9667 -1.2452
  282MOL0     H38029   6.875  10.189  11.095  0.5492  0.5395  0.5664
  282MOL0     H38030   7.174   9.930  10.925 -0.3551 -0.7344  3.5536
  282MOL0     H38031   7.397  10.030  10.877  2.3980  0.2932  2.2386
  282MOL0     H38032   7.520  10.569  10.770  0.0934 -0.5942 -1.0340
  282MOL0     H38033   7.753  10.702  10.743 -1.8703 -0.5514 -1.7093
  282MOL0     H38034   7.971  10.704  10.713 -2.3533  2.1833 -0.0643
  282MOL0     H38035   7.925  10.843  10.812  0.3155 -0.6782  0.3494
  282MOL0     H38036   8.123  10.844  10.925 -1.9704 -0.8153  1.1928
  282MOL0     H38037   8.188  10.718  10.825 -1.7427 -0.9498 -0.1414
  282MOL0     H38038   8.125  10.860  10.618  0.3955 -0.3092  0.1579
  282MOL0     H38039   8.109  10.997  10.739  0.6510 -0.0293  1.7375
  282MOL0     H38040   8.362  10.844  10.677 -2.5000 -0.7353 -3.6078
  282MOL0     H38041   8.346  10.982  10.793  0.2001 -2.8169  1.5843
  282MOL0     H38042   8.257  11.132  10.614 -0.5944  0.4763 -0.1935
  282MOL0     H38043   8.299  11.018  10.499  1.2689  2.1401 -1.0012
  282MOL0     H38044   8.507  11.136  10.696 -0.0228  1.5331 -0.1669
  282MOL0     H38045   8.536  11.014  10.565 -1.6791  1.5060 -2.8372
  282MOL0     H38046   8.438  11.305  10.504  0.4548  0.7571 -0.9933
  282MOL0     H38047   8.471  11.164  10.397 -0.3694 -1.4784  0.9338
  282MOL0     H38048   8.671  11.308  10.572  0.8098  0.8149 -0.2237
  282MOL0     H38049   8.713  11.174  10.456 -0.5886 -0.8149 -0.2571
  282MOL0     H38050   7.879  10.531  11.109  1.6021 -0.7174 -1.2065
  282MOL0     H38051   7.651  10.430  11.133 -1.4190  1.4760  0.1251
  282MOL0     H38052   7.286  10.379  11.105  2.2880  0.5877 -1.2929
  282MOL0     H38053   7.077  10.283  11.146  0.7431 -0.0896 -0.3153
  282MOL0     H38054   5.617  10.098   9.898 -0.3957  0.4669 -0.1325
  282MOL0     H38055   5.412   9.981   9.896 -0.8707 -1.8513  0.5642
  282MOL0     H38056   5.142   9.489  10.099  1.6180  0.5558  0.7534
  282MOL0     H38057   4.895   9.442  10.094  3.7271 -0.4212 -2.2215
  282MOL0     H38058   4.659   9.489  10.285 -0.1903 -3.2608  0.0154
  282MOL0     H38059   4.674   9.413  10.132 -0.9750 -0.1531 -1.1390
  282MOL0     H38060   4.469   9.551  10.053  1.4539 -0.3401  0.5424
  282MOL0     H38061   4.454   9.595  10.229  1.3356  1.2434 -0.8404
  282MOL0     H38062   4.424   9.409  10.311  0.3861  2.5936 -0.0198
  282MOL0     H38063   4.443   9.309  10.171 -0.6022 -0.4089 -1.1083
  282MOL0     H38064   4.224   9.483  10.256 -1.3360 -1.6494  1.0490
  282MOL0     H38065   4.236   9.472  10.081 -1.8633  1.3685 -0.4252
  282MOL0     H38066   4.037   9.113  10.210 -0.6398  0.3261  0.6297
  282MOL0     H38067   4.820   9.854  10.216  0.4166 -0.7226  0.7692
  282MOL0     H38068   5.085   9.994  10.128 -2.0745  0.0757 -0.6312
  282MOL0     H38069   4.984   9.986  10.271 -0.8853 -0.2300 -0.6406
  282MOL0     H38070   5.159   9.935  10.282  0.2020  0.0710 -1.1458
  283MOL0     O38071   6.115   5.718   3.411  0.7259 -0.8363  0.3083
  283MOL0     C38072   6.055   5.711   3.304 -0.1739  0.4920 -1.0809
  283MOL0     O38073   6.121   5.681   3.188  0.1111 -0.5798  0.2216
  283MOL0     C38074   6.259   5.657   3.192  0.1846  0.1849  1.2460
  283MOL0     C38075   6.318   5.535   3.231  0.6251 -0.0388  0.0250
  283MOL0     C38076   6.455   5.517   3.222 -0.3813  0.6510  0.3844
  283MOL0     C38077   6.540   5.616   3.178 -0.4428 -0.8456  0.3828
  283MOL0     O38078   6.674   5.578   3.183 -0.0980  0.0018  0.4826
  283MOL0     C38079   6.765   5.675   3.127 -0.3714  0.1307  1.0662
  283MOL0     C38080   6.899   5.620   3.155 -0.0745  0.0447  0.3246
  283MOL0     C38081   7.016   5.715   3.104  0.3490 -0.5885  0.2636
  283MOL0     C38082   7.016   5.732   2.948  0.0076  0.2256 -0.1360
  283MOL0     C38083   7.140   5.810   2.905  0.5422 -0.2926 -0.2318
  283MOL0     C38084   7.262   5.715   2.884  0.0707  0.0247  0.0509
  283MOL0     C38085   7.391   5.794   2.842  0.1718  0.4073 -0.1140
  283MOL0     C38086   7.512   5.693   2.853  0.4888  0.6208 -0.5300
  283MOL0     N38087   7.645   5.761   2.825  0.2872  0.4251  0.0981
  283MOL0     C38088   7.767   5.732   2.887 -0.0085 -0.0716 -0.3545
  283MOL0     C38089   7.865   5.774   2.807  0.0001 -0.0005  0.2198
  283MOL0     C38090   8.012   5.752   2.833 -0.4659  0.0086 -0.1872
  283MOL0     C38091   8.032   5.598   2.821  0.6504 -0.2268 -0.3408
  283MOL0     C38092   8.175   5.544   2.803  0.1890 -0.1176  0.0213
  283MOL0     C38093   8.281   5.591   2.902  0.3342 -0.3371  0.1078
  283MOL0     O38094   8.294   5.738   2.914 -0.1557  0.0139  0.2519
  283MOL0     C38095   8.418   5.796   2.950  0.3953 -0.1095 -0.9529
  283MOL0     C38096   8.525   5.722   3.001  0.0030 -0.4454  0.5659
  283MOL0     C38097   8.639   5.797   3.036 -0.5925 -0.2027 -0.0568
  283MOL0     C38098   8.658   5.936   3.016  0.7644 -0.1749  0.7120
  283MOL0     C38099   8.770   6.017   3.053 -0.3618  0.1133  0.4374
  283MOL0     O38100   8.859   5.957   3.134  0.1515  0.3209 -0.1469
  283MOL0     C38101   8.986   6.002   3.167  0.1429  0.2912 -0.9711
  283MOL0     C38102   9.053   6.115   3.130 -0.9852 -0.4109 -0.0694
  283MOL0     C38103   9.183   6.143   3.174 -0.4262 -0.2340 -0.2842
  283MOL0     C38104   9.252   6.048   3.247  0.2919  0.2978  0.2812
  283MOL0     O38105   9.379   6.073   3.284  0.4500  0.2856  0.7888
  283MOL0     C38106   9.402   6.205   3.344  0.1931 -0.0758  0.1235
  283MOL0     C38107   9.476   6.304   3.252  0.0727 -0.8182 -0.2036
  283MOL0     C38108   9.615   6.279   3.220 -0.6578  0.3972 -0.4092
  283MOL0     C38109   9.664   6.386   3.120  0.7995  0.3830 -0.0092
  283MOL0     C38110   9.804   6.347   3.055  0.2136  0.2214  0.2469
  283MOL0     C38111   9.924   6.367   3.144 -0.1374  0.2193  0.2635
  283MOL0     C38112  10.050   6.336   3.062 -0.1041  0.1584  0.3171
  283MOL0     C38113  10.186   6.376   3.125  0.0016  0.3338  0.0846
  283MOL0    Cl38114  10.224   6.269   3.269  0.0621 -0.1753  0.2688
  283MOL0     C38115   9.194   5.923   3.279  0.2559  0.5008  0.5236
  283MOL0     C38116   9.056   5.905   3.244  0.0994  0.3279  0.2994
  283MOL0     O38117   8.777   6.133   3.010 -0.3629  0.7053 -0.0890
  283MOL0     C38118   8.540   6.000   2.979 -0.2320  0.0453  0.4965
  283MOL0     C38119   8.424   5.933   2.944  0.9718 -0.5956  0.7412
  283MOL0     N38120   7.803   5.825   2.694  0.7197 -0.8688  0.6492
  283MOL0     N38121   7.674   5.822   2.702  0.5672 -0.4284 -0.3894
  283MOL0     C38122   6.488   5.740   3.132 -0.1436 -0.4125  0.1770
  283MOL0     C38123   6.349   5.746   3.134  0.3548 -0.1155 -0.2139
  283MOL0     C38124   5.903   5.723   3.292 -0.9204  0.4827  0.3358
  283MOL0     C38125   5.832   5.817   3.375  0.2135 -0.9147  0.4641
  283MOL0     C38126   5.691   5.823   3.373 -0.0727 -0.2338 -0.6867
  283MOL0     C38127   5.621   5.750   3.280 -0.6441 -0.1382  0.1242
  283MOL0     O38128   5.489   5.783   3.277 -0.2499 -0.6034  0.0562
  283MOL0     C38129   5.395   5.739   3.181  0.5748  0.0166  0.5738
  283MOL0     C38130   5.330   5.600   3.208  0.2989 -1.3314  0.5143
  283MOL0     C38131   5.258   5.567   3.349 -0.0124  0.0635 -0.8229
  283MOL0     C38132   5.146   5.669   3.371 -0.4823  0.3456  0.0702
  283MOL0     C38133   5.063   5.625   3.490  0.3802 -0.3927  0.0428
  283MOL0     C38134   5.006   5.584   3.592  0.2110  0.4958 -0.0817
  283MOL0     C38135   5.693   5.677   3.184 -1.3048  1.5172 -0.0526
  283MOL0     C38136   5.833   5.654   3.197 -0.5972  0.7843  0.8281
  283MOL0     C38137   5.893   5.557   3.097  0.7083  0.7642 -0.2854
  283MOL0     H38138   6.254   5.463   3.281  0.8988  1.1538  2.2189
  283MOL0     H38139   6.494   5.417   3.241 -1.4143 -0.0960 -1.2353
  283MOL0     H38140   6.755   5.678   3.018 -0.9417 -1.2401  1.0631
  283MOL0     H38141   6.766   5.775   3.172  0.4635  0.8115 -0.3657
  283MOL0     H38142   6.918   5.522   3.112  0.7939 -0.3644  1.5835
  283MOL0     H38143   6.902   5.622   3.264  1.2905  0.7084  0.3036
  283MOL0     H38144   7.105   5.655   3.129 -0.0192 -1.3881 -0.3104
  283MOL0     H38145   7.017   5.809   3.160 -4.8066 -0.6135  0.8332
  283MOL0     H38146   7.018   5.637   2.894  0.9600  0.3555 -0.3563
  283MOL0     H38147   6.927   5.784   2.910 -0.1320  1.3949  1.6674
  283MOL0     H38148   7.112   5.859   2.812 -0.6679  2.2064  1.3526
  283MOL0     H38149   7.159   5.889   2.978 -2.8165 -0.7791  1.3689
  283MOL0     H38150   7.286   5.667   2.979  0.9047 -0.4534 -0.3956
  283MOL0     H38151   7.236   5.635   2.815  1.2549 -0.5146  0.2114
  283MOL0     H38152   7.403   5.870   2.920  0.6739 -1.2024  1.4603
  283MOL0     H38153   7.385   5.841   2.744  1.5940 -1.8391 -1.3767
  283MOL0     H38154   7.514   5.627   2.940 -1.5770  0.3677 -0.6113
  283MOL0     H38155   7.493   5.628   2.768  0.6986  0.3197 -0.3460
  283MOL0     H38156   7.783   5.670   2.975  0.8490 -0.4138 -0.7382
  283MOL0     H38157   8.078   5.799   2.760  1.5494 -0.2450  1.3988
  283MOL0     H38158   8.052   5.792   2.926  4.4794 -2.2825 -1.0574
  283MOL0     H38159   7.991   5.543   2.907  1.2055  0.2644  0.2474
  283MOL0     H38160   7.987   5.563   2.728  0.1959 -0.1309 -0.1594
  283MOL0     H38161   8.209   5.586   2.708 -0.7642  0.1994 -0.1920
  283MOL0     H38162   8.178   5.435   2.795  3.8459 -0.1071 -0.4936
  283MOL0     H38163   8.374   5.551   2.861  0.8641  0.1377  0.8330
  283MOL0     H38164   8.259   5.553   3.002  4.0093  1.7811  1.9385
  283MOL0     H38165   8.515   5.614   3.002  2.0077 -0.8940 -3.5508
  283MOL0     H38166   8.720   5.735   3.072 -0.7220 -2.5677 -3.3579
  283MOL0     H38167   9.001   6.190   3.072 -0.8285  1.2370  1.8080
  283MOL0     H38168   9.223   6.234   3.130 -1.3884  1.1044  1.4170
  283MOL0     H38169   9.308   6.250   3.377 -0.4436 -1.7779  0.7677
  283MOL0     H38170   9.466   6.185   3.431  1.0206 -0.8861 -0.6477
  283MOL0     H38171   9.421   6.312   3.157 -0.8975  0.5259  0.4307
  283MOL0     H38172   9.460   6.404   3.294 -0.3985 -0.3095 -1.5269
  283MOL0     H38173   9.679   6.290   3.308 -1.4792 -1.0320  0.4089
  283MOL0     H38174   9.622   6.176   3.183 -0.5644 -0.0593  0.8157
  283MOL0     H38175   9.673   6.482   3.172  2.2635  0.0430  0.4312
  283MOL0     H38176   9.590   6.387   3.039  0.2735  0.4589  0.4675
  283MOL0     H38177   9.830   6.417   2.975 -2.9460  1.7060  0.3903
  283MOL0     H38178   9.792   6.252   3.001 -1.9814 -1.1546  2.9407
  283MOL0     H38179   9.925   6.468   3.186 -4.6028  0.9180 -0.8540
  283MOL0     H38180   9.920   6.293   3.225 -2.0402 -0.0471 -0.0220
  283MOL0     H38181  10.048   6.382   2.963 -3.2347  0.7802  0.5640
  283MOL0     H38182  10.064   6.228   3.057  0.7928  0.2985 -0.2629
  283MOL0     H38183  10.264   6.360   3.050 -2.0862 -1.0822 -1.8997
  283MOL0     H38184  10.179   6.483   3.148  0.4844  0.7321 -1.4997
  283MOL0     H38185   9.251   5.844   3.327 -0.8169 -0.4346  0.2966
  283MOL0     H38186   9.004   5.815   3.274 -2.3924  2.1606  1.9072
  283MOL0     H38187   8.542   6.108   2.966 -3.9425  0.2054  0.2213
  283MOL0     H38188   8.339   5.990   2.907  0.0515 -3.0913 -1.3054
  283MOL0     H38189   6.554   5.817   3.092 -0.2994  0.2340  1.1256
  283MOL0     H38190   6.300   5.827   3.082  2.1674 -0.0186 -1.8990
  283MOL0     H38191   5.895   5.871   3.445  1.8476 -1.4599 -0.5423
  283MOL0     H38192   5.641   5.896   3.435 -1.3420 -2.3376  0.9324
  283MOL0     H38193   5.445   5.725   3.085  1.0608 -0.7669  0.9372
  283MOL0     H38194   5.312   5.811   3.172  1.6462  1.5336  2.2289
  283MOL0     H38195   5.413   5.531   3.191  1.2397 -0.2550  0.5403
  283MOL0     H38196   5.248   5.580   3.139 -1.7691  0.5803  2.2790
  283MOL0     H38197   5.331   5.582   3.429 -0.1417 -2.4743 -0.1609
  283MOL0     H38198   5.218   5.466   3.344 -0.2522  0.1688 -1.0589
  283MOL0     H38199   5.196   5.764   3.392  1.0822 -0.8465  2.1197
  283MOL0     H38200   5.084   5.674   3.281 -0.0760  0.1793 -0.2233
  283MOL0     H38201   4.965   5.543   3.682  3.9247  0.8365  1.9869
  283MOL0     H38202   5.647   5.627   3.100 -1.2671  0.2022  0.6897
  283MOL0     H38203   5.937   5.604   3.009 -0.5001 -1.5497 -2.2445
  283MOL0     H38204   5.966   5.492   3.146 -1.6461 -0.8451  1.3415
  283MOL0     H38205   5.816   5.491   3.054  1.4712  0.0285 -0.5486
  284MOL0     O38206  10.674   5.138   5.458 -0.1917  0.4110 -0.0038
  284MOL0     C38207  10.629   5.057   5.539 -0.4959 -0.3044  0.2955
  284MOL0     O38208  10.692   4.945   5.586 -0.5127  0.3848  0.4303
  284MOL0     C38209  10.815   4.912   5.533 -0.5339 -0.1108  1.1756
  284MOL0     C38210  10.932   5.001   5.543 -0.2790  0.2396 -1.2343
  284MOL0     C38211  11.053   4.966   5.485  0.3618  0.7344  0.5304
  284MOL0     C38212  11.064   4.843   5.415 -0.0830  0.3104 -0.5625
  284MOL0     O38213  11.180   4.799   5.371 -0.1799 -0.6389  0.2291
  284MOL0     C38214  11.306   4.837   5.427 -0.4764 -0.1162  0.4819
  284MOL0     C38215  11.396   4.715   5.384 -0.3304 -0.4411  0.2514
  284MOL0     C38216  11.540   4.739   5.421  0.3673  0.3655 -0.8636
  284MOL0     C38217  11.618   4.609   5.395  0.3060  0.0970 -0.4838
  284MOL0     C38218  11.774   4.631   5.409  0.7317  0.5108 -0.5373
  284MOL0     C38219  11.830   4.655   5.555 -0.4349 -0.5487  0.6531
  284MOL0     C38220  11.979   4.683   5.543 -0.0651  0.7317  0.2248
  284MOL0     C38221  12.026   4.821   5.484  0.5713  0.0149  0.5512
  284MOL0     N38222  12.166   4.855   5.530  0.0782 -0.1241 -0.0907
  284MOL0     C38223  12.292   4.806   5.498  1.0478  0.4395  0.0166
  284MOL0     C38224  12.385   4.870   5.569  0.4862 -0.6957 -0.2457
  284MOL0     C38225  12.535   4.837   5.572  0.0046 -0.4730  0.5777
  284MOL0     C38226  12.625   4.939   5.650  0.0325  0.3287  0.2634
  284MOL0     C38227  12.770   4.881   5.650 -1.0918 -0.0044  0.1118
  284MOL0     C38228  12.870   4.984   5.708 -0.7791 -0.3157  0.6668
  284MOL0     O38229  12.861   5.110   5.656 -0.0141  0.0001 -1.3023
  284MOL0     C38230  12.897   5.141   5.530 -0.6399 -0.0295 -0.0672
  284MOL0     C38231  12.812   5.214   5.431 -0.1724 -0.2371  0.1033
  284MOL0     C38232  12.861   5.252   5.307 -0.6496  0.2847  0.4372
  284MOL0     C38233  12.986   5.201   5.263  0.1049 -0.8654  0.1801
  284MOL0     C38234  13.036   5.229   5.130  0.1613 -0.2213 -0.6787
  284MOL0     O38235  13.168   5.205   5.113  0.0864 -0.2533  0.3432
  284MOL0     C38236  13.231   5.233   4.993 -0.7407 -0.4857  0.4328
  284MOL0     C38237  13.346   5.153   4.961  0.1763  0.1339  0.3761
  284MOL0     C38238  13.419   5.166   4.840  0.4041  0.7567 -0.6164
  284MOL0     C38239  13.381   5.264   4.744  0.5484 -0.2985  0.2840
  284MOL0     O38240  13.464   5.278   4.635  0.4272 -0.4196  0.1114
  284MOL0     C38241  13.437   5.371   4.528 -0.9018 -0.3280  0.2246
  284MOL0     C38242  13.555   5.378   4.438 -0.1836 -0.3728  1.0192
  284MOL0     C38243  13.679   5.443   4.509 -0.1199 -0.1810 -0.1865
  284MOL0     C38244  13.809   5.403   4.441  0.0400  1.0808  0.6279
  284MOL0     C38245  13.935   5.480   4.484 -0.6513  0.2462 -0.2711
  284MOL0     C38246  13.934   5.628   4.441 -0.2778  0.3478 -0.9027
  284MOL0     C38247  14.074   5.689   4.419 -0.8069 -0.3534 -0.0785
  284MOL0     C38248  14.078   5.838   4.433  0.5032 -0.3106  0.3584
  284MOL0    Cl38249  13.975   5.900   4.297  0.4367  0.4245 -0.3435
  284MOL0     C38250  13.272   5.351   4.777 -0.3404 -0.5931 -0.2902
  284MOL0     C38251  13.195   5.329   4.895 -0.4976 -0.7488  0.0264
  284MOL0     O38252  12.958   5.268   5.038  0.0395  0.4023 -0.5679
  284MOL0     C38253  13.068   5.147   5.364 -0.8510 -0.5889 -0.7117
  284MOL0     C38254  13.025   5.115   5.492 -0.1564  0.1977 -0.0685
  284MOL0     N38255  12.319   4.971   5.639  0.0182 -1.3361  0.1400
  284MOL0     N38256  12.188   4.958   5.621  0.2324  0.3186  0.2506
  284MOL0     C38257  10.952   4.765   5.401 -0.3290  0.0421  0.6833
  284MOL0     C38258  10.829   4.796   5.456 -0.2442  0.2697  0.1802
  284MOL0     C38259  10.498   5.082   5.587 -0.0330  0.5682 -0.1509
  284MOL0     C38260  10.410   5.142   5.499  0.1031 -1.0501 -0.7031
  284MOL0     C38261  10.274   5.173   5.541 -0.4409 -0.2891 -0.0098
  284MOL0     C38262  10.234   5.141   5.667  0.2003 -0.3993 -1.1882
  284MOL0     O38263  10.107   5.150   5.715 -0.2575 -0.3938  0.0049
  284MOL0     C38264  10.001   5.136   5.625  0.7565  0.0961 -0.1430
  284MOL0     C38265   9.874   5.168   5.703 -0.3286  0.0537 -0.4965
  284MOL0     C38266   9.757   5.113   5.618 -0.1812  0.2559 -0.6544
  284MOL0     C38267   9.624   5.136   5.666  0.1294  0.1155 -0.4113
  284MOL0     C38268   9.592   5.080   5.797  0.2600 -0.0794 -0.5714
  284MOL0     C38269   9.538   5.032   5.899 -0.5361 -0.1511  0.7073
  284MOL0     C38270  10.325   5.093   5.753  1.2495 -0.1969  0.2359
  284MOL0     C38271  10.456   5.055   5.722 -0.3474  0.0277 -1.2411
  284MOL0     C38272  10.533   4.991   5.834 -0.0845  1.1955  0.2577
  284MOL0     H38273  10.920   5.086   5.610  0.5848 -1.2412  0.9256
  284MOL0     H38274  11.141   5.028   5.500 -0.0255  0.9346  2.0581
  284MOL0     H38275  11.341   4.933   5.388 -2.1384 -0.4368 -2.0472
  284MOL0     H38276  11.302   4.841   5.536 -2.4822  0.8009  0.4067
  284MOL0     H38277  11.381   4.688   5.278 -1.1051  1.7595 -0.2421
  284MOL0     H38278  11.356   4.625   5.430 -1.6333 -1.0280 -1.8773
  284MOL0     H38279  11.555   4.774   5.524 -3.0792  0.1987 -0.1517
  284MOL0     H38280  11.571   4.819   5.353  1.3294  3.6122  3.0003
  284MOL0     H38281  11.575   4.531   5.459 -1.3021  1.2726 -0.0498
  284MOL0     H38282  11.605   4.575   5.292 -2.4951  2.1370 -0.9315
  284MOL0     H38283  11.827   4.543   5.371  2.3574  1.6328 -0.9906
  284MOL0     H38284  11.794   4.723   5.352 -2.5205  0.8476 -1.3169
  284MOL0     H38285  11.788   4.750   5.587  3.9699  1.3815  1.4865
  284MOL0     H38286  11.809   4.573   5.625 -1.2031 -0.7851  0.1528
  284MOL0     H38287  12.028   4.602   5.488 -0.5167  1.0048 -0.5871
  284MOL0     H38288  12.021   4.688   5.645 -1.9545 -2.6488  1.3390
  284MOL0     H38289  12.038   4.806   5.377  0.2624  0.1561  0.4973
  284MOL0     H38290  11.959   4.903   5.514  0.2572 -0.2140  0.4684
  284MOL0     H38291  12.299   4.729   5.422 -1.6540  0.4849 -0.3985
  284MOL0     H38292  12.548   4.738   5.615  2.1546 -0.9154 -0.9492
  284MOL0     H38293  12.569   4.846   5.469  0.6666 -1.4789  0.6959
  284MOL0     H38294  12.605   5.029   5.590 -2.7262 -0.1582  0.3084
  284MOL0     H38295  12.582   4.950   5.750 -2.6205  0.1253 -0.7553
  284MOL0     H38296  12.800   4.858   5.548  2.9040 -1.7139  1.4949
  284MOL0     H38297  12.794   4.791   5.707 -0.8660 -0.2567 -0.3797
  284MOL0     H38298  12.973   4.950   5.699 -0.9607 -1.4889  2.4984
  284MOL0     H38299  12.856   4.989   5.817 -1.0655  2.1374  0.5772
  284MOL0     H38300  12.715   5.252   5.460 -0.7884 -1.9417  0.3638
  284MOL0     H38301  12.793   5.305   5.240 -0.4337 -0.1197 -0.1114
  284MOL0     H38302  13.377   5.084   5.039  0.7184  0.2178  0.2456
  284MOL0     H38303  13.503   5.098   4.826  0.5713  0.3772  1.7917
  284MOL0     H38304  13.359   5.335   4.461 -0.0994 -0.3156 -0.7457
  284MOL0     H38305  13.412   5.473   4.559  1.1694  0.2940  0.0379
  284MOL0     H38306  13.581   5.282   4.392  2.9459  0.8271 -0.0114
  284MOL0     H38307  13.506   5.437   4.360 -2.9879  0.2597  3.0878
  284MOL0     H38308  13.675   5.552   4.516  2.1137  0.0534 -1.5019
  284MOL0     H38309  13.687   5.398   4.609  0.7226  0.0752 -0.1240
  284MOL0     H38310  13.792   5.429   4.336 -1.4751 -0.0385  0.5773
  284MOL0     H38311  13.823   5.295   4.451  1.1116  1.0966 -0.3653
  284MOL0     H38312  14.026   5.436   4.443  0.8389  2.0090  0.9559
  284MOL0     H38313  13.943   5.466   4.592  0.2333 -0.4169 -0.4131
  284MOL0     H38314  13.882   5.634   4.345 -1.5272  0.0444 -0.2718
  284MOL0     H38315  13.881   5.679   4.522 -0.0115 -1.1839  0.3004
  284MOL0     H38316  14.097   5.670   4.314 -2.4284 -0.5321 -0.4155
  284MOL0     H38317  14.155   5.637   4.471 -1.1134 -1.0228 -0.2651
  284MOL0     H38318  14.028   5.878   4.521 -1.9922  1.4428 -1.6919
  284MOL0     H38319  14.181   5.875   4.420 -0.1871  0.8410 -2.9560
  284MOL0     H38320  13.253   5.433   4.709  0.4207 -0.4608 -0.3569
  284MOL0     H38321  13.114   5.399   4.914 -0.9164 -1.0101 -0.7930
  284MOL0     H38322  13.172   5.127   5.340 -0.2715 -1.3294  1.9928
  284MOL0     H38323  13.094   5.073   5.564  0.8910 -2.1486 -2.2732
  284MOL0     H38324  10.951   4.663   5.363  0.7823 -0.3999  1.7589
  284MOL0     H38325  10.745   4.731   5.439 -0.3057  0.1613  0.8724
  284MOL0     H38326  10.449   5.180   5.405  2.0454 -1.6111 -0.1724
  284MOL0     H38327  10.211   5.236   5.479 -0.3416 -0.5911 -0.4169
  284MOL0     H38328   9.987   5.037   5.582 -1.5474 -0.6951  2.2142
  284MOL0     H38329  10.004   5.203   5.538 -2.9585 -2.1878 -2.2632
  284MOL0     H38330   9.881   5.276   5.715 -0.9435  0.2130 -1.4367
  284MOL0     H38331   9.875   5.111   5.796  0.9321  1.6203  0.4908
  284MOL0     H38332   9.771   5.005   5.603  1.6010  0.6159 -2.0021
  284MOL0     H38333   9.766   5.156   5.518  0.3938 -0.3073 -0.8508
  284MOL0     H38334   9.594   5.240   5.680  1.0377 -0.0173  3.4669
  284MOL0     H38335   9.554   5.090   5.595  1.3782 -1.8472 -0.4276
  284MOL0     H38336   9.492   4.979   5.979 -1.6885  2.0527  1.6074
  284MOL0     H38337  10.287   5.067   5.851 -1.6628  0.3248 -0.6482
  284MOL0     H38338  10.582   4.903   5.792 -1.5816 -0.6695  2.1852
  284MOL0     H38339  10.595   5.067   5.882 -1.1890  3.4983 -1.7864
  284MOL0     H38340  10.466   4.936   5.901 -1.2316  1.1277 -0.9226
  285MOL0     O38341   6.384   9.369   8.811 -0.2963  0.3769  0.5851
  285MOL0     C38342   6.324   9.450   8.739 -0.8059  0.1424 -0.5230
  285MOL0     O38343   6.385   9.523   8.643 -0.2655 -0.4065  0.5999
  285MOL0     C38344   6.525   9.522   8.643  0.2051 -0.8720  0.2259
  285MOL0     C38345   6.600   9.432   8.560 -0.1371  0.0361  0.1861
  285MOL0     C38346   6.741   9.439   8.563 -0.6709 -0.9328  0.5221
  285MOL0     C38347   6.812   9.531   8.643 -0.4848  0.6116 -0.3131
  285MOL0     O38348   6.952   9.529   8.633 -0.0649  0.1675  0.3281
  285MOL0     C38349   7.010   9.658   8.593  0.1320  0.5771  0.6168
  285MOL0     C38350   7.072   9.645   8.452  0.0641  0.0999  0.0800
  285MOL0     C38351   7.156   9.755   8.398  0.2864  0.5164 -0.6870
  285MOL0     C38352   7.303   9.753   8.466  0.0388  0.2850 -0.3277
  285MOL0     C38353   7.386   9.861   8.396 -0.4195 -0.0155  0.0911
  285MOL0     C38354   7.417   9.826   8.248 -0.5739 -0.1089  0.1355
  285MOL0     C38355   7.529   9.912   8.195 -0.2336 -0.6125  0.3549
  285MOL0     C38356   7.487  10.068   8.174  0.1379  0.8653 -0.2091
  285MOL0     N38357   7.373  10.083   8.080  0.2801 -0.0572  0.1083
  285MOL0     C38358   7.245  10.089   8.124 -0.9693 -1.3618 -0.4620
  285MOL0     C38359   7.179  10.055   8.015  0.6524 -0.4763  0.1842
  285MOL0     C38360   7.027  10.038   8.019  0.2413 -1.3204  0.1807
  285MOL0     C38361   6.996   9.910   8.089 -0.3910  0.0407  0.1231
  285MOL0     C38362   6.848   9.872   8.076 -0.1277 -0.9661  0.3765
  285MOL0     C38363   6.798   9.852   7.932  0.5038 -0.2682  0.3578
  285MOL0     O38364   6.759   9.975   7.864 -0.1547  0.6139 -0.0040
  285MOL0     C38365   6.637  10.029   7.896 -0.6475  0.5366 -0.1480
  285MOL0     C38366   6.538   9.979   7.976 -0.2112  0.0327  0.5943
  285MOL0     C38367   6.411  10.035   7.985 -0.3091 -0.2296 -0.6286
  285MOL0     C38368   6.372  10.150   7.907 -0.7182 -0.1664  0.7498
  285MOL0     C38369   6.241  10.218   7.935  0.6275  0.1209 -0.7383
  285MOL0     O38370   6.151  10.162   8.023  0.4980 -0.3913  0.6643
  285MOL0     C38371   6.019  10.194   8.048 -0.1806  0.5790  0.3996
  285MOL0     C38372   5.955  10.305   7.993 -0.0256 -0.4878  1.1184
  285MOL0     C38373   5.820  10.317   8.017 -1.1917 -0.1956 -0.2110
  285MOL0     C38374   5.747  10.224   8.082  0.5409 -0.0889 -0.4278
  285MOL0     O38375   5.616  10.252   8.093  0.1520 -0.3735 -0.3833
  285MOL0     C38376   5.526  10.140   8.071 -0.8327  0.5564 -0.3248
  285MOL0     C38377   5.392  10.203   8.034 -0.0268 -0.4985 -0.9101
  285MOL0     C38378   5.354  10.309   8.136 -0.5273  0.4100 -0.0819
  285MOL0     C38379   5.203  10.321   8.151  0.1749 -0.1007 -0.1262
  285MOL0     C38380   5.142  10.356   8.010  0.1739 -0.4842 -0.3742
  285MOL0     C38381   4.997  10.399   8.018 -0.7898 -0.2301 -0.5783
  285MOL0     C38382   4.914  10.345   8.134  0.3975 -0.9032 -0.4186
  285MOL0     C38383   4.775  10.402   8.136 -0.1304 -0.0508 -0.2150
  285MOL0    Cl38384   4.669  10.353   8.001  0.0618  0.3723  0.1750
  285MOL0     C38385   5.813  10.126   8.156  0.4164 -0.9108  0.4417
  285MOL0     C38386   5.954  10.114   8.143  0.3072 -1.0857 -0.6855
  285MOL0     O38387   6.237  10.330   7.891  0.0367 -0.3526 -0.7866
  285MOL0     C38388   6.465  10.191   7.817 -0.1421  0.1441 -0.4543
  285MOL0     C38389   6.595  10.142   7.821  0.4786  0.9293  0.4559
  285MOL0     N38390   7.258  10.047   7.903  0.4477  0.6594  0.6635
  285MOL0     N38391   7.374  10.066   7.946 -0.3932  0.7895 -1.0516
  285MOL0     C38392   6.745   9.625   8.723 -0.0256  0.5491  0.5687
  285MOL0     C38393   6.607   9.617   8.722 -0.0728  0.2535 -0.2344
  285MOL0     C38394   6.183   9.486   8.770 -0.3839  0.2518  1.1243
  285MOL0     C38395   6.139   9.608   8.738 -0.6839 -0.1764  0.2893
  285MOL0     C38396   6.006   9.643   8.749  0.6765  0.7120  0.3343
  285MOL0     C38397   5.902   9.555   8.777 -0.0351 -0.0569  0.6056
  285MOL0     O38398   5.771   9.600   8.802 -0.0943  0.1532 -0.6287
  285MOL0     C38399   5.662   9.531   8.735 -0.2200  0.5028 -0.1626
  285MOL0     C38400   5.544   9.599   8.783  0.1492  0.5955  0.4164
  285MOL0     C38401   5.483   9.512   8.894 -0.5105 -0.6336  0.3778
  285MOL0     C38402   5.364   9.586   8.963 -0.2778 -0.7547  0.0666
  285MOL0     C38403   5.301   9.487   9.053 -0.1130  1.0004 -0.3144
  285MOL0     C38404   5.270   9.386   9.119 -1.0720  1.3928  1.0137
  285MOL0     C38405   5.944   9.424   8.811 -0.5143 -0.1808 -0.0233
  285MOL0     C38406   6.082   9.385   8.802 -0.8233  0.6237  0.3798
  285MOL0     C38407   6.111   9.238   8.813  0.2848  0.7013 -0.0149
  285MOL0     H38408   6.555   9.354   8.499  1.9874 -1.6587  0.6945
  285MOL0     H38409   6.791   9.366   8.499  1.4398  0.8298  0.0569
  285MOL0     H38410   6.943   9.744   8.607 -1.8236 -0.6794 -0.5102
  285MOL0     H38411   7.096   9.670   8.659  0.6616 -4.2101  1.1102
  285MOL0     H38412   6.994   9.610   8.385 -0.7581 -1.1364  1.6227
  285MOL0     H38413   7.132   9.555   8.467 -4.2510 -3.0351  0.3820
  285MOL0     H38414   7.120   9.854   8.427  0.3372  0.6104 -0.9478
  285MOL0     H38415   7.162   9.755   8.289  2.5903  0.8748 -0.6042
  285MOL0     H38416   7.299   9.784   8.571  2.0523  3.0545 -0.9329
  285MOL0     H38417   7.357   9.658   8.463 -1.0663 -0.3375 -1.9091
  285MOL0     H38418   7.341   9.961   8.401  1.8164  1.1619 -1.6289
  285MOL0     H38419   7.487   9.878   8.435 -0.3498  0.1606 -0.1674
  285MOL0     H38420   7.455   9.724   8.253 -1.5620 -0.4867  0.0893
  285MOL0     H38421   7.328   9.831   8.185 -1.3020 -1.1964  1.0445
  285MOL0     H38422   7.556   9.866   8.100 -0.6855 -0.5940  0.2163
  285MOL0     H38423   7.623   9.909   8.251  0.5414 -2.0211 -0.9487
  285MOL0     H38424   7.464  10.119   8.267 -4.3872 -2.2553  0.6950
  285MOL0     H38425   7.573  10.111   8.122  0.7054 -2.6701 -2.5261
  285MOL0     H38426   7.200  10.116   8.219  0.1821  1.7841 -0.6836
  285MOL0     H38427   6.968  10.118   8.066 -0.6232  0.5837 -3.7509
  285MOL0     H38428   6.992  10.028   7.916  1.0580  0.6100 -0.3316
  285MOL0     H38429   7.060   9.828   8.055 -0.5706 -0.2696  0.5185
  285MOL0     H38430   7.016   9.918   8.197 -1.9543 -0.5710  0.4730
  285MOL0     H38431   6.792   9.949   8.130  0.1064  0.3324 -1.1656
  285MOL0     H38432   6.843   9.780   8.135  0.6188  0.4912  2.8948
  285MOL0     H38433   6.714   9.783   7.937  1.3103 -1.1999  4.4668
  285MOL0     H38434   6.880   9.809   7.874 -0.1974  1.7439 -2.3474
  285MOL0     H38435   6.563   9.896   8.041  0.5191  0.0205  0.3013
  285MOL0     H38436   6.338   9.987   8.049  1.2556 -0.7399  0.8344
  285MOL0     H38437   6.015  10.382   7.946 -0.3934  0.1223  1.6263
  285MOL0     H38438   5.771  10.410   7.988 -0.4315  0.4332  0.4805
  285MOL0     H38439   5.565  10.068   7.998 -0.1329  0.1537  0.4284
  285MOL0     H38440   5.518  10.085   8.165  0.1235  0.3431 -0.3563
  285MOL0     H38441   5.394  10.262   7.942  0.8794  2.6088  0.9459
  285MOL0     H38442   5.311  10.131   8.048 -1.4262  1.3453  1.1520
  285MOL0     H38443   5.401  10.286   8.232 -0.0994 -2.2055 -0.8338
  285MOL0     H38444   5.390  10.409   8.111 -1.0652  1.2229  2.1684
  285MOL0     H38445   5.175  10.401   8.220  0.3798 -1.4906  1.6392
  285MOL0     H38446   5.151  10.230   8.185 -0.7076  0.0068 -1.1353
  285MOL0     H38447   5.145  10.263   7.952  0.0378 -1.8508  1.7111
  285MOL0     H38448   5.194  10.432   7.951 -0.7881 -0.3042 -1.0304
  285MOL0     H38449   4.994  10.508   8.019  2.2862 -0.0552  0.8513
  285MOL0     H38450   4.961  10.366   7.920  4.4708 -0.3029 -2.8288
  285MOL0     H38451   4.963  10.375   8.227 -0.0476 -0.3527 -0.3563
  285MOL0     H38452   4.923  10.236   8.131  0.5854 -1.0409  2.6806
  285MOL0     H38453   4.716  10.372   8.223 -1.6348  1.3694 -0.6945
  285MOL0     H38454   4.784  10.511   8.144 -0.9095 -0.0322  0.6201
  285MOL0     H38455   5.753  10.052   8.208  0.0682 -0.3464  0.8596
  285MOL0     H38456   6.000  10.031   8.195 -2.1886 -2.5298 -0.6790
  285MOL0     H38457   6.454  10.282   7.759  0.6101  0.8618  0.4916
  285MOL0     H38458   6.671  10.191   7.762  0.4455 -1.0728 -1.3966
  285MOL0     H38459   6.799   9.693   8.788  1.3394  0.7075 -0.6927
  285MOL0     H38460   6.561   9.692   8.786 -0.5270 -1.2612  1.3075
  285MOL0     H38461   6.204   9.687   8.703 -2.0586  0.4045 -1.0538
  285MOL0     H38462   5.975   9.744   8.727 -0.5864  0.0616 -1.0532
  285MOL0     H38463   5.651   9.423   8.749  2.1268  0.0361 -1.3852
  285MOL0     H38464   5.675   9.540   8.627  0.3238 -1.6886 -0.3174
  285MOL0     H38465   5.474   9.592   8.700  0.0448 -1.0061  0.5919
  285MOL0     H38466   5.544   9.703   8.815 -0.6677  1.7926 -3.0611
  285MOL0     H38467   5.561   9.489   8.967  0.8101  2.0548 -0.0341
  285MOL0     H38468   5.457   9.413   8.856  2.6158 -2.2886  2.1575
  285MOL0     H38469   5.402   9.671   9.021  1.0503 -0.5289 -1.0693
  285MOL0     H38470   5.296   9.617   8.884  2.1918 -0.1073 -1.9285
  285MOL0     H38471   5.238   9.311   9.189  2.4040 -1.1209  0.2282
  285MOL0     H38472   5.868   9.358   8.853  0.7294 -1.0919  0.8603
  285MOL0     H38473   6.019   9.178   8.806 -0.3539  1.7775 -1.3613
  285MOL0     H38474   6.179   9.196   8.737 -0.9033  0.5963 -1.0627
  285MOL0     H38475   6.144   9.215   8.914 -0.6960 -0.8056 -0.0050
  286MOL0     O38476   0.992   5.058   0.694  0.1566 -0.5301  0.0976
  286MOL0     C38477   0.992   4.948   0.638  0.0798 -0.4210 -0.1420
  286MOL0     O38478   1.065   4.918   0.528  0.0190  0.3375  0.9221
  286MOL0     C38479   1.167   4.994   0.476  0.1630  0.1667  1.1042
  286MOL0     C38480   1.189   4.973   0.341  0.4207  0.1713  0.3853
  286MOL0     C38481   1.284   5.050   0.269  0.3085 -0.1254  0.2804
  286MOL0     C38482   1.361   5.144   0.339  0.2878 -0.3310 -0.6183
  286MOL0     O38483   1.469   5.206   0.282  0.8265 -0.3210  0.3935
  286MOL0     C38484   1.428   5.292   0.173  0.2317  0.2602 -0.1823
  286MOL0     C38485   1.546   5.374   0.136  0.0155 -0.2117  0.7002
  286MOL0     C38486   1.609   5.452   0.253  0.1845  0.2789  0.0415
  286MOL0     C38487   1.716   5.555   0.207 -0.0993 -0.2247 -0.6843
  286MOL0     C38488   1.805   5.591   0.331 -0.0055 -0.4422 -0.2264
  286MOL0     C38489   1.897   5.717   0.291 -0.3998  0.8450 -0.3872
  286MOL0     C38490   1.981   5.689   0.153  0.6043 -0.3281 -0.7229
  286MOL0     C38491   2.093   5.787   0.162  0.9318 -0.0430 -0.1490
  286MOL0     N38492   2.158   5.804   0.033 -0.1436  0.0340  0.8711
  286MOL0     C38493   2.286   5.771  -0.002 -0.8566  1.2459 -0.5371
  286MOL0     C38494   2.295   5.815  -0.133  0.2735 -0.0140 -0.4139
  286MOL0     C38495   2.400   5.787  -0.237 -0.0826  0.2334 -1.1846
  286MOL0     C38496   2.535   5.753  -0.175 -0.7736 -0.5383 -0.1570
  286MOL0     C38497   2.641   5.759  -0.276  0.3391  1.0184  0.1257
  286MOL0     C38498   2.783   5.738  -0.206 -0.5373 -0.4143  1.0672
  286MOL0     O38499   2.895   5.752  -0.292  0.0914  0.0296  0.6366
  286MOL0     C38500   3.017   5.712  -0.240  0.8848  0.1193 -0.1720
  286MOL0     C38501   3.042   5.681  -0.108 -0.0202 -0.0363  0.5741
  286MOL0     C38502   3.172   5.658  -0.067  0.1861  1.3346 -0.0909
  286MOL0     C38503   3.288   5.655  -0.145 -0.3243  0.1145  0.7534
  286MOL0     C38504   3.419   5.609  -0.094  0.1821  0.2372 -0.0900
  286MOL0     O38505   3.444   5.634   0.031 -1.1275 -0.2689 -0.0189
  286MOL0     C38506   3.577   5.632   0.079 -0.4543 -0.0025  0.2371
  286MOL0     C38507   3.660   5.746   0.085  0.4970  0.5729  0.4997
  286MOL0     C38508   3.798   5.732   0.124 -0.5968  0.8598  0.1786
  286MOL0     C38509   3.836   5.615   0.189 -0.1370 -0.0804  0.2561
  286MOL0     O38510   3.971   5.589   0.231 -0.4150  0.7961  0.3692
  286MOL0     C38511   4.013   5.669   0.336 -0.3659  0.4622 -0.6039
  286MOL0     C38512   4.133   5.608   0.406 -0.7665 -0.7925 -0.5229
  286MOL0     C38513   4.101   5.475   0.477  0.1690 -0.5253  0.3617
  286MOL0     C38514   4.224   5.400   0.498  0.0002  0.2682  0.2580
  286MOL0     C38515   4.324   5.473   0.600  0.2051 -0.6081  0.0052
  286MOL0     C38516   4.449   5.383   0.602 -0.3013  0.4350 -0.3392
  286MOL0     C38517   4.565   5.452   0.678  0.2714  0.6449  0.6129
  286MOL0     C38518   4.666   5.354   0.741  0.1611  0.1164 -0.5261
  286MOL0    Cl38519   4.778   5.447   0.840 -0.0127 -0.3052  0.0893
  286MOL0     C38520   3.748   5.505   0.197  0.5045 -0.0056  0.9782
  286MOL0     C38521   3.618   5.514   0.139  0.6940  0.2501  0.2766
  286MOL0     O38522   3.498   5.565  -0.167  0.0322  0.3392 -0.3618
  286MOL0     C38523   3.262   5.691  -0.279 -0.6866 -0.1263  0.5629
  286MOL0     C38524   3.125   5.712  -0.328 -0.1431  0.3713 -0.7655
  286MOL0     N38525   2.183   5.884  -0.162  0.2141 -0.3164  0.1249
  286MOL0     N38526   2.106   5.879  -0.064 -0.4503 -0.6919  0.9174
  286MOL0     C38527   1.345   5.158   0.477 -0.4355 -0.3325 -0.8897
  286MOL0     C38528   1.251   5.084   0.550  0.4724  0.5124 -0.3328
  286MOL0     C38529   0.899   4.838   0.691 -0.4685 -0.6339  0.2763
  286MOL0     C38530   0.765   4.872   0.713  0.1344 -0.7669 -0.3986
  286MOL0     C38531   0.683   4.774   0.771  0.6816  0.2270  0.4039
  286MOL0     C38532   0.724   4.643   0.801 -0.0831 -0.2347  0.1676
  286MOL0     O38533   0.630   4.559   0.836  0.2140  0.6247  0.2516
  286MOL0     C38534   0.619   4.447   0.744  0.2011  0.1639 -0.2166
  286MOL0     C38535   0.484   4.366   0.743 -0.1199  0.4044  0.4382
  286MOL0     C38536   0.363   4.453   0.717 -0.3269 -0.5877 -0.4691
  286MOL0     C38537   0.240   4.370   0.678 -0.2101 -0.0951 -0.1906
  286MOL0     C38538   0.239   4.346   0.530  0.4611  0.0835  0.0740
  286MOL0     C38539   0.259   4.344   0.407  0.2571 -0.9945  0.4962
  286MOL0     C38540   0.857   4.611   0.786 -1.1966 -0.7896  0.0623
  286MOL0     C38541   0.949   4.710   0.732  0.4652  0.4846  0.8611
  286MOL0     C38542   1.098   4.680   0.730  0.0299 -0.1901 -0.3302
  286MOL0     H38543   1.127   4.901   0.287  2.0268 -0.6652 -0.4083
  286MOL0     H38544   1.286   5.034   0.162  2.0450 -1.1554  0.4390
  286MOL0     H38545   1.403   5.232   0.086 -0.2872  0.0451  0.1101
  286MOL0     H38546   1.347   5.359   0.202  1.0489  2.0497 -1.7892
  286MOL0     H38547   1.512   5.432   0.050 -2.6700 -2.6329 -0.0646
  286MOL0     H38548   1.624   5.307   0.100  2.4442  0.4766  4.2166
  286MOL0     H38549   1.647   5.377   0.323 -0.9516  1.0234  1.5123
  286MOL0     H38550   1.527   5.507   0.300  0.2634 -0.9452  1.7099
  286MOL0     H38551   1.777   5.503   0.133 -0.0565 -0.4859 -0.4672
  286MOL0     H38552   1.683   5.650   0.163  2.5127  1.3307  0.4675
  286MOL0     H38553   1.742   5.628   0.413  1.9709  1.3373  0.5757
  286MOL0     H38554   1.865   5.507   0.367  0.5188 -0.3267 -0.8310
  286MOL0     H38555   1.832   5.804   0.280  1.4141  2.3097  0.0198
  286MOL0     H38556   1.970   5.731   0.371 -0.7470 -3.0973  0.8740
  286MOL0     H38557   1.909   5.708   0.073 -0.4342 -3.4703 -0.6462
  286MOL0     H38558   2.019   5.587   0.155 -1.2610 -1.0895  2.8704
  286MOL0     H38559   2.049   5.885   0.184 -2.0103 -1.1712 -0.4664
  286MOL0     H38560   2.169   5.764   0.237  1.6263  0.7479 -0.5947
  286MOL0     H38561   2.348   5.695   0.044  0.3452  1.2866 -2.0276
  286MOL0     H38562   2.366   5.703  -0.299 -1.5140 -0.3218  0.2696
  286MOL0     H38563   2.407   5.880  -0.294  0.4221  0.8000 -0.2095
  286MOL0     H38564   2.567   5.830  -0.104  3.5158 -1.9114 -0.2710
  286MOL0     H38565   2.524   5.657  -0.124 -1.2214  1.3594  3.7364
  286MOL0     H38566   2.642   5.848  -0.339  2.3619  0.5150 -0.6430
  286MOL0     H38567   2.623   5.683  -0.352  1.1263  0.4840  0.4529
  286MOL0     H38568   2.767   5.641  -0.157 -2.4655 -0.9296 -0.4530
  286MOL0     H38569   2.790   5.807  -0.122 -1.6733  1.0398  0.0250
  286MOL0     H38570   2.959   5.667  -0.039 -2.5326  2.2757 -1.7735
  286MOL0     H38571   3.201   5.650   0.037  0.0014 -1.6727 -0.1756
  286MOL0     H38572   3.634   5.843   0.045  2.0969  1.0191  0.4890
  286MOL0     H38573   3.862   5.817   0.102 -0.2674  0.4237 -0.5729
  286MOL0     H38574   4.040   5.767   0.294  0.2491 -0.3713 -2.2243
  286MOL0     H38575   3.931   5.684   0.407  0.1901 -0.7351  0.3186
  286MOL0     H38576   4.218   5.591   0.339  1.3752  2.4887  1.0969
  286MOL0     H38577   4.174   5.676   0.481  0.4754  0.0429 -1.9036
  286MOL0     H38578   4.039   5.497   0.564 -0.0785 -1.8449  0.5495
  286MOL0     H38579   4.045   5.418   0.402  2.0789 -2.0458 -0.0059
  286MOL0     H38580   4.267   5.380   0.399  1.0386 -2.4407  1.1657
  286MOL0     H38581   4.191   5.304   0.538 -0.6712  0.2033 -0.4522
  286MOL0     H38582   4.280   5.474   0.701  0.1122 -2.4905  0.0308
  286MOL0     H38583   4.348   5.576   0.573 -2.7266 -0.2284 -1.5232
  286MOL0     H38584   4.433   5.280   0.633  5.5459 -1.1130 -1.3809
  286MOL0     H38585   4.484   5.369   0.499 -0.7528  3.2323 -0.9567
  286MOL0     H38586   4.530   5.525   0.750 -1.1868 -0.7815  1.4065
  286MOL0     H38587   4.621   5.512   0.605 -0.8607  2.1728  0.9687
  286MOL0     H38588   4.611   5.289   0.810 -0.2062  1.0853  0.1127
  286MOL0     H38589   4.713   5.295   0.662  1.2661  0.7054 -0.3368
  286MOL0     H38590   3.783   5.417   0.251  1.3793 -0.9077 -0.9638
  286MOL0     H38591   3.551   5.429   0.150  1.1996 -0.0227  1.4264
  286MOL0     H38592   3.349   5.707  -0.343  0.0994 -0.2796  1.5602
  286MOL0     H38593   3.114   5.744  -0.431 -0.0637 -0.0313 -0.9027
  286MOL0     H38594   1.401   5.231   0.535 -0.2756 -1.8994  1.0289
  286MOL0     H38595   1.232   5.094   0.656  1.2896  0.6507 -0.1897
  286MOL0     H38596   0.750   4.976   0.684  4.0926  0.6342  1.8631
  286MOL0     H38597   0.579   4.798   0.793 -0.3415 -0.9628 -2.6828
  286MOL0     H38598   0.709   4.386   0.751  0.9452  1.0448 -1.5896
  286MOL0     H38599   0.632   4.490   0.644  0.1072  0.8730  0.0698
  286MOL0     H38600   0.467   4.309   0.834 -3.4012  1.9904  0.9637
  286MOL0     H38601   0.490   4.290   0.665 -1.0309  0.6432  0.1206
  286MOL0     H38602   0.394   4.532   0.647  0.8454 -0.6532 -0.0436
  286MOL0     H38603   0.340   4.504   0.811  0.5199  0.1355 -0.6385
  286MOL0     H38604   0.253   4.275   0.731  1.5924  0.6242  0.7531
  286MOL0     H38605   0.144   4.416   0.704  0.5180  0.7882  1.0650
  286MOL0     H38606   0.279   4.353   0.302  0.7797 -3.6404  0.3178
  286MOL0     H38607   0.905   4.521   0.823  0.6897 -0.0514 -0.4741
  286MOL0     H38608   1.127   4.651   0.832  0.4999  3.4936  0.7208
  286MOL0     H38609   1.130   4.622   0.643  0.2147 -0.7418  0.0972
  286MOL0     H38610   1.150   4.775   0.718  0.8356 -0.4229  1.1262
  287MOL0     O38611   8.941   2.710   9.638 -0.3504 -0.5278  0.1680
  287MOL0     C38612   8.855   2.710   9.724  0.0587 -0.1299 -0.5311
  287MOL0     O38613   8.868   2.735   9.859  0.1274  0.4506 -0.4774
  287MOL0     C38614   8.993   2.738   9.912  0.2928  0.1672  1.2164
  287MOL0     C38615   9.062   2.620   9.951 -0.1275 -0.1523 -0.4966
  287MOL0     C38616   9.193   2.622   9.996 -0.3452  0.6730 -0.3406
  287MOL0     C38617   9.264   2.743  10.000 -0.7967  0.5052  0.7391
  287MOL0     O38618   9.398   2.747  10.054 -0.1340  0.6416 -0.0611
  287MOL0     C38619   9.438   2.868  10.122  0.1058 -0.0624 -0.7550
  287MOL0     C38620   9.537   2.834  10.232  0.9464 -0.7946  0.5534
  287MOL0     C38621   9.664   2.799  10.160 -0.0221  0.6332  0.1510
  287MOL0     C38622   9.788   2.778  10.246 -0.1833  0.0256 -0.0343
  287MOL0     C38623   9.910   2.752  10.155  0.0709  0.2294 -0.2480
  287MOL0     C38624  10.031   2.722  10.253 -0.6813 -0.1642  0.1445
  287MOL0     C38625  10.158   2.675  10.177 -0.7056  0.2688  1.2010
  287MOL0     C38626  10.281   2.649  10.269  0.6620  0.5320  0.6270
  287MOL0     N38627  10.413   2.636  10.195  0.1077 -0.2850 -0.3810
  287MOL0     C38628  10.535   2.697  10.226  0.3470 -0.7385 -0.3147
  287MOL0     C38629  10.624   2.655  10.134 -0.3682 -0.2379  0.3848
  287MOL0     C38630  10.774   2.685  10.127 -0.4726  0.0173 -0.6771
  287MOL0     C38631  10.845   2.631  10.255 -0.1391 -1.1981  0.7270
  287MOL0     C38632  10.873   2.479  10.257  0.4876 -0.1909  0.3108
  287MOL0     C38633  10.921   2.428  10.392 -0.4250  0.3663  0.1920
  287MOL0     O38634  11.028   2.505  10.451  0.3939 -0.2638  0.2321
  287MOL0     C38635  11.113   2.438  10.537  0.5847 -0.2478  0.0845
  287MOL0     C38636  11.235   2.500  10.555 -0.1118 -0.1042  0.1456
  287MOL0     C38637  11.335   2.441  10.633 -0.3776  0.1164 -0.1584
  287MOL0     C38638  11.319   2.311  10.684 -0.2674  0.3635  0.3664
  287MOL0     C38639  11.418   2.253  10.770  0.0810 -0.5730 -0.5874
  287MOL0     O38640  11.512   2.342  10.802 -0.5937  0.0807  0.5702
  287MOL0     C38641  11.636   2.314  10.856 -0.2342  0.7699  0.8539
  287MOL0     C38642  11.717   2.218  10.811  0.0491 -0.0756 -0.0956
  287MOL0     C38643  11.843   2.203  10.867  0.1515  0.2121 -0.5122
  287MOL0     C38644  11.888   2.309  10.953 -0.4116  0.6262 -0.8822
  287MOL0     O38645  12.022   2.299  10.986  0.5857  0.1928 -0.5348
  287MOL0     C38646  12.083   2.393  11.072 -0.4644  0.3917  0.4724
  287MOL0     C38647  12.222   2.336  11.093 -0.2487 -0.4620  0.0618
  287MOL0     C38648  12.294   2.430  11.185  0.0086  0.1094  0.3978
  287MOL0     C38649  12.433   2.368  11.227  0.5468 -0.5593 -0.0884
  287MOL0     C38650  12.535   2.479  11.273  0.0224  0.7076 -0.5656
  287MOL0     C38651  12.491   2.530  11.417 -0.2007  0.0702  0.2493
  287MOL0     C38652  12.551   2.667  11.452 -0.9692  0.2414 -0.6731
  287MOL0     C38653  12.470   2.735  11.562  0.1205  0.1400  0.0462
  287MOL0    Cl38654  12.490   2.645  11.716  0.0095 -0.0446 -0.1261
  287MOL0     C38655  11.797   2.408  10.993 -0.0323  0.5813 -0.8922
  287MOL0     C38656  11.666   2.405  10.948  0.5713  0.1699 -0.6061
  287MOL0     O38657  11.414   2.135  10.800 -0.2554  0.4450 -0.3101
  287MOL0     C38658  11.188   2.254  10.668  0.1060  1.3402 -0.4646
  287MOL0     C38659  11.093   2.310  10.591  1.0716  0.0325  0.1620
  287MOL0     N38660  10.554   2.568  10.047  0.0947 -0.1435  0.4888
  287MOL0     N38661  10.437   2.552  10.089  0.2021 -0.0773  0.9160
  287MOL0     C38662   9.198   2.864   9.953 -0.8793  1.1993  0.4854
  287MOL0     C38663   9.061   2.857   9.917  0.9741 -0.8318  0.0423
  287MOL0     C38664   8.719   2.681   9.684 -1.3355 -0.4542 -0.1667
  287MOL0     C38665   8.660   2.747   9.576  0.2637  0.5833  1.2162
  287MOL0     C38666   8.532   2.713   9.531  0.4468  0.3347  0.1217
  287MOL0     C38667   8.458   2.613   9.594  0.4623  0.6631  0.1454
  287MOL0     O38668   8.333   2.595   9.542 -0.1958 -0.5919 -0.6458
  287MOL0     C38669   8.231   2.534   9.614 -0.1564  0.5512 -0.5277
  287MOL0     C38670   8.094   2.580   9.552 -0.2613 -0.1696  0.2135
  287MOL0     C38671   7.973   2.527   9.627  0.4009  0.2216 -0.6350
  287MOL0     C38672   7.930   2.388   9.588 -0.4391  0.0086 -0.6960
  287MOL0     C38673   8.013   2.283   9.648  0.5857 -0.0752  0.2514
  287MOL0     C38674   8.065   2.191   9.700 -0.1893  0.6195 -0.3118
  287MOL0     C38675   8.516   2.542   9.699  0.9405 -0.5730  0.6088
  287MOL0     C38676   8.642   2.581   9.751  0.6038  1.0003  0.0075
  287MOL0     C38677   8.690   2.499   9.875  0.5098 -0.1148 -0.2523
  287MOL0     H38678   9.006   2.528   9.939  0.5169 -0.8003  1.1847
  287MOL0     H38679   9.258   2.538  10.014 -2.0714 -0.7815 -0.6050
  287MOL0     H38680   9.478   2.942  10.052 -0.7441 -1.4435 -2.8145
  287MOL0     H38681   9.348   2.911  10.167  0.9297  1.2204 -0.2608
  287MOL0     H38682   9.497   2.754  10.295 -0.8536 -0.6123 -0.3113
  287MOL0     H38683   9.549   2.927  10.289  1.9573 -0.6779  0.1760
  287MOL0     H38684   9.682   2.885  10.095 -1.9457  1.5049  0.6893
  287MOL0     H38685   9.647   2.707  10.105 -0.8589  0.1159  1.2491
  287MOL0     H38686   9.814   2.855  10.319  4.2724 -2.4643  1.3461
  287MOL0     H38687   9.767   2.686  10.301  0.0297  0.7481  1.2970
  287MOL0     H38688   9.876   2.664  10.100 -3.1518 -0.3079  2.2548
  287MOL0     H38689   9.939   2.845  10.104  0.7158  1.6075  2.4662
  287MOL0     H38690  10.064   2.814  10.301 -0.7368 -1.2762  2.4282
  287MOL0     H38691  10.010   2.653  10.335 -0.5762 -1.3508 -0.7829
  287MOL0     H38692  10.182   2.756  10.108  1.8062 -2.2530 -1.1803
  287MOL0     H38693  10.148   2.584  10.116 -0.4391  0.1421  1.3449
  287MOL0     H38694  10.275   2.733  10.338 -0.2564 -0.0818  1.3154
  287MOL0     H38695  10.260   2.562  10.331 -0.7604  1.6118  1.7266
  287MOL0     H38696  10.544   2.764  10.311 -0.6942  1.3670 -1.7722
  287MOL0     H38697  10.821   2.639  10.039 -2.0919 -1.6180 -0.7325
  287MOL0     H38698  10.790   2.793  10.121  3.1840 -0.4353 -1.5696
  287MOL0     H38699  10.942   2.682  10.262 -0.9627  0.9418 -1.9030
  287MOL0     H38700  10.800   2.651  10.352  0.2463  1.3579  0.4270
  287MOL0     H38701  10.949   2.470  10.179  0.1296  0.8945 -0.1844
  287MOL0     H38702  10.781   2.427  10.229 -1.2939  4.1495 -3.2668
  287MOL0     H38703  10.944   2.322  10.380 -0.2806  0.4159  0.0219
  287MOL0     H38704  10.836   2.429  10.461 -1.8978  0.3518 -1.5721
  287MOL0     H38705  11.237   2.601  10.516 -2.6129 -0.0358  0.0375
  287MOL0     H38706  11.421   2.505  10.647 -0.1764 -0.0482 -0.6260
  287MOL0     H38707  11.693   2.146  10.733  2.1474 -0.3477 -0.5635
  287MOL0     H38708  11.905   2.122  10.832 -0.0793  1.0642 -3.0525
  287MOL0     H38709  12.098   2.494  11.032 -1.8778  0.5787  0.3542
  287MOL0     H38710  12.033   2.388  11.169  2.2179  0.0900  1.9354
  287MOL0     H38711  12.213   2.241  11.148 -1.7598 -0.1663  0.3517
  287MOL0     H38712  12.283   2.323  11.003 -1.1175 -3.3076 -0.2290
  287MOL0     H38713  12.321   2.515  11.122  3.3852 -0.2765  1.0947
  287MOL0     H38714  12.236   2.462  11.272  0.8944 -0.3705  1.1863
  287MOL0     H38715  12.485   2.333  11.138  1.5137  2.5319 -0.8460
  287MOL0     H38716  12.422   2.289  11.302 -0.8041  0.5851  0.9778
  287MOL0     H38717  12.538   2.570  11.212  0.6127  1.9628  1.2693
  287MOL0     H38718  12.633   2.435  11.292 -0.5301  0.3489  1.7942
  287MOL0     H38719  12.382   2.535  11.424 -0.3809 -1.6171 -0.6311
  287MOL0     H38720  12.527   2.462  11.495  0.2646 -0.2935 -0.2710
  287MOL0     H38721  12.555   2.726  11.359  0.3413 -0.3464 -1.0113
  287MOL0     H38722  12.657   2.658  11.476 -0.6510  0.7229 -1.7995
  287MOL0     H38723  12.504   2.839  11.568 -0.0043  0.1338  1.0309
  287MOL0     H38724  12.363   2.732  11.538 -0.7954  3.0707  3.0532
  287MOL0     H38725  11.833   2.486  11.060  0.1510 -0.4187  0.1993
  287MOL0     H38726  11.586   2.465  10.992 -0.3931 -0.9014 -0.8753
  287MOL0     H38727  11.175   2.154  10.708 -1.0968  1.0541 -1.4999
  287MOL0     H38728  11.007   2.244  10.578  0.8999  0.2427  0.2212
  287MOL0     H38729   9.253   2.957   9.948  2.7040 -0.7757 -1.9335
  287MOL0     H38730   9.012   2.949   9.887  0.2032 -1.5167 -0.8431
  287MOL0     H38731   8.718   2.818   9.518 -0.1136  0.3910  0.5933
  287MOL0     H38732   8.480   2.759   9.448  0.4434  0.6318  0.2885
  287MOL0     H38733   8.230   2.564   9.719 -2.7996 -3.5734  0.8719
  287MOL0     H38734   8.245   2.425   9.614 -1.1497  0.3901 -1.7839
  287MOL0     H38735   8.078   2.540   9.451 -1.0181  0.9771 -0.1423
  287MOL0     H38736   8.103   2.689   9.547  3.8530 -0.2538  1.9229
  287MOL0     H38737   7.887   2.588   9.600  0.1170 -0.6451 -1.7783
  287MOL0     H38738   7.980   2.544   9.735  0.6172  0.0326 -0.6175
  287MOL0     H38739   7.826   2.382   9.620 -0.9340 -0.7648 -2.3648
  287MOL0     H38740   7.926   2.381   9.479 -3.2197  3.6067 -0.9860
  287MOL0     H38741   8.105   2.102   9.745 -2.5560 -1.0684 -1.3186
  287MOL0     H38742   8.462   2.452   9.729 -0.3326  0.4146  1.3704
  287MOL0     H38743   8.791   2.458   9.864  0.6507  0.2432 -0.2982
  287MOL0     H38744   8.699   2.570   9.958  3.0108 -1.5957  0.8992
  287MOL0     H38745   8.619   2.416   9.883  0.2769  0.2305  1.7916
  288MOL0     O38746   2.241   0.631   2.768  0.1979  0.1579 -0.3170
  288MOL0     C38747   2.218   0.688   2.879  0.8903 -0.6542 -0.0045
  288MOL0     O38748   2.318   0.718   2.972  0.1662 -0.0165  0.3933
  288MOL0     C38749   2.434   0.724   2.910 -0.3289  0.3029 -0.1743
  288MOL0     C38750   2.525   0.626   2.938 -0.8191 -0.7895 -0.3505
  288MOL0     C38751   2.666   0.649   2.913  0.2668 -0.7155  0.4460
  288MOL0     C38752   2.710   0.767   2.856 -1.0225 -0.2348 -0.5226
  288MOL0     O38753   2.843   0.773   2.823  0.0788  0.6305  0.4012
  288MOL0     C38754   2.884   0.860   2.715  1.1565  0.1613 -0.1408
  288MOL0     C38755   3.025   0.813   2.673 -0.5258 -0.0516 -0.3212
  288MOL0     C38756   3.137   0.825   2.788 -0.4773 -0.5313 -0.4303
  288MOL0     C38757   3.171   0.976   2.817  0.2979 -0.5909 -0.6052
  288MOL0     C38758   3.299   1.004   2.912 -0.2940 -0.2217  0.3941
  288MOL0     C38759   3.427   0.952   2.853 -0.5723  0.2390  0.0622
  288MOL0     C38760   3.549   0.960   2.954 -0.1289 -0.0777  0.6489
  288MOL0     C38761   3.599   1.102   2.981  0.2564 -0.4162 -0.2190
  288MOL0     N38762   3.705   1.104   3.083  1.1633  0.2113 -1.6856
  288MOL0     C38763   3.840   1.080   3.073  0.1124  0.1982  0.2170
  288MOL0     C38764   3.893   1.114   3.192  0.6184 -0.0434 -0.8499
  288MOL0     C38765   4.037   1.103   3.236 -0.2417  0.0788 -0.3643
  288MOL0     C38766   4.138   1.176   3.139  0.4452 -0.3984  0.1843
  288MOL0     C38767   4.280   1.119   3.138  0.2695  0.3127  0.7864
  288MOL0     C38768   4.338   1.106   3.279 -0.5874 -0.5821  0.2166
  288MOL0     O38769   4.475   1.059   3.269  0.4670 -0.0971 -0.0328
  288MOL0     C38770   4.563   1.097   3.357 -0.0407  0.6758 -0.1225
  288MOL0     C38771   4.691   1.136   3.319  0.6511 -0.0129 -0.5648
  288MOL0     C38772   4.784   1.179   3.408 -0.1920  0.4904 -0.7973
  288MOL0     C38773   4.758   1.175   3.552  0.0997  0.4366  0.4561
  288MOL0     C38774   4.861   1.219   3.646 -0.2265 -0.0336  1.3101
  288MOL0     O38775   4.987   1.243   3.596 -0.9678 -0.0791  0.1227
  288MOL0     C38776   5.084   1.275   3.684 -0.2907  0.2687  0.2114
  288MOL0     C38777   5.150   1.402   3.692  1.1337 -0.2947  0.0288
  288MOL0     C38778   5.248   1.437   3.789  0.1754 -0.3908  0.9788
  288MOL0     C38779   5.310   1.333   3.860 -0.4109 -0.6831 -0.2678
  288MOL0     O38780   5.420   1.344   3.940 -0.1274  0.3618 -0.0960
  288MOL0     C38781   5.520   1.443   3.907 -0.3865 -0.7382  0.4954
  288MOL0     C38782   5.629   1.400   3.806 -0.5834 -0.4295 -0.4355
  288MOL0     C38783   5.757   1.487   3.800  0.4781  0.5027 -1.0832
  288MOL0     C38784   5.834   1.473   3.930 -0.2132 -0.5338  0.4682
  288MOL0     C38785   5.956   1.568   3.920  0.3683  0.3001 -0.8705
  288MOL0     C38786   6.023   1.575   4.056  0.2707 -0.1270 -0.0630
  288MOL0     C38787   6.093   1.709   4.078 -0.1654 -0.0430  0.5823
  288MOL0     C38788   6.148   1.722   4.220 -0.4376  0.0420  0.9416
  288MOL0    Cl38789   6.015   1.702   4.355 -0.4506  0.2028 -0.1555
  288MOL0     C38790   5.251   1.210   3.859 -0.4529  0.7991  0.1454
  288MOL0     C38791   5.142   1.179   3.770 -0.1034 -0.1095  0.5059
  288MOL0     O38792   4.826   1.240   3.764  0.0194 -0.9479 -0.2823
  288MOL0     C38793   4.629   1.130   3.584  1.3010 -0.5210  0.3633
  288MOL0     C38794   4.532   1.096   3.491  0.5386  0.7476  0.5689
  288MOL0     N38795   3.798   1.171   3.273 -0.4316 -0.3984 -1.6571
  288MOL0     N38796   3.686   1.155   3.208 -0.4325  0.6154 -0.4982
  288MOL0     C38797   2.614   0.866   2.828 -0.7516 -0.1252  0.5486
  288MOL0     C38798   2.476   0.841   2.856 -0.6554  0.1963 -0.2405
  288MOL0     C38799   2.074   0.742   2.905 -0.2455  0.6208  0.4509
  288MOL0     C38800   2.040   0.769   3.038  0.0324 -0.1216  0.0272
  288MOL0     C38801   1.910   0.810   3.072 -0.1137  0.3290 -0.0888
  288MOL0     C38802   1.801   0.827   2.986 -0.2735  1.1714  0.3309
  288MOL0     O38803   1.682   0.868   3.032 -0.3972 -0.6888 -0.1519
  288MOL0     C38804   1.566   0.905   2.949  0.0926  0.7983  0.3235
  288MOL0     C38805   1.477   0.787   2.919 -0.0837  0.1227 -0.7397
  288MOL0     C38806   1.453   0.687   3.037 -0.8971  0.4281  0.6946
  288MOL0     C38807   1.386   0.743   3.165 -0.1448 -0.0857  0.4590
  288MOL0     C38808   1.407   0.656   3.281  0.1285 -0.8723  0.2555
  288MOL0     C38809   1.431   0.594   3.387 -0.0827 -0.1553  0.3946
  288MOL0     C38810   1.838   0.793   2.851  0.2957 -0.1019  0.2645
  288MOL0     C38811   1.967   0.752   2.807 -0.3585 -0.0997 -0.7230
  288MOL0     C38812   1.985   0.719   2.662  0.2029  0.3914  0.2743
  288MOL0     H38813   2.496   0.541   2.997  0.3620 -0.7362  0.3435
  288MOL0     H38814   2.747   0.585   2.945 -0.1030  0.3206  3.8232
  288MOL0     H38815   2.810   0.862   2.634  2.0698 -1.3854 -1.0548
  288MOL0     H38816   2.897   0.964   2.745  1.8273 -0.2726  1.1454
  288MOL0     H38817   3.061   0.854   2.579 -2.1306  0.6102 -0.6895
  288MOL0     H38818   3.023   0.706   2.649 -0.5626  0.6140 -3.7888
  288MOL0     H38819   3.223   0.766   2.757 -1.3123 -0.3766 -3.3809
  288MOL0     H38820   3.094   0.785   2.880 -1.1691  1.2207  0.0498
  288MOL0     H38821   3.186   1.023   2.720 -1.2967 -0.5303 -0.8334
  288MOL0     H38822   3.089   1.029   2.866  1.2969  0.5085 -0.0600
  288MOL0     H38823   3.324   1.110   2.927  0.7459 -0.0091 -2.1550
  288MOL0     H38824   3.277   0.956   3.007 -1.7691 -0.4962 -0.0600
  288MOL0     H38825   3.412   0.849   2.819  1.8673  0.3389 -1.6439
  288MOL0     H38826   3.463   1.006   2.765  1.7120 -0.4876  0.4723
  288MOL0     H38827   3.627   0.898   2.909  1.0455  1.2957  0.7409
  288MOL0     H38828   3.521   0.921   3.053  0.5774  0.1827  0.9568
  288MOL0     H38829   3.625   1.160   2.892 -0.0995  0.2252  0.0795
  288MOL0     H38830   3.505   1.148   3.014 -0.6321 -2.7979  0.7734
  288MOL0     H38831   3.899   1.032   2.995 -1.7826  0.0747 -1.2138
  288MOL0     H38832   4.041   1.148   3.335 -0.9615  1.6198 -1.0051
  288MOL0     H38833   4.059   0.996   3.224 -0.3389 -0.0292  0.3824
  288MOL0     H38834   4.092   1.172   3.040  0.6288  0.9227  0.0255
  288MOL0     H38835   4.146   1.280   3.175 -2.7096  0.1256 -0.2992
  288MOL0     H38836   4.331   1.179   3.062 -2.9648  2.5784  0.1983
  288MOL0     H38837   4.275   1.020   3.092 -3.7454  0.4490  0.5865
  288MOL0     H38838   4.273   1.033   3.327 -1.7865 -1.3435 -2.3752
  288MOL0     H38839   4.321   1.200   3.333  0.1909  0.2265 -0.9067
  288MOL0     H38840   4.724   1.125   3.216  1.6112  1.9977 -0.5209
  288MOL0     H38841   4.879   1.223   3.380 -0.2245  1.7803  0.8970
  288MOL0     H38842   5.103   1.475   3.628 -0.4505 -1.1088  0.1986
  288MOL0     H38843   5.285   1.539   3.798  2.6646 -1.2814  1.6751
  288MOL0     H38844   5.487   1.535   3.859  1.6281  1.1213  2.4482
  288MOL0     H38845   5.555   1.471   4.007  0.9742  0.0818 -0.1839
  288MOL0     H38846   5.658   1.300   3.840  1.9304  0.2540 -0.3843
  288MOL0     H38847   5.589   1.385   3.706 -0.2588  2.0511 -0.9918
  288MOL0     H38848   5.810   1.454   3.710  1.2555  0.1743 -0.5191
  288MOL0     H38849   5.720   1.589   3.792 -1.2736 -0.0544 -0.5878
  288MOL0     H38850   5.883   1.376   3.938 -0.7983 -0.9705 -0.9567
  288MOL0     H38851   5.777   1.494   4.021  0.4672  2.2742  0.3413
  288MOL0     H38852   5.922   1.667   3.888 -0.0598  0.9389  1.3744
  288MOL0     H38853   6.027   1.529   3.847  1.9298  0.2857  0.5885
  288MOL0     H38854   5.945   1.581   4.132 -0.2794  2.2195 -0.7388
  288MOL0     H38855   6.076   1.480   4.074  1.3570  0.3504 -0.6179
  288MOL0     H38856   6.011   1.781   4.065  0.0707  0.0489 -0.4466
  288MOL0     H38857   6.169   1.722   4.001  0.8102 -1.0583  1.3548
  288MOL0     H38858   6.226   1.645   4.225 -0.2637  0.0417 -1.0647
  288MOL0     H38859   6.205   1.816   4.224 -1.3147  0.5344  2.3373
  288MOL0     H38860   5.295   1.126   3.911  0.0577  0.4024 -0.8854
  288MOL0     H38861   5.116   1.074   3.767  0.4637 -0.2416 -2.2766
  288MOL0     H38862   4.596   1.121   3.687  3.1087 -4.0843  0.7764
  288MOL0     H38863   4.439   1.056   3.530  1.1421 -1.2614  0.0402
  288MOL0     H38864   2.645   0.960   2.785 -0.9005 -0.4627 -0.3221
  288MOL0     H38865   2.415   0.929   2.836  0.3715  0.7470 -1.0471
  288MOL0     H38866   2.109   0.766   3.122 -0.1706  5.2285  0.7616
  288MOL0     H38867   1.877   0.833   3.173 -1.3213 -1.7851  0.0510
  288MOL0     H38868   1.597   0.947   2.853 -0.1495  1.4299  0.5167
  288MOL0     H38869   1.512   0.981   3.006  0.0801  0.7188  0.4177
  288MOL0     H38870   1.519   0.724   2.839  0.5367 -0.0632 -0.2749
  288MOL0     H38871   1.383   0.830   2.882 -0.7050  0.5317  1.2087
  288MOL0     H38872   1.557   0.658   3.057  0.2439  2.8101 -1.2146
  288MOL0     H38873   1.396   0.603   2.997  1.1216 -1.1201  0.8906
  288MOL0     H38874   1.409   0.847   3.189  2.7883  0.0117 -2.0993
  288MOL0     H38875   1.281   0.736   3.137 -0.3684 -4.1236  1.5708
  288MOL0     H38876   1.452   0.548   3.482 -1.8698 -1.7610  0.0756
  288MOL0     H38877   1.754   0.793   2.783 -1.8133  0.9651  2.6716
  288MOL0     H38878   2.081   0.760   2.629  1.6499 -2.0154  1.1929
  288MOL0     H38879   1.990   0.610   2.656 -1.1179  0.1946  2.0009
  288MOL0     H38880   1.898   0.760   2.610 -0.0960  0.5819  0.9116
  289MOL0     O38881   2.502   8.661   3.620  0.2104  0.2867 -1.0407
  289MOL0     C38882   2.501   8.780   3.609  0.7205  0.3802 -1.1422
  289MOL0     O38883   2.580   8.869   3.676 -0.2413 -0.3974  1.0962
  289MOL0     C38884   2.663   8.819   3.766 -0.9756  0.8711 -0.1408
  289MOL0     C38885   2.805   8.827   3.734  0.5712  1.0369 -0.3194
  289MOL0     C38886   2.907   8.779   3.811 -0.0429  1.3280 -0.9239
  289MOL0     C38887   2.869   8.723   3.943  1.0759 -0.0519  0.1033
  289MOL0     O38888   2.967   8.686   4.028  0.2461 -0.0154  0.2910
  289MOL0     C38889   2.940   8.664   4.173 -0.3575 -0.7905 -0.3524
  289MOL0     C38890   3.075   8.626   4.246 -1.0443 -0.1696 -0.0489
  289MOL0     C38891   3.177   8.744   4.238  0.1837  0.7211 -0.1025
  289MOL0     C38892   3.324   8.705   4.281  0.6081  0.0010 -0.3284
  289MOL0     C38893   3.343   8.733   4.439 -0.1423  0.9069 -0.9720
  289MOL0     C38894   3.480   8.678   4.479  0.2991  0.3213 -0.7031
  289MOL0     C38895   3.528   8.742   4.609 -0.6009 -0.5677  0.4929
  289MOL0     C38896   3.670   8.696   4.639  1.0928  0.2374  0.0920
  289MOL0     N38897   3.733   8.768   4.749 -0.0936  0.3196  0.0670
  289MOL0     C38898   3.847   8.848   4.734  0.4073 -0.9205 -0.7589
  289MOL0     C38899   3.912   8.844   4.857  0.7310 -0.1642  0.5042
  289MOL0     C38900   4.032   8.921   4.891 -0.5106  0.3860 -0.0214
  289MOL0     C38901   4.166   8.851   4.851  0.4062 -0.2821  0.8147
  289MOL0     C38902   4.200   8.739   4.942  0.4032  0.3874 -0.1036
  289MOL0     C38903   4.291   8.634   4.870 -0.0286 -0.9063 -0.2247
  289MOL0     O38904   4.408   8.703   4.809  0.1077  0.1519 -0.5050
  289MOL0     C38905   4.514   8.738   4.884  0.0680 -0.1599  0.3424
  289MOL0     C38906   4.623   8.787   4.814 -0.0191 -0.3643  0.3917
  289MOL0     C38907   4.750   8.816   4.874  0.9169 -0.0220 -0.8833
  289MOL0     C38908   4.762   8.798   5.016  0.4100  0.5228  0.2446
  289MOL0     C38909   4.895   8.814   5.086  0.5575  0.1253 -0.1412
  289MOL0     O38910   4.994   8.845   4.993  0.3130 -0.0459  0.3597
  289MOL0     C38911   5.113   8.886   5.050  0.8609 -0.9361 -0.2898
  289MOL0     C38912   5.193   8.807   5.133  0.1731  0.5417  0.9017
  289MOL0     C38913   5.302   8.853   5.194  0.3066 -0.7335 -0.6599
  289MOL0     C38914   5.347   8.978   5.153  0.7341 -0.4269  0.3631
  289MOL0     O38915   5.458   9.030   5.213 -0.5338  0.3049  0.0625
  289MOL0     C38916   5.572   9.036   5.120 -0.1955 -0.0825 -0.2761
  289MOL0     C38917   5.623   9.175   5.118  0.1190 -0.1336 -0.0658
  289MOL0     C38918   5.675   9.226   5.254 -0.7291 -0.1448  0.9069
  289MOL0     C38919   5.751   9.367   5.238  0.4147  0.4764 -0.3529
  289MOL0     C38920   5.843   9.387   5.366 -0.6430 -1.1800  0.3991
  289MOL0     C38921   5.892   9.535   5.380  0.4100  0.3313  0.2191
  289MOL0     C38922   6.008   9.562   5.481 -0.3270  0.1165  0.6680
  289MOL0     C38923   6.095   9.685   5.444 -0.3364  0.6177  0.0518
  289MOL0    Cl38924   6.209   9.743   5.567  0.1826  0.0455 -0.4684
  289MOL0     C38925   5.278   9.058   5.068  0.2872 -0.3106  0.2335
  289MOL0     C38926   5.153   9.016   5.014  0.9183  0.1843 -0.3549
  289MOL0     O38927   4.905   8.812   5.209 -0.1068 -0.0242  0.1350
  289MOL0     C38928   4.649   8.754   5.088 -0.8166  0.2003  0.3002
  289MOL0     C38929   4.526   8.723   5.023  0.8521 -0.8342  0.7407
  289MOL0     N38930   3.834   8.758   4.933  0.4963  0.0528 -0.3574
  289MOL0     N38931   3.730   8.712   4.871 -0.5153  0.1334 -1.3840
  289MOL0     C38932   2.729   8.725   3.982 -0.4313  0.2001  0.0976
  289MOL0     C38933   2.631   8.768   3.892  0.9265  0.0989  0.0981
  289MOL0     C38934   2.397   8.837   3.525  0.4955  0.1594 -0.0311
  289MOL0     C38935   2.437   8.932   3.432  0.2037  1.1994 -0.1154
  289MOL0     C38936   2.346   8.987   3.336 -0.1174  0.0396  0.2955
  289MOL0     C38937   2.215   8.939   3.320 -0.3308 -0.8212  0.0640
  289MOL0     O38938   2.132   8.979   3.226 -0.1344 -0.3797 -0.1610
  289MOL0     C38939   2.098   8.881   3.129 -0.8439  0.3265 -0.0610
  289MOL0     C38940   2.113   8.940   2.986 -0.3879 -0.9332 -1.0429
  289MOL0     C38941   2.249   9.006   2.973  0.0788 -0.3527  0.0189
  289MOL0     C38942   2.265   9.060   2.840  0.4347 -0.0398  0.0184
  289MOL0     C38943   2.408   9.082   2.793  0.1152  0.4524  0.1359
  289MOL0     C38944   2.516   9.104   2.731  0.3571  0.5860  0.7864
  289MOL0     C38945   2.167   8.856   3.415  0.4643 -0.7404 -0.2105
  289MOL0     C38946   2.251   8.798   3.517 -1.2855 -0.7764 -0.4033
  289MOL0     C38947   2.188   8.690   3.595  0.6618  0.7931 -0.4427
  289MOL0     H38948   2.837   8.865   3.638 -0.8716  2.8926 -0.1250
  289MOL0     H38949   3.010   8.784   3.776 -0.5876 -1.2944 -3.2280
  289MOL0     H38950   2.895   8.759   4.205 -0.2917 -1.2357  1.1457
  289MOL0     H38951   2.863   8.587   4.181 -0.4387 -0.9236 -2.0950
  289MOL0     H38952   3.114   8.533   4.205 -0.6221 -0.0092 -0.0183
  289MOL0     H38953   3.040   8.610   4.348 -0.6192  0.9215  0.2832
  289MOL0     H38954   3.137   8.832   4.289 -0.6752  0.4050 -0.2209
  289MOL0     H38955   3.187   8.768   4.131  2.9407 -2.4449 -0.7640
  289MOL0     H38956   3.337   8.599   4.262 -2.6656 -0.4042 -0.9134
  289MOL0     H38957   3.386   8.766   4.215 -0.2780 -0.9604 -2.1159
  289MOL0     H38958   3.331   8.836   4.475 -0.7143  0.1577  1.1698
  289MOL0     H38959   3.271   8.677   4.500 -0.5064  3.9497  1.6751
  289MOL0     H38960   3.475   8.569   4.482 -0.7474  0.3180 -1.8518
  289MOL0     H38961   3.547   8.714   4.400 -0.3682  0.6669 -1.1241
  289MOL0     H38962   3.472   8.703   4.695 -1.3670 -1.4481 -0.3718
  289MOL0     H38963   3.531   8.851   4.608  0.5303 -0.5925 -0.6122
  289MOL0     H38964   3.673   8.588   4.658 -0.4662 -0.5132 -3.2866
  289MOL0     H38965   3.727   8.708   4.546  1.6505  1.0352  0.5210
  289MOL0     H38966   3.885   8.887   4.640 -2.6223 -0.7646 -2.0223
  289MOL0     H38967   4.038   9.024   4.856 -1.7708 -0.0397 -1.6046
  289MOL0     H38968   4.036   8.927   5.001  3.1162  0.3309 -0.0361
  289MOL0     H38969   4.159   8.821   4.746  3.8796 -1.0701  0.6842
  289MOL0     H38970   4.257   8.912   4.855 -0.4613  1.1577 -0.2948
  289MOL0     H38971   4.109   8.689   4.977 -0.2856  2.1607  0.7727
  289MOL0     H38972   4.253   8.782   5.028  1.4243 -0.4435 -0.3033
  289MOL0     H38973   4.236   8.576   4.795  2.5625 -0.5227 -2.5619
  289MOL0     H38974   4.332   8.564   4.944  0.7566  0.5757  0.7887
  289MOL0     H38975   4.615   8.793   4.706  2.3332  0.5118  0.2039
  289MOL0     H38976   4.840   8.852   4.825  2.7125 -1.1255  1.3732
  289MOL0     H38977   5.153   8.710   5.160 -3.7501  0.7011 -3.1478
  289MOL0     H38978   5.366   8.792   5.258  1.5853  0.2866 -0.9346
  289MOL0     H38979   5.653   8.974   5.158  0.5039 -0.8243 -2.7683
  289MOL0     H38980   5.551   8.997   5.020 -2.6291 -0.3105  0.2719
  289MOL0     H38981   5.711   9.166   5.054 -1.1278 -0.8722 -1.7671
  289MOL0     H38982   5.543   9.236   5.074  3.4567  2.3506 -3.3946
  289MOL0     H38983   5.598   9.244   5.330 -1.6828  0.5563 -0.1878
  289MOL0     H38984   5.752   9.154   5.282  2.1774  2.4540  0.2540
  289MOL0     H38985   5.678   9.447   5.220  0.9447  0.6681 -1.7561
  289MOL0     H38986   5.818   9.368   5.152  1.7723  1.6834  0.6577
  289MOL0     H38987   5.932   9.325   5.357  0.1933 -0.0263  0.3865
  289MOL0     H38988   5.794   9.362   5.461  1.5360  1.6405  2.4857
  289MOL0     H38989   5.943   9.558   5.285  1.9981 -1.1325  0.6610
  289MOL0     H38990   5.808   9.604   5.392  0.2360  0.1797 -0.1295
  289MOL0     H38991   6.075   9.477   5.494  1.1976  0.8033 -1.8388
  289MOL0     H38992   5.947   9.586   5.568 -3.4719 -0.4383 -1.2180
  289MOL0     H38993   6.150   9.649   5.356 -0.1033  0.1350  0.3909
  289MOL0     H38994   6.030   9.771   5.425 -0.6446  0.7166  1.4434
  289MOL0     H38995   5.324   9.152   5.037 -0.3340 -0.7444 -2.1713
  289MOL0     H38996   5.094   9.077   4.947  0.6705 -1.2961 -1.5657
  289MOL0     H38997   4.663   8.740   5.195  3.5523  0.7764 -0.0213
  289MOL0     H38998   4.451   8.679   5.089 -0.7084  1.4643  0.6171
  289MOL0     H38999   2.690   8.695   4.079 -2.4846  1.3324 -0.3151
  289MOL0     H39000   2.526   8.768   3.920  1.2900 -0.6695  1.5582
  289MOL0     H39001   2.542   8.952   3.414  1.0152 -0.2096  2.5878
  289MOL0     H39002   2.363   9.074   3.273 -4.4112  1.7961  1.1879
  289MOL0     H39003   1.998   8.849   3.156  0.4725 -3.5889  0.7636
  289MOL0     H39004   2.149   8.785   3.120 -0.3601  0.4642  1.0460
  289MOL0     H39005   2.032   9.013   2.973  1.0302  1.2380  1.2510
  289MOL0     H39006   2.109   8.859   2.913  1.7946 -0.9990 -1.1576
  289MOL0     H39007   2.322   8.926   2.990  2.4511  2.0412  1.7415
  289MOL0     H39008   2.271   9.082   3.048  3.4770 -0.0825 -1.1152
  289MOL0     H39009   2.223   9.009   2.754 -0.0519  1.2012 -0.5123
  289MOL0     H39010   2.220   9.160   2.837 -0.8281 -0.4854  1.8626
  289MOL0     H39011   2.601   9.125   2.669  2.0793 -1.4404  2.3175
  289MOL0     H39012   2.069   8.811   3.403 -0.5304  1.0226  0.8016
  289MOL0     H39013   2.158   8.731   3.692 -1.3893 -0.7853 -0.3541
  289MOL0     H39014   2.096   8.653   3.549 -0.3727  1.9421  0.6024
  289MOL0     H39015   2.263   8.612   3.613  3.0137  3.4601  2.5785
  290MOL0     O39016  10.679   4.218   8.620 -0.8301 -0.1910  0.4041
  290MOL0     C39017  10.578   4.250   8.680 -0.4659  0.4666 -0.6645
  290MOL0     O39018  10.574   4.329   8.788  0.0896  0.0435 -0.3196
  290MOL0     C39019  10.681   4.401   8.822 -0.0240  0.5181 -0.1362
  290MOL0     C39020  10.728   4.393   8.955 -0.0109 -0.3808  0.2223
  290MOL0     C39021  10.834   4.469   9.001 -0.2911  0.3769  0.3071
  290MOL0     C39022  10.912   4.538   8.904  0.0604  0.4339  0.5057
  290MOL0     O39023  11.020   4.607   8.949 -0.7294  0.2212 -0.0708
  290MOL0     C39024  11.099   4.675   8.855 -0.0851 -0.9172 -0.2353
  290MOL0     C39025  11.211   4.744   8.936  0.3526 -0.4876  0.1620
  290MOL0     C39026  11.326   4.643   8.941  0.0524 -1.0989 -0.3179
  290MOL0     C39027  11.438   4.713   9.023 -0.0930  0.9333  0.1419
  290MOL0     C39028  11.563   4.623   9.002 -0.6274 -0.3094 -0.1881
  290MOL0     C39029  11.679   4.691   9.087  0.3153  0.1066 -0.2290
  290MOL0     C39030  11.791   4.597   9.106 -0.8058  0.6884 -0.8561
  290MOL0     C39031  11.918   4.675   9.147  0.4636 -0.4209  0.7261
  290MOL0     N39032  12.031   4.587   9.157 -0.3825  0.7299 -0.0542
  290MOL0     C39033  12.062   4.503   9.262  0.2217 -0.6011 -0.8058
  290MOL0     C39034  12.189   4.455   9.234 -0.0045  0.2576 -0.9333
  290MOL0     C39035  12.261   4.374   9.336 -0.2178 -0.3903  0.3005
  290MOL0     C39036  12.305   4.464   9.449 -0.0888 -0.2831  0.0430
  290MOL0     C39037  12.438   4.543   9.434  0.4263 -0.3959  0.4163
  290MOL0     C39038  12.568   4.469   9.408  0.7506  0.9573  0.5556
  290MOL0     O39039  12.685   4.543   9.425 -1.0186 -0.5945  0.4639
  290MOL0     C39040  12.801   4.483   9.389  0.8749  0.4680  1.2848
  290MOL0     C39041  12.887   4.444   9.485 -0.7705 -0.3326 -0.2095
  290MOL0     C39042  13.007   4.375   9.453  0.7518  0.4637  0.3728
  290MOL0     C39043  13.029   4.334   9.318  0.1536 -0.0434  0.3526
  290MOL0     C39044  13.148   4.259   9.279  0.6839 -0.5378  0.7718
  290MOL0     O39045  13.147   4.209   9.143  0.1077 -0.3804 -0.5995
  290MOL0     C39046  13.275   4.166   9.108 -0.1978  0.4084 -0.1779
  290MOL0     C39047  13.365   4.251   9.044  0.5132 -0.1246 -0.3554
  290MOL0     C39048  13.489   4.203   9.003 -0.7836 -0.1410  0.2882
  290MOL0     C39049  13.527   4.068   9.034  0.8510 -0.0593  0.2512
  290MOL0     O39050  13.653   4.038   8.998  0.1292 -0.5748  0.0607
  290MOL0     C39051  13.712   3.918   9.041 -1.0353  2.0326 -0.4512
  290MOL0     C39052  13.773   3.923   9.183  0.6808 -0.3522  0.2634
  290MOL0     C39053  13.825   3.777   9.216 -0.4797 -0.9303  0.3290
  290MOL0     C39054  13.953   3.754   9.145 -0.1420 -0.5991 -0.4258
  290MOL0     C39055  14.010   3.616   9.169 -0.4276  0.1424  0.1237
  290MOL0     C39056  14.159   3.616   9.137 -0.0365 -0.5421  0.7055
  290MOL0     C39057  14.227   3.481   9.165 -0.3496  0.0985 -0.4785
  290MOL0     C39058  14.368   3.470   9.110 -0.3622  0.1374  0.8602
  290MOL0    Cl39059  14.364   3.496   8.924 -0.4091  0.0030  0.0769
  290MOL0     C39060  13.433   3.991   9.103  0.0120 -0.3623  0.1689
  290MOL0     C39061  13.308   4.037   9.143 -0.5891  0.1272 -0.2476
  290MOL0     O39062  13.237   4.248   9.361 -0.5535  0.5360  0.6635
  290MOL0     C39063  12.939   4.374   9.220  0.8886  0.4363  0.0801
  290MOL0     C39064  12.826   4.450   9.256  0.0563  0.2381 -0.1213
  290MOL0     N39065  12.223   4.498   9.114  1.0728 -0.7569  0.3581
  290MOL0     N39066  12.133   4.579   9.061 -0.1251 -0.9806 -0.2956
  290MOL0     C39067  10.867   4.550   8.771 -0.5204  0.4029 -0.1544
  290MOL0     C39068  10.755   4.480   8.731 -0.1462 -0.5768  0.1068
  290MOL0     C39069  10.447   4.205   8.628  0.4587  0.5161 -0.2506
  290MOL0     C39070  10.441   4.084   8.562 -0.5054 -0.3206  1.0234
  290MOL0     C39071  10.318   4.038   8.508 -0.0800  0.2525  0.1086
  290MOL0     C39072  10.197   4.099   8.531  0.3411  0.2593 -1.2152
  290MOL0     O39073  10.087   4.039   8.472  0.2625  0.2728  0.6744
  290MOL0     C39074   9.969   4.119   8.475  0.2780 -0.1648  0.0492
  290MOL0     C39075   9.852   4.044   8.407 -0.6355  0.2850  0.1191
  290MOL0     C39076   9.862   4.076   8.261 -0.2749 -0.2047 -0.5683
  290MOL0     C39077   9.848   3.961   8.169  0.1317  0.0883  0.0157
  290MOL0     C39078   9.962   3.868   8.184 -0.2127  1.6392 -0.2367
  290MOL0     C39079  10.058   3.792   8.203  0.2061 -0.4831 -0.2465
  290MOL0     C39080  10.203   4.218   8.607 -0.3658 -0.6126  0.3800
  290MOL0     C39081  10.325   4.276   8.652 -0.3031 -0.1222  0.3134
  290MOL0     C39082  10.324   4.416   8.722 -0.2181 -0.5858  0.0706
  290MOL0     H39083  10.681   4.330   9.030 -1.3895 -0.1459 -0.4168
  290MOL0     H39084  10.873   4.468   9.103  0.8878 -0.8205 -0.1299
  290MOL0     H39085  11.145   4.595   8.795 -0.3550 -1.2404 -0.0139
  290MOL0     H39086  11.049   4.755   8.800  1.4741  1.5349  1.7605
  290MOL0     H39087  11.194   4.764   9.042  1.2349  0.8121  0.0871
  290MOL0     H39088  11.252   4.835   8.890 -3.6033  0.7226 -1.3722
  290MOL0     H39089  11.368   4.643   8.840 -0.2994  3.2433 -0.6344
  290MOL0     H39090  11.302   4.538   8.960  0.3772 -1.5289 -2.1369
  290MOL0     H39091  11.457   4.817   8.997  1.3152  1.5608  3.2739
  290MOL0     H39092  11.400   4.710   9.126  0.8890  0.1548  0.4979
  290MOL0     H39093  11.542   4.528   9.052  1.1544  0.1072  1.4747
  290MOL0     H39094  11.606   4.629   8.902 -0.3557  3.9865 -0.0026
  290MOL0     H39095  11.704   4.787   9.040 -0.6658  0.2447 -0.4923
  290MOL0     H39096  11.645   4.718   9.187 -0.5960  1.2067 -0.8148
  290MOL0     H39097  11.813   4.545   9.012  0.8598  0.2639 -0.2576
  290MOL0     H39098  11.774   4.519   9.181 -1.7192  1.9390  0.2949
  290MOL0     H39099  11.940   4.755   9.075  1.1903 -1.2313  0.0283
  290MOL0     H39100  11.900   4.721   9.245 -1.8238  0.0772  0.1259
  290MOL0     H39101  12.009   4.498   9.357  3.2630  2.7689  1.3616
  290MOL0     H39102  12.197   4.295   9.377  1.0440  0.1250  3.6118
  290MOL0     H39103  12.348   4.333   9.285  0.2514 -0.8163  1.4211
  290MOL0     H39104  12.226   4.537   9.470 -1.2125 -1.4384  0.0125
  290MOL0     H39105  12.315   4.410   9.544 -2.0600  1.9093  1.6194
  290MOL0     H39106  12.454   4.595   9.529  1.7168  0.5611 -0.2911
  290MOL0     H39107  12.405   4.619   9.363 -1.4184 -2.6556 -1.3296
  290MOL0     H39108  12.558   4.443   9.302 -0.5814  4.3814 -0.2805
  290MOL0     H39109  12.574   4.381   9.472 -1.8074 -0.4197 -0.9521
  290MOL0     H39110  12.867   4.485   9.583 -1.7142  2.0674 -1.3558
  290MOL0     H39111  13.080   4.355   9.530  0.0741 -0.3559  0.8159
  290MOL0     H39112  13.343   4.354   9.018 -1.5789 -0.3297  0.3635
  290MOL0     H39113  13.559   4.259   8.942  1.2711 -0.3127  2.3325
  290MOL0     H39114  13.640   3.836   9.032 -0.5646  1.6227 -0.5344
  290MOL0     H39115  13.791   3.889   8.971 -1.0695  0.2736  0.1955
  290MOL0     H39116  13.855   3.995   9.182  0.3482  0.0405 -1.4172
  290MOL0     H39117  13.699   3.947   9.261  0.0600 -0.0360 -0.4119
  290MOL0     H39118  13.834   3.766   9.324 -0.5432 -2.1132  0.2343
  290MOL0     H39119  13.758   3.697   9.184 -1.4303  0.1114 -0.3554
  290MOL0     H39120  14.026   3.829   9.177  1.4695 -2.8770  1.5669
  290MOL0     H39121  13.935   3.772   9.038 -3.6260 -0.5674  0.0543
  290MOL0     H39122  13.962   3.546   9.100  2.8673  1.1044 -3.5178
  290MOL0     H39123  13.993   3.578   9.270 -0.6112 -0.5647 -0.1660
  290MOL0     H39124  14.171   3.640   9.031 -0.4116 -1.4572  0.4457
  290MOL0     H39125  14.215   3.699   9.181  0.9520 -1.3463  0.9900
  290MOL0     H39126  14.168   3.390   9.151 -0.2691 -0.1378  0.6322
  290MOL0     H39127  14.247   3.467   9.272  0.8785 -3.7254 -1.0532
  290MOL0     H39128  14.438   3.542   9.153  0.2568 -0.5503  1.0225
  290MOL0     H39129  14.412   3.373   9.134 -0.9551  0.3377  2.9014
  290MOL0     H39130  13.446   3.888   9.134 -3.1253 -0.4441  1.6416
  290MOL0     H39131  13.249   3.977   9.213  0.2721  0.2117  0.5732
  290MOL0     H39132  12.948   4.354   9.114  0.9770 -1.8940  0.4776
  290MOL0     H39133  12.761   4.488   9.177  1.7424  0.4043 -1.4766
  290MOL0     H39134  10.920   4.605   8.694 -1.1451  0.9818 -0.1762
  290MOL0     H39135  10.728   4.491   8.627 -0.3832 -1.2832  0.0914
  290MOL0     H39136  10.535   4.032   8.541 -1.3813 -0.8756 -2.0695
  290MOL0     H39137  10.333   3.948   8.449 -0.2797 -1.0982  2.0191
  290MOL0     H39138   9.978   4.220   8.433 -1.3835 -0.1297 -0.2905
  290MOL0     H39139   9.942   4.139   8.579  1.0793 -1.5871  0.5492
  290MOL0     H39140   9.766   4.092   8.454 -0.0150  2.6940 -1.0694
  290MOL0     H39141   9.852   3.937   8.431 -1.3173 -0.2661 -2.0931
  290MOL0     H39142   9.960   4.116   8.233 -0.0728 -1.1002 -1.2003
  290MOL0     H39143   9.794   4.158   8.236  2.4427  2.2288 -0.5265
  290MOL0     H39144   9.750   3.918   8.192  0.9816 -2.0945 -0.2260
  290MOL0     H39145   9.848   3.999   8.067  2.6818 -1.5080 -0.6626
  290MOL0     H39146  10.129   3.724   8.244 -0.0976 -2.1544 -2.3023
  290MOL0     H39147  10.109   4.262   8.640 -0.0614 -1.4507  2.5000
  290MOL0     H39148  10.404   4.486   8.698 -1.9282  2.0286  1.6018
  290MOL0     H39149  10.236   4.479   8.708  1.2280  0.9016 -3.4711
  290MOL0     H39150  10.321   4.392   8.829 -0.1358 -0.1291  0.1743
  291MOL0     O39151   3.524   6.334   6.374  0.2631  0.7094  0.6249
  291MOL0     C39152   3.447   6.422   6.345 -0.4674 -0.7379  1.4935
  291MOL0     O39153   3.488   6.553   6.313 -0.4966 -0.5050  0.4559
  291MOL0     C39154   3.620   6.598   6.330  0.1806 -0.9901  0.1024
  291MOL0     C39155   3.636   6.734   6.289  0.2063 -0.2322 -1.5129
  291MOL0     C39156   3.764   6.793   6.292  1.0376  0.5863 -0.1483
  291MOL0     C39157   3.876   6.733   6.343 -0.1563  0.2742  0.0297
  291MOL0     O39158   3.999   6.800   6.360  0.3184  0.0700  0.3297
  291MOL0     C39159   4.092   6.787   6.263 -0.1506  0.2145 -0.3454
  291MOL0     C39160   4.048   6.810   6.119  0.2212 -0.1003  0.2672
  291MOL0     C39161   4.169   6.791   6.030  0.2619  0.9520  0.6900
  291MOL0     C39162   4.117   6.770   5.888 -0.1867 -0.4326  0.3440
  291MOL0     C39163   4.237   6.751   5.790  0.3975 -0.4708  0.0740
  291MOL0     C39164   4.312   6.882   5.767 -0.4241 -0.9165  0.0476
  291MOL0     C39165   4.441   6.872   5.684  0.0255  0.2525  0.0965
  291MOL0     C39166   4.423   6.821   5.536  0.4441 -0.4697 -0.1201
  291MOL0     N39167   4.546   6.811   5.452  0.0575  0.4698 -0.7097
  291MOL0     C39168   4.541   6.762   5.325 -0.5000  0.1154  0.2524
  291MOL0     C39169   4.670   6.754   5.290  0.3108  0.1017  0.3177
  291MOL0     C39170   4.727   6.678   5.162 -0.7307 -0.2594 -1.2148
  291MOL0     C39171   4.779   6.772   5.052  0.5754 -0.0221  0.1859
  291MOL0     C39172   4.861   6.697   4.948  0.9486  0.5851  0.5048
  291MOL0     C39173   5.009   6.698   4.974 -0.2380 -0.0045  0.5021
  291MOL0     O39174   5.058   6.704   5.108 -0.2876  0.4461  0.0040
  291MOL0     C39175   5.195   6.692   5.126 -0.3155 -1.2055  0.6951
  291MOL0     C39176   5.242   6.675   5.258 -0.1665 -0.6060  0.5592
  291MOL0     C39177   5.382   6.670   5.277  0.2976 -0.2350 -0.2734
  291MOL0     C39178   5.471   6.688   5.170 -0.4322  0.5966 -0.4005
  291MOL0     C39179   5.624   6.677   5.186  1.2149 -0.3770  0.6518
  291MOL0     O39180   5.709   6.706   5.078  0.0677 -0.7508  0.1525
  291MOL0     C39181   5.840   6.691   5.106 -1.1643  0.5873  0.7113
  291MOL0     C39182   5.915   6.804   5.089 -0.0346 -0.0923  0.8900
  291MOL0     C39183   6.054   6.811   5.107  0.3825  0.2376  0.1043
  291MOL0     C39184   6.121   6.691   5.149  0.0748 -0.2830  0.5034
  291MOL0     O39185   6.263   6.685   5.164 -0.5409  0.4526  0.6931
  291MOL0     C39186   6.330   6.812   5.185 -0.2579  0.2869 -0.7619
  291MOL0     C39187   6.469   6.776   5.244  0.0045 -0.5476 -0.0340
  291MOL0     C39188   6.565   6.710   5.141  0.3905  0.6345 -0.2364
  291MOL0     C39189   6.702   6.681   5.200  0.2420  0.1834  1.2083
  291MOL0     C39190   6.797   6.787   5.257  1.2043  0.1222  0.0777
  291MOL0     C39191   6.929   6.731   5.301  0.0367  0.2523 -0.2111
  291MOL0     C39192   7.025   6.841   5.345  0.2798  0.6085  0.0614
  291MOL0     C39193   7.161   6.774   5.357  0.5883  0.0963 -0.2735
  291MOL0    Cl39194   7.268   6.892   5.430  0.1243  0.2418 -0.7045
  291MOL0     C39195   6.047   6.577   5.164  0.4882  0.2675 -0.2396
  291MOL0     C39196   5.907   6.569   5.142 -0.4855  0.3725  0.2550
  291MOL0     O39197   5.667   6.657   5.300 -0.4316  0.5588  0.4938
  291MOL0     C39198   5.419   6.722   5.047  0.7760  0.7141 -0.3057
  291MOL0     C39199   5.287   6.714   5.016 -0.5954  0.1765 -0.4351
  291MOL0     N39200   4.746   6.797   5.401  0.1899  0.0372 -0.2498
  291MOL0     N39201   4.673   6.840   5.497 -0.4332 -1.2807  0.6561
  291MOL0     C39202   3.855   6.608   6.401 -0.1363  0.0555  0.6941
  291MOL0     C39203   3.735   6.536   6.387  0.7312 -0.3124 -0.1831
  291MOL0     C39204   3.310   6.388   6.333 -0.1790  0.6163 -0.5860
  291MOL0     C39205   3.282   6.253   6.284  0.3079 -0.2623 -0.0810
  291MOL0     C39206   3.146   6.213   6.253  0.0742 -0.5929  0.3026
  291MOL0     C39207   3.037   6.297   6.259 -0.4769 -0.3278 -0.4405
  291MOL0     O39208   2.917   6.250   6.234  0.2175  0.0473  0.0041
  291MOL0     C39209   2.807   6.342   6.237 -0.0751  0.0781 -0.0566
  291MOL0     C39210   2.680   6.281   6.181  0.3811 -0.4617 -0.3237
  291MOL0     C39211   2.621   6.169   6.269 -0.7208 -0.8673 -0.0768
  291MOL0     C39212   2.495   6.118   6.208 -0.1520 -0.4681  0.0633
  291MOL0     C39213   2.427   6.033   6.304 -0.2107  0.0540 -0.2236
  291MOL0     C39214   2.371   5.977   6.399 -0.4414  0.2848  0.0676
  291MOL0     C39215   3.067   6.424   6.311 -0.4171  0.5997 -0.0961
  291MOL0     C39216   3.195   6.469   6.354 -1.2211  0.2388  0.3400
  291MOL0     C39217   3.209   6.601   6.416  0.0312 -0.5439  0.0038
  291MOL0     H39218   3.549   6.788   6.255  1.1887  1.8719 -0.8436
  291MOL0     H39219   3.765   6.898   6.265 -0.1188  0.0084 -2.6516
  291MOL0     H39220   4.179   6.845   6.295  1.1231 -2.2001  0.8403
  291MOL0     H39221   4.122   6.683   6.278 -1.9553 -0.2367  0.3823
  291MOL0     H39222   4.005   6.909   6.103 -0.1170 -0.2755  0.1016
  291MOL0     H39223   3.968   6.739   6.095  0.6898 -0.3451 -0.6027
  291MOL0     H39224   4.224   6.702   6.061  0.7758  1.2729  0.7183
  291MOL0     H39225   4.235   6.879   6.033 -0.7478  1.9578 -2.3171
  291MOL0     H39226   4.066   6.674   5.880  0.1311 -0.4477 -4.5906
  291MOL0     H39227   4.044   6.846   5.859 -0.8106 -1.1125  0.1037
  291MOL0     H39228   4.295   6.664   5.822 -0.2174 -0.4324  1.3634
  291MOL0     H39229   4.195   6.727   5.692 -3.7219 -0.1765  1.5830
  291MOL0     H39230   4.251   6.961   5.722  0.8843  1.3368  1.9831
  291MOL0     H39231   4.343   6.925   5.863 -1.9604  0.9789 -0.2398
  291MOL0     H39232   4.515   6.807   5.731  0.8263 -0.1877 -1.6999
  291MOL0     H39233   4.486   6.970   5.667  1.0697 -0.5900 -2.5678
  291MOL0     H39234   4.383   6.720   5.546  0.5732 -0.4132  1.2228
  291MOL0     H39235   4.353   6.883   5.480 -0.9603  0.2386  2.2848
  291MOL0     H39236   4.452   6.725   5.275 -0.7634  1.4929 -0.3620
  291MOL0     H39237   4.808   6.607   5.180  1.0941  2.0674  0.3004
  291MOL0     H39238   4.640   6.624   5.124 -0.3148  0.3800 -3.1927
  291MOL0     H39239   4.696   6.826   5.006 -0.1553 -2.4863 -1.6307
  291MOL0     H39240   4.843   6.853   5.088  2.5648 -0.2039 -2.5868
  291MOL0     H39241   4.839   6.743   4.851 -0.1426  1.9108  1.3362
  291MOL0     H39242   4.825   6.594   4.937 -0.6514  1.0104  1.3326
  291MOL0     H39243   5.048   6.785   4.921  1.7823 -2.8507 -3.2698
  291MOL0     H39244   5.063   6.614   4.929  0.8100  0.8578  0.1020
  291MOL0     H39245   5.168   6.665   5.337  0.4070 -0.1437  1.1709
  291MOL0     H39246   5.422   6.639   5.373 -1.3863 -0.8201  0.2567
  291MOL0     H39247   5.868   6.894   5.050  2.5844  0.9187 -0.1201
  291MOL0     H39248   6.104   6.907   5.096 -0.3756  0.6741  0.4074
  291MOL0     H39249   6.326   6.877   5.096 -0.9619  1.1683 -0.1065
  291MOL0     H39250   6.279   6.871   5.262  2.3432  2.5957 -0.6472
  291MOL0     H39251   6.523   6.860   5.289  1.8312 -1.4604 -0.4123
  291MOL0     H39252   6.459   6.720   5.337  3.3642  1.0510  1.4439
  291MOL0     H39253   6.513   6.621   5.106 -1.4126  0.5350  2.4237
  291MOL0     H39254   6.572   6.784   5.061  1.1202  1.2954  0.4188
  291MOL0     H39255   6.753   6.642   5.111 -0.4410 -0.1743  0.9721
  291MOL0     H39256   6.688   6.603   5.276  2.2715 -0.4682  0.9859
  291MOL0     H39257   6.739   6.838   5.334  0.8561  0.3116 -0.3051
  291MOL0     H39258   6.810   6.865   5.181 -0.3034  1.7521  1.4098
  291MOL0     H39259   6.913   6.643   5.365  0.8372 -2.0072 -2.8950
  291MOL0     H39260   6.972   6.682   5.212 -1.0741 -1.0407 -0.0804
  291MOL0     H39261   6.996   6.875   5.445  0.7508  0.5016  0.2361
  291MOL0     H39262   7.018   6.918   5.268  0.2997 -1.1549 -1.7637
  291MOL0     H39263   7.150   6.695   5.432 -2.3487 -1.8732 -2.5630
  291MOL0     H39264   7.191   6.722   5.265 -0.8465 -0.2601 -0.5628
  291MOL0     H39265   6.104   6.491   5.199 -0.0708  0.2493  0.6666
  291MOL0     H39266   5.845   6.480   5.150 -2.5683  1.6773 -0.2905
  291MOL0     H39267   5.488   6.734   4.964  3.6410  1.1312  1.9766
  291MOL0     H39268   5.266   6.725   4.910 -0.9179  2.0715 -0.2061
  291MOL0     H39269   3.942   6.553   6.435  1.2952 -0.9041 -3.8036
  291MOL0     H39270   3.737   6.433   6.421  1.1064 -1.2888 -2.9079
  291MOL0     H39271   3.357   6.176   6.272  0.1197 -0.5898  0.7488
  291MOL0     H39272   3.127   6.107   6.235  1.2777 -0.3730 -3.0006
  291MOL0     H39273   2.830   6.428   6.174 -1.7069  1.2378  0.8519
  291MOL0     H39274   2.792   6.377   6.340 -0.5979  2.7778 -0.9881
  291MOL0     H39275   2.696   6.231   6.085 -5.1380 -3.3296 -0.1683
  291MOL0     H39276   2.602   6.357   6.166  1.5435  0.8534  0.0034
  291MOL0     H39277   2.602   6.198   6.373  1.1390 -0.5196  0.2044
  291MOL0     H39278   2.686   6.081   6.274 -0.7577 -0.8810  0.1776
  291MOL0     H39279   2.428   6.196   6.172 -0.4273  0.4254  2.3374
  291MOL0     H39280   2.517   6.058   6.118 -0.4973 -2.9778  1.5449
  291MOL0     H39281   2.325   5.932   6.484 -1.7566  0.5831 -0.4706
  291MOL0     H39282   2.984   6.488   6.337  0.6851  2.0961 -0.1021
  291MOL0     H39283   3.271   6.595   6.506  2.1054  1.0597 -1.2503
  291MOL0     H39284   3.258   6.675   6.352 -1.0253  0.2948  0.1414
  291MOL0     H39285   3.110   6.639   6.441 -0.6150 -2.4413  0.5379
  292MOL0     O39286   6.937   0.225   8.771  0.1452 -0.5510  0.3081
  292MOL0     C39287   6.833   0.196   8.729  0.0210  0.7683 -0.7549
  292MOL0     O39288   6.766   0.273   8.646  0.6083 -0.1724  0.1085
  292MOL0     C39289   6.806   0.398   8.606  0.2011  0.3558  0.3662
  292MOL0     C39290   6.726   0.505   8.622  0.4282  0.3170 -0.7705
  292MOL0     C39291   6.770   0.635   8.586 -0.5236 -0.4493 -0.2179
  292MOL0     C39292   6.898   0.650   8.532  0.1282  0.2195  0.3031
  292MOL0     O39293   6.939   0.776   8.479  0.4090  0.0118 -0.0000
  292MOL0     C39294   6.955   0.779   8.339 -0.3022  0.3392  0.3076
  292MOL0     C39295   7.009   0.913   8.299 -0.0777  0.2358 -0.4542
  292MOL0     C39296   7.151   0.931   8.347 -1.0982 -0.4679 -0.5642
  292MOL0     C39297   7.188   1.079   8.362 -0.7287 -0.4993  0.3353
  292MOL0     C39298   7.332   1.119   8.411  0.0568  0.0984  0.0183
  292MOL0     C39299   7.436   1.091   8.310 -0.2659  0.1894  0.7533
  292MOL0     C39300   7.566   1.167   8.335 -0.6824 -0.9054  0.4740
  292MOL0     C39301   7.696   1.081   8.330  0.0992 -0.3241  0.3849
  292MOL0     N39302   7.736   1.018   8.201  0.0257  0.2607  0.4507
  292MOL0     C39303   7.838   1.050   8.124 -0.1364  0.0170 -0.4276
  292MOL0     C39304   7.835   0.961   8.022 -0.0150  0.3031  0.4657
  292MOL0     C39305   7.906   0.963   7.889 -0.0167 -0.2244 -0.0092
  292MOL0     C39306   8.056   0.989   7.914 -0.0966 -0.5430 -0.0467
  292MOL0     C39307   8.145   0.862   7.941  0.3746  0.2552  0.3659
  292MOL0     C39308   8.292   0.881   7.959  0.3169 -0.4624  0.4626
  292MOL0     O39309   8.335   0.939   7.840 -0.4797 -0.2111 -0.1736
  292MOL0     C39310   8.473   0.949   7.829  0.1563  0.3336  0.0225
  292MOL0     C39311   8.569   0.931   7.934  0.4284  0.8352  0.7621
  292MOL0     C39312   8.703   0.948   7.910  0.6962 -0.9800  0.1807
  292MOL0     C39313   8.742   0.990   7.778 -0.2107 -0.1123  0.1583
  292MOL0     C39314   8.892   1.002   7.752  0.2953  0.6118 -0.8631
  292MOL0     O39315   8.922   1.028   7.630 -0.4995 -0.1851 -0.2856
  292MOL0     C39316   9.051   1.060   7.588 -0.3996  0.6870 -0.1644
  292MOL0     C39317   9.057   1.151   7.479 -0.1685 -0.0704  0.2956
  292MOL0     C39318   9.179   1.173   7.410  0.1529  0.2467  0.4641
  292MOL0     C39319   9.296   1.109   7.455  0.6667  1.1293 -0.5762
  292MOL0     O39320   9.423   1.122   7.394  0.2872 -0.3577 -0.6574
  292MOL0     C39321   9.464   1.247   7.336  0.3601  0.2453 -0.0272
  292MOL0     C39322   9.613   1.275   7.369  0.4336  0.4431  0.5656
  292MOL0     C39323   9.679   1.378   7.275  0.1740 -0.4082 -0.4866
  292MOL0     C39324   9.827   1.367   7.284  0.3201  0.3737 -0.1204
  292MOL0     C39325   9.909   1.460   7.200  0.0782 -0.2241 -0.4465
  292MOL0     C39326  10.049   1.416   7.205  0.4177  0.3250 -0.4045
  292MOL0     C39327  10.122   1.524   7.126 -0.7509  0.1921  0.2056
  292MOL0     C39328  10.272   1.515   7.150  0.6928 -0.3194  1.0414
  292MOL0    Cl39329  10.360   1.620   7.038  0.5686 -0.5001  0.0403
  292MOL0     C39330   9.288   1.020   7.562 -0.1233 -0.5292 -0.8176
  292MOL0     C39331   9.171   0.999   7.630  0.4694 -0.2380  0.0157
  292MOL0     O39332   8.967   1.004   7.850 -0.2069  0.4070 -1.0270
  292MOL0     C39333   8.649   1.010   7.676 -0.7551 -0.5603  0.3161
  292MOL0     C39334   8.516   0.994   7.700 -0.1168  0.7218 -0.5415
  292MOL0     N39335   7.717   0.885   8.040 -0.3114 -0.2226  0.7512
  292MOL0     N39336   7.658   0.917   8.140  0.7357  0.3740  0.3096
  292MOL0     C39337   6.986   0.534   8.520 -0.5093  0.3034 -0.0952
  292MOL0     C39338   6.932   0.406   8.545 -0.4533 -0.3648 -0.0925
  292MOL0     C39339   6.787   0.052   8.738 -0.1607  0.4977 -0.5654
  292MOL0     C39340   6.694   0.003   8.640  0.6557  0.3403  0.3033
  292MOL0     C39341   6.643  -0.129   8.641  0.4723 -0.0716 -0.5475
  292MOL0     C39342   6.679  -0.216   8.748 -0.4506 -0.2057 -0.3306
  292MOL0     O39343   6.631  -0.340   8.751 -0.1372 -0.0584  1.0274
  292MOL0     C39344   6.639  -0.421   8.869  0.6148  1.2836  0.3842
  292MOL0     C39345   6.560  -0.552   8.849 -0.1283 -0.0416 -0.8065
  292MOL0     C39346   6.634  -0.649   8.750 -0.7646 -0.0544  0.0411
  292MOL0     C39347   6.710  -0.753   8.836  1.0451  0.7902 -0.0470
  292MOL0     C39348   6.630  -0.877   8.836 -0.4291  0.8242 -0.6664
  292MOL0     C39349   6.570  -0.976   8.829 -0.3641  0.8354  0.0343
  292MOL0     C39350   6.762  -0.166   8.851  0.2247 -0.1111  1.0781
  292MOL0     C39351   6.810  -0.037   8.849  0.2748 -0.3738  0.0737
  292MOL0     C39352   6.909   0.002   8.961  0.2444  0.3542  0.2258
  292MOL0     H39353   6.623   0.490   8.653  0.1164  0.3554 -1.7638
  292MOL0     H39354   6.699   0.716   8.600 -2.4902 -1.9993 -0.7688
  292MOL0     H39355   7.009   0.694   8.298 -1.4387 -0.4795  0.4450
  292MOL0     H39356   6.852   0.773   8.301 -0.9250 -1.6576  2.1081
  292MOL0     H39357   6.940   0.983   8.347 -1.8549 -0.0928 -2.4165
  292MOL0     H39358   7.008   0.916   8.190  2.7281 -0.9181 -0.6061
  292MOL0     H39359   7.211   0.882   8.269  1.4175 -2.4930  2.4243
  292MOL0     H39360   7.176   0.879   8.440 -2.1676  2.2644  1.3606
  292MOL0     H39361   7.184   1.143   8.273  2.9529  3.4359  2.6211
  292MOL0     H39362   7.112   1.116   8.431 -1.1422 -2.0959  0.7708
  292MOL0     H39363   7.328   1.224   8.438  1.1628 -0.3646  2.1641
  292MOL0     H39364   7.364   1.066   8.501 -1.1871 -1.6128 -0.4793
  292MOL0     H39365   7.443   0.982   8.315 -3.8585 -0.1403  0.8140
  292MOL0     H39366   7.399   1.120   8.212  0.3372 -0.6765  0.2582
  292MOL0     H39367   7.572   1.208   8.436  2.8446 -0.3206  0.1624
  292MOL0     H39368   7.577   1.247   8.261  0.2692 -0.9667  0.5354
  292MOL0     H39369   7.778   1.141   8.371  0.4569  0.4361 -1.3676
  292MOL0     H39370   7.681   1.001   8.404 -1.1687 -0.8095 -0.3602
  292MOL0     H39371   7.921   1.116   8.149 -0.0221 -0.6630  1.1211
  292MOL0     H39372   7.890   0.865   7.844 -1.6192 -1.1736  2.4318
  292MOL0     H39373   7.873   1.049   7.829  2.4454 -0.0447 -1.1946
  292MOL0     H39374   8.100   1.023   7.820  0.2064 -0.9048 -0.0396
  292MOL0     H39375   8.067   1.076   7.980 -1.1284  0.8629 -1.6583
  292MOL0     H39376   8.127   0.787   7.863  3.6776 -0.8929  0.5338
  292MOL0     H39377   8.113   0.815   8.035  0.7117 -1.5851 -0.3897
  292MOL0     H39378   8.333   0.780   7.960 -0.2655 -0.7357 -0.9269
  292MOL0     H39379   8.316   0.937   8.050  0.6309 -2.0155  1.3778
  292MOL0     H39380   8.548   0.904   8.037  0.7566 -1.0981  0.3498
  292MOL0     H39381   8.775   0.928   7.989  3.5803 -0.4991 -2.1468
  292MOL0     H39382   8.966   1.195   7.441  1.3050 -0.1016 -3.8565
  292MOL0     H39383   9.178   1.232   7.319  2.1616 -0.2148  0.0867
  292MOL0     H39384   9.436   1.233   7.232 -0.0825 -2.9428  0.4136
  292MOL0     H39385   9.405   1.332   7.370  0.2552  0.0607  0.2599
  292MOL0     H39386   9.621   1.300   7.476  2.2367  0.4296  0.4658
  292MOL0     H39387   9.663   1.178   7.361 -0.8982 -0.2879  0.8019
  292MOL0     H39388   9.648   1.370   7.170 -1.6285  1.5569 -0.1794
  292MOL0     H39389   9.653   1.478   7.309 -0.0385  0.3553 -2.7027
  292MOL0     H39390   9.853   1.267   7.249 -0.3726  0.3914 -0.7206
  292MOL0     H39391   9.850   1.380   7.390  2.4841  2.2979 -0.7512
  292MOL0     H39392   9.902   1.563   7.236 -0.5800 -0.2593 -0.4657
  292MOL0     H39393   9.871   1.466   7.097 -0.4427  1.6536 -0.1829
  292MOL0     H39394  10.095   1.400   7.303 -0.1150 -1.2104 -0.3734
  292MOL0     H39395  10.055   1.325   7.145  2.3671 -0.1123  0.3975
  292MOL0     H39396  10.089   1.625   7.154 -1.3474 -0.0246  0.2942
  292MOL0     H39397  10.112   1.501   7.020  1.3803 -1.3365  0.2664
  292MOL0     H39398  10.302   1.546   7.251  1.6756 -1.2405  1.0460
  292MOL0     H39399  10.299   1.409   7.144  3.7914  0.4355  0.2677
  292MOL0     H39400   9.382   0.984   7.602 -0.3914 -0.1261  0.2068
  292MOL0     H39401   9.164   0.937   7.719 -1.1058 -1.2253 -0.7547
  292MOL0     H39402   8.689   1.054   7.585 -1.6950 -2.1390 -0.9141
  292MOL0     H39403   8.448   1.019   7.620 -1.5248  1.0566  0.7131
  292MOL0     H39404   7.088   0.554   8.489  0.5745 -0.8956  2.4473
  292MOL0     H39405   6.993   0.320   8.521  0.0713 -0.1279  0.3492
  292MOL0     H39406   6.662   0.066   8.557 -2.2296  5.7367  4.8231
  292MOL0     H39407   6.576  -0.166   8.564 -0.1357  2.6067 -1.4069
  292MOL0     H39408   6.599  -0.368   8.956  2.0403  0.6579  1.4771
  292MOL0     H39409   6.745  -0.442   8.890  0.3723  0.8344  1.2130
  292MOL0     H39410   6.456  -0.542   8.816 -0.5421  0.4631  0.6009
  292MOL0     H39411   6.545  -0.599   8.946 -0.7625  0.3733 -0.7003
  292MOL0     H39412   6.709  -0.589   8.696 -2.3108  1.7367 -0.2301
  292MOL0     H39413   6.572  -0.703   8.679 -1.0573  2.8061 -2.0706
  292MOL0     H39414   6.801  -0.778   8.782  0.6274 -0.0433 -0.3833
  292MOL0     H39415   6.731  -0.720   8.938  0.1047  1.1840  0.0363
  292MOL0     H39416   6.521  -1.071   8.834  0.6690  0.3062  0.3507
  292MOL0     H39417   6.787  -0.227   8.938  2.2105 -0.2052  0.4982
  292MOL0     H39418   7.009   0.034   8.930  0.1123 -0.6102 -1.2719
  292MOL0     H39419   6.869   0.082   9.024  1.6372  1.0980  0.2038
  292MOL0     H39420   6.917  -0.079   9.034  0.2109 -0.0261 -0.1916
  293MOL0     O39421  10.949   6.223   6.353 -0.0072 -0.3086  0.0774
  293MOL0     C39422  10.937   6.271   6.245  0.5242  0.8587 -0.2046
  293MOL0     O39423  11.041   6.294   6.156  0.2364  0.4494  0.2181
  293MOL0     C39424  11.170   6.287   6.197  0.5203  0.4681 -0.9430
  293MOL0     C39425  11.258   6.212   6.112  0.4678 -0.1829 -0.4940
  293MOL0     C39426  11.388   6.200   6.155  0.3835 -0.0858  0.0600
  293MOL0     C39427  11.432   6.247   6.277  0.2012 -0.0434 -0.1757
  293MOL0     O39428  11.567   6.242   6.308 -0.3749  0.6795  0.7872
  293MOL0     C39429  11.600   6.204   6.437 -0.3422 -0.3758 -0.6671
  293MOL0     C39430  11.746   6.174   6.447 -0.3711 -0.0086 -0.2844
  293MOL0     C39431  11.834   6.262   6.348  0.3396  0.6328 -0.8403
  293MOL0     C39432  11.974   6.253   6.391 -0.4703  0.0292  0.4091
  293MOL0     C39433  12.067   6.345   6.316 -0.0733  0.2141 -0.1834
  293MOL0     C39434  12.197   6.392   6.379  0.3187 -0.2260  1.0012
  293MOL0     C39435  12.311   6.291   6.373 -0.3712 -0.3682 -0.3110
  293MOL0     C39436  12.433   6.366   6.433  0.7251  0.4400  0.3424
  293MOL0     N39437  12.464   6.499   6.375  0.1165 -0.0240  0.4754
  293MOL0     C39438  12.517   6.528   6.254 -0.1939  0.7727  0.8313
  293MOL0     C39439  12.539   6.665   6.262 -0.3249  0.4616  0.3317
  293MOL0     C39440  12.596   6.747   6.156  0.4156  0.3502  0.0046
  293MOL0     C39441  12.736   6.783   6.208 -0.4863  0.9983 -0.6422
  293MOL0     C39442  12.799   6.893   6.125 -0.2145  0.2088 -0.5889
  293MOL0     C39443  12.942   6.882   6.120 -0.0926  0.4077  0.5287
  293MOL0     O39444  13.002   6.988   6.029  0.3140  0.3293  0.0709
  293MOL0     C39445  13.135   6.983   6.003  0.2680  1.1606  0.1094
  293MOL0     C39446  13.226   6.888   6.055  0.0862  0.5497  0.1643
  293MOL0     C39447  13.363   6.906   6.047 -0.1476  0.6876  0.0006
  293MOL0     C39448  13.415   7.012   5.971  0.1452 -0.3820  0.1841
  293MOL0     C39449  13.563   7.037   5.951  0.4146  0.5860  0.1934
  293MOL0     O39450  13.610   7.148   5.905 -0.1571 -0.6474 -0.0284
  293MOL0     C39451  13.745   7.183   5.909 -0.0917 -0.4643  0.7558
  293MOL0     C39452  13.784   7.257   5.798  0.0212 -0.3189 -0.0353
  293MOL0     C39453  13.917   7.299   5.785 -0.1941 -0.1716 -0.1604
  293MOL0     C39454  14.013   7.262   5.880 -0.7379 -0.6519 -0.1161
  293MOL0     O39455  14.136   7.313   5.859 -0.5238 -0.1548  0.1629
  293MOL0     C39456  14.226   7.226   5.788 -0.0039  0.3851 -0.0948
  293MOL0     C39457  14.337   7.298   5.711  0.0588 -0.5022  0.1208
  293MOL0     C39458  14.405   7.390   5.805 -0.4526  0.6270 -0.0968
  293MOL0     C39459  14.517   7.467   5.733 -0.9749  0.8076 -0.3382
  293MOL0     C39460  14.565   7.586   5.819 -0.5147  0.2210 -0.4727
  293MOL0     C39461  14.673   7.670   5.751 -0.9229  0.0002 -0.4360
  293MOL0     C39462  14.744   7.779   5.840 -0.1460 -0.0209 -0.4911
  293MOL0     C39463  14.842   7.703   5.931 -1.2860 -0.0318 -0.3819
  293MOL0    Cl39464  14.985   7.660   5.838 -0.2348 -0.1597 -0.3989
  293MOL0     C39465  13.969   7.199   5.997 -0.1372 -0.2411  0.4086
  293MOL0     C39466  13.843   7.151   6.005 -0.4798  0.0432 -0.3556
  293MOL0     O39467  13.636   6.944   5.993 -0.2982  0.4675 -0.1165
  293MOL0     C39468  13.329   7.101   5.902 -0.0437  0.3728  0.2183
  293MOL0     C39469  13.191   7.089   5.927 -0.6196 -0.2957  0.2226
  293MOL0     N39470  12.510   6.710   6.393 -0.1127  0.2136  0.0787
  293MOL0     N39471  12.468   6.609   6.459  0.7249  0.5247  0.2717
  293MOL0     C39472  11.337   6.305   6.363  0.0499  0.3574 -0.0361
  293MOL0     C39473  11.208   6.332   6.324 -0.6598 -0.1496 -0.1349
  293MOL0     C39474  10.800   6.293   6.194 -0.7193 -0.5388  0.5840
  293MOL0     C39475  10.786   6.293   6.054  1.1136  0.7360  0.2567
  293MOL0     C39476  10.655   6.301   6.001 -0.7616  0.4030  0.2552
  293MOL0     C39477  10.543   6.321   6.088  0.2615 -0.2572 -0.4965
  293MOL0     O39478  10.426   6.346   6.026  0.1069  0.2442  0.6450
  293MOL0     C39479  10.319   6.390   6.108  0.0479  0.2324  0.1456
  293MOL0     C39480  10.235   6.486   6.015 -0.8968 -0.0323 -0.1362
  293MOL0     C39481  10.155   6.414   5.903  0.0396 -0.0208 -0.0981
  293MOL0     C39482  10.009   6.464   5.888  0.3595 -0.4891  0.2921
  293MOL0     C39483   9.942   6.367   5.807 -0.4393 -0.3751 -0.0523
  293MOL0     C39484   9.882   6.276   5.750 -0.5551  0.4839 -0.6825
  293MOL0     C39485  10.563   6.314   6.230 -0.4732  0.3562  0.8242
  293MOL0     C39486  10.689   6.303   6.285  0.0612 -0.1050  0.2985
  293MOL0     C39487  10.698   6.319   6.440 -0.2606  0.2621 -0.5315
  293MOL0     H39488  11.221   6.180   6.015  1.9013  1.0562 -1.4953
  293MOL0     H39489  11.466   6.169   6.086  1.9245  1.6019  0.9547
  293MOL0     H39490  11.591   6.287   6.508  0.6869 -0.2233 -0.7037
  293MOL0     H39491  11.534   6.124   6.471 -0.4983  0.7835  2.0366
  293MOL0     H39492  11.761   6.066   6.436  0.6742  0.2430 -1.5403
  293MOL0     H39493  11.773   6.200   6.550 -1.2415 -2.5167  0.6572
  293MOL0     H39494  11.792   6.363   6.352 -1.4520 -0.0593 -1.2162
  293MOL0     H39495  11.836   6.223   6.246  2.0577 -0.6277 -0.3757
  293MOL0     H39496  11.992   6.271   6.498 -2.0653  2.8279  0.2978
  293MOL0     H39497  12.005   6.149   6.375 -0.3968  0.3650 -1.9703
  293MOL0     H39498  12.084   6.290   6.223 -0.8995 -0.5354  0.0869
  293MOL0     H39499  12.004   6.433   6.298  1.1055  0.5143 -3.4162
  293MOL0     H39500  12.225   6.468   6.306  0.6798 -0.7999  0.5361
  293MOL0     H39501  12.173   6.436   6.476 -1.3994  0.6045  0.2454
  293MOL0     H39502  12.325   6.260   6.269 -3.1619 -4.0625  0.2012
  293MOL0     H39503  12.281   6.203   6.430 -0.5285 -0.6586 -0.8395
  293MOL0     H39504  12.418   6.378   6.541  1.5745 -3.1280  0.9857
  293MOL0     H39505  12.525   6.308   6.419 -0.0926 -2.1975  4.2338
  293MOL0     H39506  12.534   6.459   6.172 -0.4716  0.2777  1.1864
  293MOL0     H39507  12.593   6.687   6.064 -3.3033  0.4496 -0.0993
  293MOL0     H39508  12.524   6.829   6.149 -1.7286 -1.5220 -2.8938
  293MOL0     H39509  12.730   6.831   6.306  2.0271 -0.2808  0.2225
  293MOL0     H39510  12.804   6.699   6.227 -0.4631  1.7121  3.4722
  293MOL0     H39511  12.759   6.985   6.170 -0.7454 -0.8905  1.3348
  293MOL0     H39512  12.752   6.887   6.026 -0.4566 -2.8948 -0.3678
  293MOL0     H39513  12.953   6.779   6.086  0.6167  0.3119  1.0425
  293MOL0     H39514  12.988   6.891   6.219  1.8186  1.0216 -0.3749
  293MOL0     H39515  13.192   6.801   6.111  2.0416  1.1208  2.3679
  293MOL0     H39516  13.439   6.845   6.095  1.8916  3.7262  0.9018
  293MOL0     H39517  13.708   7.280   5.724  0.0409 -0.2258 -0.0272
  293MOL0     H39518  13.947   7.361   5.702  0.3518  2.5273  1.9346
  293MOL0     H39519  14.257   7.164   5.872 -1.3490 -0.5527 -0.2573
  293MOL0     H39520  14.176   7.163   5.714 -0.7767  0.8639 -0.0026
  293MOL0     H39521  14.418   7.233   5.676  2.5122  1.7071  1.2861
  293MOL0     H39522  14.308   7.363   5.628  1.1967  0.1768  0.2329
  293MOL0     H39523  14.336   7.447   5.868 -0.9288 -1.3511  1.2425
  293MOL0     H39524  14.461   7.333   5.881  0.5974  1.4299 -0.2396
  293MOL0     H39525  14.487   7.503   5.634  1.9632  0.5732 -1.4029
  293MOL0     H39526  14.597   7.397   5.708 -0.6360  1.2567 -0.5357
  293MOL0     H39527  14.602   7.546   5.913  2.1280  2.0594 -0.6292
  293MOL0     H39528  14.478   7.647   5.849  1.1357  1.3659  2.4061
  293MOL0     H39529  14.748   7.601   5.712  0.3437  0.6531  0.7529
  293MOL0     H39530  14.623   7.719   5.667 -2.8383 -1.3763 -0.1744
  293MOL0     H39531  14.680   7.833   5.911  2.7406  0.2036  2.1536
  293MOL0     H39532  14.791   7.858   5.782  0.7386 -0.4660 -0.4080
  293MOL0     H39533  14.872   7.759   6.020 -0.8882  2.2569 -1.8750
  293MOL0     H39534  14.787   7.612   5.958 -0.8337  0.1636  1.3221
  293MOL0     H39535  14.029   7.161   6.079 -1.4072 -2.3524  0.4488
  293MOL0     H39536  13.814   7.086   6.088 -1.8302 -0.9821 -1.5710
  293MOL0     H39537  13.369   7.180   5.839 -1.4923 -0.5357 -1.9707
  293MOL0     H39538  13.127   7.173   5.899 -2.4769 -1.2172  1.4725
  293MOL0     H39539  11.374   6.330   6.462 -1.3363 -0.5021  0.7371
  293MOL0     H39540  11.135   6.377   6.391 -0.1090  0.2284  0.2182
  293MOL0     H39541  10.870   6.290   5.985 -0.9202 -2.7843 -2.4462
  293MOL0     H39542  10.643   6.306   5.893  0.5274 -0.9192  0.0149
  293MOL0     H39543  10.357   6.452   6.191  2.3776 -1.6568  0.6107
  293MOL0     H39544  10.257   6.311   6.152 -1.2744  1.2123  0.1031
  293MOL0     H39545  10.295   6.570   5.980  0.3711 -0.3929  1.0924
  293MOL0     H39546  10.172   6.543   6.085  0.4362  3.9014 -1.8563
  293MOL0     H39547  10.172   6.307   5.919  0.9444  0.2562  0.9513
  293MOL0     H39548  10.200   6.429   5.804  1.3233  1.6758  0.6848
  293MOL0     H39549   9.956   6.477   5.983 -0.8324  0.3915 -0.4728
  293MOL0     H39550  10.015   6.561   5.838  0.0951 -0.7240 -0.2010
  293MOL0     H39551   9.821   6.206   5.696  0.2085 -0.1557 -0.7381
  293MOL0     H39552  10.484   6.299   6.303  0.6024 -0.4426  1.8721
  293MOL0     H39553  10.757   6.406   6.471  0.2123 -0.8993  2.0454
  293MOL0     H39554  10.595   6.329   6.476 -0.4424 -0.3108 -0.8728
  293MOL0     H39555  10.750   6.232   6.482  1.1344 -0.0265 -2.6786
  294MOL0     O39556   4.668   3.490   6.349  0.2532 -0.0023  0.6366
  294MOL0     C39557   4.668   3.496   6.475  0.3228 -0.0453  0.2110
  294MOL0     O39558   4.777   3.529   6.552 -0.4526  0.0133  0.2374
  294MOL0     C39559   4.894   3.551   6.492  0.1319 -0.3115  0.1370
  294MOL0     C39560   4.999   3.460   6.499  0.3356 -0.0114  0.2452
  294MOL0     C39561   5.121   3.485   6.445 -0.5581  0.7494  0.5701
  294MOL0     C39562   5.140   3.602   6.367  0.3294  0.5234  0.7605
  294MOL0     O39563   5.259   3.617   6.299 -0.6688 -0.4414  0.5458
  294MOL0     C39564   5.311   3.753   6.294  0.6398 -0.2134 -0.1016
  294MOL0     C39565   5.295   3.820   6.156  0.2904  0.9226  0.3790
  294MOL0     C39566   5.361   3.736   6.050 -0.5898  0.2849 -0.2798
  294MOL0     C39567   5.524   3.724   6.062  1.1675  0.3756 -0.2423
  294MOL0     C39568   5.584   3.642   5.946  0.2277 -0.9242  0.2109
  294MOL0     C39569   5.721   3.589   5.982  0.3108  0.8686  0.3044
  294MOL0     C39570   5.795   3.500   5.868  0.1780  0.6376 -0.4853
  294MOL0     C39571   5.803   3.566   5.730  0.0674 -0.6323 -0.9885
  294MOL0     N39572   5.904   3.503   5.648  0.3229 -0.7184 -0.5322
  294MOL0     C39573   6.035   3.543   5.671 -0.0263  0.0279 -0.3560
  294MOL0     C39574   6.102   3.495   5.561 -0.2672 -0.6605 -0.3477
  294MOL0     C39575   6.248   3.515   5.523  0.2813 -0.5346 -0.5884
  294MOL0     C39576   6.310   3.640   5.581 -0.2927 -0.5212  0.3474
  294MOL0     C39577   6.457   3.655   5.531 -0.5701  0.1644 -0.1219
  294MOL0     C39578   6.531   3.740   5.633 -0.6882  0.4119  0.6816
  294MOL0     O39579   6.502   3.876   5.604 -0.1063 -0.0322 -0.1391
  294MOL0     C39580   6.599   3.968   5.656  1.4085  0.9783 -0.4051
  294MOL0     C39581   6.716   3.939   5.724  0.1484 -0.7781 -0.7284
  294MOL0     C39582   6.800   4.039   5.778 -0.3000  1.0814 -0.6570
  294MOL0     C39583   6.773   4.171   5.747  0.6057  0.4582 -0.3089
  294MOL0     C39584   6.865   4.283   5.779 -1.2777 -0.4952 -0.4641
  294MOL0     O39585   6.980   4.241   5.848  0.0362  0.2844  0.3652
  294MOL0     C39586   7.069   4.337   5.883  0.0919  0.1208 -0.7474
  294MOL0     C39587   7.064   4.406   6.005  0.7067  0.5423 -0.4384
  294MOL0     C39588   7.159   4.497   6.041 -0.2784 -0.4530  0.1699
  294MOL0     C39589   7.265   4.526   5.951  0.8110  0.0330 -0.1417
  294MOL0     O39590   7.352   4.628   5.982 -0.3853  0.4135 -0.0924
  294MOL0     C39591   7.410   4.627   6.107  0.3876  0.3152  0.5229
  294MOL0     C39592   7.517   4.514   6.136  0.1576 -0.5811  0.2715
  294MOL0     C39593   7.635   4.561   6.227 -0.0469  0.2282  0.3151
  294MOL0     C39594   7.747   4.621   6.150 -0.6656 -0.1070  0.9111
  294MOL0     C39595   7.858   4.674   6.252  0.7471  0.6189  0.5131
  294MOL0     C39596   7.972   4.754   6.184  0.5458  0.4470  0.4813
  294MOL0     C39597   8.075   4.670   6.110  0.1020  0.3151 -0.6867
  294MOL0     C39598   8.194   4.623   6.199 -0.1484  0.2512  1.2667
  294MOL0    Cl39599   8.325   4.754   6.193  0.1412  0.2150  0.1256
  294MOL0     C39600   7.274   4.454   5.829  0.5035  0.3535  0.7002
  294MOL0     C39601   7.177   4.361   5.796  0.3151 -0.0314 -0.2204
  294MOL0     O39602   6.845   4.406   5.762 -0.3111  0.5718  0.2556
  294MOL0     C39603   6.650   4.202   5.678 -0.1802  0.1847 -0.3597
  294MOL0     C39604   6.564   4.103   5.632  0.0873  0.0660 -0.1519
  294MOL0     N39605   6.011   3.427   5.478  0.0594 -0.1805  0.4544
  294MOL0     N39606   5.891   3.432   5.538 -0.0106 -0.0754 -0.3795
  294MOL0     C39607   5.031   3.688   6.355  1.1247 -0.3440  0.2359
  294MOL0     C39608   4.910   3.664   6.418  0.2901  0.0180  0.4498
  294MOL0     C39609   4.541   3.467   6.544  0.0700 -0.2633  0.1663
  294MOL0     C39610   4.541   3.473   6.688 -0.4194  0.0756 -0.4162
  294MOL0     C39611   4.431   3.442   6.775 -0.3169 -0.2712 -0.9216
  294MOL0     C39612   4.309   3.407   6.718  0.1222  0.2985 -1.0436
  294MOL0     O39613   4.190   3.376   6.787  0.7558  1.0559  0.2942
  294MOL0     C39614   4.190   3.365   6.929  1.1748 -0.7463  0.4128
  294MOL0     C39615   4.060   3.292   6.967  0.2720 -0.6935 -0.6082
  294MOL0     C39616   3.931   3.385   6.952 -0.4853  0.4207 -0.9164
  294MOL0     C39617   3.855   3.387   6.825  0.3567 -0.8242 -0.2125
  294MOL0     C39618   3.739   3.480   6.820 -0.4208 -0.8339  0.6539
  294MOL0     C39619   3.651   3.559   6.819 -0.1238 -0.1824  0.0571
  294MOL0     C39620   4.298   3.410   6.581  0.1184 -0.7784  0.0626
  294MOL0     C39621   4.413   3.437   6.490  0.1039  0.5984 -0.7433
  294MOL0     C39622   4.374   3.444   6.348  0.3623 -0.3646  0.1165
  294MOL0     H39623   4.971   3.371   6.554  0.2220  0.2726  0.6553
  294MOL0     H39624   5.193   3.404   6.450 -0.8124  0.3701 -1.3967
  294MOL0     H39625   5.260   3.820   6.364  1.1073 -1.9755  2.0399
  294MOL0     H39626   5.417   3.749   6.319  0.5119  2.3392  1.2121
  294MOL0     H39627   5.321   3.925   6.143 -0.9214  1.1381 -0.5543
  294MOL0     H39628   5.189   3.815   6.127  1.0332 -0.9460 -2.4334
  294MOL0     H39629   5.340   3.781   5.953 -1.5412  1.5635  0.4817
  294MOL0     H39630   5.324   3.633   6.048  0.5187 -0.1532  0.5801
  294MOL0     H39631   5.569   3.824   6.054  0.3228  0.7086 -1.0950
  294MOL0     H39632   5.554   3.678   6.156 -3.7699 -3.2825 -0.1031
  294MOL0     H39633   5.517   3.560   5.918 -3.5300  1.2633  2.0343
  294MOL0     H39634   5.598   3.713   5.865  2.5821  0.6973  1.8983
  294MOL0     H39635   5.782   3.677   6.002 -1.8969  3.5207 -3.3147
  294MOL0     H39636   5.715   3.526   6.071  2.2152  1.3954  0.8394
  294MOL0     H39637   5.748   3.403   5.852  1.5242 -0.7667  3.0309
  294MOL0     H39638   5.893   3.483   5.914 -1.3742  0.3136  3.0474
  294MOL0     H39639   5.705   3.568   5.681  0.8925  2.4417 -2.8292
  294MOL0     H39640   5.827   3.673   5.740 -1.4273 -0.4975  2.5623
  294MOL0     H39641   6.075   3.610   5.746 -2.5556  3.9286 -2.1957
  294MOL0     H39642   6.303   3.429   5.562 -0.1072 -1.3551 -1.8052
  294MOL0     H39643   6.255   3.514   5.414 -3.0454 -0.2810 -0.8902
  294MOL0     H39644   6.248   3.726   5.555  0.7493  0.5873  1.4583
  294MOL0     H39645   6.305   3.629   5.689 -0.6267 -0.6352  0.3244
  294MOL0     H39646   6.459   3.700   5.431  3.0107  2.3235  0.7602
  294MOL0     H39647   6.496   3.554   5.518 -2.4494 -0.5814 -0.3172
  294MOL0     H39648   6.636   3.715   5.615 -0.8183  0.9264 -0.9091
  294MOL0     H39649   6.507   3.702   5.733 -0.2505 -1.5831  0.0871
  294MOL0     H39650   6.732   3.833   5.742 -3.8129 -1.9002 -2.7633
  294MOL0     H39651   6.886   4.006   5.835 -1.8837  0.0932  1.3203
  294MOL0     H39652   6.984   4.385   6.076 -0.6376  1.5080 -1.6264
  294MOL0     H39653   7.142   4.559   6.128  0.3510  0.3895 -0.2920
  294MOL0     H39654   7.455   4.727   6.113  0.5139  0.2771  0.2065
  294MOL0     H39655   7.332   4.630   6.185 -0.2251 -1.7486  0.0423
  294MOL0     H39656   7.458   4.439   6.190 -0.3180 -0.0363  0.5194
  294MOL0     H39657   7.556   4.479   6.040 -1.8040 -1.8702 -0.1117
  294MOL0     H39658   7.600   4.639   6.295 -3.5376  0.9070 -1.9913
  294MOL0     H39659   7.676   4.481   6.288 -0.4336  0.2761  0.6410
  294MOL0     H39660   7.707   4.712   6.105 -0.5751 -0.0670  0.9110
  294MOL0     H39661   7.793   4.548   6.082 -3.0789  0.0552 -1.0256
  294MOL0     H39662   7.898   4.589   6.308 -0.5145 -0.0305  0.4528
  294MOL0     H39663   7.810   4.741   6.323  1.5892  0.7629  0.9604
  294MOL0     H39664   7.928   4.826   6.114 -0.0640 -0.3072  0.0671
  294MOL0     H39665   8.014   4.810   6.267  0.8243 -0.0368  0.6718
  294MOL0     H39666   8.098   4.734   6.024 -2.4343 -1.3475 -2.7669
  294MOL0     H39667   8.028   4.584   6.062 -0.0572  0.4662 -0.7995
  294MOL0     H39668   8.157   4.599   6.299 -1.3065  2.7115  1.5134
  294MOL0     H39669   8.233   4.528   6.162 -1.4049  0.4262 -0.6978
  294MOL0     H39670   7.360   4.454   5.763  0.2656  1.5107  0.3677
  294MOL0     H39671   7.181   4.313   5.699  2.7955  0.6979 -0.5500
  294MOL0     H39672   6.617   4.302   5.654 -0.2477  0.0084 -1.0218
  294MOL0     H39673   6.466   4.127   5.592  0.5567  0.6574 -0.9599
  294MOL0     H39674   5.045   3.780   6.299 -0.7521 -0.0315  0.2231
  294MOL0     H39675   4.834   3.741   6.406  0.6870  0.9889  3.3103
  294MOL0     H39676   4.633   3.513   6.730  0.9778  1.8868 -4.6834
  294MOL0     H39677   4.427   3.444   6.884 -1.9147  0.9155 -0.9625
  294MOL0     H39678   4.194   3.467   6.970 -2.7264 -0.0776 -0.4380
  294MOL0     H39679   4.282   3.314   6.959  2.7735  0.6791 -1.7476
  294MOL0     H39680   4.066   3.250   7.068  1.0300 -0.1088 -0.3998
  294MOL0     H39681   4.045   3.206   6.901  0.6533  0.2078 -1.9185
  294MOL0     H39682   3.960   3.486   6.983 -0.0675 -0.3539  1.4055
  294MOL0     H39683   3.861   3.360   7.032 -0.8328  3.9144  0.0318
  294MOL0     H39684   3.924   3.420   6.746 -1.1381  2.2595 -0.3894
  294MOL0     H39685   3.815   3.287   6.807 -0.0052 -0.7327  0.0738
  294MOL0     H39686   3.572   3.628   6.796  0.1102 -0.6190 -2.2256
  294MOL0     H39687   4.199   3.389   6.540 -0.2693 -2.5965  1.8019
  294MOL0     H39688   4.348   3.339   6.331 -0.3911 -0.6353  2.5239
  294MOL0     H39689   4.287   3.503   6.320 -0.5648 -0.4707  2.5579
  294MOL0     H39690   4.453   3.471   6.277 -1.2558  2.4904 -0.7269
  295MOL0     O39691   8.699   2.259   7.891 -0.0110 -0.3118 -0.1351
  295MOL0     C39692   8.628   2.160   7.872 -0.1652  1.2655 -0.4578
  295MOL0     O39693   8.683   2.039   7.833 -1.1401 -0.0871  0.3161
  295MOL0     C39694   8.821   2.011   7.819  0.9247  0.1519  0.0324
  295MOL0     C39695   8.929   2.079   7.886  0.2139 -0.5355  0.0882
  295MOL0     C39696   9.063   2.047   7.859  0.1090 -1.1608  0.1921
  295MOL0     C39697   9.099   1.941   7.778 -0.0060 -0.1888  0.1035
  295MOL0     O39698   9.231   1.906   7.757 -0.3925  0.5232  0.1419
  295MOL0     C39699   9.331   1.980   7.826 -0.6027  0.5145  0.5652
  295MOL0     C39700   9.453   1.910   7.769  0.0172  0.0907 -0.4719
  295MOL0     C39701   9.573   1.962   7.835  0.7512  0.8336 -0.6691
  295MOL0     C39702   9.680   1.848   7.839  0.2839  0.3665  0.3840
  295MOL0     C39703   9.828   1.902   7.867  0.3655 -0.0605 -0.5553
  295MOL0     C39704   9.878   2.010   7.781  0.8637  0.7623  0.1727
  295MOL0     C39705  10.029   2.037   7.810  0.5318  0.2242  0.3659
  295MOL0     C39706  10.079   2.160   7.735  0.6653  0.0557 -0.6689
  295MOL0     N39707  10.208   2.199   7.777 -0.4427  0.2868  0.1084
  295MOL0     C39708  10.322   2.159   7.712  0.4205  0.2184 -0.3223
  295MOL0     C39709  10.421   2.224   7.775  0.2847 -0.7195 -0.4056
  295MOL0     C39710  10.562   2.230   7.738 -0.1907 -0.0006 -0.1587
  295MOL0     C39711  10.633   2.353   7.801 -0.5671 -0.1323  0.1702
  295MOL0     C39712  10.784   2.351   7.757 -0.1888 -0.1032 -0.6821
  295MOL0     C39713  10.869   2.470   7.823  0.2154  0.4065  0.1869
  295MOL0     O39714  10.852   2.466   7.963 -0.5318 -0.0023  0.0184
  295MOL0     C39715  10.923   2.570   8.023 -0.3521  0.0750 -0.7766
  295MOL0     C39716  11.054   2.603   8.003  0.1198  0.2246  0.0506
  295MOL0     C39717  11.126   2.692   8.085  0.2899  0.3368 -0.6510
  295MOL0     C39718  11.055   2.768   8.178  0.0257 -0.0649  0.5116
  295MOL0     C39719  11.123   2.885   8.245 -0.0284 -0.1779 -0.0261
  295MOL0     O39720  11.257   2.885   8.225  0.7906  0.0117  0.7277
  295MOL0     C39721  11.332   2.992   8.271 -0.6524 -0.4043  0.0377
  295MOL0     C39722  11.286   3.122   8.292  0.2767 -0.4308 -0.8945
  295MOL0     C39723  11.378   3.225   8.324 -0.4202  0.0334  0.3337
  295MOL0     C39724  11.514   3.203   8.329 -0.6073 -0.0422 -0.2369
  295MOL0     O39725  11.602   3.306   8.348 -0.2448 -0.2911  0.8151
  295MOL0     C39726  11.592   3.403   8.241  1.0307 -0.8148 -0.3475
  295MOL0     C39727  11.698   3.510   8.266 -0.7490  0.1234 -0.0397
  295MOL0     C39728  11.840   3.458   8.299 -0.1289  0.3585 -0.0150
  295MOL0     C39729  11.940   3.577   8.310 -0.2009  0.8385 -0.2615
  295MOL0     C39730  12.078   3.537   8.341 -0.6713  0.0953  0.0754
  295MOL0     C39731  12.108   3.488   8.486 -0.7820 -0.5507 -0.1027
  295MOL0     C39732  12.256   3.454   8.522 -0.7832 -0.1668 -0.7045
  295MOL0     C39733  12.349   3.580   8.511  1.1564  0.3665  0.3826
  295MOL0    Cl39734  12.314   3.715   8.622  0.0559  0.3575 -0.1366
  295MOL0     C39735  11.564   3.073   8.305 -0.1271 -0.3939 -0.5715
  295MOL0     C39736  11.475   2.972   8.269 -1.2812  0.5959  0.1500
  295MOL0     O39737  11.057   2.953   8.324 -0.5798 -1.1003  0.3377
  295MOL0     C39738  10.919   2.744   8.185 -0.5720  0.0566 -0.0994
  295MOL0     C39739  10.855   2.643   8.115 -0.0891  0.2508 -0.0353
  295MOL0     N39740  10.361   2.299   7.873  0.3625  0.0030 -0.6155
  295MOL0     N39741  10.236   2.284   7.879 -0.0325 -0.4640  0.6661
  295MOL0     C39742   8.995   1.884   7.707  0.2614  0.3796 -0.2429
  295MOL0     C39743   8.861   1.920   7.729 -0.4115 -0.7133 -0.2106
  295MOL0     C39744   8.486   2.169   7.875  0.2325  0.0758  0.8036
  295MOL0     C39745   8.426   2.224   7.994  0.2998 -0.4965  0.8784
  295MOL0     C39746   8.290   2.241   8.009 -0.0861  0.6827 -0.2604
  295MOL0     C39747   8.201   2.206   7.904  0.4634  0.5343  0.2444
  295MOL0     O39748   8.062   2.200   7.909  0.2583  0.1269  0.0120
  295MOL0     C39749   8.002   2.271   8.028  0.5503 -0.2335  0.5186
  295MOL0     C39750   7.853   2.285   8.021  0.0209  0.3323 -0.5134
  295MOL0     C39751   7.774   2.158   8.030  0.0703  0.4489  0.2965
  295MOL0     C39752   7.758   2.106   8.173 -0.1147 -0.6447  0.1235
  295MOL0     C39753   7.662   1.997   8.179 -0.0349  0.0358 -1.5759
  295MOL0     C39754   7.570   1.918   8.191 -0.5940  0.4101 -0.3934
  295MOL0     C39755   8.261   2.155   7.781  0.0082  0.3822  0.6514
  295MOL0     C39756   8.403   2.143   7.764  0.3052 -0.3428 -0.6833
  295MOL0     C39757   8.457   2.087   7.637  0.7371 -0.4639 -0.5298
  295MOL0     H39758   8.914   2.170   7.943  1.9201  0.4770 -0.9972
  295MOL0     H39759   9.145   2.109   7.894  1.3795 -1.5899 -1.8695
  295MOL0     H39760   9.336   2.086   7.799 -0.8288 -0.0629 -1.9786
  295MOL0     H39761   9.314   1.968   7.933  2.6581  0.3302  1.1710
  295MOL0     H39762   9.452   1.925   7.661 -2.2867 -5.3969 -1.5718
  295MOL0     H39763   9.440   1.802   7.779  0.8184  0.1172  1.1723
  295MOL0     H39764   9.551   1.978   7.941 -2.7604 -4.1419 -0.3161
  295MOL0     H39765   9.620   2.045   7.782 -1.2369  1.1655 -1.9955
  295MOL0     H39766   9.658   1.780   7.922  0.6858  0.2181  0.3706
  295MOL0     H39767   9.673   1.792   7.746 -1.8994 -2.8431  2.3039
  295MOL0     H39768   9.831   1.936   7.971  0.8563 -1.3527 -0.1156
  295MOL0     H39769   9.894   1.815   7.860  0.8066  0.4056 -2.8688
  295MOL0     H39770   9.869   1.972   7.679  0.8694 -0.7512  0.7070
  295MOL0     H39771   9.819   2.102   7.784  2.3599  1.7560  0.2294
  295MOL0     H39772  10.089   1.951   7.780  0.2086  0.0100  0.3308
  295MOL0     H39773  10.040   2.057   7.917 -1.0694  1.6135  0.3055
  295MOL0     H39774  10.085   2.148   7.626  0.6210  0.2763 -0.6975
  295MOL0     H39775  10.012   2.245   7.753 -1.3958 -1.7145  0.5298
  295MOL0     H39776  10.322   2.092   7.627 -0.2769 -2.2260  1.4593
  295MOL0     H39777  10.610   2.138   7.773  2.6066  1.7436  0.9266
  295MOL0     H39778  10.578   2.232   7.630  1.0069 -1.5306 -0.0454
  295MOL0     H39779  10.581   2.441   7.762 -2.4202 -1.5420 -0.7231
  295MOL0     H39780  10.622   2.352   7.910  0.8122 -0.7040  0.3247
  295MOL0     H39781  10.793   2.368   7.650 -3.1603  0.9883 -0.8438
  295MOL0     H39782  10.823   2.254   7.789 -1.3721 -1.5762 -3.3893
  295MOL0     H39783  10.830   2.565   7.785  2.2010  1.9642  1.8762
  295MOL0     H39784  10.973   2.476   7.791  1.1752  0.6267  3.1217
  295MOL0     H39785  11.107   2.551   7.923  0.4537  2.1612 -1.0645
  295MOL0     H39786  11.224   2.729   8.058 -0.0399  1.0162 -0.9479
  295MOL0     H39787  11.183   3.149   8.271  0.8633  0.5143 -2.7622
  295MOL0     H39788  11.347   3.329   8.319  0.5484  0.2881 -1.0970
  295MOL0     H39789  11.600   3.364   8.140  0.0868  0.3741 -0.9055
  295MOL0     H39790  11.498   3.459   8.242  1.6304  0.2343 -0.0685
  295MOL0     H39791  11.704   3.573   8.176 -1.3322  0.0831 -0.1061
  295MOL0     H39792  11.667   3.573   8.350  1.4786  2.7646 -1.0320
  295MOL0     H39793  11.837   3.404   8.394 -2.3553  2.8070  1.4492
  295MOL0     H39794  11.874   3.395   8.216 -0.0882  0.7547 -0.3041
  295MOL0     H39795  11.911   3.644   8.392 -0.0672  0.0082  0.4826
  295MOL0     H39796  11.936   3.629   8.214 -0.6655 -2.3383 -2.1196
  295MOL0     H39797  12.135   3.629   8.323 -2.6821  1.0503 -1.8643
  295MOL0     H39798  12.112   3.461   8.271 -0.1875  1.1600 -0.8839
  295MOL0     H39799  12.081   3.571   8.552 -0.8012  0.1136 -0.9230
  295MOL0     H39800  12.041   3.405   8.506 -2.5284  0.4311 -1.5635
  295MOL0     H39801  12.303   3.390   8.447  2.4502  1.4208 -0.1996
  295MOL0     H39802  12.263   3.413   8.624  0.1253  2.9852  0.6232
  295MOL0     H39803  12.451   3.552   8.538  0.8062  1.1322  2.7105
  295MOL0     H39804  12.345   3.614   8.407 -0.6857  3.4912  1.3272
  295MOL0     H39805  11.672   3.063   8.294 -0.0116 -1.1650  1.0568
  295MOL0     H39806  11.517   2.883   8.224 -1.1246 -0.1042  1.6140
  295MOL0     H39807  10.859   2.811   8.246 -2.0646 -1.5367  0.2312
  295MOL0     H39808  10.749   2.625   8.130  0.1326  1.0454  3.2410
  295MOL0     H39809   9.022   1.815   7.627 -1.5199  1.6147 -2.0158
  295MOL0     H39810   8.788   1.871   7.666  1.6249 -0.9913 -2.4828
  295MOL0     H39811   8.489   2.260   8.074 -0.8745  1.5224  0.9621
  295MOL0     H39812   8.248   2.290   8.096  1.0520  2.7181 -0.7784
  295MOL0     H39813   8.041   2.373   8.032  2.0860 -0.8215  1.5721
  295MOL0     H39814   8.017   2.215   8.120  0.2359 -1.9349 -0.4192
  295MOL0     H39815   7.827   2.330   7.925  1.9649  2.1750 -0.2534
  295MOL0     H39816   7.822   2.362   8.093  1.5607  2.3778 -1.9494
  295MOL0     H39817   7.833   2.087   7.971  0.5075  0.6727  0.4611
  295MOL0     H39818   7.674   2.173   7.988  0.0706  1.1665  0.5366
  295MOL0     H39819   7.856   2.068   8.203  0.4818  1.8634  1.7372
  295MOL0     H39820   7.720   2.173   8.251  2.5520  1.5028 -0.2446
  295MOL0     H39821   7.494   1.844   8.203 -1.8006  1.5148 -0.9954
  295MOL0     H39822   8.193   2.134   7.699  0.3429  3.0304 -0.4171
  295MOL0     H39823   8.529   2.007   7.651  0.6052 -0.2687  1.6431
  295MOL0     H39824   8.374   2.047   7.579  0.4712  2.0873 -2.0697
  295MOL0     H39825   8.497   2.163   7.569 -0.0629 -0.3377 -0.8725
  296MOL0     O39826   4.617   8.847  11.261  0.0324 -0.3304 -0.2699
  296MOL0     C39827   4.686   8.890  11.351 -0.0931 -0.2154  0.0550
  296MOL0     O39828   4.819   8.899  11.347 -0.6516 -0.1152  0.0520
  296MOL0     C39829   4.898   8.848  11.250 -0.6098 -0.1487  0.6583
  296MOL0     C39830   5.020   8.775  11.292 -0.7883 -0.0830  1.1750
  296MOL0     C39831   5.101   8.724  11.205 -0.2236  0.0569 -0.3780
  296MOL0     C39832   5.069   8.732  11.066  0.1364  0.6389 -0.5179
  296MOL0     O39833   5.155   8.679  10.974 -0.1218 -0.0212  0.0354
  296MOL0     C39834   5.240   8.571  11.009  0.2838  0.0514  0.0092
  296MOL0     C39835   5.282   8.500  10.877  0.0232  0.4595 -0.6915
  296MOL0     C39836   5.397   8.391  10.905  0.1636  0.0912 -0.7203
  296MOL0     C39837   5.532   8.459  10.912  0.1431 -0.3130 -0.5704
  296MOL0     C39838   5.650   8.355  10.914  0.5755 -0.2363 -0.5153
  296MOL0     C39839   5.649   8.251  11.026 -0.4546 -0.2247  0.5750
  296MOL0     C39840   5.777   8.166  11.026  0.0705 -0.0180 -0.1515
  296MOL0     C39841   5.775   8.059  11.127 -0.3097 -0.0214  0.2811
  296MOL0     N39842   5.770   8.104  11.266 -0.9373 -0.9314 -0.2087
  296MOL0     C39843   5.721   8.029  11.369 -0.4346 -0.4062 -0.2987
  296MOL0     C39844   5.761   8.085  11.479 -0.6281 -0.3591 -0.1283
  296MOL0     C39845   5.748   8.036  11.619 -0.0693 -0.1963 -0.3426
  296MOL0     C39846   5.843   7.925  11.651 -0.1906  0.3924 -0.6277
  296MOL0     C39847   5.993   7.960  11.631  0.4413 -0.1368 -0.1973
  296MOL0     C39848   6.090   7.849  11.679 -0.5521  0.3330  0.3860
  296MOL0     O39849   6.114   7.857  11.821 -0.0048  0.4335 -0.4304
  296MOL0     C39850   6.227   7.916  11.865 -0.2775 -0.3858 -0.5971
  296MOL0     C39851   6.327   7.980  11.792  0.2801  0.4605  0.0568
  296MOL0     C39852   6.438   8.043  11.847 -0.2436  0.1020 -0.2145
  296MOL0     C39853   6.467   8.007  11.974  0.1738 -0.2524 -1.1037
  296MOL0     C39854   6.578   8.059  12.044  0.2068 -0.3924  0.0429
  296MOL0     O39855   6.629   8.182  12.004  0.0295  0.4187  0.2769
  296MOL0     C39856   6.718   8.244  12.085  0.6368 -0.7376  0.8106
  296MOL0     C39857   6.851   8.236  12.050  0.2334  0.3276  0.3715
  296MOL0     C39858   6.944   8.305  12.126 -0.5674 -0.0414 -0.0061
  296MOL0     C39859   6.914   8.380  12.241  0.3505  0.3902  0.7459
  296MOL0     O39860   7.001   8.428  12.336  0.2038 -0.3986  0.5684
  296MOL0     C39861   7.136   8.392  12.347  0.3658 -0.1176  0.6333
  296MOL0     C39862   7.214   8.480  12.444  0.2651  0.1680  0.3862
  296MOL0     C39863   7.354   8.439  12.474  0.3106 -0.5124  0.0167
  296MOL0     C39864   7.429   8.370  12.353 -0.5546 -0.5320 -0.6492
  296MOL0     C39865   7.567   8.326  12.409  0.3125  0.0029 -0.3980
  296MOL0     C39866   7.652   8.250  12.311  0.8196  0.1038 -0.5962
  296MOL0     C39867   7.577   8.142  12.245  0.3325  0.4416 -0.5588
  296MOL0     C39868   7.663   8.065  12.151 -0.6507  0.5426  0.5908
  296MOL0    Cl39869   7.703   8.165  12.011 -0.0905  0.0081  0.2280
  296MOL0     C39870   6.776   8.384  12.272  0.2970  0.9119  0.1942
  296MOL0     C39871   6.683   8.318  12.198 -0.0872 -0.0616 -0.3251
  296MOL0     O39872   6.624   7.996  12.140  0.0004  0.1113 -0.1408
  296MOL0     C39873   6.369   7.949  12.062  0.9673  0.1074  0.1453
  296MOL0     C39874   6.252   7.903  12.003 -0.2557 -0.2787  0.6057
  296MOL0     N39875   5.819   8.205  11.448  0.1022 -0.1757  0.0927
  296MOL0     N39876   5.818   8.215  11.323  0.6293  0.5921 -0.0668
  296MOL0     C39877   4.954   8.798  11.020 -0.0122 -0.2480 -0.0189
  296MOL0     C39878   4.867   8.855  11.111 -0.2697  0.2979  0.1692
  296MOL0     C39879   4.617   8.945  11.469 -0.2885  0.1721 -0.2945
  296MOL0     C39880   4.699   9.014  11.565 -0.3996 -0.8569  0.2666
  296MOL0     C39881   4.655   9.072  11.680 -0.0822 -0.6532 -0.1837
  296MOL0     C39882   4.521   9.084  11.710 -0.1457  0.2911  0.4346
  296MOL0     O39883   4.483   9.162  11.822 -0.1336  0.1208 -0.0280
  296MOL0     C39884   4.347   9.162  11.843  0.6134 -0.6027 -0.2404
  296MOL0     C39885   4.312   9.222  11.980  0.1657 -0.2305  0.1423
  296MOL0     C39886   4.159   9.242  12.001  0.0019 -0.0110  0.5011
  296MOL0     C39887   4.081   9.113  12.009  0.1275  0.6207  0.1477
  296MOL0     C39888   3.936   9.144  12.018  1.0701 -0.6088 -0.3386
  296MOL0     C39889   3.815   9.170  12.012  0.4461  0.1299  0.5424
  296MOL0     C39890   4.437   9.017  11.617  0.2406  0.7922  0.7415
  296MOL0     C39891   4.482   8.945  11.500  0.0894  0.9337 -0.4881
  296MOL0     C39892   4.369   8.877  11.419  0.2929  0.3948 -0.0066
  296MOL0     H39893   5.043   8.776  11.399 -1.0776 -1.0503  1.2517
  296MOL0     H39894   5.192   8.690  11.253 -0.5312  1.5664  1.3700
  296MOL0     H39895   5.327   8.615  11.059  1.2135 -0.1305 -1.3675
  296MOL0     H39896   5.194   8.501  11.079  2.7916  0.3032  2.0919
  296MOL0     H39897   5.303   8.563  10.789 -0.1000  2.2573  0.5099
  296MOL0     H39898   5.192   8.447  10.845 -0.4965  1.0241 -0.1887
  296MOL0     H39899   5.390   8.326  10.818  0.2947 -0.5821 -0.2305
  296MOL0     H39900   5.371   8.319  10.983 -1.8566  0.4382 -1.0145
  296MOL0     H39901   5.548   8.533  10.833  1.1677 -2.3750 -2.4246
  296MOL0     H39902   5.549   8.516  11.004  0.4531  2.5608 -2.2869
  296MOL0     H39903   5.649   8.297  10.821  2.9406  0.0812 -0.8086
  296MOL0     H39904   5.750   8.400  10.912  0.8271 -0.7854 -2.0479
  296MOL0     H39905   5.648   8.295  11.126 -2.1865 -1.6902  1.2749
  296MOL0     H39906   5.564   8.184  11.008 -2.0080  2.3753 -2.6897
  296MOL0     H39907   5.864   8.233  11.036 -1.5214  1.8513  2.2304
  296MOL0     H39908   5.776   8.122  10.925 -3.6971  0.4937 -0.4823
  296MOL0     H39909   5.685   7.999  11.108  1.0152 -2.2419  0.7169
  296MOL0     H39910   5.858   7.990  11.110  1.3792  1.8035  0.8702
  296MOL0     H39911   5.679   7.929  11.359 -0.9522 -0.3873  1.2775
  296MOL0     H39912   5.771   8.124  11.680 -0.5619 -0.2789 -0.0272
  296MOL0     H39913   5.640   8.016  11.625 -0.3900  1.5476  0.4051
  296MOL0     H39914   5.824   7.886  11.752  2.5200  0.6413  0.0820
  296MOL0     H39915   5.821   7.835  11.593  0.8805 -0.4240  0.1647
  296MOL0     H39916   6.014   8.054  11.683  0.0022  0.4668 -1.0827
  296MOL0     H39917   6.010   7.988  11.527 -2.2346  2.0004 -0.1735
  296MOL0     H39918   6.182   7.845  11.620  0.0182 -2.2757  1.3175
  296MOL0     H39919   6.049   7.754  11.644  0.5710 -0.0608  0.0868
  296MOL0     H39920   6.326   7.999  11.686 -0.1416  2.8738  0.4528
  296MOL0     H39921   6.503   8.103  11.785 -0.8401  1.2371  0.2395
  296MOL0     H39922   6.878   8.171  11.968 -0.3042  0.9040 -0.2739
  296MOL0     H39923   7.047   8.312  12.091 -0.3878 -2.3648 -0.1161
  296MOL0     H39924   7.134   8.292  12.392  0.6079 -0.2428  0.3743
  296MOL0     H39925   7.184   8.381  12.249  0.5770 -1.3576  0.8510
  296MOL0     H39926   7.214   8.587  12.422  2.1058  1.0815  4.0248
  296MOL0     H39927   7.159   8.459  12.537 -1.9640 -1.8018 -1.2548
  296MOL0     H39928   7.404   8.534  12.496  1.0837 -0.6319 -1.1342
  296MOL0     H39929   7.362   8.379  12.565  0.5293 -1.4581 -0.6102
  296MOL0     H39930   7.439   8.442  12.272 -1.7301  1.9141  1.2269
  296MOL0     H39931   7.367   8.289  12.315 -0.2331 -0.6606 -0.8993
  296MOL0     H39932   7.550   8.273  12.503 -2.1392 -1.2568 -1.4793
  296MOL0     H39933   7.614   8.417  12.446 -1.2019 -0.0046  1.6923
  296MOL0     H39934   7.688   8.317  12.233  0.3421  0.8011 -0.2377
  296MOL0     H39935   7.744   8.215  12.359  0.2979 -2.3264 -1.2684
  296MOL0     H39936   7.500   8.182  12.178  2.9471  0.4581 -3.7925
  296MOL0     H39937   7.540   8.077  12.325  1.2924  0.7651  0.1725
  296MOL0     H39938   7.760   8.034  12.191 -0.5983 -3.1371 -1.9731
  296MOL0     H39939   7.614   7.972  12.124  1.0143 -0.7757  1.8833
  296MOL0     H39940   6.758   8.451  12.355  5.3861  2.2089  0.5821
  296MOL0     H39941   6.580   8.326  12.232 -0.1387 -2.6935  0.3848
  296MOL0     H39942   6.388   7.922  12.165  1.2581 -1.3285 -0.2673
  296MOL0     H39943   6.181   7.843  12.060  0.2481 -0.4510  1.0549
  296MOL0     H39944   4.925   8.790  10.916  0.3574 -1.4871 -0.0539
  296MOL0     H39945   4.790   8.907  11.054  2.3818  0.5289 -3.5546
  296MOL0     H39946   4.806   9.021  11.547 -0.2993  2.1296  1.3781
  296MOL0     H39947   4.722   9.122  11.748  0.8132 -0.4468 -1.1861
  296MOL0     H39948   4.320   9.056  11.845  1.0274 -0.7008  0.4271
  296MOL0     H39949   4.290   9.214  11.765  1.2417  0.1990 -0.1731
  296MOL0     H39950   4.373   9.312  11.976 -1.4384  0.8769 -0.4002
  296MOL0     H39951   4.331   9.152  12.062 -1.3871 -2.4297 -1.2339
  296MOL0     H39952   4.114   9.316  11.933 -0.2091 -0.9122 -0.3532
  296MOL0     H39953   4.158   9.295  12.097  1.6256  0.7229  0.1415
  296MOL0     H39954   4.096   9.052  11.920  1.1394  1.9459 -0.6392
  296MOL0     H39955   4.115   9.051  12.092 -1.2646  1.1874  1.1788
  296MOL0     H39956   3.715   9.196  11.984  0.8040  2.8286  1.4879
  296MOL0     H39957   4.331   9.006  11.636 -0.1993 -2.6422 -2.4981
  296MOL0     H39958   4.401   8.777  11.388  0.5984  0.7217 -0.7746
  296MOL0     H39959   4.277   8.867  11.477 -0.3768  1.2919 -0.8834
  296MOL0     H39960   4.347   8.925  11.323 -1.2570 -2.0751 -0.9750
  297MOL0     O39961   0.139   7.953  10.646  0.0378  0.0652  1.0041
  297MOL0     C39962   0.141   7.980  10.523  0.0295  0.5731 -1.0959
  297MOL0     O39963   0.243   8.029  10.456  0.4764  0.5671  0.5042
  297MOL0     C39964   0.360   8.050  10.529 -0.4164 -0.6443 -0.2801
  297MOL0     C39965   0.383   8.191  10.572 -0.2297 -0.1043 -0.2622
  297MOL0     C39966   0.497   8.218  10.659  0.3206  0.1320  0.1014
  297MOL0     C39967   0.586   8.118  10.687  0.7391  0.0163 -0.0457
  297MOL0     O39968   0.681   8.155  10.770 -0.3081 -0.5731 -0.1507
  297MOL0     C39969   0.815   8.097  10.753  0.4247 -0.2036 -0.0458
  297MOL0     C39970   0.915   8.188  10.808 -0.6435 -0.4305  0.1461
  297MOL0     C39971   1.057   8.151  10.779 -0.4580  1.0181  0.2314
  297MOL0     C39972   1.093   8.151  10.629 -0.3107 -0.5654 -0.0928
  297MOL0     C39973   1.192   8.053  10.591  0.0873 -0.3910  0.0780
  297MOL0     C39974   1.214   8.043  10.436  0.2932 -0.5723  0.3639
  297MOL0     C39975   1.113   7.955  10.364  0.5589 -0.0307  0.1039
  297MOL0     C39976   1.121   7.967  10.211  0.9563 -0.0467 -0.5572
  297MOL0     N39977   1.059   7.857  10.125 -0.1127  0.0996  0.0779
  297MOL0     C39978   0.957   7.777  10.166  0.1263 -0.6070  0.5765
  297MOL0     C39979   0.932   7.712  10.047 -0.0386 -0.3144 -0.5278
  297MOL0     C39980   0.829   7.606  10.045  0.5570  0.2142  0.8903
  297MOL0     C39981   0.695   7.652   9.984  0.4437  0.1308  0.4050
  297MOL0     C39982   0.698   7.719   9.850 -0.3922 -0.8048  1.3469
  297MOL0     C39983   0.558   7.718   9.790 -0.5701  0.1453  0.1124
  297MOL0     O39984   0.535   7.590   9.740 -0.1219 -0.4947  0.4822
  297MOL0     C39985   0.411   7.555   9.693  0.1398 -0.5538  0.1837
  297MOL0     C39986   0.402   7.427   9.650  0.5063 -0.2031 -0.1083
  297MOL0     C39987   0.279   7.375   9.601  0.2807 -0.2525 -0.7354
  297MOL0     C39988   0.166   7.458   9.592 -0.1268 -0.9822 -0.3576
  297MOL0     C39989   0.051   7.401   9.533 -0.1699 -0.3768 -0.6674
  297MOL0     O39990   0.056   7.272   9.485 -0.4366 -0.1093  0.0545
  297MOL0     C39991  -0.060   7.222   9.437 -0.0099  0.8917  0.1548
  297MOL0     C39992  -0.178   7.204   9.506  0.1095  0.0514 -0.1165
  297MOL0     C39993  -0.282   7.141   9.444 -0.2445  1.1996 -0.3595
  297MOL0     C39994  -0.280   7.096   9.316  0.0395  0.8739  0.8997
  297MOL0     O39995  -0.396   7.034   9.270 -0.1840  0.4125  0.1351
  297MOL0     C39996  -0.397   6.942   9.156  0.3724  0.1099 -0.7026
  297MOL0     C39997  -0.474   6.828   9.192 -0.3882  0.3638  0.3489
  297MOL0     C39998  -0.464   6.728   9.074  0.3403 -0.1702 -0.4076
  297MOL0     C39999  -0.594   6.647   9.072  0.2790  0.2844  0.0672
  297MOL0     C40000  -0.706   6.723   9.010 -0.1043  0.2047 -0.2883
  297MOL0     C40001  -0.840   6.656   9.033  0.7529  0.0783  0.6204
  297MOL0     C40002  -0.964   6.727   8.964  0.8259  0.2040  0.5799
  297MOL0     C40003  -1.086   6.632   8.955  0.0920 -0.9128 -0.0605
  297MOL0    Cl40004  -1.229   6.705   8.872  0.4695 -0.2836  0.2275
  297MOL0     C40005  -0.162   7.107   9.248  0.8586 -0.0083 -0.0049
  297MOL0     C40006  -0.051   7.168   9.307  0.5095  0.4560  0.0907
  297MOL0     O40007  -0.054   7.468   9.540 -0.4058 -0.2746 -0.7094
  297MOL0     C40008   0.179   7.595   9.635 -0.2904  0.2741 -1.1308
  297MOL0     C40009   0.304   7.644   9.688  0.0676 -0.9869 -1.1142
  297MOL0     N40010   1.011   7.757   9.946 -1.0005 -0.1614 -0.2370
  297MOL0     N40011   1.085   7.840   9.993  0.5248 -0.3154 -0.8454
  297MOL0     C40012   0.571   7.988  10.628  0.0247 -0.5057 -0.0175
  297MOL0     C40013   0.460   7.954  10.548 -0.0043 -0.3477  0.6735
  297MOL0     C40014   0.023   7.949  10.449  0.4656  0.1709  0.0019
  297MOL0     C40015   0.036   7.945  10.301 -0.7876 -0.8423 -1.2016
  297MOL0     C40016  -0.076   7.929  10.227 -1.3559  0.5830 -0.1620
  297MOL0     C40017  -0.199   7.900  10.285 -0.3822 -0.2610  1.1558
  297MOL0     O40018  -0.312   7.882  10.205 -0.0207  0.2310  0.6228
  297MOL0     C40019  -0.307   7.899  10.063 -0.4574 -0.3388 -0.0153
  297MOL0     C40020  -0.431   7.867   9.994 -0.0794 -0.0726  0.0556
  297MOL0     C40021  -0.493   7.735  10.035 -0.4351  0.2790 -0.2139
  297MOL0     C40022  -0.612   7.707   9.939  0.7576 -0.0995  0.2815
  297MOL0     C40023  -0.728   7.788   9.982  0.4730  0.0180  0.3782
  297MOL0     C40024  -0.817   7.854  10.013  0.0478 -0.1555  0.1835
  297MOL0     C40025  -0.213   7.892  10.413  0.2262 -0.4640 -0.8452
  297MOL0     C40026  -0.112   7.937  10.500  0.0446 -0.2517  0.3912
  297MOL0     C40027  -0.143   7.962  10.651  0.0985 -0.8780 -0.3420
  297MOL0     H40028   0.314   8.270  10.545  0.4358  0.3553 -0.6601
  297MOL0     H40029   0.512   8.311  10.712  1.1588  0.4860 -0.7307
  297MOL0     H40030   0.821   8.004  10.809 -1.3591 -0.1607  0.2656
  297MOL0     H40031   0.826   8.072  10.647 -4.7424 -1.2197 -0.6005
  297MOL0     H40032   0.910   8.181  10.917  1.7726  0.5596  0.3740
  297MOL0     H40033   0.890   8.287  10.767  1.9583 -1.4364 -4.6284
  297MOL0     H40034   1.069   8.050  10.817 -0.3476  1.2683  0.8682
  297MOL0     H40035   1.123   8.218  10.834  1.4018  0.5300 -1.2991
  297MOL0     H40036   1.004   8.133  10.567 -1.1040 -0.5943  1.0280
  297MOL0     H40037   1.130   8.252  10.610  0.5473  0.0057  3.7867
  297MOL0     H40038   1.289   8.081  10.632  0.6036  1.1210 -1.9808
  297MOL0     H40039   1.165   7.957  10.636 -0.0190  1.1350  3.6607
  297MOL0     H40040   1.213   8.145  10.398 -1.6489 -0.0260  1.7236
  297MOL0     H40041   1.316   8.012  10.411  0.3487  0.1449 -0.3428
  297MOL0     H40042   1.012   7.972  10.404  0.2248 -1.4219 -0.0801
  297MOL0     H40043   1.131   7.850  10.392 -2.7709 -0.1870  2.2070
  297MOL0     H40044   1.086   8.068  10.187 -0.8337 -0.4279  0.2603
  297MOL0     H40045   1.222   7.977  10.169  0.1341  0.9024 -2.4254
  297MOL0     H40046   0.907   7.769  10.262  0.9697  0.2916  1.1189
  297MOL0     H40047   0.855   7.522   9.980 -2.0173 -0.2241  0.3384
  297MOL0     H40048   0.811   7.570  10.147  1.9096 -0.1321  1.0345
  297MOL0     H40049   0.623   7.570   9.973 -1.7071  2.1768 -1.9701
  297MOL0     H40050   0.641   7.713  10.057  1.3230 -2.0269  3.0340
  297MOL0     H40051   0.775   7.668   9.791 -1.5574 -1.4827  0.3530
  297MOL0     H40052   0.722   7.824   9.867 -2.6976 -0.1625  1.0048
  297MOL0     H40053   0.553   7.798   9.716 -1.3932 -0.2913 -0.3150
  297MOL0     H40054   0.490   7.741   9.873  0.2821 -0.1445  0.9111
  297MOL0     H40055   0.479   7.353   9.671  0.1428  0.2765  3.5050
  297MOL0     H40056   0.272   7.268   9.588  1.4113 -0.3846 -0.3078
  297MOL0     H40057  -0.194   7.242   9.606  0.6105  0.2642 -0.1136
  297MOL0     H40058  -0.368   7.113   9.504 -0.6044 -0.9027 -1.7344
  297MOL0     H40059  -0.453   6.998   9.081 -2.1023  1.2351  1.8078
  297MOL0     H40060  -0.301   6.904   9.120  0.6223 -0.8905  0.8829
  297MOL0     H40061  -0.432   6.785   9.284  2.2123  2.2306  0.1498
  297MOL0     H40062  -0.577   6.858   9.215 -1.5425 -1.8292 -1.5197
  297MOL0     H40063  -0.453   6.778   8.978  0.7825  0.2029 -0.1643
  297MOL0     H40064  -0.377   6.664   9.096 -0.1833 -1.3284 -1.5516
  297MOL0     H40065  -0.623   6.613   9.172  3.9476 -1.2871  0.7469
  297MOL0     H40066  -0.559   6.572   9.001  1.0199  2.4527 -2.0049
  297MOL0     H40067  -0.689   6.738   8.904 -1.1639  1.1949 -0.3396
  297MOL0     H40068  -0.706   6.821   9.057 -2.8287  0.1840 -0.0904
  297MOL0     H40069  -0.836   6.557   8.987  0.0829  0.4175 -0.2072
  297MOL0     H40070  -0.863   6.632   9.137  0.9634 -2.1876  0.2020
  297MOL0     H40071  -0.930   6.753   8.863 -1.3359  0.5511 -0.1083
  297MOL0     H40072  -0.998   6.815   9.020  1.8258  0.6818  0.4607
  297MOL0     H40073  -1.054   6.539   8.908 -0.8858 -1.1848 -0.2162
  297MOL0     H40074  -1.115   6.629   9.061 -2.2593  3.1882 -0.3314
  297MOL0     H40075  -0.154   7.074   9.144 -0.8103 -2.6532  0.5946
  297MOL0     H40076   0.045   7.168   9.255  0.6979  3.0381  0.3161
  297MOL0     H40077   0.090   7.654   9.616 -0.6153 -0.4759 -1.9632
  297MOL0     H40078   0.298   7.746   9.726 -1.3277 -1.3683 -0.2279
  297MOL0     H40079   0.650   7.915  10.640 -0.2729 -0.9676 -0.8370
  297MOL0     H40080   0.449   7.857  10.500  0.9421  0.1474 -0.6112
  297MOL0     H40081   0.131   7.958  10.250 -0.1194 -3.7385 -0.8914
  297MOL0     H40082  -0.069   7.937  10.119  0.8712  0.7303 -0.0493
  297MOL0     H40083  -0.238   7.837  10.006  0.8025  2.7060 -2.0806
  297MOL0     H40084  -0.278   8.004  10.053 -1.4747 -0.0189  0.2017
  297MOL0     H40085  -0.400   7.868   9.889  2.6338 -2.8577  0.6882
  297MOL0     H40086  -0.510   7.942  10.009 -0.2059 -0.1659 -0.1295
  297MOL0     H40087  -0.534   7.749  10.135 -0.3991  0.4615 -0.2254
  297MOL0     H40088  -0.417   7.658  10.017 -0.2208  0.7885 -1.5846
  297MOL0     H40089  -0.591   7.728   9.834 -0.4528  2.4615  0.4681
  297MOL0     H40090  -0.639   7.601   9.944 -0.1867 -0.1109 -3.1046
  297MOL0     H40091  -0.883   7.932  10.045  1.7340  2.2262 -1.7187
  297MOL0     H40092  -0.309   7.868  10.458  0.3248  1.5111  0.5670
  297MOL0     H40093  -0.243   8.001  10.668  1.0964  1.3665  0.8580
  297MOL0     H40094  -0.125   7.873  10.713  0.8121  1.4370  3.0914
  297MOL0     H40095  -0.084   8.044  10.693 -3.5965  1.6742  0.3199
  298MOL0     O40096   0.447   0.170   4.695  0.2846  0.8565 -0.1951
  298MOL0     C40097   0.412   0.258   4.772 -0.1703  0.4310  0.0451
  298MOL0     O40098   0.490   0.349   4.838 -0.0723  0.2291 -0.3594
  298MOL0     C40099   0.620   0.334   4.822 -0.8088 -0.2314  0.1536
  298MOL0     C40100   0.693   0.281   4.923 -0.1216 -0.2314  0.0173
  298MOL0     C40101   0.832   0.279   4.917 -0.6818  0.5992 -0.2615
  298MOL0     C40102   0.901   0.313   4.801  0.1070 -0.3312 -0.6352
  298MOL0     O40103   1.035   0.285   4.783  1.0482  0.6350  0.6955
  298MOL0     C40104   1.123   0.402   4.764  1.0370  0.7926 -0.6688
  298MOL0     C40105   1.261   0.334   4.733 -0.1330 -0.1829 -0.2586
  298MOL0     C40106   1.363   0.432   4.670  1.1044 -0.1663  0.4993
  298MOL0     C40107   1.498   0.364   4.644  0.2962  0.0117 -0.4926
  298MOL0     C40108   1.594   0.431   4.552 -1.4647 -0.0183  0.0690
  298MOL0     C40109   1.647   0.565   4.614  0.2829 -0.5064 -0.2136
  298MOL0     C40110   1.702   0.652   4.504 -0.7038  0.4220  0.1932
  298MOL0     C40111   1.834   0.600   4.445 -0.3048  0.0578 -0.3134
  298MOL0     N40112   1.951   0.681   4.491 -0.3158 -0.6219 -0.6602
  298MOL0     C40113   2.032   0.767   4.419  0.3026 -0.0546  0.1735
  298MOL0     C40114   2.101   0.845   4.510  0.4536  1.2240 -0.0494
  298MOL0     C40115   2.207   0.942   4.474 -0.1256  0.5290 -0.1309
  298MOL0     C40116   2.349   0.894   4.521  0.2729  0.2202  0.1095
  298MOL0     C40117   2.359   0.914   4.679 -0.5077 -0.7703  0.1805
  298MOL0     C40118   2.501   0.908   4.724 -0.3806 -0.6237  0.0587
  298MOL0     O40119   2.537   0.770   4.714  0.5049 -0.0486  0.9086
  298MOL0     C40120   2.670   0.740   4.722  0.5927  0.1106  0.6475
  298MOL0     C40121   2.774   0.829   4.746 -0.5206 -0.8798 -0.8751
  298MOL0     C40122   2.907   0.785   4.756 -0.4725 -0.2087 -0.0378
  298MOL0     C40123   2.946   0.652   4.715  0.4500 -0.4843  0.2931
  298MOL0     C40124   3.081   0.611   4.737 -0.6618  1.1293 -0.1195
  298MOL0     O40125   3.180   0.696   4.771  0.2997  1.4434  0.3872
  298MOL0     C40126   3.295   0.658   4.836 -0.6481  0.9291 -0.2091
  298MOL0     C40127   3.313   0.539   4.915 -0.0715  0.8363 -0.0072
  298MOL0     C40128   3.430   0.498   4.989 -0.9801 -0.3921  0.1717
  298MOL0     C40129   3.533   0.594   4.998  0.4617  0.4731 -0.2465
  298MOL0     O40130   3.653   0.578   5.062 -0.1914 -0.2331 -0.2786
  298MOL0     C40131   3.712   0.455   5.091 -0.0791  0.7945 -0.0688
  298MOL0     C40132   3.812   0.453   5.200 -0.6364  0.0059  0.4286
  298MOL0     C40133   3.949   0.462   5.138  0.2269 -0.2608 -0.1666
  298MOL0     C40134   4.067   0.470   5.240 -0.1228  0.7371 -0.4220
  298MOL0     C40135   4.212   0.439   5.184  0.1078  0.2337  1.3376
  298MOL0     C40136   4.327   0.459   5.284 -0.3039  0.1874  0.2441
  298MOL0     C40137   4.322   0.386   5.420  0.5457  0.4452  0.1075
  298MOL0     C40138   4.413   0.264   5.446 -0.2707  0.3803 -0.1016
  298MOL0    Cl40139   4.388   0.153   5.323 -0.0286  0.4469 -0.1026
  298MOL0     C40140   3.521   0.714   4.926 -0.0691 -0.4316  0.2635
  298MOL0     C40141   3.403   0.748   4.847 -0.6145 -0.1426  0.5357
  298MOL0     O40142   3.095   0.484   4.737 -0.3206 -0.1608  0.2795
  298MOL0     C40143   2.842   0.576   4.673  0.2902  0.6789 -0.5589
  298MOL0     C40144   2.708   0.607   4.686  0.7458 -1.3545  0.1230
  298MOL0     N40145   2.066   0.798   4.638  0.6713  0.1427 -0.7611
  298MOL0     N40146   1.982   0.703   4.619 -0.7428  0.7083  0.1293
  298MOL0     C40147   0.824   0.361   4.697  0.0463 -0.1748 -0.1748
  298MOL0     C40148   0.686   0.375   4.705 -0.1672 -0.7453  0.0396
  298MOL0     C40149   0.266   0.249   4.790 -0.6789  0.1967  0.1937
  298MOL0     C40150   0.185   0.272   4.679 -0.3112 -0.5282 -0.0791
  298MOL0     C40151   0.045   0.272   4.684 -0.9449  0.7088  0.4903
  298MOL0     C40152  -0.014   0.236   4.815 -0.6528  0.1929  0.2252
  298MOL0     O40153  -0.150   0.227   4.840  0.2863  1.1072 -0.5188
  298MOL0     C40154  -0.240   0.202   4.735  0.6198 -0.0347 -0.2721
  298MOL0     C40155  -0.381   0.199   4.781  0.0986  0.9194  0.3859
  298MOL0     C40156  -0.443   0.320   4.843 -0.2560 -0.1222  1.0864
  298MOL0     C40157  -0.593   0.302   4.880 -0.0250 -0.6940 -0.7536
  298MOL0     C40158  -0.677   0.257   4.766  0.2125  0.3445 -0.3557
  298MOL0     C40159  -0.755   0.240   4.672 -0.7083  1.2675  0.7171
  298MOL0     C40160   0.067   0.223   4.924 -0.0744  0.1344  0.1187
  298MOL0     C40161   0.209   0.230   4.919  0.0534 -0.4392 -0.7051
  298MOL0     C40162   0.295   0.193   5.040 -0.4053  0.3487 -0.1499
  298MOL0     H40163   0.629   0.253   5.006  0.8158 -0.6410  0.6111
  298MOL0     H40164   0.890   0.244   5.001 -1.9695  1.5135  1.0673
  298MOL0     H40165   1.086   0.468   4.685 -3.5250  0.3236  0.7889
  298MOL0     H40166   1.137   0.463   4.854 -0.4519 -1.2104  1.0280
  298MOL0     H40167   1.248   0.249   4.665  1.8711 -0.5223 -0.2732
  298MOL0     H40168   1.308   0.301   4.826  1.7616 -0.1090 -1.1477
  298MOL0     H40169   1.371   0.530   4.717 -0.0115 -0.1620  0.6865
  298MOL0     H40170   1.312   0.457   4.577  1.2470  0.2359  0.5285
  298MOL0     H40171   1.547   0.359   4.741 -1.3000 -0.0225  0.3533
  298MOL0     H40172   1.481   0.263   4.606  0.7303  0.1790 -1.1400
  298MOL0     H40173   1.679   0.362   4.548 -0.5812  1.0655 -1.6824
  298MOL0     H40174   1.556   0.442   4.450 -1.8129 -2.6806 -0.1662
  298MOL0     H40175   1.563   0.620   4.657 -0.7297 -2.5632  0.5322
  298MOL0     H40176   1.723   0.551   4.692  1.9470  0.3515 -1.5910
  298MOL0     H40177   1.725   0.748   4.552  1.6104  0.0615 -0.1065
  298MOL0     H40178   1.634   0.660   4.418 -2.2293 -0.3597  1.2711
  298MOL0     H40179   1.853   0.499   4.482 -1.0213  0.8652  2.5203
  298MOL0     H40180   1.829   0.591   4.336  1.4813 -1.1959 -0.3290
  298MOL0     H40181   2.031   0.783   4.311 -0.3145 -1.8438 -0.1260
  298MOL0     H40182   2.202   0.941   4.365 -1.8317 -0.6321 -0.0884
  298MOL0     H40183   2.197   1.043   4.514  1.9798  1.8184 -2.6115
  298MOL0     H40184   2.353   0.791   4.485 -0.9251  1.3495 -3.7366
  298MOL0     H40185   2.418   0.959   4.467  1.1326  0.3318  1.3229
  298MOL0     H40186   2.292   0.848   4.733 -1.1119 -1.7054 -1.6297
  298MOL0     H40187   2.318   1.013   4.702 -0.9545 -0.6635 -0.9941
  298MOL0     H40188   2.517   0.938   4.828  0.3263 -2.2729  0.4642
  298MOL0     H40189   2.568   0.962   4.657  0.1712 -2.8847 -1.3289
  298MOL0     H40190   2.756   0.933   4.769  2.8208 -0.1141 -1.2387
  298MOL0     H40191   2.982   0.857   4.787 -2.0030  0.9732  1.0720
  298MOL0     H40192   3.242   0.458   4.924  0.0835  0.7665  0.6692
  298MOL0     H40193   3.448   0.400   5.033  2.3993  0.8939  2.0217
  298MOL0     H40194   3.637   0.382   5.123 -0.5852  1.3948  0.1389
  298MOL0     H40195   3.751   0.418   4.995 -1.6427 -0.3999 -0.2918
  298MOL0     H40196   3.785   0.543   5.256  1.7163  0.7399  0.4976
  298MOL0     H40197   3.816   0.358   5.253  2.2946  0.0496  0.4516
  298MOL0     H40198   3.966   0.375   5.074  1.9027  2.0509 -3.0706
  298MOL0     H40199   3.961   0.537   5.061  1.2163 -1.4356 -1.1955
  298MOL0     H40200   4.035   0.394   5.312 -1.3928  2.4033  0.8734
  298MOL0     H40201   4.049   0.562   5.297 -0.8861  0.0718  0.4416
  298MOL0     H40202   4.212   0.506   5.098 -2.3609  1.7547  2.4256
  298MOL0     H40203   4.215   0.334   5.153 -1.4298 -0.2522  2.6752
  298MOL0     H40204   4.421   0.428   5.237  0.4248  1.3129  0.9243
  298MOL0     H40205   4.339   0.566   5.300 -0.6798  0.4965 -1.3460
  298MOL0     H40206   4.220   0.362   5.448 -0.3930  0.4363 -2.9170
  298MOL0     H40207   4.358   0.464   5.487  1.1174 -0.8291  1.3446
  298MOL0     H40208   4.517   0.296   5.443  0.1954 -1.0906 -0.3778
  298MOL0     H40209   4.390   0.218   5.543  0.8149 -2.6066 -1.1252
  298MOL0     H40210   3.606   0.780   4.933 -0.0698 -0.1305 -1.8677
  298MOL0     H40211   3.393   0.838   4.787  0.4793  0.8291  1.7118
  298MOL0     H40212   2.867   0.475   4.641  1.3379  0.5170  0.6758
  298MOL0     H40213   2.636   0.530   4.659  0.0989 -0.9692  0.7196
  298MOL0     H40214   0.874   0.379   4.603  0.6043  0.7093  0.2799
  298MOL0     H40215   0.637   0.418   4.619  1.4260  0.1836 -0.4630
  298MOL0     H40216   0.219   0.298   4.579 -0.2404  0.3995  0.1810
  298MOL0     H40217  -0.016   0.283   4.594  0.2735 -1.6332 -0.7032
  298MOL0     H40218  -0.207   0.107   4.692  1.8680  0.9164 -1.5118
  298MOL0     H40219  -0.225   0.273   4.653  1.0691  3.8135  2.8521
  298MOL0     H40220  -0.400   0.114   4.847  0.9061 -0.2097 -0.7847
  298MOL0     H40221  -0.435   0.179   4.688  1.2887  0.8184 -0.2929
  298MOL0     H40222  -0.425   0.400   4.770  3.8892 -0.2262  1.7697
  298MOL0     H40223  -0.383   0.339   4.932 -0.7211 -1.5737  1.7354
  298MOL0     H40224  -0.615   0.240   4.967  0.0559 -0.5211 -0.6106
  298MOL0     H40225  -0.631   0.403   4.898  0.8188 -0.2214 -1.5422
  298MOL0     H40226  -0.821   0.221   4.589  1.1458  0.4696 -0.6584
  298MOL0     H40227   0.018   0.177   5.009  1.3767 -2.7223 -0.4554
  298MOL0     H40228   0.355   0.105   5.015 -1.3207 -0.5254  0.6401
  298MOL0     H40229   0.361   0.273   5.073  2.2788 -1.2452 -1.3038
  298MOL0     H40230   0.224   0.155   5.114 -1.9762  1.1743 -1.1827
  299MOL0     O40231   9.002   7.132   3.365 -0.1058 -0.1197 -1.1286
  299MOL0     C40232   8.990   7.255   3.347 -0.3918 -0.1312  0.2144
  299MOL0     O40233   9.093   7.332   3.306  0.1225 -0.2269 -0.0306
  299MOL0     C40234   9.224   7.290   3.309  0.7429  0.9848  0.5366
  299MOL0     C40235   9.309   7.325   3.415 -0.2564 -0.7213 -0.1882
  299MOL0     C40236   9.446   7.278   3.413 -0.0257  0.2707  0.0162
  299MOL0     C40237   9.492   7.206   3.302 -0.2015 -0.7047 -0.2495
  299MOL0     O40238   9.623   7.173   3.285 -0.8002 -0.6393 -0.5728
  299MOL0     C40239   9.721   7.229   3.383 -0.8723  0.4455  0.1918
  299MOL0     C40240   9.856   7.168   3.348 -0.1685 -0.5979 -0.1151
  299MOL0     C40241   9.964   7.217   3.446 -0.1855 -0.5814 -0.3703
  299MOL0     C40242  10.090   7.142   3.480 -0.9563 -0.2714  0.8290
  299MOL0     C40243  10.191   7.113   3.359 -0.0749  0.5474 -0.6424
  299MOL0     C40244  10.309   7.026   3.420 -1.2496  0.1137 -0.7599
  299MOL0     C40245  10.401   6.983   3.310  0.0029 -0.6867  0.8312
  299MOL0     C40246  10.532   6.935   3.360 -0.4308 -0.4967 -0.2128
  299MOL0     N40247  10.626   6.914   3.247  0.0281 -0.1666 -0.7341
  299MOL0     C40248  10.708   7.013   3.189 -0.2337  0.8390 -0.0058
  299MOL0     C40249  10.792   6.934   3.118  0.7850  0.8265 -0.3787
  299MOL0     C40250  10.918   6.981   3.067 -0.1470 -0.2420  0.0365
  299MOL0     C40251  11.030   6.910   3.138 -0.4047  0.2972 -0.3335
  299MOL0     C40252  11.164   6.925   3.065  0.2400 -0.2087 -0.2443
  299MOL0     C40253  11.275   6.860   3.139  0.4265  0.6447  0.3437
  299MOL0     O40254  11.391   6.874   3.060 -0.6783 -0.3260  0.3802
  299MOL0     C40255  11.478   6.971   3.111 -0.4085  0.6651  0.1984
  299MOL0     C40256  11.545   6.949   3.239  0.5691  0.7353  0.0508
  299MOL0     C40257  11.640   7.040   3.279  0.2557  0.0685  0.8682
  299MOL0     C40258  11.675   7.153   3.194 -0.2279  0.1378 -0.3545
  299MOL0     C40259  11.774   7.248   3.238  0.5623 -0.5052 -0.1295
  299MOL0     O40260  11.767   7.367   3.160 -0.2294  0.5765  0.2070
  299MOL0     C40261  11.878   7.446   3.163 -0.1512  0.2946  0.6546
  299MOL0     C40262  11.843   7.581   3.142  0.6402  0.6285 -0.0564
  299MOL0     C40263  11.939   7.679   3.132  0.2197  0.1796 -0.0304
  299MOL0     C40264  12.078   7.649   3.147  0.1625  0.4823 -0.8528
  299MOL0     O40265  12.170   7.748   3.147  0.5670  0.3645 -0.4307
  299MOL0     C40266  12.268   7.755   3.255  0.0902  0.9889  0.3187
  299MOL0     C40267  12.397   7.710   3.189 -0.2069 -0.5984  0.1840
  299MOL0     C40268  12.514   7.728   3.286 -0.2643  0.6163  0.1864
  299MOL0     C40269  12.647   7.731   3.219  0.5953  0.0240  0.4191
  299MOL0     C40270  12.765   7.751   3.317 -0.6859  0.7277 -0.2533
  299MOL0     C40271  12.868   7.859   3.270  0.2562 -0.5090  0.9240
  299MOL0     C40272  12.993   7.851   3.359 -0.2165 -0.0787  0.4947
  299MOL0     C40273  13.083   7.968   3.349  0.2757  0.5038 -0.5298
  299MOL0    Cl40274  13.230   7.937   3.452 -0.0788  0.0380  0.1397
  299MOL0     C40275  12.117   7.512   3.154  0.0838  0.8028  0.4406
  299MOL0     C40276  12.013   7.413   3.166 -0.1092 -0.0800  0.8667
  299MOL0     O40277  11.851   7.224   3.324  0.0600 -0.7927 -0.4118
  299MOL0     C40278  11.614   7.172   3.073 -0.4911  0.4880 -0.1891
  299MOL0     C40279  11.517   7.080   3.034 -0.0759  0.3365  0.1534
  299MOL0     N40280  10.761   6.801   3.128 -0.1635 -0.1644 -0.4597
  299MOL0     N40281  10.665   6.788   3.206  0.0433 -0.8901  0.7882
  299MOL0     C40282   9.398   7.170   3.201 -0.0565  0.4728  0.0311
  299MOL0     C40283   9.263   7.205   3.205 -0.2679 -0.5709  0.0371
  299MOL0     C40284   8.857   7.319   3.383 -0.2121  0.6394  0.1043
  299MOL0     C40285   8.744   7.250   3.373  0.0168  0.0605  0.9417
  299MOL0     C40286   8.615   7.306   3.401 -0.0767  0.7697 -0.0885
  299MOL0     C40287   8.606   7.439   3.444 -0.6079  0.3715 -0.5232
  299MOL0     O40288   8.487   7.496   3.475 -0.0364 -0.9857  0.6395
  299MOL0     C40289   8.401   7.507   3.365  0.8692 -0.7684 -0.3473
  299MOL0     C40290   8.304   7.628   3.393 -0.2161  0.3057  0.3541
  299MOL0     C40291   8.371   7.765   3.386 -0.5080 -0.6031  0.6601
  299MOL0     C40292   8.256   7.874   3.400  0.1976  0.2394 -0.6790
  299MOL0     C40293   8.172   7.860   3.523 -0.3058  0.6050 -0.0510
  299MOL0     C40294   8.127   7.839   3.634  0.2556  0.9987 -0.0611
  299MOL0     C40295   8.715   7.512   3.452 -0.2302 -0.2986 -0.3897
  299MOL0     C40296   8.845   7.457   3.426  0.0284 -0.6417  0.3618
  299MOL0     C40297   8.961   7.554   3.424  0.4822  0.6785 -0.4974
  299MOL0     H40298   9.266   7.378   3.499 -0.0654  0.2898 -0.7083
  299MOL0     H40299   9.511   7.310   3.495  1.6613 -0.3685 -1.0089
  299MOL0     H40300   9.724   7.338   3.390  0.4171  0.3100  2.7823
  299MOL0     H40301   9.693   7.185   3.479  1.6343 -2.3651 -0.2085
  299MOL0     H40302   9.889   7.199   3.249  0.9174 -1.9293 -0.1887
  299MOL0     H40303   9.849   7.059   3.341 -0.4734 -0.7194  1.5105
  299MOL0     H40304   9.911   7.211   3.541 -0.9067  1.2509 -0.6091
  299MOL0     H40305   9.984   7.317   3.408  1.4083 -0.6025  0.3324
  299MOL0     H40306  10.151   7.195   3.554 -0.6067 -1.5559  1.4969
  299MOL0     H40307  10.066   7.047   3.530 -0.8794 -0.5381  0.3726
  299MOL0     H40308  10.143   7.060   3.276  1.3238 -0.1574 -1.0228
  299MOL0     H40309  10.234   7.205   3.319 -1.0215  1.4184  0.2991
  299MOL0     H40310  10.362   7.085   3.495  1.6733 -1.2106 -1.6433
  299MOL0     H40311  10.259   6.947   3.477 -2.4221  2.8979  2.4526
  299MOL0     H40312  10.407   7.076   3.254 -3.3077  0.7423  2.5376
  299MOL0     H40313  10.358   6.901   3.251  3.1061 -0.7662 -1.5425
  299MOL0     H40314  10.575   7.014   3.422 -1.7768 -0.3109  0.5204
  299MOL0     H40315  10.526   6.840   3.415 -0.8083 -1.4768 -1.8768
  299MOL0     H40316  10.709   7.118   3.219  2.2442  0.0351  3.3890
  299MOL0     H40317  10.935   6.967   2.960  4.7763 -1.5276  0.7090
  299MOL0     H40318  10.919   7.089   3.083 -3.4804  0.0448 -0.9255
  299MOL0     H40319  11.049   6.943   3.241 -0.1928  0.4869 -0.4332
  299MOL0     H40320  10.998   6.805   3.139 -1.2171  0.5237  1.3208
  299MOL0     H40321  11.183   7.032   3.052 -1.9153  0.3455  0.8118
  299MOL0     H40322  11.170   6.882   2.965  0.3640 -0.4398 -0.1373
  299MOL0     H40323  11.258   6.755   3.164 -1.1058  0.7841 -0.0121
  299MOL0     H40324  11.271   6.913   3.235 -0.7094 -0.4648  0.9426
  299MOL0     H40325  11.523   6.864   3.302 -1.4245  2.7022  2.2617
  299MOL0     H40326  11.701   7.009   3.363  1.7737 -1.9252 -0.8389
  299MOL0     H40327  11.738   7.602   3.126  1.0558  1.4275 -2.0993
  299MOL0     H40328  11.899   7.780   3.131 -1.7338 -0.5026  1.5244
  299MOL0     H40329  12.283   7.858   3.290  0.4624  0.7882  0.7528
  299MOL0     H40330  12.245   7.684   3.335  0.1816 -0.8070 -1.1754
  299MOL0     H40331  12.382   7.612   3.144 -2.2446  0.5483 -1.8198
  299MOL0     H40332  12.430   7.773   3.106  2.8189 -1.5883  0.5116
  299MOL0     H40333  12.498   7.818   3.345 -1.2963 -0.2243  1.2414
  299MOL0     H40334  12.520   7.641   3.353  1.3100  0.2933 -0.3491
  299MOL0     H40335  12.642   7.822   3.159  0.9251  0.4068  0.9682
  299MOL0     H40336  12.664   7.649   3.148 -0.8891 -2.2705  2.5522
  299MOL0     H40337  12.809   7.651   3.310  0.3387  1.1834 -0.4537
  299MOL0     H40338  12.734   7.761   3.421 -2.1230 -0.2280 -0.5593
  299MOL0     H40339  12.883   7.846   3.162  0.5210 -0.4569  0.9539
  299MOL0     H40340  12.827   7.959   3.286  0.0162  0.8835 -5.5052
  299MOL0     H40341  13.049   7.763   3.326  1.2806  0.8862  0.3798
  299MOL0     H40342  12.964   7.832   3.463  0.7090 -2.6393  0.3652
  299MOL0     H40343  13.110   7.978   3.243  0.7745 -0.1067 -0.4663
  299MOL0     H40344  13.032   8.059   3.381 -1.3188  0.0162 -1.5558
  299MOL0     H40345  12.222   7.487   3.158  0.2954  1.1994 -1.7231
  299MOL0     H40346  12.042   7.309   3.171  1.2457  0.1655 -0.8637
  299MOL0     H40347  11.644   7.252   3.007 -1.3550  1.1769  0.2354
  299MOL0     H40348  11.473   7.100   2.937 -2.9004 -2.0269  0.7987
  299MOL0     H40349   9.440   7.099   3.131  0.9266 -0.7523  1.7630
  299MOL0     H40350   9.196   7.178   3.125  1.1342 -1.7215 -0.8069
  299MOL0     H40351   8.735   7.146   3.344 -0.6642 -0.1891  1.9781
  299MOL0     H40352   8.530   7.239   3.397  2.7364 -3.1186  0.3279
  299MOL0     H40353   8.342   7.416   3.350 -0.1869 -0.1963  0.2421
  299MOL0     H40354   8.462   7.534   3.278  1.9584 -0.0580  0.6178
  299MOL0     H40355   8.252   7.616   3.489  1.1155 -0.7584  0.9897
  299MOL0     H40356   8.232   7.615   3.312  0.4471 -0.3142 -0.1476
  299MOL0     H40357   8.427   7.788   3.295  1.7428 -2.5461  1.4523
  299MOL0     H40358   8.442   7.768   3.469 -2.2886 -1.4549  2.3187
  299MOL0     H40359   8.311   7.967   3.414  0.5210 -0.1470  0.7429
  299MOL0     H40360   8.194   7.883   3.310 -1.0945  1.4620  0.2948
  299MOL0     H40361   8.067   7.837   3.723  1.5447 -0.4528  0.8126
  299MOL0     H40362   8.698   7.614   3.485 -0.5518  0.3331 -2.3992
  299MOL0     H40363   8.946   7.632   3.499  0.2572 -0.4238  0.6382
  299MOL0     H40364   9.047   7.499   3.463  0.1312 -2.3051 -3.4766
  299MOL0     H40365   8.995   7.591   3.327 -0.2245 -1.3055 -1.5554
  300MOL0     O40366  11.256   9.397   9.123 -0.0988  0.3194 -0.2479
  300MOL0     C40367  11.222   9.283   9.099 -0.5638 -0.1293 -0.2486
  300MOL0     O40368  11.296   9.167   9.127 -0.0710  0.7409 -0.4969
  300MOL0     C40369  11.431   9.182   9.127  0.3204 -0.4805  0.0159
  300MOL0     C40370  11.507   9.192   9.248  0.0259 -0.7183  0.0334
  300MOL0     C40371  11.647   9.200   9.247 -1.2167 -1.2376  1.2078
  300MOL0     C40372  11.707   9.205   9.116 -0.9198  0.4718  0.3172
  300MOL0     O40373  11.845   9.230   9.099  0.5454  0.5923  0.2303
  300MOL0     C40374  11.924   9.242   9.214 -0.3126 -0.9973 -0.3559
  300MOL0     C40375  12.074   9.284   9.183  1.1125 -0.2099  0.5801
  300MOL0     C40376  12.164   9.174   9.134  0.2802  0.2147 -0.4384
  300MOL0     C40377  12.302   9.227   9.133 -0.1186 -0.7230 -0.4149
  300MOL0     C40378  12.402   9.169   9.028  0.2122 -0.1988 -1.0709
  300MOL0     C40379  12.550   9.230   9.049 -0.3686 -0.0264  0.0708
  300MOL0     C40380  12.664   9.158   8.977  0.1174  0.1349  0.3547
  300MOL0     C40381  12.802   9.227   9.002  0.3001  0.1081 -0.0522
  300MOL0     N40382  12.874   9.155   9.107 -0.0563 -0.4155 -0.3608
  300MOL0     C40383  12.873   9.194   9.239 -0.0566  0.3591 -0.9430
  300MOL0     C40384  12.953   9.107   9.301  0.7278 -0.5982  0.1580
  300MOL0     C40385  12.965   9.114   9.455 -0.7442  0.4091 -0.6429
  300MOL0     C40386  13.114   9.104   9.482 -0.9091 -0.0714 -1.1103
  300MOL0     C40387  13.197   9.215   9.415 -0.0178 -0.6551 -1.2902
  300MOL0     C40388  13.346   9.203   9.438  0.4746 -0.5171  0.4734
  300MOL0     O40389  13.424   9.273   9.333 -0.8458 -0.7819  0.0403
  300MOL0     C40390  13.560   9.268   9.353 -0.3920 -0.1724 -0.1293
  300MOL0     C40391  13.618   9.306   9.236 -0.2766  0.5084  0.4277
  300MOL0     C40392  13.757   9.286   9.224  0.4815  0.4041  0.1983
  300MOL0     C40393  13.835   9.236   9.334  0.8722  0.5393  0.1347
  300MOL0     C40394  13.979   9.192   9.318 -0.4068 -0.2153  0.3656
  300MOL0     O40395  14.030   9.191   9.193  0.3652 -0.0142  0.4404
  300MOL0     C40396  14.152   9.144   9.153 -0.2766 -0.4916 -1.0585
  300MOL0     C40397  14.266   9.111   9.231  0.5188  0.1283 -0.6683
  300MOL0     C40398  14.378   9.051   9.172  0.8950 -0.3101  0.4858
  300MOL0     C40399  14.393   9.046   9.037  0.3143  0.4632  0.3869
  300MOL0     O40400  14.510   8.985   8.999 -0.4632 -0.2182  0.3947
  300MOL0     C40401  14.543   8.982   8.855 -0.8599 -0.6712  0.2393
  300MOL0     C40402  14.685   8.925   8.834  0.2085 -0.7834  0.7228
  300MOL0     C40403  14.793   8.983   8.927 -0.4773 -0.2112 -1.2357
  300MOL0     C40404  14.932   8.930   8.891 -0.2072  0.5308 -0.5891
  300MOL0     C40405  15.045   8.983   8.988  0.9813  0.7216  0.7312
  300MOL0     C40406  15.181   8.918   8.952 -0.1737  0.2735  0.1880
  300MOL0     C40407  15.225   8.948   8.807  0.1769 -0.7634 -0.4755
  300MOL0     C40408  15.353   8.872   8.770 -0.1385 -0.0622 -0.2470
  300MOL0    Cl40409  15.336   8.692   8.815 -0.2092 -0.2364  0.4069
  300MOL0     C40410  14.283   9.080   8.956 -0.6127  0.1515  0.0106
  300MOL0     C40411  14.161   9.120   9.015  1.0847  0.4827  0.1258
  300MOL0     O40412  14.047   9.159   9.419  0.9330 -0.2037 -0.1561
  300MOL0     C40413  13.764   9.206   9.453 -1.0541 -0.8897 -0.7159
  300MOL0     C40414  13.629   9.225   9.470 -0.4915  0.1824 -0.5809
  300MOL0     N40415  13.007   9.018   9.210 -0.6113  0.1748 -0.2259
  300MOL0     N40416  12.951   9.047   9.094 -0.2728  0.3410  0.1693
  300MOL0     C40417  11.637   9.196   8.997 -0.3862 -0.3003 -0.1137
  300MOL0     C40418  11.501   9.191   9.001 -0.1823  0.6732 -0.2031
  300MOL0     C40419  11.080   9.267   9.057 -0.4640  0.0587  0.0790
  300MOL0     C40420  10.987   9.364   9.098  0.0485  0.7908  0.1077
  300MOL0     C40421  10.850   9.343   9.069  0.2879  0.3343  0.2362
  300MOL0     C40422  10.810   9.232   8.994  0.1649 -0.0870 -0.3348
  300MOL0     O40423  10.675   9.228   8.981 -0.7131  0.1518 -0.1163
  300MOL0     C40424  10.624   9.130   8.900 -0.5515  0.0379 -0.2391
  300MOL0     C40425  10.481   9.178   8.878  0.4232  0.5926  0.6910
  300MOL0     C40426  10.395   9.089   8.785  0.3145  0.3613 -0.6676
  300MOL0     C40427  10.429   9.098   8.641  0.1074  0.1849  0.3722
  300MOL0     C40428  10.398   9.234   8.599 -0.2193  0.0803  1.0085
  300MOL0     C40429  10.371   9.344   8.557  0.1942 -0.0309  0.3511
  300MOL0     C40430  10.901   9.137   8.945 -0.3211 -0.2470 -0.2003
  300MOL0     C40431  11.040   9.158   8.972 -0.3337  0.7292 -0.0949
  300MOL0     C40432  11.142   9.067   8.916 -0.5953 -0.6014  0.2633
  300MOL0     H40433  11.451   9.178   9.339 -0.2318 -1.1493 -0.1881
  300MOL0     H40434  11.712   9.210   9.333  2.1032 -0.5568 -1.1535
  300MOL0     H40435  11.873   9.326   9.262 -3.4170 -1.4284 -2.5799
  300MOL0     H40436  11.927   9.151   9.274 -1.7828 -0.2601  0.9064
  300MOL0     H40437  12.115   9.327   9.275 -2.1058  1.0033  1.5840
  300MOL0     H40438  12.076   9.368   9.113  1.0473  2.1236  3.2345
  300MOL0     H40439  12.142   9.143   9.032  0.3836  1.2454 -0.7829
  300MOL0     H40440  12.146   9.090   9.202 -3.4031  0.0012 -1.4823
  300MOL0     H40441  12.297   9.335   9.116  3.2483 -0.2961  0.5961
  300MOL0     H40442  12.351   9.222   9.230 -0.1268  0.2649 -0.3503
  300MOL0     H40443  12.402   9.060   9.042 -0.2457  0.0044  0.8613
  300MOL0     H40444  12.366   9.189   8.927 -0.8187  2.4087 -0.2491
  300MOL0     H40445  12.546   9.337   9.024 -0.7645  0.1998  1.0717
  300MOL0     H40446  12.560   9.221   9.157 -3.5685 -0.1864  0.4656
  300MOL0     H40447  12.642   9.151   8.870 -1.8109 -0.4485  0.7311
  300MOL0     H40448  12.668   9.055   9.014  0.7816 -0.1842 -0.5819
  300MOL0     H40449  12.864   9.223   8.913  0.7779  0.6279  0.2532
  300MOL0     H40450  12.791   9.334   9.020  1.0829  0.0899  0.5876
  300MOL0     H40451  12.829   9.284   9.282 -1.2945  2.2333 -5.5702
  300MOL0     H40452  12.932   9.211   9.492  1.9120  1.8069 -1.7024
  300MOL0     H40453  12.903   9.036   9.501  0.5935  0.4806  1.3460
  300MOL0     H40454  13.131   9.113   9.589 -0.1154 -0.1650 -1.2234
  300MOL0     H40455  13.156   9.010   9.443  0.7836 -0.1958  0.8746
  300MOL0     H40456  13.152   9.307   9.454 -0.1592 -1.4142  0.4337
  300MOL0     H40457  13.182   9.219   9.307  2.0861 -2.4355 -1.7228
  300MOL0     H40458  13.375   9.098   9.436 -0.2913 -0.7485  1.1784
  300MOL0     H40459  13.381   9.249   9.531  1.3307 -3.2262  1.5723
  300MOL0     H40460  13.560   9.351   9.155  1.2621 -0.4232 -1.2521
  300MOL0     H40461  13.793   9.307   9.124 -1.4223  2.4255 -0.1341
  300MOL0     H40462  14.263   9.120   9.339  1.0683  0.1145 -0.6471
  300MOL0     H40463  14.459   9.029   9.240  0.1500  0.7638  1.7632
  300MOL0     H40464  14.475   8.917   8.801 -0.2521 -0.9985 -0.1312
  300MOL0     H40465  14.542   9.083   8.813  0.5689 -0.4825  0.5816
  300MOL0     H40466  14.689   8.816   8.846 -0.4645 -1.0936 -1.4512
  300MOL0     H40467  14.702   8.957   8.731 -0.6772 -1.4885  0.3402
  300MOL0     H40468  14.801   9.091   8.920  0.6017 -0.2922 -1.3630
  300MOL0     H40469  14.776   8.966   9.034  1.8055  0.4318 -0.7066
  300MOL0     H40470  14.943   8.970   8.790  2.2138  1.8148  0.1003
  300MOL0     H40471  14.938   8.821   8.882 -0.1277  0.4662  0.1329
  300MOL0     H40472  15.005   8.955   9.086  0.0251  1.1747  0.4849
  300MOL0     H40473  15.052   9.092   8.983 -1.3878  0.9027  0.1737
  300MOL0     H40474  15.253   8.965   9.020  1.1288 -2.6669  0.9861
  300MOL0     H40475  15.168   8.812   8.974 -3.5046  1.0681  2.8825
  300MOL0     H40476  15.236   9.056   8.795 -4.2466  0.5053  3.6631
  300MOL0     H40477  15.152   8.910   8.734  0.6293 -1.9319 -0.3426
  300MOL0     H40478  15.372   8.890   8.663  1.4295 -1.3570 -0.2325
  300MOL0     H40479  15.433   8.915   8.832  1.1825 -4.0725  1.0962
  300MOL0     H40480  14.279   9.062   8.849  0.7407  1.3145 -0.2790
  300MOL0     H40481  14.070   9.131   8.957  0.8275 -0.2665  0.3885
  300MOL0     H40482  13.828   9.173   9.534  1.9226 -0.6737 -2.8119
  300MOL0     H40483  13.584   9.199   9.565 -0.0767 -0.5236 -0.5737
  300MOL0     H40484  11.691   9.195   8.903  0.9298  0.2420  0.6026
  300MOL0     H40485  11.459   9.195   8.901 -0.2241  2.6984 -0.1624
  300MOL0     H40486  11.011   9.448   9.163  0.3773 -0.3034  1.4652
  300MOL0     H40487  10.774   9.414   9.101 -1.0238 -0.3607 -1.1753
  300MOL0     H40488  10.632   9.031   8.946 -0.9689 -1.3441 -2.9476
  300MOL0     H40489  10.668   9.128   8.800  1.3202  0.5677  0.5289
  300MOL0     H40490  10.490   9.276   8.830  2.4352 -0.1130 -0.4708
  300MOL0     H40491  10.429   9.194   8.974  1.4094 -1.3201  1.6034
  300MOL0     H40492  10.289   9.113   8.788 -0.3663 -1.6720 -3.6959
  300MOL0     H40493  10.400   8.987   8.824 -1.1095  0.8419  0.8339
  300MOL0     H40494  10.537   9.081   8.628  0.1608 -0.6890  1.7465
  300MOL0     H40495  10.379   9.020   8.584 -0.2403  0.1466  0.7282
  300MOL0     H40496  10.345   9.441   8.518 -1.9604 -1.1599 -1.2258
  300MOL0     H40497  10.875   9.047   8.892  0.8791 -0.4712 -0.4386
  300MOL0     H40498  11.227   9.127   8.882  0.5991 -1.3634  1.7765
  300MOL0     H40499  11.185   8.994   8.986  1.2351 -2.8883 -2.9569
  300MOL0     H40500  11.102   9.011   8.831  0.0045  0.6715 -0.8851
  301MOL0     O40501   3.114   4.158   9.806  0.2543  0.0529 -0.4254
  301MOL0     C40502   3.112   4.278   9.840 -0.5944 -0.1772 -0.2680
  301MOL0     O40503   3.227   4.354   9.871  0.0313  0.3890  0.4141
  301MOL0     C40504   3.354   4.291   9.851  0.1199  0.4546 -0.6497
  301MOL0     C40505   3.445   4.261   9.960 -0.3604 -0.2050  0.3469
  301MOL0     C40506   3.563   4.183   9.937  0.6728 -0.0329 -0.7531
  301MOL0     C40507   3.601   4.144   9.810  0.6194  0.5088 -0.2813
  301MOL0     O40508   3.723   4.082   9.793  0.5704 -0.1979 -0.1999
  301MOL0     C40509   3.817   4.181   9.747  0.7895 -1.0980  0.8423
  301MOL0     C40510   3.943   4.111   9.693  0.3809  0.0575 -0.1456
  301MOL0     C40511   4.021   4.045   9.811 -0.0821 -0.0329  0.8154
  301MOL0     C40512   4.130   3.945   9.766  0.3197 -0.0775 -0.5120
  301MOL0     C40513   4.211   3.894   9.884 -0.7165 -0.1979 -0.0950
  301MOL0     C40514   4.310   3.780   9.850  0.3335  0.4658 -0.0319
  301MOL0     C40515   4.398   3.731   9.969  0.8184 -0.0780  0.3226
  301MOL0     C40516   4.502   3.637   9.915 -0.0304  0.2747  0.1761
  301MOL0     N40517   4.612   3.603  10.005 -0.1609  0.1716 -0.3934
  301MOL0     C40518   4.635   3.473  10.050  0.3753 -0.0532 -0.6992
  301MOL0     C40519   4.729   3.490  10.148  0.6633 -0.3594  1.0024
  301MOL0     C40520   4.775   3.376  10.240  0.7387 -0.3077 -0.3030
  301MOL0     C40521   4.923   3.353  10.214 -1.0422 -0.2580 -0.3445
  301MOL0     C40522   4.959   3.295  10.080 -0.0074 -0.4056  0.0216
  301MOL0     C40523   5.108   3.288  10.044 -0.9197  0.1517 -0.2884
  301MOL0     O40524   5.173   3.406  10.087 -0.5550 -0.1184 -0.0447
  301MOL0     C40525   5.311   3.401  10.092  0.7910  0.2999  0.3339
  301MOL0     C40526   5.391   3.302  10.039 -0.7444  0.8033  0.0544
  301MOL0     C40527   5.535   3.311  10.047  0.1582 -0.0460  0.9519
  301MOL0     C40528   5.599   3.424  10.104  0.2528  0.2955 -0.4452
  301MOL0     C40529   5.738   3.437  10.139  0.6501  0.2808  0.4821
  301MOL0     O40530   5.823   3.342  10.095 -0.4271  0.1569 -0.0916
  301MOL0     C40531   5.963   3.335  10.130 -0.2987  0.7212  0.3084
  301MOL0     C40532   6.049   3.253  10.049  0.4499 -0.3355  1.7860
  301MOL0     C40533   6.176   3.222  10.069 -0.4393  0.2225  0.5344
  301MOL0     C40534   6.233   3.263  10.196 -0.7534 -0.1026  0.1926
  301MOL0     O40535   6.356   3.211  10.231 -0.0410  0.2734 -0.0675
  301MOL0     C40536   6.448   3.295  10.298  0.1062  1.0159 -0.3351
  301MOL0     C40537   6.573   3.236  10.343 -0.8909 -0.3380 -0.3421
  301MOL0     C40538   6.699   3.248  10.252 -0.6045 -1.7492  0.2019
  301MOL0     C40539   6.695   3.166  10.120 -0.4182  0.5336 -0.2459
  301MOL0     C40540   6.804   3.229  10.024  1.0215 -0.8478 -0.2089
  301MOL0     C40541   6.795   3.168   9.886 -0.9798  0.8661  0.3609
  301MOL0     C40542   6.897   3.226   9.794  0.2726  0.0195  1.0406
  301MOL0     C40543   6.949   3.134   9.684  0.5813 -0.2027 -0.0174
  301MOL0    Cl40544   7.033   2.999   9.757  0.0644  0.1170 -0.1290
  301MOL0     C40545   6.155   3.344  10.284 -0.0058 -0.4382  0.1892
  301MOL0     C40546   6.024   3.382  10.248  0.3458 -0.0447  0.1192
  301MOL0     O40547   5.772   3.525  10.218 -0.4221  0.1346  0.0683
  301MOL0     C40548   5.514   3.529  10.146  0.2529 -0.1606  0.3582
  301MOL0     C40549   5.376   3.516  10.141 -0.6370 -0.4283  0.1680
  301MOL0     N40550   4.737   3.626  10.184 -0.3421 -0.3067 -0.0812
  301MOL0     N40551   4.665   3.690  10.098 -0.1724 -0.0449 -0.0177
  301MOL0     C40552   3.510   4.179   9.702 -0.9171 -0.1124 -0.0293
  301MOL0     C40553   3.396   4.251   9.725  1.0620 -0.2950  0.3713
  301MOL0     C40554   2.985   4.348   9.853 -0.2082 -0.8083 -0.2819
  301MOL0     C40555   2.994   4.487   9.848  0.1160  0.7695 -0.7344
  301MOL0     C40556   2.886   4.569   9.880  1.2251 -0.7241 -0.9101
  301MOL0     C40557   2.759   4.519   9.898 -0.1608  1.0332 -0.8117
  301MOL0     O40558   2.660   4.615   9.922  1.1589  0.2278  0.4022
  301MOL0     C40559   2.525   4.574   9.890 -0.3482  0.4947 -1.0108
  301MOL0     C40560   2.435   4.693   9.918 -0.2362  0.2004  0.8049
  301MOL0     C40561   2.415   4.738  10.068 -0.8438  0.0624 -0.3061
  301MOL0     C40562   2.358   4.876  10.097 -0.1546  0.5526 -0.0408
  301MOL0     C40563   2.429   4.968  10.189 -1.0439  0.5366  0.1284
  301MOL0     C40564   2.497   5.045  10.255  0.2684 -0.0631  0.4224
  301MOL0     C40565   2.745   4.379   9.887  0.1834  0.7278  0.6702
  301MOL0     C40566   2.852   4.291   9.866  0.5415 -0.1137  0.2828
  301MOL0     C40567   2.819   4.139   9.859  0.1317 -1.0372  0.7434
  301MOL0     H40568   3.415   4.296  10.058  1.7991 -2.8085  2.0830
  301MOL0     H40569   3.620   4.156  10.026  0.9536  1.0734 -0.5879
  301MOL0     H40570   3.779   4.231   9.658  0.6851  0.2192  1.5961
  301MOL0     H40571   3.845   4.251   9.826 -1.0555  0.3618  0.2594
  301MOL0     H40572   4.001   4.195   9.652  1.1611 -1.0345 -1.3857
  301MOL0     H40573   3.906   4.034   9.624  2.4414 -1.7035  0.5831
  301MOL0     H40574   3.944   4.010   9.881  1.4448  0.0188  2.6243
  301MOL0     H40575   4.075   4.126   9.861  0.1719  0.1862  0.1859
  301MOL0     H40576   4.095   3.860   9.707 -3.7490  0.4773  0.8004
  301MOL0     H40577   4.200   3.993   9.697 -1.5265 -0.1813 -2.5288
  301MOL0     H40578   4.275   3.965   9.939 -0.2198 -1.4920  1.0523
  301MOL0     H40579   4.142   3.862   9.963  0.9727 -0.7863  1.2069
  301MOL0     H40580   4.253   3.695   9.811  0.7954 -0.5447  1.4401
  301MOL0     H40581   4.366   3.825   9.767 -0.1110  3.5781  1.2321
  301MOL0     H40582   4.340   3.679  10.045 -0.9064  1.5138  0.1707
  301MOL0     H40583   4.454   3.812  10.016  1.3616 -0.8498  1.0252
  301MOL0     H40584   4.455   3.547   9.874 -0.4408  1.8479 -3.1934
  301MOL0     H40585   4.550   3.694   9.834 -0.3633  0.5235  0.1517
  301MOL0     H40586   4.603   3.379  10.008  1.5230 -0.5386 -0.5331
  301MOL0     H40587   4.762   3.409  10.343  1.2669  0.1965 -0.3956
  301MOL0     H40588   4.726   3.280  10.223  1.3408 -0.8887  1.0896
  301MOL0     H40589   4.974   3.446  10.238  0.7890 -1.4110  0.4061
  301MOL0     H40590   4.962   3.275  10.279 -0.3926 -0.9171 -1.4835
  301MOL0     H40591   4.909   3.360  10.007  0.2332  0.6363  0.7647
  301MOL0     H40592   4.912   3.197  10.067 -1.0488  0.2151 -1.1786
  301MOL0     H40593   5.123   3.265   9.938  1.5617 -0.7713  0.1974
  301MOL0     H40594   5.152   3.204  10.099  1.1970 -0.5158 -2.7750
  301MOL0     H40595   5.346   3.218   9.988  0.4892  0.4991 -0.5762
  301MOL0     H40596   5.584   3.218  10.018 -0.0902 -0.0320  0.4707
  301MOL0     H40597   5.996   3.211   9.964  0.5976  1.1228  0.9286
  301MOL0     H40598   6.221   3.153   9.998 -1.5873  0.5555 -0.5480
  301MOL0     H40599   6.466   3.380  10.231 -1.7333  0.3032 -1.8130
  301MOL0     H40600   6.391   3.339  10.381  1.6532  4.3290 -0.8643
  301MOL0     H40601   6.602   3.281  10.438  2.0495  3.1410 -2.5965
  301MOL0     H40602   6.562   3.129  10.359 -0.1584 -0.5908 -1.4547
  301MOL0     H40603   6.709   3.352  10.221 -1.8006 -2.3062 -2.3268
  301MOL0     H40604   6.797   3.226  10.296 -0.3153 -1.5614 -0.3354
  301MOL0     H40605   6.595   3.167  10.077 -0.3514  1.4236 -0.4046
  301MOL0     H40606   6.714   3.062  10.146  1.1988  0.6891 -0.6824
  301MOL0     H40607   6.906   3.230  10.063  1.2232  2.4382 -0.5375
  301MOL0     H40608   6.782   3.335  10.003  0.0570 -1.3509 -1.9841
  301MOL0     H40609   6.820   3.061   9.894 -0.4332  1.0184  0.7817
  301MOL0     H40610   6.691   3.182   9.854 -1.1421  0.3837  0.6649
  301MOL0     H40611   6.979   3.266   9.855  0.0142 -2.8974  3.5462
  301MOL0     H40612   6.842   3.303   9.740 -0.9392 -0.4311  1.6053
  301MOL0     H40613   6.876   3.103   9.609 -1.2657  0.8456  1.2753
  301MOL0     H40614   7.025   3.188   9.628  0.4586 -2.6312 -2.7725
  301MOL0     H40615   6.180   3.366  10.387 -0.6510 -0.2947  0.3226
  301MOL0     H40616   5.967   3.440  10.320  1.1282  0.0218  0.6994
  301MOL0     H40617   5.559   3.623  10.176 -1.9738  0.8455  0.7001
  301MOL0     H40618   5.316   3.597  10.181  2.2502  2.3891 -0.7995
  301MOL0     H40619   3.531   4.151   9.600 -2.5797  2.3110 -1.1220
  301MOL0     H40620   3.338   4.276   9.637  0.1377 -3.3671 -0.0206
  301MOL0     H40621   3.089   4.536   9.830  0.0744  1.0962 -0.0886
  301MOL0     H40622   2.891   4.677   9.879  0.1807 -0.5781 -4.3774
  301MOL0     H40623   2.498   4.485   9.948  1.1314  0.7223  0.0913
  301MOL0     H40624   2.523   4.554   9.783  0.1811  1.6350 -1.2412
  301MOL0     H40625   2.339   4.683   9.867  0.1391  1.0507 -0.0976
  301MOL0     H40626   2.480   4.784   9.878  0.6333  0.3159  1.9958
  301MOL0     H40627   2.512   4.739  10.117 -0.8430  0.2988 -0.3125
  301MOL0     H40628   2.345   4.662  10.105 -0.2700  0.5776  1.9654
  301MOL0     H40629   2.332   4.926  10.003 -2.2575  0.9270  0.6821
  301MOL0     H40630   2.258   4.865  10.140 -1.2375  1.4316 -2.1595
  301MOL0     H40631   2.567   5.088  10.324  2.1349 -4.0346  1.2764
  301MOL0     H40632   2.645   4.341   9.905  0.2895  0.5507  0.8923
  301MOL0     H40633   2.883   4.084   9.929 -0.3525 -1.4950  0.8353
  301MOL0     H40634   2.714   4.115   9.876 -0.3944  0.6790  0.0882
  301MOL0     H40635   2.851   4.094   9.765  0.7911  0.1735  0.3732
  302MOL0     O40636   9.242   6.487   9.424  0.6444  0.0958 -0.2346
  302MOL0     C40637   9.171   6.477   9.325  0.1665 -0.3026 -0.6427
  302MOL0     O40638   9.200   6.401   9.219 -0.0352 -0.1641 -0.3240
  302MOL0     C40639   9.323   6.346   9.219 -0.0526 -0.2498  0.5491
  302MOL0     C40640   9.349   6.232   9.291  0.5318  0.6283  0.9566
  302MOL0     C40641   9.474   6.181   9.316 -0.0557 -1.0699  0.8168
  302MOL0     C40642   9.587   6.254   9.275  0.4432 -0.2262 -0.0647
  302MOL0     O40643   9.711   6.209   9.294 -0.7894 -0.0628 -0.3979
  302MOL0     C40644   9.735   6.084   9.367 -0.2668  0.8826 -0.5233
  302MOL0     C40645   9.874   6.037   9.403 -0.5217 -0.3176  0.0353
  302MOL0     C40646   9.885   5.938   9.525 -0.9049  0.5972 -0.4913
  302MOL0     C40647  10.034   5.903   9.541  0.4416 -1.4873 -0.1569
  302MOL0     C40648  10.061   5.780   9.621  0.6339  0.3237 -0.3505
  302MOL0     C40649  10.212   5.752   9.643  0.7162  0.5601 -1.0749
  302MOL0     C40650  10.235   5.639   9.742 -0.3615 -0.9533  0.2528
  302MOL0     C40651  10.387   5.607   9.772 -0.1987  0.1242  0.2514
  302MOL0     N40652  10.411   5.518   9.884 -0.7659 -0.4678  0.0900
  302MOL0     C40653  10.336   5.417   9.929  0.0558 -1.1143 -0.4349
  302MOL0     C40654  10.423   5.353  10.017 -0.2230 -0.2009 -0.0108
  302MOL0     C40655  10.383   5.238  10.095  0.2484  0.6218 -0.2979
  302MOL0     C40656  10.476   5.215  10.221  0.5654  0.2649  0.1312
  302MOL0     C40657  10.461   5.325  10.332  0.4375  0.1592  0.1157
  302MOL0     C40658  10.560   5.292  10.448 -0.1502  0.2652  0.5020
  302MOL0     O40659  10.539   5.401  10.538  0.3558  0.4713 -0.7623
  302MOL0     C40660  10.597   5.527  10.539 -0.6076 -0.0216  0.2115
  302MOL0     C40661  10.687   5.582  10.439  0.2006 -0.2552  0.2600
  302MOL0     C40662  10.748   5.710  10.454  0.0112  0.4289  0.1642
  302MOL0     C40663  10.718   5.789  10.570 -0.4680  0.9605 -0.2245
  302MOL0     C40664  10.785   5.918  10.598  0.3100 -0.5386 -0.4814
  302MOL0     O40665  10.736   5.994  10.698 -0.0368  0.5255 -0.7563
  302MOL0     C40666  10.808   6.105  10.721 -0.4515  0.4140  0.2464
  302MOL0     C40667  10.918   6.108  10.809 -0.4298 -0.2942  1.0405
  302MOL0     C40668  10.986   6.232  10.835 -0.4783 -0.9655  0.3153
  302MOL0     C40669  10.950   6.345  10.757  0.4242  0.1699 -0.3124
  302MOL0     O40670  11.018   6.467  10.773  0.4205  1.1347 -0.4409
  302MOL0     C40671  11.162   6.462  10.763 -0.3641 -0.2152  0.1450
  302MOL0     C40672  11.231   6.591  10.786 -0.3666 -1.1429 -0.5126
  302MOL0     C40673  11.205   6.647  10.931  0.0202 -0.7460  0.7807
  302MOL0     C40674  11.247   6.791  10.941 -0.3589 -0.3750 -0.3331
  302MOL0     C40675  11.278   6.832  11.084 -0.2011 -0.6344  0.1048
  302MOL0     C40676  11.287   6.989  11.072  0.1937  0.2609 -0.7740
  302MOL0     C40677  11.320   7.028  11.214  0.7935 -0.0129  0.5307
  302MOL0     C40678  11.372   7.165  11.222 -0.7770 -0.5908 -1.7110
  302MOL0    Cl40679  11.399   7.184  11.400  0.2349  0.0981  0.0918
  302MOL0     C40680  10.832   6.344  10.679  0.2591  0.5414 -0.2871
  302MOL0     C40681  10.764   6.223  10.664  0.0508  0.0305  0.6634
  302MOL0     O40682  10.874   5.960  10.525  0.5503  0.0036  0.4540
  302MOL0     C40683  10.634   5.733  10.670 -0.7603 -1.0961 -0.0667
  302MOL0     C40684  10.577   5.607  10.653 -0.6466 -0.4591 -1.4559
  302MOL0     N40685  10.541   5.423  10.028  0.1307  0.2595  0.1775
  302MOL0     N40686  10.534   5.521   9.944  0.4142 -0.2140  0.1269
  302MOL0     C40687   9.561   6.371   9.203  0.8525  0.6426  0.8134
  302MOL0     C40688   9.432   6.413   9.180 -0.1768 -0.3014 -0.0776
  302MOL0     C40689   9.036   6.549   9.335 -0.4140  0.4021  0.8011
  302MOL0     C40690   9.009   6.639   9.436 -0.3022 -0.3790  0.5940
  302MOL0     C40691   8.887   6.707   9.447 -0.2430 -0.2199 -0.8397
  302MOL0     C40692   8.792   6.695   9.354 -0.2997 -0.2909  0.4831
  302MOL0     O40693   8.659   6.744   9.351  0.2762 -0.7525 -0.3063
  302MOL0     C40694   8.626   6.847   9.437  0.8978  0.1725 -0.2614
  302MOL0     C40695   8.475   6.887   9.430 -0.0610  0.8723 -0.6818
  302MOL0     C40696   8.385   6.777   9.476  0.2224  0.1406  0.0210
  302MOL0     C40697   8.235   6.829   9.491  0.6142  0.6036  0.5590
  302MOL0     C40698   8.224   6.913   9.615 -0.2316 -0.2475 -0.0925
  302MOL0     C40699   8.206   6.967   9.717 -0.2007 -0.1569 -0.1660
  302MOL0     C40700   8.812   6.601   9.249 -0.2999  0.6716  0.0727
  302MOL0     C40701   8.930   6.530   9.240 -0.3843  0.1180  0.1778
  302MOL0     C40702   8.942   6.436   9.116 -0.0223  0.0432  0.0118
  302MOL0     H40703   9.272   6.164   9.327  0.7306 -0.2926 -0.2771
  302MOL0     H40704   9.495   6.090   9.371  1.3162 -2.4052 -1.7498
  302MOL0     H40705   9.692   6.098   9.467  1.9640 -0.6776  0.7432
  302MOL0     H40706   9.680   6.002   9.321  1.3537 -0.0752 -0.8219
  302MOL0     H40707   9.919   6.130   9.439  0.2950 -1.2012  1.3795
  302MOL0     H40708   9.925   5.993   9.316  0.5898  1.2671 -0.1585
  302MOL0     H40709   9.843   5.840   9.500  0.3459 -0.3315  0.8661
  302MOL0     H40710   9.854   5.984   9.619  1.9232  0.9163  0.4023
  302MOL0     H40711  10.084   5.895   9.444 -0.0958 -0.6459 -0.5183
  302MOL0     H40712  10.076   5.989   9.594 -1.3605 -0.2373 -0.6440
  302MOL0     H40713  10.017   5.799   9.719  0.8255  2.9753 -0.7077
  302MOL0     H40714  10.009   5.691   9.584 -2.1303  1.9525 -0.6566
  302MOL0     H40715  10.262   5.712   9.555  0.4335  1.3335 -1.5963
  302MOL0     H40716  10.260   5.848   9.667 -0.6632  0.6943  1.4699
  302MOL0     H40717  10.173   5.555   9.710 -0.4706 -0.6704 -0.2974
  302MOL0     H40718  10.186   5.669   9.836 -0.2912 -2.2686  0.7338
  302MOL0     H40719  10.429   5.564   9.680 -1.6987  0.7910 -0.7926
  302MOL0     H40720  10.440   5.698   9.800  0.7640 -0.8694  1.7677
  302MOL0     H40721  10.233   5.397   9.903 -0.1296  1.0831 -1.6885
  302MOL0     H40722  10.279   5.256  10.124  0.4807  2.4297 -0.4976
  302MOL0     H40723  10.387   5.144  10.039  0.0952 -1.0789  2.3214
  302MOL0     H40724  10.433   5.123  10.260  0.9536  1.1805  2.9629
  302MOL0     H40725  10.578   5.192  10.187  0.7726  2.3921 -0.8977
  302MOL0     H40726  10.358   5.324  10.369  1.0388  0.6872  1.9371
  302MOL0     H40727  10.484   5.428  10.303  2.0328  1.1596  4.1336
  302MOL0     H40728  10.664   5.283  10.418 -0.2579 -0.3059  0.2915
  302MOL0     H40729  10.532   5.196  10.492 -1.5222  0.3022 -0.2111
  302MOL0     H40730  10.693   5.530  10.344 -0.5370 -2.9277  1.5656
  302MOL0     H40731  10.801   5.761  10.374  0.1496  2.3305  1.4106
  302MOL0     H40732  10.962   6.024  10.862 -0.4064  0.4647  2.2688
  302MOL0     H40733  11.066   6.240  10.907 -0.2129  1.2101 -0.1633
  302MOL0     H40734  11.200   6.398  10.843  0.4973 -0.0323 -0.0984
  302MOL0     H40735  11.189   6.417  10.667 -2.5334  0.7962 -1.0072
  302MOL0     H40736  11.336   6.567  10.766  0.7597  1.3289  1.8389
  302MOL0     H40737  11.204   6.661  10.707 -0.9237 -1.2713 -0.4385
  302MOL0     H40738  11.098   6.641  10.953 -0.3604  1.7414 -0.0847
  302MOL0     H40739  11.262   6.583  10.999 -1.9696 -1.4634  1.8818
  302MOL0     H40740  11.172   6.853  10.890  1.6039 -0.7785 -4.0737
  302MOL0     H40741  11.336   6.810  10.880 -1.4152  1.8886 -1.2949
  302MOL0     H40742  11.366   6.783  11.126 -0.8045 -0.3626  1.7618
  302MOL0     H40743  11.187   6.804  11.138 -1.7544  2.3041 -0.7631
  302MOL0     H40744  11.364   7.027  11.005 -0.9545 -0.5376 -2.5971
  302MOL0     H40745  11.198   7.039  11.032  0.2396 -0.7262 -2.1894
  302MOL0     H40746  11.385   6.954  11.262  0.5049 -0.4726  0.2228
  302MOL0     H40747  11.222   7.032  11.262  1.1865 -1.0966  1.4656
  302MOL0     H40748  11.468   7.168  11.170  0.2239 -2.3414 -0.1023
  302MOL0     H40749  11.306   7.243  11.182 -0.1895 -1.3605 -4.3291
  302MOL0     H40750  10.796   6.435  10.632 -2.7179  0.9418  2.4608
  302MOL0     H40751  10.683   6.227  10.592  1.2097 -0.9390 -0.7334
  302MOL0     H40752  10.612   5.782  10.765  2.0603  1.4994 -0.5879
  302MOL0     H40753  10.519   5.564  10.734 -2.0684  1.6289 -1.2803
  302MOL0     H40754   9.642   6.440   9.180  1.0862  0.1458  0.1209
  302MOL0     H40755   9.424   6.511   9.132 -1.7756 -0.9646 -1.2570
  302MOL0     H40756   9.079   6.646   9.519 -0.5532  0.3030  0.7531
  302MOL0     H40757   8.873   6.776   9.529 -1.7723  2.6996 -3.3806
  302MOL0     H40758   8.676   6.939   9.407 -0.5074  0.9331 -0.3295
  302MOL0     H40759   8.645   6.821   9.542 -1.8108 -1.5479 -0.0983
  302MOL0     H40760   8.468   6.917   9.325  1.9534 -1.0954 -1.4640
  302MOL0     H40761   8.471   6.980   9.487  2.5620  0.5309  0.1806
  302MOL0     H40762   8.424   6.735   9.570  2.0760 -1.2998 -1.3321
  302MOL0     H40763   8.384   6.707   9.392 -2.1972 -0.3876  0.4151
  302MOL0     H40764   8.193   6.875   9.401 -0.1892 -0.8646  0.1496
  302MOL0     H40765   8.181   6.736   9.510  1.6484  0.2704  2.0475
  302MOL0     H40766   8.196   7.015   9.812 -1.0748  1.0095 -0.8192
  302MOL0     H40767   8.730   6.597   9.179  0.9748 -1.1283 -1.4069
  302MOL0     H40768   9.017   6.483   9.052  0.3617 -0.1742  0.3032
  302MOL0     H40769   8.961   6.329   9.128  0.6177  0.2830  1.2239
  302MOL0     H40770   8.847   6.441   9.061  0.2686  0.3302 -0.4720
  303MOL0     O40771   2.705   5.547   1.035 -0.4710  0.0242  0.0939
  303MOL0     C40772   2.719   5.469   0.941  0.0499  0.8421  0.4033
  303MOL0     O40773   2.831   5.446   0.867  0.0782 -0.1458  0.5909
  303MOL0     C40774   2.951   5.511   0.899  0.3221  0.4484  0.0963
  303MOL0     C40775   3.009   5.493   1.025  0.7977 -0.2955  0.2169
  303MOL0     C40776   3.116   5.571   1.059 -0.7989  0.6551  0.2187
  303MOL0     C40777   3.175   5.665   0.967 -0.0783 -0.3789  0.0646
  303MOL0     O40778   3.296   5.714   1.002 -0.3292  0.4312 -0.6889
  303MOL0     C40779   3.398   5.747   0.907  0.4227  0.4433 -0.2374
  303MOL0     C40780   3.516   5.812   0.973  0.1600 -0.5182 -0.3941
  303MOL0     C40781   3.478   5.953   1.024 -0.2341  0.5685  0.5426
  303MOL0     C40782   3.615   6.031   1.008 -0.3451 -0.9808 -0.1322
  303MOL0     C40783   3.607   6.168   1.076  0.5294 -0.7341  0.4440
  303MOL0     C40784   3.610   6.167   1.229 -0.5620  0.1123  0.1500
  303MOL0     C40785   3.597   6.300   1.289 -0.3972  0.5961 -0.3451
  303MOL0     C40786   3.706   6.394   1.233  0.2457 -0.5626 -0.0082
  303MOL0     N40787   3.737   6.495   1.334 -0.2099  0.6322  0.1615
  303MOL0     C40788   3.656   6.601   1.361  0.5185  0.5124 -0.8601
  303MOL0     C40789   3.704   6.654   1.475  0.0983  0.5207 -0.0232
  303MOL0     C40790   3.644   6.776   1.545  0.9989  0.4111  0.0785
  303MOL0     C40791   3.510   6.737   1.610  0.4516 -0.1867  0.0624
  303MOL0     C40792   3.517   6.631   1.720 -0.3372  0.1959 -0.7037
  303MOL0     C40793   3.382   6.575   1.759 -0.2804 -0.2483  0.3945
  303MOL0     O40794   3.296   6.684   1.780 -0.1876  0.0273 -0.7056
  303MOL0     C40795   3.158   6.660   1.791 -0.1696  0.1350 -0.3176
  303MOL0     C40796   3.079   6.772   1.791 -0.7163 -0.1566 -0.3929
  303MOL0     C40797   2.938   6.751   1.803 -0.3779  0.2078  0.4773
  303MOL0     C40798   2.883   6.617   1.794 -0.2060 -0.1443  0.1465
  303MOL0     C40799   2.735   6.599   1.790 -0.3089 -0.3129  0.0820
  303MOL0     O40800   2.689   6.464   1.784  0.2486  0.9980 -0.2739
  303MOL0     C40801   2.554   6.439   1.768 -0.4612 -0.9962 -0.6071
  303MOL0     C40802   2.505   6.334   1.848  0.1149  0.2338  0.4692
  303MOL0     C40803   2.368   6.309   1.838  0.3664 -0.0080  0.0755
  303MOL0     C40804   2.289   6.375   1.744 -0.5668  0.2940 -0.1728
  303MOL0     O40805   2.156   6.342   1.763  0.0284  0.1263  0.2897
  303MOL0     C40806   2.058   6.405   1.678 -0.4774 -0.1667  0.0495
  303MOL0     C40807   1.923   6.342   1.712  0.1502  0.1158 -0.0988
  303MOL0     C40808   1.809   6.409   1.636 -0.6719  0.0895 -0.3272
  303MOL0     C40809   1.678   6.337   1.676 -0.0238 -0.1325 -0.5223
  303MOL0     C40810   1.565   6.398   1.587 -0.7244  0.9849 -0.7003
  303MOL0     C40811   1.431   6.323   1.602 -0.3427 -0.3458  0.3949
  303MOL0     C40812   1.324   6.395   1.527  0.1049  0.0979  0.2331
  303MOL0     C40813   1.224   6.301   1.468  0.2228  0.1157  0.7440
  303MOL0    Cl40814   1.170   6.180   1.590 -0.2848  0.0248 -0.4576
  303MOL0     C40815   2.336   6.471   1.657 -0.3108  0.2332  0.0529
  303MOL0     C40816   2.474   6.500   1.665  0.7420  0.4914 -0.8362
  303MOL0     O40817   2.662   6.701   1.796  0.1003  0.1816  0.1675
  303MOL0     C40818   2.968   6.510   1.786  0.0176 -0.3044 -0.0338
  303MOL0     C40819   3.100   6.533   1.799 -0.2036 -0.1199  0.5591
  303MOL0     N40820   3.825   6.586   1.503  0.2575  0.1533 -0.3362
  303MOL0     N40821   3.830   6.482   1.430  0.1407 -0.2546 -0.0119
  303MOL0     C40822   3.119   5.677   0.843 -0.7685  0.3940 -0.2046
  303MOL0     C40823   2.998   5.605   0.804 -0.6577  0.9952  0.3472
  303MOL0     C40824   2.600   5.383   0.883  0.6399 -0.4111 -0.6077
  303MOL0     C40825   2.631   5.266   0.813 -0.5470 -0.3065 -0.1373
  303MOL0     C40826   2.532   5.183   0.768  0.4404 -0.1945  0.1959
  303MOL0     C40827   2.395   5.213   0.789 -0.8121  0.1855  0.5257
  303MOL0     O40828   2.292   5.137   0.731 -0.5186  0.1078 -0.1250
  303MOL0     C40829   2.168   5.131   0.794 -0.1043  0.2584 -0.6635
  303MOL0     C40830   2.107   4.994   0.745 -0.0958 -0.7031  0.4731
  303MOL0     C40831   1.965   4.962   0.793 -0.1425 -0.5501 -0.6624
  303MOL0     C40832   1.919   4.818   0.772  0.1832 -0.4935 -0.1739
  303MOL0     C40833   2.006   4.703   0.815  0.1201 -0.3072  0.1251
  303MOL0     C40834   2.089   4.626   0.851 -0.6828 -0.8533 -0.3096
  303MOL0     C40835   2.362   5.334   0.857 -0.2238 -0.0428 -0.5415
  303MOL0     C40836   2.468   5.419   0.910 -0.5284  0.8673 -0.2344
  303MOL0     C40837   2.424   5.542   0.986  0.1816 -0.0113 -0.5242
  303MOL0     H40838   2.974   5.423   1.100  2.4712  0.6539  1.9594
  303MOL0     H40839   3.151   5.553   1.160 -0.4790  0.8312  0.1413
  303MOL0     H40840   3.440   5.660   0.856  1.9887  0.5807  0.7424
  303MOL0     H40841   3.352   5.804   0.826 -1.4427 -1.0366 -0.3223
  303MOL0     H40842   3.581   5.822   0.886 -0.6414  5.1246 -0.6981
  303MOL0     H40843   3.567   5.745   1.043 -2.3179 -0.4091  1.6430
  303MOL0     H40844   3.440   5.938   1.125 -0.6514  2.3181  0.6821
  303MOL0     H40845   3.400   5.995   0.959  0.3237 -0.0105 -0.5330
  303MOL0     H40846   3.695   5.970   1.051 -1.0792 -0.5000  2.0592
  303MOL0     H40847   3.639   6.048   0.902 -0.7088  0.5443  0.0071
  303MOL0     H40848   3.692   6.226   1.041 -0.4104 -0.0519 -0.8016
  303MOL0     H40849   3.509   6.197   1.035 -0.2440 -1.9859  1.3195
  303MOL0     H40850   3.531   6.104   1.272 -1.6400  0.9370 -0.5640
  303MOL0     H40851   3.704   6.123   1.263 -0.4638 -1.0275 -1.4575
  303MOL0     H40852   3.618   6.278   1.394 -2.1780 -1.1774 -0.3029
  303MOL0     H40853   3.501   6.350   1.273 -0.5030  0.1290 -1.2293
  303MOL0     H40854   3.796   6.331   1.226 -0.5548 -2.2800  3.2043
  303MOL0     H40855   3.675   6.450   1.144  1.4193  3.4571  1.8687
  303MOL0     H40856   3.580   6.638   1.293  0.1968 -1.6473 -1.7635
  303MOL0     H40857   3.708   6.815   1.624 -0.4826 -0.9756  2.0629
  303MOL0     H40858   3.630   6.853   1.468 -2.4095  0.4563  0.5945
  303MOL0     H40859   3.462   6.826   1.653 -1.7084 -0.9599 -0.6087
  303MOL0     H40860   3.448   6.695   1.530  1.6981  0.2466 -1.1775
  303MOL0     H40861   3.541   6.682   1.814 -2.0773 -0.2738  0.0207
  303MOL0     H40862   3.592   6.553   1.703 -1.7490 -1.9923  2.2716
  303MOL0     H40863   3.377   6.515   1.851 -1.5746  1.6356  1.6199
  303MOL0     H40864   3.365   6.529   1.662  2.2113  1.8096 -1.1454
  303MOL0     H40865   3.123   6.871   1.785  0.4731 -0.7066 -1.0725
  303MOL0     H40866   2.871   6.836   1.814  2.6617  2.8311  0.2957
  303MOL0     H40867   2.561   6.283   1.926  0.1669  1.7312  1.4358
  303MOL0     H40868   2.319   6.224   1.884  1.1272 -1.4825 -1.7217
  303MOL0     H40869   2.056   6.510   1.708 -0.9587 -0.4105  0.9233
  303MOL0     H40870   2.081   6.400   1.571  1.1555  0.6531  0.3291
  303MOL0     H40871   1.931   6.235   1.693 -0.8430 -0.0410  0.3078
  303MOL0     H40872   1.904   6.354   1.819  0.1158  2.3910 -0.3186
  303MOL0     H40873   1.807   6.519   1.641  1.1713  0.1568 -0.3728
  303MOL0     H40874   1.821   6.388   1.529 -1.3455 -2.6050  0.0642
  303MOL0     H40875   1.651   6.366   1.778 -1.0269 -3.7550  0.3853
  303MOL0     H40876   1.685   6.229   1.660  2.7638  0.3186 -3.5075
  303MOL0     H40877   1.586   6.389   1.480  1.1896  1.1165 -0.3595
  303MOL0     H40878   1.556   6.498   1.632  0.3180 -1.0615  4.9626
  303MOL0     H40879   1.444   6.221   1.565  1.0803  0.6052 -1.9985
  303MOL0     H40880   1.394   6.312   1.704  1.0301  1.4668  1.1558
  303MOL0     H40881   1.373   6.447   1.444 -0.0650  2.0092  1.2605
  303MOL0     H40882   1.266   6.474   1.577  2.3597  1.2546  1.1571
  303MOL0     H40883   1.147   6.365   1.423  0.9865  1.3403  1.1176
  303MOL0     H40884   1.272   6.245   1.387 -3.0265 -4.9568  1.8472
  303MOL0     H40885   2.271   6.513   1.580  0.2225  2.8010  0.9218
  303MOL0     H40886   2.530   6.564   1.598  0.1128  0.7599 -1.1154
  303MOL0     H40887   2.946   6.405   1.770  1.0237 -0.3639 -1.2614
  303MOL0     H40888   3.167   6.447   1.799 -0.3118 -0.2313  2.2340
  303MOL0     H40889   3.162   5.740   0.766 -1.3178 -2.6612 -3.2679
  303MOL0     H40890   2.940   5.629   0.715  0.3123  0.1794 -0.5396
  303MOL0     H40891   2.735   5.235   0.811 -0.3848 -0.4151  3.4268
  303MOL0     H40892   2.573   5.106   0.704 -0.4245  0.5442 -1.2846
  303MOL0     H40893   2.104   5.217   0.777 -2.6126 -1.1792  0.8624
  303MOL0     H40894   2.181   5.119   0.902  3.5726  1.4147 -0.8392
  303MOL0     H40895   2.183   4.924   0.780  0.7015  0.9375  2.1436
  303MOL0     H40896   2.100   4.992   0.635  0.9342 -0.3557  0.3971
  303MOL0     H40897   1.896   5.035   0.750 -2.4010 -1.0984  1.7546
  303MOL0     H40898   1.967   4.983   0.900 -0.7065  1.5648 -1.0363
  303MOL0     H40899   1.817   4.822   0.810  0.0932  3.5968 -0.4195
  303MOL0     H40900   1.899   4.814   0.664 -0.6501  2.9530 -0.2774
  303MOL0     H40901   2.172   4.573   0.895  0.3204  0.6283 -0.3400
  303MOL0     H40902   2.260   5.368   0.845 -0.1702  0.3009  0.0047
  303MOL0     H40903   2.437   5.633   0.927 -0.7444  0.4145 -0.0946
  303MOL0     H40904   2.319   5.541   1.016  0.7378  3.1897  2.0402
  303MOL0     H40905   2.474   5.556   1.082  0.1992  0.2490 -0.5709
  304MOL0     O40906   3.569   3.147   8.443 -0.0375  0.6661 -0.5466
  304MOL0     C40907   3.570   3.037   8.383 -0.7229 -0.5136 -0.3345
  304MOL0     O40908   3.684   2.987   8.328 -0.5782 -0.1911 -0.4398
  304MOL0     C40909   3.806   3.044   8.349  0.4702  0.8698 -0.1975
  304MOL0     C40910   3.884   3.089   8.239 -0.0972  0.3576  0.1500
  304MOL0     C40911   4.002   3.155   8.259 -0.0998  0.4248  0.0812
  304MOL0     C40912   4.062   3.183   8.382  0.3777  0.6845 -0.4576
  304MOL0     O40913   4.174   3.255   8.403 -0.1336 -0.0943  0.5967
  304MOL0     C40914   4.270   3.250   8.292 -0.4005  0.9330  0.1865
  304MOL0     C40915   4.403   3.286   8.350 -0.3452  0.5165  1.3829
  304MOL0     C40916   4.495   3.306   8.224  0.1076 -0.1963  0.3396
  304MOL0     C40917   4.637   3.358   8.270  0.3507  0.4299 -0.2089
  304MOL0     C40918   4.720   3.391   8.145  0.6178 -0.3327  0.1848
  304MOL0     C40919   4.849   3.461   8.182 -0.3975  0.0931 -0.3433
  304MOL0     C40920   4.943   3.472   8.064 -0.1980  0.1784 -0.8580
  304MOL0     C40921   4.891   3.588   7.977  0.0019  0.1265  0.1906
  304MOL0     N40922   4.937   3.723   8.022 -0.2619 -0.3803  0.9011
  304MOL0     C40923   5.063   3.769   7.995  0.4937  0.1186 -0.3149
  304MOL0     C40924   5.069   3.891   8.046  0.1021 -0.3006 -0.1791
  304MOL0     C40925   5.194   3.978   8.047 -1.4270 -0.2896 -1.0862
  304MOL0     C40926   5.260   3.951   8.186 -0.4509 -0.3886  0.3935
  304MOL0     C40927   5.396   4.021   8.190  0.2054  0.5331  0.3471
  304MOL0     C40928   5.508   3.964   8.099 -0.6038  0.6003  0.4471
  304MOL0     O40929   5.622   4.050   8.124  0.0349 -0.1308 -0.8697
  304MOL0     C40930   5.745   4.034   8.067 -0.4156  0.2588  0.6462
  304MOL0     C40931   5.780   3.928   7.975  0.9404  0.6702 -0.5756
  304MOL0     C40932   5.909   3.925   7.930  0.8168  0.3026 -0.9531
  304MOL0     C40933   6.009   4.013   7.970  0.0177 -0.6684 -0.2491
  304MOL0     C40934   6.143   4.006   7.907 -0.2541  0.0148 -0.1765
  304MOL0     O40935   6.243   4.083   7.966  0.6014 -0.0547  0.3564
  304MOL0     C40936   6.373   4.052   7.935  0.5824 -0.1065  0.2470
  304MOL0     C40937   6.459   4.152   7.900 -0.0130  0.6150 -0.4884
  304MOL0     C40938   6.596   4.131   7.854 -0.0754  0.5053 -0.4251
  304MOL0     C40939   6.646   3.997   7.852  0.2542  0.1137  0.0526
  304MOL0     O40940   6.771   3.963   7.808 -0.4296  0.0434 -0.4617
  304MOL0     C40941   6.825   4.029   7.689 -0.2355  0.4124 -0.7258
  304MOL0     C40942   6.972   3.989   7.670 -0.6231  1.1020  0.3704
  304MOL0     C40943   7.062   4.042   7.775  0.2634  0.8544 -0.3554
  304MOL0     C40944   7.209   3.996   7.759  0.1700 -0.2864  0.1961
  304MOL0     C40945   7.311   4.072   7.859 -0.4116  0.2292  0.3785
  304MOL0     C40946   7.438   3.989   7.854  0.0495  0.2824  0.2538
  304MOL0     C40947   7.500   3.991   7.719  0.6028 -0.8213 -0.3897
  304MOL0     C40948   7.638   3.933   7.722  0.2033  0.3383 -0.1003
  304MOL0    Cl40949   7.632   3.757   7.741 -0.0224  0.2209  0.1967
  304MOL0     C40950   6.564   3.902   7.913  0.1888 -0.4564 -0.4168
  304MOL0     C40951   6.429   3.922   7.946 -1.2916  0.1059  0.5218
  304MOL0     O40952   6.160   3.926   7.814 -0.2601  0.8193 -0.7578
  304MOL0     C40953   5.978   4.096   8.084  0.3428  0.2334 -0.4732
  304MOL0     C40954   5.846   4.106   8.123 -0.6594  0.2341  0.3650
  304MOL0     N40955   4.943   3.921   8.103  0.5181  0.2926 -0.3899
  304MOL0     N40956   4.867   3.825   8.085 -0.4251  0.6047 -0.3151
  304MOL0     C40957   3.985   3.138   8.488  0.0450 -0.1761  0.5102
  304MOL0     C40958   3.871   3.059   8.470  0.1086  0.3051 -0.5686
  304MOL0     C40959   3.442   2.951   8.386  0.1639 -1.0605  0.4666
  304MOL0     C40960   3.438   2.853   8.293  0.3330 -0.0390  0.1558
  304MOL0     C40961   3.334   2.766   8.290  0.3380 -0.4819  0.1365
  304MOL0     C40962   3.226   2.770   8.373  0.0215 -0.0220 -0.4251
  304MOL0     O40963   3.123   2.681   8.354  0.0783  0.0493  0.2369
  304MOL0     C40964   3.028   2.659   8.466 -0.0177 -0.7460  0.2625
  304MOL0     C40965   3.090   2.575   8.571  0.0241  0.0072 -0.7499
  304MOL0     C40966   3.105   2.434   8.515  0.2667 -0.0067 -0.1779
  304MOL0     C40967   3.169   2.344   8.614 -0.3817  0.1364 -1.2511
  304MOL0     C40968   3.188   2.210   8.569  1.1935  0.8257  0.2424
  304MOL0     C40969   3.214   2.099   8.532 -0.1426 -0.1380  0.7549
  304MOL0     C40970   3.224   2.877   8.468  0.2330  0.0915 -0.0016
  304MOL0     C40971   3.330   2.974   8.471 -0.7903  0.2018  0.4838
  304MOL0     C40972   3.315   3.086   8.570 -0.1905  0.1062  0.3153
  304MOL0     H40973   3.858   3.077   8.134  0.7073 -1.3886  0.1215
  304MOL0     H40974   4.043   3.202   8.170  1.7421 -0.1340  0.6073
  304MOL0     H40975   4.277   3.147   8.257  1.2575  0.2014  2.4188
  304MOL0     H40976   4.239   3.309   8.205  0.8984  0.6073 -0.5263
  304MOL0     H40977   4.447   3.204   8.407  1.8575 -0.6933 -1.7809
  304MOL0     H40978   4.394   3.387   8.392  2.1624  1.7317 -0.7393
  304MOL0     H40979   4.452   3.373   8.149  1.6304  0.6851  0.2143
  304MOL0     H40980   4.514   3.206   8.186 -1.6825 -0.8359  1.0150
  304MOL0     H40981   4.628   3.451   8.326 -1.2935  0.4566 -0.4770
  304MOL0     H40982   4.683   3.280   8.332 -1.7031 -0.7995 -0.1413
  304MOL0     H40983   4.747   3.302   8.088  1.2365 -0.1279  0.1510
  304MOL0     H40984   4.665   3.456   8.076 -0.5658  0.7080  2.0130
  304MOL0     H40985   4.835   3.559   8.227  1.1107 -1.0767  3.0145
  304MOL0     H40986   4.896   3.395   8.256  2.6649  4.0563  1.6339
  304MOL0     H40987   4.945   3.381   8.005  2.4774 -0.0843 -0.4721
  304MOL0     H40988   5.047   3.493   8.092 -1.0235  0.6567  2.1957
  304MOL0     H40989   4.915   3.569   7.872  0.3955 -1.8846  0.5972
  304MOL0     H40990   4.781   3.587   7.976 -0.1602 -4.6373 -0.8553
  304MOL0     H40991   5.149   3.729   7.943  0.4907 -0.2975  0.0003
  304MOL0     H40992   5.260   3.939   7.968 -1.9258 -4.4194  0.3362
  304MOL0     H40993   5.173   4.085   8.042 -0.9293 -0.2346 -2.7087
  304MOL0     H40994   5.194   3.991   8.264 -2.1259 -0.5324 -0.8802
  304MOL0     H40995   5.271   3.843   8.204  1.2187 -0.7828 -2.4533
  304MOL0     H40996   5.434   4.016   8.292 -1.1537 -0.4532  0.8402
  304MOL0     H40997   5.390   4.127   8.164 -2.3240  0.3908  0.0261
  304MOL0     H40998   5.478   3.956   7.994  2.2741 -0.4901 -0.3678
  304MOL0     H40999   5.542   3.868   8.138  3.3635  1.6315 -0.0630
  304MOL0     H41000   5.707   3.856   7.939  0.6894  0.0138  1.1720
  304MOL0     H41001   5.921   3.846   7.857  0.7529 -0.3733 -0.2386
  304MOL0     H41002   6.430   4.257   7.908 -1.5838  0.0844  1.5838
  304MOL0     H41003   6.642   4.220   7.813  0.2218 -0.3795 -2.0936
  304MOL0     H41004   6.773   3.989   7.602  0.7486 -0.6548 -0.8447
  304MOL0     H41005   6.816   4.138   7.690  0.5611  0.4823 -0.1674
  304MOL0     H41006   6.971   3.880   7.669 -1.4156  1.1056  0.6842
  304MOL0     H41007   7.011   4.014   7.571  0.0326 -2.4562 -0.3780
  304MOL0     H41008   7.053   4.150   7.764 -2.1757  0.5258 -2.3685
  304MOL0     H41009   7.027   4.024   7.877  1.7929  2.2805  0.4586
  304MOL0     H41010   7.243   4.034   7.662  0.1059  1.0967  0.6948
  304MOL0     H41011   7.212   3.887   7.768  0.0721 -0.3857 -0.9087
  304MOL0     H41012   7.274   4.066   7.962 -2.5151 -2.2383 -0.4380
  304MOL0     H41013   7.328   4.179   7.844  0.2355 -0.0319 -0.8300
  304MOL0     H41014   7.517   4.027   7.920  1.3293 -1.2191 -0.3518
  304MOL0     H41015   7.422   3.882   7.872  3.1610 -0.7778 -2.2230
  304MOL0     H41016   7.503   4.099   7.698 -0.2856 -0.7006  0.0637
  304MOL0     H41017   7.443   3.949   7.635  0.6244 -2.1892  0.2559
  304MOL0     H41018   7.689   3.970   7.633 -1.8031 -0.3764 -1.6049
  304MOL0     H41019   7.696   3.977   7.804  2.0951  0.2759 -1.3399
  304MOL0     H41020   6.610   3.804   7.921 -0.2329 -0.6959 -0.9315
  304MOL0     H41021   6.379   3.835   7.987  1.3045 -2.6173 -1.6019
  304MOL0     H41022   6.052   4.159   8.132  0.7529 -0.3110 -0.3845
  304MOL0     H41023   5.821   4.173   8.205  2.2964  0.6314  1.0605
  304MOL0     H41024   4.033   3.155   8.585  0.0947  0.3732  0.3940
  304MOL0     H41025   3.816   3.019   8.555  1.2780  1.0545  0.5878
  304MOL0     H41026   3.524   2.839   8.229 -1.1751 -1.2272 -1.7478
  304MOL0     H41027   3.334   2.686   8.216 -1.1388 -0.5916  0.2356
  304MOL0     H41028   2.947   2.594   8.431 -0.2241 -0.3775  0.0465
  304MOL0     H41029   2.985   2.755   8.497  0.1066 -0.7095  0.3200
  304MOL0     H41030   3.014   2.569   8.650 -0.0623 -3.7442 -0.9622
  304MOL0     H41031   3.183   2.624   8.602  0.9330 -1.2908 -1.3493
  304MOL0     H41032   3.179   2.426   8.435  0.9441 -2.0562  0.5785
  304MOL0     H41033   3.016   2.387   8.474  2.8076 -4.1080 -1.5912
  304MOL0     H41034   3.268   2.375   8.649  0.9053 -3.5303 -1.1556
  304MOL0     H41035   3.109   2.336   8.706  0.5289  1.3062 -0.5252
  304MOL0     H41036   3.237   2.002   8.492  0.2571  0.4667 -0.5408
  304MOL0     H41037   3.137   2.896   8.529  0.8872  2.4259  0.3051
  304MOL0     H41038   3.292   3.175   8.511 -0.9717 -1.2116 -1.4790
  304MOL0     H41039   3.238   3.065   8.645  2.1170 -1.8889  2.2794
  304MOL0     H41040   3.400   3.096   8.638 -0.2225 -0.7207  0.4813
  305MOL0     O41041   0.559   3.081   0.103 -0.4626  0.2831  0.7271
  305MOL0     C41042   0.452   3.061   0.160  0.8966 -0.5003  0.4893
  305MOL0     O41043   0.435   3.040   0.295 -0.5445  0.2366  0.0134
  305MOL0     C41044   0.542   3.027   0.368 -0.2982 -0.9189 -0.1157
  305MOL0     C41045   0.621   2.912   0.367 -0.7515  0.7360 -0.9730
  305MOL0     C41046   0.746   2.907   0.437  0.1579 -0.1393 -0.8878
  305MOL0     C41047   0.788   3.016   0.520  0.0931  0.9003 -0.2987
  305MOL0     O41048   0.909   3.018   0.592  0.0409 -0.7410  0.5554
  305MOL0     C41049   0.976   2.897   0.629  0.0045  0.4915 -0.0824
  305MOL0     C41050   1.104   2.933   0.705 -0.4840 -0.0664 -0.5571
  305MOL0     C41051   1.073   2.995   0.838 -0.5289  0.4857  0.0082
  305MOL0     C41052   1.037   3.149   0.832 -0.0988 -0.6991 -0.5447
  305MOL0     C41053   1.063   3.195   0.971 -0.7550 -0.1202 -0.3275
  305MOL0     C41054   0.983   3.324   0.999  0.1846  0.2206 -0.3270
  305MOL0     C41055   1.036   3.411   1.111  0.8835 -0.6739  0.1785
  305MOL0     C41056   1.019   3.332   1.246  0.9955 -1.0341 -0.0482
  305MOL0     N41057   1.031   3.419   1.362  0.0206 -0.3588 -0.1357
  305MOL0     C41058   1.148   3.479   1.377  0.0461 -0.4787 -0.1724
  305MOL0     C41059   1.144   3.522   1.506 -0.1556  0.2138  0.7012
  305MOL0     C41060   1.268   3.589   1.564 -0.8294  0.4330 -0.1748
  305MOL0     C41061   1.394   3.496   1.551 -0.8773 -0.1344 -0.0800
  305MOL0     C41062   1.515   3.570   1.602  0.0417 -0.2397 -0.3446
  305MOL0     C41063   1.573   3.665   1.492  0.4641 -0.0021  0.1090
  305MOL0     O41064   1.593   3.607   1.361  0.4827  0.8854 -0.5656
  305MOL0     C41065   1.683   3.511   1.357 -0.4627 -0.0582  1.0232
  305MOL0     C41066   1.812   3.534   1.399 -0.0513  0.4599  1.4502
  305MOL0     C41067   1.907   3.431   1.407  0.2838  0.8532 -0.1862
  305MOL0     C41068   1.875   3.304   1.354 -0.2193  0.5721 -0.2255
  305MOL0     C41069   1.982   3.200   1.341  0.3613 -0.6312  0.4625
  305MOL0     O41070   2.099   3.245   1.381  0.1732  0.3490  0.8552
  305MOL0     C41071   2.205   3.159   1.383 -0.2268  0.0035 -0.5542
  305MOL0     C41072   2.222   3.093   1.507 -0.2553 -0.3308 -0.1339
  305MOL0     C41073   2.327   3.001   1.512  1.0296  0.2797  0.3759
  305MOL0     C41074   2.418   2.980   1.414  0.3433  0.1147  0.6704
  305MOL0     O41075   2.530   2.904   1.426  0.0751  0.1721 -0.1878
  305MOL0     C41076   2.570   2.842   1.553 -0.0669 -0.9960  0.5730
  305MOL0     C41077   2.699   2.767   1.525 -0.3086 -0.1283  0.6047
  305MOL0     C41078   2.738   2.666   1.636 -0.4664  0.4678 -0.5680
  305MOL0     C41079   2.889   2.631   1.630  0.2567  0.8310 -0.5070
  305MOL0     C41080   2.911   2.506   1.541 -0.3755 -0.8170 -0.2072
  305MOL0     C41081   3.061   2.464   1.524  0.4332 -0.6216 -0.1607
  305MOL0     C41082   3.071   2.329   1.455  0.3154  0.2938  0.6469
  305MOL0     C41083   3.215   2.295   1.440 -0.3624 -0.2232 -0.4132
  305MOL0    Cl41084   3.319   2.273   1.584 -0.1353 -0.0929 -0.0415
  305MOL0     C41085   2.382   3.031   1.288 -0.0334 -0.6525 -0.1861
  305MOL0     C41086   2.274   3.121   1.266  0.4604 -0.1445 -0.4396
  305MOL0     O41087   1.950   3.080   1.310 -0.8066 -0.5108  0.1891
  305MOL0     C41088   1.744   3.282   1.307  0.0220 -0.8810 -0.1906
  305MOL0     C41089   1.647   3.386   1.301  0.6980  0.5014 -0.2240
  305MOL0     N41090   1.024   3.496   1.562  0.3728  0.1202  0.1237
  305MOL0     N41091   0.954   3.436   1.474  0.7384  0.1220 -0.6316
  305MOL0     C41092   0.707   3.127   0.520  0.2214 -0.1500  0.8147
  305MOL0     C41093   0.585   3.132   0.452  0.3201 -0.2547 -0.0184
  305MOL0     C41094   0.329   3.056   0.084  0.9002 -0.0449  0.4981
  305MOL0     C41095   0.321   3.135  -0.035  0.6957 -0.5870 -0.7626
  305MOL0     C41096   0.199   3.136  -0.108  0.4632 -0.3989 -0.1570
  305MOL0     C41097   0.090   3.063  -0.079 -0.4120  0.0101 -0.3348
  305MOL0     O41098  -0.020   3.061  -0.164  0.6052 -0.1754 -0.1587
  305MOL0     C41099  -0.140   3.115  -0.102  0.4183 -0.3509 -0.3432
  305MOL0     C41100  -0.258   3.083  -0.191  0.6550  0.0802 -0.1501
  305MOL0     C41101  -0.297   2.935  -0.192 -0.3194 -0.0847 -0.3309
  305MOL0     C41102  -0.376   2.904  -0.062  0.2850 -0.2349  0.0490
  305MOL0     C41103  -0.420   2.763  -0.062 -0.0335 -0.0776  0.3385
  305MOL0     C41104  -0.467   2.654  -0.069  0.4949  0.6742 -1.1048
  305MOL0     C41105   0.104   2.983   0.036  0.2404  0.4600 -0.9394
  305MOL0     C41106   0.217   2.979   0.123 -0.5993  0.6340  0.9578
  305MOL0     C41107   0.213   2.876   0.233 -0.2210 -0.2869  0.0856
  305MOL0     H41108   0.588   2.822   0.316 -2.7380  0.1882  1.1319
  305MOL0     H41109   0.805   2.817   0.422 -1.2995 -1.3889  0.4475
  305MOL0     H41110   0.918   2.832   0.695  3.3069 -0.5543  2.0915
  305MOL0     H41111   1.007   2.833   0.546 -2.1030 -0.2682 -0.3382
  305MOL0     H41112   1.164   3.000   0.644 -0.2688 -1.4218 -1.8853
  305MOL0     H41113   1.158   2.839   0.714 -2.7830 -1.8747 -3.7482
  305MOL0     H41114   1.164   2.976   0.896  1.1655 -0.6058 -2.7831
  305MOL0     H41115   0.991   2.937   0.881 -0.1588  1.5049  2.2200
  305MOL0     H41116   1.096   3.204   0.759 -0.5713 -1.7280 -1.7293
  305MOL0     H41117   0.932   3.164   0.806 -0.2573  1.4835  1.0039
  305MOL0     H41118   1.044   3.121   1.049  2.1116  0.5591  1.1502
  305MOL0     H41119   1.168   3.217   0.993 -1.5441 -0.0434  4.3734
  305MOL0     H41120   0.979   3.378   0.904  4.4496  0.3025 -0.6543
  305MOL0     H41121   0.879   3.296   1.019 -0.0732 -1.6265 -3.5575
  305MOL0     H41122   0.977   3.503   1.118  0.8795 -0.6310 -0.3775
  305MOL0     H41123   1.141   3.438   1.092  1.2996 -0.3381  2.6797
  305MOL0     H41124   0.919   3.290   1.240  1.0176 -0.8961 -2.2080
  305MOL0     H41125   1.091   3.249   1.249  2.1903  0.0117  2.2098
  305MOL0     H41126   1.234   3.485   1.311  0.0251  0.1055 -0.1533
  305MOL0     H41127   1.280   3.682   1.507  0.2967  0.6433  0.3689
  305MOL0     H41128   1.255   3.602   1.672 -2.1435 -2.3188  0.0769
  305MOL0     H41129   1.383   3.417   1.625 -0.6078  0.6626  0.8271
  305MOL0     H41130   1.407   3.454   1.451 -3.2948  1.6993 -1.2686
  305MOL0     H41131   1.591   3.499   1.634  1.6126  1.4230 -0.2325
  305MOL0     H41132   1.483   3.619   1.695 -1.3495  0.1719 -1.0015
  305MOL0     H41133   1.666   3.708   1.530 -0.2006  0.9212  0.7277
  305MOL0     H41134   1.505   3.751   1.483  0.2605  0.0632  1.9493
  305MOL0     H41135   1.853   3.632   1.418 -1.6207  1.7162 -1.1519
  305MOL0     H41136   2.004   3.469   1.437  0.7368 -0.3537 -0.0803
  305MOL0     H41137   2.156   3.112   1.591 -1.2794 -0.5266 -0.8754
  305MOL0     H41138   2.335   2.945   1.605 -2.2732 -0.2475  0.4685
  305MOL0     H41139   2.579   2.925   1.623 -0.1423  0.1649 -0.7459
  305MOL0     H41140   2.493   2.769   1.582 -0.0924 -1.5271 -0.7233
  305MOL0     H41141   2.690   2.716   1.428  0.8138  0.4082  0.1941
  305MOL0     H41142   2.776   2.844   1.523 -0.4327  0.2663  4.6009
  305MOL0     H41143   2.720   2.718   1.731  0.6866 -0.9466  0.4625
  305MOL0     H41144   2.671   2.579   1.634 -2.6732  2.0623  0.1341
  305MOL0     H41145   2.918   2.601   1.731  0.6647 -1.3992 -1.2185
  305MOL0     H41146   2.948   2.713   1.590  0.3010  1.5203  0.9242
  305MOL0     H41147   2.860   2.523   1.445  0.4149  0.3779 -0.4376
  305MOL0     H41148   2.861   2.423   1.591  0.9679 -1.3109  0.3483
  305MOL0     H41149   3.123   2.545   1.485  1.8043 -1.9136 -0.7860
  305MOL0     H41150   3.111   2.441   1.619  1.8198 -0.4430 -0.8297
  305MOL0     H41151   3.025   2.326   1.356  1.1407  0.3709  0.2557
  305MOL0     H41152   3.021   2.251   1.514  1.9076  0.0587  1.7563
  305MOL0     H41153   3.225   2.218   1.364  1.6006 -0.7186  0.2813
  305MOL0     H41154   3.265   2.384   1.400  0.7266  0.1845  1.6927
  305MOL0     H41155   2.432   3.016   1.193 -1.4075 -0.8093 -0.9249
  305MOL0     H41156   2.263   3.165   1.167  0.5383  0.7913 -0.0360
  305MOL0     H41157   1.712   3.183   1.276 -0.7338 -0.9674  0.8463
  305MOL0     H41158   1.546   3.380   1.262  0.4057  4.4263 -0.5281
  305MOL0     H41159   0.742   3.223   0.554  0.1844 -0.8261  2.8999
  305MOL0     H41160   0.527   3.223   0.443  2.4380  1.1849  0.3694
  305MOL0     H41161   0.401   3.200  -0.069  0.7115  0.9684  2.0056
  305MOL0     H41162   0.176   3.199  -0.193 -1.9240 -2.3925 -1.0991
  305MOL0     H41163  -0.126   3.221  -0.082  0.2812 -0.2021 -1.0403
  305MOL0     H41164  -0.149   3.063  -0.005 -1.5759 -0.4766 -0.5619
  305MOL0     H41165  -0.218   3.114  -0.288  1.4625  0.7599  0.3791
  305MOL0     H41166  -0.350   3.138  -0.170 -0.2065 -1.5376  0.4152
  305MOL0     H41167  -0.207   2.874  -0.186  0.3037  0.7805 -0.6821
  305MOL0     H41168  -0.361   2.912  -0.278 -0.8532 -0.1458  0.0746
  305MOL0     H41169  -0.303   2.910   0.020 -1.4883  0.5434  1.6546
  305MOL0     H41170  -0.463   2.970  -0.055  2.0711  2.4023 -0.8582
  305MOL0     H41171  -0.522   2.562  -0.068 -0.4001  1.1519  1.4961
  305MOL0     H41172   0.024   2.912   0.054  0.0909  0.8735  0.0551
  305MOL0     H41173   0.207   2.921   0.332 -0.3353 -2.7590  1.2660
  305MOL0     H41174   0.128   2.808   0.225  0.0726 -0.8987  1.8041
  305MOL0     H41175   0.304   2.816   0.241 -0.8687 -0.9742  3.3275
  306MOL0     O41176   5.317   3.969   4.717  0.8588  0.3727  0.5765
  306MOL0     C41177   5.280   3.892   4.630  0.0627  0.4121  0.8651
  306MOL0     O41178   5.367   3.816   4.546 -0.2605  0.1910 -0.8632
  306MOL0     C41179   5.498   3.832   4.580  0.0230 -0.5236  0.9384
  306MOL0     C41180   5.550   3.769   4.691  0.4053 -0.6364  0.4302
  306MOL0     C41181   5.687   3.776   4.735  0.6509 -0.4339  0.7595
  306MOL0     C41182   5.775   3.861   4.662 -0.0785 -0.7837  0.3090
  306MOL0     O41183   5.898   3.901   4.701  0.1155 -0.6900  0.7606
  306MOL0     C41184   5.968   3.834   4.810  0.0435 -0.9025 -0.3797
  306MOL0     C41185   6.107   3.908   4.835  0.3948 -0.1336 -0.7800
  306MOL0     C41186   6.227   3.837   4.778  0.3829 -0.5289  0.4040
  306MOL0     C41187   6.360   3.904   4.828  0.6346 -0.6508 -0.1782
  306MOL0     C41188   6.503   3.841   4.798  0.0943 -0.6423  0.7318
  306MOL0     C41189   6.619   3.913   4.865 -0.3908  0.2751  0.1928
  306MOL0     C41190   6.755   3.849   4.810 -0.1083 -0.1141  0.7534
  306MOL0     C41191   6.877   3.941   4.850 -0.1682  1.5246 -0.5492
  306MOL0     N41192   7.005   3.869   4.891  0.9573 -0.3535  0.4493
  306MOL0     C41193   7.027   3.810   5.009  0.3332 -0.0049  0.3468
  306MOL0     C41194   7.155   3.776   5.012 -0.2056 -0.4635 -0.1660
  306MOL0     C41195   7.237   3.719   5.124  0.6237 -0.5278 -0.0406
  306MOL0     C41196   7.297   3.581   5.102  1.0056 -0.0877 -0.4639
  306MOL0     C41197   7.371   3.532   5.228 -0.3342  0.4900 -0.6824
  306MOL0     C41198   7.377   3.380   5.228  0.3567 -0.2524  0.7352
  306MOL0     O41199   7.299   3.321   5.342 -0.4789 -0.4097  0.0963
  306MOL0     C41200   7.167   3.324   5.343 -0.7023  0.0489  0.3625
  306MOL0     C41201   7.104   3.377   5.459  0.8757  0.5042  0.2949
  306MOL0     C41202   6.966   3.375   5.467 -0.0108  0.3448  0.2573
  306MOL0     C41203   6.893   3.304   5.355 -0.1697 -0.2967 -1.0335
  306MOL0     C41204   6.752   3.287   5.367  0.7919 -0.7991  0.0105
  306MOL0     O41205   6.690   3.191   5.292 -0.5678  0.3339  0.0819
  306MOL0     C41206   6.551   3.166   5.294  0.6412  0.0640 -0.5346
  306MOL0     C41207   6.501   3.033   5.314 -0.0888 -0.7499 -0.4704
  306MOL0     C41208   6.367   3.009   5.318  0.4027 -0.4738 -0.9133
  306MOL0     C41209   6.272   3.102   5.284 -0.9520  0.4664  0.3740
  306MOL0     O41210   6.147   3.055   5.274 -0.8580  0.4277  0.1139
  306MOL0     C41211   6.037   3.138   5.244 -0.5603 -0.2557  0.0434
  306MOL0     C41212   5.910   3.059   5.263 -0.7577 -0.2449 -0.7152
  306MOL0     C41213   5.777   3.134   5.240  0.1473  0.7135  0.8743
  306MOL0     C41214   5.670   3.032   5.287 -0.0710 -0.2315  0.4608
  306MOL0     C41215   5.531   3.085   5.272  0.3311 -0.1412 -0.3790
  306MOL0     C41216   5.477   3.107   5.128  0.2911 -0.0505 -0.6452
  306MOL0     C41217   5.343   3.188   5.135 -0.2359 -0.6439  0.4214
  306MOL0     C41218   5.292   3.218   4.994  0.0464 -0.3748  0.1079
  306MOL0    Cl41219   5.226   3.067   4.934  0.2246 -0.2305 -0.2362
  306MOL0     C41220   6.316   3.231   5.265  0.1062 -0.0187 -0.0242
  306MOL0     C41221   6.455   3.268   5.265 -0.2932 -0.3840 -0.3648
  306MOL0     O41222   6.689   3.365   5.436 -0.5711  0.3180  0.0580
  306MOL0     C41223   6.960   3.264   5.242 -0.2415 -0.4226  0.6092
  306MOL0     C41224   7.099   3.275   5.234  0.1316 -0.3468  0.3907
  306MOL0     N41225   7.219   3.819   4.890 -0.1039 -0.1914  0.4367
  306MOL0     N41226   7.125   3.890   4.828 -0.2589  0.3145  0.6822
  306MOL0     C41227   5.723   3.929   4.551  0.2681  0.7173  0.1827
  306MOL0     C41228   5.582   3.921   4.511  0.6191 -0.0736 -0.0271
  306MOL0     C41229   5.137   3.870   4.607  0.0509 -0.3852 -0.0027
  306MOL0     C41230   5.082   3.740   4.582 -1.4316 -0.1876 -0.0312
  306MOL0     C41231   4.948   3.721   4.553 -0.5336 -0.1261  0.8581
  306MOL0     C41232   4.856   3.819   4.581 -0.2451  0.2915 -0.4341
  306MOL0     O41233   4.722   3.801   4.583 -0.4225 -0.7244  0.3232
  306MOL0     C41234   4.672   3.670   4.563  0.3841 -0.0307 -0.1340
  306MOL0     C41235   4.522   3.700   4.557 -0.9242 -0.2715 -0.3858
  306MOL0     C41236   4.442   3.575   4.547 -0.3918 -0.3215  0.0204
  306MOL0     C41237   4.414   3.502   4.680  0.3750 -0.3061 -0.6498
  306MOL0     C41238   4.346   3.382   4.625 -0.2486 -0.6046  0.9186
  306MOL0     C41239   4.287   3.278   4.598  0.3803  0.9840  0.7818
  306MOL0     C41240   4.903   3.947   4.614  0.2901 -0.1343 -0.3488
  306MOL0     C41241   5.036   3.971   4.618 -0.0668 -0.3035 -0.2821
  306MOL0     C41242   5.066   4.109   4.663 -0.8547 -0.6196 -0.2393
  306MOL0     H41243   5.469   3.716   4.738 -1.0043  0.9288 -0.1326
  306MOL0     H41244   5.721   3.701   4.805  2.0534 -1.9634 -1.4203
  306MOL0     H41245   5.903   3.840   4.898  0.9424  1.9354  0.1803
  306MOL0     H41246   5.998   3.735   4.774  0.8510  0.0384 -2.4732
  306MOL0     H41247   6.117   3.900   4.944  2.1208  0.2305 -0.8862
  306MOL0     H41248   6.111   4.015   4.811  3.3243  0.3146  1.2145
  306MOL0     H41249   6.215   3.838   4.670  0.5279  1.4429  0.3701
  306MOL0     H41250   6.223   3.732   4.807  0.2621 -0.3464  1.0826
  306MOL0     H41251   6.354   4.008   4.795  0.2169 -1.7274 -3.9197
  306MOL0     H41252   6.357   3.894   4.937  0.0093 -1.0940 -0.2313
  306MOL0     H41253   6.497   3.732   4.797 -0.6842 -0.6136 -1.2674
  306MOL0     H41254   6.535   3.875   4.699  2.1002 -0.1108  1.5075
  306MOL0     H41255   6.621   4.017   4.832 -1.0457 -0.3569 -2.0458
  306MOL0     H41256   6.604   3.906   4.973 -0.8623 -1.6734  0.0353
  306MOL0     H41257   6.756   3.832   4.701 -0.0225 -1.5467  0.9594
  306MOL0     H41258   6.764   3.749   4.852 -1.0255 -0.7607 -0.5119
  306MOL0     H41259   6.913   4.005   4.769  2.7182  0.4891 -0.1943
  306MOL0     H41260   6.832   4.004   4.927 -2.7899  0.3203 -0.9836
  306MOL0     H41261   6.958   3.790   5.091  0.0373 -2.3668 -0.4061
  306MOL0     H41262   7.317   3.792   5.137 -1.0054  0.8997  2.9321
  306MOL0     H41263   7.165   3.711   5.206 -0.5156 -0.7022 -1.0244
  306MOL0     H41264   7.217   3.517   5.062  1.0620 -0.2661 -0.2945
  306MOL0     H41265   7.368   3.587   5.019 -1.7532  0.6882 -2.9478
  306MOL0     H41266   7.315   3.566   5.315 -2.5440 -0.0319 -1.8302
  306MOL0     H41267   7.471   3.575   5.229  0.0754 -0.3044 -2.5806
  306MOL0     H41268   7.482   3.352   5.242 -0.3845 -4.2688 -0.3523
  306MOL0     H41269   7.347   3.339   5.131  0.8802  1.8738 -0.3958
  306MOL0     H41270   7.163   3.410   5.544  0.0135  2.7045  0.1112
  306MOL0     H41271   6.918   3.423   5.552  1.1069  1.7593  0.1451
  306MOL0     H41272   6.567   2.952   5.343  0.5802  0.6690  2.3429
  306MOL0     H41273   6.323   2.919   5.361 -2.5290  1.0594 -0.4099
  306MOL0     H41274   6.031   3.223   5.313  1.1808  0.8690 -1.1232
  306MOL0     H41275   6.040   3.175   5.142 -0.3793  1.0667  0.5134
  306MOL0     H41276   5.902   2.967   5.205 -0.0936  0.2763 -1.6677
  306MOL0     H41277   5.912   3.027   5.368 -0.2021  1.0213 -0.3094
  306MOL0     H41278   5.764   3.222   5.304 -0.6727 -0.5884  2.5725
  306MOL0     H41279   5.760   3.151   5.133  0.0211 -2.4502  0.3200
  306MOL0     H41280   5.685   3.014   5.394 -0.4125  0.5645  0.6471
  306MOL0     H41281   5.684   2.934   5.240 -0.1819  0.3589 -0.8596
  306MOL0     H41282   5.532   3.182   5.322  0.6021 -1.1931  1.7436
  306MOL0     H41283   5.461   3.032   5.337  0.7856  1.9481  1.9783
  306MOL0     H41284   5.540   3.153   5.051 -2.6032  0.3068 -2.9644
  306MOL0     H41285   5.457   3.006   5.093 -0.7894  0.0245 -0.2716
  306MOL0     H41286   5.361   3.275   5.199  0.8391 -1.8934  1.9086
  306MOL0     H41287   5.263   3.137   5.189 -0.6290  0.7231  1.1666
  306MOL0     H41288   5.211   3.290   5.005  1.8663  1.5027  2.2297
  306MOL0     H41289   5.367   3.260   4.926 -2.0776  0.7041 -1.7010
  306MOL0     H41290   6.244   3.311   5.253  0.6471  0.2881 -1.3560
  306MOL0     H41291   6.488   3.371   5.258 -0.9042 -0.2347 -1.0949
  306MOL0     H41292   6.910   3.228   5.152  0.9135  1.2408 -0.7566
  306MOL0     H41293   7.152   3.241   5.145 -1.6132 -0.4044 -0.6574
  306MOL0     H41294   5.780   4.004   4.498 -0.6806  0.5552 -1.1238
  306MOL0     H41295   5.541   3.978   4.428  1.8759  1.8603  0.5916
  306MOL0     H41296   5.156   3.664   4.565  0.8461  1.8665  0.1226
  306MOL0     H41297   4.922   3.626   4.508 -0.3840  0.7454 -1.2238
  306MOL0     H41298   4.704   3.611   4.650 -0.1784 -0.7831 -0.4320
  306MOL0     H41299   4.703   3.615   4.474 -0.0776 -3.5047  1.6776
  306MOL0     H41300   4.506   3.766   4.471  0.5519  0.3805 -0.1850
  306MOL0     H41301   4.494   3.773   4.634  1.0735  4.6660 -3.7954
  306MOL0     H41302   4.501   3.502   4.490  2.4084 -0.8821  3.2666
  306MOL0     H41303   4.346   3.599   4.501  0.0584  0.0698 -0.7474
  306MOL0     H41304   4.509   3.481   4.730  0.9424  0.0564 -1.5375
  306MOL0     H41305   4.357   3.564   4.749  1.7839  1.7183 -1.1973
  306MOL0     H41306   4.235   3.186   4.584  3.2691 -0.6933  0.3355
  306MOL0     H41307   4.830   4.015   4.656  2.5959  0.1410  3.7336
  306MOL0     H41308   5.087   4.118   4.770 -2.9211  3.8330  0.0423
  306MOL0     H41309   5.149   4.146   4.603 -0.5665 -0.5734  0.1893
  306MOL0     H41310   4.976   4.170   4.650 -0.0739  0.4822 -0.6045
  307MOL0     O41311   5.290   2.894  10.046 -0.2300  0.2793  0.1956
  307MOL0     C41312   5.250   2.918  10.155 -0.0381  0.0243  0.1402
  307MOL0     O41313   5.321   2.978  10.249  0.2286  0.5392  0.1487
  307MOL0     C41314   5.456   2.947  10.259 -0.0279  0.6471  0.3135
  307MOL0     C41315   5.504   2.814  10.272 -0.7315 -0.5564  0.6355
  307MOL0     C41316   5.640   2.783  10.270 -0.2885  0.4125 -0.8528
  307MOL0     C41317   5.742   2.881  10.277  0.1364 -0.7788 -0.1263
  307MOL0     O41318   5.878   2.877  10.301  0.5255 -0.1378 -0.2298
  307MOL0     C41319   5.935   2.752  10.316  0.0064 -0.1691 -0.0228
  307MOL0     C41320   6.087   2.766  10.337  0.6626  0.6232  0.4146
  307MOL0     C41321   6.163   2.801  10.200 -0.1696  1.3930 -0.4578
  307MOL0     C41322   6.318   2.808  10.219 -0.2444  0.3959 -0.1490
  307MOL0     C41323   6.372   2.797  10.069  0.7476  0.0282  0.5556
  307MOL0     C41324   6.523   2.796  10.060 -0.7539  0.3865 -0.3534
  307MOL0     C41325   6.564   2.764   9.917 -0.0545 -0.0164  1.3946
  307MOL0     C41326   6.555   2.881   9.821  0.1484 -0.2142 -1.0990
  307MOL0     N41327   6.608   2.855   9.689 -0.3631  0.3951  0.3256
  307MOL0     C41328   6.742   2.849   9.665 -0.0327  1.0230  0.4620
  307MOL0     C41329   6.745   2.849   9.531  0.8322  0.2148 -0.2470
  307MOL0     C41330   6.873   2.858   9.451  0.1371 -0.1747  0.3457
  307MOL0     C41331   6.901   2.743   9.360  0.6118 -0.9136 -0.5604
  307MOL0     C41332   6.956   2.620   9.439  0.2318 -0.4965 -0.1781
  307MOL0     C41333   6.970   2.506   9.336 -0.4819  0.1776  0.1794
  307MOL0     O41334   7.012   2.385   9.403 -0.0556 -0.0556 -0.3533
  307MOL0     C41335   7.136   2.388   9.453  0.0879 -1.1613  0.5984
  307MOL0     C41336   7.159   2.370   9.587  0.1516 -0.2393 -0.2927
  307MOL0     C41337   7.288   2.354   9.637  0.5217  0.2956 -0.8243
  307MOL0     C41338   7.394   2.369   9.549 -0.5774  0.4630 -0.1522
  307MOL0     C41339   7.523   2.357   9.594  0.4996 -0.1958 -0.4002
  307MOL0     O41340   7.553   2.265   9.693 -0.1264 -0.8381 -0.0766
  307MOL0     C41341   7.641   2.302   9.791 -0.0734 -0.6568 -0.9254
  307MOL0     C41342   7.639   2.425   9.857  0.4591  0.2109 -0.1832
  307MOL0     C41343   7.746   2.446   9.950 -0.5300 -0.1667  0.4589
  307MOL0     C41344   7.846   2.352   9.989 -0.0959  0.0483  0.1770
  307MOL0     O41345   7.947   2.399  10.071  0.6362 -0.1889 -0.2980
  307MOL0     C41346   8.066   2.406   9.992 -0.6407 -0.2552 -0.0606
  307MOL0     C41347   8.167   2.511  10.045  0.3136  0.0623  0.2677
  307MOL0     C41348   8.258   2.469  10.154  0.0133 -0.1888  0.3661
  307MOL0     C41349   8.364   2.369  10.096  0.2409  0.1706  0.0368
  307MOL0     C41350   8.438   2.305  10.216 -0.5735  0.3617  0.2033
  307MOL0     C41351   8.545   2.395  10.261 -0.0551  0.5891 -0.2891
  307MOL0     C41352   8.647   2.310  10.337  0.3989 -0.9145 -0.0867
  307MOL0     C41353   8.748   2.252  10.242  0.0853 -0.7619 -0.8332
  307MOL0    Cl41354   8.839   2.362  10.141 -0.2723  0.2955 -0.7642
  307MOL0     C41355   7.836   2.225   9.929 -0.2165  0.0711 -0.3738
  307MOL0     C41356   7.737   2.206   9.831 -0.2361  0.4026 -0.3029
  307MOL0     O41357   7.598   2.444   9.553 -0.4746 -0.3202  0.4388
  307MOL0     C41358   7.373   2.380   9.415  0.9328 -0.4757  0.9905
  307MOL0     C41359   7.245   2.387   9.363  0.5330 -0.2107  0.4737
  307MOL0     N41360   6.626   2.839   9.473 -0.0670 -0.1203  0.3100
  307MOL0     N41361   6.542   2.840   9.564 -0.9241 -0.3930  0.1720
  307MOL0     C41362   5.694   3.019  10.276 -0.1256  0.5045 -0.7658
  307MOL0     C41363   5.553   3.048  10.268 -0.2086 -0.5403  0.2481
  307MOL0     C41364   5.103   2.914  10.177 -0.0344  0.9169 -0.0387
  307MOL0     C41365   5.057   2.960  10.298 -0.4520  0.7524 -0.3894
  307MOL0     C41366   4.919   2.948  10.328  0.2620 -0.6293 -0.3125
  307MOL0     C41367   4.822   2.905  10.242  0.5779 -0.6080 -0.0517
  307MOL0     O41368   4.697   2.911  10.294  0.1205 -0.2535 -0.6375
  307MOL0     C41369   4.600   2.822  10.225 -0.1976 -0.2317 -0.1784
  307MOL0     C41370   4.458   2.845  10.262  1.0546 -0.1862 -0.3733
  307MOL0     C41371   4.349   2.784  10.176 -0.5309  0.2136 -0.1326
  307MOL0     C41372   4.354   2.807  10.020 -0.7569  0.4093 -0.1298
  307MOL0     C41373   4.414   2.941   9.985 -0.4186 -0.4079 -0.0009
  307MOL0     C41374   4.472   3.039   9.944  0.0043 -0.7093  0.0934
  307MOL0     C41375   4.871   2.852  10.123  0.2608  1.1633  0.5925
  307MOL0     C41376   5.003   2.853  10.085  0.4352  0.1915 -0.2326
  307MOL0     C41377   5.039   2.806   9.944 -0.9399 -0.0763 -1.3074
  307MOL0     H41378   5.431   2.736  10.291 -1.5251 -0.3488 -1.3122
  307MOL0     H41379   5.673   2.680  10.258  1.0135  0.7272 -0.1619
  307MOL0     H41380   5.889   2.715  10.408  1.1553 -1.9220 -0.1200
  307MOL0     H41381   5.915   2.682  10.234 -0.3588  2.3410 -2.2180
  307MOL0     H41382   6.119   2.670  10.380 -0.0018 -0.0015 -0.4668
  307MOL0     H41383   6.097   2.842  10.416  3.1734 -1.1511  1.9677
  307MOL0     H41384   6.122   2.892  10.157 -0.5269  1.7208  0.5552
  307MOL0     H41385   6.141   2.720  10.130  0.6123  1.1487 -0.4401
  307MOL0     H41386   6.345   2.904  10.263 -0.1289 -1.0023  3.0838
  307MOL0     H41387   6.352   2.728  10.286 -1.4504  1.0401  1.2850
  307MOL0     H41388   6.329   2.704  10.030  0.6308  0.4620 -0.3970
  307MOL0     H41389   6.334   2.883  10.013  0.3739 -0.4787  0.0063
  307MOL0     H41390   6.557   2.896  10.086  1.8838 -0.8572  1.4915
  307MOL0     H41391   6.560   2.733  10.142  0.8085  2.7967  0.9277
  307MOL0     H41392   6.504   2.681   9.880 -0.8341  0.5411  1.3787
  307MOL0     H41393   6.668   2.730   9.927  0.3292  1.2097  1.7641
  307MOL0     H41394   6.451   2.915   9.815  0.7712  1.8883 -0.8068
  307MOL0     H41395   6.611   2.962   9.869  0.3581  0.4642 -2.4455
  307MOL0     H41396   6.831   2.851   9.727  1.4464  1.9199 -1.5492
  307MOL0     H41397   6.871   2.949   9.390 -1.8537 -0.1364  0.4112
  307MOL0     H41398   6.964   2.871   9.511  1.7209 -0.2920 -1.9114
  307MOL0     H41399   6.807   2.730   9.305 -0.4477  4.5742 -0.6217
  307MOL0     H41400   6.978   2.777   9.290  0.5635  0.3561 -0.0240
  307MOL0     H41401   6.877   2.596   9.511  1.3473 -1.5794  0.7449
  307MOL0     H41402   7.054   2.641   9.484 -0.3784  1.9692  0.1696
  307MOL0     H41403   7.049   2.534   9.265  0.6373 -1.0565  0.8948
  307MOL0     H41404   6.883   2.473   9.278  1.8844 -1.8845 -2.4851
  307MOL0     H41405   7.084   2.354   9.665  0.4737 -2.2380 -0.3371
  307MOL0     H41406   7.292   2.345   9.746 -1.3529  1.3385 -0.6271
  307MOL0     H41407   7.569   2.503   9.830 -1.7855 -0.7265  2.4703
  307MOL0     H41408   7.746   2.543   9.997  1.2297 -0.7484  1.7764
  307MOL0     H41409   8.120   2.312   9.989  0.7612  0.5382 -0.5475
  307MOL0     H41410   8.045   2.427   9.887 -0.6020  3.6153  0.5471
  307MOL0     H41411   8.222   2.540   9.955  1.7538 -1.4294  0.6297
  307MOL0     H41412   8.105   2.596  10.076 -1.0940 -1.1815  0.9774
  307MOL0     H41413   8.312   2.551  10.202  0.2065  0.7730 -1.3726
  307MOL0     H41414   8.213   2.422  10.241  1.2239 -0.6811  0.7560
  307MOL0     H41415   8.434   2.412  10.024  1.3491  3.9945  3.0477
  307MOL0     H41416   8.301   2.289  10.056 -2.3954  2.7804 -1.3962
  307MOL0     H41417   8.483   2.212  10.180 -0.0288  0.2769  1.0765
  307MOL0     H41418   8.369   2.275  10.296 -0.5303  0.9432  0.4604
  307MOL0     H41419   8.602   2.422  10.172  1.1438 -2.9912 -0.7601
  307MOL0     H41420   8.501   2.487  10.302  0.1435 -0.1088  1.5827
  307MOL0     H41421   8.589   2.229  10.382 -2.2283  0.7019 -0.3394
  307MOL0     H41422   8.696   2.374  10.410  1.1151 -1.6332  0.0714
  307MOL0     H41423   8.819   2.192  10.300  3.6508  4.5089  1.0231
  307MOL0     H41424   8.698   2.192  10.165 -0.8237 -0.4678 -0.4833
  307MOL0     H41425   7.904   2.149   9.967 -0.4913 -0.8221 -1.6148
  307MOL0     H41426   7.744   2.112   9.779  1.4739  0.0174  0.5505
  307MOL0     H41427   7.452   2.374   9.340 -0.7466  0.8210 -0.9982
  307MOL0     H41428   7.222   2.381   9.257  0.6874 -1.6592  0.5087
  307MOL0     H41429   5.764   3.101  10.286 -0.9074  1.2404 -1.2144
  307MOL0     H41430   5.517   3.150  10.277  2.2811  0.4926 -0.4572
  307MOL0     H41431   5.124   2.994  10.377  1.4435 -0.8723 -1.1962
  307MOL0     H41432   4.886   2.982  10.426 -0.6650 -1.1603 -0.4239
  307MOL0     H41433   4.623   2.717  10.248 -0.1065 -0.5229 -1.5541
  307MOL0     H41434   4.617   2.843  10.119 -1.0096 -0.3798 -0.3395
  307MOL0     H41435   4.449   2.954  10.269  2.6159 -0.1101  1.2902
  307MOL0     H41436   4.445   2.805  10.364 -0.3533  0.1175 -0.4119
  307MOL0     H41437   4.255   2.820  10.217  0.9693  0.4492  3.4196
  307MOL0     H41438   4.344   2.676  10.190 -1.7131  0.5564  2.5096
  307MOL0     H41439   4.419   2.732   9.974 -1.8343  0.0951 -1.1999
  307MOL0     H41440   4.256   2.792   9.974 -2.1823 -1.5135  3.1835
  307MOL0     H41441   4.526   3.126   9.913 -0.1682 -0.7826 -0.4327
  307MOL0     H41442   4.806   2.800  10.054  2.0163 -1.9085  1.0942
  307MOL0     H41443   4.944   2.781   9.893 -1.9245 -0.9891  0.8494
  307MOL0     H41444   5.100   2.876   9.886  1.3485 -1.2095 -0.3864
  307MOL0     H41445   5.090   2.709   9.950 -0.6656  0.1026 -0.7917
  308MOL0     O41446   9.556   7.451   6.695 -0.0020  0.1829 -0.0673
  308MOL0     C41447   9.489   7.484   6.793 -0.4114 -0.1800  0.2805
  308MOL0     O41448   9.541   7.525   6.913 -0.6514 -0.0255 -0.2100
  308MOL0     C41449   9.672   7.552   6.936  0.3869 -0.0247 -0.4016
  308MOL0     C41450   9.741   7.485   7.038  0.1663 -0.1051 -0.2076
  308MOL0     C41451   9.881   7.498   7.056 -0.1329 -0.2470  0.4386
  308MOL0     C41452   9.960   7.576   6.972  0.4781  0.2654  0.1572
  308MOL0     O41453  10.089   7.571   6.985  0.0779  0.3234  0.1671
  308MOL0     C41454  10.138   7.633   7.098 -0.2849 -0.0204 -0.2841
  308MOL0     C41455  10.214   7.760   7.053  0.3399  0.3140  0.5328
  308MOL0     C41456  10.356   7.715   6.996  0.3137  0.6947  0.4685
  308MOL0     C41457  10.445   7.827   6.953 -0.0203  0.0033  0.2921
  308MOL0     C41458  10.561   7.777   6.870  0.8241 -0.0884 -0.5495
  308MOL0     C41459  10.659   7.694   6.955 -0.5505 -0.0100  0.1570
  308MOL0     C41460  10.793   7.682   6.874  0.3185 -0.0145 -0.5318
  308MOL0     C41461  10.904   7.771   6.921  0.0499  0.0223 -0.3486
  308MOL0     N41462  10.900   7.908   6.871 -0.5859  0.1221 -0.3417
  308MOL0     C41463  10.830   8.012   6.920 -0.3636  0.3090 -0.0416
  308MOL0     C41464  10.873   8.115   6.849 -0.7872 -0.7975 -0.3311
  308MOL0     C41465  10.833   8.261   6.882 -0.3990  0.3088  0.3015
  308MOL0     C41466  10.753   8.330   6.774 -0.3812 -1.1911  0.5350
  308MOL0     C41467  10.702   8.469   6.817  0.2185 -0.0696 -0.9933
  308MOL0     C41468  10.619   8.553   6.715  0.0427  0.6036  0.4232
  308MOL0     O41469  10.581   8.682   6.770  0.2144  0.0165 -0.3195
  308MOL0     C41470  10.453   8.706   6.808 -0.1462  0.2753  0.0703
  308MOL0     C41471  10.366   8.601   6.860 -0.6487  0.1879 -1.0607
  308MOL0     C41472  10.244   8.629   6.918 -0.2596  0.3637 -0.4478
  308MOL0     C41473  10.201   8.764   6.903 -0.0586 -0.2364  0.2103
  308MOL0     C41474  10.064   8.800   6.946  0.4781  0.2519  0.0006
  308MOL0     O41475   9.976   8.705   6.930  0.5385 -0.4616 -0.1191
  308MOL0     C41476   9.843   8.735   6.940  0.1380  0.6301  0.0870
  308MOL0     C41477   9.763   8.748   6.823 -1.1711  0.3378 -0.7274
  308MOL0     C41478   9.621   8.770   6.836 -0.0669 -0.7080  0.1839
  308MOL0     C41479   9.564   8.792   6.976 -0.3381  0.8968  1.2054
  308MOL0     O41480   9.431   8.799   6.999 -0.6004  0.1775  0.8950
  308MOL0     C41481   9.344   8.832   6.883 -0.5139 -0.0595  0.0826
  308MOL0     C41482   9.196   8.832   6.919  0.1769 -0.9183 -0.3614
  308MOL0     C41483   9.147   8.697   6.965 -0.2344  0.2347 -0.5245
  308MOL0     C41484   9.161   8.671   7.115 -0.1497 -0.0417  0.2049
  308MOL0     C41485   9.101   8.537   7.161 -0.4809  0.4280  1.4896
  308MOL0     C41486   9.085   8.528   7.315  0.3748 -0.2400  0.1193
  308MOL0     C41487   9.079   8.392   7.358  0.0021  0.2418  0.5891
  308MOL0     C41488   9.020   8.377   7.500  0.0562 -0.4381  0.1862
  308MOL0    Cl41489   9.075   8.231   7.583 -0.3796  0.2992 -0.3561
  308MOL0     C41490   9.653   8.768   7.080 -0.3223 -1.0380  0.0814
  308MOL0     C41491   9.789   8.750   7.064  0.3022 -0.4716 -0.8380
  308MOL0     O41492  10.045   8.908   6.996 -0.0561  0.1553  0.1066
  308MOL0     C41493  10.276   8.863   6.843 -0.5523  0.4459  0.7561
  308MOL0     C41494  10.400   8.836   6.794 -1.0944  0.5466  0.4438
  308MOL0     N41495  10.960   8.070   6.750  0.3968 -0.3336  0.2167
  308MOL0     N41496  10.962   7.948   6.755 -0.4521 -1.0151 -0.5935
  308MOL0     C41497   9.891   7.643   6.870  0.1266 -0.2247 -0.3554
  308MOL0     C41498   9.747   7.636   6.857  0.2747 -0.3491 -0.1978
  308MOL0     C41499   9.335   7.504   6.769 -0.3734 -0.2303  0.1981
  308MOL0     C41500   9.258   7.505   6.885 -0.5626 -0.5443  0.7982
  308MOL0     C41501   9.126   7.523   6.881 -0.0691  0.5592  0.0056
  308MOL0     C41502   9.065   7.559   6.764  0.7160 -0.3254 -0.2342
  308MOL0     O41503   8.933   7.599   6.775  0.4069 -0.3421 -0.2452
  308MOL0     C41504   8.860   7.653   6.671  0.1304  0.7480 -0.4128
  308MOL0     C41505   8.806   7.545   6.585 -0.4253  0.0430  0.5898
  308MOL0     C41506   8.714   7.446   6.664 -0.9738  0.0968 -0.1535
  308MOL0     C41507   8.583   7.509   6.695  0.5364  0.4442 -0.0740
  308MOL0     C41508   8.499   7.541   6.576  0.2396  0.4136  0.4324
  308MOL0     C41509   8.448   7.562   6.466 -0.3484 -0.0111 -0.7847
  308MOL0     C41510   9.131   7.548   6.645 -0.1871  0.0433  0.1986
  308MOL0     C41511   9.273   7.520   6.644  0.0084  0.0161 -0.5816
  308MOL0     C41512   9.341   7.529   6.512 -0.7886 -0.3511  0.5409
  308MOL0     H41513   9.690   7.415   7.103 -1.0873  0.7825 -0.1908
  308MOL0     H41514   9.912   7.440   7.142  1.0644 -0.8570 -0.3853
  308MOL0     H41515  10.060   7.667   7.167  1.6924  3.2153  0.5718
  308MOL0     H41516  10.197   7.564   7.158 -2.1905 -0.6802  0.9492
  308MOL0     H41517  10.226   7.829   7.137 -0.9462  1.3821 -0.1246
  308MOL0     H41518  10.151   7.811   6.979  0.9949  0.0065 -0.2537
  308MOL0     H41519  10.340   7.653   6.907 -0.0654  1.2843  0.1231
  308MOL0     H41520  10.406   7.658   7.074 -0.2960 -0.7556 -0.1510
  308MOL0     H41521  10.395   7.899   6.888  0.6960  0.7543  0.5564
  308MOL0     H41522  10.482   7.872   7.045 -0.3885  1.3783 -0.2161
  308MOL0     H41523  10.508   7.714   6.798 -0.4622  1.8168 -1.3591
  308MOL0     H41524  10.599   7.865   6.817  2.1065 -0.0802  0.3294
  308MOL0     H41525  10.665   7.749   7.049 -0.0034  0.6734 -0.2731
  308MOL0     H41526  10.615   7.593   6.960 -1.6113  0.4761  1.2192
  308MOL0     H41527  10.782   7.714   6.770 -0.6967  2.6151  0.2849
  308MOL0     H41528  10.821   7.577   6.888 -0.4297 -0.3322 -1.3426
  308MOL0     H41529  10.896   7.783   7.030 -1.8903 -0.8240 -0.3549
  308MOL0     H41530  10.995   7.720   6.889  2.1626  1.6986  2.3987
  308MOL0     H41531  10.747   8.006   6.989 -1.2208  1.2184 -0.9445
  308MOL0     H41532  10.773   8.253   6.973 -1.0870 -0.1977 -0.1878
  308MOL0     H41533  10.925   8.321   6.892 -0.6219  1.3671 -2.8564
  308MOL0     H41534  10.815   8.346   6.686 -3.4261  0.9972 -1.3934
  308MOL0     H41535  10.667   8.268   6.747 -1.9900  0.8884  0.5891
  308MOL0     H41536  10.780   8.527   6.867 -2.1387  1.9042  0.6288
  308MOL0     H41537  10.628   8.458   6.897  2.6044  2.0597  1.6868
  308MOL0     H41538  10.530   8.502   6.680  0.0218  0.5406  0.5654
  308MOL0     H41539  10.680   8.573   6.626 -1.4110 -2.6357 -1.4437
  308MOL0     H41540  10.411   8.503   6.863 -0.3573  0.3047 -1.4646
  308MOL0     H41541  10.188   8.542   6.952  1.1715 -0.2032  0.5419
  308MOL0     H41542   9.804   8.730   6.724  0.1067 -0.3738 -0.1020
  308MOL0     H41543   9.552   8.751   6.754 -1.4607 -0.9482  1.3788
  308MOL0     H41544   9.376   8.930   6.846  1.8140 -0.8059 -0.0625
  308MOL0     H41545   9.351   8.763   6.798 -1.5156  3.6684 -3.3171
  308MOL0     H41546   9.180   8.910   6.993  2.5850  0.3850 -1.1223
  308MOL0     H41547   9.136   8.851   6.829 -0.7897 -0.5339  0.3407
  308MOL0     H41548   9.042   8.689   6.936 -0.4421  0.7956  0.0629
  308MOL0     H41549   9.199   8.625   6.901 -2.1542 -1.8395  0.1281
  308MOL0     H41550   9.097   8.748   7.160  1.0479  1.4252 -0.5047
  308MOL0     H41551   9.266   8.686   7.140  0.2821 -0.2454 -1.3926
  308MOL0     H41552   9.155   8.449   7.124 -0.9189  0.0881  1.6474
  308MOL0     H41553   9.000   8.523   7.121 -0.1250  1.7452  0.0497
  308MOL0     H41554   9.158   8.584   7.375  2.0010 -0.2658 -1.7189
  308MOL0     H41555   8.988   8.577   7.332 -0.5718 -1.2566 -1.9124
  308MOL0     H41556   9.181   8.351   7.355  0.9258  2.4275 -1.3358
  308MOL0     H41557   9.032   8.321   7.290  1.2042 -0.3662  0.3616
  308MOL0     H41558   9.053   8.461   7.562  1.5434 -1.6630  1.1263
  308MOL0     H41559   8.911   8.364   7.503  0.1472 -1.4444  4.2501
  308MOL0     H41560   9.618   8.763   7.182 -0.2191 -0.5272  0.1480
  308MOL0     H41561   9.849   8.742   7.154 -3.8385  1.0133  2.3698
  308MOL0     H41562  10.220   8.956   6.842  1.0649  1.4759 -0.1034
  308MOL0     H41563  10.467   8.912   6.755 -1.0955  1.0900  1.4659
  308MOL0     H41564   9.940   7.696   6.789 -0.8888 -0.4141 -1.1040
  308MOL0     H41565   9.704   7.696   6.777  0.9530  0.5312  0.0818
  308MOL0     H41566   9.312   7.481   6.976  0.8409  1.2453  0.4968
  308MOL0     H41567   9.068   7.526   6.973  0.9376  1.2794  0.6286
  308MOL0     H41568   8.928   7.716   6.614 -0.3014  1.6503  0.0450
  308MOL0     H41569   8.782   7.711   6.721 -0.6641 -0.4967 -0.1507
  308MOL0     H41570   8.887   7.479   6.551 -1.9943 -1.4835 -0.3785
  308MOL0     H41571   8.750   7.579   6.497  1.3320  1.7867  0.0659
  308MOL0     H41572   8.762   7.407   6.754  0.4118  1.8416 -0.0808
  308MOL0     H41573   8.694   7.361   6.597 -2.1076  0.1521  0.0920
  308MOL0     H41574   8.540   7.432   6.760  0.1540  0.4935 -0.2660
  308MOL0     H41575   8.593   7.598   6.757 -0.5029  0.8056 -0.4025
  308MOL0     H41576   8.419   7.600   6.370 -1.4217 -0.1845 -0.5388
  308MOL0     H41577   9.074   7.579   6.558  1.7145 -1.2851 -1.6139
  308MOL0     H41578   9.278   7.540   6.424  1.0743  0.4154 -0.7516
  308MOL0     H41579   9.405   7.618   6.516 -2.2287  1.1132 -3.6577
  308MOL0     H41580   9.404   7.441   6.492 -0.5299  0.3687 -2.1399
  309MOL0     O41581   5.883   2.176   1.310  1.1151 -1.1360 -0.1153
  309MOL0     C41582   5.915   2.092   1.225  0.1538 -0.2558  0.6373
  309MOL0     O41583   5.824   2.006   1.161  0.1509  0.2012  0.0936
  309MOL0     C41584   5.690   2.016   1.190 -0.7538 -0.4969 -0.8223
  309MOL0     C41585   5.615   2.130   1.231 -0.9870  0.4801  0.2767
  309MOL0     C41586   5.476   2.112   1.255  0.4706 -0.6239  0.1278
  309MOL0     C41587   5.411   1.991   1.238 -0.8078 -0.1645  0.9911
  309MOL0     O41588   5.279   1.994   1.270  1.0299  0.2146  0.0757
  309MOL0     C41589   5.191   1.953   1.162 -0.0787 -0.1369 -0.6474
  309MOL0     C41590   5.136   2.091   1.097  0.8622  0.6974  0.4871
  309MOL0     C41591   5.054   2.173   1.191  0.1760  0.4053 -0.0948
  309MOL0     C41592   5.011   2.297   1.109 -0.1635 -0.4171 -0.9261
  309MOL0     C41593   4.899   2.378   1.180  0.5421  0.4584  0.5103
  309MOL0     C41594   4.955   2.495   1.255  0.1219 -0.2432  0.2741
  309MOL0     C41595   4.838   2.580   1.324  0.6458  0.1014 -0.5422
  309MOL0     C41596   4.715   2.620   1.235  0.2440 -0.1362  0.2064
  309MOL0     N41597   4.756   2.664   1.099  0.5128 -0.1008 -0.2712
  309MOL0     C41598   4.853   2.752   1.066 -0.0521  0.2246  0.6376
  309MOL0     C41599   4.862   2.749   0.927 -0.0979  0.1436 -0.3611
  309MOL0     C41600   4.947   2.831   0.838  1.2940 -0.5401 -0.2483
  309MOL0     C41601   5.011   2.749   0.729  0.4607  0.3156 -0.3788
  309MOL0     C41602   5.092   2.624   0.778  0.1856  0.4993 -0.0486
  309MOL0     C41603   5.204   2.658   0.872  0.3419  0.2661 -0.4848
  309MOL0     O41604   5.273   2.538   0.912  0.4278 -0.7542  0.0857
  309MOL0     C41605   5.390   2.513   0.849  1.0011 -0.8587 -0.3091
  309MOL0     C41606   5.454   2.403   0.896  0.7039  0.1951  0.0772
  309MOL0     C41607   5.584   2.370   0.853  0.1564 -0.2897 -0.7525
  309MOL0     C41608   5.645   2.439   0.758 -0.2446  0.4117 -0.5032
  309MOL0     C41609   5.767   2.383   0.701 -0.0025 -0.3053 -0.0648
  309MOL0     O41610   5.800   2.254   0.738 -0.3481 -0.3715  0.9095
  309MOL0     C41611   5.880   2.181   0.653  0.6186  0.5021 -0.5330
  309MOL0     C41612   6.015   2.189   0.659  0.0001  0.6295 -0.2648
  309MOL0     C41613   6.107   2.100   0.594  0.3577  0.4272 -0.4923
  309MOL0     C41614   6.053   2.003   0.513 -0.2435  1.6243 -0.9516
  309MOL0     O41615   6.129   1.911   0.441  0.3838 -0.7558 -0.4840
  309MOL0     C41616   6.219   1.987   0.360 -0.4668  0.2137  0.6077
  309MOL0     C41617   6.323   1.893   0.300 -0.0253  0.4300 -0.4135
  309MOL0     C41618   6.253   1.766   0.227 -0.4654 -0.3067  0.2270
  309MOL0     C41619   6.350   1.655   0.186  1.1309  0.1600 -0.2669
  309MOL0     C41620   6.264   1.553   0.108 -0.3739  0.1052  0.1158
  309MOL0     C41621   6.188   1.448   0.199 -0.4633 -0.3624 -0.3811
  309MOL0     C41622   6.127   1.343   0.105 -0.2489  0.4102  0.0840
  309MOL0     C41623   6.051   1.228   0.175 -0.3777  0.1557 -0.1200
  309MOL0    Cl41624   6.175   1.137   0.266  0.2847  0.1333 -0.0073
  309MOL0     C41625   5.917   1.978   0.522  0.1139 -0.3050  0.4818
  309MOL0     C41626   5.831   2.067   0.589 -0.0820  0.2913 -0.4750
  309MOL0     O41627   5.820   2.444   0.610 -0.1011  0.4319 -0.2354
  309MOL0     C41628   5.580   2.549   0.700 -0.1423 -0.1808  0.0331
  309MOL0     C41629   5.454   2.584   0.741 -0.0652 -0.0277  0.4707
  309MOL0     N41630   4.768   2.648   0.886 -0.0785 -0.5506 -0.1526
  309MOL0     N41631   4.707   2.602   0.991  1.0921  0.2709  0.0695
  309MOL0     C41632   5.478   1.880   1.198  0.1321  0.2109 -0.2129
  309MOL0     C41633   5.611   1.898   1.170  0.4147  0.4335  0.5261
  309MOL0     C41634   6.055   2.080   1.180 -0.4891  0.2738 -0.1616
  309MOL0     C41635   6.070   2.072   1.046 -0.4946  0.2968  0.8191
  309MOL0     C41636   6.196   2.045   0.990  0.0930  0.0110  0.0628
  309MOL0     C41637   6.308   2.046   1.076 -0.2007  0.0415  1.0623
  309MOL0     O41638   6.434   2.028   1.033 -0.2116 -0.0697  0.6204
  309MOL0     C41639   6.493   2.145   0.970 -0.7574 -0.4755 -0.2627
  309MOL0     C41640   6.472   2.165   0.821 -0.8613 -0.1364  0.3408
  309MOL0     C41641   6.588   2.253   0.773 -0.2374 -0.6270  0.2421
  309MOL0     C41642   6.584   2.299   0.632  0.1139  0.2802  0.1602
  309MOL0     C41643   6.565   2.197   0.533  0.7372 -0.2715  0.6018
  309MOL0     C41644   6.544   2.117   0.448 -1.2210  0.4073  0.6692
  309MOL0     C41645   6.289   2.058   1.209  0.2868  0.2155  0.2928
  309MOL0     C41646   6.165   2.072   1.264  0.0707  0.9018  0.1121
  309MOL0     C41647   6.162   2.064   1.417 -0.6839 -1.4491 -0.0799
  309MOL0     H41648   5.662   2.225   1.256  1.7967 -1.3460  2.6532
  309MOL0     H41649   5.433   2.206   1.289 -0.1574 -0.5259 -0.8955
  309MOL0     H41650   5.240   1.892   1.086 -0.3947 -0.4285 -0.6229
  309MOL0     H41651   5.101   1.903   1.200 -1.1825  2.6729  0.7148
  309MOL0     H41652   5.086   2.072   1.002  0.7113 -1.8371  1.0153
  309MOL0     H41653   5.229   2.145   1.076  2.0283 -1.0236  1.0498
  309MOL0     H41654   5.088   2.203   1.290  3.0948  0.4156 -1.0131
  309MOL0     H41655   4.956   2.125   1.201  0.0085  0.9444  0.9685
  309MOL0     H41656   5.096   2.361   1.088 -0.5100 -0.6474 -3.3163
  309MOL0     H41657   4.971   2.282   1.008  2.0244  2.9590 -2.4469
  309MOL0     H41658   4.825   2.386   1.100  0.6979  0.4298  0.3629
  309MOL0     H41659   4.841   2.317   1.250  0.5377  1.0624  1.0527
  309MOL0     H41660   5.022   2.462   1.336 -0.5479 -1.6191  0.2896
  309MOL0     H41661   5.019   2.561   1.195  1.2615  0.3613  2.0586
  309MOL0     H41662   4.885   2.666   1.372 -2.1656  1.0274  0.7604
  309MOL0     H41663   4.790   2.520   1.402 -2.0106  0.3457 -1.9051
  309MOL0     H41664   4.663   2.525   1.221 -0.4107  0.4202 -1.3463
  309MOL0     H41665   4.651   2.695   1.284  0.5820  0.1630  0.1969
  309MOL0     H41666   4.914   2.816   1.129  2.8536 -3.4585  1.9436
  309MOL0     H41667   4.898   2.920   0.796  1.3798  0.2193  1.2083
  309MOL0     H41668   5.031   2.884   0.885 -0.2343  3.6488 -1.7168
  309MOL0     H41669   4.934   2.713   0.660 -1.8918  0.5533  1.9492
  309MOL0     H41670   5.074   2.811   0.664  0.1447 -0.0331 -1.0299
  309MOL0     H41671   5.126   2.569   0.690 -2.5124 -4.6225  1.6598
  309MOL0     H41672   5.025   2.552   0.827 -0.0773  1.0330  0.3799
  309MOL0     H41673   5.154   2.695   0.962  1.1480  0.9620 -0.3084
  309MOL0     H41674   5.265   2.743   0.841  1.0478 -0.3650 -0.8757
  309MOL0     H41675   5.413   2.343   0.976  2.0599 -1.0036 -0.0693
  309MOL0     H41676   5.630   2.292   0.913  1.5974  0.2723 -1.0841
  309MOL0     H41677   6.045   2.263   0.733 -1.6299  1.2327 -0.1555
  309MOL0     H41678   6.214   2.113   0.606  0.0860  0.6667  2.2042
  309MOL0     H41679   6.164   2.029   0.275  3.8613 -0.0837 -2.7296
  309MOL0     H41680   6.279   2.066   0.407  0.4179  1.2203 -1.9913
  309MOL0     H41681   6.379   1.957   0.231  0.5708 -0.8621 -1.1727
  309MOL0     H41682   6.387   1.860   0.381 -1.1225  1.3092  0.8548
  309MOL0     H41683   6.183   1.720   0.297  2.3726 -0.5821  3.1452
  309MOL0     H41684   6.198   1.791   0.136 -0.7709  1.2445  0.7955
  309MOL0     H41685   6.405   1.599   0.261 -0.6213 -1.9910 -0.4723
  309MOL0     H41686   6.428   1.700   0.124  0.2584  2.9415  0.5210
  309MOL0     H41687   6.339   1.492   0.057 -0.5076 -2.3194  2.5959
  309MOL0     H41688   6.194   1.606   0.042  1.2292  1.4197 -0.6096
  309MOL0     H41689   6.258   1.401   0.268  1.1691 -0.8156 -2.2765
  309MOL0     H41690   6.115   1.507   0.256  1.1996  0.2462  1.2273
  309MOL0     H41691   6.199   1.290   0.043 -2.8874 -1.3985 -1.6415
  309MOL0     H41692   6.060   1.400   0.040 -0.2280 -0.3416 -0.6100
  309MOL0     H41693   5.968   1.272   0.232  0.7222  0.2924  1.4425
  309MOL0     H41694   6.005   1.162   0.100  0.5618  0.2487 -0.7853
  309MOL0     H41695   5.879   1.896   0.461 -0.1389  0.4758 -0.4454
  309MOL0     H41696   5.725   2.045   0.598  0.3388 -1.5240  0.6627
  309MOL0     H41697   5.629   2.593   0.614 -0.9234  0.7183  0.0290
  309MOL0     H41698   5.412   2.675   0.699  2.5493  2.3015  2.5176
  309MOL0     H41699   5.431   1.783   1.189 -0.8821  0.3757  2.3583
  309MOL0     H41700   5.662   1.808   1.139  1.6299  1.5427 -0.8746
  309MOL0     H41701   5.987   2.093   0.979 -0.0364 -4.3661 -1.6533
  309MOL0     H41702   6.224   2.042   0.886  0.5832 -2.1374  0.2089
  309MOL0     H41703   6.599   2.139   0.995 -1.0259  1.4491  1.5617
  309MOL0     H41704   6.465   2.234   1.027  1.3014  0.0281  0.0389
  309MOL0     H41705   6.372   2.201   0.797 -1.4719  0.0483  2.8221
  309MOL0     H41706   6.469   2.069   0.769 -1.1248 -0.8648  1.6506
  309MOL0     H41707   6.681   2.204   0.802  0.0332  1.7040  3.9564
  309MOL0     H41708   6.577   2.340   0.838 -1.5205  1.1331 -2.2009
  309MOL0     H41709   6.504   2.373   0.616  0.5239  0.5629 -0.6069
  309MOL0     H41710   6.681   2.347   0.615  0.5527 -0.5330  0.3720
  309MOL0     H41711   6.550   2.030   0.385  0.5256  1.4201 -0.6738
  309MOL0     H41712   6.379   2.039   1.268  0.1335 -0.9542  0.1720
  309MOL0     H41713   6.226   1.988   1.463  1.1791  0.7511  1.2133
  309MOL0     H41714   6.178   2.161   1.465  0.1591 -1.3861 -0.4701
  309MOL0     H41715   6.060   2.030   1.437 -1.9880  0.1145 -3.2515
  310MOL0     O41716   8.747  10.109   2.251 -0.4249  0.3484  0.7338
  310MOL0     C41717   8.748  10.064   2.366 -0.5392  0.9626  0.0166
  310MOL0     O41718   8.855  10.026   2.437 -0.0261 -0.3416  0.5250
  310MOL0     C41719   8.971   9.984   2.369  0.0293 -0.4797  0.3782
  310MOL0     C41720   8.966   9.874   2.276 -0.0770  0.1445 -0.5326
  310MOL0     C41721   9.079   9.844   2.201  0.0917  1.3242 -0.2030
  310MOL0     C41722   9.206   9.895   2.231 -0.1275 -0.4725  0.6072
  310MOL0     O41723   9.313   9.858   2.159 -0.0550 -0.5006  0.0708
  310MOL0     C41724   9.306   9.880   2.017 -0.0175  0.2727  0.6209
  310MOL0     C41725   9.449   9.855   1.962  0.2754  0.9585  0.7533
  310MOL0     C41726   9.562   9.946   1.998  0.2289 -0.3254  0.0617
  310MOL0     C41727   9.671   9.937   1.892  0.0200 -0.1932 -0.5968
  310MOL0     C41728   9.802   9.999   1.949  0.4274  0.0836  0.0205
  310MOL0     C41729   9.802  10.146   1.961 -0.4022 -0.6588 -0.5667
  310MOL0     C41730   9.938  10.202   1.996 -0.3813  0.3347 -0.1532
  310MOL0     C41731   9.952  10.350   2.053  0.7283  0.5363 -0.1398
  310MOL0     N41732  10.097  10.362   2.090 -0.1417  1.2944  1.0941
  310MOL0     C41733  10.203  10.364   1.999 -0.7284  0.0673 -0.6252
  310MOL0     C41734  10.306  10.314   2.068 -0.3194  0.3202  0.7427
  310MOL0     C41735  10.447  10.292   2.004  0.8091 -0.0213  0.3297
  310MOL0     C41736  10.557  10.396   2.039 -0.5238  1.0778 -0.3958
  310MOL0     C41737  10.692  10.337   1.996  0.1472  0.2837  0.4023
  310MOL0     C41738  10.789  10.449   1.994 -0.0939 -0.0250 -0.1758
  310MOL0     O41739  10.929  10.414   1.986 -0.3878 -0.3546  0.8323
  310MOL0     C41740  11.026  10.507   1.950 -0.0125  0.4692  0.6496
  310MOL0     C41741  11.131  10.454   1.872  0.2784  0.1036 -0.6793
  310MOL0     C41742  11.236  10.538   1.828 -0.3408 -0.1783  0.1433
  310MOL0     C41743  11.235  10.678   1.869 -0.3100 -0.8306  0.1040
  310MOL0     C41744  11.341  10.770   1.821 -0.4755 -0.8316 -0.4343
  310MOL0     O41745  11.457  10.710   1.767  0.5374 -0.4786  0.3239
  310MOL0     C41746  11.567  10.781   1.737 -0.4763 -0.6628 -0.2117
  310MOL0     C41747  11.623  10.874   1.819 -0.2708  0.8030 -0.8256
  310MOL0     C41748  11.737  10.950   1.789  0.4168 -0.2649  0.6668
  310MOL0     C41749  11.799  10.930   1.668  0.6499  0.4360  0.0541
  310MOL0     O41750  11.896  11.017   1.625 -0.5743 -0.6990 -0.2900
  310MOL0     C41751  12.035  10.977   1.633 -0.1487 -0.3356 -0.2640
  310MOL0     C41752  12.128  11.073   1.568 -0.6118  0.3056 -0.2324
  310MOL0     C41753  12.136  11.052   1.418 -0.5030 -0.4236  0.1605
  310MOL0     C41754  12.027  11.113   1.331  0.9991  0.4193  0.1967
  310MOL0     C41755  12.064  11.129   1.184 -0.2242 -0.5114  0.9613
  310MOL0     C41756  11.951  11.161   1.090  0.6213  0.2282 -0.8319
  310MOL0     C41757  11.987  11.187   0.946 -0.4105 -0.8349  0.5212
  310MOL0     C41758  11.864  11.177   0.852 -0.0380  0.5829 -0.0929
  310MOL0    Cl41759  11.752  11.308   0.882  0.4926 -0.3371  0.5421
  310MOL0     C41760  11.746  10.836   1.581 -0.2548 -0.4338  0.2104
  310MOL0     C41761  11.641  10.748   1.622 -0.1861  0.0352  0.5105
  310MOL0     O41762  11.327  10.898   1.835 -0.3981  0.4290 -0.1701
  310MOL0     C41763  11.125  10.724   1.950 -0.1851 -0.3847  0.3945
  310MOL0     C41764  11.027  10.640   1.985  0.0682 -0.5638  0.0782
  310MOL0     N41765  10.273  10.299   2.202 -0.2287 -0.0028  0.4900
  310MOL0     N41766  10.140  10.316   2.208 -0.6861  0.4734 -0.0731
  310MOL0     C41767   9.206   9.997   2.325 -0.1895 -0.0085 -0.4119
  310MOL0     C41768   9.092  10.045   2.387 -0.2988 -0.3464 -0.2705
  310MOL0     C41769   8.610  10.062   2.438  0.9134 -0.0881 -0.6645
  310MOL0     C41770   8.587  10.142   2.550 -0.3217 -0.5068 -0.2729
  310MOL0     C41771   8.460  10.177   2.590  0.1993 -0.3824 -0.4751
  310MOL0     C41772   8.353  10.107   2.541  0.1512 -0.5148 -0.1931
  310MOL0     O41773   8.219  10.122   2.578 -0.2315  0.0442  0.0565
  310MOL0     C41774   8.186  10.190   2.698 -0.0959  0.3334  0.4244
  310MOL0     C41775   8.043  10.175   2.707  0.1741  0.5378 -0.6062
  310MOL0     C41776   7.990  10.213   2.841 -0.6289 -0.9304 -0.6938
  310MOL0     C41777   7.841  10.201   2.846  0.2547  0.5151  0.1065
  310MOL0     C41778   7.782  10.311   2.781  0.4945  0.0234  0.0957
  310MOL0     C41779   7.744  10.406   2.724  0.3218 -0.0781  0.4507
  310MOL0     C41780   8.370  10.025   2.430 -0.3794  0.3138  0.3529
  310MOL0     C41781   8.498  10.008   2.379  0.3053 -0.0488  0.3870
  310MOL0     C41782   8.516   9.919   2.249 -0.3384  0.1517 -1.4684
  310MOL0     H41783   8.871   9.831   2.246  0.4882 -1.4434 -0.1461
  310MOL0     H41784   9.072   9.764   2.129  0.3978 -0.0990  1.2801
  310MOL0     H41785   9.232   9.815   1.969  1.0714 -0.3953 -0.1751
  310MOL0     H41786   9.271   9.979   1.989  0.1071  0.3031  0.5764
  310MOL0     H41787   9.441   9.867   1.853 -0.4961  2.1753  0.9238
  310MOL0     H41788   9.474   9.750   1.978  2.2726  1.3171  0.2705
  310MOL0     H41789   9.593   9.918   2.099  0.9538 -2.7923 -0.7773
  310MOL0     H41790   9.523  10.048   2.009  0.6720 -0.2601  1.0819
  310MOL0     H41791   9.694   9.833   1.869 -1.6205 -0.6509 -0.2419
  310MOL0     H41792   9.652   9.987   1.796  0.8855 -0.1676 -0.7638
  310MOL0     H41793   9.824   9.955   2.046 -2.7316  0.6764  1.1164
  310MOL0     H41794   9.885   9.972   1.882 -0.1317 -0.4246 -0.4783
  310MOL0     H41795   9.758  10.191   1.872 -3.1480  3.5048  2.4575
  310MOL0     H41796   9.742  10.176   2.048  3.4280  3.7345  1.0209
  310MOL0     H41797   9.996  10.201   1.903 -1.3251  0.6426 -0.7680
  310MOL0     H41798   9.993  10.140   2.067  0.1771  1.1894  0.1741
  310MOL0     H41799   9.926  10.410   1.965  1.1980 -0.7203 -1.1650
  310MOL0     H41800   9.888  10.368   2.139 -1.3813 -0.3407 -1.4341
  310MOL0     H41801  10.195  10.378   1.892  1.3180 -3.6604 -1.4416
  310MOL0     H41802  10.487  10.196   2.038  1.1139 -0.6206 -1.5918
  310MOL0     H41803  10.440  10.280   1.895  0.2485  0.8893  0.2555
  310MOL0     H41804  10.543  10.491   1.985  1.1294  2.0303  0.7794
  310MOL0     H41805  10.557  10.410   2.147  1.0243  2.5585 -0.5335
  310MOL0     H41806  10.688  10.291   1.897  2.9777  0.5143  0.1215
  310MOL0     H41807  10.725  10.263   2.070 -2.3637 -0.7546  0.6025
  310MOL0     H41808  10.775  10.501   2.089 -0.1931 -1.1166  0.4234
  310MOL0     H41809  10.779  10.522   1.914  2.0479  0.6066  0.0732
  310MOL0     H41810  11.132  10.346   1.872 -0.8291  0.0454 -2.7810
  310MOL0     H41811  11.315  10.486   1.774  0.6831  1.3791  0.0601
  310MOL0     H41812  11.570  10.905   1.909  0.6472 -1.5103  0.6112
  310MOL0     H41813  11.781  11.021   1.859 -0.5612  1.6378 -0.5610
  310MOL0     H41814  12.057  10.978   1.740  1.2703 -0.7298 -0.5209
  310MOL0     H41815  12.051  10.878   1.589 -4.0658 -0.0677 -2.7576
  310MOL0     H41816  12.101  11.176   1.596 -0.9223  0.2776 -0.4266
  310MOL0     H41817  12.232  11.057   1.597 -0.0375  2.7080 -0.7082
  310MOL0     H41818  12.230  11.100   1.390 -1.7587  2.5619  0.6591
  310MOL0     H41819  12.153  10.946   1.394 -0.3135 -0.0303 -1.5447
  310MOL0     H41820  12.001  11.214   1.365 -1.6277 -0.2533  0.3851
  310MOL0     H41821  11.938  11.051   1.342 -0.0413  1.6069 -1.0821
  310MOL0     H41822  12.114  11.038   1.150  0.1681 -1.5403  3.9847
  310MOL0     H41823  12.141  11.207   1.179 -0.5189 -0.0858  2.4225
  310MOL0     H41824  11.891  11.070   1.094 -0.0403  0.6479 -1.0995
  310MOL0     H41825  11.902  11.252   1.125  0.2956 -0.6966  1.2309
  310MOL0     H41826  12.061  11.111   0.920  0.5170 -0.8642  2.9667
  310MOL0     H41827  12.022  11.290   0.939  0.7857 -1.3137 -1.3426
  310MOL0     H41828  11.887  11.177   0.745 -3.1965 -0.1020 -0.8926
  310MOL0     H41829  11.819  11.078   0.869 -1.7313  1.4854  0.9741
  310MOL0     H41830  11.794  10.851   1.485 -2.8406  1.0707 -0.9442
  310MOL0     H41831  11.601  10.671   1.557 -1.9952  1.1693  0.2023
  310MOL0     H41832  11.120  10.828   1.981  0.6673 -0.4599  0.8280
  310MOL0     H41833  10.936  10.674   2.033 -1.4793 -3.3524 -0.6788
  310MOL0     H41834   9.299  10.048   2.348 -0.2605  1.7893 -3.5951
  310MOL0     H41835   9.099  10.133   2.451  2.0699 -2.1006  2.0936
  310MOL0     H41836   8.673  10.200   2.583 -0.2996  0.5406 -2.0266
  310MOL0     H41837   8.449  10.247   2.672  1.2476 -0.2370 -0.4511
  310MOL0     H41838   8.210  10.296   2.684  0.8147  0.0727 -0.0872
  310MOL0     H41839   8.236  10.155   2.789  1.3948 -1.2389 -0.9471
  310MOL0     H41840   8.014  10.070   2.698 -0.3199  0.6352 -0.1474
  310MOL0     H41841   8.004  10.232   2.622  0.6688  2.3376  0.3244
  310MOL0     H41842   8.025  10.311   2.875  0.5519 -1.2831 -0.8699
  310MOL0     H41843   8.025  10.148   2.921 -3.3865 -0.7035  0.8262
  310MOL0     H41844   7.815  10.107   2.797 -0.8746  1.0910 -0.4408
  310MOL0     H41845   7.805  10.197   2.949  1.0255 -0.7597  0.3542
  310MOL0     H41846   7.728  10.486   2.654 -1.4949 -1.9994 -1.5052
  310MOL0     H41847   8.281   9.976   2.394 -0.5870  0.8224  0.1734
  310MOL0     H41848   8.511   9.983   2.160  2.4969  3.0948  0.2814
  310MOL0     H41849   8.615   9.875   2.265  0.9190  3.5618  1.5298
  310MOL0     H41850   8.446   9.835   2.244 -0.7336  0.4328 -0.7889
  311MOL0     O41851   6.078   2.178   7.150  0.0659  0.2660  0.0375
  311MOL0     C41852   5.997   2.239   7.082  0.1910 -0.0053  0.0738
  311MOL0     O41853   5.995   2.378   7.061  0.5700  0.0921 -0.1574
  311MOL0     C41854   6.098   2.445   7.120 -1.0629  0.0865 -0.2868
  311MOL0     C41855   6.083   2.522   7.237  0.2820  0.9765 -0.9620
  311MOL0     C41856   6.201   2.573   7.309  0.8358  1.2841  0.2744
  311MOL0     C41857   6.322   2.569   7.244 -0.3013 -0.2752 -0.0820
  311MOL0     O41858   6.434   2.610   7.309  0.0251  0.0286  0.0855
  311MOL0     C41859   6.429   2.729   7.396 -0.1546  0.0160 -0.1784
  311MOL0     C41860   6.529   2.843   7.366  0.2549 -0.5710  0.2696
  311MOL0     C41861   6.678   2.783   7.371  0.1511  0.3888 -0.5969
  311MOL0     C41862   6.700   2.714   7.506  0.4274  0.1138  0.3479
  311MOL0     C41863   6.851   2.693   7.530 -0.7391 -0.0092 -0.2687
  311MOL0     C41864   6.878   2.644   7.673 -0.3273 -0.3809  0.1459
  311MOL0     C41865   7.013   2.575   7.693 -0.0304 -0.8061  0.7040
  311MOL0     C41866   7.138   2.639   7.628  0.1111 -0.1098  0.2122
  311MOL0     N41867   7.257   2.566   7.668 -0.0261  0.7551  0.0285
  311MOL0     C41868   7.314   2.471   7.590  0.8949 -0.7431  0.9474
  311MOL0     C41869   7.408   2.410   7.664 -0.5084 -0.1417  0.3369
  311MOL0     C41870   7.492   2.295   7.619 -0.3120  0.0201  0.0499
  311MOL0     C41871   7.639   2.333   7.596 -0.7484  0.1906  0.8398
  311MOL0     C41872   7.726   2.216   7.534  0.8817  0.4769 -0.4980
  311MOL0     C41873   7.871   2.253   7.524 -0.0694  0.2869  0.1342
  311MOL0     O41874   7.880   2.378   7.462  0.1324  0.1878  0.2490
  311MOL0     C41875   7.994   2.442   7.440  0.2517 -0.3058  0.2589
  311MOL0     C41876   8.121   2.393   7.473  0.5042 -0.7896  0.5571
  311MOL0     C41877   8.235   2.474   7.446 -0.2766  0.2821 -0.4078
  311MOL0     C41878   8.221   2.596   7.386  0.8496 -0.8605 -0.2393
  311MOL0     C41879   8.342   2.676   7.353 -0.1580 -1.4858  0.6980
  311MOL0     O41880   8.328   2.782   7.261  0.1923  0.7218  0.1890
  311MOL0     C41881   8.437   2.865   7.243  0.3545  0.8823  0.1645
  311MOL0     C41882   8.432   2.998   7.287 -0.5354 -0.1437 -0.5927
  311MOL0     C41883   8.546   3.074   7.260 -0.3458 -0.3059 -0.7509
  311MOL0     C41884   8.653   3.033   7.186  0.2796  0.8470  1.6336
  311MOL0     O41885   8.773   3.094   7.165 -0.0713 -0.1808 -0.2177
  311MOL0     C41886   8.771   3.230   7.150 -0.1387 -0.1818 -0.3423
  311MOL0     C41887   8.897   3.286   7.091  0.1498 -0.9623  0.3736
  311MOL0     C41888   8.906   3.249   6.950 -0.6092  0.2735  0.4258
  311MOL0     C41889   9.053   3.231   6.904 -0.3995  0.5029 -0.9110
  311MOL0     C41890   9.057   3.236   6.755  0.1925  0.3281  0.6112
  311MOL0     C41891   8.986   3.122   6.681 -0.2379  0.6484 -0.6254
  311MOL0     C41892   8.984   3.124   6.533  0.6931 -1.0046 -0.2760
  311MOL0     C41893   9.117   3.140   6.472  0.3723 -0.6876 -0.0169
  311MOL0    Cl41894   9.230   3.010   6.527 -0.4915 -0.2670  0.1248
  311MOL0     C41895   8.645   2.908   7.133 -0.2172 -0.3424 -0.0566
  311MOL0     C41896   8.542   2.821   7.166  0.5782  0.1156 -0.2688
  311MOL0     O41897   8.448   2.653   7.419 -0.0185  0.0855 -0.3863
  311MOL0     C41898   8.094   2.636   7.347  0.3359  0.2172  0.8213
  311MOL0     C41899   7.977   2.564   7.375 -0.5571 -0.9610 -0.0776
  311MOL0     N41900   7.419   2.475   7.789 -0.1622 -0.2396  0.5994
  311MOL0     N41901   7.324   2.566   7.790 -0.3679 -0.2839  0.1195
  311MOL0     C41902   6.335   2.503   7.119 -0.3477 -0.5003 -0.0853
  311MOL0     C41903   6.227   2.440   7.055  0.7101  0.5486  0.5719
  311MOL0     C41904   5.883   2.169   7.017 -1.3664 -0.3045 -0.3060
  311MOL0     C41905   5.777   2.262   6.981 -0.7681 -0.0469  0.3133
  311MOL0     C41906   5.661   2.221   6.907 -0.6932 -0.7321 -0.3493
  311MOL0     C41907   5.643   2.090   6.873 -0.8438 -0.2182  0.5804
  311MOL0     O41908   5.535   2.044   6.794 -0.0159 -0.6928  0.0629
  311MOL0     C41909   5.420   2.127   6.760 -0.8562  0.2748  0.1434
  311MOL0     C41910   5.325   2.034   6.685  0.4549 -0.3324 -0.1458
  311MOL0     C41911   5.249   1.929   6.774  0.7185  0.5354  0.0396
  311MOL0     C41912   5.140   1.846   6.694 -0.3576 -0.1693  0.2498
  311MOL0     C41913   5.101   1.729   6.771  0.0767  0.5125  0.0592
  311MOL0     C41914   5.058   1.639   6.840  0.1016  0.7449 -0.5519
  311MOL0     C41915   5.743   1.996   6.921  0.9898 -0.6752  0.7095
  311MOL0     C41916   5.861   2.034   6.988  0.2291 -0.7668 -0.6575
  311MOL0     C41917   5.945   1.914   7.031 -0.3276  0.2643  0.0321
  311MOL0     H41918   5.989   2.503   7.288  0.0113  0.0023 -1.7777
  311MOL0     H41919   6.192   2.603   7.413  1.6264  0.3490  0.6302
  311MOL0     H41920   6.329   2.773   7.395 -0.5709 -0.6693  2.8817
  311MOL0     H41921   6.446   2.698   7.499  1.4749  0.5282 -0.2615
  311MOL0     H41922   6.520   2.905   7.456  2.7569  0.5821 -0.2010
  311MOL0     H41923   6.509   2.895   7.272  3.8970 -0.8858 -0.8378
  311MOL0     H41924   6.750   2.864   7.351  2.8106 -0.9389  2.7253
  311MOL0     H41925   6.678   2.707   7.292  0.0630 -0.4591  0.2043
  311MOL0     H41926   6.684   2.780   7.592  1.8071  0.5007  0.3334
  311MOL0     H41927   6.641   2.625   7.525 -0.1056  0.1997 -0.8317
  311MOL0     H41928   6.895   2.620   7.462  1.6372 -1.6795  2.7701
  311MOL0     H41929   6.913   2.781   7.511  0.1040 -0.9680 -2.1606
  311MOL0     H41930   6.861   2.725   7.745 -0.8909 -2.5128  2.5289
  311MOL0     H41931   6.803   2.565   7.686 -2.4546  1.1584 -1.8453
  311MOL0     H41932   6.998   2.474   7.653 -1.3216  0.4970 -2.4491
  311MOL0     H41933   7.023   2.565   7.801 -0.9272 -3.5338  0.6058
  311MOL0     H41934   7.130   2.641   7.519 -0.0523 -0.4965  0.2174
  311MOL0     H41935   7.156   2.740   7.666  2.2007  0.9594 -3.1554
  311MOL0     H41936   7.269   2.435   7.498 -2.4638 -0.1134  2.1879
  311MOL0     H41937   7.479   2.220   7.698 -1.7267  0.0374 -0.1358
  311MOL0     H41938   7.449   2.255   7.526 -0.0263 -1.3147  0.4757
  311MOL0     H41939   7.646   2.421   7.531 -0.9580  0.1567  0.7706
  311MOL0     H41940   7.669   2.369   7.695 -1.0668 -0.6663  1.2566
  311MOL0     H41941   7.693   2.187   7.434  1.3396  1.2981 -0.9027
  311MOL0     H41942   7.706   2.133   7.602 -0.9106  1.2164 -0.0731
  311MOL0     H41943   7.915   2.174   7.462 -2.1678 -2.8397  2.3265
  311MOL0     H41944   7.921   2.250   7.622 -0.7779  2.3237  0.6063
  311MOL0     H41945   8.133   2.290   7.507 -0.8341 -0.4669  2.1678
  311MOL0     H41946   8.332   2.446   7.486 -0.1411 -1.5801 -1.9306
  311MOL0     H41947   8.349   3.037   7.344  1.2210  0.1883  1.9357
  311MOL0     H41948   8.555   3.169   7.312  0.5513 -0.6041 -0.3335
  311MOL0     H41949   8.686   3.259   7.088 -0.6413 -0.0078  0.4170
  311MOL0     H41950   8.761   3.258   7.256  0.7863 -0.1391 -0.2514
  311MOL0     H41951   8.907   3.395   7.094  2.9814 -1.1605  1.5906
  311MOL0     H41952   8.983   3.243   7.144  0.3190 -2.2332 -0.8789
  311MOL0     H41953   8.863   3.150   6.935  1.4053 -0.5779 -0.1517
  311MOL0     H41954   8.851   3.314   6.881 -0.8067  1.1026  1.3314
  311MOL0     H41955   9.088   3.137   6.948 -2.3725  0.3035  0.3500
  311MOL0     H41956   9.114   3.311   6.946 -1.2771  0.7613 -0.1145
  311MOL0     H41957   9.163   3.239   6.732  0.0304  1.9038 -0.1106
  311MOL0     H41958   9.014   3.332   6.723 -0.6006  0.2223  1.3138
  311MOL0     H41959   9.036   3.031   6.716  0.2334  0.2355 -2.2758
  311MOL0     H41960   8.884   3.104   6.713  0.3492 -2.2655 -0.1120
  311MOL0     H41961   8.921   3.209   6.505  1.6635 -1.3295 -4.0086
  311MOL0     H41962   8.929   3.040   6.490  0.7662 -1.3275  0.2469
  311MOL0     H41963   9.097   3.128   6.365  1.1774 -0.2819 -0.2224
  311MOL0     H41964   9.150   3.243   6.489  0.9589 -0.5368 -1.7859
  311MOL0     H41965   8.724   2.874   7.067  1.8354  3.0819  0.3803
  311MOL0     H41966   8.551   2.726   7.114 -1.5308 -0.1283 -0.2858
  311MOL0     H41967   8.084   2.728   7.291 -1.4423 -1.4823 -1.9312
  311MOL0     H41968   7.880   2.600   7.343 -1.2909 -0.2259  2.7136
  311MOL0     H41969   6.431   2.504   7.068  1.3263 -2.7444  2.7143
  311MOL0     H41970   6.240   2.380   6.966  1.5786  0.8083  0.5154
  311MOL0     H41971   5.789   2.370   6.988 -0.7246  0.0320 -0.7989
  311MOL0     H41972   5.592   2.301   6.887 -0.6185  0.0425  2.0823
  311MOL0     H41973   5.458   2.192   6.680 -0.2733 -2.7598 -2.2537
  311MOL0     H41974   5.376   2.180   6.845 -1.2161  0.0929  0.0710
  311MOL0     H41975   5.381   1.985   6.605 -0.9429 -1.9518 -0.1820
  311MOL0     H41976   5.252   2.098   6.633 -0.8318 -1.7718 -0.1785
  311MOL0     H41977   5.192   1.976   6.855  1.0683  1.4106 -0.2036
  311MOL0     H41978   5.319   1.849   6.801 -1.7692 -2.8081 -2.6539
  311MOL0     H41979   5.050   1.906   6.679 -0.2577  0.9002  3.3886
  311MOL0     H41980   5.184   1.807   6.601  0.8833 -1.2894  1.2707
  311MOL0     H41981   5.037   1.551   6.899  2.7215  1.5006  1.7294
  311MOL0     H41982   5.738   1.890   6.899 -1.6368 -0.3089 -0.9613
  311MOL0     H41983   6.025   1.952   7.095  0.5793  0.7389 -1.3699
  311MOL0     H41984   5.877   1.847   7.085 -0.6249  2.8652  3.2176
  311MOL0     H41985   5.991   1.870   6.943  1.3177  2.5919 -0.3663
  312MOL0     O41986   1.058   4.859   5.192  0.1789 -0.1881  0.2976
  312MOL0     C41987   1.100   4.968   5.226 -0.2309  0.3527  0.2394
  312MOL0     O41988   1.228   5.008   5.211 -0.6907 -0.2068 -0.1796
  312MOL0     C41989   1.338   4.927   5.169 -0.5434  1.2927 -0.2367
  312MOL0     C41990   1.444   4.995   5.115 -0.1437  0.1532 -0.1400
  312MOL0     C41991   1.557   4.933   5.061 -0.3151 -0.2283  0.3227
  312MOL0     C41992   1.559   4.788   5.064 -0.9761 -0.9081 -0.1164
  312MOL0     O41993   1.668   4.716   5.021 -0.1762 -0.7395  0.3950
  312MOL0     C41994   1.790   4.788   4.988  0.0400  0.1093  0.6547
  312MOL0     C41995   1.870   4.689   4.915  0.0871  0.2846 -0.3985
  312MOL0     C41996   1.970   4.747   4.818 -0.2837 -0.1209  0.1118
  312MOL0     C41997   2.118   4.723   4.856  0.4027 -0.9523  0.1832
  312MOL0     C41998   2.194   4.640   4.752 -0.2665 -0.5476 -0.5374
  312MOL0     C41999   2.151   4.494   4.744  0.1987 -0.1437  0.2261
  312MOL0     C42000   2.260   4.434   4.650 -0.2993  0.3887  0.5428
  312MOL0     C42001   2.399   4.393   4.709 -0.0606  0.3149 -0.2899
  312MOL0     N42002   2.516   4.461   4.644 -0.6299  0.0839  0.0512
  312MOL0     C42003   2.579   4.405   4.537 -0.1159 -0.6313  0.9231
  312MOL0     C42004   2.664   4.511   4.495 -0.5439 -0.0269 -0.5779
  312MOL0     C42005   2.751   4.502   4.377 -0.2221 -0.4319 -0.9027
  312MOL0     C42006   2.900   4.511   4.417  0.7057 -0.7656 -0.5854
  312MOL0     C42007   3.004   4.480   4.301  0.4749 -0.2939 -0.9387
  312MOL0     C42008   3.070   4.599   4.221 -0.0569 -0.2593 -0.2017
  312MOL0     O42009   3.130   4.693   4.322  0.5016  0.3155  0.6112
  312MOL0     C42010   3.258   4.722   4.273  0.9136  0.1054  0.2815
  312MOL0     C42011   3.344   4.619   4.273 -0.7380  0.5143 -0.5833
  312MOL0     C42012   3.476   4.638   4.221  0.1365  0.3992 -1.1203
  312MOL0     C42013   3.512   4.760   4.181 -0.3055 -0.6402  0.6962
  312MOL0     C42014   3.646   4.766   4.111 -0.3461 -0.0951 -0.4457
  312MOL0     O42015   3.715   4.887   4.091 -0.1822 -0.4602 -0.2015
  312MOL0     C42016   3.830   4.904   4.011 -0.0429  0.1602 -0.0161
  312MOL0     C42017   3.858   5.034   3.974 -0.1450 -0.0456 -0.7437
  312MOL0     C42018   3.963   5.070   3.890  0.6517  0.1720 -0.8631
  312MOL0     C42019   4.051   4.971   3.832 -0.4508 -0.3252  0.0206
  312MOL0     O42020   4.151   5.004   3.742 -0.4527  0.1898  0.2231
  312MOL0     C42021   4.211   5.135   3.757 -0.8397  0.3549 -0.6511
  312MOL0     C42022   4.352   5.127   3.700  0.5804  0.6882 -0.4325
  312MOL0     C42023   4.441   5.014   3.760 -0.3198 -0.4095 -0.0489
  312MOL0     C42024   4.515   5.055   3.893  0.6104 -0.3072  1.2367
  312MOL0     C42025   4.624   4.959   3.945  0.1705  0.0066  0.0858
  312MOL0     C42026   4.720   5.009   4.052 -0.2685  0.2854 -0.1169
  312MOL0     C42027   4.800   5.130   4.004  0.6628 -0.7019 -0.4532
  312MOL0     C42028   4.890   5.108   3.881  0.2083  0.0098 -0.2916
  312MOL0    Cl42029   4.989   4.964   3.892  0.4423 -0.3571 -0.2395
  312MOL0     C42030   4.026   4.839   3.878 -0.1853  0.4432 -0.6789
  312MOL0     C42031   3.911   4.808   3.956 -0.4076 -0.0285  0.1972
  312MOL0     O42032   3.678   4.664   4.052  0.4871 -0.0085  0.0916
  312MOL0     C42033   3.427   4.871   4.193 -0.4677  0.1678 -0.7284
  312MOL0     C42034   3.296   4.850   4.214 -0.2296  0.0807 -0.1984
  312MOL0     N42035   2.634   4.627   4.562  0.5489  0.7620  0.2468
  312MOL0     N42036   2.553   4.593   4.656  0.7198  0.0189 -0.2809
  312MOL0     C42037   1.454   4.720   5.115 -1.0796 -0.2773  0.1163
  312MOL0     C42038   1.342   4.785   5.166 -1.3627 -0.2690  0.0360
  312MOL0     C42039   1.002   5.061   5.265 -0.4729 -0.3123  0.1366
  312MOL0     C42040   0.864   5.052   5.216 -0.6439  0.6943  0.6904
  312MOL0     C42041   0.766   5.139   5.248 -0.5834  0.5386 -0.3141
  312MOL0     C42042   0.786   5.249   5.325 -0.3753 -1.1587 -0.2413
  312MOL0     O42043   0.700   5.350   5.355  0.4370 -0.0668 -0.2178
  312MOL0     C42044   0.553   5.331   5.319 -0.1268 -0.3832 -0.5674
  312MOL0     C42045   0.468   5.277   5.443  0.0789  0.8133  0.2068
  312MOL0     C42046   0.507   5.140   5.516 -0.6489 -0.1529  0.4653
  312MOL0     C42047   0.412   5.108   5.633 -0.0350  0.4904 -0.3262
  312MOL0     C42048   0.269   5.109   5.599 -0.1225 -0.4090  0.9131
  312MOL0     C42049   0.150   5.102   5.580 -0.3394  0.0284  0.0867
  312MOL0     C42050   0.924   5.270   5.369 -0.2720 -0.1929 -0.2905
  312MOL0     C42051   1.028   5.178   5.337 -0.1832 -1.2971  0.2437
  312MOL0     C42052   1.175   5.218   5.381 -0.2137  0.3390  0.4594
  312MOL0     H42053   1.441   5.103   5.123  1.7659  0.2080  0.2910
  312MOL0     H42054   1.640   4.997   5.032  2.4888 -1.9224  3.7655
  312MOL0     H42055   1.775   4.877   4.926  0.7237  0.5260  1.0775
  312MOL0     H42056   1.841   4.821   5.079  0.1710 -1.2305  1.0931
  312MOL0     H42057   1.806   4.628   4.851 -3.0832  0.1558  2.6200
  312MOL0     H42058   1.918   4.622   4.987 -0.6375 -0.4282 -0.5640
  312MOL0     H42059   1.952   4.852   4.793 -0.9710  0.1293  1.5318
  312MOL0     H42060   1.953   4.695   4.724 -0.4020  0.4850 -0.2066
  312MOL0     H42061   2.168   4.817   4.882 -0.2076 -0.7286  0.5552
  312MOL0     H42062   2.126   4.661   4.946 -0.4886 -3.6952 -1.4901
  312MOL0     H42063   2.187   4.692   4.656  0.2762 -1.7682 -1.2698
  312MOL0     H42064   2.301   4.642   4.774 -0.6575  0.9530  1.5451
  312MOL0     H42065   2.166   4.433   4.833  2.4247 -0.8505 -0.5477
  312MOL0     H42066   2.046   4.498   4.714 -0.0658  0.9776  1.2277
  312MOL0     H42067   2.277   4.488   4.556  1.0823 -0.7843  0.0919
  312MOL0     H42068   2.215   4.337   4.631 -0.1821  0.5899 -0.8886
  312MOL0     H42069   2.392   4.423   4.814 -0.6303  0.7850 -0.4523
  312MOL0     H42070   2.416   4.285   4.706 -1.5169  0.0860 -1.9011
  312MOL0     H42071   2.572   4.303   4.499  1.9460 -1.1864  1.8609
  312MOL0     H42072   2.731   4.409   4.323 -0.1559 -1.0724  0.1592
  312MOL0     H42073   2.737   4.579   4.300 -1.2220 -0.1090 -0.4158
  312MOL0     H42074   2.923   4.614   4.448 -0.8769 -0.5508 -0.0932
  312MOL0     H42075   2.911   4.450   4.506 -1.4605  1.6570  1.5027
  312MOL0     H42076   2.952   4.413   4.233  1.5828 -0.0664 -2.0341
  312MOL0     H42077   3.085   4.421   4.345  0.2015  0.3169  0.4679
  312MOL0     H42078   2.992   4.654   4.168  0.8372  1.9334  0.6744
  312MOL0     H42079   3.143   4.564   4.148  0.7151  0.7763  0.0579
  312MOL0     H42080   3.324   4.515   4.293  2.9064 -0.0051  1.1009
  312MOL0     H42081   3.531   4.545   4.227 -1.7474 -0.9168 -2.8262
  312MOL0     H42082   3.798   5.118   4.006  0.3716 -0.1325  0.5216
  312MOL0     H42083   3.972   5.173   3.856  1.6083  0.7088  0.8783
  312MOL0     H42084   4.149   5.209   3.707  0.6688  0.4974 -2.4168
  312MOL0     H42085   4.220   5.163   3.863  0.4606  0.8839 -0.8793
  312MOL0     H42086   4.337   5.095   3.596 -0.1139 -1.9728  0.4163
  312MOL0     H42087   4.389   5.229   3.714  1.1604  0.3630  0.4761
  312MOL0     H42088   4.391   4.919   3.779  1.2556 -1.2294  0.1485
  312MOL0     H42089   4.514   4.991   3.683 -2.6544  0.9942 -2.8896
  312MOL0     H42090   4.437   5.078   3.966 -0.2559  1.3371 -0.1386
  312MOL0     H42091   4.566   5.149   3.871 -1.7796  0.1126 -4.2540
  312MOL0     H42092   4.672   4.911   3.859 -2.6225  1.5617 -2.5307
  312MOL0     H42093   4.582   4.870   3.993  0.2867  0.0777  0.3187
  312MOL0     H42094   4.657   5.029   4.140 -0.0089  3.1710 -0.4982
  312MOL0     H42095   4.790   4.929   4.075 -1.1216 -0.3955  0.1656
  312MOL0     H42096   4.868   5.147   4.088  0.2303 -0.9202 -0.0569
  312MOL0     H42097   4.739   5.220   3.998  0.3447 -1.0009 -2.3773
  312MOL0     H42098   4.831   5.103   3.789 -0.4344  1.7965 -0.0098
  312MOL0     H42099   4.962   5.190   3.872 -0.8262  0.8331 -1.2494
  312MOL0     H42100   4.086   4.767   3.823  0.0580  2.1853 -2.8572
  312MOL0     H42101   3.896   4.702   3.978  0.0103  0.0031  0.6485
  312MOL0     H42102   3.461   4.967   4.155  1.7236  0.1849  1.0786
  312MOL0     H42103   3.221   4.928   4.202  0.0564  0.4459  0.3585
  312MOL0     H42104   1.459   4.612   5.126 -0.3405 -0.1099  1.6284
  312MOL0     H42105   1.267   4.725   5.216  0.5738 -2.8414  0.0427
  312MOL0     H42106   0.840   4.972   5.147  1.3478  0.2197  0.4644
  312MOL0     H42107   0.664   5.120   5.218 -0.9224  1.3949  0.2551
  312MOL0     H42108   0.532   5.279   5.225 -1.1529 -0.5218 -0.2746
  312MOL0     H42109   0.519   5.433   5.300  1.9290  0.5511  0.3686
  312MOL0     H42110   0.361   5.280   5.420 -0.4075  0.3996  2.2183
  312MOL0     H42111   0.484   5.339   5.532  1.5463 -1.7192  1.8177
  312MOL0     H42112   0.608   5.147   5.558 -1.3405 -0.0611  2.2180
  312MOL0     H42113   0.502   5.049   5.456 -0.3130 -0.8755  1.4968
  312MOL0     H42114   0.420   5.003   5.661 -0.0570  0.9853  1.7502
  312MOL0     H42115   0.424   5.168   5.724 -3.9830 -1.6769  1.9401
  312MOL0     H42116   0.046   5.123   5.570 -0.3351 -1.0341 -3.2937
  312MOL0     H42117   0.952   5.355   5.430  2.1233 -1.6116  0.6783
  312MOL0     H42118   1.238   5.231   5.293  0.4540 -1.1369  0.6808
  312MOL0     H42119   1.176   5.315   5.431 -0.2754 -0.3775  1.9080
  312MOL0     H42120   1.226   5.140   5.438  3.0506  0.9338 -1.4027
  313MOL0     O42121  11.029   7.196   0.100  0.9696  0.4352 -0.4559
  313MOL0     C42122  10.959   7.224   0.192  0.1050 -0.2453 -0.2873
  313MOL0     O42123  10.980   7.326   0.275 -0.9583  0.1034 -0.3015
  313MOL0     C42124  11.097   7.394   0.265 -0.2052  0.4058 -0.9445
  313MOL0     C42125  11.183   7.383   0.375  0.1854  0.7122  0.1001
  313MOL0     C42126  11.305   7.451   0.366  0.0426  0.4109  0.2809
  313MOL0     C42127  11.345   7.525   0.255 -0.2500 -0.4147 -0.4082
  313MOL0     O42128  11.470   7.591   0.256 -0.0692  0.3068  0.7051
  313MOL0     C42129  11.525   7.632   0.129  0.2894  0.0413 -0.3275
  313MOL0     C42130  11.668   7.698   0.146 -0.2713  0.2541 -0.4241
  313MOL0     C42131  11.754   7.596   0.233 -0.7144 -0.6773 -0.8482
  313MOL0     C42132  11.898   7.642   0.224  0.2106 -0.4618 -0.9271
  313MOL0     C42133  12.004   7.555   0.290 -0.3258 -0.0491  1.1159
  313MOL0     C42134  12.145   7.620   0.266 -0.9465 -0.2161  0.9042
  313MOL0     C42135  12.176   7.761   0.329  0.7288  0.6677  0.3507
  313MOL0     C42136  12.146   7.882   0.243  0.1279 -0.1797 -1.0118
  313MOL0     N42137  12.240   7.893   0.132  0.1070  0.8924  0.1619
  313MOL0     C42138  12.377   7.902   0.138 -0.3783  0.2001 -0.5294
  313MOL0     C42139  12.416   7.889   0.009 -0.4743  0.3083  0.7717
  313MOL0     C42140  12.559   7.897  -0.056  0.2626 -0.5819  0.4264
  313MOL0     C42141  12.672   7.825   0.006  0.2624 -0.1231  0.0558
  313MOL0     C42142  12.803   7.842  -0.072 -0.5952  0.1986 -0.1982
  313MOL0     C42143  12.922   7.779  -0.009 -0.0216  0.3007 -0.1602
  313MOL0     O42144  13.032   7.804  -0.093 -0.4111  0.3679  0.5410
  313MOL0     C42145  13.158   7.783  -0.033  1.4998 -0.2452 -0.2029
  313MOL0     C42146  13.248   7.742  -0.122 -0.3900  0.3706  1.2919
  313MOL0     C42147  13.384   7.717  -0.076 -0.7872  0.7101 -0.6673
  313MOL0     C42148  13.425   7.755   0.058  0.1512 -0.0648 -0.3578
  313MOL0     C42149  13.563   7.734   0.109  1.0614 -0.0467  1.2580
  313MOL0     O42150  13.655   7.713   0.015  0.3641 -0.4133 -0.2836
  313MOL0     C42151  13.786   7.697   0.072  0.0613 -0.2787 -0.1945
  313MOL0     C42152  13.836   7.595   0.162  0.0936 -0.1579  0.4249
  313MOL0     C42153  13.972   7.595   0.200  0.2652 -0.5329  0.1165
  313MOL0     C42154  14.060   7.679   0.150 -0.5474 -0.6253 -1.0184
  313MOL0     O42155  14.186   7.659   0.196 -0.1841 -0.7607  0.2176
  313MOL0     C42156  14.299   7.723   0.126 -0.1507 -0.7039  0.1986
  313MOL0     C42157  14.421   7.715   0.211  0.4038 -0.1900  0.7561
  313MOL0     C42158  14.539   7.739   0.112 -0.3769 -0.7178 -0.7889
  313MOL0     C42159  14.671   7.764   0.199  0.1991 -0.2202 -0.0753
  313MOL0     C42160  14.794   7.736   0.107  0.6758 -0.2255  0.3068
  313MOL0     C42161  14.921   7.731   0.194 -0.1674 -0.3404 -0.0975
  313MOL0     C42162  15.048   7.697   0.128 -0.1187 -0.2465  0.3483
  313MOL0     C42163  15.049   7.576   0.040  0.4211  0.0703  0.1786
  313MOL0    Cl42164  15.218   7.542  -0.009  0.2827 -0.1328  0.1960
  313MOL0     C42165  14.018   7.783   0.055 -0.0300  0.2356 -0.7633
  313MOL0     C42166  13.882   7.789   0.026  0.5581 -0.4123 -0.3622
  313MOL0     O42167  13.583   7.751   0.229 -0.0180 -0.4610  0.0230
  313MOL0     C42168  13.321   7.789   0.145 -0.1488 -1.1302 -0.2774
  313MOL0     C42169  13.190   7.792   0.099 -0.2651  0.6251 -0.7350
  313MOL0     N42170  12.303   7.874  -0.066 -0.4586 -0.1998 -0.8851
  313MOL0     N42171  12.202   7.858   0.005  0.4458 -0.2166 -1.0600
  313MOL0     C42172  11.251   7.537   0.151  0.5560  0.0669 -0.0254
  313MOL0     C42173  11.131   7.473   0.151  0.4874  0.0357 -0.4253
  313MOL0     C42174  10.833   7.149   0.206  0.1097  0.3356  0.1780
  313MOL0     C42175  10.770   7.119   0.082 -0.1780 -0.5306 -0.4131
  313MOL0     C42176  10.670   7.023   0.074  0.2972 -0.3885 -0.3215
  313MOL0     C42177  10.627   6.956   0.194 -0.7857 -1.3400  0.0757
  313MOL0     O42178  10.528   6.863   0.204 -0.3363 -0.3253 -0.8789
  313MOL0     C42179  10.443   6.833   0.091 -0.5159 -0.2106 -0.2348
  313MOL0     C42180  10.494   6.698   0.028 -0.0531 -0.6500 -0.0127
  313MOL0     C42181  10.412   6.664  -0.100 -0.7365 -0.0387 -0.2391
  313MOL0     C42182  10.263   6.653  -0.068  0.0897  0.2113  0.5803
  313MOL0     C42183  10.193   6.578  -0.178  0.9803 -0.6721 -0.1915
  313MOL0     C42184  10.114   6.520  -0.252 -0.4129 -0.6014  0.7170
  313MOL0     C42185  10.678   7.004   0.313 -0.5548  0.2265 -0.4632
  313MOL0     C42186  10.788   7.088   0.322  0.2244 -1.0842 -0.4806
  313MOL0     C42187  10.833   7.131   0.456  0.0183 -0.6027 -0.3601
  313MOL0     H42188  11.162   7.318   0.459  1.1738 -0.0804 -0.2457
  313MOL0     H42189  11.369   7.433   0.452 -1.0007 -1.3021  0.7380
  313MOL0     H42190  11.545   7.542   0.070  2.3139 -0.5470  1.1694
  313MOL0     H42191  11.460   7.706   0.081 -0.5340 -0.2432  0.3229
  313MOL0     H42192  11.648   7.794   0.194 -0.9200  0.2273 -0.6399
  313MOL0     H42193  11.717   7.714   0.050  0.9777 -1.4608 -0.1309
  313MOL0     H42194  11.751   7.492   0.201  2.0916 -0.8972 -0.6287
  313MOL0     H42195  11.712   7.599   0.334  0.1693 -1.8744 -0.4319
  313MOL0     H42196  11.930   7.652   0.119  1.6261 -2.3453 -0.7403
  313MOL0     H42197  11.903   7.742   0.266  0.8560 -1.4861  1.6096
  313MOL0     H42198  11.981   7.548   0.396 -2.6347 -0.3378  0.6343
  313MOL0     H42199  12.000   7.457   0.242  1.2180  0.4300 -0.1156
  313MOL0     H42200  12.226   7.558   0.307  1.3597  1.1781 -1.2752
  313MOL0     H42201  12.162   7.643   0.160 -1.4832  1.6391  1.1760
  313MOL0     H42202  12.275   7.760   0.377  1.2270 -1.1748 -0.6267
  313MOL0     H42203  12.114   7.767   0.419  1.3984 -0.8687  0.9583
  313MOL0     H42204  12.046   7.871   0.200 -0.6917  1.7806  0.2828
  313MOL0     H42205  12.165   7.967   0.309 -0.1162  0.1983 -1.4253
  313MOL0     H42206  12.442   7.912   0.224  1.8032  1.0994 -2.1964
  313MOL0     H42207  12.549   7.869  -0.161  6.0983  0.8712 -0.8802
  313MOL0     H42208  12.582   8.004  -0.059 -3.5570  0.3726 -1.7450
  313MOL0     H42209  12.678   7.860   0.109 -2.8829  3.0920 -0.6475
  313MOL0     H42210  12.644   7.719   0.001 -0.4739  0.0782 -0.2152
  313MOL0     H42211  12.823   7.948  -0.092 -2.5372  0.6135 -0.1619
  313MOL0     H42212  12.786   7.798  -0.170 -0.9565  0.5248 -0.2841
  313MOL0     H42213  12.909   7.672   0.009 -1.3015  0.6623  1.2645
  313MOL0     H42214  12.921   7.819   0.093  1.3063 -2.1102  0.9074
  313MOL0     H42215  13.208   7.716  -0.219  3.7100 -0.3836 -0.4181
  313MOL0     H42216  13.460   7.688  -0.148  0.4536 -0.0243  0.8684
  313MOL0     H42217  13.764   7.522   0.198 -3.0747  2.1054 -0.8169
  313MOL0     H42218  14.008   7.524   0.273  1.7213 -1.9358 -1.8733
  313MOL0     H42219  14.303   7.678   0.026  2.6091  1.7215 -0.9415
  313MOL0     H42220  14.287   7.827   0.094  0.8773 -0.4750  0.4980
  313MOL0     H42221  14.403   7.780   0.297 -2.6539  0.6748 -0.3926
  313MOL0     H42222  14.423   7.609   0.236  0.6063 -1.0090 -2.2535
  313MOL0     H42223  14.556   7.648   0.054 -0.2811  0.2488 -2.3244
  313MOL0     H42224  14.526   7.824   0.045  1.3949 -0.6194 -1.0365
  313MOL0     H42225  14.673   7.706   0.292  0.7336  1.8202  1.2630
  313MOL0     H42226  14.669   7.866   0.239 -2.7590 -0.2494  0.0445
  313MOL0     H42227  14.799   7.817   0.033  2.5822 -0.3332  0.2734
  313MOL0     H42228  14.780   7.641   0.054 -1.1429 -1.7614  3.2765
  313MOL0     H42229  14.938   7.826   0.247  0.8646  0.4512 -1.7410
  313MOL0     H42230  14.906   7.659   0.275  1.8403 -0.2142  0.4472
  313MOL0     H42231  15.128   7.693   0.203  0.1914 -0.2018  0.0226
  313MOL0     H42232  15.073   7.786   0.071 -3.2599 -0.0107 -0.8615
  313MOL0     H42233  15.011   7.490   0.096  0.7853 -1.1127 -1.3004
  313MOL0     H42234  14.998   7.585  -0.057 -0.0195  0.9724  0.4861
  313MOL0     H42235  14.076   7.866   0.018 -1.2535  1.5719  0.1740
  313MOL0     H42236  13.848   7.864  -0.044  2.1284  0.7002  0.0184
  313MOL0     H42237  13.339   7.815   0.249 -1.7589  0.6216 -0.3741
  313MOL0     H42238  13.123   7.837   0.171  0.3311  1.1482 -0.4898
  313MOL0     H42239  11.289   7.592   0.066  1.1432  0.5263  0.5212
  313MOL0     H42240  11.065   7.470   0.065  1.0660 -0.3957 -0.8657
  313MOL0     H42241  10.802   7.170  -0.009 -0.6998  0.3981 -0.0906
  313MOL0     H42242  10.628   6.987  -0.020 -1.9536  0.3292  0.3430
  313MOL0     H42243  10.437   6.913   0.017  1.2333 -0.9999 -1.2958
  313MOL0     H42244  10.342   6.818   0.130  0.7526 -0.6216  3.3438
  313MOL0     H42245  10.478   6.618   0.100  0.7272 -2.2580 -1.5577
  313MOL0     H42246  10.599   6.710  -0.002 -0.7427 -0.4567 -2.5938
  313MOL0     H42247  10.451   6.567  -0.132  0.8428 -0.6437  3.1580
  313MOL0     H42248  10.433   6.736  -0.181  2.1993 -2.7894 -2.1682
  313MOL0     H42249  10.264   6.594   0.024 -2.5797  2.9528  2.5691
  313MOL0     H42250  10.212   6.749  -0.052 -0.8753 -0.3819  1.1598
  313MOL0     H42251  10.051   6.463  -0.317 -0.9912  0.4540  0.3242
  313MOL0     H42252  10.641   6.968   0.408  3.7018  2.0440  2.2054
  313MOL0     H42253  10.801   7.236   0.462  0.9905 -0.2702 -0.8053
  313MOL0     H42254  10.784   7.069   0.532 -0.8746 -3.5062 -3.0991
  313MOL0     H42255  10.941   7.119   0.464  0.2645  0.5162 -1.6243
  314MOL0     O42256   8.614  10.530   8.569  0.6280 -0.2007 -0.1413
  314MOL0     C42257   8.591  10.617   8.650 -0.7199 -0.0761  0.0125
  314MOL0     O42258   8.683  10.694   8.709  0.7443 -1.0078 -0.0933
  314MOL0     C42259   8.812  10.692   8.665 -0.3434  0.7552  0.6375
  314MOL0     C42260   8.884  10.571   8.650 -0.3909 -0.4021 -0.1911
  314MOL0     C42261   9.001  10.566   8.576 -0.4578  0.2766  0.4142
  314MOL0     C42262   9.056  10.675   8.514 -0.1768 -0.1130 -0.6229
  314MOL0     O42263   9.180  10.675   8.455 -0.6373  0.8238 -0.3118
  314MOL0     C42264   9.249  10.796   8.432 -0.6835 -0.2493  0.3948
  314MOL0     C42265   9.388  10.750   8.393  0.2265 -0.4039  0.7034
  314MOL0     C42266   9.507  10.857   8.360 -0.4420 -0.1436  0.6644
  314MOL0     C42267   9.645  10.784   8.350 -0.2300 -1.3981  0.2031
  314MOL0     C42268   9.659  10.707   8.214  0.1886 -0.7409  0.9659
  314MOL0     C42269   9.799  10.692   8.170 -0.3935  0.3381 -0.2824
  314MOL0     C42270   9.814  10.607   8.046 -0.0714 -0.1973 -0.2076
  314MOL0     C42271   9.957  10.639   8.001 -0.7089 -0.5845 -0.2632
  314MOL0     N42272   9.974  10.573   7.872  0.2750  0.2114 -0.4501
  314MOL0     C42273  10.092  10.517   7.817 -0.3017 -0.0866 -0.3805
  314MOL0     C42274  10.061  10.487   7.684  0.2231  1.4967 -0.7436
  314MOL0     C42275  10.169  10.444   7.581  0.4571  1.0317  0.0072
  314MOL0     C42276  10.172  10.278   7.582  0.1207 -0.1685  0.1622
  314MOL0     C42277  10.259  10.241   7.458 -0.6314 -0.0556 -0.3672
  314MOL0     C42278  10.231  10.096   7.412  0.7142 -0.6949 -0.0597
  314MOL0     O42279  10.244  10.015   7.524 -0.0990  0.1753  0.1144
  314MOL0     C42280  10.361   9.989   7.591 -0.3738 -0.7589 -0.1029
  314MOL0     C42281  10.482   9.994   7.526  0.1137  0.1096  0.0230
  314MOL0     C42282  10.600   9.971   7.601  0.5535 -1.0034 -0.7469
  314MOL0     C42283  10.594   9.918   7.730  0.6433  0.3839 -0.3787
  314MOL0     C42284  10.717   9.863   7.786  0.0430  0.0428 -0.7320
  314MOL0     O42285  10.822   9.818   7.710  0.3822  0.7009 -0.3590
  314MOL0     C42286  10.930   9.760   7.783  0.1059  0.4554  0.3887
  314MOL0     C42287  11.056   9.794   7.746  0.4341  0.1680 -0.0434
  314MOL0     C42288  11.171   9.758   7.803  0.3067 -0.2949  0.1297
  314MOL0     C42289  11.173   9.672   7.907  0.2532  0.7726 -0.5531
  314MOL0     O42290  11.300   9.638   7.960 -0.2525 -0.4199  0.3360
  314MOL0     C42291  11.288   9.600   8.098 -0.7453 -0.2256 -0.9558
  314MOL0     C42292  11.426   9.572   8.158 -0.1851 -0.2406  0.6090
  314MOL0     C42293  11.427   9.465   8.267  0.7359 -0.3533 -0.4153
  314MOL0     C42294  11.573   9.450   8.316  0.5429  0.9420 -0.5991
  314MOL0     C42295  11.567   9.406   8.470 -0.7974  0.8964  0.7136
  314MOL0     C42296  11.713   9.400   8.526 -0.6149 -0.1115  0.2704
  314MOL0     C42297  11.718   9.341   8.665 -0.1797  0.3464 -0.5505
  314MOL0     C42298  11.830   9.395   8.747 -0.9141 -0.2489 -0.0777
  314MOL0    Cl42299  11.986   9.300   8.716 -0.3670  0.1885 -0.6452
  314MOL0     C42300  11.049   9.618   7.947 -0.9269 -0.4398  0.8151
  314MOL0     C42301  10.928   9.664   7.889 -0.1526  0.4539 -0.7774
  314MOL0     O42302  10.718   9.869   7.911 -0.6899  0.1413 -0.2800
  314MOL0     C42303  10.469   9.916   7.791 -0.7576 -0.1877  0.1426
  314MOL0     C42304  10.358   9.953   7.726  0.4508  0.2636 -0.0923
  314MOL0     N42305   9.937  10.529   7.652 -0.2673  0.6879 -0.6962
  314MOL0     N42306   9.886  10.579   7.764  0.1023  1.2452 -0.2997
  314MOL0     C42307   8.979  10.792   8.528  0.2057 -0.3032 -0.9059
  314MOL0     C42308   8.867  10.800   8.612  0.4331  0.4659  0.6374
  314MOL0     C42309   8.456  10.643   8.696 -0.6767 -0.0977  0.3317
  314MOL0     C42310   8.433  10.754   8.783 -0.0797 -0.9957  1.3662
  314MOL0     C42311   8.301  10.787   8.824 -0.7397 -0.1338 -0.5257
  314MOL0     C42312   8.194  10.702   8.795 -0.3722  0.4024  0.5057
  314MOL0     O42313   8.077  10.735   8.854 -0.0137  0.1239  0.6641
  314MOL0     C42314   7.954  10.661   8.827  0.0706 -0.4264 -0.3604
  314MOL0     C42315   7.848  10.704   8.935  0.6218  0.7597  0.3916
  314MOL0     C42316   7.708  10.664   8.888  0.6509  0.0438  0.1696
  314MOL0     C42317   7.635  10.753   8.787 -0.1688  0.0948 -0.1799
  314MOL0     C42318   7.523  10.681   8.725 -0.7324  0.0862  0.2250
  314MOL0     C42319   7.444  10.606   8.665  0.3790  0.2877  0.3431
  314MOL0     C42320   8.215  10.588   8.721 -0.4862 -0.0797 -0.4554
  314MOL0     C42321   8.344  10.560   8.667 -0.1424 -0.5302  0.5749
  314MOL0     C42322   8.360  10.425   8.591  0.8407  0.2582 -0.5463
  314MOL0     H42323   8.855  10.482   8.704 -0.5676 -0.6127 -0.6216
  314MOL0     H42324   9.051  10.470   8.565  1.5408  1.4607 -1.8676
  314MOL0     H42325   9.198  10.854   8.355  1.3368  0.8078 -0.2151
  314MOL0     H42326   9.252  10.858   8.522  3.4000  1.8218 -0.9239
  314MOL0     H42327   9.374  10.692   8.302 -1.3996  0.0529  0.6363
  314MOL0     H42328   9.422  10.682   8.473  0.2346 -1.5550 -0.2514
  314MOL0     H42329   9.509  10.920   8.449 -0.1573  0.3761  0.2949
  314MOL0     H42330   9.485  10.926   8.278 -0.0172 -0.2727  0.4398
  314MOL0     H42331   9.726  10.858   8.353  1.4205 -3.0467 -1.1104
  314MOL0     H42332   9.658  10.722   8.438 -1.8355  1.9156  3.0268
  314MOL0     H42333   9.611  10.609   8.215  1.3455 -1.3575 -0.2663
  314MOL0     H42334   9.604  10.763   8.139  2.0501 -2.3873 -1.8085
  314MOL0     H42335   9.851  10.788   8.158  3.5664 -1.3112  1.8106
  314MOL0     H42336   9.850  10.647   8.256 -1.6500 -0.9262 -0.1772
  314MOL0     H42337   9.747  10.650   7.971 -0.0664  0.6636  0.2774
  314MOL0     H42338   9.788  10.501   8.055 -2.4672  0.3707  0.2749
  314MOL0     H42339   9.966  10.748   7.993  0.8512 -0.7093 -0.5538
  314MOL0     H42340  10.038  10.605   8.066 -1.2912 -0.4760  0.5327
  314MOL0     H42341  10.192  10.510   7.860  1.0030 -2.6106 -3.4847
  314MOL0     H42342  10.144  10.475   7.479 -0.0070 -1.4227 -0.7050
  314MOL0     H42343  10.268  10.484   7.604  0.4156  1.7484 -1.0033
  314MOL0     H42344  10.195  10.239   7.681 -3.0846  2.3355  2.1214
  314MOL0     H42345  10.068  10.254   7.558  0.0294  1.7763 -1.7658
  314MOL0     H42346  10.366  10.242   7.479 -0.7335  1.6683  0.2397
  314MOL0     H42347  10.244  10.314   7.378  2.5867  0.5890 -0.5070
  314MOL0     H42348  10.302  10.068   7.334  0.5001  0.2210 -0.6015
  314MOL0     H42349  10.129  10.083   7.374  2.3210 -2.7822 -4.3154
  314MOL0     H42350  10.494  10.020   7.421 -0.3151  0.0868 -0.0330
  314MOL0     H42351  10.695   9.979   7.549  0.6938  0.9015 -0.2962
  314MOL0     H42352  11.059   9.862   7.662 -0.9585  2.2573  1.4671
  314MOL0     H42353  11.264   9.795   7.759  0.1561 -0.9579 -0.7585
  314MOL0     H42354  11.236   9.674   8.158  0.9879 -1.1382  1.8710
  314MOL0     H42355  11.239   9.503   8.109  2.5157 -1.9859 -0.6063
  314MOL0     H42356  11.497   9.544   8.080  3.0967  1.9895  2.5417
  314MOL0     H42357  11.459   9.663   8.210 -4.0469  0.4373  2.2713
  314MOL0     H42358  11.369   9.507   8.350 -0.5814  1.2680 -2.0641
  314MOL0     H42359  11.393   9.371   8.223  1.5489 -0.4725 -0.8125
  314MOL0     H42360  11.620   9.548   8.303 -1.4200  2.2619  1.4552
  314MOL0     H42361  11.608   9.375   8.244  0.4049  3.4372 -3.4927
  314MOL0     H42362  11.514   9.310   8.476  1.5481 -0.8355 -2.5420
  314MOL0     H42363  11.505   9.481   8.519  1.8136  3.9542 -0.3628
  314MOL0     H42364  11.761   9.328   8.459 -1.0757  0.7355 -0.9838
  314MOL0     H42365  11.764   9.496   8.522  1.0024 -0.9275  0.2062
  314MOL0     H42366  11.730   9.235   8.641 -0.8285  0.7076 -2.6504
  314MOL0     H42367  11.625   9.362   8.718  0.9025 -0.7303  1.9487
  314MOL0     H42368  11.842   9.502   8.725  3.2086 -1.0250 -2.7676
  314MOL0     H42369  11.811   9.398   8.854  0.3184 -1.8980  0.2335
  314MOL0     H42370  11.049   9.535   8.017 -2.5440 -1.6962 -0.6041
  314MOL0     H42371  10.841   9.622   7.937  1.5174 -1.4334  0.7595
  314MOL0     H42372  10.458   9.889   7.896 -2.4925  2.8117  0.8415
  314MOL0     H42373  10.261   9.955   7.775  1.1644  1.0544  1.3753
  314MOL0     H42374   9.009  10.887   8.486  0.1210  0.4126  0.5949
  314MOL0     H42375   8.826  10.898   8.633  0.4886  0.9156 -1.1846
  314MOL0     H42376   8.508  10.824   8.818 -0.0851  0.2176 -0.8031
  314MOL0     H42377   8.288  10.882   8.876 -1.3274 -0.5922  0.1930
  314MOL0     H42378   7.966  10.552   8.828 -1.8940 -0.7552 -2.6976
  314MOL0     H42379   7.911  10.685   8.729 -0.5409 -1.0222 -0.2431
  314MOL0     H42380   7.857  10.811   8.951  2.8706  0.5124  1.1501
  314MOL0     H42381   7.868  10.663   9.034 -3.1193  2.0508  1.8470
  314MOL0     H42382   7.646  10.650   8.977 -1.1055 -0.7893 -1.1030
  314MOL0     H42383   7.726  10.563   8.852 -0.3084 -0.9283  2.2529
  314MOL0     H42384   7.599  10.841   8.840  1.3732  0.4529  0.3128
  314MOL0     H42385   7.703  10.794   8.711  1.5465  0.0486  1.2618
  314MOL0     H42386   7.375  10.542   8.613  1.6698  0.3423 -1.5457
  314MOL0     H42387   8.130  10.524   8.702 -0.4375 -0.5063  0.6857
  314MOL0     H42388   8.268  10.373   8.618  1.4892 -1.0676 -0.8140
  314MOL0     H42389   8.368  10.445   8.484  3.4779  1.3099 -0.2379
  314MOL0     H42390   8.445  10.363   8.622  2.2611  1.1822 -2.4203
  315MOL0     O42391   3.411   3.232   9.533  0.1747 -0.3498 -0.4366
  315MOL0     C42392   3.307   3.300   9.525 -0.2296 -0.8480 -0.1510
  315MOL0     O42393   3.263   3.379   9.420  0.2093  0.5095 -0.2853
  315MOL0     C42394   3.350   3.383   9.319 -0.5252 -0.3936  0.0822
  315MOL0     C42395   3.344   3.280   9.221  0.7514 -0.7202  0.1017
  315MOL0     C42396   3.431   3.289   9.111  0.4450  0.1180 -0.3617
  315MOL0     C42397   3.515   3.393   9.096 -0.1711  0.5413  0.1313
  315MOL0     O42398   3.615   3.406   9.001 -0.5015 -0.6142  0.1985
  315MOL0     C42399   3.634   3.304   8.900  0.2286  1.0990 -0.8022
  315MOL0     C42400   3.760   3.312   8.802  0.6851  0.1630  0.6687
  315MOL0     C42401   3.748   3.429   8.707  0.7436  0.0886 -0.4901
  315MOL0     C42402   3.837   3.417   8.582 -0.1229  0.5050  0.2475
  315MOL0     C42403   3.826   3.533   8.488  0.1152  0.5119  0.4188
  315MOL0     C42404   3.931   3.524   8.372  0.1672  0.0808 -0.0460
  315MOL0     C42405   3.927   3.658   8.285  0.1431 -0.2462 -0.0159
  315MOL0     C42406   4.033   3.637   8.172  1.0951  0.0900 -0.5669
  315MOL0     N42407   4.032   3.755   8.086 -0.1658 -0.7422  0.1264
  315MOL0     C42408   4.035   3.891   8.119 -0.6170  0.2165  0.3147
  315MOL0     C42409   4.037   3.956   8.003  0.0096  0.7627 -0.9685
  315MOL0     C42410   4.049   4.108   7.998  0.2253  0.2125 -0.3857
  315MOL0     C42411   4.185   4.163   7.934  0.0935  0.8090 -0.6274
  315MOL0     C42412   4.168   4.297   7.862 -0.6089 -0.2733  0.1187
  315MOL0     C42413   4.302   4.337   7.796  0.7565  0.2718  0.2515
  315MOL0     O42414   4.379   4.448   7.854  0.3300 -0.2766  0.4931
  315MOL0     C42415   4.474   4.492   7.771  0.4868  0.5096  1.1355
  315MOL0     C42416   4.561   4.584   7.821 -0.1761  0.1570 -0.2976
  315MOL0     C42417   4.674   4.637   7.751  0.5047  0.3004 -0.1506
  315MOL0     C42418   4.709   4.588   7.623  0.4262  0.1489 -0.8244
  315MOL0     C42419   4.822   4.649   7.546 -0.1760 -1.0246 -1.3377
  315MOL0     O42420   4.873   4.761   7.615  0.6229  0.4786  0.1078
  315MOL0     C42421   4.971   4.841   7.547  0.0946  0.2898 -0.0855
  315MOL0     C42422   5.103   4.843   7.589  0.3034  0.0329  0.0200
  315MOL0     C42423   5.208   4.906   7.520 -0.3836 -1.5152 -0.4927
  315MOL0     C42424   5.178   4.985   7.405  0.8929  0.3996  0.7365
  315MOL0     O42425   5.274   5.061   7.353 -0.1491  0.0062  0.2004
  315MOL0     C42426   5.233   5.189   7.295  0.0108 -0.7118  0.0312
  315MOL0     C42427   5.352   5.239   7.212 -0.5240 -0.0125  0.3612
  315MOL0     C42428   5.358   5.190   7.066  0.5663  0.3687  0.0989
  315MOL0     C42429   5.506   5.208   7.007  1.7552  0.3627 -0.7093
  315MOL0     C42430   5.505   5.173   6.856  0.5499  0.6388 -0.3155
  315MOL0     C42431   5.639   5.221   6.789 -0.1196  0.1717  0.1557
  315MOL0     C42432   5.664   5.163   6.643  0.9343  0.2284  0.3163
  315MOL0     C42433   5.792   5.230   6.583  0.1389 -0.3571 -0.3495
  315MOL0    Cl42434   5.941   5.133   6.618  0.1109  0.0197 -0.3135
  315MOL0     C42435   5.044   4.983   7.358  0.6040 -0.2716 -0.1850
  315MOL0     C42436   4.950   4.914   7.427  0.6538  0.5285  0.1242
  315MOL0     O42437   4.842   4.614   7.426 -0.7552 -0.7218 -0.1259
  315MOL0     C42438   4.623   4.496   7.571 -0.4680  0.0923  0.3209
  315MOL0     C42439   4.511   4.445   7.642 -1.4941  0.2435 -0.5501
  315MOL0     N42440   4.024   3.855   7.901 -0.9599 -0.5232 -0.1765
  315MOL0     N42441   4.029   3.742   7.953  0.6754  0.0705  0.6777
  315MOL0     C42442   3.517   3.500   9.186  0.3554  0.8449 -0.0427
  315MOL0     C42443   3.450   3.488   9.306  0.4224 -0.5675 -0.0106
  315MOL0     C42444   3.208   3.313   9.637 -0.0864  0.3244 -0.3408
  315MOL0     C42445   3.189   3.435   9.708 -0.3875  0.5379 -0.4394
  315MOL0     C42446   3.095   3.446   9.811  0.3551 -0.1230  0.6507
  315MOL0     C42447   3.025   3.337   9.858  0.2448 -0.1844  0.6926
  315MOL0     O42448   2.946   3.337   9.972  0.1764 -0.3023  0.0793
  315MOL0     C42449   2.833   3.430   9.985 -0.0181 -0.2525 -0.5475
  315MOL0     C42450   2.729   3.398   9.880  0.6578 -0.0089 -0.0166
  315MOL0     C42451   2.668   3.262   9.909  0.2967 -0.3594 -0.5569
  315MOL0     C42452   2.579   3.222   9.793  0.1779 -0.4082  0.1190
  315MOL0     C42453   2.450   3.297   9.798  0.2861  0.2275  0.1759
  315MOL0     C42454   2.338   3.341   9.783  0.0787 -0.3291 -0.6441
  315MOL0     C42455   3.056   3.214   9.801 -0.6855 -0.1090 -0.1176
  315MOL0     C42456   3.148   3.202   9.694 -0.5434 -0.4214 -0.5262
  315MOL0     C42457   3.197   3.065   9.655  0.3704 -0.1939 -0.5098
  315MOL0     H42458   3.266   3.204   9.217 -0.6101  0.6810 -1.9498
  315MOL0     H42459   3.425   3.211   9.035  1.3192 -0.1195 -0.2026
  315MOL0     H42460   3.638   3.206   8.949 -0.5139  1.5803  0.2388
  315MOL0     H42461   3.539   3.305   8.847 -0.6712  1.5320  0.7742
  315MOL0     H42462   3.750   3.226   8.734  0.6148  2.7159 -2.8388
  315MOL0     H42463   3.859   3.308   8.849  0.7295  1.2131  0.6854
  315MOL0     H42464   3.770   3.520   8.763 -1.2628  0.3079  0.0099
  315MOL0     H42465   3.643   3.447   8.680  0.1834 -0.4815  1.1591
  315MOL0     H42466   3.942   3.401   8.608 -0.1422  1.1043  0.7280
  315MOL0     H42467   3.802   3.327   8.530 -1.8519 -0.0651  2.2617
  315MOL0     H42468   3.727   3.553   8.446  0.3029  0.2773 -0.1370
  315MOL0     H42469   3.845   3.624   8.547  3.7935 -0.0023  0.2594
  315MOL0     H42470   4.027   3.514   8.423 -0.6963 -0.2564  1.5935
  315MOL0     H42471   3.917   3.432   8.316  3.1753 -1.0028  0.8313
  315MOL0     H42472   3.953   3.737   8.356 -0.8180 -1.3103  1.5914
  315MOL0     H42473   3.830   3.681   8.241 -0.3887  1.0999  1.7480
  315MOL0     H42474   4.131   3.625   8.217 -0.6104 -0.9450  3.2479
  315MOL0     H42475   4.008   3.542   8.122 -0.2959 -1.1213  2.2225
  315MOL0     H42476   4.047   3.935   8.217  0.0634  0.3185  0.1860
  315MOL0     H42477   3.969   4.160   7.945 -0.7528 -0.3219  0.5293
  315MOL0     H42478   4.043   4.148   8.100  1.2670 -0.4462 -0.0514
  315MOL0     H42479   4.259   4.180   8.012  0.6533  1.3268 -1.2574
  315MOL0     H42480   4.232   4.096   7.862 -0.5035 -0.3266  0.0188
  315MOL0     H42481   4.131   4.378   7.925 -1.0568 -0.7377  0.4673
  315MOL0     H42482   4.089   4.276   7.789 -0.3784  1.1350 -0.5562
  315MOL0     H42483   4.268   4.368   7.696  1.2921 -0.3104 -0.1231
  315MOL0     H42484   4.368   4.250   7.790 -1.5978 -1.5508 -0.5132
  315MOL0     H42485   4.544   4.616   7.923  0.3952 -2.5702  0.7365
  315MOL0     H42486   4.723   4.722   7.797  1.7550 -0.9065  0.8557
  315MOL0     H42487   5.129   4.793   7.682  1.1972  1.2677  0.4553
  315MOL0     H42488   5.315   4.905   7.539 -0.6432 -0.5789  1.2600
  315MOL0     H42489   5.151   5.188   7.224  0.2703  2.8481 -0.5299
  315MOL0     H42490   5.209   5.255   7.380 -1.4246 -0.4535 -0.5514
  315MOL0     H42491   5.326   5.345   7.208 -1.7999 -0.3660 -2.1193
  315MOL0     H42492   5.449   5.214   7.258  0.5759 -4.1766 -3.4828
  315MOL0     H42493   5.326   5.086   7.066 -0.2770  0.6067  1.3004
  315MOL0     H42494   5.293   5.257   7.009  1.9580  1.2412 -0.5200
  315MOL0     H42495   5.579   5.152   7.065 -0.3015 -1.9279 -0.1647
  315MOL0     H42496   5.522   5.316   7.009  2.5250  0.2390  0.3464
  315MOL0     H42497   5.419   5.224   6.812  1.2644  0.4585 -2.0084
  315MOL0     H42498   5.516   5.065   6.845  2.0454  1.0439 -4.6465
  315MOL0     H42499   5.636   5.330   6.778 -1.2080 -0.0066 -1.5430
  315MOL0     H42500   5.724   5.195   6.853  0.2139  1.8418  0.4409
  315MOL0     H42501   5.581   5.181   6.575  0.8495 -1.2800 -0.0229
  315MOL0     H42502   5.678   5.054   6.643  1.3796  0.2823  0.1335
  315MOL0     H42503   5.775   5.242   6.476 -2.7269 -1.2382 -0.0956
  315MOL0     H42504   5.803   5.332   6.622 -0.2707 -1.0627  1.7294
  315MOL0     H42505   5.018   5.026   7.262  3.3025  0.7351 -0.5398
  315MOL0     H42506   4.848   4.910   7.390  0.7408  1.9581 -0.3334
  315MOL0     H42507   4.637   4.466   7.467  1.8404  1.2094  0.2638
  315MOL0     H42508   4.458   4.364   7.593  0.9353 -1.7530 -0.1002
  315MOL0     H42509   3.582   3.585   9.169  1.2212  0.1344 -0.3569
  315MOL0     H42510   3.459   3.558   9.388 -3.6900  0.2797 -0.1003
  315MOL0     H42511   3.243   3.526   9.685  0.5219  0.1646  0.1496
  315MOL0     H42512   3.077   3.540   9.862 -0.6458 -0.2466  0.5318
  315MOL0     H42513   2.865   3.534   9.972  2.1521 -1.0601 -2.2220
  315MOL0     H42514   2.797   3.435  10.088  1.0814  2.8263 -0.2126
  315MOL0     H42515   2.775   3.397   9.780 -1.5627 -0.8094 -1.1093
  315MOL0     H42516   2.650   3.473   9.869  0.0528 -0.6656 -0.2524
  315MOL0     H42517   2.604   3.266   9.997  0.8408 -0.0907 -0.1706
  315MOL0     H42518   2.752   3.196   9.934  1.9722  1.8050 -0.1040
  315MOL0     H42519   2.638   3.231   9.701  0.4774 -0.4314  0.3089
  315MOL0     H42520   2.566   3.115   9.809  2.4992 -1.4318 -3.5057
  315MOL0     H42521   2.235   3.370   9.775 -0.4619 -1.0115  2.5427
  315MOL0     H42522   3.008   3.129   9.849  0.9908 -1.0954 -0.0906
  315MOL0     H42523   3.119   2.990   9.672 -1.9464  1.8021 -1.6648
  315MOL0     H42524   3.235   3.059   9.553  0.4540 -0.7726 -0.4447
  315MOL0     H42525   3.285   3.045   9.717 -0.5127 -1.6118  0.3512
  316MOL0     O42526  10.230   5.353   8.364  0.3281  0.1321  0.4427
  316MOL0     C42527  10.299   5.250   8.341 -0.0348  0.1475 -0.2921
  316MOL0     O42528  10.427   5.234   8.386  0.1244  0.0950 -0.0461
  316MOL0     C42529  10.502   5.334   8.459  0.9444  0.1992  0.1705
  316MOL0     C42530  10.639   5.346   8.429  0.6453 -1.2928  0.8570
  316MOL0     C42531  10.719   5.435   8.505 -0.0981  0.3642  0.2701
  316MOL0     C42532  10.653   5.510   8.609  0.1344  0.6777  0.2223
  316MOL0     O42533  10.705   5.599   8.697  0.4674 -0.3257  0.1493
  316MOL0     C42534  10.826   5.664   8.658 -0.4370  0.6415 -0.2616
  316MOL0     C42535  10.871   5.751   8.777  0.7591 -0.4395 -0.1831
  316MOL0     C42536  11.005   5.816   8.748  0.2035  0.3361 -0.7315
  316MOL0     C42537  11.007   5.956   8.803  0.2991 -0.3282 -1.0950
  316MOL0     C42538  11.137   6.032   8.766  0.5056  1.0828  0.1903
  316MOL0     C42539  11.253   5.980   8.859  0.6638  0.2158 -0.2028
  316MOL0     C42540  11.395   6.018   8.813  1.0123  0.1044  0.1912
  316MOL0     C42541  11.434   6.162   8.843  0.4000  0.3597 -0.0688
  316MOL0     N42542  11.571   6.187   8.808  0.5086  0.3251 -0.2840
  316MOL0     C42543  11.618   6.228   8.689 -0.0601 -0.0109  0.1519
  316MOL0     C42544  11.755   6.247   8.696  0.6180 -0.1088 -0.9073
  316MOL0     C42545  11.843   6.284   8.588 -0.3939  0.5371 -0.1221
  316MOL0     C42546  11.934   6.406   8.616 -0.0845 -0.3015  0.1117
  316MOL0     C42547  12.066   6.397   8.706  1.0891  0.7727  0.4913
  316MOL0     C42548  12.159   6.510   8.683 -0.1457  0.7841 -0.1779
  316MOL0     O42549  12.285   6.481   8.631 -0.7624  0.0041  0.2013
  316MOL0     C42550  12.380   6.423   8.717 -0.1722  0.0846 -0.0877
  316MOL0     C42551  12.511   6.391   8.663  0.9491  0.9913  0.5546
  316MOL0     C42552  12.615   6.343   8.737 -0.3737  0.3791  0.2989
  316MOL0     C42553  12.588   6.318   8.876  0.1024 -0.0361  0.0678
  316MOL0     C42554  12.698   6.264   8.958 -0.1837  0.5633 -0.0052
  316MOL0     O42555  12.646   6.214   9.083 -0.9223 -0.1696 -0.0132
  316MOL0     C42556  12.736   6.143   9.166  0.5557 -0.7294  0.6043
  316MOL0     C42557  12.818   6.045   9.120  0.4419 -0.1858  0.1787
  316MOL0     C42558  12.905   5.980   9.214 -0.0467 -0.5475 -0.0991
  316MOL0     C42559  12.894   6.002   9.354 -0.0744  0.3266 -0.2962
  316MOL0     O42560  12.963   5.936   9.448 -0.0762  0.7681 -0.3146
  316MOL0     C42561  13.040   5.820   9.408 -0.5367  0.0195 -0.6351
  316MOL0     C42562  12.941   5.707   9.376 -0.0852  0.7770  0.1296
  316MOL0     C42563  12.863   5.671   9.499 -0.3108  0.6708  0.5678
  316MOL0     C42564  12.766   5.556   9.459  0.1715  0.2359 -0.9455
  316MOL0     C42565  12.710   5.502   9.596 -0.8421 -0.8478  0.2919
  316MOL0     C42566  12.623   5.386   9.580 -0.1211 -0.4356 -0.3566
  316MOL0     C42567  12.550   5.342   9.709  0.0648  0.4151 -0.0609
  316MOL0     C42568  12.437   5.252   9.694 -0.0079 -0.0568 -0.5501
  316MOL0    Cl42569  12.493   5.114   9.601  0.2041 -0.4273 -0.5985
  316MOL0     C42570  12.809   6.105   9.400  0.4785  1.4868  0.5211
  316MOL0     C42571  12.730   6.170   9.303  0.2532  0.8407  0.4748
  316MOL0     O42572  12.815   6.254   8.916  0.0802 -1.0852  0.1948
  316MOL0     C42573  12.458   6.338   8.933 -0.2909 -0.5407  0.4829
  316MOL0     C42574  12.360   6.396   8.853  0.0410 -0.4375 -0.3629
  316MOL0     N42575  11.777   6.242   8.831  0.3945 -0.0839 -0.2516
  316MOL0     N42576  11.672   6.201   8.894  1.1043 -0.4865  0.3055
  316MOL0     C42577  10.518   5.480   8.638 -0.6214 -0.1573 -0.3866
  316MOL0     C42578  10.440   5.391   8.570  0.2643  0.2644 -0.5404
  316MOL0     C42579  10.239   5.127   8.280  0.7906  0.5720 -0.2009
  316MOL0     C42580  10.322   5.011   8.269  0.3082  0.0668  0.8595
  316MOL0     C42581  10.261   4.886   8.236 -0.6730  0.1536 -0.7716
  316MOL0     C42582  10.129   4.878   8.197 -0.0530 -0.5920  1.1826
  316MOL0     O42583  10.075   4.755   8.167  0.1640  0.2480  0.1844
  316MOL0     C42584   9.934   4.763   8.112 -0.5252  0.6937  0.6881
  316MOL0     C42585   9.887   4.623   8.065 -0.2805 -0.6913 -0.7929
  316MOL0     C42586   9.860   4.537   8.189  0.0561  0.0676  0.2574
  316MOL0     C42587   9.729   4.580   8.255  1.4291 -0.1145  0.7851
  316MOL0     C42588   9.676   4.467   8.332  0.4782 -0.1143 -0.3654
  316MOL0     C42589   9.626   4.382   8.402  0.2914  0.2785 -0.7481
  316MOL0     C42590  10.052   4.995   8.200  0.0302  0.5646  0.8396
  316MOL0     C42591  10.109   5.122   8.230  0.6591  0.0616 -0.0543
  316MOL0     C42592  10.011   5.241   8.216  0.4261  0.1589  0.6580
  316MOL0     H42593  10.685   5.297   8.343 -0.9792 -2.0352  0.3775
  316MOL0     H42594  10.823   5.438   8.475  0.3025 -0.1242  1.5460
  316MOL0     H42595  10.911   5.599   8.634  0.7942  2.2982 -0.5737
  316MOL0     H42596  10.811   5.722   8.567  1.4292 -0.7221 -1.5229
  316MOL0     H42597  10.896   5.697   8.868 -0.3425  1.2839  1.2050
  316MOL0     H42598  10.790   5.823   8.793  0.2119 -1.3995  1.6680
  316MOL0     H42599  11.021   5.820   8.640  1.7729  0.3815 -0.5244
  316MOL0     H42600  11.084   5.760   8.801 -0.2080 -0.9979 -1.4687
  316MOL0     H42601  10.918   5.998   8.756  1.7492  2.4669 -1.5390
  316MOL0     H42602  10.989   5.960   8.911 -0.9242  2.9339 -1.2887
  316MOL0     H42603  11.157   6.013   8.660 -0.1545  0.0281  0.2453
  316MOL0     H42604  11.117   6.138   8.785 -1.5515  0.5081  1.5435
  316MOL0     H42605  11.229   6.017   8.960  3.7567  1.8537  0.0783
  316MOL0     H42606  11.254   5.871   8.861  3.0794  0.1777 -0.5490
  316MOL0     H42607  11.390   5.989   8.708 -3.9117 -1.1831  0.5028
  316MOL0     H42608  11.460   5.947   8.865  1.4495  0.6823  0.4351
  316MOL0     H42609  11.367   6.227   8.787  0.8539  0.5779 -0.3652
  316MOL0     H42610  11.421   6.178   8.951 -2.3349  1.6656 -0.5156
  316MOL0     H42611  11.571   6.231   8.591 -0.2971 -1.9289  0.1835
  316MOL0     H42612  11.900   6.196   8.560 -1.9527 -1.5924  2.8247
  316MOL0     H42613  11.787   6.312   8.498 -0.7262  0.1456 -0.0414
  316MOL0     H42614  11.965   6.441   8.518 -0.1308 -1.9521 -0.5203
  316MOL0     H42615  11.868   6.485   8.654 -1.1990 -1.5176  0.7643
  316MOL0     H42616  12.113   6.298   8.708 -0.1967  0.1187  2.8622
  316MOL0     H42617  12.032   6.407   8.809  4.5824 -0.5244  1.9341
  316MOL0     H42618  12.167   6.570   8.774 -1.0759  0.2548  0.2658
  316MOL0     H42619  12.110   6.579   8.615  0.3618  2.3539  0.9670
  316MOL0     H42620  12.522   6.418   8.558  3.3024 -0.8388  0.2428
  316MOL0     H42621  12.700   6.308   8.678 -2.4732 -1.3299 -1.9243
  316MOL0     H42622  12.828   6.025   9.013 -0.4175 -2.7677  0.5075
  316MOL0     H42623  12.987   5.918   9.177  0.1103  0.3877 -1.4021
  316MOL0     H42624  13.103   5.848   9.323  1.2409 -0.3727  0.5046
  316MOL0     H42625  13.101   5.788   9.493 -1.4838 -1.9557 -0.6500
  316MOL0     H42626  12.867   5.738   9.301 -1.5441 -3.7302 -0.5793
  316MOL0     H42627  12.992   5.619   9.337 -0.8071  0.2764  0.2966
  316MOL0     H42628  12.940   5.649   9.574 -0.1954  1.3988  0.6705
  316MOL0     H42629  12.801   5.754   9.534  0.1812  1.4764 -0.4356
  316MOL0     H42630  12.811   5.472   9.405  0.5827 -1.0668  1.3131
  316MOL0     H42631  12.686   5.593   9.393 -1.1120 -1.1501 -0.2326
  316MOL0     H42632  12.646   5.580   9.639 -2.1766 -2.2393  0.9416
  316MOL0     H42633  12.788   5.472   9.667 -1.1354 -2.2976  0.0381
  316MOL0     H42634  12.554   5.414   9.500  0.2157 -0.0010 -0.4949
  316MOL0     H42635  12.696   5.307   9.560  1.0616 -0.4416  3.2962
  316MOL0     H42636  12.522   5.432   9.765 -0.1403  1.4610 -1.7858
  316MOL0     H42637  12.614   5.289   9.780 -0.2295 -1.0344 -0.8344
  316MOL0     H42638  12.395   5.212   9.787  0.0202 -1.5758 -1.1731
  316MOL0     H42639  12.360   5.304   9.637  0.6099  1.5406 -0.0137
  316MOL0     H42640  12.785   6.125   9.504  1.1477  3.0213  0.4054
  316MOL0     H42641  12.652   6.241   9.331 -1.8747 -0.7388 -1.0918
  316MOL0     H42642  12.443   6.295   9.031 -0.5704 -2.0601 -0.1892
  316MOL0     H42643  12.262   6.413   8.895  0.3120 -0.5056  0.3145
  316MOL0     H42644  10.483   5.532   8.726  0.5043 -0.5253  0.2973
  316MOL0     H42645  10.341   5.370   8.608  0.6279  2.4667  1.9201
  316MOL0     H42646  10.424   5.010   8.307  1.6614 -2.3563 -2.3293
  316MOL0     H42647  10.316   4.794   8.255 -0.8182  0.2947  0.4178
  316MOL0     H42648   9.943   4.820   8.019 -1.8770 -2.2161 -1.3834
  316MOL0     H42649   9.866   4.808   8.185 -2.5075  1.1215 -1.3060
  316MOL0     H42650   9.966   4.567   8.015  1.1706  0.9619 -0.4464
  316MOL0     H42651   9.802   4.638   7.996 -0.0574 -1.4583 -1.2481
  316MOL0     H42652   9.945   4.541   8.258  0.0450  2.6332  0.2235
  316MOL0     H42653   9.847   4.431   8.164  1.8688  0.1713 -1.3347
  316MOL0     H42654   9.739   4.675   8.308 -0.4415  0.3661  0.3393
  316MOL0     H42655   9.653   4.606   8.180  1.7269 -0.4667  0.3529
  316MOL0     H42656   9.575   4.306   8.458  0.8658 -0.3740 -1.0940
  316MOL0     H42657   9.948   4.998   8.169  0.3463  0.6871 -0.2477
  316MOL0     H42658   9.928   5.218   8.283 -0.4525  0.1025 -0.4153
  316MOL0     H42659  10.056   5.339   8.232  0.2820 -0.1916  3.7175
  316MOL0     H42660   9.972   5.248   8.114  2.0436  0.1829  0.0074
  317MOL0     O42661   0.513   5.376   7.369  0.9498 -0.5914  0.2194
  317MOL0     C42662   0.455   5.459   7.435 -0.5080 -0.5899 -0.5920
  317MOL0     O42663   0.320   5.469   7.448  0.6719 -0.8717 -0.3199
  317MOL0     C42664   0.226   5.405   7.370  0.1128  0.1762  0.4925
  317MOL0     C42665   0.249   5.285   7.298 -0.0974 -0.4921 -0.0857
  317MOL0     C42666   0.149   5.222   7.230 -0.1362 -0.1939 -0.4128
  317MOL0     C42667   0.016   5.267   7.238 -0.3089 -0.7059  0.1933
  317MOL0     O42668  -0.083   5.199   7.190  0.2792 -0.1496 -0.4535
  317MOL0     C42669  -0.085   5.058   7.221  0.2433  0.3759  0.7746
  317MOL0     C42670  -0.215   5.002   7.150 -0.0711  0.3160  0.1389
  317MOL0     C42671  -0.203   5.003   6.993  0.1984 -0.9939 -0.3882
  317MOL0     C42672  -0.320   4.924   6.930 -0.3309  0.0728 -0.3299
  317MOL0     C42673  -0.310   4.947   6.779 -0.5309  0.1465 -0.2672
  317MOL0     C42674  -0.452   4.939   6.712 -0.2194 -0.1156 -0.4346
  317MOL0     C42675  -0.437   4.941   6.561 -1.2121 -0.1716  0.2275
  317MOL0     C42676  -0.566   4.971   6.491 -0.5298  0.0337  0.5450
  317MOL0     N42677  -0.560   4.963   6.342  0.1411 -0.1889 -0.5500
  317MOL0     C42678  -0.449   4.927   6.264  0.1381 -0.5821 -0.1171
  317MOL0     C42679  -0.498   4.943   6.139 -0.4760  0.1065 -0.5445
  317MOL0     C42680  -0.411   4.907   6.024 -0.2358 -0.6949  0.4214
  317MOL0     C42681  -0.435   4.760   5.970  0.2529  0.0039  0.3583
  317MOL0     C42682  -0.390   4.734   5.833  0.0107 -0.4126 -0.5184
  317MOL0     C42683  -0.244   4.723   5.815 -0.1434 -0.0153 -0.0309
  317MOL0     O42684  -0.174   4.841   5.860 -0.1417 -0.0292  0.1757
  317MOL0     C42685  -0.037   4.842   5.867 -0.5607  0.3707 -0.4750
  317MOL0     C42686   0.044   4.755   5.800 -0.6219  0.2856  0.1902
  317MOL0     C42687   0.187   4.758   5.808 -0.0026 -0.7387  0.1633
  317MOL0     C42688   0.246   4.854   5.893 -0.7905  0.5074  0.4262
  317MOL0     C42689   0.392   4.852   5.913 -0.2288  0.9685 -0.2418
  317MOL0     O42690   0.444   4.922   6.017  0.0694 -0.2713 -0.6070
  317MOL0     C42691   0.579   4.925   6.035  0.1573 -0.3299 -0.2744
  317MOL0     C42692   0.675   4.954   5.938 -0.5267  0.3749  0.6814
  317MOL0     C42693   0.807   4.946   5.966 -0.3757 -0.3225  0.0888
  317MOL0     C42694   0.854   4.910   6.094  0.9074  0.6181  0.0526
  317MOL0     O42695   0.979   4.905   6.138  0.2931 -1.2728  0.2183
  317MOL0     C42696   1.083   4.984   6.073  0.0108 -0.5238 -0.0540
  317MOL0     C42697   1.203   5.011   6.160  0.9069  0.6563 -0.2489
  317MOL0     C42698   1.323   5.086   6.088  0.6624  1.2049 -0.6117
  317MOL0     C42699   1.443   5.093   6.186  0.4381  0.3327  0.0567
  317MOL0     C42700   1.563   5.173   6.117 -0.2263  0.3026  0.0564
  317MOL0     C42701   1.707   5.117   6.167  0.7373  0.1577  0.2600
  317MOL0     C42702   1.829   5.179   6.092  0.4222  0.4474  0.1068
  317MOL0     C42703   1.945   5.225   6.172  0.0223  0.0366 -0.5680
  317MOL0    Cl42704   2.000   5.079   6.266  0.1096  0.2853  0.1083
  317MOL0     C42705   0.763   4.878   6.200 -0.1523 -1.3123  0.7758
  317MOL0     C42706   0.624   4.889   6.164 -0.3227 -0.0982  0.4398
  317MOL0     O42707   0.460   4.782   5.831 -0.2514 -0.3036 -0.5260
  317MOL0     C42708   0.159   4.933   5.977 -0.4760  0.4182 -0.3123
  317MOL0     C42709   0.024   4.928   5.959 -0.3736  0.2331 -0.3781
  317MOL0     N42710  -0.626   4.988   6.144  0.4627  0.3126 -0.1140
  317MOL0     N42711  -0.657   5.011   6.267 -0.4516 -0.0471 -0.2019
  317MOL0     C42712  -0.011   5.385   7.313  0.4368 -0.7181  0.1100
  317MOL0     C42713   0.093   5.453   7.383  0.0371 -0.6404  0.1796
  317MOL0     C42714   0.539   5.571   7.502  0.2147  0.1442  0.3867
  317MOL0     C42715   0.670   5.589   7.459  0.1386  0.8660  0.0790
  317MOL0     C42716   0.752   5.675   7.521  0.4010  0.1679 -0.0241
  317MOL0     C42717   0.714   5.761   7.618  0.3652 -0.6187 -0.7946
  317MOL0     O42718   0.807   5.843   7.678 -0.1468  0.1989  0.5195
  317MOL0     C42719   0.841   5.812   7.816  0.3004 -0.3874  0.3679
  317MOL0     C42720   0.981   5.747   7.828  0.3656  0.5670  0.1747
  317MOL0     C42721   1.091   5.839   7.771  0.4199 -0.5442 -0.6954
  317MOL0     C42722   1.217   5.812   7.843 -0.4761  0.0614 -0.3860
  317MOL0     C42723   1.313   5.915   7.808 -0.0457 -0.3775 -0.6294
  317MOL0     C42724   1.406   5.989   7.780 -0.0977  0.0515 -1.2341
  317MOL0     C42725   0.585   5.751   7.660  0.3231  0.0296 -0.4098
  317MOL0     C42726   0.490   5.666   7.598 -0.6550 -0.0508 -0.1981
  317MOL0     C42727   0.352   5.667   7.659 -0.1184 -0.1462 -0.4893
  317MOL0     H42728   0.347   5.238   7.288  0.0824 -1.5465  4.6634
  317MOL0     H42729   0.182   5.137   7.171 -1.2163  0.3132 -1.7986
  317MOL0     H42730   0.000   5.019   7.165 -1.9177 -1.0262 -1.7929
  317MOL0     H42731  -0.081   5.041   7.329  0.3367 -0.6797  0.6141
  317MOL0     H42732  -0.301   5.061   7.184  2.1913  2.2404  3.1369
  317MOL0     H42733  -0.216   4.900   7.188  4.2360  0.3540  0.8895
  317MOL0     H42734  -0.104   4.962   6.971  0.9299 -0.9146  2.4086
  317MOL0     H42735  -0.204   5.108   6.962  1.5350  0.7866  4.6917
  317MOL0     H42736  -0.312   4.818   6.957 -0.3425  0.3208  0.6749
  317MOL0     H42737  -0.414   4.959   6.973 -0.2016 -1.5962  1.4569
  317MOL0     H42738  -0.281   5.050   6.760 -3.1499  0.8446 -0.9854
  317MOL0     H42739  -0.241   4.875   6.734  0.1503  0.2426  0.6001
  317MOL0     H42740  -0.508   4.847   6.731  0.6169 -0.8576 -1.4193
  317MOL0     H42741  -0.510   5.023   6.752  0.1148  0.8372 -1.8420
  317MOL0     H42742  -0.409   4.839   6.536  0.9868  0.2998  0.5463
  317MOL0     H42743  -0.366   5.015   6.523 -0.6396 -1.6735 -1.7600
  317MOL0     H42744  -0.633   4.893   6.527  0.4281 -1.2598 -0.3829
  317MOL0     H42745  -0.596   5.069   6.529  4.3413  1.3080  1.8742
  317MOL0     H42746  -0.358   4.872   6.280  0.7313  0.0285 -1.2652
  317MOL0     H42747  -0.451   4.979   5.953  0.5724 -1.4253 -0.8146
  317MOL0     H42748  -0.308   4.927   6.058 -0.5880 -2.9594  3.3108
  317MOL0     H42749  -0.399   4.685   6.041 -2.5015 -2.2733 -0.4476
  317MOL0     H42750  -0.542   4.735   5.975  0.2646 -0.4264 -1.1601
  317MOL0     H42751  -0.411   4.824   5.774  1.5309 -1.5423 -2.9789
  317MOL0     H42752  -0.435   4.644   5.788  2.4898 -1.8981 -0.2253
  317MOL0     H42753  -0.226   4.704   5.709  1.9982  0.9515  0.1083
  317MOL0     H42754  -0.208   4.639   5.876 -1.1116  0.4387  1.2160
  317MOL0     H42755   0.007   4.688   5.723 -1.5271  0.9100  0.0711
  317MOL0     H42756   0.238   4.693   5.737  0.6692  1.3581 -1.3915
  317MOL0     H42757   0.634   4.968   5.838 -1.6744  1.6355  1.2985
  317MOL0     H42758   0.877   4.965   5.885  0.0718  1.0211  0.7660
  317MOL0     H42759   1.106   4.943   5.974 -0.3344 -0.2239 -0.2624
  317MOL0     H42760   1.037   5.082   6.059  2.5531  0.8252  0.5384
  317MOL0     H42761   1.166   5.077   6.238 -1.7988  2.5150 -2.8941
  317MOL0     H42762   1.240   4.918   6.205  1.8261 -1.1910 -4.2865
  317MOL0     H42763   1.350   5.033   5.996  2.4292 -0.8951  0.9879
  317MOL0     H42764   1.306   5.191   6.065 -0.9010  1.0155 -0.4245
  317MOL0     H42765   1.471   4.991   6.212  0.4513 -0.6118 -3.1970
  317MOL0     H42766   1.419   5.147   6.278 -0.0626  1.7220 -0.8486
  317MOL0     H42767   1.562   5.282   6.130 -0.5936  0.7086 -2.7345
  317MOL0     H42768   1.551   5.159   6.009 -2.3100 -1.3033  0.4318
  317MOL0     H42769   1.712   5.146   6.273  2.0058  2.2197 -0.3180
  317MOL0     H42770   1.711   5.009   6.150  0.2701  0.3080 -0.8587
  317MOL0     H42771   1.794   5.264   6.034  0.1415 -0.2495 -0.7706
  317MOL0     H42772   1.874   5.098   6.032 -2.9705 -1.3642 -0.2370
  317MOL0     H42773   2.025   5.263   6.108  1.1639  2.4114  2.0632
  317MOL0     H42774   1.927   5.304   6.245  0.5106 -0.2714 -0.1061
  317MOL0     H42775   0.797   4.867   6.302 -0.2381  0.6687  1.0599
  317MOL0     H42776   0.551   4.869   6.242 -0.7464  0.8738  0.3059
  317MOL0     H42777   0.203   4.997   6.053 -0.0489  0.0256 -0.2303
  317MOL0     H42778  -0.042   4.970   6.034 -0.4097 -2.1849  1.0552
  317MOL0     H42779  -0.113   5.411   7.338  0.6070 -1.5805  1.8329
  317MOL0     H42780   0.053   5.530   7.448 -1.2180 -1.1132 -0.0056
  317MOL0     H42781   0.709   5.536   7.373  0.5836 -0.0184  0.8078
  317MOL0     H42782   0.859   5.665   7.505  1.1718 -2.6343  4.8557
  317MOL0     H42783   0.762   5.752   7.861 -2.3662  1.4888 -1.5080
  317MOL0     H42784   0.834   5.905   7.873 -0.7076 -0.5147  0.4640
  317MOL0     H42785   0.990   5.648   7.783 -0.6395  0.7569 -0.4821
  317MOL0     H42786   1.000   5.731   7.935  4.9460  1.3358 -0.3310
  317MOL0     H42787   1.071   5.945   7.788  2.2362 -0.5388  2.0252
  317MOL0     H42788   1.105   5.831   7.663  1.3984 -0.0191 -0.6098
  317MOL0     H42789   1.196   5.812   7.950 -3.9098 -2.0887 -0.8789
  317MOL0     H42790   1.262   5.717   7.810 -1.2868 -0.9524  1.2759
  317MOL0     H42791   1.489   6.052   7.753 -0.4698  1.3986  0.5661
  317MOL0     H42792   0.554   5.818   7.739 -0.6637 -2.8813  1.8888
  317MOL0     H42793   0.273   5.670   7.583 -1.0812 -1.4691  0.4152
  317MOL0     H42794   0.342   5.567   7.704  0.7663 -1.5406 -3.1611
  317MOL0     H42795   0.334   5.749   7.729 -1.1790 -1.0513  0.3321
  318MOL0     O42796   2.713   9.924   6.956  0.3723  0.5068 -0.2898
  318MOL0     C42797   2.671   9.930   6.846  0.1745  0.4779  0.1236
  318MOL0     O42798   2.741   9.901   6.734 -0.0315  0.4139  0.7160
  318MOL0     C42799   2.874   9.872   6.744 -0.0130  0.5899  0.3411
  318MOL0     C42800   2.963   9.972   6.731  0.0547 -0.8009  0.2721
  318MOL0     C42801   3.099   9.948   6.723  0.4699  0.7990 -0.0306
  318MOL0     C42802   3.152   9.822   6.758  0.6593 -0.2325 -0.4995
  318MOL0     O42803   3.284   9.804   6.766  0.4265 -0.1272  0.0483
  318MOL0     C42804   3.338   9.734   6.878  0.0408  0.7421  0.8633
  318MOL0     C42805   3.485   9.757   6.888 -0.1554  0.0096  0.2305
  318MOL0     C42806   3.525   9.885   6.949 -0.4205  0.2450  0.3133
  318MOL0     C42807   3.470  10.012   6.886  0.3705  0.0820 -0.1492
  318MOL0     C42808   3.519  10.152   6.943  0.4017  0.2294 -0.5815
  318MOL0     C42809   3.482  10.278   6.853 -0.1996  0.8086 -0.0092
  318MOL0     C42810   3.563  10.401   6.898 -0.6338  0.6212  0.5877
  318MOL0     C42811   3.561  10.450   7.042 -0.5854  0.2863  0.9602
  318MOL0     N42812   3.615  10.580   7.067  0.8135 -0.4313  0.4078
  318MOL0     C42813   3.612  10.685   6.978  0.8161  0.1081  0.3741
  318MOL0     C42814   3.684  10.781   7.041  0.0308 -0.3628 -0.0338
  318MOL0     C42815   3.711  10.916   6.987  0.1657 -1.2165  0.8936
  318MOL0     C42816   3.830  10.926   6.889  0.5418  0.0373 -0.8516
  318MOL0     C42817   3.953  10.888   6.974 -0.4590  0.4713 -0.1715
  318MOL0     C42818   4.076  10.923   6.892  0.3493  0.5454  0.2219
  318MOL0     O42819   4.197  10.878   6.962 -0.0620  0.3941  0.2414
  318MOL0     C42820   4.325  10.898   6.904  0.0169  0.1134  0.3116
  318MOL0     C42821   4.352  10.935   6.771  0.9110  0.2922  0.1229
  318MOL0     C42822   4.476  10.947   6.710  0.1238  0.2545 -0.8859
  318MOL0     C42823   4.591  10.949   6.795 -0.1291  0.8404 -0.6119
  318MOL0     C42824   4.728  10.975   6.745  0.3568 -0.1550 -0.2055
  318MOL0     O42825   4.833  10.974   6.837 -0.0827  0.0485  0.2663
  318MOL0     C42826   4.969  10.979   6.798  0.2116  0.1660 -0.4600
  318MOL0     C42827   5.066  10.954   6.896  0.1191 -0.2087  0.2740
  318MOL0     C42828   5.204  10.973   6.869  0.1230  0.5281 -0.2294
  318MOL0     C42829   5.245  11.021   6.748 -0.5007 -0.3240 -0.5418
  318MOL0     O42830   5.385  11.040   6.742  0.3676  0.1098  0.2839
  318MOL0     C42831   5.438  11.012   6.605 -0.9181 -0.2018 -0.2325
  318MOL0     C42832   5.592  11.048   6.596  0.5735  0.2279 -1.1472
  318MOL0     C42833   5.647  11.029   6.450 -0.5278 -0.2850 -0.0585
  318MOL0     C42834   5.801  11.060   6.437  0.7456  0.0378 -0.0691
  318MOL0     C42835   5.852  11.013   6.301 -0.4180  0.4046  0.0812
  318MOL0     C42836   6.012  11.024   6.295 -0.5788  0.5759  0.0992
  318MOL0     C42837   6.055  10.992   6.148  0.6017  0.0297  0.5387
  318MOL0     C42838   6.192  11.058   6.118 -0.9796  0.0612 -0.3881
  318MOL0    Cl42839   6.278  11.004   5.979 -0.0739 -0.3791 -0.0282
  318MOL0     C42840   5.151  11.038   6.653  0.0147  0.9668  0.7722
  318MOL0     C42841   5.012  11.015   6.675 -0.1239 -0.5334  0.0277
  318MOL0     O42842   4.735  11.000   6.628 -0.2902 -0.3784  0.0349
  318MOL0     C42843   4.565  10.906   6.928  0.0256  0.3670 -0.8631
  318MOL0     C42844   4.439  10.883   6.982  0.3570 -0.7171 -0.0103
  318MOL0     N42845   3.736  10.740   7.162  0.5345  0.6074  0.8344
  318MOL0     N42846   3.692  10.614   7.173 -0.0491 -0.4328 -0.0610
  318MOL0     C42847   3.061   9.713   6.782 -0.4075  0.6546 -0.5264
  318MOL0     C42848   2.923   9.740   6.769 -0.0360 -0.7024 -0.8525
  318MOL0     C42849   2.529   9.979   6.817  0.0714  0.1408 -0.4980
  318MOL0     C42850   2.455   9.899   6.724  0.1250  0.4724  0.3271
  318MOL0     C42851   2.323   9.928   6.696 -0.6279  0.1829  0.2915
  318MOL0     C42852   2.263  10.037   6.759 -0.3073  0.0601  0.2418
  318MOL0     O42853   2.129  10.068   6.747 -0.6590 -0.1455 -0.7548
  318MOL0     C42854   2.045   9.974   6.815 -0.5616 -0.2872 -0.5388
  318MOL0     C42855   1.891   9.992   6.772  0.1298 -0.3516  0.8171
  318MOL0     C42856   1.801  10.047   6.870  0.5079 -0.6545 -0.2424
  318MOL0     C42857   1.746   9.958   6.981 -0.1394 -0.5539 -0.4211
  318MOL0     C42858   1.640  10.031   7.052 -0.4263 -0.6564  0.5635
  318MOL0     C42859   1.557  10.104   7.101 -0.0159  0.7653  0.3810
  318MOL0     C42860   2.338  10.121   6.840  1.3068 -0.1277  0.1791
  318MOL0     C42861   2.472  10.089   6.879  0.4024  0.1921 -0.7193
  318MOL0     C42862   2.538  10.177   6.983  0.3508 -0.7405 -0.1275
  318MOL0     H42863   2.924  10.073   6.721  0.6235 -0.2381  2.8754
  318MOL0     H42864   3.161  10.031   6.691 -0.6643  2.0468  0.8634
  318MOL0     H42865   3.288   9.745   6.975 -1.9090 -0.7237  0.0937
  318MOL0     H42866   3.328   9.627   6.859 -3.6888  1.2057 -0.6149
  318MOL0     H42867   3.524   9.751   6.786 -0.1791  2.0091  0.0697
  318MOL0     H42868   3.535   9.679   6.947  1.0439  0.1045 -0.6132
  318MOL0     H42869   3.634   9.885   6.940 -0.5679  1.6812 -3.9433
  318MOL0     H42870   3.495   9.891   7.053  0.7791  0.2340  0.6733
  318MOL0     H42871   3.491  10.002   6.779 -2.1482  0.8521 -0.7787
  318MOL0     H42872   3.362  10.011   6.902  0.5822  0.1699  1.4697
  318MOL0     H42873   3.475  10.168   7.042 -0.4959  1.5956 -1.1783
  318MOL0     H42874   3.627  10.138   6.945  0.5536  0.6687 -3.0264
  318MOL0     H42875   3.517  10.257   6.752  1.0497  0.5285  0.4633
  318MOL0     H42876   3.375  10.291   6.870 -0.1007  1.4856  0.1285
  318MOL0     H42877   3.548  10.481   6.825  0.0003  0.5524  0.3749
  318MOL0     H42878   3.661  10.359   6.870 -1.9269 -1.6928 -0.7923
  318MOL0     H42879   3.456  10.466   7.071 -0.9815 -1.8878  0.9022
  318MOL0     H42880   3.602  10.370   7.105 -2.6000 -1.1651  0.5568
  318MOL0     H42881   3.566  10.693   6.880  0.7764  2.2581  0.5211
  318MOL0     H42882   3.615  10.956   6.951 -0.1186 -2.1714  0.5320
  318MOL0     H42883   3.739  10.979   7.071 -1.1991  1.8561 -0.7848
  318MOL0     H42884   3.804  10.861   6.804  0.6263 -1.7846  0.4479
  318MOL0     H42885   3.842  11.030   6.860  4.2153  1.0002  3.0777
  318MOL0     H42886   3.956  10.784   7.009  0.6878  0.0061 -1.5812
  318MOL0     H42887   3.957  10.942   7.070  1.9222  2.5897 -1.3419
  318MOL0     H42888   4.079  11.028   6.862 -0.7715 -0.3814 -3.6790
  318MOL0     H42889   4.064  10.864   6.801 -0.1488  2.0950 -0.7610
  318MOL0     H42890   4.267  10.945   6.705  1.1383 -0.5515 -0.3099
  318MOL0     H42891   4.475  10.982   6.607 -3.1557  1.3309 -0.5980
  318MOL0     H42892   5.032  10.928   6.996  1.3696 -1.9905  0.2787
  318MOL0     H42893   5.281  10.968   6.945  0.8571 -0.3394 -1.0014
  318MOL0     H42894   5.414  10.909   6.575 -1.3868  0.1691 -1.1677
  318MOL0     H42895   5.389  11.081   6.536  2.7224 -0.7198 -3.7777
  318MOL0     H42896   5.601  11.152   6.629  1.8769 -0.1496 -0.2572
  318MOL0     H42897   5.641  10.981   6.667 -1.8363 -0.6301 -0.2159
  318MOL0     H42898   5.633  10.926   6.418 -0.7942 -0.4110  0.4684
  318MOL0     H42899   5.585  11.089   6.382 -0.2252  0.4036  0.2594
  318MOL0     H42900   5.848  11.006   6.519  0.2090  0.7064  0.7010
  318MOL0     H42901   5.808  11.169   6.448 -3.0405  0.2893  1.5457
  318MOL0     H42902   5.803  11.052   6.211  1.9385 -1.5968 -2.2393
  318MOL0     H42903   5.833  10.905   6.292 -3.4582  0.9683 -1.8101
  318MOL0     H42904   6.055  11.121   6.321  0.4057  0.3654 -0.7002
  318MOL0     H42905   6.052  10.955   6.370  0.1704 -0.6386 -1.3480
  318MOL0     H42906   5.989  11.035   6.071 -1.3755 -1.1637  1.4973
  318MOL0     H42907   6.056  10.883   6.139  2.1506 -0.0512  1.3683
  318MOL0     H42908   6.177  11.165   6.098 -1.9257  0.1607  0.8084
  318MOL0     H42909   6.263  11.051   6.201 -2.0205  0.4058  0.5550
  318MOL0     H42910   5.187  11.087   6.563 -1.1409 -1.2100 -0.9797
  318MOL0     H42911   4.946  11.026   6.590 -1.2616  0.7484  1.0236
  318MOL0     H42912   4.652  10.911   6.993 -1.1394 -0.0269  0.7751
  318MOL0     H42913   4.438  10.876   7.090  1.2931 -0.1300  0.0510
  318MOL0     H42914   3.089   9.612   6.807 -1.2538  0.5520  0.0481
  318MOL0     H42915   2.850   9.661   6.786  1.9620 -3.1165 -2.6638
  318MOL0     H42916   2.500   9.818   6.667  0.3058  1.1264 -0.4787
  318MOL0     H42917   2.258   9.860   6.642 -1.3663  0.7686  0.4261
  318MOL0     H42918   2.056   9.993   6.923 -2.0940 -2.2445  0.0085
  318MOL0     H42919   2.080   9.875   6.785 -0.9441 -0.0883 -1.6777
  318MOL0     H42920   1.858   9.893   6.741  0.5793 -0.8084  1.7595
  318MOL0     H42921   1.894  10.053   6.681  2.4658 -0.6561  0.6168
  318MOL0     H42922   1.715  10.073   6.807  2.2162  1.1482 -1.9518
  318MOL0     H42923   1.844  10.141   6.906  3.6529 -0.8040 -3.1653
  318MOL0     H42924   1.710   9.866   6.935 -0.8670  0.7446 -2.5948
  318MOL0     H42925   1.832   9.939   7.046 -0.2560 -2.9331 -0.8739
  318MOL0     H42926   1.474  10.157   7.143 -1.9870 -1.3331 -0.6489
  318MOL0     H42927   2.283  10.206   6.879 -2.2496 -1.5983 -1.2090
  318MOL0     H42928   2.647  10.178   6.973  0.1588 -0.9664 -3.1067
  318MOL0     H42929   2.498  10.279   6.981  0.2364 -0.7945 -1.1557
  318MOL0     H42930   2.507  10.131   7.077  2.3728 -1.0077  0.4483
  319MOL0     O42931   3.679   5.579   8.012 -0.1173 -0.2755 -0.2766
  319MOL0     C42932   3.675   5.467   7.970  0.1639 -0.1689  0.3519
  319MOL0     O42933   3.783   5.396   7.919 -1.0383 -0.3359  0.0056
  319MOL0     C42934   3.902   5.466   7.919  0.5658 -0.1396  0.8790
  319MOL0     C42935   3.925   5.564   7.829 -0.1385 -0.1932 -0.2277
  319MOL0     C42936   4.045   5.630   7.817 -0.5697  0.4450 -0.6369
  319MOL0     C42937   4.154   5.590   7.900  0.2868  0.2892  0.2724
  319MOL0     O42938   4.279   5.654   7.907  0.7294 -0.3583  0.2430
  319MOL0     C42939   4.305   5.772   7.827 -0.4922 -0.1485  0.0644
  319MOL0     C42940   4.461   5.797   7.840  0.4002  0.2594  0.6022
  319MOL0     C42941   4.518   5.828   7.982  0.0869 -0.1440 -0.1558
  319MOL0     C42942   4.649   5.897   7.987  0.5861  0.5727 -0.7994
  319MOL0     C42943   4.686   5.905   8.136 -0.4949  0.5176 -1.2532
  319MOL0     C42944   4.803   6.004   8.137 -0.6721  0.2600  0.9304
  319MOL0     C42945   4.874   6.028   8.270 -0.9217  0.5251  1.0174
  319MOL0     C42946   5.016   6.098   8.254 -0.3126 -0.0539  0.3992
  319MOL0     N42947   5.011   6.238   8.189 -0.4520 -0.8652 -0.2697
  319MOL0     C42948   5.014   6.351   8.270 -0.1907 -0.5815 -0.1991
  319MOL0     C42949   5.044   6.449   8.186 -0.1207  0.5807  0.5457
  319MOL0     C42950   5.065   6.594   8.216 -0.1998  0.4344  0.6320
  319MOL0     C42951   5.214   6.620   8.236  0.3332 -0.1815  0.3884
  319MOL0     C42952   5.250   6.593   8.385 -0.2288 -0.1742 -0.4981
  319MOL0     C42953   5.380   6.652   8.429  0.9700  0.3493  0.0674
  319MOL0     O42954   5.488   6.584   8.360 -0.4961  0.1522 -0.5346
  319MOL0     C42955   5.611   6.598   8.406 -0.0956  0.3186 -0.5727
  319MOL0     C42956   5.719   6.532   8.341 -0.1333 -0.6230 -0.7420
  319MOL0     C42957   5.852   6.540   8.383  0.0446  0.7664 -0.4606
  319MOL0     C42958   5.884   6.618   8.488  0.4284  0.0680 -0.8423
  319MOL0     C42959   6.030   6.649   8.513 -0.0638  0.1260 -0.3937
  319MOL0     O42960   6.124   6.580   8.446  0.3043 -0.6601 -0.3371
  319MOL0     C42961   6.254   6.601   8.480 -0.1313  0.6945  0.1088
  319MOL0     C42962   6.324   6.717   8.463  0.0544  0.1018 -0.1183
  319MOL0     C42963   6.456   6.733   8.499  0.5425  0.3964 -0.0935
  319MOL0     C42964   6.519   6.628   8.574  0.2556  0.0905  0.1154
  319MOL0     O42965   6.645   6.634   8.634 -0.1378  0.2502 -0.0374
  319MOL0     C42966   6.712   6.760   8.634  0.3739  0.4222 -0.4211
  319MOL0     C42967   6.831   6.743   8.732  0.3046 -0.3195  0.2950
  319MOL0     C42968   6.885   6.880   8.780 -0.6866  0.2734 -0.2319
  319MOL0     C42969   7.026   6.857   8.826  0.1477  0.6698 -0.6177
  319MOL0     C42970   7.096   6.980   8.886  0.1054 -0.3599 -0.2893
  319MOL0     C42971   7.163   7.073   8.785  0.0921 -0.4350 -0.8075
  319MOL0     C42972   7.266   7.167   8.864  0.1725  0.2788  0.0637
  319MOL0     C42973   7.350   7.247   8.769  0.8630  0.6406 -0.2551
  319MOL0    Cl42974   7.469   7.146   8.682  0.2588  0.2533 -0.1436
  319MOL0     C42975   6.442   6.511   8.597 -0.8076 -0.0918 -0.2474
  319MOL0     C42976   6.315   6.495   8.552  0.1276  0.1878 -0.3555
  319MOL0     O42977   6.058   6.732   8.596  0.1435  0.6483  0.0613
  319MOL0     C42978   5.782   6.674   8.567 -0.3141  0.0060 -0.0213
  319MOL0     C42979   5.649   6.667   8.524 -1.1353  0.1000 -0.2130
  319MOL0     N42980   5.056   6.397   8.054  0.6615 -0.2141  0.5944
  319MOL0     N42981   5.044   6.268   8.061  0.5385 -0.2383 -1.0212
  319MOL0     C42982   4.127   5.493   7.992  0.2394  0.4518 -0.5656
  319MOL0     C42983   4.008   5.422   7.999 -0.3836 -0.5554  0.3413
  319MOL0     C42984   3.540   5.398   7.986 -0.7475 -1.2323  0.1244
  319MOL0     C42985   3.440   5.480   8.048  0.4879  0.2577  0.3158
  319MOL0     C42986   3.308   5.430   8.064  0.7930  0.2061  0.2461
  319MOL0     C42987   3.282   5.300   8.019  1.0165 -0.1408 -0.7408
  319MOL0     O42988   3.158   5.242   8.017  0.3898 -0.1035 -0.3366
  319MOL0     C42989   3.072   5.258   8.144  0.1416  0.2048  0.2613
  319MOL0     C42990   3.055   5.129   8.220  0.8435  0.0140  0.1067
  319MOL0     C42991   3.160   5.107   8.323  0.4243 -0.6310 -0.5015
  319MOL0     C42992   3.136   4.966   8.383  0.2982 -0.4418  0.7155
  319MOL0     C42993   3.044   4.966   8.498 -1.0316  0.5477  0.8608
  319MOL0     C42994   2.977   4.942   8.597  0.1456 -0.2804  0.0201
  319MOL0     C42995   3.382   5.220   7.964 -0.7124 -0.4671 -0.2532
  319MOL0     C42996   3.509   5.266   7.943 -0.1661 -0.2745  0.2622
  319MOL0     C42997   3.618   5.175   7.895 -0.0551  0.2782  0.1436
  319MOL0     H42998   3.851   5.594   7.755  3.2205  3.3117 -2.5432
  319MOL0     H42999   4.060   5.702   7.738 -2.0485  0.9895 -0.4347
  319MOL0     H43000   4.299   5.750   7.720 -2.1373  2.4410 -0.4658
  319MOL0     H43001   4.237   5.854   7.853 -1.4658 -1.1602  0.8496
  319MOL0     H43002   4.490   5.872   7.766  0.4171  0.6441  0.9946
  319MOL0     H43003   4.506   5.703   7.807 -1.7232 -1.4487  2.2599
  319MOL0     H43004   4.510   5.735   8.039 -1.4111 -1.0378 -1.7182
  319MOL0     H43005   4.451   5.907   8.017 -0.0167 -0.3394  0.0891
  319MOL0     H43006   4.718   5.849   7.917  0.5287  2.9434 -2.6044
  319MOL0     H43007   4.643   5.998   7.947  0.9606  1.0652  0.3534
  319MOL0     H43008   4.609   5.949   8.200  0.3375  0.1007  0.0771
  319MOL0     H43009   4.708   5.804   8.170 -0.1280  0.2895 -2.1322
  319MOL0     H43010   4.884   5.969   8.072 -2.8720 -2.0431 -0.7564
  319MOL0     H43011   4.768   6.092   8.084 -1.9772 -1.0758 -0.5206
  319MOL0     H43012   4.896   5.933   8.320  3.2101  0.9064  0.2466
  319MOL0     H43013   4.812   6.089   8.338  0.4729  2.4926  0.6151
  319MOL0     H43014   5.058   6.100   8.354  0.8437 -0.5938 -0.0548
  319MOL0     H43015   5.078   6.032   8.192 -0.9616  0.3676 -0.7356
  319MOL0     H43016   5.022   6.345   8.378 -0.0944 -1.6896 -0.2563
  319MOL0     H43017   5.036   6.644   8.123  4.5224 -1.6902 -2.3876
  319MOL0     H43018   5.008   6.638   8.298 -1.3653  0.3581 -0.1212
  319MOL0     H43019   5.279   6.560   8.171  2.0521 -0.0893  1.9274
  319MOL0     H43020   5.225   6.724   8.203 -1.7779  1.2253  3.5787
  319MOL0     H43021   5.243   6.487   8.414 -1.2176 -0.2373 -0.8995
  319MOL0     H43022   5.175   6.645   8.444  1.1768  0.2480  0.9722
  319MOL0     H43023   5.389   6.642   8.537  3.6477 -2.7203 -0.2691
  319MOL0     H43024   5.384   6.758   8.401  1.0332  0.5292  0.7316
  319MOL0     H43025   5.687   6.465   8.261 -1.1533 -1.4106  0.2914
  319MOL0     H43026   5.929   6.502   8.316 -0.5188 -0.6691 -0.3157
  319MOL0     H43027   6.270   6.801   8.421  0.3014 -0.0927 -0.8414
  319MOL0     H43028   6.495   6.833   8.485 -0.4192  0.8673  0.4753
  319MOL0     H43029   6.756   6.788   8.538  2.2466 -1.0408 -0.0489
  319MOL0     H43030   6.661   6.842   8.687 -1.0797 -1.6344  1.5633
  319MOL0     H43031   6.790   6.698   8.823 -1.5392  1.1873  0.2778
  319MOL0     H43032   6.907   6.678   8.688  0.7406 -0.5665  1.3869
  319MOL0     H43033   6.890   6.961   8.707 -0.0098 -0.2958 -0.8254
  319MOL0     H43034   6.820   6.918   8.860 -1.5133 -0.9139 -0.3073
  319MOL0     H43035   7.087   6.817   8.745  0.0534  0.2751 -0.4925
  319MOL0     H43036   7.025   6.786   8.909  0.2909  0.9301 -0.3888
  319MOL0     H43037   7.163   6.952   8.969 -0.6996 -0.4190  0.3562
  319MOL0     H43038   7.022   7.037   8.942 -1.1691  1.1452 -3.3067
  319MOL0     H43039   7.218   7.015   8.710 -2.1306 -4.4841  0.3893
  319MOL0     H43040   7.089   7.136   8.736 -0.8079  0.4568  1.5496
  319MOL0     H43041   7.346   7.121   8.924  2.2619 -0.4509 -3.0422
  319MOL0     H43042   7.202   7.234   8.922  0.4818  1.8280 -1.3297
  319MOL0     H43043   7.285   7.299   8.697 -3.5928 -0.7659  2.3860
  319MOL0     H43044   7.414   7.323   8.814  4.2728  0.9437 -4.8297
  319MOL0     H43045   6.492   6.441   8.663 -0.6060  0.0090 -0.2919
  319MOL0     H43046   6.250   6.411   8.579 -2.4956  1.5710 -1.9041
  319MOL0     H43047   5.808   6.732   8.655  0.0248  1.3641 -0.9756
  319MOL0     H43048   5.577   6.719   8.586 -1.6030 -1.2590  0.4037
  319MOL0     H43049   4.203   5.475   8.067 -1.5736  2.9529  2.1498
  319MOL0     H43050   3.990   5.330   8.054 -2.3459 -0.3931  0.0538
  319MOL0     H43051   3.460   5.582   8.080  1.7611  0.2783 -0.4584
  319MOL0     H43052   3.238   5.506   8.098  0.3539  1.4546 -3.0569
  319MOL0     H43053   2.974   5.291   8.108 -1.3080 -3.9192 -0.0313
  319MOL0     H43054   3.116   5.332   8.212 -1.8723  1.5900  0.1736
  319MOL0     H43055   3.064   5.045   8.151 -0.4081 -1.1470  1.2848
  319MOL0     H43056   2.960   5.116   8.274 -0.0369 -1.3558 -1.6877
  319MOL0     H43057   3.139   5.179   8.402 -2.0151 -2.6739  0.8602
  319MOL0     H43058   3.262   5.114   8.283  1.5292  0.0518  2.2135
  319MOL0     H43059   3.100   4.901   8.303 -1.0106 -0.6501  1.4412
  319MOL0     H43060   3.235   4.945   8.423  0.3725  1.0724  1.4148
  319MOL0     H43061   2.910   4.916   8.676 -1.9732  0.3095 -1.4685
  319MOL0     H43062   3.360   5.117   7.935 -2.4962 -1.3661  3.6188
  319MOL0     H43063   3.669   5.206   7.803  1.6382  0.6154  1.1435
  319MOL0     H43064   3.701   5.175   7.967 -0.6192 -0.8681  0.8287
  319MOL0     H43065   3.582   5.072   7.885  0.3103  0.2424 -1.0690
  320MOL0     O43066   2.348   3.187   5.350 -0.2858 -0.9352 -0.3360
  320MOL0     C43067   2.294   3.172   5.456  0.1049  0.4567 -0.4622
  320MOL0     O43068   2.358   3.157   5.571  0.3674 -0.0040 -0.3878
  320MOL0     C43069   2.494   3.189   5.591 -0.3443  0.8151 -0.2245
  320MOL0     C43070   2.543   3.314   5.555 -0.0501  0.0048 -0.7959
  320MOL0     C43071   2.674   3.350   5.595 -0.1419  0.6154  0.1873
  320MOL0     C43072   2.763   3.256   5.655 -0.0626  0.8194  1.3298
  320MOL0     O43073   2.897   3.274   5.674  0.1419 -0.7123 -0.1659
  320MOL0     C43074   2.935   3.410   5.703  0.7490 -0.2180  0.4740
  320MOL0     C43075   3.071   3.421   5.772 -0.8563  0.0203 -0.0025
  320MOL0     C43076   3.057   3.372   5.914  0.2078  0.0584  0.5886
  320MOL0     C43077   3.031   3.220   5.935  1.2717  0.8136  0.3551
  320MOL0     C43078   3.074   3.160   6.074  0.4471 -0.3966 -0.1425
  320MOL0     C43079   3.225   3.140   6.084  0.0576  0.4898 -0.2695
  320MOL0     C43080   3.249   3.085   6.232 -0.2273 -0.3717 -0.3320
  320MOL0     C43081   3.389   3.031   6.259 -0.3589 -0.0850 -0.7973
  320MOL0     N43082   3.411   3.038   6.402  0.1535  0.8547 -0.9090
  320MOL0     C43083   3.415   3.151   6.479 -0.4057 -0.4854  0.7998
  320MOL0     C43084   3.454   3.115   6.609  0.4657  0.3163  0.1192
  320MOL0     C43085   3.482   3.205   6.725  0.1032  0.3348  0.7636
  320MOL0     C43086   3.359   3.185   6.826  0.3833 -0.3752  0.0176
  320MOL0     C43087   3.351   3.287   6.936 -0.0356  0.1068 -0.1039
  320MOL0     C43088   3.245   3.245   7.039 -0.0356  0.0456  0.0798
  320MOL0     O43089   3.127   3.187   6.974 -0.0904 -1.1190  0.1321
  320MOL0     C43090   3.011   3.163   7.049  0.3340  0.0834  0.6436
  320MOL0     C43091   3.013   3.148   7.187 -0.3856  0.3153 -0.2161
  320MOL0     C43092   2.889   3.123   7.249 -0.0754  0.0158 -0.7309
  320MOL0     C43093   2.766   3.114   7.182  0.8173  0.3735  0.3062
  320MOL0     C43094   2.643   3.069   7.249  0.1548 -0.8438 -0.0421
  320MOL0     O43095   2.538   3.036   7.163 -0.8314  0.4690 -0.3602
  320MOL0     C43096   2.427   2.983   7.207 -0.4442  0.6754 -0.2113
  320MOL0     C43097   2.318   3.030   7.136  0.0825  0.6777  0.7022
  320MOL0     C43098   2.190   2.995   7.176 -0.2986 -0.2569  0.0104
  320MOL0     C43099   2.168   2.917   7.290  0.8185 -0.1691 -0.6323
  320MOL0     O43100   2.050   2.876   7.347  0.5849  0.3195  0.3275
  320MOL0     C43101   1.933   2.948   7.302 -0.1459 -0.4545 -0.1386
  320MOL0     C43102   1.818   2.870   7.363 -0.1615 -0.4518  0.6804
  320MOL0     C43103   1.692   2.948   7.337  0.2917  0.3506  0.0132
  320MOL0     C43104   1.566   2.861   7.338 -0.3170 -0.5825 -1.1329
  320MOL0     C43105   1.533   2.810   7.202 -0.2292  0.6572  0.2352
  320MOL0     C43106   1.502   2.661   7.193  0.1916  0.2151 -0.4139
  320MOL0     C43107   1.373   2.634   7.273  0.2257  0.0936 -0.2757
  320MOL0     C43108   1.306   2.505   7.236 -0.1598 -0.1472 -0.5169
  320MOL0    Cl43109   1.135   2.514   7.310 -0.1748  0.0629  0.6033
  320MOL0     C43110   2.281   2.871   7.363  0.2050 -0.7405 -0.3054
  320MOL0     C43111   2.408   2.900   7.313 -0.7292 -0.4119 -0.4432
  320MOL0     O43112   2.647   3.056   7.368  0.2045  0.3556 -0.3204
  320MOL0     C43113   2.773   3.123   7.044 -0.9438 -0.0853  0.3956
  320MOL0     C43114   2.892   3.156   6.981 -0.5469  0.9291  0.9885
  320MOL0     N43115   3.461   2.975   6.610 -0.0126  0.4819 -0.6095
  320MOL0     N43116   3.443   2.932   6.486 -0.6149  0.8933  0.1164
  320MOL0     C43117   2.715   3.131   5.681  0.6897  0.2762 -0.5145
  320MOL0     C43118   2.580   3.094   5.656  0.2275  0.3386 -0.2078
  320MOL0     C43119   2.146   3.147   5.453 -0.2914  0.1156  0.0054
  320MOL0     C43120   2.076   3.158   5.340  0.7816  0.3423 -0.4337
  320MOL0     C43121   1.935   3.162   5.343 -0.6078  0.7326  0.2172
  320MOL0     C43122   1.856   3.153   5.460  0.7303 -0.5877  0.7150
  320MOL0     O43123   1.718   3.162   5.471  0.0261  0.2303 -0.6359
  320MOL0     C43124   1.650   3.053   5.398  0.0603 -0.3953  0.7149
  320MOL0     C43125   1.616   2.937   5.479  0.0516  0.2955 -0.2555
  320MOL0     C43126   1.737   2.858   5.545 -0.4426 -0.3483 -0.0395
  320MOL0     C43127   1.694   2.721   5.603 -0.1773  0.1442  0.7768
  320MOL0     C43128   1.802   2.630   5.560  0.8157 -0.0607  0.0331
  320MOL0     C43129   1.893   2.558   5.517 -0.0858 -0.3271  0.9542
  320MOL0     C43130   1.925   3.127   5.576 -0.0217  0.5279 -0.6717
  320MOL0     C43131   2.068   3.126   5.577 -0.3832  0.0095  0.4881
  320MOL0     C43132   2.123   3.110   5.714 -0.0217  0.6179 -0.0291
  320MOL0     H43133   2.488   3.387   5.497 -0.0517 -0.5427 -1.4974
  320MOL0     H43134   2.708   3.448   5.561 -2.1192  1.1491 -0.4409
  320MOL0     H43135   2.933   3.463   5.608 -1.0441 -0.3160  0.4318
  320MOL0     H43136   2.856   3.451   5.767  0.9266 -1.4601  1.5370
  320MOL0     H43137   3.104   3.525   5.770 -0.4775 -0.0557  1.4846
  320MOL0     H43138   3.142   3.363   5.713 -0.9103 -2.4867  2.2109
  320MOL0     H43139   2.980   3.437   5.957  0.4417  1.6875 -1.3226
  320MOL0     H43140   3.153   3.394   5.960  0.3627 -3.0564  2.0608
  320MOL0     H43141   2.923   3.203   5.926  1.1659  0.9990  1.1298
  320MOL0     H43142   3.083   3.171   5.853  1.5900  1.1800  0.3364
  320MOL0     H43143   3.021   3.222   6.147  1.4800 -0.1409  0.4116
  320MOL0     H43144   3.026   3.063   6.092  1.3913 -0.6286  1.2681
  320MOL0     H43145   3.257   3.066   6.009 -0.4856  0.3027 -0.3214
  320MOL0     H43146   3.280   3.233   6.065  0.5252  0.2064 -0.3111
  320MOL0     H43147   3.169   3.013   6.249 -1.5473  1.5146  1.8239
  320MOL0     H43148   3.217   3.168   6.295 -1.2086  0.4355 -1.8323
  320MOL0     H43149   3.407   2.930   6.220  0.3202 -0.1727 -0.2718
  320MOL0     H43150   3.463   3.093   6.207  2.5416 -2.6242 -0.0154
  320MOL0     H43151   3.398   3.251   6.441 -1.6897 -1.1204 -0.3583
  320MOL0     H43152   3.565   3.159   6.779 -2.3034 -3.2145  1.8184
  320MOL0     H43153   3.492   3.306   6.684 -3.9621  0.8711  0.6851
  320MOL0     H43154   3.266   3.205   6.772 -0.3697 -1.0025  1.0427
  320MOL0     H43155   3.359   3.085   6.870 -1.2229  0.1991  1.4402
  320MOL0     H43156   3.331   3.383   6.889  2.1862  0.0977 -1.1890
  320MOL0     H43157   3.446   3.299   6.989 -0.0250  1.5441 -0.3990
  320MOL0     H43158   3.218   3.333   7.098 -0.3403 -1.3079  2.0646
  320MOL0     H43159   3.286   3.165   7.101  0.0674  1.2943  1.6848
  320MOL0     H43160   3.109   3.169   7.232  0.2208  1.4968 -1.9583
  320MOL0     H43161   2.892   3.121   7.358 -1.0952  0.4624 -0.6851
  320MOL0     H43162   2.339   3.091   7.049  3.6741 -1.0411  0.1335
  320MOL0     H43163   2.114   3.035   7.109 -0.9761 -0.9744  0.3227
  320MOL0     H43164   1.937   3.051   7.339 -3.1917  0.6098 -2.3601
  320MOL0     H43165   1.932   2.965   7.194  2.2282  3.0461  0.2358
  320MOL0     H43166   1.813   2.772   7.313  0.2769  0.1479 -0.5739
  320MOL0     H43167   1.829   2.859   7.471 -4.5718 -0.8192  1.2821
  320MOL0     H43168   1.693   3.016   7.423  1.1617 -0.2020  0.4605
  320MOL0     H43169   1.706   3.007   7.246  1.0499  1.6738  0.9565
  320MOL0     H43170   1.484   2.922   7.377  1.0111  0.6401 -0.1784
  320MOL0     H43171   1.574   2.778   7.409 -1.4113  0.3963  0.1882
  320MOL0     H43172   1.620   2.815   7.136  0.1552 -0.4851  0.6263
  320MOL0     H43173   1.454   2.874   7.162 -1.6269  1.0092  3.2504
  320MOL0     H43174   1.481   2.636   7.089  2.5189 -2.9745 -0.2589
  320MOL0     H43175   1.588   2.603   7.227 -1.2671 -0.7837  1.8030
  320MOL0     H43176   1.303   2.711   7.240 -0.9630 -0.3850  1.0550
  320MOL0     H43177   1.384   2.645   7.381 -0.2762 -2.0311  0.0376
  320MOL0     H43178   1.293   2.498   7.128 -0.2754  3.0549 -0.7934
  320MOL0     H43179   1.372   2.422   7.263  3.6160  3.0789  1.1255
  320MOL0     H43180   2.263   2.817   7.455  0.2744 -0.7491 -0.2965
  320MOL0     H43181   2.498   2.867   7.364 -0.4093 -3.1888 -2.6157
  320MOL0     H43182   2.683   3.109   6.985  0.2898 -2.1628 -1.1198
  320MOL0     H43183   2.893   3.151   6.873  4.2877 -1.8674  0.8274
  320MOL0     H43184   2.789   3.063   5.722  1.2647  1.4656  0.5122
  320MOL0     H43185   2.535   2.997   5.678  2.2097 -0.5876 -0.0325
  320MOL0     H43186   2.128   3.162   5.245 -2.1890 -2.8001 -2.4741
  320MOL0     H43187   1.891   3.178   5.245  0.2368  1.4081 -0.0598
  320MOL0     H43188   1.711   3.019   5.314 -0.5182  0.2869  0.0092
  320MOL0     H43189   1.552   3.086   5.363 -0.0289 -3.4451 -2.3336
  320MOL0     H43190   1.567   2.867   5.411  0.1540 -0.1114  0.0839
  320MOL0     H43191   1.541   2.968   5.553  0.1443 -0.1742  0.0429
  320MOL0     H43192   1.782   2.918   5.625  0.0060  1.9055 -1.8877
  320MOL0     H43193   1.818   2.853   5.472  0.8917 -0.7561  1.4060
  320MOL0     H43194   1.688   2.734   5.712  1.2795 -0.8295  1.0029
  320MOL0     H43195   1.604   2.671   5.566  0.5922 -2.3976  2.0638
  320MOL0     H43196   1.988   2.521   5.483 -0.3236 -1.5112  1.5193
  320MOL0     H43197   1.877   3.113   5.672  1.7287  1.5622  0.4192
  320MOL0     H43198   2.176   3.203   5.737 -1.0726  0.7086  2.2893
  320MOL0     H43199   2.051   3.079   5.790 -0.1412  1.2023  0.0986
  320MOL0     H43200   2.196   3.030   5.728  0.5432  1.1804  0.2747
  321MOL0     O43201   1.503   5.564   1.277  0.9774  0.3641  0.0451
  321MOL0     C43202   1.469   5.562   1.158  0.4754 -0.6498 -0.3658
  321MOL0     O43203   1.546   5.612   1.057  0.4041 -0.2658  1.2031
  321MOL0     C43204   1.681   5.645   1.080 -0.1344 -0.3762 -0.2135
  321MOL0     C43205   1.795   5.562   1.047 -0.1959  0.0338  0.1396
  321MOL0     C43206   1.924   5.612   1.055 -0.8682 -0.5582 -0.8969
  321MOL0     C43207   1.952   5.737   1.112  0.1570  0.0541  1.1006
  321MOL0     O43208   2.085   5.781   1.108  0.4585  0.1527  0.7851
  321MOL0     C43209   2.116   5.925   1.138 -0.2721 -0.6640 -0.2237
  321MOL0     C43210   2.255   5.955   1.079 -0.1936  0.0080  1.0048
  321MOL0     C43211   2.370   5.899   1.167  0.0616  0.7747  0.1404
  321MOL0     C43212   2.503   5.941   1.105 -0.2240  0.6581 -0.6751
  321MOL0     C43213   2.610   5.851   1.165  0.6194 -0.2050  0.1918
  321MOL0     C43214   2.729   5.859   1.071 -0.3606 -0.0811  0.5916
  321MOL0     C43215   2.857   5.811   1.153 -0.2231 -0.2651 -0.5799
  321MOL0     C43216   2.909   5.913   1.251  0.4656 -0.4009 -0.1116
  321MOL0     N43217   3.055   5.908   1.266 -0.4733  0.1839 -0.2909
  321MOL0     C43218   3.118   5.817   1.345 -0.0427  0.1461  0.3212
  321MOL0     C43219   3.244   5.859   1.345  0.0780 -1.1071 -0.1834
  321MOL0     C43220   3.355   5.799   1.423 -0.2324  0.1736 -0.2214
  321MOL0     C43221   3.444   5.705   1.339  0.2357  0.2929  0.5753
  321MOL0     C43222   3.545   5.635   1.425 -0.1733 -0.3927 -0.2566
  321MOL0     C43223   3.645   5.554   1.339  0.7672 -0.2337  0.3214
  321MOL0     O43224   3.724   5.628   1.239  0.3683  0.0464  0.3350
  321MOL0     C43225   3.852   5.680   1.273 -0.1979 -0.1777  0.4138
  321MOL0     C43226   3.868   5.808   1.326  0.4502  0.1250  0.6963
  321MOL0     C43227   3.989   5.857   1.366 -0.0359  0.1475  0.3748
  321MOL0     C43228   4.103   5.778   1.360 -0.4335 -0.4471 -0.0554
  321MOL0     C43229   4.233   5.831   1.417  0.2847  0.4344  0.3988
  321MOL0     O43230   4.222   5.945   1.481  0.3317  0.2711 -0.3523
  321MOL0     C43231   4.329   6.039   1.499 -0.4805  0.2874 -0.1357
  321MOL0     C43232   4.340   6.164   1.439  0.0072  0.2313  0.7568
  321MOL0     C43233   4.442   6.245   1.478  0.2052  0.2937 -0.2341
  321MOL0     C43234   4.546   6.202   1.554 -0.2240  0.5547 -0.4479
  321MOL0     O43235   4.643   6.290   1.552 -0.2562 -0.0883  0.1822
  321MOL0     C43236   4.753   6.260   1.632 -0.1887  0.4837  0.0641
  321MOL0     C43237   4.853   6.368   1.601  1.5754 -0.3342 -0.6108
  321MOL0     C43238   4.973   6.354   1.694  0.4171 -0.3119  0.0942
  321MOL0     C43239   5.063   6.478   1.677  0.2149  0.4481  0.3135
  321MOL0     C43240   5.186   6.480   1.779 -0.6275 -0.2126  0.6925
  321MOL0     C43241   5.302   6.382   1.758 -0.5179  0.2065 -0.2954
  321MOL0     C43242   5.418   6.410   1.856  0.2878  0.3273  0.6247
  321MOL0     C43243   5.497   6.278   1.881  0.2735 -0.0927  0.6859
  321MOL0    Cl43244   5.640   6.294   1.993 -0.1329  0.1238 -0.1287
  321MOL0     C43245   4.541   6.072   1.613 -0.3896 -0.3160 -0.5651
  321MOL0     C43246   4.426   5.991   1.586  0.4478 -0.4538  0.4049
  321MOL0     O43247   4.337   5.780   1.373  0.1753  0.5029  0.2228
  321MOL0     C43248   4.095   5.646   1.302  1.4909  0.4119 -0.3376
  321MOL0     C43249   3.968   5.601   1.257 -0.2943  0.4210 -0.4927
  321MOL0     N43250   3.257   5.965   1.258 -0.3515  0.0321 -0.6933
  321MOL0     N43251   3.138   6.003   1.218  0.0862  0.2301  0.7656
  321MOL0     C43252   1.842   5.815   1.155 -0.1311  0.0558 -0.4306
  321MOL0     C43253   1.707   5.773   1.132  0.3404 -0.6022 -0.0325
  321MOL0     C43254   1.335   5.515   1.125  0.4042  0.2631 -0.6169
  321MOL0     C43255   1.221   5.567   1.200  0.0725 -1.2869  0.6819
  321MOL0     C43256   1.096   5.525   1.169 -0.2114  0.3925  0.4294
  321MOL0     C43257   1.071   5.427   1.071 -0.3074 -0.3383 -0.6778
  321MOL0     O43258   0.943   5.379   1.063 -0.5565  0.5087  0.1145
  321MOL0     C43259   0.912   5.277   0.964 -0.4703  0.1591 -0.2491
  321MOL0     C43260   0.771   5.281   0.934  0.4541 -0.2492 -0.3257
  321MOL0     C43261   0.677   5.252   1.055 -0.4841  0.6257  0.2507
  321MOL0     C43262   0.682   5.103   1.095  0.5130  0.6089  0.0329
  321MOL0     C43263   0.587   5.082   1.203  0.2160 -1.1516  0.3301
  321MOL0     C43264   0.524   5.070   1.307  0.2781  0.0951  0.7211
  321MOL0     C43265   1.181   5.378   1.002  0.8830 -0.6627  0.2161
  321MOL0     C43266   1.313   5.414   1.027  0.1871 -1.1827 -0.2970
  321MOL0     C43267   1.423   5.334   0.972 -1.1187  0.2604 -0.9119
  321MOL0     H43268   1.784   5.464   1.002  0.8421  0.8969 -2.1903
  321MOL0     H43269   2.004   5.545   1.026 -1.7162 -2.5117  0.9441
  321MOL0     H43270   2.033   5.985   1.101 -0.6384 -0.9858  0.0684
  321MOL0     H43271   2.130   5.954   1.242 -1.7457  2.5159 -0.7925
  321MOL0     H43272   2.251   6.064   1.072 -0.6764 -0.1103 -1.4696
  321MOL0     H43273   2.256   5.910   0.980 -2.9721  1.0044  0.4222
  321MOL0     H43274   2.369   5.789   1.162  0.7109  0.8183 -2.0368
  321MOL0     H43275   2.362   5.923   1.273 -0.0525 -2.6980  1.0402
  321MOL0     H43276   2.489   5.924   0.997 -1.6744 -0.9660 -0.2728
  321MOL0     H43277   2.532   6.045   1.124 -0.3010  0.1779  2.5353
  321MOL0     H43278   2.635   5.893   1.263 -0.3321  1.6938 -0.3340
  321MOL0     H43279   2.576   5.749   1.184 -0.7925  0.2844  0.3831
  321MOL0     H43280   2.722   5.799   0.979  1.5988 -0.4831  0.6681
  321MOL0     H43281   2.739   5.960   1.030  0.2614 -0.3002  0.1916
  321MOL0     H43282   2.933   5.782   1.080 -0.2814 -0.3482 -0.6075
  321MOL0     H43283   2.834   5.721   1.210 -0.3957 -1.2461 -2.1453
  321MOL0     H43284   2.888   6.014   1.213 -0.4701  0.9069  3.4458
  321MOL0     H43285   2.866   5.890   1.348  2.6119 -1.8657  0.5599
  321MOL0     H43286   3.069   5.739   1.403  1.7891 -0.5278  1.0193
  321MOL0     H43287   3.423   5.876   1.460 -0.0774 -0.2408  0.3665
  321MOL0     H43288   3.307   5.747   1.506  0.1463  2.0977  1.2997
  321MOL0     H43289   3.387   5.630   1.283 -0.2139 -0.2610  1.7251
  321MOL0     H43290   3.504   5.757   1.265  0.7604  0.1459  0.8951
  321MOL0     H43291   3.493   5.573   1.498  0.7214  1.4881  2.1233
  321MOL0     H43292   3.602   5.713   1.476  1.8130 -0.0150 -2.8133
  321MOL0     H43293   3.582   5.480   1.290  0.4899 -1.1821  2.0162
  321MOL0     H43294   3.711   5.501   1.409 -0.7427  0.5067  2.4074
  321MOL0     H43295   3.781   5.872   1.333  1.0162  1.2365 -1.5490
  321MOL0     H43296   4.003   5.956   1.409 -1.1466 -0.2645  1.7690
  321MOL0     H43297   4.271   6.200   1.363  2.1865  0.4724 -1.2227
  321MOL0     H43298   4.432   6.344   1.434  0.8175  1.3414  1.8117
  321MOL0     H43299   4.725   6.240   1.735  0.8988  1.5577  0.6047
  321MOL0     H43300   4.803   6.166   1.606  0.6479  0.9235  0.0164
  321MOL0     H43301   4.893   6.368   1.499  0.4751  1.9719 -1.1089
  321MOL0     H43302   4.802   6.464   1.612 -2.3176 -2.3030  0.5859
  321MOL0     H43303   4.941   6.362   1.798  0.6779  1.1978  0.0834
  321MOL0     H43304   5.025   6.262   1.665 -2.0530 -2.2700  1.3513
  321MOL0     H43305   4.998   6.563   1.699 -0.4000  0.2290 -0.6057
  321MOL0     H43306   5.098   6.490   1.573 -1.3532 -0.4694 -0.3571
  321MOL0     H43307   5.146   6.460   1.879 -0.1733  2.4212  1.4637
  321MOL0     H43308   5.230   6.580   1.785 -0.5689  0.1452 -3.4165
  321MOL0     H43309   5.267   6.278   1.765  1.2707 -0.3866  0.5341
  321MOL0     H43310   5.340   6.393   1.656 -0.3717  2.1840 -0.0707
  321MOL0     H43311   5.371   6.443   1.949  0.6925 -0.6467  1.1920
  321MOL0     H43312   5.490   6.483   1.817 -1.2799  0.6205 -1.9406
  321MOL0     H43313   5.428   6.203   1.922  0.9165 -0.0654  1.8801
  321MOL0     H43314   5.524   6.243   1.781  1.4454  2.0781  0.1830
  321MOL0     H43315   4.612   6.017   1.672 -1.5013  0.6461  1.8031
  321MOL0     H43316   4.404   5.892   1.622  1.2101 -0.4537  0.8963
  321MOL0     H43317   4.176   5.573   1.294  1.1149 -0.6515  3.3598
  321MOL0     H43318   3.962   5.496   1.230  0.8362 -0.8597  3.5150
  321MOL0     H43319   1.856   5.912   1.202 -2.6495 -0.8976  2.6755
  321MOL0     H43320   1.626   5.840   1.158 -1.3236 -0.9073 -3.7362
  321MOL0     H43321   1.251   5.644   1.270 -0.0319  0.9805 -1.6403
  321MOL0     H43322   1.007   5.571   1.211 -0.2467  0.3572  0.3925
  321MOL0     H43323   0.942   5.178   0.996  1.5994  0.9302  0.3301
  321MOL0     H43324   0.960   5.300   0.868 -0.7632  0.3032 -0.3649
  321MOL0     H43325   0.753   5.201   0.862  1.0062  1.0180 -1.9430
  321MOL0     H43326   0.745   5.378   0.891  0.6204  0.4081  0.9812
  321MOL0     H43327   0.575   5.286   1.038  0.3859  3.3054 -0.1392
  321MOL0     H43328   0.713   5.314   1.138 -1.0213  0.7629  0.3831
  321MOL0     H43329   0.643   5.045   1.011 -0.2675  1.3879 -0.1622
  321MOL0     H43330   0.780   5.063   1.123  0.6956  1.7525  1.1167
  321MOL0     H43331   0.469   5.076   1.399 -1.8982  2.1775 -0.6053
  321MOL0     H43332   1.153   5.309   0.923 -0.8497  0.9667 -0.6814
  321MOL0     H43333   1.383   5.240   0.933 -2.6195  0.3059  0.3946
  321MOL0     H43334   1.477   5.396   0.900 -0.6996  2.6318  1.2839
  321MOL0     H43335   1.501   5.300   1.040  2.4588  0.0289 -4.7160
  322MOL0     O43336  10.201   8.058   4.623  0.3526 -0.1630  0.7634
  322MOL0     C43337  10.155   8.138   4.542 -0.3302 -0.7461 -0.3323
  322MOL0     O43338  10.227   8.212   4.455 -0.4592 -0.2755 -0.1537
  322MOL0     C43339  10.361   8.223   4.484  0.4853 -0.4810  0.1316
  322MOL0     C43340  10.456   8.164   4.401 -0.1038  0.2353 -0.7094
  322MOL0     C43341  10.591   8.177   4.424 -0.1747  0.0546 -0.0326
  322MOL0     C43342  10.637   8.246   4.538 -0.1514 -0.4961  0.5854
  322MOL0     O43343  10.767   8.244   4.565  0.3641  0.3088 -0.1257
  322MOL0     C43344  10.831   8.371   4.583 -0.3065  0.6768 -0.6998
  322MOL0     C43345  10.985   8.361   4.576  0.3087  0.4137 -0.1879
  322MOL0     C43346  11.060   8.493   4.593  0.1445 -0.8875 -0.3432
  322MOL0     C43347  11.211   8.466   4.596  0.7930 -0.3918 -0.5461
  322MOL0     C43348  11.295   8.592   4.618  0.0289  0.1112 -0.1894
  322MOL0     C43349  11.449   8.565   4.625 -0.1206  0.3289 -0.5479
  322MOL0     C43350  11.529   8.698   4.629  0.2181  0.1888 -1.3383
  322MOL0     C43351  11.640   8.706   4.745  0.2932 -0.3103 -0.0957
  322MOL0     N43352  11.737   8.594   4.745  0.2997 -0.8237 -0.3694
  322MOL0     C43353  11.845   8.584   4.661 -0.6371 -0.0568 -0.4177
  322MOL0     C43354  11.890   8.461   4.705 -0.1268  0.3915 -0.7967
  322MOL0     C43355  12.008   8.380   4.657 -1.0455 -0.1667 -0.7996
  322MOL0     C43356  12.145   8.430   4.685 -0.8127 -0.4794 -0.7668
  322MOL0     C43357  12.166   8.557   4.602 -0.5473 -0.2835 -0.2818
  322MOL0     C43358  12.307   8.608   4.612 -1.1029  0.2758 -0.9507
  322MOL0     O43359  12.325   8.659   4.741 -0.0455 -0.3231 -0.0210
  322MOL0     C43360  12.445   8.711   4.780  0.1476  0.0463  0.7997
  322MOL0     C43361  12.477   8.732   4.912 -0.2048  0.1334 -0.0928
  322MOL0     C43362  12.606   8.774   4.958  0.1536  0.2047 -0.2909
  322MOL0     C43363  12.709   8.791   4.857  0.5957  0.2104 -0.5686
  322MOL0     C43364  12.850   8.812   4.905  0.0211 -0.7290 -0.6068
  322MOL0     O43365  12.865   8.843   5.039  0.0998 -0.2437  0.2589
  322MOL0     C43366  12.986   8.845   5.098 -0.9651 -0.1906 -0.2777
  322MOL0     C43367  13.011   8.953   5.178  0.6557 -0.7765 -0.4013
  322MOL0     C43368  13.127   8.968   5.249  0.0594 -0.1191  0.7390
  322MOL0     C43369  13.235   8.882   5.220 -0.6307 -0.3687 -0.3366
  322MOL0     O43370  13.343   8.908   5.299 -0.0155 -0.7862 -0.2538
  322MOL0     C43371  13.469   8.917   5.231  0.2067  0.0869  0.3082
  322MOL0     C43372  13.573   8.954   5.332 -0.2976  0.3553 -0.1893
  322MOL0     C43373  13.714   8.949   5.286  0.0128 -0.0707  0.6042
  322MOL0     C43374  13.818   8.963   5.394 -0.1026  0.7429  0.9560
  322MOL0     C43375  13.954   8.963   5.331  0.4305 -0.5249  0.3228
  322MOL0     C43376  14.061   8.975   5.433  0.1370  0.3968  0.2945
  322MOL0     C43377  14.197   8.977   5.362 -0.6594  0.0450 -0.7468
  322MOL0     C43378  14.308   8.997   5.463  0.1506 -0.1097  0.2228
  322MOL0    Cl43379  14.469   9.008   5.396 -0.1161 -0.4441  0.0745
  322MOL0     C43380  13.215   8.772   5.138 -0.6651  0.4534 -0.3239
  322MOL0     C43381  13.093   8.753   5.078  0.2487 -0.1752 -0.4109
  322MOL0     O43382  12.941   8.784   4.824  0.1463  0.0800 -0.2744
  322MOL0     C43383  12.673   8.768   4.719  0.2631 -0.3378  0.3736
  322MOL0     C43384  12.543   8.735   4.683  0.4871  0.3885 -1.0716
  322MOL0     N43385  11.810   8.410   4.808 -0.4945 -0.2954 -0.4144
  322MOL0     N43386  11.723   8.498   4.838 -0.0874 -0.0062 -0.7324
  322MOL0     C43387  10.547   8.316   4.618  0.0126 -0.0290 -0.1315
  322MOL0     C43388  10.409   8.310   4.586 -0.7394 -0.3038 -0.9062
  322MOL0     C43389  10.003   8.129   4.543  0.0022  0.6373 -0.5637
  322MOL0     C43390   9.937   8.030   4.624 -0.2706 -0.3482 -1.0258
  322MOL0     C43391   9.803   8.013   4.622 -0.1020  0.9753  0.2135
  322MOL0     C43392   9.723   8.091   4.545  0.1852 -0.2506  0.1657
  322MOL0     O43393   9.594   8.052   4.536  0.1609 -0.4337  0.2542
  322MOL0     C43394   9.543   8.017   4.401 -0.3246 -0.1201  0.7449
  322MOL0     C43395   9.423   7.923   4.407  0.0707  0.3973 -0.2094
  322MOL0     C43396   9.453   7.785   4.476  0.1381  0.0178  0.8861
  322MOL0     C43397   9.399   7.791   4.620  0.5521 -0.2019 -0.1047
  322MOL0     C43398   9.437   7.665   4.684  0.1108 -0.4214  0.4642
  322MOL0     C43399   9.456   7.557   4.726 -0.4047  0.6695 -0.3223
  322MOL0     C43400   9.782   8.179   4.458  0.0775 -0.7809  0.1899
  322MOL0     C43401   9.920   8.201   4.451  0.1986 -0.4494  0.7449
  322MOL0     C43402   9.963   8.305   4.342  0.6108  1.0964  0.5716
  322MOL0     H43403  10.427   8.105   4.315 -1.7963 -0.2624  0.1447
  322MOL0     H43404  10.653   8.121   4.355 -0.8312  0.1085 -0.6667
  322MOL0     H43405  10.811   8.446   4.506 -0.9614  2.9035  1.4705
  322MOL0     H43406  10.806   8.409   4.683  2.1350 -1.0738  0.7079
  322MOL0     H43407  11.011   8.316   4.479 -2.4388  0.3372 -0.9754
  322MOL0     H43408  11.020   8.292   4.653 -0.0533 -2.0157 -2.0816
  322MOL0     H43409  11.039   8.546   4.687  0.1552  2.2689 -1.9810
  322MOL0     H43410  11.023   8.563   4.518 -2.2512 -0.4998  1.1040
  322MOL0     H43411  11.229   8.394   4.676  0.5690 -1.0098 -1.0424
  322MOL0     H43412  11.236   8.413   4.504 -1.7584 -3.7732  0.5180
  322MOL0     H43413  11.287   8.653   4.528  1.6379  1.4618  0.5266
  322MOL0     H43414  11.254   8.652   4.700  0.5772 -0.4936  0.5388
  322MOL0     H43415  11.475   8.500   4.708 -0.5421  0.3261 -0.4158
  322MOL0     H43416  11.482   8.511   4.536  1.2446  1.4130 -0.7262
  322MOL0     H43417  11.466   8.787   4.635 -0.8572 -0.5809 -0.7227
  322MOL0     H43418  11.580   8.707   4.533 -0.1761  0.6118 -1.5097
  322MOL0     H43419  11.693   8.801   4.736  0.3710 -0.0325  2.7054
  322MOL0     H43420  11.588   8.714   4.840 -1.0193  0.0057 -0.8207
  322MOL0     H43421  11.886   8.645   4.582  0.1412 -0.0665 -0.0318
  322MOL0     H43422  12.007   8.280   4.700 -1.9084  1.0228  2.2151
  322MOL0     H43423  11.995   8.363   4.550  0.0125 -0.5029 -0.8905
  322MOL0     H43424  12.153   8.464   4.788  0.4677 -0.9393 -0.6939
  322MOL0     H43425  12.220   8.354   4.660  0.9063  1.1980 -1.0086
  322MOL0     H43426  12.091   8.630   4.632  0.2549  0.7515 -0.7381
  322MOL0     H43427  12.155   8.523   4.498 -1.6454 -1.3952  0.1724
  322MOL0     H43428  12.330   8.675   4.529 -1.7160  0.4118 -1.0143
  322MOL0     H43429  12.379   8.526   4.607  0.2346  1.1007  2.4366
  322MOL0     H43430  12.414   8.703   4.995  0.4686 -1.0978  0.0068
  322MOL0     H43431  12.624   8.783   5.064 -0.6363  1.0277 -0.2163
  322MOL0     H43432  12.933   9.021   5.208  0.2616 -1.2432 -0.3452
  322MOL0     H43433  13.134   9.057   5.311  2.0486  0.4452 -0.1976
  322MOL0     H43434  13.499   8.820   5.191  2.2500  0.0832  1.7139
  322MOL0     H43435  13.458   8.994   5.154  0.2219  1.2874  1.4611
  322MOL0     H43436  13.551   9.059   5.355  0.4886 -0.0603  2.7412
  322MOL0     H43437  13.559   8.895   5.423  1.0693 -1.6712 -1.2261
  322MOL0     H43438  13.732   8.855   5.233  1.8779  0.4294  0.2875
  322MOL0     H43439  13.727   9.028   5.212 -0.0739  0.9365  1.6405
  322MOL0     H43440  13.809   8.888   5.472  0.1817 -0.0818  0.2182
  322MOL0     H43441  13.798   9.054   5.451 -2.4242  0.9870 -0.1474
  322MOL0     H43442  13.964   9.045   5.260  2.3364 -0.8669  0.1517
  322MOL0     H43443  13.978   8.870   5.278 -0.1030 -0.3672 -0.2038
  322MOL0     H43444  14.053   9.065   5.494  2.2319  0.5587  0.4186
  322MOL0     H43445  14.072   8.883   5.491 -1.6353 -0.5674 -0.8078
  322MOL0     H43446  14.206   9.062   5.294 -0.5956  1.0189  0.4365
  322MOL0     H43447  14.211   8.891   5.295  2.9504 -0.0794 -0.0300
  322MOL0     H43448  14.295   9.084   5.528  1.6429  0.3409 -0.0264
  322MOL0     H43449  14.310   8.904   5.521 -1.8340 -1.3645 -1.5723
  322MOL0     H43450  13.294   8.698   5.142 -0.2315  0.7674 -2.0823
  322MOL0     H43451  13.060   8.674   5.011  1.3610  0.0431 -1.2388
  322MOL0     H43452  12.758   8.762   4.652  1.6725  0.6674  1.9759
  322MOL0     H43453  12.519   8.726   4.577 -2.2136  1.2528 -0.6279
  322MOL0     H43454  10.577   8.366   4.710  0.2703 -4.0813  2.2002
  322MOL0     H43455  10.354   8.350   4.670  3.7433 -2.6559  3.6940
  322MOL0     H43456   9.994   7.965   4.690 -0.0009  1.4620  0.6329
  322MOL0     H43457   9.754   7.931   4.673  0.9363  0.1229 -0.1347
  322MOL0     H43458   9.620   7.977   4.334  0.7742  2.2763  0.4620
  322MOL0     H43459   9.511   8.110   4.353 -2.4824 -0.9004  0.5593
  322MOL0     H43460   9.390   7.902   4.305 -2.1493 -2.3453  0.9192
  322MOL0     H43461   9.336   7.972   4.451 -0.0079  2.1175 -2.1516
  322MOL0     H43462   9.556   7.749   4.470 -0.8495 -2.9141 -0.0100
  322MOL0     H43463   9.391   7.715   4.419 -3.3804  1.8293  2.1506
  322MOL0     H43464   9.443   7.877   4.672 -2.0377  0.3656  1.3118
  322MOL0     H43465   9.290   7.795   4.627  0.2663 -3.5700 -1.1491
  322MOL0     H43466   9.460   7.465   4.780 -0.5582  0.3344 -0.8662
  322MOL0     H43467   9.712   8.222   4.387 -0.4083 -0.6277  0.7505
  322MOL0     H43468  10.010   8.387   4.397 -1.3644  0.9440  2.6346
  322MOL0     H43469  10.035   8.259   4.273 -1.1068  0.1445 -0.6573
  322MOL0     H43470   9.880   8.345   4.283  1.7801  1.6420 -0.7564
  323MOL0     O43471   3.097   2.219   7.009 -0.3159 -0.4098  0.4779
  323MOL0     C43472   3.043   2.123   6.953  0.0685 -0.0029 -0.1614
  323MOL0     O43473   3.104   2.018   6.903  0.2126  0.5832 -0.0089
  323MOL0     C43474   3.203   1.964   6.980 -0.5713  0.6837  0.0881
  323MOL0     C43475   3.165   1.851   7.061  0.5497  0.3762  0.7856
  323MOL0     C43476   3.256   1.778   7.144 -0.2847  0.3164  0.6310
  323MOL0     C43477   3.391   1.822   7.136  0.2605  0.1828  0.6499
  323MOL0     O43478   3.503   1.766   7.194 -0.0813  0.2505  0.1295
  323MOL0     C43479   3.497   1.665   7.294  0.1796 -0.4986  0.2459
  323MOL0     C43480   3.447   1.730   7.421  0.5922  0.3771 -0.4273
  323MOL0     C43481   3.432   1.625   7.532  0.6617  0.4733  0.1795
  323MOL0     C43482   3.384   1.678   7.674  0.7642  1.0672 -0.0757
  323MOL0     C43483   3.397   1.583   7.792 -0.7828  0.1608  0.8826
  323MOL0     C43484   3.308   1.454   7.804 -0.3678 -0.3536  0.1091
  323MOL0     C43485   3.329   1.386   7.941 -0.7726 -0.3588 -0.2409
  323MOL0     C43486   3.242   1.436   8.055 -0.3486 -0.0876  0.1241
  323MOL0     N43487   3.102   1.394   8.042 -0.1524  0.0730  0.9788
  323MOL0     C43488   2.992   1.483   8.063 -0.5805  0.2608 -0.4343
  323MOL0     C43489   2.892   1.401   8.042  0.5313  0.2777 -0.1326
  323MOL0     C43490   2.746   1.440   8.063 -0.1189  0.7783  0.2359
  323MOL0     C43491   2.687   1.448   7.923  0.4518  0.3662  0.8701
  323MOL0     C43492   2.567   1.529   7.907 -0.4778 -0.0860 -0.2572
  323MOL0     C43493   2.457   1.490   7.997  0.4914  0.1891 -0.7918
  323MOL0     O43494   2.336   1.529   7.933  0.1360  0.2600 -0.5833
  323MOL0     C43495   2.224   1.455   7.959 -0.7577  0.5876  0.6206
  323MOL0     C43496   2.125   1.447   7.858 -0.2011 -0.2398  0.3847
  323MOL0     C43497   2.005   1.379   7.883 -0.3535 -0.1283 -0.1639
  323MOL0     C43498   1.978   1.332   8.011 -0.1633  0.2940  0.1682
  323MOL0     C43499   1.851   1.269   8.049  0.7506  0.5170 -0.4929
  323MOL0     O43500   1.743   1.283   7.959  0.3795  0.4177  0.0916
  323MOL0     C43501   1.623   1.216   7.972  0.5360 -0.3064  0.2123
  323MOL0     C43502   1.568   1.144   7.863 -0.1299  0.2723  0.9402
  323MOL0     C43503   1.442   1.084   7.880  0.2256  0.1087 -0.2091
  323MOL0     C43504   1.375   1.072   8.000  0.3659 -0.2120 -1.0305
  323MOL0     O43505   1.241   1.027   8.006  0.6488 -0.1917  0.2423
  323MOL0     C43506   1.216   0.892   7.960  0.2667  0.1715 -0.5324
  323MOL0     C43507   1.069   0.853   7.991 -0.0725 -0.0679 -0.8023
  323MOL0     C43508   0.969   0.931   7.918 -0.5332  0.0788  0.4834
  323MOL0     C43509   0.843   0.849   7.915  0.1695 -0.6472  1.2231
  323MOL0     C43510   0.716   0.924   7.855  0.1827 -0.4961 -0.5714
  323MOL0     C43511   0.595   0.826   7.839 -0.5060  0.1939 -0.4612
  323MOL0     C43512   0.460   0.898   7.831 -0.5412  0.2388  0.4237
  323MOL0     C43513   0.343   0.797   7.797 -0.2212 -0.6519 -0.4719
  323MOL0    Cl43514   0.331   0.656   7.907 -0.2417  0.2299  0.2772
  323MOL0     C43515   1.423   1.141   8.104 -0.7940  0.4338  0.2926
  323MOL0     C43516   1.547   1.211   8.090 -0.9953  0.6398  0.7415
  323MOL0     O43517   1.841   1.221   8.160 -0.5001 -0.7150 -0.3672
  323MOL0     C43518   2.081   1.337   8.107 -0.1220  0.3122  0.3747
  323MOL0     C43519   2.205   1.399   8.084 -0.9842  0.2163  0.2774
  323MOL0     N43520   2.930   1.271   8.002 -0.5514 -0.0803 -0.1783
  323MOL0     N43521   3.057   1.268   8.006 -0.7680  0.2168 -0.7261
  323MOL0     C43522   3.426   1.931   7.058 -0.0425  0.1025 -0.1868
  323MOL0     C43523   3.335   2.005   6.986  0.8094  0.5034  0.1564
  323MOL0     C43524   2.900   2.150   6.908  0.2597  0.2658  0.1413
  323MOL0     C43525   2.833   2.033   6.871  0.5898  0.5250 -0.1477
  323MOL0     C43526   2.708   2.040   6.805 -0.8920  0.3964 -0.4057
  323MOL0     C43527   2.654   2.163   6.765 -0.4446  0.0404 -0.3896
  323MOL0     O43528   2.526   2.180   6.718  0.1612  0.4760 -0.1187
  323MOL0     C43529   2.466   2.090   6.630  0.2232  0.4966  0.0263
  323MOL0     C43530   2.314   2.129   6.637 -0.0497 -0.2722 -0.2516
  323MOL0     C43531   2.294   2.271   6.585 -1.2162 -0.0962 -0.7650
  323MOL0     C43532   2.153   2.318   6.577  0.7221 -0.3023  0.8210
  323MOL0     C43533   2.077   2.253   6.463  0.0236 -0.2463 -0.1323
  323MOL0     C43534   2.009   2.215   6.368 -0.0036  0.6254  0.6822
  323MOL0     C43535   2.723   2.273   6.809  0.4608  0.0047  0.0869
  323MOL0     C43536   2.846   2.267   6.873  0.6434 -0.4163  0.2264
  323MOL0     C43537   2.910   2.400   6.898  0.2073 -0.2560 -0.0204
  323MOL0     H43538   3.062   1.821   7.074  0.9101 -0.2951  2.2995
  323MOL0     H43539   3.234   1.690   7.204  0.0065 -1.3416 -1.6131
  323MOL0     H43540   3.441   1.580   7.255  2.7744 -1.2871 -2.0167
  323MOL0     H43541   3.600   1.632   7.311  0.8268  0.8962 -0.8078
  323MOL0     H43542   3.344   1.763   7.404 -1.6183 -2.8606  4.2931
  323MOL0     H43543   3.520   1.806   7.449 -0.9483  2.5131 -1.8627
  323MOL0     H43544   3.530   1.575   7.541  0.9783  0.6590 -1.8844
  323MOL0     H43545   3.362   1.548   7.500  2.2261 -1.1597  0.4890
  323MOL0     H43546   3.457   1.756   7.700  0.7523  0.2887  2.6248
  323MOL0     H43547   3.286   1.727   7.674  0.8456  1.2527  0.8226
  323MOL0     H43548   3.501   1.549   7.789  0.6362  4.0802 -0.9891
  323MOL0     H43549   3.382   1.644   7.881  1.9769 -0.1171  1.6512
  323MOL0     H43550   3.205   1.454   7.767  0.4079  0.5338 -2.2524
  323MOL0     H43551   3.360   1.388   7.733  1.4041 -0.0537  1.0749
  323MOL0     H43552   3.432   1.406   7.973 -0.5949 -0.7201 -0.5858
  323MOL0     H43553   3.321   1.278   7.931  3.0195 -1.0734  2.4510
  323MOL0     H43554   3.273   1.386   8.147 -1.3989 -2.1914 -0.6046
  323MOL0     H43555   3.249   1.545   8.062 -1.0084 -0.1142  1.5382
  323MOL0     H43556   2.989   1.590   8.083 -1.5086  0.1441  0.1110
  323MOL0     H43557   2.696   1.364   8.124  1.4498  1.2880  2.2579
  323MOL0     H43558   2.747   1.541   8.105 -2.5857  0.4892  1.1896
  323MOL0     H43559   2.760   1.496   7.857 -0.5681  0.4335 -0.2373
  323MOL0     H43560   2.658   1.349   7.885  1.9563 -0.4086  1.6356
  323MOL0     H43561   2.536   1.533   7.802  2.9092 -0.5806 -1.3921
  323MOL0     H43562   2.598   1.631   7.935  3.5860 -1.0245 -0.7394
  323MOL0     H43563   2.472   1.550   8.087  0.9428 -1.2188  0.1002
  323MOL0     H43564   2.466   1.382   8.013  0.0381  0.2579 -0.0389
  323MOL0     H43565   2.136   1.484   7.757 -3.9744  0.1200 -0.0211
  323MOL0     H43566   1.921   1.375   7.814 -0.5392 -0.7933  0.0976
  323MOL0     H43567   1.616   1.144   7.766 -2.8062 -0.9711 -0.5013
  323MOL0     H43568   1.390   1.042   7.795  1.5964  0.0049 -1.0223
  323MOL0     H43569   1.232   0.872   7.853 -1.3510 -2.0573 -0.4424
  323MOL0     H43570   1.280   0.819   8.010  0.5250 -0.5102 -1.8089
  323MOL0     H43571   1.057   0.749   7.958 -2.7315  0.6757 -2.5642
  323MOL0     H43572   1.066   0.864   8.099  2.7771  0.9692 -0.7495
  323MOL0     H43573   0.960   1.026   7.972 -0.1019  0.6394 -0.4055
  323MOL0     H43574   1.006   0.948   7.816  1.0468 -0.1705  0.9993
  323MOL0     H43575   0.821   0.800   8.010 -1.3666 -1.4913  0.4615
  323MOL0     H43576   0.856   0.770   7.839  0.5629  0.3582  0.2197
  323MOL0     H43577   0.741   0.973   7.761  3.2599  1.1234  0.9546
  323MOL0     H43578   0.697   1.006   7.925  0.7716 -0.9230  0.1110
  323MOL0     H43579   0.610   0.772   7.745 -0.1368  1.5980 -1.2469
  323MOL0     H43580   0.592   0.755   7.922 -0.4602 -0.6927 -1.2022
  323MOL0     H43581   0.460   0.976   7.755  0.6328  0.3037  0.4741
  323MOL0     H43582   0.435   0.927   7.933 -0.0177 -0.0517  0.6353
  323MOL0     H43583   0.252   0.857   7.795 -1.0357 -1.8059  0.8245
  323MOL0     H43584   0.374   0.749   7.703 -0.2416 -4.1677  1.1828
  323MOL0     H43585   1.383   1.153   8.204  3.7750  1.4002  2.2455
  323MOL0     H43586   1.591   1.260   8.177  2.0779  0.0679 -0.3657
  323MOL0     H43587   2.048   1.304   8.205 -2.1113  3.6847  0.9990
  323MOL0     H43588   2.281   1.406   8.161 -0.1053  3.1439 -0.7289
  323MOL0     H43589   3.531   1.958   7.054 -0.0467 -0.0125 -1.5889
  323MOL0     H43590   3.371   2.089   6.928  0.4716 -0.0188 -0.8492
  323MOL0     H43591   2.878   1.935   6.882 -0.7079  0.1909  3.3407
  323MOL0     H43592   2.659   1.945   6.786  2.3970 -2.9714  5.2035
  323MOL0     H43593   2.474   1.983   6.653  0.8352  0.5413  0.0405
  323MOL0     H43594   2.504   2.110   6.529 -2.8291  2.8800 -0.8232
  323MOL0     H43595   2.290   2.110   6.742  4.9271  1.8757  1.6089
  323MOL0     H43596   2.250   2.053   6.591  0.8891 -2.6504  2.1219
  323MOL0     H43597   2.337   2.279   6.485 -0.1876  1.2206 -0.2490
  323MOL0     H43598   2.337   2.342   6.656 -2.8364  0.7636 -0.5680
  323MOL0     H43599   2.103   2.298   6.671  2.1518 -1.4587  1.3749
  323MOL0     H43600   2.154   2.427   6.564 -0.9614 -0.1724  1.5530
  323MOL0     H43601   1.935   2.196   6.293 -0.1991  0.8464  0.8180
  323MOL0     H43602   2.676   2.366   6.779 -1.0776 -1.6330 -3.0089
  323MOL0     H43603   2.847   2.488   6.880  0.4176 -0.0118  0.4211
  323MOL0     H43604   2.940   2.403   7.003  2.3051  3.3687 -0.5638
  323MOL0     H43605   2.995   2.411   6.830  0.0928  2.0681  0.1364
  324MOL0     O43606   8.387   5.306   5.053  0.0222  0.7017 -0.0635
  324MOL0     C43607   8.273   5.323   5.009  0.4257 -0.7109  0.4851
  324MOL0     O43608   8.225   5.439   4.954  0.0226  0.0511 -0.1396
  324MOL0     C43609   8.309   5.530   4.905  0.8581 -1.1821 -0.5991
  324MOL0     C43610   8.416   5.496   4.822 -0.2088 -0.1373  0.0883
  324MOL0     C43611   8.482   5.601   4.755 -0.5050 -0.1356  0.0179
  324MOL0     C43612   8.458   5.738   4.768  0.1604 -0.0010 -0.3321
  324MOL0     O43613   8.536   5.835   4.710  0.3355  0.9334  0.1911
  324MOL0     C43614   8.501   5.876   4.576 -0.4028  0.1231 -0.6800
  324MOL0     C43615   8.581   5.798   4.475 -0.6245  0.3605 -0.5325
  324MOL0     C43616   8.741   5.814   4.505 -0.1279  0.1479 -0.0047
  324MOL0     C43617   8.784   5.960   4.471 -0.2194  0.4256 -0.0874
  324MOL0     C43618   8.938   5.966   4.469 -0.7092  0.1584 -0.1729
  324MOL0     C43619   9.009   5.951   4.598 -0.0395 -0.0570 -0.3630
  324MOL0     C43620   9.158   5.980   4.568 -0.1748  0.1202  0.8064
  324MOL0     C43621   9.239   5.944   4.682  0.2855  0.4855  0.0298
  324MOL0     N43622   9.374   5.916   4.628  0.5769 -0.3681 -0.3099
  324MOL0     C43623   9.451   5.809   4.668  1.1907 -0.0043 -0.3266
  324MOL0     C43624   9.568   5.823   4.605  0.9027  0.3033  0.9889
  324MOL0     C43625   9.686   5.738   4.628  0.0870  1.4417  0.7460
  324MOL0     C43626   9.670   5.617   4.534 -0.1055  0.0542 -0.1350
  324MOL0     C43627   9.670   5.644   4.381 -0.7365 -0.8418 -0.5109
  324MOL0     C43628   9.801   5.691   4.308 -0.1731 -0.3933 -0.7542
  324MOL0     O43629   9.918   5.614   4.362 -0.2436  0.1181  0.1387
  324MOL0     C43630  10.044   5.653   4.325  0.7876 -0.7006  1.0697
  324MOL0     C43631  10.075   5.789   4.333 -0.7073  0.1162 -0.3330
  324MOL0     C43632  10.206   5.823   4.316  0.3909 -0.8160 -0.5597
  324MOL0     C43633  10.300   5.729   4.283  0.3058 -0.2448  0.8013
  324MOL0     C43634  10.440   5.781   4.264 -0.3396  0.8336 -0.1227
  324MOL0     O43635  10.459   5.912   4.241  0.4392  0.2447 -0.3429
  324MOL0     C43636  10.580   5.972   4.271 -0.2514 -0.1253 -0.9037
  324MOL0     C43637  10.640   5.954   4.404  1.1114  0.4260  0.8922
  324MOL0     C43638  10.766   5.995   4.434 -0.6780 -0.0223  0.6079
  324MOL0     C43639  10.845   6.057   4.338  0.6190 -0.3207 -0.3179
  324MOL0     O43640  10.970   6.093   4.360 -0.4874 -0.6131 -0.1112
  324MOL0     C43641  11.030   6.085   4.491 -0.1911 -0.3202 -0.0600
  324MOL0     C43642  11.006   6.212   4.580 -0.1576 -0.5771 -0.1879
  324MOL0     C43643  11.088   6.339   4.552 -0.7221  0.4221  0.0721
  324MOL0     C43644  11.232   6.324   4.587 -0.0395  0.5864 -0.3109
  324MOL0     C43645  11.301   6.465   4.601  0.1126 -0.7452  0.5075
  324MOL0     C43646  11.454   6.446   4.627 -0.1787 -1.0033 -0.5322
  324MOL0     C43647  11.537   6.571   4.667 -0.0260 -0.0761  0.1166
  324MOL0     C43648  11.688   6.542   4.685  0.1681 -0.1190 -0.8390
  324MOL0    Cl43649  11.722   6.431   4.815  0.1794  0.4968  0.6391
  324MOL0     C43650  10.801   6.070   4.206  0.8844  0.4094  0.4847
  324MOL0     C43651  10.671   6.031   4.175  0.0610  0.0248  0.5575
  324MOL0     O43652  10.527   5.698   4.295 -0.8951  0.3328 -0.1716
  324MOL0     C43653  10.266   5.592   4.283  0.6353 -0.2009 -0.1338
  324MOL0     C43654  10.134   5.557   4.295  0.6640 -0.3075 -0.1944
  324MOL0     N43655   9.559   5.937   4.530  0.2295  0.2927  0.7662
  324MOL0     N43656   9.445   5.997   4.543 -0.1625  0.3032  0.1356
  324MOL0     C43657   8.353   5.770   4.853 -0.2756 -0.5115 -0.3423
  324MOL0     C43658   8.274   5.669   4.919  0.5328 -0.3946  0.4922
  324MOL0     C43659   8.164   5.224   5.021  0.7469 -0.5477 -0.3104
  324MOL0     C43660   8.030   5.269   5.023 -0.4763 -0.1340 -0.1086
  324MOL0     C43661   7.926   5.175   5.038  0.4024  0.4675  0.2084
  324MOL0     C43662   7.957   5.039   5.036  0.1885 -0.6519  0.8958
  324MOL0     O43663   7.844   4.958   5.057 -0.0292 -0.3992 -0.5029
  324MOL0     C43664   7.856   4.822   5.013  0.1954  0.3295 -0.0743
  324MOL0     C43665   7.705   4.787   4.999 -0.7198  0.3005 -1.2789
  324MOL0     C43666   7.654   4.731   5.134 -0.3187  0.7538  0.1639
  324MOL0     C43667   7.651   4.579   5.144  0.3950  0.4108  0.0643
  324MOL0     C43668   7.789   4.524   5.154  0.2375  0.4215  0.0557
  324MOL0     C43669   7.899   4.473   5.153  0.1180  0.5150 -0.9332
  324MOL0     C43670   8.092   4.992   5.028  0.7414  0.4655 -0.1561
  324MOL0     C43671   8.195   5.087   5.013  0.7607 -0.4552 -0.3109
  324MOL0     C43672   8.331   5.032   4.994 -0.3394  0.1422 -0.2817
  324MOL0     H43673   8.457   5.396   4.818  0.2552 -0.0553  1.8404
  324MOL0     H43674   8.556   5.571   4.682  0.8432  1.6674  0.5737
  324MOL0     H43675   8.400   5.846   4.550 -0.5470 -0.1091  0.1187
  324MOL0     H43676   8.517   5.981   4.551  0.2222 -0.2763 -2.1070
  324MOL0     H43677   8.571   5.836   4.373 -0.5521 -0.7139 -0.9617
  324MOL0     H43678   8.548   5.693   4.476  0.2917 -0.0189  3.1096
  324MOL0     H43679   8.803   5.753   4.438  1.8616  2.9885 -0.9447
  324MOL0     H43680   8.767   5.786   4.607  1.6383  0.5186 -0.3133
  324MOL0     H43681   8.751   5.991   4.372 -0.7690  2.2081  0.6057
  324MOL0     H43682   8.746   6.030   4.546  0.1835  0.8035 -0.2307
  324MOL0     H43683   8.973   5.884   4.406 -2.6312  0.0230 -1.1361
  324MOL0     H43684   8.966   6.052   4.406  1.5272 -1.2691 -1.2735
  324MOL0     H43685   8.973   6.027   4.668 -0.7756 -1.9254  1.3924
  324MOL0     H43686   9.001   5.851   4.642 -0.8009 -1.2297 -2.9785
  324MOL0     H43687   9.159   6.087   4.545 -0.2524 -0.4213 -2.2656
  324MOL0     H43688   9.194   5.927   4.479 -0.5674  1.6678 -0.3320
  324MOL0     H43689   9.239   6.020   4.760 -1.9688  3.0012 -2.2366
  324MOL0     H43690   9.204   5.848   4.721 -3.6002  0.9708 -1.7877
  324MOL0     H43691   9.427   5.742   4.750  3.3880  0.3301  0.6893
  324MOL0     H43692   9.774   5.789   4.589  1.5042 -1.7319 -0.5527
  324MOL0     H43693   9.701   5.702   4.731 -0.9503 -1.0888  0.0998
  324MOL0     H43694   9.753   5.548   4.552 -0.1458 -0.1463 -0.7057
  324MOL0     H43695   9.578   5.568   4.569 -0.1884  1.5666  1.9698
  324MOL0     H43696   9.591   5.714   4.355  0.2999  0.9076  0.8461
  324MOL0     H43697   9.636   5.551   4.334 -0.8992 -1.1292  0.1536
  324MOL0     H43698   9.809   5.796   4.337 -0.2672 -1.5314  4.4088
  324MOL0     H43699   9.782   5.687   4.200  2.8223 -0.9141 -1.3490
  324MOL0     H43700  10.007   5.872   4.354  1.4433  2.1625 -1.0643
  324MOL0     H43701  10.244   5.923   4.334  1.8542 -1.6551  1.4513
  324MOL0     H43702  10.579   5.912   4.484 -0.6634  1.1500 -0.0294
  324MOL0     H43703  10.810   5.976   4.531  1.4166 -0.2128 -0.3148
  324MOL0     H43704  11.002   5.994   4.544  2.4414  0.3764  2.7759
  324MOL0     H43705  11.139   6.080   4.487 -0.2481 -1.3705 -0.4148
  324MOL0     H43706  10.899   6.231   4.564 -0.1385 -1.0091 -0.8465
  324MOL0     H43707  11.019   6.180   4.684  0.6975  0.2435 -0.0334
  324MOL0     H43708  11.085   6.364   4.446  1.3579 -1.4459 -0.5072
  324MOL0     H43709  11.035   6.411   4.615 -0.8897  0.6955 -0.3782
  324MOL0     H43710  11.274   6.275   4.498  0.4634  0.3630  0.0425
  324MOL0     H43711  11.249   6.249   4.664 -1.0525 -0.2431 -0.8661
  324MOL0     H43712  11.255   6.515   4.686  1.6353  0.3763  0.7071
  324MOL0     H43713  11.278   6.536   4.521  1.0375  0.5894  1.3977
  324MOL0     H43714  11.463   6.372   4.707  0.8265 -1.1645 -0.7740
  324MOL0     H43715  11.499   6.408   4.534  0.8288 -1.0226 -0.0546
  324MOL0     H43716  11.496   6.610   4.761  0.5991  2.1902 -0.4988
  324MOL0     H43717  11.520   6.652   4.596  2.7685  1.9282  1.5604
  324MOL0     H43718  11.714   6.493   4.591 -0.5923 -0.6999 -0.7492
  324MOL0     H43719  11.748   6.633   4.689 -1.1641  1.0222 -3.7882
  324MOL0     H43720  10.865   6.110   4.129  1.3117  1.7113  1.4757
  324MOL0     H43721  10.639   6.047   4.072  1.8182  1.2264  0.1521
  324MOL0     H43722  10.338   5.513   4.269  1.6100  1.0248 -2.6727
  324MOL0     H43723  10.094   5.456   4.293 -0.6081  0.0893  2.0920
  324MOL0     H43724   8.333   5.875   4.873  2.1908 -0.4207  2.3157
  324MOL0     H43725   8.193   5.706   4.981 -1.8142  2.8471 -3.9872
  324MOL0     H43726   7.996   5.372   5.017 -1.8990 -0.6161 -1.0050
  324MOL0     H43727   7.824   5.209   5.051 -0.8393 -2.0532 -2.1658
  324MOL0     H43728   7.898   4.756   5.090 -0.9274  0.1776  0.4165
  324MOL0     H43729   7.911   4.807   4.920  0.0917 -3.1901  0.3225
  324MOL0     H43730   7.695   4.708   4.924  1.0616  0.6120 -1.8821
  324MOL0     H43731   7.646   4.872   4.963  2.9536  3.3401 -0.8233
  324MOL0     H43732   7.554   4.771   5.149 -0.7868 -0.6754  1.1594
  324MOL0     H43733   7.718   4.764   5.216  2.1059 -2.8492 -0.0148
  324MOL0     H43734   7.603   4.554   5.239 -0.8124  0.6353 -0.4772
  324MOL0     H43735   7.600   4.545   5.054 -0.1445  5.4428 -1.8509
  324MOL0     H43736   8.000   4.436   5.148 -0.2507 -0.8226  0.5726
  324MOL0     H43737   8.108   4.885   5.026 -1.0682  0.0969 -4.1167
  324MOL0     H43738   8.369   5.067   4.897 -0.6708  0.5174 -0.2781
  324MOL0     H43739   8.399   5.062   5.075  0.3549 -0.9143 -0.4558
  324MOL0     H43740   8.323   4.923   5.000  1.2837 -0.1952 -2.6256
  325MOL0     O43741   9.777   2.728   7.581 -0.2531  0.6955 -1.0350
  325MOL0     C43742   9.858   2.667   7.653 -0.7155 -0.1506 -0.3614
  325MOL0     O43743   9.994   2.689   7.646 -0.1637  0.1780  0.9550
  325MOL0     C43744  10.044   2.790   7.564 -0.1279  0.6485 -0.7334
  325MOL0     C43745  10.058   2.773   7.422 -0.1549  0.4554 -0.5992
  325MOL0     C43746  10.131   2.864   7.337  0.4648  0.9358 -0.0981
  325MOL0     C43747  10.188   2.979   7.396  0.5253  0.4005 -0.1867
  325MOL0     O43748  10.270   3.063   7.325 -0.1405 -0.0311  1.2673
  325MOL0     C43749  10.347   3.165   7.395 -0.2838 -0.5849  0.0932
  325MOL0     C43750  10.460   3.116   7.471  0.3153  0.0260  0.2582
  325MOL0     C43751  10.495   3.213   7.588  0.9255  0.0082 -0.1098
  325MOL0     C43752  10.621   3.153   7.648  0.0270 -0.1111 -0.2482
  325MOL0     C43753  10.637   3.209   7.792 -0.3541 -0.4673 -0.6345
  325MOL0     C43754  10.753   3.155   7.866  0.6290  0.1734 -0.6229
  325MOL0     C43755  10.768   3.210   8.008  0.3160  0.2136 -0.1436
  325MOL0     C43756  10.864   3.127   8.092 -0.3889 -0.1877 -0.0076
  325MOL0     N43757  10.988   3.108   8.022 -0.1483  0.1826 -0.0566
  325MOL0     C43758  11.014   3.000   7.940  0.1695  0.5515  0.7309
  325MOL0     C43759  11.130   3.024   7.883 -0.1797 -1.1904 -0.4753
  325MOL0     C43760  11.204   2.923   7.796  0.8429  1.0443  0.1775
  325MOL0     C43761  11.358   2.954   7.781  0.0432 -0.8103  0.5224
  325MOL0     C43762  11.439   2.961   7.914 -0.7529 -0.1867 -0.3495
  325MOL0     C43763  11.590   2.952   7.891  0.7281 -0.2157 -0.7456
  325MOL0     O43764  11.665   2.973   8.013  0.7415 -0.4158  0.2350
  325MOL0     C43765  11.800   2.991   7.990  0.8387 -0.1996 -0.2410
  325MOL0     C43766  11.881   2.910   7.909  0.1346  0.2224  0.3734
  325MOL0     C43767  12.020   2.936   7.894 -0.0139 -0.6320  0.5754
  325MOL0     C43768  12.080   3.045   7.961 -1.0972 -0.1106 -1.0011
  325MOL0     C43769  12.226   3.064   7.963 -0.4157 -0.4505 -1.1724
  325MOL0     O43770  12.286   3.167   8.032 -0.7752 -0.7789  0.8763
  325MOL0     C43771  12.420   3.182   8.046 -0.6473 -0.0942 -0.0770
  325MOL0     C43772  12.447   3.276   8.148  0.6538  0.5428 -0.1019
  325MOL0     C43773  12.585   3.304   8.184  0.3501  0.0625 -0.2827
  325MOL0     C43774  12.691   3.233   8.120  1.1367  0.1233 -0.5571
  325MOL0     O43775  12.823   3.256   8.142 -0.4106 -0.0216  0.0182
  325MOL0     C43776  12.863   3.258   8.275 -0.5707 -0.5178 -0.4737
  325MOL0     C43777  13.007   3.282   8.292 -0.6181 -0.3323 -0.1305
  325MOL0     C43778  13.050   3.426   8.275  0.2063 -0.4623  0.4362
  325MOL0     C43779  13.197   3.444   8.318 -0.8802 -0.2576  0.4231
  325MOL0     C43780  13.251   3.584   8.284 -0.2622 -0.6248 -0.3736
  325MOL0     C43781  13.410   3.606   8.276  0.4648  0.4748 -0.0300
  325MOL0     C43782  13.442   3.737   8.214  0.1976  0.1638 -0.1229
  325MOL0     C43783  13.565   3.808   8.270 -0.3478 -0.5684 -0.1678
  325MOL0    Cl43784  13.572   3.968   8.194 -0.2801 -0.3411 -0.0810
  325MOL0     C43785  12.655   3.146   8.018 -0.5832 -0.1967 -0.3870
  325MOL0     C43786  12.527   3.120   7.981 -0.5332 -0.4271  0.4602
  325MOL0     O43787  12.288   2.976   7.903 -0.5897  0.1132 -0.1212
  325MOL0     C43788  11.998   3.129   8.035 -0.2232  0.8866  0.1270
  325MOL0     C43789  11.863   3.100   8.052  0.1119  0.7485  0.0297
  325MOL0     N43790  11.160   3.154   7.904 -0.8544 -0.6302 -0.0940
  325MOL0     N43791  11.077   3.209   7.988  0.4380  0.1864 -0.1161
  325MOL0     C43792  10.170   2.989   7.538 -0.8322  0.1256 -0.2588
  325MOL0     C43793  10.105   2.900   7.617 -0.2031  0.0536 -0.2374
  325MOL0     C43794   9.821   2.562   7.759  0.1159  0.5205  0.1490
  325MOL0     C43795   9.914   2.513   7.842 -0.2976  1.2115  0.2610
  325MOL0     C43796   9.889   2.412   7.940 -0.1924 -0.3854 -0.5939
  325MOL0     C43797   9.758   2.366   7.955  0.7601  0.2868 -0.6612
  325MOL0     O43798   9.705   2.271   8.037 -0.4695  1.3544 -0.6475
  325MOL0     C43799   9.788   2.212   8.134 -0.0140  0.1598 -0.0457
  325MOL0     C43800   9.716   2.117   8.224 -0.8016 -0.0339 -0.3669
  325MOL0     C43801   9.611   2.193   8.317  0.4381  0.3801  0.3146
  325MOL0     C43802   9.537   2.102   8.410  0.2988 -0.3384  0.3762
  325MOL0     C43803   9.629   2.040   8.507 -0.0202  0.7395 -0.8390
  325MOL0     C43804   9.679   1.964   8.592  0.0963 -0.9587  0.0297
  325MOL0     C43805   9.661   2.425   7.876  0.8293 -0.1382 -0.2805
  325MOL0     C43806   9.686   2.517   7.774  0.5922  0.5682  1.2622
  325MOL0     C43807   9.571   2.570   7.701  1.0294 -0.1466 -0.0730
  325MOL0     H43808  10.000   2.693   7.376 -2.5538  2.4008 -1.1595
  325MOL0     H43809  10.145   2.849   7.230 -0.0081  0.4082 -0.0906
  325MOL0     H43810  10.376   3.235   7.316 -0.1273 -1.9029 -1.0576
  325MOL0     H43811  10.280   3.211   7.469 -1.1372  1.3504 -1.7809
  325MOL0     H43812  10.536   3.099   7.394 -0.1451 -0.1664 -0.1634
  325MOL0     H43813  10.434   3.023   7.523  0.5637  0.9978  2.1925
  325MOL0     H43814  10.416   3.226   7.662  0.6531 -0.4041 -0.3201
  325MOL0     H43815  10.515   3.310   7.542  1.3171  0.6298  1.3086
  325MOL0     H43816  10.626   3.044   7.657 -0.7874 -0.1114  0.2973
  325MOL0     H43817  10.711   3.186   7.596  0.1025  2.5935  1.4208
  325MOL0     H43818  10.662   3.316   7.789  0.0262 -0.5487 -0.3469
  325MOL0     H43819  10.545   3.198   7.850  1.1861 -0.1411  2.0271
  325MOL0     H43820  10.730   3.048   7.877 -1.4593  0.6816  0.5018
  325MOL0     H43821  10.842   3.176   7.807  0.8045  0.5776 -0.2193
  325MOL0     H43822  10.667   3.219   8.050  0.7493  1.8710  0.6263
  325MOL0     H43823  10.805   3.312   7.993  1.3901 -0.1047  0.3237
  325MOL0     H43824  10.882   3.184   8.184  0.6463  2.0275 -1.5062
  325MOL0     H43825  10.825   3.026   8.105  1.0796 -1.0977 -2.1482
  325MOL0     H43826  10.962   2.905   7.939 -2.7573  2.0308 -0.5190
  325MOL0     H43827  11.179   2.822   7.831 -1.4660  0.6616 -2.2887
  325MOL0     H43828  11.145   2.939   7.706 -0.4749  2.4835  1.2338
  325MOL0     H43829  11.397   2.881   7.710 -0.0535 -0.0248 -0.3713
  325MOL0     H43830  11.368   3.053   7.733 -0.3891  0.7319  3.4055
  325MOL0     H43831  11.413   2.884   7.987  0.5510 -0.0316  0.3073
  325MOL0     H43832  11.412   3.059   7.955  0.1725 -0.3086  0.5683
  325MOL0     H43833  11.616   3.038   7.829 -1.3461  1.5831  0.7491
  325MOL0     H43834  11.607   2.852   7.848 -0.0076 -1.8418  2.3927
  325MOL0     H43835  11.838   2.828   7.852  1.8931 -0.4294 -0.0667
  325MOL0     H43836  12.085   2.877   7.831 -0.7686 -1.0094  0.1344
  325MOL0     H43837  12.370   3.327   8.204  0.5249  1.3953 -1.0191
  325MOL0     H43838  12.617   3.376   8.258 -2.8147  0.4264  0.8458
  325MOL0     H43839  12.805   3.322   8.342 -0.0151 -1.4741  0.9615
  325MOL0     H43840  12.837   3.156   8.305 -1.4184 -0.8138 -2.0757
  325MOL0     H43841  13.037   3.250   8.392  0.4555  2.8280  0.6712
  325MOL0     H43842  13.069   3.229   8.219 -0.2465 -0.5880  0.3605
  325MOL0     H43843  13.041   3.448   8.168 -2.1819 -0.8629  0.5076
  325MOL0     H43844  12.992   3.499   8.331  0.4139  0.8027 -0.9267
  325MOL0     H43845  13.245   3.368   8.256  1.0521  1.6851 -0.5772
  325MOL0     H43846  13.217   3.419   8.422 -3.6939 -0.1685  1.0590
  325MOL0     H43847  13.220   3.654   8.362 -0.3932  1.6162 -2.3160
  325MOL0     H43848  13.215   3.611   8.185 -0.7445 -0.1206 -0.0674
  325MOL0     H43849  13.450   3.612   8.378  2.6028  0.3289 -0.8142
  325MOL0     H43850  13.451   3.525   8.216 -3.3510 -1.0647 -0.8435
  325MOL0     H43851  13.359   3.804   8.238  0.1168 -0.8565  2.8893
  325MOL0     H43852  13.457   3.733   8.106  0.3511 -1.1335 -0.0698
  325MOL0     H43853  13.541   3.830   8.374 -0.3805 -0.7579 -0.1362
  325MOL0     H43854  13.651   3.744   8.248 -0.5649 -1.0930  0.4872
  325MOL0     H43855  12.729   3.088   7.964 -0.9303 -0.9954 -0.0141
  325MOL0     H43856  12.505   3.060   7.894 -0.1673 -1.2968  0.9518
  325MOL0     H43857  12.034   3.212   8.095 -1.2639  1.8159 -0.4923
  325MOL0     H43858  11.797   3.148   8.123 -1.1582 -1.7236  0.6160
  325MOL0     H43859  10.225   3.064   7.593  1.5261  0.0049 -2.2584
  325MOL0     H43860  10.119   2.914   7.724 -2.5779  2.4042 -0.1625
  325MOL0     H43861  10.017   2.546   7.843  0.5598 -1.2362  0.9049
  325MOL0     H43862   9.970   2.378   8.004 -3.3194 -2.7172  2.4428
  325MOL0     H43863   9.840   2.291   8.189 -2.2060  0.3882  1.8197
  325MOL0     H43864   9.862   2.145   8.089 -0.2761 -0.2336  0.1030
  325MOL0     H43865   9.783   2.060   8.289 -1.6755  1.2243  1.7274
  325MOL0     H43866   9.654   2.039   8.179 -1.5440  0.3088  0.0371
  325MOL0     H43867   9.541   2.241   8.248  1.5571  0.2112 -0.9572
  325MOL0     H43868   9.659   2.274   8.372  0.3913  0.6794 -0.0818
  325MOL0     H43869   9.458   2.158   8.463  0.7716 -0.4316  1.1959
  325MOL0     H43870   9.488   2.021   8.355 -0.2022  0.7856 -0.8793
  325MOL0     H43871   9.728   1.898   8.660  1.9992 -1.0851 -1.3893
  325MOL0     H43872   9.558   2.403   7.904  0.9282 -0.2361  0.0109
  325MOL0     H43873   9.552   2.674   7.728 -2.3320 -0.8189  0.5997
  325MOL0     H43874   9.579   2.540   7.596 -2.1415 -0.0376 -0.4623
  325MOL0     H43875   9.479   2.514   7.723 -0.0497  0.6776 -2.1888
  326MOL0     O43876  10.757   0.730  10.811  0.3522 -0.2973  0.4261
  326MOL0     C43877  10.703   0.844  10.841  0.1243  0.9491  0.6481
  326MOL0     O43878  10.770   0.961  10.856  0.3882  0.3355  0.7167
  326MOL0     C43879  10.902   0.960  10.902  0.7746 -0.0075  1.0274
  326MOL0     C43880  10.964   1.084  10.893  0.7894  0.8542  0.2014
  326MOL0     C43881  11.090   1.114  10.941 -0.1061  0.0190  0.2332
  326MOL0     C43882  11.178   1.008  10.986 -0.8632  0.8871  0.1712
  326MOL0     O43883  11.313   1.040  11.021  0.2433 -0.2530 -0.1993
  326MOL0     C43884  11.398   0.938  11.067  0.3203 -0.2104 -0.4924
  326MOL0     C43885  11.514   0.999  11.145  0.0254 -0.2888  0.2775
  326MOL0     C43886  11.592   1.087  11.042 -1.2484 -0.7987  0.1479
  326MOL0     C43887  11.722   1.142  11.094 -0.4009  0.5123  0.0729
  326MOL0     C43888  11.829   1.158  10.991 -0.1658 -0.2519 -0.3372
  326MOL0     C43889  11.785   1.248  10.876  0.3593 -0.0185 -0.3071
  326MOL0     C43890  11.900   1.294  10.789  0.0294 -0.4994 -0.6502
  326MOL0     C43891  11.960   1.437  10.815  0.0864  0.0961 -0.1657
  326MOL0     N43892  12.089   1.470  10.759 -0.5834 -0.3986  0.1007
  326MOL0     C43893  12.133   1.456  10.629  1.0602  0.2628  0.0378
  326MOL0     C43894  12.268   1.481  10.625  0.0065 -0.8354 -0.1496
  326MOL0     C43895  12.352   1.464  10.499  0.0501  1.0048 -0.5293
  326MOL0     C43896  12.473   1.376  10.525 -0.4966  0.6680 -0.0913
  326MOL0     C43897  12.524   1.330  10.387 -0.0731  0.2197 -1.6255
  326MOL0     C43898  12.662   1.276  10.384  0.3450  1.1099  1.0499
  326MOL0     O43899  12.744   1.382  10.399 -0.9894  0.4734  0.1412
  326MOL0     C43900  12.878   1.380  10.369 -0.3966  0.3392  0.7020
  326MOL0     C43901  12.941   1.506  10.350 -0.0697  0.2996  0.0685
  326MOL0     C43902  13.080   1.498  10.319 -0.2730  1.3958 -1.1383
  326MOL0     C43903  13.155   1.378  10.306  1.0287 -0.5406  0.8385
  326MOL0     C43904  13.300   1.391  10.272  0.1992 -0.1479  0.0884
  326MOL0     O43905  13.358   1.506  10.215  0.4904  0.2703 -0.2823
  326MOL0     C43906  13.487   1.508  10.178 -0.1500 -0.3391 -0.7547
  326MOL0     C43907  13.585   1.474  10.273 -0.3318 -0.0911  0.1202
  326MOL0     C43908  13.717   1.479  10.234 -0.3403  0.0469  0.4625
  326MOL0     C43909  13.760   1.523  10.099  0.3727  0.3772  0.3585
  326MOL0     O43910  13.888   1.520  10.067  0.2715  0.0229 -0.3897
  326MOL0     C43911  13.929   1.403  10.004  0.0421  0.1171 -0.4020
  326MOL0     C43912  14.082   1.407  10.002 -0.2511 -0.1360 -0.0494
  326MOL0     C43913  14.132   1.276   9.950 -0.0276  0.0059 -0.3947
  326MOL0     C43914  14.278   1.264   9.994  0.8829 -1.1940  0.1817
  326MOL0     C43915  14.341   1.124   9.975  0.2542  0.0851  0.7351
  326MOL0     C43916  14.482   1.127  10.025  0.0497 -0.2042  0.5194
  326MOL0     C43917  14.551   0.995   9.988  0.2557  0.2506  0.1545
  326MOL0     C43918  14.688   0.995  10.042 -0.7782  0.2048  0.7912
  326MOL0    Cl43919  14.783   1.115   9.952 -0.1881 -0.2831 -0.0492
  326MOL0     C43920  13.660   1.557  10.008 -0.3235 -0.4092 -0.0680
  326MOL0     C43921  13.524   1.547  10.045 -0.4371 -0.3988 -0.6420
  326MOL0     O43922  13.361   1.288  10.295 -0.0100  0.2323 -0.0213
  326MOL0     C43923  13.089   1.263  10.339 -0.3865 -0.0113  0.3195
  326MOL0     C43924  12.950   1.259  10.358 -0.3085 -0.4322 -0.2356
  326MOL0     N43925  12.302   1.518  10.750  0.4552  0.2377 -0.7300
  326MOL0     N43926  12.198   1.513  10.830 -0.0839  0.5409  0.4528
  326MOL0     C43927  11.117   0.875  10.993  0.6769 -0.4628 -0.2824
  326MOL0     C43928  10.985   0.858  10.946  0.9750  0.2806  0.6373
  326MOL0     C43929  10.561   0.861  10.806  0.1454  0.1454 -0.0885
  326MOL0     C43930  10.534   0.963  10.710 -0.7231  0.1865  0.3256
  326MOL0     C43931  10.396   0.989  10.669 -0.0084  0.1460  1.0763
  326MOL0     C43932  10.296   0.903  10.722 -0.3717 -0.1995  0.4746
  326MOL0     O43933  10.167   0.911  10.686 -0.6898  0.7161  0.4913
  326MOL0     C43934  10.125   0.995  10.575 -0.8400  0.3145  0.2454
  326MOL0     C43935  10.089   1.132  10.631  0.6431  0.6373 -0.2755
  326MOL0     C43936   9.983   1.140  10.743 -0.3914  0.5365 -0.2686
  326MOL0     C43937   9.961   1.292  10.770  0.1781  0.5397  0.0748
  326MOL0     C43938   9.852   1.303  10.866 -0.1027 -0.3297 -0.4085
  326MOL0     C43939   9.765   1.309  10.948 -0.2873 -0.1975 -1.1490
  326MOL0     C43940  10.323   0.801  10.807  0.5349  0.3949 -0.6477
  326MOL0     C43941  10.451   0.778  10.852 -0.6013  0.2700 -0.1504
  326MOL0     C43942  10.480   0.676  10.953  0.1335  0.3009 -0.4266
  326MOL0     H43943  10.912   1.164  10.841  0.1574  1.1389  1.2382
  326MOL0     H43944  11.132   1.213  10.932 -1.5842  0.9253  2.4283
  326MOL0     H43945  11.341   0.881  11.142  1.7208  0.4082  1.1014
  326MOL0     H43946  11.445   0.875  10.991  0.8770 -0.1928 -0.1683
  326MOL0     H43947  11.589   0.935  11.192 -0.1879  0.3002  1.4471
  326MOL0     H43948  11.480   1.066  11.224  0.4174 -0.4420  0.5794
  326MOL0     H43949  11.533   1.175  11.017 -0.2992  0.0261  0.7397
  326MOL0     H43950  11.615   1.027  10.953  2.8268  0.6208  0.0593
  326MOL0     H43951  11.712   1.234  11.151  0.6517  2.3235 -2.5015
  326MOL0     H43952  11.759   1.075  11.172 -1.2388 -0.4895 -0.3493
  326MOL0     H43953  11.907   1.214  11.043 -1.0311  0.3480  0.3588
  326MOL0     H43954  11.858   1.058  10.958 -0.3478 -0.8624  1.2758
  326MOL0     H43955  11.711   1.192  10.818 -1.8552  0.7130  1.6439
  326MOL0     H43956  11.726   1.332  10.915  1.4504  1.5850 -1.9165
  326MOL0     H43957  11.877   1.294  10.682  0.5629  1.2851 -0.7877
  326MOL0     H43958  11.977   1.217  10.795 -0.2646 -0.8134 -0.8405
  326MOL0     H43959  11.881   1.506  10.785 -0.5282 -1.0927 -1.3807
  326MOL0     H43960  11.957   1.453  10.924 -1.8868  3.4954 -0.6029
  326MOL0     H43961  12.068   1.419  10.550  2.1729 -2.4853  0.2803
  326MOL0     H43962  12.289   1.419  10.421 -2.9691  2.2352  1.0258
  326MOL0     H43963  12.391   1.562  10.468  1.0110  0.6658 -0.4072
  326MOL0     H43964  12.549   1.439  10.574  3.4532 -4.7285  1.6944
  326MOL0     H43965  12.460   1.288  10.589  2.1495  0.9290  0.9504
  326MOL0     H43966  12.527   1.419  10.324  1.8862  1.6197  0.3073
  326MOL0     H43967  12.444   1.266  10.348 -2.7277  2.2436  0.0850
  326MOL0     H43968  12.684   1.226  10.289 -1.3701  0.4108  0.9817
  326MOL0     H43969  12.684   1.196  10.455  0.6235  0.0768 -0.1499
  326MOL0     H43970  12.887   1.600  10.338 -1.7786 -0.9019 -2.6986
  326MOL0     H43971  13.137   1.587  10.296 -1.7481  2.0674 -2.4255
  326MOL0     H43972  13.570   1.433  10.372 -2.2164  1.1748  0.4007
  326MOL0     H43973  13.788   1.439  10.305 -1.3355 -1.1059  0.8476
  326MOL0     H43974  13.884   1.323  10.063 -1.4806  0.1112 -1.5307
  326MOL0     H43975  13.893   1.394   9.901  0.8316  0.2558 -0.6951
  326MOL0     H43976  14.115   1.486   9.934  1.2044 -0.0816  0.6798
  326MOL0     H43977  14.121   1.429  10.102  1.5116  0.1748 -0.7778
  326MOL0     H43978  14.073   1.201  10.004  0.4257 -0.3695 -0.4105
  326MOL0     H43979  14.115   1.259   9.843 -0.0173  1.4564 -0.6507
  326MOL0     H43980  14.284   1.290  10.101 -1.5148 -0.9471  0.3146
  326MOL0     H43981  14.336   1.345   9.950 -1.1117 -0.0307 -0.4182
  326MOL0     H43982  14.340   1.103   9.868  1.2718  2.1079  0.2786
  326MOL0     H43983  14.281   1.057  10.037  0.5386  0.3473  1.3071
  326MOL0     H43984  14.530   1.210   9.973  1.4507 -1.7698 -0.8025
  326MOL0     H43985  14.480   1.144  10.133 -2.2622  0.1188  0.4836
  326MOL0     H43986  14.560   0.985   9.880 -0.8432  1.1811 -0.0391
  326MOL0     H43987  14.491   0.913  10.027  1.7666 -1.5582 -1.1554
  326MOL0     H43988  14.673   1.021  10.147  1.4871 -0.2226  1.2644
  326MOL0     H43989  14.750   0.905  10.037 -0.9201 -0.2293  4.3088
  326MOL0     H43990  13.684   1.583   9.906 -2.0849 -1.4198 -0.7776
  326MOL0     H43991  13.443   1.561   9.974 -1.8047  2.1964  1.2549
  326MOL0     H43992  13.157   1.178  10.347 -0.6454 -0.4921 -2.0421
  326MOL0     H43993  12.899   1.165  10.374 -0.7214 -0.6802 -2.6137
  326MOL0     H43994  11.162   0.791  11.045 -0.3360 -1.0794 -0.3656
  326MOL0     H43995  10.940   0.761  10.964  3.9188 -0.9345  2.1230
  326MOL0     H43996  10.620   1.018  10.672 -0.9275  1.1730  1.2509
  326MOL0     H43997  10.376   1.069  10.599  0.8864 -0.2594  0.3332
  326MOL0     H43998  10.044   0.958  10.513  0.7482 -0.4991 -1.4374
  326MOL0     H43999  10.203   1.018  10.501  0.7237 -1.3197  1.2948
  326MOL0     H44000  10.066   1.201  10.550 -1.2827  1.7384  1.1251
  326MOL0     H44001  10.183   1.167  10.675  0.3997  0.3030  0.5403
  326MOL0     H44002  10.013   1.077  10.827 -2.7430 -2.8797 -1.7895
  326MOL0     H44003   9.895   1.089  10.703 -0.5126 -0.8269  1.6052
  326MOL0     H44004  10.051   1.338  10.813 -0.1526  0.4871  0.8503
  326MOL0     H44005   9.928   1.350  10.684 -1.2956  3.7724  2.6012
  326MOL0     H44006   9.685   1.346  11.009  0.9836  0.8255 -0.0074
  326MOL0     H44007  10.244   0.729  10.828  0.7306 -0.0585 -1.4298
  326MOL0     H44008  10.562   0.610  10.923  1.9757  2.0551  0.4962
  326MOL0     H44009  10.509   0.734  11.041 -0.6529 -0.7583  0.5655
  326MOL0     H44010  10.389   0.618  10.973  1.3996 -1.1173  1.5324
  327MOL0     O44011   7.277   7.994   0.891 -0.0411 -0.3622 -0.3416
  327MOL0     C44012   7.153   7.986   0.888  0.6174  0.0672 -0.0580
  327MOL0     O44013   7.082   7.990   0.766 -0.1469 -0.4522 -0.9118
  327MOL0     C44014   7.160   8.003   0.652 -0.0337  0.0139  0.9654
  327MOL0     C44015   7.204   7.890   0.590 -0.2871 -0.7864 -0.1019
  327MOL0     C44016   7.290   7.890   0.489  0.7072  0.6305  0.8453
  327MOL0     C44017   7.326   8.009   0.426 -0.5873  0.9447 -0.0286
  327MOL0     O44018   7.427   8.003   0.324  0.5167  0.2020  0.4339
  327MOL0     C44019   7.538   8.094   0.335 -0.0445  0.1028 -0.7846
  327MOL0     C44020   7.648   8.029   0.265 -0.5328 -0.0491 -0.2179
  327MOL0     C44021   7.771   8.123   0.265  0.5235  0.2339 -0.0319
  327MOL0     C44022   7.886   8.081   0.168  0.2145  0.3198 -0.5059
  327MOL0     C44023   7.967   8.197   0.117  0.1060  0.2500 -0.5062
  327MOL0     C44024   8.098   8.139   0.059  0.0080  0.3212 -0.6482
  327MOL0     C44025   8.183   8.254   0.007  0.0825 -0.8010  0.0013
  327MOL0     C44026   8.323   8.207  -0.031 -0.2072  0.2207 -0.3386
  327MOL0     N44027   8.393   8.306  -0.117  0.2051  0.2716 -0.8490
  327MOL0     C44028   8.389   8.448  -0.106 -0.4506 -0.7059 -0.7925
  327MOL0     C44029   8.453   8.496  -0.213  0.2946 -0.9461  0.0059
  327MOL0     C44030   8.483   8.642  -0.247  0.7251  0.4394 -0.2676
  327MOL0     C44031   8.631   8.680  -0.242 -0.6388 -1.0748  0.0610
  327MOL0     C44032   8.691   8.672  -0.385 -0.3450 -0.3586 -0.1650
  327MOL0     C44033   8.836   8.721  -0.408 -0.4028  0.1008 -1.0055
  327MOL0     O44034   8.842   8.859  -0.404 -0.1773  0.1408  0.4562
  327MOL0     C44035   8.944   8.935  -0.447 -0.0274  0.5753  0.1898
  327MOL0     C44036   8.962   9.055  -0.381  0.5569 -0.1714 -1.3127
  327MOL0     C44037   9.086   9.115  -0.392 -0.2013 -0.2099 -0.2400
  327MOL0     C44038   9.199   9.056  -0.466  0.0010 -0.8358 -0.4016
  327MOL0     C44039   9.323   9.124  -0.476 -0.7956  0.1885  0.4534
  327MOL0     O44040   9.400   9.104  -0.591  0.4306 -0.8288  0.0499
  327MOL0     C44041   9.516   9.177  -0.597  0.1557  0.1605 -0.7762
  327MOL0     C44042   9.513   9.319  -0.619  0.4807 -0.2326  0.6262
  327MOL0     C44043   9.632   9.399  -0.625  0.7446  0.1230 -0.4407
  327MOL0     C44044   9.753   9.343  -0.599  0.3433  0.0018 -0.2823
  327MOL0     O44045   9.856   9.434  -0.620  0.1625  0.3132 -0.6520
  327MOL0     C44046   9.923   9.459  -0.496 -0.2861 -0.9665 -0.4062
  327MOL0     C44047  10.050   9.545  -0.523  0.1852  0.1692  0.6266
  327MOL0     C44048  10.152   9.450  -0.607 -0.1283  0.6782  0.4815
  327MOL0     C44049  10.248   9.383  -0.509  0.6684 -0.4769 -0.0821
  327MOL0     C44050  10.337   9.282  -0.574  0.0757 -0.1357 -0.0680
  327MOL0     C44051  10.267   9.192  -0.677  0.3802 -0.4516 -0.2641
  327MOL0     C44052  10.166   9.097  -0.607 -0.0232  0.2323 -0.1391
  327MOL0     C44053  10.104   8.997  -0.707  0.2654 -0.3726  0.4794
  327MOL0    Cl44054   9.993   9.093  -0.828 -0.6166  0.3872  0.1543
  327MOL0     C44055   9.756   9.209  -0.561 -0.3635  0.3734  0.3229
  327MOL0     C44056   9.648   9.120  -0.557 -1.2886  0.1263 -0.6569
  327MOL0     O44057   9.361   9.190  -0.381  0.6265 -0.5499  0.0223
  327MOL0     C44058   9.167   8.943  -0.541  0.5711  0.4659  0.0719
  327MOL0     C44059   9.042   8.887  -0.529 -1.2586  0.5448  0.0314
  327MOL0     N44060   8.498   8.390  -0.287 -0.6947  0.5718  0.0585
  327MOL0     N44061   8.444   8.280  -0.239  0.3553 -0.3655 -0.4707
  327MOL0     C44062   7.266   8.129   0.465  0.4150  0.3463  0.2905
  327MOL0     C44063   7.188   8.122   0.585 -0.2836  0.9143 -0.1383
  327MOL0     C44064   7.070   7.984   1.007  0.7180  0.3524  0.5958
  327MOL0     C44065   6.928   7.985   0.997 -0.5299  0.1880  0.0948
  327MOL0     C44066   6.838   7.972   1.109 -0.6155  0.0044  0.4950
  327MOL0     C44067   6.893   7.937   1.238 -0.1685 -0.7068  0.3999
  327MOL0     O44068   6.798   7.922   1.338 -1.1022 -0.1201 -0.0399
  327MOL0     C44069   6.840   7.872   1.466  1.0602 -0.2799  0.4984
  327MOL0     C44070   6.839   7.719   1.458  0.5281 -0.6485  0.3695
  327MOL0     C44071   6.698   7.667   1.470 -0.2466 -0.4619 -0.1304
  327MOL0     C44072   6.694   7.517   1.436  0.8690  0.8055 -0.6832
  327MOL0     C44073   6.557   7.466   1.413 -0.2887 -1.2900  0.1526
  327MOL0     C44074   6.448   7.415   1.392 -0.3958 -0.6864 -1.0577
  327MOL0     C44075   7.036   7.954   1.257  0.9031  0.5852  0.2250
  327MOL0     C44076   7.124   7.976   1.144  1.0687 -0.5640  0.3836
  327MOL0     C44077   7.270   7.959   1.169 -0.4603 -0.6438  1.0183
  327MOL0     H44078   7.176   7.796   0.636  0.5433 -2.0844 -2.0908
  327MOL0     H44079   7.327   7.801   0.438 -0.8276 -0.0377  0.8291
  327MOL0     H44080   7.519   8.191   0.289  1.0667 -0.0120 -1.5329
  327MOL0     H44081   7.568   8.112   0.439 -1.8841  0.8001 -0.3402
  327MOL0     H44082   7.626   8.017   0.159  1.9767 -0.0620 -0.8032
  327MOL0     H44083   7.670   7.931   0.310 -2.3685 -0.9541 -1.1492
  327MOL0     H44084   7.804   8.140   0.368 -3.9287 -0.6933  1.7789
  327MOL0     H44085   7.741   8.224   0.239  0.9763  0.4211  0.1484
  327MOL0     H44086   7.949   8.006   0.217  0.5292  0.2809 -0.9630
  327MOL0     H44087   7.831   8.029   0.089 -0.6781 -0.5901  0.6735
  327MOL0     H44088   7.902   8.243   0.042 -1.6508  1.0751  1.4076
  327MOL0     H44089   7.990   8.267   0.198  0.4630 -0.0218 -0.3672
  327MOL0     H44090   8.151   8.074   0.129 -1.0520 -1.1477 -1.1908
  327MOL0     H44091   8.080   8.076  -0.028 -1.0235 -0.8649  0.3928
  327MOL0     H44092   8.183   8.331   0.084 -1.5548 -1.9963  1.2747
  327MOL0     H44093   8.138   8.298  -0.082 -0.8600 -2.1231 -0.2115
  327MOL0     H44094   8.382   8.207   0.061 -0.4995  0.6368 -0.1494
  327MOL0     H44095   8.326   8.105  -0.072  3.1074  0.7027 -1.5892
  327MOL0     H44096   8.335   8.508  -0.034 -1.7382 -0.7162 -1.7037
  327MOL0     H44097   8.443   8.661  -0.347  1.2481 -2.3318 -1.0781
  327MOL0     H44098   8.434   8.710  -0.176 -0.4357  0.0828 -0.6954
  327MOL0     H44099   8.630   8.784  -0.209  0.0422 -2.0017  3.4432
  327MOL0     H44100   8.696   8.634  -0.167  4.5265  0.6155 -2.8670
  327MOL0     H44101   8.624   8.719  -0.457  1.9692  2.3728 -0.7191
  327MOL0     H44102   8.694   8.568  -0.418 -1.9932 -0.8085  0.9707
  327MOL0     H44103   8.867   8.684  -0.505 -0.2629 -1.2384 -0.4728
  327MOL0     H44104   8.899   8.688  -0.325 -1.4300  1.7317  0.5076
  327MOL0     H44105   8.896   9.095  -0.305  0.5500 -0.7856 -0.9917
  327MOL0     H44106   9.096   9.208  -0.336  1.8150 -0.9390  0.7222
  327MOL0     H44107   9.415   9.363  -0.628  0.6994  0.1554  0.0982
  327MOL0     H44108   9.627   9.507  -0.637 -1.1530  0.6799  3.7032
  327MOL0     H44109   9.858   9.500  -0.419  0.6583 -0.6056  0.2168
  327MOL0     H44110   9.963   9.367  -0.452  0.8282 -0.2508  0.1284
  327MOL0     H44111  10.029   9.639  -0.575  0.5433 -0.0592  0.0560
  327MOL0     H44112  10.089   9.564  -0.423  0.4855 -0.6870  0.6789
  327MOL0     H44113  10.086   9.380  -0.659 -2.2934  0.7543  2.8642
  327MOL0     H44114  10.208   9.517  -0.672  0.8842  0.9931  1.6387
  327MOL0     H44115  10.190   9.329  -0.433 -0.3370  1.7553  0.8269
  327MOL0     H44116  10.307   9.454  -0.450 -1.4721 -0.5887  2.4172
  327MOL0     H44117  10.391   9.224  -0.498 -0.6011 -0.9952 -0.2279
  327MOL0     H44118  10.410   9.347  -0.625  0.0530  0.5564  0.7629
  327MOL0     H44119  10.211   9.244  -0.756 -1.4590 -2.7462 -0.5843
  327MOL0     H44120  10.339   9.137  -0.738  0.2078  1.1913 -2.0418
  327MOL0     H44121  10.091   9.151  -0.549 -2.3239 -1.6112 -1.2315
  327MOL0     H44122  10.224   9.037  -0.536  0.6306  1.0696  0.0480
  327MOL0     H44123  10.177   8.938  -0.763 -0.1422 -0.5602  0.1393
  327MOL0     H44124  10.043   8.932  -0.644  0.8630  0.8235  2.3849
  327MOL0     H44125   9.850   9.158  -0.545 -0.5974  0.2412  1.3393
  327MOL0     H44126   9.651   9.016  -0.529  1.2131  0.7624  1.8947
  327MOL0     H44127   9.238   8.902  -0.612 -1.8687 -1.3180 -1.5395
  327MOL0     H44128   9.025   8.792  -0.578 -3.3087  1.9528 -2.1676
  327MOL0     H44129   7.275   8.213   0.396  3.2836  1.5303  1.9248
  327MOL0     H44130   7.150   8.216   0.624 -0.8886 -0.6015  3.3481
  327MOL0     H44131   6.882   8.002   0.900 -2.3026 -0.1797  0.8450
  327MOL0     H44132   6.731   7.987   1.097 -0.2292  1.9058 -1.0651
  327MOL0     H44133   6.775   7.915   1.542  0.9041 -0.7662  0.6433
  327MOL0     H44134   6.939   7.909   1.497  0.8579 -0.7014  1.6871
  327MOL0     H44135   6.899   7.669   1.535 -1.2588 -3.7905 -0.1105
  327MOL0     H44136   6.881   7.684   1.363 -0.0109 -1.6368  0.4858
  327MOL0     H44137   6.617   7.714   1.413 -0.1904 -2.3791 -1.9179
  327MOL0     H44138   6.663   7.687   1.572 -0.4465 -0.1718 -0.2523
  327MOL0     H44139   6.746   7.508   1.340  0.1794 -0.2645 -0.9756
  327MOL0     H44140   6.749   7.464   1.514  0.5920 -0.8558 -1.5740
  327MOL0     H44141   6.351   7.373   1.375 -0.4130 -1.5077  0.7584
  327MOL0     H44142   7.081   7.931   1.353 -0.5999  0.6859  0.9716
  327MOL0     H44143   7.292   7.927   1.271  0.1949  0.3670  1.1993
  327MOL0     H44144   7.313   7.881   1.105 -1.0655  0.1231 -0.3705
  327MOL0     H44145   7.328   8.045   1.136  1.0098 -2.1625 -0.6113
  328MOL0     O44146   5.771  10.961   3.462 -1.0448 -0.5044  0.2633
  328MOL0     C44147   5.701  10.910   3.379 -0.3099  0.3431 -0.3432
  328MOL0     O44148   5.743  10.860   3.262  0.4072 -0.2667  0.4910
  328MOL0     C44149   5.876  10.856   3.231 -0.9599 -0.5883  0.1110
  328MOL0     C44150   5.954  10.973   3.231  0.3491 -0.5644  1.1080
  328MOL0     C44151   6.092  10.969   3.213  0.0957 -0.2019 -0.1063
  328MOL0     C44152   6.156  10.851   3.187  0.0445 -0.4369 -0.4026
  328MOL0     O44153   6.296  10.853   3.177  0.2672  0.7013  0.7746
  328MOL0     C44154   6.372  10.734   3.202  0.1242  0.2498 -0.1576
  328MOL0     C44155   6.523  10.761   3.176 -1.4712 -1.1757  0.2305
  328MOL0     C44156   6.604  10.645   3.245  0.2634  0.3681 -0.2164
  328MOL0     C44157   6.754  10.679   3.247 -0.6983  0.0334  0.0716
  328MOL0     C44158   6.836  10.544   3.265 -0.3273 -0.1462 -0.3993
  328MOL0     C44159   6.985  10.566   3.253 -0.1502  0.1414  0.4469
  328MOL0     C44160   7.048  10.432   3.218 -0.4338  0.0476 -0.0160
  328MOL0     C44161   7.045  10.327   3.329 -0.1317  0.4642 -0.2343
  328MOL0     N44162   7.119  10.369   3.448  0.5150 -0.2609  0.2774
  328MOL0     C44163   7.255  10.353   3.467  0.4166 -0.2878  0.1172
  328MOL0     C44164   7.270  10.386   3.598  0.7206 -0.1198 -0.6451
  328MOL0     C44165   7.398  10.394   3.673  0.4092  0.8556  0.0555
  328MOL0     C44166   7.428  10.541   3.718 -0.5624 -0.8234 -0.8763
  328MOL0     C44167   7.539  10.544   3.824  0.1777  0.1060  0.6764
  328MOL0     C44168   7.675  10.482   3.776  0.3237 -0.6877 -0.7366
  328MOL0     O44169   7.772  10.503   3.875  0.3474  0.0906  0.0118
  328MOL0     C44170   7.909  10.525   3.842  0.3966 -0.0043 -0.7244
  328MOL0     C44171   7.952  10.551   3.716  0.1022 -0.8005 -0.5435
  328MOL0     C44172   8.079  10.583   3.679  0.3048  0.6769 -0.3571
  328MOL0     C44173   8.181  10.582   3.781 -0.2431  0.0666  0.2774
  328MOL0     C44174   8.326  10.617   3.759 -0.1317 -0.6987 -0.2885
  328MOL0     O44175   8.402  10.630   3.873  0.0945  0.0156 -0.1598
  328MOL0     C44176   8.531  10.664   3.838  0.3001 -0.4713 -0.3877
  328MOL0     C44177   8.626  10.574   3.784 -0.4107 -0.1659 -0.3378
  328MOL0     C44178   8.762  10.614   3.759  0.1847  0.0059 -0.0550
  328MOL0     C44179   8.790  10.757   3.779  0.0441  0.0479  0.4547
  328MOL0     O44180   8.907  10.822   3.741  0.1433 -0.5772 -0.2021
  328MOL0     C44181   8.989  10.754   3.645 -0.6708  0.1917  0.2519
  328MOL0     C44182   9.117  10.834   3.627  0.4010 -0.4916  0.3975
  328MOL0     C44183   9.211  10.781   3.523  0.5916 -0.2172 -0.3825
  328MOL0     C44184   9.359  10.821   3.548  0.5730 -0.0995 -0.1194
  328MOL0     C44185   9.456  10.734   3.470  0.2546  0.7119  0.1552
  328MOL0     C44186   9.601  10.771   3.503  0.8976  0.0281 -0.4010
  328MOL0     C44187   9.703  10.675   3.440 -0.3033  0.2526  0.0832
  328MOL0     C44188   9.831  10.660   3.523 -0.0485  0.0805 -0.0931
  328MOL0    Cl44189   9.923  10.546   3.417  0.3869  0.0826 -0.4931
  328MOL0     C44190   8.697  10.846   3.834  0.5967 -0.0558  0.0513
  328MOL0     C44191   8.568  10.793   3.864  0.5488 -0.9943  0.1863
  328MOL0     O44192   8.358  10.635   3.643 -0.2762  0.3431 -0.0252
  328MOL0     C44193   8.138  10.542   3.915 -0.3691 -0.0351  0.6957
  328MOL0     C44194   8.010  10.518   3.945  0.0569  0.2722  0.2579
  328MOL0     N44195   7.143  10.402   3.660  0.0485  0.2665  0.4522
  328MOL0     N44196   7.054  10.399   3.567  0.8685 -0.1013 -0.2532
  328MOL0     C44197   6.082  10.734   3.191  0.2661 -0.5874 -0.1161
  328MOL0     C44198   5.941  10.738   3.207  0.8960 -0.4088 -0.9054
  328MOL0     C44199   5.557  10.897   3.420  0.1688  0.1544 -0.4296
  328MOL0     C44200   5.513  10.933   3.546  0.5039  0.6454 -0.2066
  328MOL0     C44201   5.381  10.934   3.585  0.6803  0.9539 -0.4846
  328MOL0     C44202   5.283  10.886   3.501  0.0009  0.2459 -0.1400
  328MOL0     O44203   5.157  10.871   3.543  0.1617  0.2939 -0.2389
  328MOL0     C44204   5.049  10.851   3.447 -0.1097  0.4321 -0.4064
  328MOL0     C44205   4.913  10.853   3.521 -0.3550 -0.3777  1.6298
  328MOL0     C44206   4.905  10.755   3.639  0.1051 -0.6654 -0.0228
  328MOL0     C44207   4.773  10.700   3.665 -0.0328 -0.2632 -0.5052
  328MOL0     C44208   4.669  10.801   3.710 -0.1026  0.5176  0.0188
  328MOL0     C44209   4.581  10.884   3.743 -0.8794 -0.3877 -0.6015
  328MOL0     C44210   5.324  10.854   3.370 -0.3920 -0.3198  0.0428
  328MOL0     C44211   5.455  10.866   3.325  0.0247  0.1892  0.7743
  328MOL0     C44212   5.475  10.841   3.178  0.2754 -0.3119 -0.2073
  328MOL0     H44213   5.903  11.062   3.265 -0.6903 -1.0775  0.9299
  328MOL0     H44214   6.133  11.069   3.224 -2.7148  0.8153  2.3950
  328MOL0     H44215   6.366  10.712   3.309  1.0233 -1.6651 -0.4692
  328MOL0     H44216   6.340  10.650   3.140 -0.8781 -0.1710  0.8990
  328MOL0     H44217   6.550  10.861   3.213 -1.3014 -1.0635 -0.1873
  328MOL0     H44218   6.538  10.754   3.068 -0.9285 -3.8458  0.4140
  328MOL0     H44219   6.577  10.558   3.184 -1.5171 -1.6067  3.0893
  328MOL0     H44220   6.569  10.631   3.348  0.1130  0.3627 -0.2673
  328MOL0     H44221   6.776  10.717   3.147  2.1694  1.7538  1.2264
  328MOL0     H44222   6.791  10.749   3.323  1.2833 -0.5301 -0.3206
  328MOL0     H44223   6.815  10.499   3.362  1.5779  3.7697  2.1077
  328MOL0     H44224   6.806  10.481   3.181 -0.4324  1.6434 -1.7497
  328MOL0     H44225   7.020  10.637   3.178  0.9802  1.0137  1.7564
  328MOL0     H44226   7.025  10.605   3.347 -0.0367  0.3694  0.3050
  328MOL0     H44227   7.149  10.463   3.190  0.4135 -0.4261  2.3179
  328MOL0     H44228   7.007  10.390   3.125  1.5542 -0.7102 -0.5940
  328MOL0     H44229   6.944  10.299   3.360  0.0512 -1.0691 -0.9140
  328MOL0     H44230   7.082  10.231   3.291 -0.5256  0.8388 -1.5821
  328MOL0     H44231   7.332  10.323   3.398 -0.0166  0.5827 -0.7678
  328MOL0     H44232   7.387  10.336   3.765  1.1875  1.1512  0.3402
  328MOL0     H44233   7.468  10.350   3.601 -2.0762 -2.7372 -0.4089
  328MOL0     H44234   7.466  10.608   3.641  4.0173 -0.3060  1.4606
  328MOL0     H44235   7.348  10.591   3.772  0.4256 -0.0659 -0.0824
  328MOL0     H44236   7.506  10.492   3.914  0.2348 -0.7040  0.2393
  328MOL0     H44237   7.533  10.653   3.836 -4.8722  0.2774 -1.1654
  328MOL0     H44238   7.701  10.540   3.687 -1.3938  1.8050  0.2797
  328MOL0     H44239   7.670  10.373   3.770  2.0621 -0.9231  0.9007
  328MOL0     H44240   7.884  10.566   3.633 -1.1483 -2.0260  0.2102
  328MOL0     H44241   8.105  10.592   3.574 -1.0006 -0.8219 -0.8549
  328MOL0     H44242   8.601  10.469   3.774 -2.8316  0.0763  2.1347
  328MOL0     H44243   8.838  10.544   3.725 -1.8647 -2.4966  0.1689
  328MOL0     H44244   9.018  10.652   3.673  1.5958 -0.4251 -3.6026
  328MOL0     H44245   8.936  10.755   3.550 -0.8531  1.3317  0.3572
  328MOL0     H44246   9.088  10.939   3.614  1.3639  0.0811  2.3575
  328MOL0     H44247   9.171  10.830   3.723  1.7202 -1.1373 -0.3374
  328MOL0     H44248   9.194  10.674   3.510  1.3522 -0.2495 -1.1168
  328MOL0     H44249   9.187  10.831   3.429  4.7967  2.2274 -0.4111
  328MOL0     H44250   9.378  10.798   3.653  0.4807 -3.1763 -0.6612
  328MOL0     H44251   9.375  10.929   3.542  0.3921 -0.0889 -0.4593
  328MOL0     H44252   9.432  10.757   3.365  0.8255  0.1232 -0.1081
  328MOL0     H44253   9.440  10.629   3.496  0.9777  0.1510 -1.5245
  328MOL0     H44254   9.628  10.871   3.468 -0.3528  0.4966 -0.0974
  328MOL0     H44255   9.604  10.775   3.612  1.8144  0.0074 -0.4219
  328MOL0     H44256   9.736  10.724   3.348 -0.4540  0.0142 -0.0980
  328MOL0     H44257   9.668  10.573   3.422 -2.0646  0.5525  1.5285
  328MOL0     H44258   9.892  10.750   3.537  0.0421 -0.1217  0.9205
  328MOL0     H44259   9.814  10.621   3.624 -0.6546 -2.1031 -0.9785
  328MOL0     H44260   8.725  10.949   3.853 -0.9329  0.7004 -1.5480
  328MOL0     H44261   8.490  10.852   3.912  0.2188 -1.9570  0.8666
  328MOL0     H44262   8.217  10.542   3.989  1.3617  2.3176 -0.9966
  328MOL0     H44263   7.988  10.498   4.049  0.9994  1.7868  0.7887
  328MOL0     H44264   6.130  10.637   3.184  0.7019 -0.4292  0.5777
  328MOL0     H44265   5.885  10.647   3.223 -0.0683  0.4230  0.6335
  328MOL0     H44266   5.584  10.961   3.623  0.5198  1.1434 -0.3984
  328MOL0     H44267   5.349  10.966   3.684 -0.8101  2.7738 -1.4749
  328MOL0     H44268   5.064  10.752   3.403 -1.8037  1.0926 -2.6618
  328MOL0     H44269   5.035  10.925   3.367 -0.1780  2.8180  1.6849
  328MOL0     H44270   4.832  10.816   3.458  1.5082 -4.1080  1.1560
  328MOL0     H44271   4.889  10.955   3.554  0.0769  0.2915 -0.0281
  328MOL0     H44272   4.933  10.803   3.733 -3.3640  0.9109  0.3512
  328MOL0     H44273   4.967  10.666   3.623 -1.7433 -2.3157  1.4523
  328MOL0     H44274   4.730  10.652   3.576 -4.8614  1.1228  0.7990
  328MOL0     H44275   4.782  10.615   3.734 -0.6155 -0.6448 -0.8931
  328MOL0     H44276   4.523  10.968   3.776  1.4314  0.8321  0.6423
  328MOL0     H44277   5.245  10.826   3.300 -3.4655 -1.0000  3.4311
  328MOL0     H44278   5.538  10.752   3.167 -0.9047 -1.3315  0.9908
  328MOL0     H44279   5.383  10.822   3.122 -0.0312  0.4748  0.0248
  328MOL0     H44280   5.523  10.929   3.135  0.8420 -0.9336 -0.8876
  329MOL0     O44281   5.251   6.875   9.726 -0.1049 -1.0074  0.4635
  329MOL0     C44282   5.181   6.785   9.764 -0.2933 -0.0585  0.6347
  329MOL0     O44283   5.214   6.693   9.861  0.0113  1.0771  0.1753
  329MOL0     C44284   5.330   6.691   9.937  0.7676  0.7368 -0.6869
  329MOL0     C44285   5.454   6.713   9.880  0.5574 -0.0340 -0.2304
  329MOL0     C44286   5.574   6.704   9.953  0.4470  0.6205 -0.5837
  329MOL0     C44287   5.565   6.678  10.088 -0.7712 -0.1734 -0.5339
  329MOL0     O44288   5.677   6.671  10.171 -0.7313  0.1637 -0.0411
  329MOL0     C44289   5.801   6.624  10.125  0.2793 -0.7815 -0.3152
  329MOL0     C44290   5.899   6.629  10.242  0.9132 -0.5919  0.6932
  329MOL0     C44291   6.032   6.579  10.208  0.5099  0.4575  0.6424
  329MOL0     C44292   6.121   6.546  10.326 -0.6884 -0.0623 -0.3114
  329MOL0     C44293   6.274   6.562  10.297 -0.2729  0.0677  0.1389
  329MOL0     C44294   6.321   6.465  10.183 -0.7708 -0.1680  0.0904
  329MOL0     C44295   6.460   6.506  10.128 -0.5724  0.1243  0.3515
  329MOL0     C44296   6.560   6.534  10.243  0.2628 -0.0924 -0.0041
  329MOL0     N44297   6.688   6.561  10.164  0.2586  0.2356 -0.0426
  329MOL0     C44298   6.717   6.670  10.082 -0.1429  0.0171  0.3421
  329MOL0     C44299   6.835   6.642  10.029  0.0620  0.3308 -0.1925
  329MOL0     C44300   6.920   6.732   9.933 -0.0518  0.9631  0.1622
  329MOL0     C44301   6.988   6.646   9.819  1.1954 -1.1923  0.3594
  329MOL0     C44302   7.033   6.731   9.705 -0.6179 -0.1851  0.0896
  329MOL0     C44303   7.110   6.658   9.595 -0.7041 -0.3549  0.1100
  329MOL0     O44304   7.247   6.632   9.624  0.0279 -0.0543 -0.1602
  329MOL0     C44305   7.342   6.729   9.619 -0.0697 -0.8194 -0.2120
  329MOL0     C44306   7.474   6.683   9.631  0.5030 -0.0225  0.3408
  329MOL0     C44307   7.585   6.767   9.606 -0.4840 -0.4434  0.5358
  329MOL0     C44308   7.567   6.900   9.579 -0.3639  0.2529 -0.1527
  329MOL0     C44309   7.678   6.997   9.547 -0.1559  0.4565  0.0887
  329MOL0     O44310   7.783   6.940   9.480  0.2767 -0.0255 -0.2138
  329MOL0     C44311   7.881   7.020   9.430  0.3147  0.1677  0.4356
  329MOL0     C44312   7.928   6.996   9.299  0.2467 -1.2252  0.4934
  329MOL0     C44313   8.035   7.076   9.255  0.7917  0.1457 -0.1694
  329MOL0     C44314   8.092   7.177   9.327 -0.5597  0.3724 -0.2680
  329MOL0     O44315   8.174   7.265   9.256  0.2110 -0.3162  0.2523
  329MOL0     C44316   8.313   7.243   9.279  0.1714  0.1426  0.8737
  329MOL0     C44317   8.398   7.308   9.177 -0.2770 -0.4194 -1.0227
  329MOL0     C44318   8.546   7.301   9.224  0.4358 -0.1582 -0.3627
  329MOL0     C44319   8.636   7.357   9.108  0.4573  1.1796  0.0811
  329MOL0     C44320   8.635   7.280   8.973  0.0346  0.3425 -0.2539
  329MOL0     C44321   8.772   7.266   8.911 -0.3956 -0.2421 -0.1592
  329MOL0     C44322   8.770   7.223   8.764  0.0899 -0.1695 -1.0585
  329MOL0     C44323   8.919   7.208   8.719  0.7234  0.2304  0.5030
  329MOL0    Cl44324   8.939   7.171   8.542  0.1909 -0.0397  0.4807
  329MOL0     C44325   8.047   7.193   9.457 -0.4718 -0.2986  0.4557
  329MOL0     C44326   7.946   7.117   9.510  0.6414  0.2226  1.1512
  329MOL0     O44327   7.657   7.117   9.560  0.0234 -0.8380  0.6479
  329MOL0     C44328   7.436   6.949   9.566  0.0787  0.4975  0.5312
  329MOL0     C44329   7.325   6.862   9.580  0.0030 -0.2439  0.0697
  329MOL0     N44330   6.876   6.519  10.087  0.4295 -0.5805  0.1535
  329MOL0     N44331   6.778   6.461  10.151  0.5306 -0.3128  0.2073
  329MOL0     C44332   5.438   6.646  10.147 -0.0422  0.2790 -0.2164
  329MOL0     C44333   5.321   6.652  10.076  0.5684  0.0895  0.0885
  329MOL0     C44334   5.041   6.769   9.696 -0.1949  0.1320  0.3432
  329MOL0     C44335   5.018   6.848   9.583  0.2831  0.0789 -0.0907
  329MOL0     C44336   4.902   6.823   9.510 -0.1612 -0.5563  0.0891
  329MOL0     C44337   4.804   6.731   9.541  0.0381 -0.0089  0.3161
  329MOL0     O44338   4.697   6.720   9.457 -0.6162  0.9476 -1.2597
  329MOL0     C44339   4.579   6.665   9.529  0.1536 -0.7061  0.6158
  329MOL0     C44340   4.458   6.711   9.448 -0.5356  0.5033  0.4318
  329MOL0     C44341   4.442   6.619   9.329  0.2129 -0.3326  0.9229
  329MOL0     C44342   4.329   6.660   9.243  0.2215 -0.3263 -0.0034
  329MOL0     C44343   4.209   6.619   9.315 -0.2401  0.6024  0.1192
  329MOL0     C44344   4.106   6.598   9.375  0.4693  0.1490 -0.6749
  329MOL0     C44345   4.831   6.663   9.653 -0.7405  1.5790  0.0926
  329MOL0     C44346   4.945   6.680   9.734  0.6636  0.4648  0.2245
  329MOL0     C44347   4.961   6.581   9.847  0.0132  0.4343 -0.2565
  329MOL0     H44348   5.471   6.736   9.775  1.2229  1.3587  0.1493
  329MOL0     H44349   5.671   6.718   9.907  0.9679 -2.7824 -0.8229
  329MOL0     H44350   5.795   6.521  10.090  1.3152 -1.7309  2.0374
  329MOL0     H44351   5.837   6.702  10.056  2.9166 -2.8017 -1.4060
  329MOL0     H44352   5.859   6.580  10.331  0.4210 -1.2055  0.1376
  329MOL0     H44353   5.898   6.732  10.279  0.3094  0.2157 -1.3855
  329MOL0     H44354   6.078   6.655  10.143 -2.0024 -0.2207 -2.1303
  329MOL0     H44355   6.021   6.488  10.149  0.0313 -0.7076  2.4550
  329MOL0     H44356   6.100   6.602  10.417  0.4266  0.2291 -0.2257
  329MOL0     H44357   6.094   6.442  10.346 -3.0745  0.6510  0.4948
  329MOL0     H44358   6.305   6.664  10.271 -3.0779  0.5769 -1.7105
  329MOL0     H44359   6.324   6.539  10.391 -3.3200  3.8925  3.0600
  329MOL0     H44360   6.326   6.365  10.226  3.4678 -0.5422 -0.9077
  329MOL0     H44361   6.254   6.462  10.096 -2.0224 -5.2339  0.9168
  329MOL0     H44362   6.453   6.592  10.060  0.0852  1.7189  2.1994
  329MOL0     H44363   6.493   6.419  10.071  0.0182  1.5077 -1.5220
  329MOL0     H44364   6.535   6.623  10.302 -0.0260  0.8551 -1.5025
  329MOL0     H44365   6.577   6.450  10.310  1.0104  0.1786  0.1580
  329MOL0     H44366   6.656   6.757  10.062  1.1448  0.4892 -1.8877
  329MOL0     H44367   6.860   6.813   9.891  0.4406 -0.3152 -3.3457
  329MOL0     H44368   6.993   6.787   9.992 -2.7728  2.3024  2.5276
  329MOL0     H44369   7.074   6.592   9.861  0.1982 -1.5827  2.0032
  329MOL0     H44370   6.911   6.578   9.784 -0.6382  2.0308 -2.4413
  329MOL0     H44371   7.087   6.817   9.745 -0.5736  1.3137 -2.8769
  329MOL0     H44372   6.944   6.777   9.661 -0.9527  1.1699  2.0632
  329MOL0     H44373   7.110   6.720   9.505 -0.8264 -1.2057 -0.4938
  329MOL0     H44374   7.054   6.566   9.572 -2.2408  1.0909 -2.3849
  329MOL0     H44375   7.488   6.580   9.664  2.8187 -0.1625 -0.8286
  329MOL0     H44376   7.687   6.736   9.628  0.2246  2.0207  1.0727
  329MOL0     H44377   7.887   6.926   9.227 -0.3605  0.3196 -0.7162
  329MOL0     H44378   8.078   7.061   9.157 -1.1774 -2.8511 -0.6866
  329MOL0     H44379   8.337   7.277   9.380  1.0230  0.4598  0.5750
  329MOL0     H44380   8.331   7.136   9.264 -1.9985  0.0890 -2.2423
  329MOL0     H44381   8.388   7.243   9.089  0.6777 -2.0189  0.0009
  329MOL0     H44382   8.367   7.407   9.142  0.1179  0.2899  0.5686
  329MOL0     H44383   8.567   7.345   9.323 -1.9529 -1.6446  0.8982
  329MOL0     H44384   8.571   7.196   9.238  1.5436  0.2787  1.2792
  329MOL0     H44385   8.740   7.366   9.141  0.8685  0.3232 -0.9331
  329MOL0     H44386   8.594   7.454   9.079 -2.2094  0.9148  2.5957
  329MOL0     H44387   8.563   7.339   8.915 -2.6394 -3.0147 -0.6510
  329MOL0     H44388   8.611   7.174   8.986  4.1007 -0.8013 -0.6716
  329MOL0     H44389   8.825   7.360   8.928  1.1342 -0.9999 -0.6021
  329MOL0     H44390   8.826   7.197   8.976 -3.0100  0.1768  2.7274
  329MOL0     H44391   8.721   7.303   8.706 -1.4427  0.7509  1.3632
  329MOL0     H44392   8.714   7.129   8.757 -2.6185  1.1659  0.7373
  329MOL0     H44393   8.965   7.303   8.750  3.0918 -0.4480 -0.7466
  329MOL0     H44394   8.970   7.134   8.781 -1.5643 -1.1135  0.8850
  329MOL0     H44395   8.088   7.274   9.516 -0.3190 -1.1818  1.5830
  329MOL0     H44396   7.915   7.129   9.613 -1.1801  2.9696  0.4028
  329MOL0     H44397   7.417   7.054   9.544 -0.1415  0.5648  1.0331
  329MOL0     H44398   7.225   6.904   9.569 -0.0822 -0.5737 -0.4547
  329MOL0     H44399   5.444   6.619  10.252 -0.5941 -0.5282 -0.3849
  329MOL0     H44400   5.224   6.632  10.122  0.4986  1.0110  0.3534
  329MOL0     H44401   5.094   6.920   9.554  1.3164 -0.5643  0.9207
  329MOL0     H44402   4.900   6.872   9.413  2.1659  2.8201  1.5356
  329MOL0     H44403   4.568   6.702   9.631 -2.1493 -0.2218  0.2505
  329MOL0     H44404   4.584   6.556   9.531  1.2544 -0.7335 -1.2664
  329MOL0     H44405   4.464   6.814   9.411 -1.8010 -0.0918 -1.6418
  329MOL0     H44406   4.367   6.689   9.505 -0.1815 -1.0241  0.4505
  329MOL0     H44407   4.432   6.516   9.365 -2.0515 -0.7300 -0.6236
  329MOL0     H44408   4.535   6.620   9.272  0.7330  1.8941  1.7346
  329MOL0     H44409   4.332   6.768   9.227 -3.7728 -0.4058 -2.6840
  329MOL0     H44410   4.326   6.610   9.146 -0.1051 -1.8104  0.7429
  329MOL0     H44411   4.019   6.586   9.436 -0.0666  1.9471 -1.0264
  329MOL0     H44412   4.768   6.582   9.687 -1.6867  2.8952  1.6332
  329MOL0     H44413   4.992   6.631   9.939 -1.2269  1.9663 -0.6296
  329MOL0     H44414   4.867   6.534   9.877 -0.1169  2.2660  2.6200
  329MOL0     H44415   5.019   6.494   9.816  0.7377  1.7472 -2.9789
  330MOL0     O44416   2.488  10.804   4.233 -0.3215  0.5753 -0.1437
  330MOL0     C44417   2.412  10.893   4.261  1.2626  0.1990 -0.1336
  330MOL0     O44418   2.434  11.001   4.345  0.1044  0.2697 -0.2101
  330MOL0     C44419   2.553  11.033   4.409 -0.0334 -0.6598  0.4352
  330MOL0     C44420   2.560  11.165   4.450 -0.4947  0.1490  0.0679
  330MOL0     C44421   2.666  11.197   4.530 -0.4482  0.2766  0.4215
  330MOL0     C44422   2.778  11.117   4.558  0.0852 -0.2782  0.7426
  330MOL0     O44423   2.887  11.151   4.638  0.1357  0.3753 -0.0944
  330MOL0     C44424   2.944  11.274   4.600 -0.3086 -0.4110 -1.2450
  330MOL0     C44425   3.103  11.249   4.612  0.6102  0.0385 -0.3816
  330MOL0     C44426   3.148  11.130   4.520 -0.4161 -0.2945  0.4485
  330MOL0     C44427   3.306  11.118   4.516 -0.0727 -0.1943 -0.6019
  330MOL0     C44428   3.354  11.023   4.405 -0.5440 -0.5770 -0.4802
  330MOL0     C44429   3.501  10.987   4.439  0.4320  0.0313  0.2817
  330MOL0     C44430   3.607  11.092   4.440 -0.1369  0.1975 -0.1799
  330MOL0     C44431   3.621  11.157   4.307  0.2529  0.0614 -0.0126
  330MOL0     N44432   3.740  11.235   4.284 -0.3088  0.4842 -0.0841
  330MOL0     C44433   3.779  11.341   4.364 -0.0406  0.2902  0.8391
  330MOL0     C44434   3.893  11.379   4.304 -0.0468  0.8188  0.7038
  330MOL0     C44435   3.983  11.488   4.366  0.5565  0.5270  0.0986
  330MOL0     C44436   4.132  11.456   4.330  0.0260  0.2239 -0.0316
  330MOL0     C44437   4.160  11.510   4.184 -0.3197  0.3811  0.1680
  330MOL0     C44438   4.316  11.507   4.170 -0.2890  0.0876  0.3084
  330MOL0     O44439   4.369  11.588   4.269  0.3346 -1.3313  0.4113
  330MOL0     C44440   4.503  11.598   4.284  0.2510  0.2252 -0.8474
  330MOL0     C44441   4.602  11.533   4.207 -0.5187 -0.1118  0.3473
  330MOL0     C44442   4.740  11.558   4.230  0.3098  0.4484 -0.0774
  330MOL0     C44443   4.782  11.637   4.335  0.0311 -0.5469  0.1160
  330MOL0     C44444   4.922  11.654   4.374 -0.7602  0.3914  1.1995
  330MOL0     O44445   4.953  11.767   4.440  0.1655  0.3130  0.4906
  330MOL0     C44446   5.085  11.773   4.471 -0.1998 -0.6617 -1.0729
  330MOL0     C44447   5.127  11.809   4.600  0.1108 -0.9075  0.0293
  330MOL0     C44448   5.261  11.838   4.636  0.3139 -0.3578 -0.9204
  330MOL0     C44449   5.361  11.822   4.540  0.3289 -0.1091  0.2594
  330MOL0     O44450   5.490  11.834   4.556 -0.0038 -0.2323 -0.4946
  330MOL0     C44451   5.533  11.765   4.681  0.4393  0.1275  0.0907
  330MOL0     C44452   5.680  11.769   4.692  0.1027  0.3433  0.1538
  330MOL0     C44453   5.751  11.688   4.579 -0.8626 -0.0749 -1.0801
  330MOL0     C44454   5.779  11.768   4.455 -1.2291 -0.2575  0.4784
  330MOL0     C44455   5.845  11.678   4.352 -0.4574  0.3125  1.8316
  330MOL0     C44456   5.988  11.637   4.392  0.8046 -0.5353  0.2255
  330MOL0     C44457   6.049  11.537   4.302  0.9332 -0.4962  0.1442
  330MOL0     C44458   6.198  11.528   4.331  0.1246  0.2572  0.1891
  330MOL0    Cl44459   6.283  11.660   4.260 -0.2070  0.5411  0.0980
  330MOL0     C44460   5.324  11.808   4.408 -0.7612  0.3788 -0.0818
  330MOL0     C44461   5.188  11.787   4.373  0.3806 -0.0772  0.4201
  330MOL0     O44462   4.992  11.554   4.357 -0.1449  0.6005  1.2357
  330MOL0     C44463   4.684  11.703   4.406  0.1017 -1.1375  0.4834
  330MOL0     C44464   4.544  11.687   4.378 -0.4214 -0.4933  0.4508
  330MOL0     N44465   3.913  11.314   4.183 -0.5740  0.2645 -0.0622
  330MOL0     N44466   3.819  11.227   4.176  0.3588 -0.4919  0.2620
  330MOL0     C44467   2.774  10.988   4.496  0.3194 -0.4306 -0.2261
  330MOL0     C44468   2.661  10.948   4.421  0.3899 -0.0068  0.7064
  330MOL0     C44469   2.281  10.908   4.189  0.3561 -0.4856 -0.3849
  330MOL0     C44470   2.216  11.035   4.189 -1.0582 -0.7382  0.2492
  330MOL0     C44471   2.103  11.057   4.123  0.6209 -0.1334  0.1348
  330MOL0     C44472   2.028  10.956   4.065 -0.8508  0.0987  0.5324
  330MOL0     O44473   1.898  10.964   4.016  0.4244  0.0753 -0.8377
  330MOL0     C44474   1.838  11.093   3.989  0.0770  0.0826  0.2319
  330MOL0     C44475   1.772  11.162   4.099 -0.7303  0.7865 -0.1622
  330MOL0     C44476   1.639  11.090   4.124 -0.2551 -0.3161 -0.1353
  330MOL0     C44477   1.605  11.086   4.275 -0.0667  0.2269  0.8368
  330MOL0     C44478   1.474  11.023   4.283  0.2772  0.6222 -0.4011
  330MOL0     C44479   1.363  10.975   4.298  0.4002  0.0195  0.3660
  330MOL0     C44480   2.085  10.831   4.065 -0.1366 -0.4729  0.6151
  330MOL0     C44481   2.215  10.802   4.124 -0.0743 -0.3837  0.0100
  330MOL0     C44482   2.256  10.654   4.122 -0.1090  0.6842 -0.3003
  330MOL0     H44483   2.485  11.240   4.425  0.5823  0.2380 -3.5033
  330MOL0     H44484   2.656  11.292   4.581  0.8329  0.4992  0.2933
  330MOL0     H44485   2.914  11.307   4.500 -3.4901 -1.6845 -0.8245
  330MOL0     H44486   2.911  11.353   4.668 -0.7161 -0.7548 -1.0397
  330MOL0     H44487   3.133  11.220   4.713 -0.9749  0.2643  0.1674
  330MOL0     H44488   3.152  11.337   4.571  1.1632 -1.5908 -3.5809
  330MOL0     H44489   3.117  11.161   4.420  0.9139 -0.2453  0.0266
  330MOL0     H44490   3.100  11.033   4.536 -4.6590  0.9519 -2.9388
  330MOL0     H44491   3.346  11.219   4.506 -1.3069  0.4417  0.5096
  330MOL0     H44492   3.342  11.084   4.613 -1.3893 -0.0733 -0.0468
  330MOL0     H44493   3.298  10.929   4.403  0.6087 -1.2967 -0.0856
  330MOL0     H44494   3.334  11.073   4.309  1.0967 -0.1350 -0.6137
  330MOL0     H44495   3.496  10.942   4.538  2.5383  0.1804  0.4925
  330MOL0     H44496   3.530  10.903   4.375 -0.7557 -0.8190  0.8296
  330MOL0     H44497   3.699  11.038   4.462 -1.1064 -0.4981  2.5975
  330MOL0     H44498   3.585  11.171   4.512 -1.3860  0.8865 -1.2757
  330MOL0     H44499   3.611  11.082   4.228  3.4274 -0.1323 -0.3615
  330MOL0     H44500   3.535  11.225   4.298  0.3920  0.3128  0.4972
  330MOL0     H44501   3.731  11.379   4.454 -1.1963  0.6245  0.1048
  330MOL0     H44502   3.958  11.588   4.330  0.7980  1.8088  3.2099
  330MOL0     H44503   3.980  11.491   4.475 -0.2049  2.1429  0.0579
  330MOL0     H44504   4.191  11.505   4.408 -1.6629  2.4725 -0.0602
  330MOL0     H44505   4.154  11.349   4.328 -0.6433  0.0895 -1.2632
  330MOL0     H44506   4.126  11.613   4.169  0.5772  0.8814  1.4951
  330MOL0     H44507   4.124  11.448   4.101  0.8753 -0.4762  0.2626
  330MOL0     H44508   4.346  11.541   4.071  0.1232 -0.1381  0.3523
  330MOL0     H44509   4.360  11.408   4.183  1.9475  0.5001 -3.0730
  330MOL0     H44510   4.572  11.456   4.137 -1.5081 -0.2061  0.8588
  330MOL0     H44511   4.816  11.506   4.173  1.2143  1.2217  0.3903
  330MOL0     H44512   5.053  11.823   4.677  0.2421  0.1489 -0.0202
  330MOL0     H44513   5.280  11.879   4.735 -0.6858 -3.0326  0.4742
  330MOL0     H44514   5.485  11.820   4.763 -2.0109  0.9007 -1.7555
  330MOL0     H44515   5.506  11.659   4.683  0.8006  0.0247 -0.3143
  330MOL0     H44516   5.714  11.872   4.701 -1.9554  1.0027  0.7936
  330MOL0     H44517   5.707  11.719   4.786 -1.7462  0.9312  1.0330
  330MOL0     H44518   5.840  11.645   4.627 -0.2834  2.2015  0.0923
  330MOL0     H44519   5.685  11.612   4.537 -1.2810  0.2842 -1.0871
  330MOL0     H44520   5.849  11.850   4.475 -1.7487  0.3586 -0.1846
  330MOL0     H44521   5.691  11.808   4.403 -0.0219  0.9025 -0.7502
  330MOL0     H44522   5.855  11.719   4.252  0.7855 -2.1101  0.8639
  330MOL0     H44523   5.791  11.585   4.331 -0.6320  0.7579  0.1887
  330MOL0     H44524   6.050  11.726   4.410  0.8338 -0.5884  0.3926
  330MOL0     H44525   5.988  11.585   4.488  2.4414 -3.8315 -1.3975
  330MOL0     H44526   6.027  11.562   4.198 -1.6896 -2.1596  0.2020
  330MOL0     H44527   5.992  11.445   4.321 -3.4043  1.8249 -0.4152
  330MOL0     H44528   6.219  11.520   4.438 -3.5571 -3.1216  0.9383
  330MOL0     H44529   6.235  11.434   4.288 -0.2489  0.3564 -0.3621
  330MOL0     H44530   5.401  11.813   4.332  0.4882  1.7998  1.2118
  330MOL0     H44531   5.169  11.773   4.267  1.8532 -1.0456  0.2450
  330MOL0     H44532   4.714  11.756   4.495 -0.5363  1.3019 -0.6607
  330MOL0     H44533   4.468  11.736   4.438 -1.5784 -0.3558 -1.0714
  330MOL0     H44534   2.846  10.909   4.518  1.8473  0.8723 -0.2948
  330MOL0     H44535   2.664  10.846   4.383  0.1358  0.6524 -1.2087
  330MOL0     H44536   2.267  11.125   4.222  1.1886 -1.9999  0.4067
  330MOL0     H44537   2.068  11.159   4.113  2.7306  0.7977  1.5510
  330MOL0     H44538   1.757  11.067   3.920 -0.9222 -2.1162  2.1394
  330MOL0     H44539   1.907  11.164   3.941 -0.6221  0.3813 -0.3479
  330MOL0     H44540   1.748  11.265   4.071 -1.4448  0.9994  1.1368
  330MOL0     H44541   1.844  11.166   4.181 -2.0225  1.6220  0.9715
  330MOL0     H44542   1.635  10.994   4.073 -1.3097 -0.1834 -0.3297
  330MOL0     H44543   1.555  11.149   4.086 -0.8639 -0.2311  1.2533
  330MOL0     H44544   1.676  11.015   4.319  1.7382  1.6487  0.3098
  330MOL0     H44545   1.617  11.185   4.319  0.6695  0.8685 -0.7489
  330MOL0     H44546   1.266  10.935   4.319  0.6048 -1.2826 -0.9761
  330MOL0     H44547   2.034  10.754   4.008  0.9012 -0.5098 -0.3041
  330MOL0     H44548   2.287  10.625   4.223 -0.0031 -0.2543 -0.5920
  330MOL0     H44549   2.174  10.593   4.083  1.2036 -1.2312 -0.1912
  330MOL0     H44550   2.343  10.637   4.058 -0.1285  0.2771 -0.2217
  331MOL0     O44551   5.092   4.935   7.935  0.3748  0.3825 -0.6725
  331MOL0     C44552   5.079   4.859   8.036  0.4092 -0.0703 -0.3491
  331MOL0     O44553   5.176   4.841   8.134  0.0333 -0.0857  0.9577
  331MOL0     C44554   5.297   4.889   8.114  0.1787  0.2509  0.1838
  331MOL0     C44555   5.379   4.843   8.018  0.0948  0.4629  0.0670
  331MOL0     C44556   5.499   4.912   7.995 -0.3501  0.3304  0.2516
  331MOL0     C44557   5.539   5.018   8.070  0.0585 -0.4314 -0.5725
  331MOL0     O44558   5.655   5.082   8.056 -0.0797 -0.1652 -0.0453
  331MOL0     C44559   5.772   5.012   7.997  0.6388  0.7944  0.3558
  331MOL0     C44560   5.886   5.086   8.051 -0.1388  0.0921 -0.9241
  331MOL0     C44561   6.018   5.015   8.017  0.5754 -0.1315  0.0931
  331MOL0     C44562   6.036   4.971   7.872  0.0417  0.4183 -0.3069
  331MOL0     C44563   6.162   4.884   7.845 -0.1837  0.0113  0.5096
  331MOL0     C44564   6.296   4.971   7.844 -0.0201  0.6767  0.2837
  331MOL0     C44565   6.420   4.873   7.829 -0.5038  0.3562 -0.0646
  331MOL0     C44566   6.447   4.784   7.957  0.2811  0.0293  0.4552
  331MOL0     N44567   6.541   4.673   7.918 -0.7752 -0.6588  0.2699
  331MOL0     C44568   6.676   4.693   7.868 -0.6145 -0.5837 -0.3553
  331MOL0     C44569   6.707   4.562   7.837  0.2580 -0.6805 -0.2088
  331MOL0     C44570   6.845   4.524   7.806 -0.4573  0.2084 -0.2321
  331MOL0     C44571   6.919   4.515   7.940  0.4458  0.2545  0.0238
  331MOL0     C44572   7.073   4.496   7.926  0.1757 -0.0024 -0.0905
  331MOL0     C44573   7.140   4.511   8.059 -0.2532 -0.1716  0.7819
  331MOL0     O44574   7.142   4.649   8.101 -0.0595 -0.1957 -0.6960
  331MOL0     C44575   7.268   4.691   8.124 -0.3165  0.1776 -0.7366
  331MOL0     C44576   7.350   4.638   8.223  0.5787 -0.2727  0.5931
  331MOL0     C44577   7.485   4.672   8.211 -0.1282  0.1203 -0.4826
  331MOL0     C44578   7.529   4.766   8.113  0.5005 -0.4124 -0.0356
  331MOL0     C44579   7.672   4.804   8.102 -0.5496 -0.0356 -0.0680
  331MOL0     O44580   7.750   4.779   8.211 -0.1155  0.0188 -0.3585
  331MOL0     C44581   7.878   4.803   8.203 -0.8281  0.1196  0.0827
  331MOL0     C44582   7.930   4.940   8.212  1.2001  0.3065 -1.6602
  331MOL0     C44583   8.067   4.963   8.227 -0.9613 -0.1504 -0.3316
  331MOL0     C44584   8.159   4.857   8.237  1.1698 -0.5010  0.3159
  331MOL0     O44585   8.287   4.885   8.253  0.1053  0.4388  0.8283
  331MOL0     C44586   8.381   4.780   8.245  0.5068 -0.3971 -0.9000
  331MOL0     C44587   8.503   4.855   8.298 -0.4398 -1.0315 -0.6468
  331MOL0     C44588   8.626   4.772   8.298 -0.0089  0.3772  0.2915
  331MOL0     C44589   8.757   4.841   8.259  0.0310  0.4107  0.1227
  331MOL0     C44590   8.868   4.754   8.311 -0.6082  0.5675 -0.0228
  331MOL0     C44591   9.011   4.803   8.270  0.2230 -0.1408 -1.1932
  331MOL0     C44592   9.023   4.802   8.119  0.3774 -0.5914 -0.5426
  331MOL0     C44593   9.165   4.797   8.069 -0.5457 -0.2061 -0.4571
  331MOL0    Cl44594   9.261   4.946   8.099  0.6362 -0.2104 -0.2771
  331MOL0     C44595   8.108   4.727   8.219 -0.0912  0.6015  0.4914
  331MOL0     C44596   7.969   4.701   8.204  0.2053 -0.3839 -0.4982
  331MOL0     O44597   7.718   4.859   7.999 -0.3100 -0.9761 -0.4005
  331MOL0     C44598   7.434   4.834   8.033  0.0923 -0.4210  0.0815
  331MOL0     C44599   7.307   4.790   8.035 -0.1964  0.6206 -0.2625
  331MOL0     N44600   6.600   4.476   7.853  0.3976 -0.0549  0.0772
  331MOL0     N44601   6.510   4.541   7.912 -0.1059 -0.0668 -0.3036
  331MOL0     C44602   5.441   5.068   8.162  0.2798 -0.1097  0.1060
  331MOL0     C44603   5.323   5.005   8.180 -0.4667 -0.1245 -0.2180
  331MOL0     C44604   4.956   4.789   8.063 -0.2041 -0.4118  0.2731
  331MOL0     C44605   4.964   4.677   8.148 -0.3529 -0.3504  0.0509
  331MOL0     C44606   4.848   4.621   8.203 -0.5392  0.2739 -0.1109
  331MOL0     C44607   4.722   4.665   8.167 -0.7688 -0.1167 -0.1789
  331MOL0     O44608   4.598   4.616   8.209 -0.6406 -0.2943 -0.6119
  331MOL0     C44609   4.606   4.528   8.325 -0.6490 -0.0901 -0.0512
  331MOL0     C44610   4.469   4.467   8.334 -0.1643  0.4374  0.2227
  331MOL0     C44611   4.481   4.352   8.432  0.8707  0.5193 -0.5771
  331MOL0     C44612   4.361   4.255   8.420 -0.0259 -0.3803 -0.3658
  331MOL0     C44613   4.235   4.317   8.451 -0.2032  0.3767  0.6414
  331MOL0     C44614   4.131   4.375   8.453 -0.3494  0.5496 -0.5211
  331MOL0     C44615   4.713   4.766   8.076 -0.3767  0.0120  0.3140
  331MOL0     C44616   4.828   4.835   8.032  0.1805 -0.3224  0.4491
  331MOL0     C44617   4.814   4.958   7.935  0.0258  1.0621 -0.5238
  331MOL0     H44618   5.344   4.759   7.959  0.3733  0.5960 -0.2927
  331MOL0     H44619   5.557   4.889   7.906  0.6331  1.6205  0.5293
  331MOL0     H44620   5.785   4.904   8.006  3.2551  1.0886  0.9770
  331MOL0     H44621   5.772   5.031   7.889 -3.6222 -4.8532 -1.0961
  331MOL0     H44622   5.876   5.088   8.160  0.3245  1.9787 -0.8801
  331MOL0     H44623   5.886   5.193   8.028  1.2890  0.8730  2.2022
  331MOL0     H44624   6.027   4.931   8.086 -1.1402 -0.3174  0.1251
  331MOL0     H44625   6.104   5.082   8.031  0.4992 -0.0418  0.1312
  331MOL0     H44626   5.956   4.901   7.847 -0.5521  1.6851 -2.1715
  331MOL0     H44627   6.036   5.068   7.821 -3.3198 -0.0714 -1.5056
  331MOL0     H44628   6.166   4.805   7.920  1.6123 -2.9119 -2.4023
  331MOL0     H44629   6.155   4.829   7.751 -0.8803 -0.5716  0.8974
  331MOL0     H44630   6.284   5.025   7.750 -2.1480  0.0382  0.1362
  331MOL0     H44631   6.310   5.035   7.932  2.3506 -1.8051  1.8725
  331MOL0     H44632   6.508   4.931   7.799  0.4054 -2.3294 -3.2275
  331MOL0     H44633   6.405   4.813   7.739  0.6651  0.3327 -0.2533
  331MOL0     H44634   6.492   4.837   8.042  2.1478 -1.8499  0.7234
  331MOL0     H44635   6.351   4.742   7.989 -0.2399  1.8071  1.4103
  331MOL0     H44636   6.732   4.785   7.864 -2.3992  0.5462 -0.4007
  331MOL0     H44637   6.853   4.431   7.749  0.3139 -0.0557  0.2943
  331MOL0     H44638   6.891   4.591   7.732 -0.4716  0.9897  0.4505
  331MOL0     H44639   6.902   4.599   8.008 -0.9733 -0.6254  0.8231
  331MOL0     H44640   6.869   4.436   7.998  0.3832 -0.0154 -0.3943
  331MOL0     H44641   7.119   4.568   7.858  1.4722 -0.5185  0.2018
  331MOL0     H44642   7.086   4.392   7.894  0.8694 -0.3144  1.1427
  331MOL0     H44643   7.239   4.465   8.051  0.2559  1.1376 -1.1902
  331MOL0     H44644   7.079   4.464   8.136 -3.1551  1.2966 -0.4759
  331MOL0     H44645   7.315   4.557   8.286 -1.0387  0.0324  0.1152
  331MOL0     H44646   7.554   4.625   8.280 -2.6267 -4.2758 -0.5946
  331MOL0     H44647   7.857   5.019   8.199  3.4029  2.1227 -3.9733
  331MOL0     H44648   8.106   5.063   8.238 -1.8527  0.3384 -1.3890
  331MOL0     H44649   8.351   4.704   8.318  0.8468 -0.2556 -0.6101
  331MOL0     H44650   8.392   4.744   8.143 -1.5511 -2.2097 -0.5509
  331MOL0     H44651   8.525   4.937   8.229 -0.5243 -0.5165 -0.0698
  331MOL0     H44652   8.477   4.898   8.395 -3.4321  1.3408 -2.3143
  331MOL0     H44653   8.638   4.724   8.396  1.7751 -0.1995 -0.1627
  331MOL0     H44654   8.609   4.694   8.222 -0.0096  0.7967 -0.1436
  331MOL0     H44655   8.763   4.944   8.295 -0.2745  0.2928  0.5168
  331MOL0     H44656   8.765   4.840   8.150  0.7139  2.7398  0.1044
  331MOL0     H44657   8.853   4.648   8.286  0.6124  0.4737 -0.4340
  331MOL0     H44658   8.870   4.755   8.421  0.8389  0.5790 -0.0330
  331MOL0     H44659   9.022   4.903   8.312 -1.9496  0.9683 -3.0335
  331MOL0     H44660   9.082   4.731   8.311  1.7530  1.2488 -1.2986
  331MOL0     H44661   8.975   4.890   8.076 -0.3464 -0.5368  0.3360
  331MOL0     H44662   8.986   4.704   8.090  0.0306 -0.5407 -0.2778
  331MOL0     H44663   9.229   4.720   8.112  0.0452 -0.1481 -1.2003
  331MOL0     H44664   9.170   4.780   7.961  1.6969 -0.8341 -0.3103
  331MOL0     H44665   8.174   4.641   8.215 -1.9548 -1.0669  2.6687
  331MOL0     H44666   7.938   4.597   8.209 -1.5278  0.0864 -0.8856
  331MOL0     H44667   7.473   4.919   7.978  0.4278  0.7966  2.0673
  331MOL0     H44668   7.232   4.829   7.967 -0.0630  2.5687  0.6252
  331MOL0     H44669   5.475   5.159   8.212  4.7827 -1.3251 -0.3115
  331MOL0     H44670   5.252   5.026   8.259 -0.6160 -4.2641  0.9972
  331MOL0     H44671   5.062   4.641   8.175  0.7783  0.2715 -2.8779
  331MOL0     H44672   4.861   4.540   8.273 -0.5414 -0.2209 -0.6712
  331MOL0     H44673   4.633   4.592   8.409 -1.1909 -0.4426  0.4000
  331MOL0     H44674   4.676   4.445   8.310  0.5040  1.0083 -0.9608
  331MOL0     H44675   4.450   4.432   8.231 -2.1334  1.8099  0.0807
  331MOL0     H44676   4.400   4.544   8.367  0.9960  1.3357  0.6212
  331MOL0     H44677   4.488   4.380   8.537  1.4915  0.8873 -0.7153
  331MOL0     H44678   4.565   4.287   8.405  1.3417  1.0502 -0.3880
  331MOL0     H44679   4.353   4.212   8.320  0.6596 -0.0317 -0.5805
  331MOL0     H44680   4.380   4.174   8.492 -0.8623  1.1048  1.6138
  331MOL0     H44681   4.034   4.422   8.449 -0.6894  0.0495  1.0752
  331MOL0     H44682   4.625   4.817   8.038  1.4511  2.6982 -0.6728
  331MOL0     H44683   4.713   4.995   7.913  0.4776  1.4282 -2.1908
  331MOL0     H44684   4.869   5.047   7.967  0.8947  0.6431 -0.8252
  331MOL0     H44685   4.852   4.929   7.837 -1.6270  2.1755 -1.5589
  332MOL0     O44686  11.186   6.891   5.136 -0.5894  1.4601  0.6000
  332MOL0     C44687  11.144   6.863   5.248 -0.3250  0.6061  0.8344
  332MOL0     O44688  11.227   6.832   5.355  0.1655  0.0354 -0.4808
  332MOL0     C44689  11.366   6.854   5.340 -0.0416  0.5244 -0.7957
  332MOL0     C44690  11.434   6.953   5.261 -0.5319  0.3126  0.1824
  332MOL0     C44691  11.568   6.966   5.277 -0.1936 -0.3368  1.2262
  332MOL0     C44692  11.643   6.869   5.346 -0.7787 -0.3456  0.4273
  332MOL0     O44693  11.781   6.887   5.376  0.0988 -0.3774 -0.1379
  332MOL0     C44694  11.858   6.922   5.255 -0.5395 -0.6119 -0.4471
  332MOL0     C44695  12.010   6.879   5.278  0.7577  0.4914  0.4953
  332MOL0     C44696  12.084   6.953   5.393 -0.3330  0.2815 -0.5894
  332MOL0     C44697  12.204   6.869   5.451  0.2575 -0.1170  0.2834
  332MOL0     C44698  12.319   6.882   5.361 -0.7598  0.6162  0.8232
  332MOL0     C44699  12.426   6.776   5.384 -0.4437 -0.4657 -0.2694
  332MOL0     C44700  12.562   6.815   5.325  0.4693  0.8454  0.8561
  332MOL0     C44701  12.650   6.691   5.312 -0.6200  1.0706  0.2227
  332MOL0     N44702  12.790   6.722   5.300 -0.6981  1.0595  0.3752
  332MOL0     C44703  12.842   6.758   5.175  0.8401 -0.1920 -1.0188
  332MOL0     C44704  12.973   6.736   5.197 -1.2305 -0.4675  0.5157
  332MOL0     C44705  13.082   6.752   5.088 -0.0510  0.6274  0.5971
  332MOL0     C44706  13.106   6.617   5.015  0.0821 -0.2745 -0.0682
  332MOL0     C44707  13.190   6.661   4.886  1.3264 -0.0351 -0.4579
  332MOL0     C44708  13.334   6.699   4.922  0.0132  0.1558  0.4686
  332MOL0     O44709  13.384   6.750   4.801  0.1218  0.0255  0.8339
  332MOL0     C44710  13.524   6.769   4.801  0.3934  0.5214  0.2767
  332MOL0     C44711  13.619   6.725   4.893 -1.0835 -0.5354 -0.4642
  332MOL0     C44712  13.756   6.758   4.878 -0.0099  0.6637  0.2126
  332MOL0     C44713  13.805   6.830   4.769  0.1659 -0.1724 -0.7268
  332MOL0     C44714  13.947   6.871   4.744 -0.8786  0.0977 -1.1554
  332MOL0     O44715  14.038   6.834   4.839 -0.2532 -0.7330 -0.7684
  332MOL0     C44716  14.175   6.855   4.850 -0.1634  0.2418 -0.3265
  332MOL0     C44717  14.236   6.804   4.958 -0.2096  0.2553 -0.3087
  332MOL0     C44718  14.377   6.819   4.979  1.0132 -0.1804  0.0047
  332MOL0     C44719  14.458   6.881   4.885  0.0441  0.0858  0.1325
  332MOL0     O44720  14.597   6.880   4.910 -0.2467  0.3633 -0.1875
  332MOL0     C44721  14.682   6.938   4.807 -0.1061 -0.2941  0.2334
  332MOL0     C44722  14.828   6.919   4.852 -0.0990 -0.2069 -0.2729
  332MOL0     C44723  14.869   6.994   4.984 -0.5766 -0.1382  0.3928
  332MOL0     C44724  15.017   6.961   5.030  0.7703  0.1672  1.0229
  332MOL0     C44725  15.076   7.067   5.113  0.3237 -0.0055 -1.0125
  332MOL0     C44726  15.229   7.057   5.133  0.5176 -0.4646 -0.3239
  332MOL0     C44727  15.289   7.146   5.232 -0.5245  0.2428 -0.4325
  332MOL0     C44728  15.439   7.178   5.219 -0.0494 -0.4897 -0.1228
  332MOL0    Cl44729  15.522   7.028   5.256 -0.4249 -0.4227 -0.1232
  332MOL0     C44730  14.391   6.927   4.769 -0.6549  0.1060 -0.2458
  332MOL0     C44731  14.256   6.914   4.750  0.4605 -0.2852  0.3539
  332MOL0     O44732  13.972   6.942   4.646 -0.2141 -0.2467  0.3926
  332MOL0     C44733  13.711   6.874   4.673  0.4815  0.8134 -0.0884
  332MOL0     C44734  13.571   6.847   4.695 -1.2462 -0.3810  0.9295
  332MOL0     N44735  12.998   6.703   5.334 -0.8360 -0.2749 -0.1305
  332MOL0     N44736  12.880   6.694   5.393  0.0005  0.1081  0.2395
  332MOL0     C44737  11.578   6.773   5.413 -0.5270 -0.7088 -0.3478
  332MOL0     C44738  11.443   6.777   5.426  0.6763  0.0747 -0.3895
  332MOL0     C44739  10.996   6.865   5.286 -0.7056 -0.2409  0.1379
  332MOL0     C44740  10.963   6.862   5.417 -0.4781 -0.7710 -0.1990
  332MOL0     C44741  10.827   6.858   5.457  0.0242 -0.6620 -0.2708
  332MOL0     C44742  10.728   6.882   5.363 -0.4923 -0.4575 -0.4918
  332MOL0     O44743  10.603   6.912   5.411 -0.1344 -0.1946  0.9250
  332MOL0     C44744  10.495   6.949   5.322 -0.9673  0.3930 -0.1887
  332MOL0     C44745  10.382   7.029   5.390 -0.0161 -0.4742 -0.1685
  332MOL0     C44746  10.430   7.181   5.405 -0.5606  0.4329 -0.6468
  332MOL0     C44747  10.542   7.188   5.514 -0.1949 -0.4357  0.1686
  332MOL0     C44748  10.488   7.162   5.643  0.6734  1.4615  0.5565
  332MOL0     C44749  10.448   7.119   5.752  0.2669 -0.0264  0.5471
  332MOL0     C44750  10.764   6.881   5.229 -0.1003  0.0402  0.0693
  332MOL0     C44751  10.898   6.868   5.183  0.5806  0.6278  0.0030
  332MOL0     C44752  10.918   6.868   5.034  0.0909  0.8612 -0.2919
  332MOL0     H44753  11.387   7.033   5.204  1.8415  1.8049  0.1385
  332MOL0     H44754  11.620   7.052   5.236  1.7514 -1.3990  1.3833
  332MOL0     H44755  11.821   6.862   5.171  0.1984  0.3954 -1.5447
  332MOL0     H44756  11.852   7.028   5.228 -1.3220 -0.7129 -0.6775
  332MOL0     H44757  12.072   6.884   5.188 -0.2990 -0.8686 -0.3371
  332MOL0     H44758  12.000   6.772   5.297 -0.0165  0.5773  0.5885
  332MOL0     H44759  12.020   6.987   5.475 -1.9772  1.6094 -2.3365
  332MOL0     H44760  12.131   7.045   5.356  1.2849  0.0844  0.8467
  332MOL0     H44761  12.229   6.892   5.555  1.4831 -0.8312  0.1641
  332MOL0     H44762  12.176   6.763   5.449  2.0246 -0.6697  1.9559
  332MOL0     H44763  12.292   6.877   5.255  4.4321  1.5223 -0.8259
  332MOL0     H44764  12.370   6.978   5.380 -3.3698  1.9853  1.3891
  332MOL0     H44765  12.436   6.784   5.492  1.8461  2.8160 -0.5526
  332MOL0     H44766  12.397   6.676   5.351  0.2678 -1.6616  2.4879
  332MOL0     H44767  12.616   6.883   5.391  0.7548  2.2436 -0.7661
  332MOL0     H44768  12.550   6.855   5.225 -4.0336 -1.1550  0.3356
  332MOL0     H44769  12.629   6.626   5.397 -0.8813  0.3608 -0.3743
  332MOL0     H44770  12.614   6.636   5.225  0.8755 -2.3465  1.5629
  332MOL0     H44771  12.785   6.774   5.083 -1.3295  1.7600  0.5452
  332MOL0     H44772  13.038   6.826   5.021  0.0180 -0.8473 -1.1530
  332MOL0     H44773  13.173   6.789   5.136  0.5681 -0.6612  0.4553
  332MOL0     H44774  13.166   6.544   5.070 -1.3656 -2.7520 -1.5831
  332MOL0     H44775  13.012   6.567   4.991  1.5212 -3.1494 -0.1975
  332MOL0     H44776  13.127   6.735   4.835 -0.6573  0.4319  2.4520
  332MOL0     H44777  13.207   6.573   4.823  3.4390 -0.7637  1.0358
  332MOL0     H44778  13.386   6.611   4.960 -3.2465 -0.7975  3.2258
  332MOL0     H44779  13.330   6.777   4.998 -0.9466  0.1241  0.4678
  332MOL0     H44780  13.595   6.667   4.982 -0.3883  0.4648  0.4108
  332MOL0     H44781  13.826   6.722   4.952 -0.4471  0.8517  0.7202
  332MOL0     H44782  14.183   6.743   5.031  0.4444 -2.3674 -1.8686
  332MOL0     H44783  14.428   6.780   5.066  1.9090  5.3464  2.4029
  332MOL0     H44784  14.667   6.881   4.714  2.9283  0.9846 -1.1574
  332MOL0     H44785  14.648   7.041   4.793 -2.7719 -1.0905  0.2560
  332MOL0     H44786  14.846   6.815   4.879  2.2022  0.5952  1.6311
  332MOL0     H44787  14.898   6.943   4.771 -1.9495 -0.1170 -1.9080
  332MOL0     H44788  14.855   7.099   4.957 -0.8239  0.4280  2.5142
  332MOL0     H44789  14.801   6.963   5.064 -0.5869  1.1386  0.9038
  332MOL0     H44790  15.076   6.962   4.937  0.4704  1.6912  0.8250
  332MOL0     H44791  15.027   6.858   5.065  0.7958 -0.1331  0.1679
  332MOL0     H44792  15.033   7.056   5.213 -0.5350 -1.6635 -1.5368
  332MOL0     H44793  15.049   7.169   5.082  0.2573 -0.2614 -1.8034
  332MOL0     H44794  15.255   6.957   5.170  2.0448 -0.0346 -0.1783
  332MOL0     H44795  15.278   7.082   5.038  4.0201 -1.1408  1.1551
  332MOL0     H44796  15.277   7.113   5.336 -1.5294 -2.6583 -1.3633
  332MOL0     H44797  15.234   7.241   5.230 -2.7043 -0.7975  2.1787
  332MOL0     H44798  15.457   7.211   5.117 -0.4478 -0.1924 -0.1003
  332MOL0     H44799  15.471   7.252   5.294 -1.8035  0.0138  0.1950
  332MOL0     H44800  14.450   6.979   4.694  1.2919 -0.7805  0.5852
  332MOL0     H44801  14.220   6.951   4.654 -1.5214 -2.5449  0.1493
  332MOL0     H44802  13.746   6.930   4.587  1.8220 -2.0698 -1.5470
  332MOL0     H44803  13.505   6.888   4.619 -2.0668  1.1755  2.4233
  332MOL0     H44804  11.642   6.708   5.472 -1.0145 -0.3477  0.5985
  332MOL0     H44805  11.397   6.702   5.490 -1.5639 -0.0140 -1.9586
  332MOL0     H44806  11.030   6.853   5.502  0.0578  0.5639 -0.4601
  332MOL0     H44807  10.799   6.858   5.562  0.7475  0.4758 -0.0741
  332MOL0     H44808  10.462   6.855   5.276  0.6990 -0.9435  1.2528
  332MOL0     H44809  10.530   7.013   5.240 -2.8775  0.5396 -0.9540
  332MOL0     H44810  10.356   6.966   5.476 -0.8788 -1.3671 -1.0652
  332MOL0     H44811  10.294   7.011   5.328 -2.1772  1.4404  2.1069
  332MOL0     H44812  10.341   7.228   5.446 -0.1178  0.1000  0.7396
  332MOL0     H44813  10.458   7.235   5.314  2.1412 -0.3675 -0.3808
  332MOL0     H44814  10.635   7.134   5.495 -0.3605 -0.2439 -1.3496
  332MOL0     H44815  10.571   7.293   5.510 -2.0347  0.0673 -2.9439
  332MOL0     H44816  10.419   7.075   5.846  1.6360 -3.4327 -0.4468
  332MOL0     H44817  10.691   6.899   5.151  1.4410  2.2834 -0.9507
  332MOL0     H44818  11.011   6.817   5.006  1.1121  0.8404  2.6976
  332MOL0     H44819  10.837   6.810   4.989  1.3165  0.3798 -1.9756
  332MOL0     H44820  10.904   6.968   4.993 -0.8081  1.0523  0.4486
  333MOL0     O44821   7.474   3.651   2.362  0.3655 -0.2044  0.0507
  333MOL0     C44822   7.482   3.680   2.248  0.5693  0.2284 -0.2284
  333MOL0     O44823   7.596   3.725   2.185 -0.3433 -0.4456 -0.1659
  333MOL0     C44824   7.710   3.743   2.258  0.3244 -0.2905  0.4581
  333MOL0     C44825   7.785   3.851   2.218 -0.5138 -0.2901  0.4165
  333MOL0     C44826   7.910   3.875   2.289 -0.3431  0.0932  0.9348
  333MOL0     C44827   7.953   3.805   2.396  0.3155  1.0338 -0.3548
  333MOL0     O44828   8.066   3.822   2.474 -0.7182  0.1928  0.2881
  333MOL0     C44829   8.161   3.929   2.446 -0.1112  0.4284 -0.3458
  333MOL0     C44830   8.262   3.934   2.557 -0.1759  0.1493  0.0124
  333MOL0     C44831   8.382   4.021   2.515 -1.2058 -0.2669 -0.1083
  333MOL0     C44832   8.332   4.159   2.472 -0.3310 -0.4966  0.9808
  333MOL0     C44833   8.454   4.252   2.440  0.1891 -0.1951 -0.4649
  333MOL0     C44834   8.420   4.405   2.422 -0.0652 -0.0954  0.1237
  333MOL0     C44835   8.534   4.478   2.335 -0.2495 -0.1723  0.2119
  333MOL0     C44836   8.659   4.523   2.415 -0.5498  1.3955 -0.4101
  333MOL0     N44837   8.634   4.645   2.500  0.2647  0.1135  0.0871
  333MOL0     C44838   8.714   4.761   2.488  0.0197  0.3828 -0.5408
  333MOL0     C44839   8.663   4.832   2.594 -0.2745  0.2633  0.2017
  333MOL0     C44840   8.712   4.965   2.649 -0.5262  0.0511  0.5831
  333MOL0     C44841   8.855   4.939   2.703  0.0308  0.0523  0.5440
  333MOL0     C44842   8.928   5.074   2.735  0.3062  0.1752  0.0134
  333MOL0     C44843   9.077   5.051   2.768  0.2479 -0.1691 -0.0793
  333MOL0     O44844   9.134   5.185   2.780  0.9315 -0.3454 -0.6029
  333MOL0     C44845   9.262   5.211   2.784 -0.2007  0.1404 -1.2990
  333MOL0     C44846   9.358   5.124   2.758  0.1548  0.0417  0.0538
  333MOL0     C44847   9.487   5.162   2.750  1.0207 -0.1017  0.0316
  333MOL0     C44848   9.534   5.286   2.789  1.1535  0.4515 -0.6711
  333MOL0     C44849   9.671   5.311   2.797 -0.9791  0.2769 -0.2870
  333MOL0     O44850   9.768   5.214   2.777  0.2939 -0.2807 -0.3968
  333MOL0     C44851   9.897   5.248   2.790  0.0063  0.7438  0.0539
  333MOL0     C44852   9.971   5.170   2.890 -0.6131 -0.7565  0.1161
  333MOL0     C44853  10.112   5.183   2.907 -0.1346 -0.0944  0.6132
  333MOL0     C44854  10.175   5.276   2.827  0.3851  0.1041  0.3833
  333MOL0     O44855  10.311   5.298   2.846 -0.6438 -0.4689 -0.3708
  333MOL0     C44856  10.388   5.396   2.772  0.9721 -0.3129  0.0305
  333MOL0     C44857  10.480   5.459   2.877  0.0461  0.7904  0.3228
  333MOL0     C44858  10.562   5.573   2.826 -0.8873 -0.7123 -0.0346
  333MOL0     C44859  10.639   5.655   2.943  0.2197  0.5099  0.3976
  333MOL0     C44860  10.766   5.583   2.984 -0.4801  0.4372 -0.6165
  333MOL0     C44861  10.832   5.643   3.099 -0.2317  0.3222  0.1031
  333MOL0     C44862  10.963   5.573   3.143 -0.5358  0.1760  0.6896
  333MOL0     C44863  11.022   5.636   3.267 -0.5459  0.2993 -0.3278
  333MOL0    Cl44864  11.133   5.520   3.350  0.3316  0.4459  0.3130
  333MOL0     C44865  10.098   5.342   2.730 -0.2875  0.1429 -0.2886
  333MOL0     C44866   9.967   5.326   2.706 -0.7525  0.4555 -0.7855
  333MOL0     O44867   9.697   5.435   2.812 -0.0196 -0.4450  0.3695
  333MOL0     C44868   9.440   5.380   2.812  0.6788  0.1497 -0.0388
  333MOL0     C44869   9.303   5.339   2.814  0.4956 -0.5077  0.2031
  333MOL0     N44870   8.563   4.763   2.659  0.4996  0.5648 -0.8741
  333MOL0     N44871   8.536   4.656   2.599  0.0881 -0.3040 -0.8384
  333MOL0     C44872   7.878   3.689   2.426  0.1584 -0.4507 -0.6596
  333MOL0     C44873   7.761   3.660   2.353  0.4766  1.0679  0.6892
  333MOL0     C44874   7.354   3.681   2.170 -0.1819  0.2894  0.3546
  333MOL0     C44875   7.234   3.670   2.241  0.0199 -0.5925  0.0978
  333MOL0     C44876   7.103   3.670   2.186  0.1895  0.3690 -0.0673
  333MOL0     C44877   7.091   3.655   2.043 -0.9912 -1.2355 -0.0234
  333MOL0     O44878   6.988   3.650   1.960  0.0158 -0.1972  0.0718
  333MOL0     C44879   6.856   3.643   2.017  0.1318 -0.6685 -0.8307
  333MOL0     C44880   6.790   3.784   2.047 -0.0026  0.3932  0.5552
  333MOL0     C44881   6.654   3.748   2.103  0.8204  0.0977  0.2947
  333MOL0     C44882   6.568   3.868   2.152  0.3214 -0.3281  1.1626
  333MOL0     C44883   6.417   3.847   2.160 -0.3638  0.3403 -0.3522
  333MOL0     C44884   6.300   3.847   2.155  0.0648  0.4627  0.3477
  333MOL0     C44885   7.206   3.681   1.967  0.7150  0.3397 -0.4869
  333MOL0     C44886   7.338   3.687   2.030  0.2299  0.3567 -0.4825
  333MOL0     C44887   7.458   3.706   1.943  0.4535  1.3566 -0.4051
  333MOL0     H44888   7.743   3.918   2.143 -3.3149  2.2241  3.8767
  333MOL0     H44889   7.964   3.965   2.262 -0.2556 -0.1657  0.2194
  333MOL0     H44890   8.206   3.904   2.349 -1.0011 -2.9482 -0.0249
  333MOL0     H44891   8.109   4.025   2.453  1.8577  1.4226  2.0170
  333MOL0     H44892   8.300   3.832   2.567 -0.6703  0.1245  1.9997
  333MOL0     H44893   8.218   3.962   2.653  1.1537 -0.1794  0.7387
  333MOL0     H44894   8.453   3.973   2.448  0.0205 -0.2701  1.1517
  333MOL0     H44895   8.437   4.046   2.606 -1.4348 -0.4904  0.0937
  333MOL0     H44896   8.275   4.161   2.379 -1.1341  0.0731  1.4616
  333MOL0     H44897   8.277   4.197   2.559 -0.8285 -0.2236  0.5543
  333MOL0     H44898   8.533   4.241   2.514 -0.2307  0.7666  0.1459
  333MOL0     H44899   8.490   4.217   2.342  2.5702 -0.3099  0.3866
  333MOL0     H44900   8.326   4.413   2.366 -0.1126  1.9164  0.4235
  333MOL0     H44901   8.404   4.446   2.522 -0.3840  3.1350 -1.1365
  333MOL0     H44902   8.491   4.572   2.298 -0.1041 -0.1025  0.2213
  333MOL0     H44903   8.575   4.422   2.251  2.9505  1.6580  0.3835
  333MOL0     H44904   8.681   4.441   2.484  1.0165  3.7264  2.0545
  333MOL0     H44905   8.745   4.547   2.352  1.1314  1.8182  1.9170
  333MOL0     H44906   8.796   4.781   2.421  0.3754 -2.0946 -0.9290
  333MOL0     H44907   8.698   5.036   2.568 -2.6550 -1.3172 -0.3358
  333MOL0     H44908   8.656   4.989   2.740 -1.0140 -2.1614  0.9424
  333MOL0     H44909   8.846   4.884   2.797 -1.3156  1.0290  1.0101
  333MOL0     H44910   8.908   4.894   2.618 -2.2988  0.0587 -1.0029
  333MOL0     H44911   8.877   5.102   2.828 -1.3895  3.3111 -1.6673
  333MOL0     H44912   8.922   5.152   2.659  0.4931  0.5775  0.4034
  333MOL0     H44913   9.117   4.982   2.693 -3.1857 -1.0225 -1.3214
  333MOL0     H44914   9.092   4.997   2.862  1.8770 -1.6260 -1.1141
  333MOL0     H44915   9.334   5.019   2.746  1.5999 -0.1684 -1.2596
  333MOL0     H44916   9.547   5.078   2.717 -0.6278 -1.0317 -0.7348
  333MOL0     H44917   9.919   5.089   2.940 -1.5204 -0.8746 -0.9811
  333MOL0     H44918  10.173   5.133   2.982  0.6835  3.5442  2.6232
  333MOL0     H44919  10.446   5.351   2.691  2.3426  1.0445  0.2023
  333MOL0     H44920  10.332   5.481   2.735 -1.2887 -0.0278  3.6108
  333MOL0     H44921  10.431   5.485   2.972  0.6327  0.7525  0.6420
  333MOL0     H44922  10.562   5.393   2.907  0.9346  1.1264 -1.2800
  333MOL0     H44923  10.636   5.535   2.755  0.4464  2.4206 -0.4458
  333MOL0     H44924  10.497   5.638   2.768  0.8449 -1.0513 -2.5168
  333MOL0     H44925  10.572   5.647   3.029 -0.5785  2.7915  0.0448
  333MOL0     H44926  10.666   5.757   2.914  1.0200 -0.2858 -1.9094
  333MOL0     H44927  10.837   5.585   2.901 -2.1480  0.7146 -2.1157
  333MOL0     H44928  10.743   5.478   3.005 -1.2004  0.9416  1.3230
  333MOL0     H44929  10.858   5.748   3.079  2.2386  0.1889  2.0027
  333MOL0     H44930  10.760   5.629   3.180 -1.0140  0.0872 -0.6211
  333MOL0     H44931  11.035   5.543   3.066 -0.2519  2.6075 -0.1029
  333MOL0     H44932  10.923   5.474   3.166 -0.7263  0.1251  0.1680
  333MOL0     H44933  11.079   5.724   3.239  1.7436 -1.7725 -2.7551
  333MOL0     H44934  10.942   5.672   3.333 -2.5804  0.2813 -2.6529
  333MOL0     H44935  10.143   5.425   2.678 -1.6661  1.5995  0.7356
  333MOL0     H44936   9.924   5.388   2.627  1.1895  0.0978 -2.1722
  333MOL0     H44937   9.462   5.480   2.849  1.7798 -0.5997  1.3988
  333MOL0     H44938   9.233   5.417   2.842  1.7606  2.2913 -3.5478
  333MOL0     H44939   7.909   3.636   2.516  3.3590  0.8815 -0.8470
  333MOL0     H44940   7.708   3.568   2.371  1.2712  0.9500  2.6705
  333MOL0     H44941   7.233   3.667   2.349  0.4495  3.0844  0.3462
  333MOL0     H44942   7.021   3.686   2.255  0.3623  4.1749 -0.5262
  333MOL0     H44943   6.856   3.584   2.109 -1.1398  0.5073 -0.0293
  333MOL0     H44944   6.790   3.600   1.941 -0.4781  0.5701 -1.0348
  333MOL0     H44945   6.778   3.832   1.950 -0.6993 -0.5050  0.1745
  333MOL0     H44946   6.853   3.844   2.113  0.9135  0.7786 -0.6558
  333MOL0     H44947   6.667   3.688   2.194  3.1081  1.7956  1.1890
  333MOL0     H44948   6.612   3.685   2.025  1.2139 -0.2043  0.3192
  333MOL0     H44949   6.618   3.908   2.241  1.3728 -1.0247  0.9097
  333MOL0     H44950   6.582   3.945   2.077  2.5270 -0.7289  1.0919
  333MOL0     H44951   6.197   3.867   2.133 -0.0560 -0.6905 -0.2373
  333MOL0     H44952   7.201   3.695   1.860  0.1292  1.9622 -0.2806
  333MOL0     H44953   7.528   3.623   1.954 -2.0936 -0.6337  2.8751
  333MOL0     H44954   7.411   3.702   1.845 -0.3206  0.5299 -0.0150
  333MOL0     H44955   7.511   3.802   1.950 -0.1738  1.8289 -1.8492
  334MOL0     O44956   8.882   3.476   7.499 -0.4400 -0.4381  0.1429
  334MOL0     C44957   8.940   3.536   7.406 -1.2166 -0.2860 -0.0469
  334MOL0     O44958   9.074   3.517   7.378  0.4455 -0.0263 -0.2958
  334MOL0     C44959   9.157   3.428   7.447  0.1341 -0.5014  0.4447
  334MOL0     C44960   9.271   3.479   7.503 -0.1347  0.8444 -0.0645
  334MOL0     C44961   9.358   3.398   7.572 -0.3220 -0.7281 -0.1381
  334MOL0     C44962   9.322   3.266   7.599 -0.8106 -0.4663 -0.5316
  334MOL0     O44963   9.405   3.198   7.668 -0.6479 -0.1430 -0.2368
  334MOL0     C44964   9.440   3.063   7.627 -0.1705  0.2263 -0.3435
  334MOL0     C44965   9.589   3.033   7.635 -0.6624 -0.7148 -0.2463
  334MOL0     C44966   9.663   3.135   7.549 -0.4938  0.9968  0.9238
  334MOL0     C44967   9.809   3.090   7.532 -0.1079  0.3462  0.9490
  334MOL0     C44968   9.881   3.155   7.412  0.8535  0.8976 -0.7620
  334MOL0     C44969   9.885   3.306   7.436  0.6140 -0.2913 -0.0331
  334MOL0     C44970   9.982   3.368   7.327 -0.3430  0.0450 -0.9402
  334MOL0     C44971  10.031   3.511   7.362  0.0054  0.1032  0.2495
  334MOL0     N44972  10.136   3.518   7.467 -0.0971 -0.1449 -0.4218
  334MOL0     C44973  10.113   3.525   7.602  0.0201  0.3622  0.2509
  334MOL0     C44974  10.235   3.508   7.654  0.0603 -0.3886 -0.4923
  334MOL0     C44975  10.282   3.497   7.799  0.7141  0.4305 -0.5495
  334MOL0     C44976  10.322   3.629   7.859 -0.1337  0.6575  0.7113
  334MOL0     C44977  10.362   3.609   8.006 -0.1949 -0.5760  0.3062
  334MOL0     C44978  10.430   3.735   8.057  0.3040  0.3695 -0.5121
  334MOL0     O44979  10.451   3.728   8.193 -0.1827  0.5196  0.4732
  334MOL0     C44980  10.542   3.821   8.240 -0.0741  0.3643 -0.6197
  334MOL0     C44981  10.632   3.773   8.336  1.0218  0.1535  0.1734
  334MOL0     C44982  10.726   3.858   8.394  0.0805 -0.3712 -0.0858
  334MOL0     C44983  10.741   3.987   8.349  0.3836 -0.7553  0.1347
  334MOL0     C44984  10.847   4.080   8.400  0.1725 -0.6482 -0.5662
  334MOL0     O44985  10.927   4.033   8.496  0.1387 -0.6755 -0.2686
  334MOL0     C44986  11.029   4.119   8.536  0.5052  0.6056 -0.5819
  334MOL0     C44987  11.016   4.206   8.644  0.2434 -0.5000  0.2086
  334MOL0     C44988  11.119   4.296   8.675  0.9352 -0.5604 -0.4925
  334MOL0     C44989  11.242   4.291   8.607  0.2226  0.0231 -0.0430
  334MOL0     O44990  11.343   4.374   8.634  0.9214  0.1449  0.0870
  334MOL0     C44991  11.442   4.326   8.723  0.1927 -0.2883 -0.4649
  334MOL0     C44992  11.570   4.316   8.639 -0.6820 -0.3294  0.4949
  334MOL0     C44993  11.700   4.259   8.703  0.7722  0.7614 -0.2859
  334MOL0     C44994  11.770   4.360   8.791  0.6144 -0.1100  1.4242
  334MOL0     C44995  11.917   4.313   8.815  0.3207 -0.1967 -1.5121
  334MOL0     C44996  11.917   4.175   8.885 -0.5252  0.1052 -0.8966
  334MOL0     C44997  12.059   4.144   8.946 -0.6734 -0.3050  0.2598
  334MOL0     C44998  12.045   4.034   9.054 -0.2748  0.8349  0.8294
  334MOL0    Cl44999  12.191   4.038   9.161 -0.0541 -0.1468  0.1767
  334MOL0     C45000  11.243   4.205   8.494  0.2541 -0.1187 -0.4976
  334MOL0     C45001  11.139   4.127   8.463 -0.3365  0.4534 -0.0427
  334MOL0     O45002  10.857   4.189   8.339 -0.3051 -0.4441 -0.6231
  334MOL0     C45003  10.656   4.037   8.245 -0.0657  0.2129 -0.1547
  334MOL0     C45004  10.554   3.954   8.207 -0.3157  1.1675  0.4772
  334MOL0     N45005  10.324   3.501   7.553 -0.5568  0.5586 -0.0349
  334MOL0     N45006  10.268   3.500   7.445 -0.2297 -0.5975 -0.0037
  334MOL0     C45007   9.206   3.212   7.541  0.4672  0.0112 -0.6122
  334MOL0     C45008   9.119   3.304   7.473 -0.1325  0.7243  0.7742
  334MOL0     C45009   8.867   3.625   7.315 -0.5739 -0.4157 -0.9564
  334MOL0     C45010   8.727   3.607   7.279  0.5957 -0.1006 -0.4112
  334MOL0     C45011   8.653   3.706   7.226  0.1240 -0.2501  0.0910
  334MOL0     C45012   8.707   3.823   7.181  0.1248 -1.0690  0.6017
  334MOL0     O45013   8.618   3.910   7.124  0.0204 -0.2279 -0.7990
  334MOL0     C45014   8.664   4.041   7.088  0.1748  0.5388  0.1636
  334MOL0     C45015   8.552   4.138   7.063 -0.5678 -1.1851  0.9725
  334MOL0     C45016   8.594   4.276   7.011  0.1176 -0.2016  0.0980
  334MOL0     C45017   8.480   4.361   6.955 -0.2388 -0.2838  1.1959
  334MOL0     C45018   8.383   4.396   7.055  0.1890 -0.3915 -0.3761
  334MOL0     C45019   8.295   4.433   7.126  0.4939  0.5405  0.2114
  334MOL0     C45020   8.838   3.843   7.200 -0.4594 -0.2809 -0.2958
  334MOL0     C45021   8.917   3.754   7.274  0.5663  1.0099 -0.8892
  334MOL0     C45022   9.051   3.783   7.303  0.1889 -0.9079 -0.5192
  334MOL0     H45023   9.296   3.584   7.492  3.2414  0.0490 -0.9162
  334MOL0     H45024   9.449   3.434   7.618 -0.3011  1.5270 -1.7792
  334MOL0     H45025   9.388   2.989   7.688  0.9285  0.1371  0.5250
  334MOL0     H45026   9.402   3.048   7.526  0.1750  3.0305 -0.9824
  334MOL0     H45027   9.606   2.927   7.616 -1.3402 -1.2106  1.6611
  334MOL0     H45028   9.627   3.050   7.736  0.7823  1.8165 -1.1450
  334MOL0     H45029   9.664   3.234   7.595 -0.1177  1.1252  0.6397
  334MOL0     H45030   9.611   3.134   7.453 -0.1313  2.7884  0.6812
  334MOL0     H45031   9.869   3.102   7.622  2.9937 -2.0151 -0.6165
  334MOL0     H45032   9.815   2.983   7.508  1.6530  0.6296 -0.0115
  334MOL0     H45033   9.983   3.117   7.409  1.5415  2.3640  1.4494
  334MOL0     H45034   9.841   3.126   7.314  1.0828 -0.3503 -0.5036
  334MOL0     H45035   9.787   3.353   7.426 -0.0841 -1.4937  0.7942
  334MOL0     H45036   9.923   3.329   7.535 -0.9440 -0.0665  0.5438
  334MOL0     H45037   9.925   3.384   7.235  2.2233 -0.5127 -2.7278
  334MOL0     H45038  10.063   3.297   7.308 -1.5758 -2.4590  2.1283
  334MOL0     H45039  10.067   3.557   7.269 -0.6172  0.5501  0.2201
  334MOL0     H45040   9.950   3.580   7.384  0.5518  1.5156 -1.8736
  334MOL0     H45041  10.017   3.510   7.649 -0.7995  0.4031 -1.3446
  334MOL0     H45042  10.199   3.453   7.855  0.3414  2.1562  0.3362
  334MOL0     H45043  10.367   3.428   7.801 -1.2049 -2.0734 -0.8144
  334MOL0     H45044  10.405   3.662   7.795  0.5702  0.2695  1.4099
  334MOL0     H45045  10.242   3.703   7.859  1.2490  2.1971  1.0431
  334MOL0     H45046  10.423   3.518   8.012 -1.0358 -1.3048 -1.2908
  334MOL0     H45047  10.270   3.585   8.060  0.7644 -2.0967  1.3389
  334MOL0     H45048  10.372   3.823   8.029  1.3473  1.0898 -0.4630
  334MOL0     H45049  10.525   3.746   8.004  1.6668  2.9117  2.2089
  334MOL0     H45050  10.621   3.677   8.385  0.4484 -0.0903 -0.4211
  334MOL0     H45051  10.784   3.822   8.477 -1.6564 -0.8946  0.9532
  334MOL0     H45052  10.926   4.216   8.704  0.2268 -0.0607  0.1150
  334MOL0     H45053  11.095   4.379   8.741  1.1443 -0.9782  0.1190
  334MOL0     H45054  11.445   4.399   8.805 -2.1535 -0.3547 -0.2628
  334MOL0     H45055  11.420   4.226   8.761 -0.9079 -0.3923 -1.3578
  334MOL0     H45056  11.546   4.262   8.547  0.6626  1.8875 -1.2847
  334MOL0     H45057  11.605   4.414   8.605 -0.4841 -0.9845 -1.3103
  334MOL0     H45058  11.679   4.165   8.756 -1.9789 -0.2810 -2.9311
  334MOL0     H45059  11.768   4.244   8.619  0.2734  1.1312 -0.7600
  334MOL0     H45060  11.712   4.385   8.880 -0.4162  0.3939  0.6318
  334MOL0     H45061  11.783   4.453   8.735  0.5852 -2.3218 -2.6898
  334MOL0     H45062  11.973   4.394   8.863 -0.6807 -0.5634  0.3987
  334MOL0     H45063  11.973   4.296   8.723  1.5458 -2.5879 -0.4044
  334MOL0     H45064  11.849   4.173   8.971  1.0931 -1.9686  0.4113
  334MOL0     H45065  11.899   4.094   8.813 -0.7797  0.7596 -1.5897
  334MOL0     H45066  12.099   4.226   9.007  1.2352  0.0282 -1.3566
  334MOL0     H45067  12.132   4.118   8.869 -0.5022 -0.4549  0.4717
  334MOL0     H45068  11.951   4.051   9.109 -1.1799 -4.5297  1.4429
  334MOL0     H45069  12.043   3.934   9.010  1.3877  0.5860  1.2516
  334MOL0     H45070  11.328   4.195   8.428 -0.2501  0.8558 -1.3304
  334MOL0     H45071  11.135   4.076   8.368  1.1484  0.2101  0.0035
  334MOL0     H45072  10.649   4.143   8.220 -2.7009  0.5213  1.4744
  334MOL0     H45073  10.485   3.987   8.130 -1.8433 -1.0977  0.7889
  334MOL0     H45074   9.174   3.109   7.551  0.4836 -0.0653 -1.2848
  334MOL0     H45075   9.030   3.264   7.427  0.6957  1.6619 -1.8157
  334MOL0     H45076   8.676   3.515   7.305  2.6033 -0.3204  3.6164
  334MOL0     H45077   8.552   3.674   7.201 -0.1139 -2.4340  3.1655
  334MOL0     H45078   8.724   4.035   6.996  0.6093  1.6057  0.3555
  334MOL0     H45079   8.733   4.076   7.165  0.5136 -2.2361  1.2199
  334MOL0     H45080   8.498   4.164   7.154 -2.0350  1.9964 -0.6187
  334MOL0     H45081   8.487   4.097   6.986  0.5685  3.5011 -3.0495
  334MOL0     H45082   8.662   4.258   6.927 -2.1065  0.3202 -1.9263
  334MOL0     H45083   8.642   4.335   7.090  0.1197 -0.1523  0.0606
  334MOL0     H45084   8.518   4.454   6.912  0.6542 -0.7864  0.8768
  334MOL0     H45085   8.429   4.306   6.876 -1.1628 -0.6186  2.0034
  334MOL0     H45086   8.222   4.467   7.196  0.8065  0.1715  0.7217
  334MOL0     H45087   8.881   3.938   7.167  2.6492 -1.6489 -0.5091
  334MOL0     H45088   9.082   3.879   7.261 -2.9636  0.1954 -0.5642
  334MOL0     H45089   9.078   3.791   7.409  0.4597  0.4001 -0.6764
  334MOL0     H45090   9.120   3.709   7.260  0.4820  0.2201 -2.0624
  335MOL0     O45091   1.002   3.578   6.766 -0.0274 -0.2469 -0.2631
  335MOL0     C45092   0.961   3.663   6.844 -0.0166 -0.6405 -0.7651
  335MOL0     O45093   1.030   3.769   6.892  0.1010  0.2201 -0.2086
  335MOL0     C45094   1.151   3.798   6.844 -0.0545  0.1331 -0.7448
  335MOL0     C45095   1.167   3.868   6.720  0.2331 -0.4492  0.0466
  335MOL0     C45096   1.302   3.905   6.676 -0.4043 -0.2972  0.4135
  335MOL0     C45097   1.411   3.873   6.758 -0.2470  0.1385 -0.0709
  335MOL0     O45098   1.537   3.890   6.702 -0.3382  0.2093  0.3239
  335MOL0     C45099   1.662   3.880   6.772 -0.3047  0.1032  0.2321
  335MOL0     C45100   1.774   3.866   6.669 -0.3122 -0.5347 -0.5593
  335MOL0     C45101   1.900   3.893   6.749  0.8269  0.6938  0.9414
  335MOL0     C45102   2.027   3.867   6.666 -0.3048  0.1537  0.4448
  335MOL0     C45103   2.144   3.917   6.737  0.1917 -0.9050  0.4959
  335MOL0     C45104   2.287   3.874   6.685 -0.5754  0.1313  0.4168
  335MOL0     C45105   2.392   3.974   6.718  0.4410 -0.0079 -0.7501
  335MOL0     C45106   2.534   3.916   6.696  0.2304  0.5132 -0.6683
  335MOL0     N45107   2.637   4.000   6.758  0.3654  0.8222  0.2450
  335MOL0     C45108   2.739   3.948   6.840  0.5742  0.2514 -0.6336
  335MOL0     C45109   2.826   4.051   6.865 -0.2548 -0.8017  0.4826
  335MOL0     C45110   2.940   4.033   6.954 -0.6001  0.6750 -0.2912
  335MOL0     C45111   3.056   4.126   6.921  0.5171 -0.2447  0.4710
  335MOL0     C45112   3.175   4.091   7.009 -0.2099 -0.0176 -0.2295
  335MOL0     C45113   3.295   4.192   6.996  0.7362  0.7111 -0.2882
  335MOL0     O45114   3.404   4.148   7.077 -0.3059  0.0970 -0.0234
  335MOL0     C45115   3.522   4.213   7.066  0.3973 -0.1951  0.1383
  335MOL0     C45116   3.624   4.168   7.138 -0.1686  0.7616  0.1070
  335MOL0     C45117   3.751   4.226   7.130 -0.5185 -0.0589 -0.1704
  335MOL0     C45118   3.786   4.336   7.046 -0.1345  0.0867  0.1706
  335MOL0     C45119   3.916   4.406   7.041 -0.1251  1.0429  1.4485
  335MOL0     O45120   4.013   4.376   7.146 -0.1950 -0.2623  0.5074
  335MOL0     C45121   4.130   4.442   7.155  0.2046 -0.2530  0.0938
  335MOL0     C45122   4.198   4.486   7.040  0.1350 -0.0823 -0.2686
  335MOL0     C45123   4.327   4.545   7.039  0.6649  0.3522 -1.0498
  335MOL0     C45124   4.384   4.574   7.166  0.2468 -1.1347  0.1664
  335MOL0     O45125   4.496   4.657   7.179 -0.1477 -0.3940 -0.3641
  335MOL0     C45126   4.573   4.692   7.061  0.8069  0.5204 -0.9842
  335MOL0     C45127   4.694   4.775   7.106 -0.5349 -0.4866  0.0218
  335MOL0     C45128   4.786   4.794   6.983 -0.2888 -0.5542 -0.2840
  335MOL0     C45129   4.924   4.852   7.026  0.6710 -0.7311  0.3954
  335MOL0     C45130   5.024   4.802   6.924 -0.6116 -0.1126 -0.2946
  335MOL0     C45131   5.156   4.866   6.960 -0.1870  0.3442 -0.4262
  335MOL0     C45132   5.285   4.822   6.889 -0.1198  0.2389  0.6691
  335MOL0     C45133   5.281   4.856   6.735 -0.3404  0.0076 -0.3640
  335MOL0    Cl45134   5.251   5.024   6.713  0.3343  0.1130  0.6142
  335MOL0     C45135   4.316   4.529   7.279  0.0024  0.3652 -0.3086
  335MOL0     C45136   4.198   4.453   7.274  0.0866  0.1062  0.0046
  335MOL0     O45137   3.923   4.488   6.954 -0.0634 -0.4708 -0.4738
  335MOL0     C45138   3.675   4.386   6.972  0.6908  0.5704  0.1329
  335MOL0     C45139   3.546   4.326   6.982 -0.1127  0.8009  0.5680
  335MOL0     N45140   2.781   4.162   6.787 -0.1057  0.5518  0.5927
  335MOL0     N45141   2.673   4.127   6.728 -0.5883  0.0347  0.8853
  335MOL0     C45142   1.395   3.802   6.881  0.9083 -0.0217 -0.6337
  335MOL0     C45143   1.262   3.768   6.919  0.3368 -0.3510  0.7670
  335MOL0     C45144   0.824   3.647   6.889 -0.1105 -0.1760  0.3054
  335MOL0     C45145   0.793   3.558   6.993 -0.4822  0.5620 -0.3745
  335MOL0     C45146   0.663   3.531   7.034  0.7958  0.0030 -0.0760
  335MOL0     C45147   0.561   3.595   6.962  0.7854  1.2890  0.5075
  335MOL0     O45148   0.420   3.576   6.987 -0.1961 -0.2546  0.0519
  335MOL0     C45149   0.383   3.462   7.064  0.3036 -0.0746 -0.1020
  335MOL0     C45150   0.242   3.429   7.013 -0.0040  0.5346  0.9034
  335MOL0     C45151   0.148   3.550   7.047  0.8106  0.1137 -0.2469
  335MOL0     C45152  -0.004   3.500   7.060  0.3384 -0.8884  0.8011
  335MOL0     C45153  -0.044   3.468   6.921  0.6201  0.6834 -0.7684
  335MOL0     C45154  -0.070   3.435   6.804  0.1169  0.3008 -0.3524
  335MOL0     C45155   0.590   3.690   6.870 -1.2902  0.7247 -0.0911
  335MOL0     C45156   0.719   3.717   6.830 -0.2286  0.4339 -0.6471
  335MOL0     C45157   0.748   3.820   6.718 -0.2155  0.0125 -0.3373
  335MOL0     H45158   1.077   3.892   6.664 -2.1313 -3.0707  2.4193
  335MOL0     H45159   1.314   3.963   6.585 -1.0344  0.3377  0.7229
  335MOL0     H45160   1.672   3.966   6.839  1.0131 -0.2756  0.5327
  335MOL0     H45161   1.665   3.794   6.839 -2.7491 -0.8285 -0.7395
  335MOL0     H45162   1.761   3.940   6.590 -3.4486 -1.8251 -1.3804
  335MOL0     H45163   1.766   3.768   6.622 -2.1764 -1.6170  1.7852
  335MOL0     H45164   1.897   3.829   6.837  0.9007  3.4802  3.0954
  335MOL0     H45165   1.902   3.999   6.778 -0.2169  1.2360 -0.7487
  335MOL0     H45166   2.039   3.760   6.649 -2.7093 -0.4425  2.0988
  335MOL0     H45167   2.015   3.916   6.569  1.0619  0.3928  0.3689
  335MOL0     H45168   2.142   4.026   6.736  0.6540 -0.8938 -0.0405
  335MOL0     H45169   2.142   3.893   6.844 -0.0556  2.1615  1.2793
  335MOL0     H45170   2.320   3.773   6.710  1.3857  0.5178 -0.4774
  335MOL0     H45171   2.280   3.878   6.576 -3.5684  1.8683  0.5634
  335MOL0     H45172   2.376   4.004   6.822 -0.8361  3.3616 -1.7878
  335MOL0     H45173   2.379   4.063   6.656  0.4164  0.0934 -0.6013
  335MOL0     H45174   2.537   3.817   6.742 -0.4125  0.7189 -0.1686
  335MOL0     H45175   2.553   3.910   6.588  1.3260  2.7448 -0.6579
  335MOL0     H45176   2.743   3.848   6.880  1.4222  0.6405  0.2882
  335MOL0     H45177   2.901   4.044   7.056  1.1040 -0.1898  0.4901
  335MOL0     H45178   2.976   3.930   6.943  1.9810  1.5301 -0.4019
  335MOL0     H45179   3.087   4.119   6.817  1.9106 -0.4684  0.8864
  335MOL0     H45180   3.028   4.228   6.950  0.6380 -0.0472 -0.0995
  335MOL0     H45181   3.207   3.995   6.969  1.1512  0.7095 -0.9539
  335MOL0     H45182   3.143   4.079   7.113 -3.5950 -0.1104 -1.1320
  335MOL0     H45183   3.261   4.288   7.037  0.0460  0.3919 -0.1117
  335MOL0     H45184   3.323   4.205   6.890 -2.1366  3.0849 -0.8885
  335MOL0     H45185   3.611   4.080   7.200  3.6386 -0.5720 -0.6838
  335MOL0     H45186   3.827   4.189   7.197 -0.6150  2.7402  1.6418
  335MOL0     H45187   4.153   4.464   6.944 -1.4887  1.2979  0.1118
  335MOL0     H45188   4.372   4.556   6.941  0.2301 -2.2237 -1.6075
  335MOL0     H45189   4.602   4.606   7.000  0.5621 -0.4745  0.2645
  335MOL0     H45190   4.510   4.757   7.000  0.9380  0.9194 -0.6933
  335MOL0     H45191   4.671   4.879   7.132  1.6861  1.2427 -3.9378
  335MOL0     H45192   4.752   4.724   7.184  2.6951  2.0704 -0.4586
  335MOL0     H45193   4.800   4.693   6.941 -1.1568 -0.0136 -1.9665
  335MOL0     H45194   4.738   4.866   6.917  1.1371  0.3007 -0.4361
  335MOL0     H45195   4.951   4.809   7.122  2.9098  3.3919  1.8709
  335MOL0     H45196   4.924   4.961   7.040 -1.7079 -0.6316  0.0770
  335MOL0     H45197   5.000   4.833   6.821  0.6403 -0.2037 -0.6235
  335MOL0     H45198   5.023   4.693   6.917 -1.0778 -0.2057  0.8914
  335MOL0     H45199   5.150   4.975   6.949  0.1795  0.2081 -2.3742
  335MOL0     H45200   5.175   4.855   7.067  2.7769  0.0190 -0.8916
  335MOL0     H45201   5.282   4.715   6.910 -0.0083 -0.2377 -1.5672
  335MOL0     H45202   5.379   4.860   6.931  1.1914  0.7081 -2.4305
  335MOL0     H45203   5.379   4.835   6.692 -0.9045  1.6827 -2.6412
  335MOL0     H45204   5.217   4.793   6.672 -1.1637  1.2394 -0.8003
  335MOL0     H45205   4.356   4.559   7.375 -2.4809  1.8199  0.3377
  335MOL0     H45206   4.148   4.431   7.368 -0.8585  0.2509 -0.4519
  335MOL0     H45207   3.673   4.477   6.913 -2.9353  0.2760 -0.3964
  335MOL0     H45208   3.475   4.384   6.923 -0.9563 -1.8911 -1.2851
  335MOL0     H45209   1.478   3.756   6.934 -0.4450  0.4863  2.0842
  335MOL0     H45210   1.261   3.706   7.008 -0.1965 -1.0194  0.3061
  335MOL0     H45211   0.880   3.507   7.035  0.7052  3.1865  0.5593
  335MOL0     H45212   0.643   3.464   7.117  0.7157 -0.4519 -0.4562
  335MOL0     H45213   0.380   3.503   7.165 -0.1221  0.4658 -0.3335
  335MOL0     H45214   0.455   3.380   7.053  1.5897  1.2289 -1.9489
  335MOL0     H45215   0.203   3.342   7.066  0.2980  0.5973  1.2254
  335MOL0     H45216   0.241   3.424   6.903 -0.5937 -0.3416  0.9409
  335MOL0     H45217   0.164   3.632   6.976  1.9261 -1.4781 -1.9127
  335MOL0     H45218   0.170   3.580   7.150 -1.5488 -0.7413  0.5794
  335MOL0     H45219  -0.017   3.422   7.135 -0.1234 -0.0106  1.6579
  335MOL0     H45220  -0.066   3.583   7.095  0.6346 -0.6842  0.8522
  335MOL0     H45221  -0.088   3.416   6.700 -4.5778 -1.3707  0.5083
  335MOL0     H45222   0.511   3.743   6.819 -1.2767 -0.1067 -0.9915
  335MOL0     H45223   0.826   3.887   6.757 -0.3002  0.2073 -0.5068
  335MOL0     H45224   0.791   3.761   6.637 -0.2737 -1.1247  0.4385
  335MOL0     H45225   0.660   3.875   6.684  1.2235  2.7104  0.0376
  336MOL0     O45226   3.552   2.187   0.376 -0.5580  0.0785 -0.0075
  336MOL0     C45227   3.517   2.296   0.326  1.2383 -0.1495 -0.6795
  336MOL0     O45228   3.594   2.367   0.236 -0.1164 -0.3626 -0.6971
  336MOL0     C45229   3.719   2.334   0.196  0.0608  0.3459 -0.9967
  336MOL0     C45230   3.823   2.433   0.190 -0.1525 -0.3142 -1.2064
  336MOL0     C45231   3.956   2.390   0.149 -0.1806 -0.2337 -0.2577
  336MOL0     C45232   3.980   2.256   0.113  0.1386 -0.7744  0.2278
  336MOL0     O45233   4.113   2.221   0.074 -0.5944 -0.2229  0.4185
  336MOL0     C45234   4.120   2.103  -0.012 -0.0409 -1.2996 -0.1545
  336MOL0     C45235   4.261   2.072  -0.065 -0.3303 -0.3415  0.4109
  336MOL0     C45236   4.376   2.080   0.040  0.5493 -1.5894  0.0915
  336MOL0     C45237   4.515   2.047  -0.017 -0.1288  0.5251  0.0526
  336MOL0     C45238   4.635   2.085   0.073 -0.1768  0.7229 -0.1837
  336MOL0     C45239   4.763   2.044   0.009  0.3857 -0.4168 -0.4809
  336MOL0     C45240   4.888   2.076   0.102 -0.5640  0.1161 -0.7761
  336MOL0     C45241   5.016   2.019   0.044 -0.2229 -0.2417 -0.2025
  336MOL0     N45242   5.038   1.888   0.110  0.3843 -0.1197  0.6191
  336MOL0     C45243   5.068   1.859   0.242 -0.6136  0.0302  0.1214
  336MOL0     C45244   5.087   1.730   0.239  0.0331  0.2935 -0.2749
  336MOL0     C45245   5.142   1.635   0.347  0.4967 -0.1674 -0.5467
  336MOL0     C45246   5.024   1.590   0.427  0.4509 -0.0787 -0.2434
  336MOL0     C45247   5.045   1.499   0.547  0.3794  0.0178  0.6773
  336MOL0     C45248   5.076   1.350   0.497 -0.1449 -0.6400 -0.5338
  336MOL0     O45249   5.208   1.341   0.428 -0.5619 -0.7000  0.2116
  336MOL0     C45250   5.326   1.331   0.498 -0.5516 -0.2465 -0.2790
  336MOL0     C45251   5.334   1.327   0.645 -0.3026 -0.4572  0.3202
  336MOL0     C45252   5.468   1.314   0.695  0.2954  0.3149 -0.3591
  336MOL0     C45253   5.584   1.301   0.612  0.4404  0.4259  0.3866
  336MOL0     C45254   5.710   1.265   0.677 -0.0944  0.3954 -0.3756
  336MOL0     O45255   5.819   1.273   0.598  0.3289 -0.5836  0.2120
  336MOL0     C45256   5.947   1.256   0.638 -0.4630  1.1452  0.5494
  336MOL0     C45257   6.000   1.213   0.762  0.2038  0.1182  0.3106
  336MOL0     C45258   6.142   1.215   0.786  0.2993 -0.5415  0.1102
  336MOL0     C45259   6.223   1.270   0.688 -0.0125  0.3372 -0.3840
  336MOL0     O45260   6.363   1.264   0.691  0.2864  0.7800  0.2037
  336MOL0     C45261   6.430   1.156   0.763  0.0198 -0.3294 -0.9631
  336MOL0     C45262   6.580   1.170   0.759 -0.2787 -0.8065  0.1403
  336MOL0     C45263   6.641   1.109   0.883 -0.4108 -0.4625  0.0869
  336MOL0     C45264   6.790   1.092   0.877  0.2531  0.3063 -0.1847
  336MOL0     C45265   6.829   1.027   1.011 -0.0268  0.5457  0.1941
  336MOL0     C45266   6.987   1.000   0.997  0.5029  0.4534 -0.3679
  336MOL0     C45267   7.025   0.902   1.108 -0.5879 -0.5033  0.3281
  336MOL0     C45268   7.102   0.781   1.046 -0.3262 -0.5358  0.1199
  336MOL0    Cl45269   7.001   0.669   0.949  0.2544  0.7856  0.2817
  336MOL0     C45270   6.166   1.324   0.570 -0.3142 -0.3660 -0.8594
  336MOL0     C45271   6.032   1.297   0.537 -0.8315  1.0587  0.1954
  336MOL0     O45272   5.711   1.255   0.798 -0.2287  0.8090  0.3761
  336MOL0     C45273   5.577   1.314   0.471 -0.5724 -0.8604  1.1071
  336MOL0     C45274   5.447   1.334   0.421 -0.4810  0.3705  0.5089
  336MOL0     N45275   5.054   1.675   0.118 -0.8784 -1.1082  1.2918
  336MOL0     N45276   5.049   1.782   0.034  0.0695 -0.4759  0.2281
  336MOL0     C45277   3.867   2.166   0.097  0.3806  0.2819  1.0306
  336MOL0     C45278   3.745   2.204   0.147  0.3248 -0.4090  0.3627
  336MOL0     C45279   3.384   2.350   0.362 -0.5413  0.3834 -0.1177
  336MOL0     C45280   3.270   2.265   0.343 -0.7631  0.1967  0.0234
  336MOL0     C45281   3.145   2.301   0.384  0.4050  0.6815 -0.9646
  336MOL0     C45282   3.122   2.435   0.428  0.4535 -0.0198  0.1038
  336MOL0     O45283   3.005   2.486   0.467  1.0761 -0.5526 -0.4296
  336MOL0     C45284   2.888   2.400   0.456  0.4907  0.7987 -0.1702
  336MOL0     C45285   2.770   2.501   0.446 -0.2555 -0.6962 -0.6198
  336MOL0     C45286   2.761   2.620   0.540 -0.2310 -0.4407  0.2615
  336MOL0     C45287   2.780   2.586   0.687 -0.6592  0.4479 -0.1044
  336MOL0     C45288   2.683   2.491   0.735  1.2617 -0.1178 -0.9563
  336MOL0     C45289   2.587   2.423   0.753 -0.0054 -0.0655 -0.4692
  336MOL0     C45290   3.226   2.523   0.424  0.0404  0.5890 -0.2942
  336MOL0     C45291   3.360   2.481   0.404 -0.7571  0.7012 -0.1075
  336MOL0     C45292   3.474   2.585   0.423 -0.0890 -1.0070  0.1119
  336MOL0     H45293   3.819   2.537   0.221 -2.5342 -0.6979  0.0047
  336MOL0     H45294   4.051   2.442   0.149  0.2451 -0.9875  0.7291
  336MOL0     H45295   4.102   2.019   0.056 -1.6209 -1.5069 -0.7832
  336MOL0     H45296   4.057   2.116  -0.100 -0.0094  1.2499  0.1203
  336MOL0     H45297   4.281   2.137  -0.151 -3.0758 -1.9729 -1.6131
  336MOL0     H45298   4.269   1.973  -0.110  0.6462  0.7853 -2.0840
  336MOL0     H45299   4.356   2.023   0.131 -0.4947 -0.0140  0.8968
  336MOL0     H45300   4.381   2.180   0.086 -0.8869 -0.6437 -1.6577
  336MOL0     H45301   4.519   1.939  -0.035  1.9010  0.7258 -0.9871
  336MOL0     H45302   4.527   2.106  -0.109 -2.7373  3.1739  1.2309
  336MOL0     H45303   4.629   2.193   0.089 -1.9038  0.1852  4.0638
  336MOL0     H45304   4.622   2.034   0.168 -1.9485 -0.9206 -1.2572
  336MOL0     H45305   4.762   1.936  -0.005 -0.7070 -0.3971 -0.5990
  336MOL0     H45306   4.778   2.094  -0.087  1.5483 -1.6779 -0.9825
  336MOL0     H45307   4.878   2.032   0.202 -2.0568  1.4099 -0.3149
  336MOL0     H45308   4.882   2.183   0.126  1.7063 -0.3489  2.5150
  336MOL0     H45309   5.011   2.022  -0.065  0.0288 -1.2799 -0.2559
  336MOL0     H45310   5.100   2.080   0.080 -1.6017  1.9327 -0.4688
  336MOL0     H45311   5.083   1.938   0.316  2.5369  0.8305 -1.2282
  336MOL0     H45312   5.194   1.551   0.301  2.9930  1.1500 -0.2993
  336MOL0     H45313   5.208   1.687   0.417 -1.3585  0.7844  0.5791
  336MOL0     H45314   4.986   1.682   0.473 -0.7116 -1.7748  2.4094
  336MOL0     H45315   4.944   1.545   0.368 -0.2615  0.8582 -0.0225
  336MOL0     H45316   4.953   1.494   0.605 -0.3490  2.9296 -0.0968
  336MOL0     H45317   5.119   1.532   0.620 -0.6797  2.6393  0.6750
  336MOL0     H45318   5.000   1.317   0.426 -1.9356  0.9587  0.5681
  336MOL0     H45319   5.062   1.278   0.579  0.0231  0.2225  0.2685
  336MOL0     H45320   5.251   1.348   0.710 -1.4613  2.6050 -1.9112
  336MOL0     H45321   5.477   1.315   0.804  0.9059 -2.1208 -0.3260
  336MOL0     H45322   5.928   1.189   0.840  0.3224 -0.8784  0.1327
  336MOL0     H45323   6.195   1.186   0.876  0.4688 -0.7175 -0.0446
  336MOL0     H45324   6.403   1.156   0.868 -0.1163 -1.9096 -0.9812
  336MOL0     H45325   6.398   1.066   0.710  2.3023 -0.3221 -2.5015
  336MOL0     H45326   6.621   1.124   0.668  0.4634 -1.0512  0.5891
  336MOL0     H45327   6.591   1.279   0.757 -1.1863 -0.7226 -0.8164
  336MOL0     H45328   6.616   1.175   0.967 -0.2064  1.0871 -1.0165
  336MOL0     H45329   6.599   1.009   0.897  1.5017 -1.4844 -1.0854
  336MOL0     H45330   6.825   1.196   0.884 -1.5610  0.8704  1.2538
  336MOL0     H45331   6.825   1.026   0.797 -1.2763 -1.6798  0.7106
  336MOL0     H45332   6.776   0.932   1.022  2.0636 -0.9245 -1.5934
  336MOL0     H45333   6.806   1.095   1.094 -0.0855 -1.8441  2.2519
  336MOL0     H45334   6.998   0.965   0.894 -1.5002  1.3005 -0.9391
  336MOL0     H45335   7.037   1.097   1.008 -2.5224  2.0274  0.7797
  336MOL0     H45336   6.932   0.857   1.143 -2.0554  2.2449  0.1870
  336MOL0     H45337   7.082   0.939   1.194 -0.7180  2.9218 -0.9065
  336MOL0     H45338   7.184   0.819   0.983  1.4889 -0.2968  2.4780
  336MOL0     H45339   7.149   0.728   1.129  1.0552 -0.5839 -0.6553
  336MOL0     H45340   6.232   1.366   0.495  0.0674  1.5533  0.4802
  336MOL0     H45341   5.986   1.320   0.442 -0.9028  0.8050  0.1669
  336MOL0     H45342   5.664   1.322   0.407  0.5277  1.8111  2.7271
  336MOL0     H45343   5.436   1.335   0.313 -0.2609 -1.5400  0.4335
  336MOL0     H45344   3.874   2.063   0.065 -4.5228  0.2049 -0.7098
  336MOL0     H45345   3.657   2.142   0.131  1.5177 -1.4399 -3.2846
  336MOL0     H45346   3.295   2.168   0.302  0.6969  1.4759 -2.3890
  336MOL0     H45347   3.071   2.222   0.377  1.5327 -0.7118  1.6831
  336MOL0     H45348   2.873   2.332   0.540  2.1570  0.4087 -0.1544
  336MOL0     H45349   2.890   2.345   0.362  2.8251  1.2054 -0.4326
  336MOL0     H45350   2.682   2.437   0.454  1.1869 -2.5542  2.6178
  336MOL0     H45351   2.762   2.545   0.346  2.8640 -0.7471 -1.0034
  336MOL0     H45352   2.664   2.669   0.527 -0.3278 -0.2834  1.4417
  336MOL0     H45353   2.832   2.693   0.501  0.0580 -1.2343 -0.7412
  336MOL0     H45354   2.885   2.559   0.701  0.2119  3.9396  1.0482
  336MOL0     H45355   2.766   2.678   0.744  2.1031  0.9834 -0.1345
  336MOL0     H45356   2.500   2.362   0.758 -1.9149  2.4695  4.3989
  336MOL0     H45357   3.199   2.628   0.439  0.3644  0.6677 -0.2504
  336MOL0     H45358   3.540   2.545   0.500 -1.2993  0.2902  1.8985
  336MOL0     H45359   3.532   2.615   0.335 -0.5721 -0.6451 -0.0887
  336MOL0     H45360   3.428   2.677   0.459  0.3053 -0.3638 -0.9757
  337MOL0     O45361   3.802   9.925   5.393 -0.0877 -0.8699 -0.7813
  337MOL0     C45362   3.735   9.920   5.496  0.5690 -1.0014 -0.1361
  337MOL0     O45363   3.771   9.859   5.615  0.0356  0.5861  0.6362
  337MOL0     C45364   3.884   9.786   5.620  0.1926  0.2555 -0.1268
  337MOL0     C45365   3.868   9.647   5.619  0.3910  0.6327  0.4941
  337MOL0     C45366   3.975   9.559   5.601  0.0247  0.0743 -0.5930
  337MOL0     C45367   4.107   9.615   5.602  0.8788  0.2615 -0.2403
  337MOL0     O45368   4.210   9.522   5.602  0.1966 -0.0797 -0.2625
  337MOL0     C45369   4.347   9.566   5.609  0.1507  0.5909 -0.0032
  337MOL0     C45370   4.435   9.444   5.608 -0.3641  1.2124 -0.0149
  337MOL0     C45371   4.585   9.482   5.626  0.2712  0.0767 -0.2540
  337MOL0     C45372   4.672   9.361   5.609  0.3993  0.0035  0.4166
  337MOL0     C45373   4.817   9.373   5.640  0.2184  0.1417 -0.5485
  337MOL0     C45374   4.842   9.380   5.794  0.2856  0.0459 -0.5462
  337MOL0     C45375   4.983   9.441   5.822  0.2047  0.0374  0.8335
  337MOL0     C45376   5.020   9.430   5.962 -0.2977 -0.3549 -0.9160
  337MOL0     N45377   5.158   9.473   5.981 -0.5952  0.4898  1.0247
  337MOL0     C45378   5.269   9.396   5.947 -0.2555  0.6527 -0.2897
  337MOL0     C45379   5.374   9.472   5.963  0.5987 -0.0559  0.1369
  337MOL0     C45380   5.510   9.427   5.930  0.3603  0.0239  0.5567
  337MOL0     C45381   5.603   9.544   5.900 -1.1203 -0.1130  0.2389
  337MOL0     C45382   5.728   9.496   5.833  0.4332 -0.2275 -0.1021
  337MOL0     C45383   5.844   9.463   5.929  0.3917  0.1608  0.0367
  337MOL0     O45384   5.963   9.487   5.850 -0.9496  0.6081  1.1645
  337MOL0     C45385   6.090   9.482   5.904 -0.7407  1.3047  0.5703
  337MOL0     C45386   6.126   9.463   6.037 -0.0607  0.1454  0.4743
  337MOL0     C45387   6.257   9.454   6.079 -0.1402 -0.2424 -0.1944
  337MOL0     C45388   6.364   9.476   5.982 -0.1928  0.3482 -0.0940
  337MOL0     C45389   6.506   9.476   6.022  0.8928  0.8776 -0.0792
  337MOL0     O45390   6.599   9.469   5.922  0.3930 -0.0509  0.7514
  337MOL0     C45391   6.732   9.449   5.963 -0.8541 -0.6713 -0.7595
  337MOL0     C45392   6.769   9.332   6.027  0.6303 -0.1975 -0.9436
  337MOL0     C45393   6.903   9.301   6.037  0.5412  0.5261  0.1133
  337MOL0     C45394   6.996   9.393   5.993  0.1367  0.7351 -0.4864
  337MOL0     O45395   7.126   9.347   6.018  0.3922  0.1426 -0.2837
  337MOL0     C45396   7.242   9.435   6.001  0.1834  0.4001  0.6256
  337MOL0     C45397   7.358   9.358   6.060  0.1026 -0.2068  0.2939
  337MOL0     C45398   7.405   9.262   5.954  1.3246  0.8204 -0.5236
  337MOL0     C45399   7.499   9.156   6.010  0.1626  0.4834 -0.2522
  337MOL0     C45400   7.631   9.205   6.065 -0.1763 -1.0709 -1.2632
  337MOL0     C45401   7.757   9.134   6.005  1.0769  0.0231  0.5801
  337MOL0     C45402   7.894   9.180   6.059 -1.0649  0.8566  0.5925
  337MOL0     C45403   8.008   9.077   6.059 -0.4548  0.1498  0.1263
  337MOL0    Cl45404   8.035   9.032   5.887 -0.2178 -0.3638 -0.0403
  337MOL0     C45405   6.965   9.510   5.925  0.3258  0.2644 -0.3693
  337MOL0     C45406   6.828   9.539   5.920 -0.6769 -0.4240  0.5373
  337MOL0     O45407   6.529   9.478   6.144 -0.0084  0.2680  0.1881
  337MOL0     C45408   6.328   9.496   5.843  0.2855 -0.3743 -0.1708
  337MOL0     C45409   6.194   9.492   5.809  0.2353  0.0658 -0.5606
  337MOL0     N45410   5.342   9.607   6.004 -0.0011  0.1370 -0.8260
  337MOL0     N45411   5.211   9.601   6.004  0.6146 -0.2952  0.0077
  337MOL0     C45412   4.120   9.758   5.612 -0.5244 -0.7918 -0.4487
  337MOL0     C45413   4.012   9.847   5.616  0.2406  0.0786  0.0729
  337MOL0     C45414   3.603   9.999   5.487  0.0873  1.1194 -0.3975
  337MOL0     C45415   3.566  10.063   5.373  0.0904  0.2396 -0.4952
  337MOL0     C45416   3.468  10.160   5.365  0.8013  0.1775  0.2933
  337MOL0     C45417   3.371  10.171   5.472 -0.3820  0.3909  1.5321
  337MOL0     O45418   3.261  10.250   5.457  0.4820  0.3099 -0.1570
  337MOL0     C45419   3.145  10.189   5.515 -0.2761  0.4257  0.0528
  337MOL0     C45420   3.031  10.252   5.450  0.3514 -0.3144  0.7227
  337MOL0     C45421   3.036  10.261   5.294  0.3928 -0.4827  0.3042
  337MOL0     C45422   2.892  10.233   5.230  0.3183  0.0126  0.3763
  337MOL0     C45423   2.802  10.349   5.223  1.0746  0.1852  0.0170
  337MOL0     C45424   2.700  10.418   5.197  0.1397  0.3504 -0.7820
  337MOL0     C45425   3.398  10.093   5.583 -0.0620  0.0261 -0.3546
  337MOL0     C45426   3.511  10.018   5.598 -0.7457  0.3222 -1.4539
  337MOL0     C45427   3.542   9.965   5.737  0.1276  0.5550 -0.2849
  337MOL0     H45428   3.769   9.608   5.639  1.1304 -0.6273  1.9974
  337MOL0     H45429   3.957   9.453   5.586 -0.9586  0.2826 -0.9338
  337MOL0     H45430   4.376   9.631   5.526  1.1333 -0.5066 -0.5358
  337MOL0     H45431   4.363   9.620   5.703 -1.2616  0.5774  0.2708
  337MOL0     H45432   4.428   9.396   5.511 -0.8314 -1.5389  1.2805
  337MOL0     H45433   4.405   9.369   5.682 -1.3249 -0.3897 -1.9432
  337MOL0     H45434   4.605   9.515   5.728  2.0634  2.0630 -1.1738
  337MOL0     H45435   4.620   9.570   5.571 -1.2855  2.5971  2.5332
  337MOL0     H45436   4.630   9.275   5.662  2.1273 -2.0354 -1.3013
  337MOL0     H45437   4.654   9.332   5.505 -0.2222  1.7148  0.0134
  337MOL0     H45438   4.881   9.298   5.594  0.5833  0.6892 -0.9427
  337MOL0     H45439   4.849   9.472   5.605  0.6973 -0.9131 -3.3002
  337MOL0     H45440   4.756   9.425   5.845 -0.9551 -1.5634 -1.1135
  337MOL0     H45441   4.838   9.275   5.826 -1.9776 -0.1106 -1.1237
  337MOL0     H45442   4.976   9.548   5.799  0.1261  0.1684  1.4281
  337MOL0     H45443   5.049   9.387   5.754 -0.2435  1.3873 -0.7381
  337MOL0     H45444   4.960   9.499   6.021 -0.7197 -0.0069 -1.7299
  337MOL0     H45445   4.998   9.330   6.001 -0.7367 -1.0150 -2.7557
  337MOL0     H45446   5.261   9.292   5.918 -1.7587  0.8855 -0.8350
  337MOL0     H45447   5.555   9.357   6.000  1.8344 -3.0631 -3.1224
  337MOL0     H45448   5.498   9.367   5.839 -1.5464 -0.6907  1.2423
  337MOL0     H45449   5.546   9.612   5.836  1.0014 -0.3531 -2.0878
  337MOL0     H45450   5.623   9.589   5.997 -1.2748  0.7912 -0.1462
  337MOL0     H45451   5.765   9.579   5.772 -0.2711  1.3391  1.5215
  337MOL0     H45452   5.699   9.414   5.767 -0.0407  0.0906 -0.2950
  337MOL0     H45453   5.842   9.365   5.978 -0.0485  0.2998  0.3003
  337MOL0     H45454   5.846   9.541   6.005 -2.8445 -1.4474  1.9883
  337MOL0     H45455   6.054   9.455   6.117  1.9042 -2.7427  2.1147
  337MOL0     H45456   6.283   9.438   6.184  0.5303  2.5641  0.1515
  337MOL0     H45457   6.691   9.267   6.066  0.0743  1.0129  0.0407
  337MOL0     H45458   6.938   9.213   6.090  1.9304  1.2322  0.4262
  337MOL0     H45459   7.247   9.461   5.894 -1.6909 -0.0010  0.4039
  337MOL0     H45460   7.237   9.530   6.055 -1.0509  1.3171 -1.0077
  337MOL0     H45461   7.434   9.431   6.089  0.3915 -0.3779 -0.0278
  337MOL0     H45462   7.329   9.302   6.149 -0.0952 -1.9700 -0.8280
  337MOL0     H45463   7.322   9.201   5.916  0.4733 -1.0531  3.7615
  337MOL0     H45464   7.448   9.313   5.867  1.7325 -0.1567 -0.9130
  337MOL0     H45465   7.521   9.080   5.935 -1.3153 -0.0401 -0.1902
  337MOL0     H45466   7.443   9.109   6.092  1.1186  0.2912  0.3084
  337MOL0     H45467   7.632   9.191   6.173  0.0641  0.3335 -1.0574
  337MOL0     H45468   7.640   9.311   6.036 -4.0249  0.3810  1.8874
  337MOL0     H45469   7.751   9.030   6.040  0.0757  0.0262  0.4277
  337MOL0     H45470   7.748   9.138   5.896 -1.2094  0.8728  0.7629
  337MOL0     H45471   7.872   9.196   6.165 -1.6802 -0.2184  0.6496
  337MOL0     H45472   7.931   9.273   6.015  1.4920  0.4463  1.7489
  337MOL0     H45473   8.098   9.130   6.090 -1.4215  2.5401 -0.9097
  337MOL0     H45474   7.981   8.991   6.120 -1.0042  0.1402 -0.1177
  337MOL0     H45475   7.042   9.576   5.886  0.0016 -0.8852 -3.1432
  337MOL0     H45476   6.791   9.628   5.869 -1.5269 -0.3665  1.2328
  337MOL0     H45477   6.401   9.519   5.766  1.4612 -2.5203  0.2398
  337MOL0     H45478   6.144   9.494   5.713  0.6332 -0.9332 -0.7961
  337MOL0     H45479   4.221   9.798   5.616 -1.1235  0.9458 -1.5046
  337MOL0     H45480   4.028   9.954   5.628  0.2595  0.1258 -0.3358
  337MOL0     H45481   3.634  10.065   5.289  0.3778 -0.6456 -0.2961
  337MOL0     H45482   3.444  10.221   5.278 -0.5907  2.1561  1.9413
  337MOL0     H45483   3.146  10.217   5.621  1.7419  1.3404 -0.1605
  337MOL0     H45484   3.142  10.080   5.511 -2.0651  0.4278  0.3189
  337MOL0     H45485   3.015  10.354   5.484 -3.0651 -0.2624 -0.6508
  337MOL0     H45486   2.939  10.201   5.481 -0.4885  0.1964 -0.8316
  337MOL0     H45487   3.095  10.173   5.266  0.2477 -1.1642  2.0066
  337MOL0     H45488   3.068  10.357   5.253  0.4311 -1.4589 -2.0948
  337MOL0     H45489   2.907  10.213   5.123  1.0885  1.1144  0.2606
  337MOL0     H45490   2.844  10.153   5.288  0.2814  1.4275  2.3858
  337MOL0     H45491   2.619  10.486   5.181  0.0250  1.2255  2.6458
  337MOL0     H45492   3.324  10.101   5.662  0.1396  1.2134 -0.2638
  337MOL0     H45493   3.538   9.857   5.752 -2.2159  0.7647  1.2342
  337MOL0     H45494   3.631  10.009   5.781  0.1491  0.3988 -0.1716
  337MOL0     H45495   3.456  10.004   5.793 -0.3624 -1.9452  0.8257
  338MOL0     O45496   5.058   4.796   1.426 -0.2176  0.6105  0.6760
  338MOL0     C45497   5.125   4.857   1.516  0.2849 -0.3564  0.3870
  338MOL0     O45498   5.101   4.857   1.648  0.4600 -0.3137  0.1543
  338MOL0     C45499   4.996   4.784   1.686  0.3895  0.0487 -0.5757
  338MOL0     C45500   5.009   4.678   1.776  0.3342  0.3651 -1.4494
  338MOL0     C45501   4.899   4.615   1.844  0.0673  0.0897 -0.1211
  338MOL0     C45502   4.767   4.657   1.813  1.0180 -0.0949 -0.5244
  338MOL0     O45503   4.650   4.602   1.861  0.8229  0.0278  0.2375
  338MOL0     C45504   4.540   4.575   1.773  0.2872 -1.0223 -1.1961
  338MOL0     C45505   4.449   4.490   1.860  0.3497  0.4722 -0.0698
  338MOL0     C45506   4.512   4.353   1.881 -0.0074  0.1425 -0.8022
  338MOL0     C45507   4.402   4.257   1.869  0.2231  0.7684 -0.1949
  338MOL0     C45508   4.444   4.122   1.919 -0.6675  0.0840 -0.3883
  338MOL0     C45509   4.472   4.099   2.068 -0.6962  0.3899  0.6286
  338MOL0     C45510   4.557   3.972   2.102 -0.2125  0.2616 -0.1614
  338MOL0     C45511   4.695   3.957   2.029  0.3066  0.5619  0.0759
  338MOL0     N45512   4.745   3.829   2.056 -0.5971  0.7697  0.1703
  338MOL0     C45513   4.697   3.704   2.006 -0.6359  0.5526 -0.1667
  338MOL0     C45514   4.778   3.614   2.071 -0.0098  0.5605 -0.2682
  338MOL0     C45515   4.747   3.468   2.050 -0.4097 -0.2128 -0.2716
  338MOL0     C45516   4.814   3.414   1.924 -0.1558 -0.0384 -0.3175
  338MOL0     C45517   4.966   3.412   1.934 -0.2389 -0.8769 -0.0861
  338MOL0     C45518   5.031   3.348   1.812  0.3832 -0.5262  0.0172
  338MOL0     O45519   5.174   3.370   1.810 -0.9052 -0.2015 -0.0425
  338MOL0     C45520   5.252   3.311   1.711 -0.2727  0.4379 -0.5795
  338MOL0     C45521   5.203   3.260   1.590  0.3642 -0.1815  0.3064
  338MOL0     C45522   5.274   3.199   1.491  0.1266 -0.1676  0.5571
  338MOL0     C45523   5.408   3.189   1.500 -0.0825 -0.3553 -0.6504
  338MOL0     C45524   5.514   3.134   1.397 -0.0590  0.6747 -0.2940
  338MOL0     O45525   5.637   3.099   1.437  0.1858  0.1793 -0.5245
  338MOL0     C45526   5.734   3.064   1.350 -0.2083  0.7010  0.3017
  338MOL0     C45527   5.793   3.149   1.251  0.4479 -0.0936 -0.5340
  338MOL0     C45528   5.896   3.094   1.168 -0.8323 -0.9995 -0.4363
  338MOL0     C45529   5.947   2.967   1.195 -0.5476 -0.5733 -0.7692
  338MOL0     O45530   6.064   2.929   1.129 -0.1800 -0.0174 -0.5544
  338MOL0     C45531   6.178   2.887   1.212 -0.7610  0.5359 -0.3477
  338MOL0     C45532   6.291   2.866   1.113  0.2053 -0.3366 -0.1243
  338MOL0     C45533   6.433   2.870   1.176  0.7403  0.5626 -0.4179
  338MOL0     C45534   6.542   2.822   1.085 -0.1295 -0.4857  0.2250
  338MOL0     C45535   6.681   2.812   1.154  0.4677 -0.0461 -0.1226
  338MOL0     C45536   6.799   2.788   1.060  0.7909 -0.4585  0.0572
  338MOL0     C45537   6.920   2.747   1.143  0.0554  0.2409  0.3130
  338MOL0     C45538   7.033   2.746   1.040 -0.5005  0.1320 -0.0888
  338MOL0    Cl45539   7.191   2.707   1.104  0.3053 -0.6376 -0.1814
  338MOL0     C45540   5.875   2.896   1.286  0.0267  0.8187  0.4770
  338MOL0     C45541   5.776   2.935   1.371  0.8378  0.1359 -0.2917
  338MOL0     O45542   5.481   3.145   1.280  0.0878 -0.4224  0.6616
  338MOL0     C45543   5.465   3.232   1.622  0.8709  0.5692  0.2922
  338MOL0     C45544   5.389   3.290   1.731  0.1921  0.3234 -0.4720
  338MOL0     N45545   4.861   3.675   2.162 -0.4006  0.4840 -0.0182
  338MOL0     N45546   4.841   3.806   2.146  0.2497  0.4922  0.2920
  338MOL0     C45547   4.752   4.760   1.721 -0.5869 -0.4056  0.2906
  338MOL0     C45548   4.860   4.825   1.659 -0.1070  0.0030 -0.8330
  338MOL0     C45549   5.238   4.947   1.476  0.8595  0.3095 -0.1269
  338MOL0     C45550   5.222   5.004   1.350 -0.0980 -0.0492 -0.1687
  338MOL0     C45551   5.324   5.087   1.292  0.3335  0.6408  0.1303
  338MOL0     C45552   5.436   5.117   1.367 -0.6370 -0.4283  0.0241
  338MOL0     O45553   5.537   5.199   1.320 -0.2698 -0.3136 -0.0517
  338MOL0     C45554   5.645   5.133   1.257 -0.5671  0.2254  0.5249
  338MOL0     C45555   5.694   5.224   1.141 -0.1850 -0.5252 -0.1328
  338MOL0     C45556   5.734   5.362   1.190  0.6950 -0.0881 -0.4590
  338MOL0     C45557   5.818   5.453   1.099  0.2827 -0.0450  0.1054
  338MOL0     C45558   5.758   5.467   0.959  0.3000 -0.3211 -0.1633
  338MOL0     C45559   5.699   5.477   0.854  0.4001  1.1461 -0.3304
  338MOL0     C45560   5.454   5.063   1.499  0.1431  0.0985 -0.0346
  338MOL0     C45561   5.354   4.979   1.552 -0.1692  0.1263  0.2703
  338MOL0     C45562   5.374   4.922   1.690  0.7338 -0.2886 -0.2002
  338MOL0     H45563   5.109   4.640   1.787 -0.3678 -1.0139  0.6504
  338MOL0     H45564   4.914   4.532   1.912  3.4773  1.0708  0.5039
  338MOL0     H45565   4.489   4.669   1.748  0.2165 -1.0885 -1.2984
  338MOL0     H45566   4.573   4.529   1.680 -0.4358 -1.5931 -1.1738
  338MOL0     H45567   4.363   4.480   1.794  1.2347  2.1000 -1.5770
  338MOL0     H45568   4.422   4.544   1.951 -0.7526  1.7333 -1.1071
  338MOL0     H45569   4.560   4.353   1.980  0.1538 -0.6768 -0.8787
  338MOL0     H45570   4.597   4.326   1.818  0.7952 -0.3299  0.4392
  338MOL0     H45571   4.323   4.295   1.935  0.4040  1.4672 -0.3848
  338MOL0     H45572   4.365   4.244   1.767  0.4449  5.4552 -1.0662
  338MOL0     H45573   4.371   4.044   1.897  0.1814 -0.4882 -1.2191
  338MOL0     H45574   4.537   4.102   1.865 -0.4669 -1.3546  0.4479
  338MOL0     H45575   4.513   4.193   2.106 -1.0929  1.4048 -1.3031
  338MOL0     H45576   4.374   4.090   2.117 -0.8985  0.1238  0.1833
  338MOL0     H45577   4.497   3.881   2.090 -4.8108  2.6012  2.4948
  338MOL0     H45578   4.581   3.988   2.207 -0.1774  0.9696 -0.2753
  338MOL0     H45579   4.689   3.963   1.920 -0.9663  0.3978  0.1201
  338MOL0     H45580   4.761   4.038   2.061 -1.1477  0.9765  2.2460
  338MOL0     H45581   4.614   3.702   1.936 -0.6182  2.0666 -0.2650
  338MOL0     H45582   4.784   3.415   2.138 -0.8880 -2.6403 -1.4643
  338MOL0     H45583   4.638   3.454   2.052 -0.8961  2.6545  2.1107
  338MOL0     H45584   4.771   3.315   1.906 -1.7368  0.4768  0.4368
  338MOL0     H45585   4.795   3.480   1.840  4.8253 -0.0433 -1.7691
  338MOL0     H45586   4.999   3.348   2.017 -1.2733 -0.3188  0.7885
  338MOL0     H45587   4.996   3.516   1.947  0.3576 -0.8973 -1.2835
  338MOL0     H45588   4.983   3.386   1.722  0.3310  2.3311  1.1538
  338MOL0     H45589   5.011   3.240   1.814  0.2537 -0.5114 -0.3825
  338MOL0     H45590   5.104   3.290   1.555  0.9333  1.7216  0.1862
  338MOL0     H45591   5.221   3.169   1.401  0.6780 -3.5780  1.2209
  338MOL0     H45592   5.751   3.248   1.233 -0.5816 -0.5798 -0.9051
  338MOL0     H45593   5.937   3.152   1.086 -1.8448 -0.0509 -0.2963
  338MOL0     H45594   6.204   2.972   1.275  4.1989 -1.0845  0.2752
  338MOL0     H45595   6.162   2.795   1.269  2.7945  0.8346  1.4483
  338MOL0     H45596   6.276   2.773   1.058 -0.6496  0.7057 -1.7367
  338MOL0     H45597   6.291   2.951   1.044 -1.0960 -2.0140 -2.3048
  338MOL0     H45598   6.468   2.969   1.207  0.6358  0.5220 -0.1649
  338MOL0     H45599   6.436   2.806   1.265 -0.7798 -1.2557 -1.5889
  338MOL0     H45600   6.561   2.908   1.021 -0.5694  1.8922  3.0796
  338MOL0     H45601   6.522   2.725   1.037 -2.9785 -0.5677  1.3818
  338MOL0     H45602   6.677   2.720   1.213 -1.1522 -0.8400 -1.3743
  338MOL0     H45603   6.703   2.901   1.214  0.1241 -0.7586  1.0927
  338MOL0     H45604   6.778   2.712   0.985 -2.0415  1.4205 -1.2157
  338MOL0     H45605   6.829   2.877   1.004 -2.0010  0.3937 -0.2433
  338MOL0     H45606   6.907   2.650   1.190  1.8199 -0.6510 -0.8928
  338MOL0     H45607   6.941   2.818   1.224  0.1670 -0.2934  0.7575
  338MOL0     H45608   7.007   2.679   0.958 -2.9078 -0.5277  1.1252
  338MOL0     H45609   7.041   2.845   0.994  1.7219  0.2971  0.5546
  338MOL0     H45610   5.894   2.789   1.283  0.3520  0.8514  1.2631
  338MOL0     H45611   5.730   2.868   1.443  0.9993 -0.3074 -0.5958
  338MOL0     H45612   5.572   3.218   1.637  0.5914 -1.6881  0.5038
  338MOL0     H45613   5.444   3.320   1.820 -1.2468 -0.4777  0.7234
  338MOL0     H45614   4.657   4.803   1.688  0.5533  1.6668 -0.5294
  338MOL0     H45615   4.844   4.912   1.596 -2.0156 -0.5250 -1.1481
  338MOL0     H45616   5.136   4.997   1.284 -0.0185  3.0893 -0.7588
  338MOL0     H45617   5.315   5.142   1.199 -1.4350 -0.7605 -0.5899
  338MOL0     H45618   5.605   5.047   1.203 -3.0002  0.9137  1.1448
  338MOL0     H45619   5.732   5.100   1.315  2.0081 -0.4954 -3.3702
  338MOL0     H45620   5.612   5.225   1.069  0.3610 -1.0728 -0.7803
  338MOL0     H45621   5.779   5.170   1.097  1.3656  1.4643  0.2755
  338MOL0     H45622   5.783   5.359   1.288 -0.0354 -0.3199 -0.0990
  338MOL0     H45623   5.641   5.417   1.206  0.5319  0.0086 -1.6721
  338MOL0     H45624   5.830   5.555   1.137  0.3051 -0.3649  0.9804
  338MOL0     H45625   5.916   5.406   1.090  0.6605  0.3174  1.8683
  338MOL0     H45626   5.654   5.506   0.761  1.9193  0.2776 -1.3995
  338MOL0     H45627   5.538   5.085   1.565 -0.5414  0.0323  0.8836
  338MOL0     H45628   5.293   4.960   1.753  0.2436 -0.4618 -0.7153
  338MOL0     H45629   5.363   4.813   1.696  0.8305 -0.2816  0.1510
  338MOL0     H45630   5.469   4.952   1.735  0.8386 -0.8541 -0.0324
  339MOL0     O45631   1.189   5.860   2.103 -0.1528 -0.1694  0.1248
  339MOL0     C45632   1.152   5.933   2.014  0.1172 -0.0509  0.5786
  339MOL0     O45633   1.218   6.038   1.957 -0.1075 -0.0461  0.3364
  339MOL0     C45634   1.352   6.069   1.983 -0.7822  0.3918  0.3699
  339MOL0     C45635   1.382   6.204   2.000  0.2382 -0.2191  0.0571
  339MOL0     C45636   1.517   6.238   2.014 -0.3681  0.4133  0.4964
  339MOL0     C45637   1.621   6.141   2.001  0.1806  0.1463  0.0866
  339MOL0     O45638   1.753   6.170   2.009  0.0535  0.0018 -0.1119
  339MOL0     C45639   1.792   6.296   2.069 -0.3497 -0.8984 -0.3055
  339MOL0     C45640   1.942   6.286   2.102 -0.0009  0.0398  0.9589
  339MOL0     C45641   1.976   6.410   2.185 -0.0839 -0.3186 -1.0536
  339MOL0     C45642   2.116   6.404   2.253 -0.8738  0.6242 -0.3740
  339MOL0     C45643   2.142   6.527   2.344 -0.6334  0.1002 -0.4092
  339MOL0     C45644   2.078   6.513   2.482 -0.1416 -0.0142  0.0358
  339MOL0     C45645   2.104   6.642   2.573 -0.4489 -0.5352  0.5840
  339MOL0     C45646   2.015   6.640   2.694  0.3472  0.3860 -1.3825
  339MOL0     N45647   2.074   6.725   2.803 -0.4781 -0.2085 -0.4674
  339MOL0     C45648   2.151   6.660   2.904  0.6152 -0.2980 -0.1050
  339MOL0     C45649   2.198   6.763   2.972  0.2288 -0.4941 -1.2178
  339MOL0     C45650   2.282   6.741   3.087  0.0859 -0.1019  0.6975
  339MOL0     C45651   2.385   6.848   3.105 -0.3832 -0.0974  0.7998
  339MOL0     C45652   2.506   6.825   3.008 -0.4724  1.0816 -0.7412
  339MOL0     C45653   2.601   6.942   3.025  0.6711  0.4481  0.4911
  339MOL0     O45654   2.717   6.905   2.951  0.6320  0.2234  0.3219
  339MOL0     C45655   2.834   6.975   2.949 -0.2039 -0.4184  0.7036
  339MOL0     C45656   2.881   7.040   3.059  0.0171  0.2920 -0.0822
  339MOL0     C45657   3.005   7.105   3.054 -0.3701  0.1233  0.3487
  339MOL0     C45658   3.079   7.117   2.929 -0.1190  0.3605 -0.0658
  339MOL0     C45659   3.207   7.182   2.929 -0.0730 -0.0132  0.2061
  339MOL0     O45660   3.272   7.224   3.045 -0.4396  0.0316  0.0961
  339MOL0     C45661   3.391   7.303   3.050  0.0736  0.3869  0.5808
  339MOL0     C45662   3.478   7.332   2.938 -0.0166 -0.2418 -0.4169
  339MOL0     C45663   3.597   7.402   2.970  0.1779  0.2610  0.1335
  339MOL0     C45664   3.630   7.456   3.091 -0.3483  0.2321  0.7626
  339MOL0     O45665   3.738   7.532   3.107 -0.9102  0.4934  0.1911
  339MOL0     C45666   3.863   7.478   3.058 -0.0685  0.5876 -1.0050
  339MOL0     C45667   3.971   7.552   3.143  0.5216  0.3802 -1.3013
  339MOL0     C45668   4.105   7.536   3.076 -0.3554 -0.2725 -0.9782
  339MOL0     C45669   4.212   7.578   3.184  0.0468  0.1487 -0.1387
  339MOL0     C45670   4.356   7.570   3.130  0.3161 -0.8893 -1.2347
  339MOL0     C45671   4.389   7.427   3.106  0.3949 -0.0957  0.5168
  339MOL0     C45672   4.533   7.421   3.060 -0.4704  0.1534  0.0189
  339MOL0     C45673   4.639   7.450   3.166  0.5499  0.3602 -0.3094
  339MOL0    Cl45674   4.804   7.436   3.095 -0.0569  0.0096  0.0392
  339MOL0     C45675   3.535   7.436   3.192 -1.1986  0.3756  0.1970
  339MOL0     C45676   3.413   7.361   3.176 -0.6887 -0.5029  0.2538
  339MOL0     O45677   3.251   7.194   2.811  0.2672  0.0738  0.0865
  339MOL0     C45678   3.028   7.046   2.822  0.8396 -0.7294  0.5442
  339MOL0     C45679   2.903   6.978   2.831 -1.9985 -0.1791  0.9377
  339MOL0     N45680   2.156   6.890   2.921 -0.5750 -0.0256 -0.1220
  339MOL0     N45681   2.077   6.861   2.819  0.2339 -0.5096 -0.6276
  339MOL0     C45682   1.590   6.009   1.970  0.4798  0.2720 -0.3229
  339MOL0     C45683   1.459   5.974   1.956 -0.4790 -0.2699 -0.5485
  339MOL0     C45684   1.024   5.900   1.946 -0.3176  0.3087 -1.8922
  339MOL0     C45685   0.939   6.009   1.918  0.0120  0.8256  1.3601
  339MOL0     C45686   0.815   5.980   1.855  0.5204 -0.0730 -0.1512
  339MOL0     C45687   0.778   5.853   1.826  0.9561 -0.7500  1.0908
  339MOL0     O45688   0.663   5.829   1.750 -0.2418 -0.1174 -0.0587
  339MOL0     C45689   0.547   5.914   1.733  0.6553 -0.0971  0.1236
  339MOL0     C45690   0.417   5.830   1.727 -1.0999  0.5760 -1.0421
  339MOL0     C45691   0.379   5.804   1.875 -0.5819  0.0549  0.0656
  339MOL0     C45692   0.242   5.741   1.884  0.1075 -0.3826  0.3381
  339MOL0     C45693   0.211   5.703   2.022 -0.3777  0.0529  0.1574
  339MOL0     C45694   0.171   5.659   2.130  0.2775  0.5226  0.7269
  339MOL0     C45695   0.856   5.753   1.869  0.4590  0.4198  0.0813
  339MOL0     C45696   0.985   5.770   1.923  1.0380 -0.2802 -0.0193
  339MOL0     C45697   1.065   5.640   1.938 -0.2082 -0.5129  0.2875
  339MOL0     H45698   1.309   6.284   1.997 -0.4639 -0.8351  0.3908
  339MOL0     H45699   1.536   6.344   2.028  0.0025  0.9792 -3.2922
  339MOL0     H45700   1.768   6.381   2.005 -0.7011  1.4128  2.6996
  339MOL0     H45701   1.733   6.311   2.160 -2.3321  0.4546 -1.7320
  339MOL0     H45702   1.996   6.274   2.007 -0.7708 -1.3304  0.6603
  339MOL0     H45703   1.960   6.189   2.150 -0.2953 -0.8840 -0.7241
  339MOL0     H45704   1.905   6.421   2.267 -1.4921  2.1117 -2.4715
  339MOL0     H45705   1.973   6.504   2.130  0.4565  1.1039  1.2214
  339MOL0     H45706   2.127   6.306   2.300 -0.1187  1.4700  1.2726
  339MOL0     H45707   2.194   6.405   2.177 -1.2232 -0.3496 -0.7631
  339MOL0     H45708   2.248   6.539   2.369 -1.4815  1.0910  3.4680
  339MOL0     H45709   2.110   6.617   2.290  1.1078  0.8290 -0.2999
  339MOL0     H45710   1.970   6.506   2.471 -0.0546 -3.2058  0.5024
  339MOL0     H45711   2.115   6.423   2.531  1.3562 -1.5909 -3.6733
  339MOL0     H45712   2.079   6.726   2.508  0.6932 -1.8709 -1.7371
  339MOL0     H45713   2.211   6.650   2.599 -0.2786  0.4860 -0.3727
  339MOL0     H45714   1.916   6.686   2.686  0.3924  1.2622  1.8974
  339MOL0     H45715   2.007   6.536   2.727 -0.8752  0.7579 -0.4148
  339MOL0     H45716   2.171   6.556   2.927 -0.5716 -0.3371  0.8372
  339MOL0     H45717   2.216   6.744   3.175 -0.9876  2.0343 -0.0936
  339MOL0     H45718   2.329   6.643   3.082  0.7542  0.2630 -0.2958
  339MOL0     H45719   2.345   6.949   3.089 -0.5889 -0.4535 -1.1374
  339MOL0     H45720   2.419   6.846   3.209  0.4945 -1.1873  0.5075
  339MOL0     H45721   2.476   6.810   2.904  1.8625 -1.4520 -1.1623
  339MOL0     H45722   2.561   6.735   3.035  0.2963  1.2117 -1.8417
  339MOL0     H45723   2.618   6.962   3.131  0.2019  1.9373  0.3027
  339MOL0     H45724   2.560   7.032   2.979 -2.7374  0.1373  2.5594
  339MOL0     H45725   2.836   7.028   3.157 -1.4621 -0.3391 -0.8204
  339MOL0     H45726   3.045   7.158   3.140  1.1747  1.5059 -1.1309
  339MOL0     H45727   3.463   7.287   2.841 -0.2406 -1.4683  0.1612
  339MOL0     H45728   3.669   7.416   2.890  2.5796  0.3728  2.1953
  339MOL0     H45729   3.876   7.370   3.068  0.8716  0.7833  0.1280
  339MOL0     H45730   3.879   7.499   2.952 -0.0268  5.2196 -0.2821
  339MOL0     H45731   3.945   7.656   3.168 -0.1288  0.8330 -3.5580
  339MOL0     H45732   3.984   7.497   3.236 -1.3798  0.1747 -1.1341
  339MOL0     H45733   4.124   7.436   3.036  1.3374  0.9617 -3.5645
  339MOL0     H45734   4.102   7.607   2.993 -1.9304  1.6493  0.6132
  339MOL0     H45735   4.213   7.507   3.268 -1.8620  0.9047  0.5730
  339MOL0     H45736   4.185   7.679   3.215 -1.2424  0.0072 -0.7287
  339MOL0     H45737   4.429   7.617   3.196  0.9844 -2.7531 -0.5842
  339MOL0     H45738   4.360   7.624   3.035 -1.5524 -1.6441 -1.7883
  339MOL0     H45739   4.385   7.362   3.194  2.0986  0.3357  0.9535
  339MOL0     H45740   4.320   7.386   3.032 -0.3983  2.3809 -0.2182
  339MOL0     H45741   4.543   7.491   2.976 -2.7702  0.4160 -0.1244
  339MOL0     H45742   4.547   7.322   3.017 -1.5407  0.9536 -2.3402
  339MOL0     H45743   4.611   7.549   3.203 -0.0145  0.5816 -1.3007
  339MOL0     H45744   4.628   7.384   3.253  1.8102  0.6400  0.0867
  339MOL0     H45745   3.551   7.484   3.288  1.2826  2.1206 -1.0061
  339MOL0     H45746   3.345   7.345   3.259 -0.7185  2.9098  1.0275
  339MOL0     H45747   3.077   7.023   2.728 -0.1361  1.3422 -0.5461
  339MOL0     H45748   2.859   6.923   2.749 -0.4042  2.0478 -1.5663
  339MOL0     H45749   1.654   5.921   1.970  0.0746 -0.1046 -2.8664
  339MOL0     H45750   1.439   5.871   1.929  1.6199 -1.3692  1.7753
  339MOL0     H45751   0.966   6.111   1.943 -1.4936  0.8964  2.8752
  339MOL0     H45752   0.754   6.067   1.834  0.5142 -0.0376  0.0077
  339MOL0     H45753   0.563   5.973   1.642 -0.1386  0.5348  0.3796
  339MOL0     H45754   0.534   5.987   1.814 -2.3610 -0.4784  0.1143
  339MOL0     H45755   0.425   5.731   1.683 -3.7226 -0.7317  1.1041
  339MOL0     H45756   0.338   5.880   1.670 -5.3249 -3.6810  0.4394
  339MOL0     H45757   0.382   5.895   1.937 -3.5471 -0.4036  1.0584
  339MOL0     H45758   0.453   5.737   1.920 -0.2132  0.1437 -0.4078
  339MOL0     H45759   0.164   5.807   1.845  0.5241  1.2837  2.1386
  339MOL0     H45760   0.245   5.658   1.814 -0.9109  0.7974 -1.1894
  339MOL0     H45761   0.139   5.623   2.226 -0.5275 -0.1141  0.2362
  339MOL0     H45762   0.822   5.651   1.849 -0.1234  0.7306 -0.5521
  339MOL0     H45763   1.009   5.552   1.906 -0.9967  0.0658  0.0577
  339MOL0     H45764   1.152   5.651   1.872 -0.6917  4.0141  0.1029
  339MOL0     H45765   1.107   5.620   2.037 -2.4676 -0.6019  1.2728
  340MOL0     O45766   7.715   1.881   2.114  0.3400  0.5613 -0.0116
  340MOL0     C45767   7.674   1.767   2.123  0.3081  0.5463  1.2446
  340MOL0     O45768   7.736   1.656   2.078 -0.4944  0.3593  0.3365
  340MOL0     C45769   7.875   1.647   2.065  0.3584  0.0838 -0.1456
  340MOL0     C45770   7.965   1.754   2.080  0.0134  0.0482  0.1622
  340MOL0     C45771   8.101   1.733   2.072  0.1187 -0.0785  0.0733
  340MOL0     C45772   8.158   1.600   2.041 -0.3080 -0.1174  0.0612
  340MOL0     O45773   8.291   1.559   2.027  0.1067 -0.8592  0.5249
  340MOL0     C45774   8.380   1.659   1.984  0.5570 -0.6370  0.4207
  340MOL0     C45775   8.509   1.591   1.926  0.4554 -0.5615  1.1095
  340MOL0     C45776   8.597   1.711   1.884 -0.3682 -0.7886  0.3399
  340MOL0     C45777   8.707   1.655   1.798  1.0022  0.0847 -1.0633
  340MOL0     C45778   8.789   1.765   1.742  1.6774 -0.2120  0.1443
  340MOL0     C45779   8.935   1.714   1.715  0.1231  0.4044 -0.0281
  340MOL0     C45780   9.018   1.830   1.653  0.8738  0.0112 -0.0522
  340MOL0     C45781   9.169   1.793   1.626  0.5442  0.1679  0.2283
  340MOL0     N45782   9.243   1.819   1.746  0.3250 -0.0946 -0.3024
  340MOL0     C45783   9.294   1.724   1.840  0.0422 -0.0681  0.1600
  340MOL0     C45784   9.372   1.796   1.926  0.5624  0.7362  0.5096
  340MOL0     C45785   9.439   1.728   2.038  0.1112 -0.5889 -0.5971
  340MOL0     C45786   9.553   1.798   2.108  0.4954 -0.6561 -0.3134
  340MOL0     C45787   9.660   1.853   2.010 -0.0298 -0.4424 -0.3126
  340MOL0     C45788   9.741   1.961   2.077 -1.7541 -0.9055 -0.1729
  340MOL0     O45789   9.831   1.923   2.175  0.4375 -0.1652 -0.4742
  340MOL0     C45790   9.935   2.006   2.214 -0.6544 -0.0612 -0.1538
  340MOL0     C45791   9.955   2.133   2.154  0.2962  1.2657  0.1501
  340MOL0     C45792  10.060   2.218   2.196  0.5909  0.1567 -0.3252
  340MOL0     C45793  10.145   2.174   2.297 -0.1529 -0.5338  0.2531
  340MOL0     C45794  10.252   2.261   2.352 -0.3017  0.1483  0.0115
  340MOL0     O45795  10.232   2.400   2.366  0.0097  0.5615 -0.2907
  340MOL0     C45796  10.338   2.477   2.418  0.8888  0.1725  0.1361
  340MOL0     C45797  10.399   2.571   2.327  0.8264 -0.4957  0.6673
  340MOL0     C45798  10.513   2.646   2.365 -0.0781 -0.1484  0.2538
  340MOL0     C45799  10.551   2.627   2.502  0.1426  0.6229  0.1689
  340MOL0     O45800  10.652   2.701   2.563  0.0817 -0.4127 -0.1249
  340MOL0     C45801  10.739   2.786   2.483  0.3071  0.0329  0.0061
  340MOL0     C45802  10.859   2.833   2.553 -0.1469 -0.0739  0.0929
  340MOL0     C45803  10.830   2.908   2.681  0.9856  0.2429 -0.3708
  340MOL0     C45804  10.956   2.965   2.750 -0.8053  0.3250  0.2857
  340MOL0     C45805  10.917   3.073   2.859  0.0957  0.2746  0.0624
  340MOL0     C45806  11.024   3.170   2.895 -0.4666 -0.2902  0.4792
  340MOL0     C45807  11.142   3.105   2.964  0.0554 -0.7201  0.1353
  340MOL0     C45808  11.278   3.184   2.963 -0.2752  0.7060 -0.5085
  340MOL0    Cl45809  11.259   3.361   3.005  0.0517  0.0726  0.0222
  340MOL0     C45810  10.474   2.543   2.594 -0.3909  0.0435 -0.2753
  340MOL0     C45811  10.377   2.462   2.548 -0.6005  0.4692  0.7911
  340MOL0     O45812  10.352   2.203   2.398 -0.8297  0.7332 -0.3944
  340MOL0     C45813  10.123   2.053   2.361  0.3196  0.5999 -0.2749
  340MOL0     C45814  10.026   1.961   2.311 -0.2341 -0.5177 -0.2675
  340MOL0     N45815   9.376   1.924   1.876 -0.2606 -0.1095 -0.6608
  340MOL0     N45816   9.290   1.941   1.782 -0.3096 -0.4908 -0.0901
  340MOL0     C45817   8.068   1.498   2.011 -0.1752 -0.4564 -0.6007
  340MOL0     C45818   7.926   1.522   2.028  0.2725  0.6527  0.2472
  340MOL0     C45819   7.540   1.748   2.187 -0.3451  0.2227 -0.6805
  340MOL0     C45820   7.431   1.833   2.157  0.0628 -0.0925 -0.1282
  340MOL0     C45821   7.304   1.799   2.202  0.1614  0.8069 -0.8615
  340MOL0     C45822   7.272   1.692   2.279  0.7695 -0.5557  0.6873
  340MOL0     O45823   7.139   1.666   2.326  0.1989  0.0311 -0.5948
  340MOL0     C45824   7.123   1.576   2.437  0.1642  0.9335 -0.0802
  340MOL0     C45825   6.997   1.620   2.512 -0.1606 -0.2928 -0.9114
  340MOL0     C45826   7.011   1.771   2.547 -0.5976  0.3092 -0.2839
  340MOL0     C45827   6.927   1.811   2.671 -0.3011 -0.0063 -0.2408
  340MOL0     C45828   6.788   1.813   2.623  0.0326  0.6748  0.1023
  340MOL0     C45829   6.667   1.823   2.602 -0.8073 -0.4112 -0.7128
  340MOL0     C45830   7.379   1.613   2.316 -0.0969  0.5190  0.5198
  340MOL0     C45831   7.511   1.636   2.271  0.1804  0.6361 -0.7430
  340MOL0     C45832   7.623   1.540   2.321 -0.8496  0.8091  0.3067
  340MOL0     H45833   7.945   1.855   2.115 -1.6728 -0.5500  1.0436
  340MOL0     H45834   8.158   1.824   2.086 -2.5403  1.7945 -0.6254
  340MOL0     H45835   8.339   1.709   1.895 -0.1005 -1.1070  0.4505
  340MOL0     H45836   8.409   1.731   2.061  0.9059 -1.8829  1.4847
  340MOL0     H45837   8.486   1.530   1.839 -1.5896 -0.6930  1.6893
  340MOL0     H45838   8.567   1.530   1.997  3.3214  0.7237  0.0112
  340MOL0     H45839   8.627   1.768   1.972 -3.0750  1.7798 -0.2507
  340MOL0     H45840   8.539   1.782   1.825  0.7701  0.3569  0.5594
  340MOL0     H45841   8.761   1.588   1.865 -1.3080 -0.5696  0.2668
  340MOL0     H45842   8.676   1.598   1.710  0.1614  2.1069 -2.1351
  340MOL0     H45843   8.736   1.798   1.652 -0.4665 -1.7252  0.7555
  340MOL0     H45844   8.802   1.846   1.815  1.6879 -0.3475  0.2933
  340MOL0     H45845   8.976   1.674   1.808  2.0084 -0.9051 -1.3736
  340MOL0     H45846   8.929   1.630   1.646  1.5368 -1.1660  1.6416
  340MOL0     H45847   9.001   1.916   1.719 -2.5906 -1.4993  1.2915
  340MOL0     H45848   8.973   1.860   1.558 -1.6278 -2.3119  0.2670
  340MOL0     H45849   9.177   1.687   1.600  1.7035 -0.0296  1.3225
  340MOL0     H45850   9.205   1.856   1.544  0.1190 -0.2825 -0.3176
  340MOL0     H45851   9.271   1.618   1.840  0.9068 -0.3136 -1.9427
  340MOL0     H45852   9.371   1.688   2.113  0.7438  1.0200  0.9135
  340MOL0     H45853   9.490   1.648   1.983 -1.6164 -2.0322 -0.1699
  340MOL0     H45854   9.517   1.887   2.162  0.1064 -0.8599 -0.2348
  340MOL0     H45855   9.592   1.724   2.178  0.8004  0.2171  0.4577
  340MOL0     H45856   9.623   1.894   1.916  0.5428 -1.4242 -0.9948
  340MOL0     H45857   9.728   1.776   1.972  1.6189  0.5207  0.5850
  340MOL0     H45858   9.675   2.032   2.128  1.4539  0.2271  2.8151
  340MOL0     H45859   9.789   2.015   1.995  0.2794 -3.1574 -0.5995
  340MOL0     H45860   9.897   2.179   2.075 -0.2437 -1.7687 -1.3440
  340MOL0     H45861  10.076   2.312   2.144 -0.7954  1.0641  0.8242
  340MOL0     H45862  10.365   2.567   2.224  0.9152  1.3659  0.5270
  340MOL0     H45863  10.550   2.733   2.311  0.6838  0.6497  1.9878
  340MOL0     H45864  10.782   2.730   2.399  2.4772  1.3220  0.1728
  340MOL0     H45865  10.678   2.862   2.432 -0.3581 -1.3513 -1.3415
  340MOL0     H45866  10.908   2.740   2.584  0.8168  0.4195  0.0873
  340MOL0     H45867  10.917   2.894   2.483  0.4462 -0.3283  0.3508
  340MOL0     H45868  10.758   2.986   2.656  1.4025  0.4247 -1.0232
  340MOL0     H45869  10.774   2.841   2.748  1.9584 -0.1973  0.0228
  340MOL0     H45870  11.022   3.009   2.674 -0.6427  0.7789  0.6847
  340MOL0     H45871  11.026   2.895   2.797  2.1753  4.9448  3.5696
  340MOL0     H45872  10.883   3.022   2.950  0.7283 -1.4899 -0.6355
  340MOL0     H45873  10.837   3.131   2.814  1.2362  2.9930  1.3478
  340MOL0     H45874  11.065   3.224   2.810  0.4902 -0.6075  0.7242
  340MOL0     H45875  10.988   3.256   2.953  1.1248  0.4770  0.3679
  340MOL0     H45876  11.148   3.004   2.921 -1.1670  0.5743 -3.4365
  340MOL0     H45877  11.112   3.091   3.069  0.0425 -1.0337  0.0927
  340MOL0     H45878  11.347   3.142   3.036 -1.8106  0.5499  0.9068
  340MOL0     H45879  11.332   3.170   2.868  0.9797 -0.3407  0.3208
  340MOL0     H45880  10.503   2.535   2.698 -0.0901 -0.4156 -0.3952
  340MOL0     H45881  10.315   2.398   2.609 -0.5922 -0.7058 -0.4118
  340MOL0     H45882  10.188   2.020   2.440  0.2359 -0.8374 -0.7848
  340MOL0     H45883  10.023   1.866   2.364  0.5923  0.1813  1.0863
  340MOL0     H45884   8.115   1.407   1.975 -0.4010 -0.2055 -1.5729
  340MOL0     H45885   7.852   1.446   2.005  1.2952 -0.9402  1.8925
  340MOL0     H45886   7.431   1.927   2.104 -2.2535  0.6244  0.9973
  340MOL0     H45887   7.225   1.868   2.174 -2.3303 -2.1069 -1.4589
  340MOL0     H45888   7.208   1.591   2.504  0.5004 -1.1372  0.0325
  340MOL0     H45889   7.125   1.471   2.405  1.1636  0.5881  1.0354
  340MOL0     H45890   6.999   1.562   2.605  0.2847 -0.4802 -1.0317
  340MOL0     H45891   6.910   1.605   2.448 -0.7773  1.8720 -0.6358
  340MOL0     H45892   6.990   1.841   2.465  2.5929  1.3999 -0.3403
  340MOL0     H45893   7.115   1.787   2.579 -0.5977  3.0433 -1.3682
  340MOL0     H45894   6.943   1.732   2.745 -1.9481  0.3970  0.5977
  340MOL0     H45895   6.959   1.908   2.710 -1.3234 -0.0177  0.6593
  340MOL0     H45896   6.562   1.838   2.587 -0.7802  3.1304  1.5026
  340MOL0     H45897   7.352   1.521   2.366  0.3794 -0.1768 -0.4767
  340MOL0     H45898   7.612   1.494   2.420  2.5834 -2.7136 -0.7105
  340MOL0     H45899   7.657   1.462   2.253  1.8879 -0.2857  2.7462
  340MOL0     H45900   7.712   1.601   2.338 -0.4583 -0.1545  1.9535
  341MOL0     O45901   4.059   8.435   8.144  0.0133  0.4666  0.1959
  341MOL0     C45902   3.976   8.387   8.225  0.6471 -0.3608  0.2166
  341MOL0     O45903   3.989   8.361   8.351  0.1005 -0.2328 -0.0798
  341MOL0     C45904   4.119   8.339   8.389 -0.1528  0.0958 -0.0784
  341MOL0     C45905   4.211   8.242   8.347 -0.4911  0.1738 -1.1357
  341MOL0     C45906   4.331   8.220   8.407  0.0095  0.6318 -0.1108
  341MOL0     C45907   4.371   8.292   8.520  0.3548 -0.4262 -0.2390
  341MOL0     O45908   4.486   8.250   8.589  0.2950  0.1847 -0.3445
  341MOL0     C45909   4.481   8.272   8.732 -0.1728  0.1841  0.4411
  341MOL0     C45910   4.581   8.186   8.813 -0.4110 -0.1323  0.1305
  341MOL0     C45911   4.723   8.234   8.780 -0.3071  0.0397  0.2739
  341MOL0     C45912   4.782   8.157   8.652 -0.5885  0.0728  0.0300
  341MOL0     C45913   4.909   8.232   8.619  0.4818 -0.1799  0.2765
  341MOL0     C45914   4.962   8.189   8.487 -0.3373 -0.7946  0.1523
  341MOL0     C45915   5.097   8.260   8.467 -0.5943  0.1489  0.7132
  341MOL0     C45916   5.216   8.205   8.555 -0.0824  0.7975 -0.8584
  341MOL0     N45917   5.333   8.292   8.538 -0.2519 -0.1375 -0.0386
  341MOL0     C45918   5.375   8.383   8.632  0.2416  1.0808 -0.0338
  341MOL0     C45919   5.492   8.431   8.577 -0.0608 -0.2679 -0.3038
  341MOL0     C45920   5.579   8.537   8.642 -0.1607  0.5397  0.1657
  341MOL0     C45921   5.724   8.472   8.665  0.2375 -0.3695  0.0746
  341MOL0     C45922   5.830   8.572   8.723 -0.2900 -0.2067 -0.1429
  341MOL0     C45923   5.980   8.515   8.729 -0.6031  0.9150 -0.6782
  341MOL0     O45924   6.071   8.603   8.792 -0.2166  0.4412  0.2956
  341MOL0     C45925   6.194   8.550   8.835 -0.0072  0.5021 -0.3989
  341MOL0     C45926   6.241   8.417   8.800  0.4021 -0.0955  0.2272
  341MOL0     C45927   6.371   8.384   8.822  0.2527 -0.7899 -0.3436
  341MOL0     C45928   6.463   8.465   8.886 -0.4082 -0.4378  0.4724
  341MOL0     C45929   6.597   8.415   8.918  0.6584 -0.0862  0.1407
  341MOL0     O45930   6.688   8.510   8.933  0.5703  0.2924  0.1559
  341MOL0     C45931   6.816   8.460   8.942 -0.2035  0.0242  0.1183
  341MOL0     C45932   6.869   8.419   9.068 -0.0344  0.6135 -0.0921
  341MOL0     C45933   7.003   8.365   9.067 -0.6888 -0.3049 -0.5725
  341MOL0     C45934   7.083   8.358   8.954  0.7789  0.1558  0.2499
  341MOL0     O45935   7.212   8.308   8.947 -0.5720  0.3321  0.0141
  341MOL0     C45936   7.277   8.269   9.070 -0.3063  0.2370  0.2541
  341MOL0     C45937   7.418   8.246   9.047 -0.3129 -0.3133 -0.4569
  341MOL0     C45938   7.481   8.205   9.176  0.6043 -0.1638  0.0617
  341MOL0     C45939   7.607   8.127   9.149 -0.5735 -0.4360  0.0776
  341MOL0     C45940   7.722   8.207   9.083  0.1939 -0.3138  0.0189
  341MOL0     C45941   7.843   8.115   9.055 -0.1565 -0.8359 -0.0767
  341MOL0     C45942   7.972   8.173   8.991 -0.3588  0.3574 -0.1063
  341MOL0     C45943   8.082   8.065   8.966  0.9291 -0.4992  0.6873
  341MOL0    Cl45944   8.231   8.158   8.966  0.2479  0.0240  0.2206
  341MOL0     C45945   7.030   8.419   8.840 -0.1145 -0.2188 -0.1461
  341MOL0     C45946   6.903   8.467   8.833  0.7970  0.0669  0.8881
  341MOL0     O45947   6.606   8.296   8.951 -0.9488  0.2853 -0.7976
  341MOL0     C45948   6.420   8.600   8.915 -0.3488  0.9245 -0.3208
  341MOL0     C45949   6.287   8.645   8.887 -0.6133  0.3259  0.0424
  341MOL0     N45950   5.516   8.373   8.455 -0.4241  0.9316 -0.1212
  341MOL0     N45951   5.417   8.292   8.429 -0.2081  0.1410  0.0236
  341MOL0     C45952   4.282   8.387   8.567 -0.4642  0.6126 -0.1240
  341MOL0     C45953   4.157   8.403   8.506  0.0486  0.7085  0.5603
  341MOL0     C45954   3.844   8.367   8.166  0.2058  0.2178 -0.4461
  341MOL0     C45955   3.770   8.266   8.234  0.1554  0.1674 -0.4444
  341MOL0     C45956   3.653   8.212   8.191  0.0125 -0.3178  0.0460
  341MOL0     C45957   3.593   8.267   8.076 -0.9008 -0.8995 -0.3050
  341MOL0     O45958   3.475   8.241   8.025 -0.2532  0.9065  0.7826
  341MOL0     C45959   3.380   8.151   8.084  0.2284  0.1725  0.5437
  341MOL0     C45960   3.318   8.196   8.221  0.2368  0.4519 -0.4309
  341MOL0     C45961   3.208   8.299   8.191  0.1465 -0.4152  0.9205
  341MOL0     C45962   3.160   8.368   8.330  0.4938 -0.0453  0.1659
  341MOL0     C45963   3.091   8.271   8.416  0.3593  0.0295 -0.4981
  341MOL0     C45964   3.013   8.201   8.481 -0.2750  0.4468  0.3373
  341MOL0     C45965   3.658   8.371   8.008  0.4017 -0.8119 -0.4494
  341MOL0     C45966   3.786   8.421   8.051  0.5597  0.3300  0.2446
  341MOL0     C45967   3.842   8.528   7.968 -0.3328 -0.1089 -0.4054
  341MOL0     H45968   4.193   8.181   8.259 -0.2766 -0.6313 -0.6408
  341MOL0     H45969   4.383   8.136   8.363 -4.4739 -1.1525 -2.7656
  341MOL0     H45970   4.496   8.375   8.764  0.0773  0.0367  0.8013
  341MOL0     H45971   4.382   8.240   8.767 -2.0413  1.8722 -2.7322
  341MOL0     H45972   4.571   8.085   8.771 -1.9059 -0.3221  0.8687
  341MOL0     H45973   4.560   8.183   8.920 -2.3659 -4.0111 -0.1632
  341MOL0     H45974   4.785   8.221   8.869 -2.9311  3.3964  2.8650
  341MOL0     H45975   4.721   8.342   8.759  3.7830 -0.0967 -1.9229
  341MOL0     H45976   4.806   8.050   8.662  0.0337  0.0104 -1.7303
  341MOL0     H45977   4.714   8.162   8.567 -0.3928  3.9181 -0.0596
  341MOL0     H45978   4.891   8.339   8.609  0.6690 -0.1625  0.1173
  341MOL0     H45979   4.977   8.209   8.701  1.3673 -1.1173 -0.6932
  341MOL0     H45980   4.980   8.083   8.470  3.4153 -0.2665 -0.0660
  341MOL0     H45981   4.903   8.231   8.404  1.5813 -1.4958 -1.6448
  341MOL0     H45982   5.088   8.368   8.481 -1.9205  0.5036 -2.0540
  341MOL0     H45983   5.121   8.253   8.360  0.9043  0.6497  0.9911
  341MOL0     H45984   5.198   8.190   8.662 -0.9140  0.4267 -1.0448
  341MOL0     H45985   5.227   8.105   8.510 -3.4952  0.7061 -1.7343
  341MOL0     H45986   5.320   8.384   8.726 -1.2558 -2.3051 -0.7266
  341MOL0     H45987   5.592   8.620   8.571  3.0741  0.9192  1.0428
  341MOL0     H45988   5.529   8.568   8.735  0.9089 -0.5688  1.1491
  341MOL0     H45989   5.726   8.382   8.727 -1.6461 -0.4390  0.0774
  341MOL0     H45990   5.753   8.422   8.572 -0.6101 -1.0248  0.1537
  341MOL0     H45991   5.796   8.601   8.823 -4.9937 -0.6823 -1.4003
  341MOL0     H45992   5.827   8.657   8.654 -1.8079  1.0744  1.3912
  341MOL0     H45993   6.010   8.483   8.629 -1.1699 -0.2577 -0.4923
  341MOL0     H45994   5.974   8.432   8.801  1.8395  0.1523 -1.2491
  341MOL0     H45995   6.184   8.343   8.744  0.4960  0.5436 -0.7469
  341MOL0     H45996   6.419   8.289   8.801  2.4151 -0.0962  1.1382
  341MOL0     H45997   6.810   8.414   9.160  2.3532 -0.7301  1.4659
  341MOL0     H45998   7.035   8.319   9.159 -1.9400  1.2945  0.7229
  341MOL0     H45999   7.265   8.341   9.151 -1.6956 -0.8720  1.0809
  341MOL0     H46000   7.239   8.175   9.110  2.0788 -1.5759 -1.4042
  341MOL0     H46001   7.421   8.167   8.971 -1.3438  1.0704 -2.0275
  341MOL0     H46002   7.469   8.337   9.013 -0.3031  0.8105  2.2873
  341MOL0     H46003   7.493   8.295   9.237 -3.2137  0.8476 -0.3704
  341MOL0     H46004   7.408   8.139   9.225  1.6491 -1.3071  0.1102
  341MOL0     H46005   7.587   8.041   9.083  1.8053  0.5708 -2.1719
  341MOL0     H46006   7.649   8.085   9.240  0.6481  3.2132  1.3603
  341MOL0     H46007   7.759   8.279   9.156 -2.5639 -0.3573  1.5957
  341MOL0     H46008   7.684   8.262   8.996 -1.6052  1.0567  1.5905
  341MOL0     H46009   7.866   8.067   9.150  1.0896  1.1597  0.6848
  341MOL0     H46010   7.823   8.042   8.975  0.2078  1.7393 -2.6814
  341MOL0     H46011   8.017   8.249   9.056  0.7009 -1.6327  1.6110
  341MOL0     H46012   7.953   8.217   8.893  2.5893  0.0320 -0.9397
  341MOL0     H46013   8.077   8.000   9.054 -3.7677  2.9380  3.4075
  341MOL0     H46014   8.055   8.022   8.869  1.4983  0.2023  0.2114
  341MOL0     H46015   7.084   8.424   8.746  1.3298  0.1946  0.6855
  341MOL0     H46016   6.877   8.505   8.735  1.6118 -0.4233  0.4771
  341MOL0     H46017   6.489   8.667   8.964 -0.7056  0.3195  1.0705
  341MOL0     H46018   6.252   8.747   8.904 -0.2252  0.6565 -1.0942
  341MOL0     H46019   4.303   8.441   8.659 -0.9987 -0.1085  0.4377
  341MOL0     H46020   4.093   8.479   8.550 -1.2555 -0.6058  0.9666
  341MOL0     H46021   3.817   8.220   8.321 -0.4658 -0.3742 -0.3904
  341MOL0     H46022   3.604   8.141   8.257 -3.8568  0.3873 -1.7225
  341MOL0     H46023   3.420   8.051   8.105  1.8112  0.9403  1.4464
  341MOL0     H46024   3.298   8.130   8.015  0.0541 -0.7226  0.9981
  341MOL0     H46025   3.396   8.245   8.279  0.4173  0.1573 -0.4206
  341MOL0     H46026   3.280   8.109   8.275  0.9999 -0.2836 -1.0486
  341MOL0     H46027   3.124   8.249   8.142  0.3275  1.5874 -1.6202
  341MOL0     H46028   3.247   8.362   8.111  0.0042 -1.5035 -0.0283
  341MOL0     H46029   3.251   8.407   8.377 -0.1398  0.4903  0.9805
  341MOL0     H46030   3.094   8.456   8.323 -0.3360 -0.7389 -1.2388
  341MOL0     H46031   2.939   8.141   8.530  1.7434 -2.3388  0.2500
  341MOL0     H46032   3.610   8.404   7.917  0.5240 -0.3293 -0.3417
  341MOL0     H46033   3.835   8.621   8.024 -3.3621 -1.0132  0.9275
  341MOL0     H46034   3.945   8.505   7.940 -0.2657 -1.7719  1.0569
  341MOL0     H46035   3.785   8.543   7.876 -1.2191 -3.7856 -0.6052
  342MOL0     O46036   4.767   3.303   4.575 -0.1354 -0.7047 -0.0609
  342MOL0     C46037   4.830   3.213   4.619 -0.7607  0.4269  0.2556
  342MOL0     O46038   4.945   3.224   4.697  0.6345  0.0755  0.4743
  342MOL0     C46039   4.986   3.348   4.741 -0.2587 -0.1721  0.1642
  342MOL0     C46040   4.902   3.445   4.807 -0.2490 -1.0602 -0.4436
  342MOL0     C46041   4.963   3.554   4.874 -0.7144 -0.6020  0.1479
  342MOL0     C46042   5.103   3.577   4.869  0.1204 -0.0013 -0.2337
  342MOL0     O46043   5.162   3.685   4.935 -0.0890 -0.2241  0.1468
  342MOL0     C46044   5.090   3.772   5.023  0.6676 -0.4892  0.2503
  342MOL0     C46045   5.176   3.852   5.120 -0.0638 -0.5450 -0.1279
  342MOL0     C46046   5.266   3.948   5.036 -0.3661  0.1534  0.1543
  342MOL0     C46047   5.344   4.041   5.122 -0.8196  0.8698  0.3254
  342MOL0     C46048   5.440   4.130   5.036 -0.6728 -0.2232  0.1095
  342MOL0     C46049   5.559   4.182   5.115 -0.2206 -0.6226 -0.3248
  342MOL0     C46050   5.649   4.248   5.019 -0.4490  0.1091  0.8396
  342MOL0     C46051   5.722   4.164   4.913  0.5982 -0.5617  0.5245
  342MOL0     N46052   5.823   4.241   4.837 -0.1376  0.5611 -0.5395
  342MOL0     C46053   5.799   4.313   4.737 -0.9174 -0.6918  0.3254
  342MOL0     C46054   5.918   4.376   4.701  0.5707 -0.6138  0.5117
  342MOL0     C46055   5.936   4.477   4.592 -0.4133  0.3046 -0.0401
  342MOL0     C46056   5.909   4.618   4.647 -0.7787  0.5655  0.1887
  342MOL0     C46057   5.767   4.646   4.694  1.2718 -0.4462  0.3301
  342MOL0     C46058   5.752   4.799   4.704  0.4003  0.3484 -0.5235
  342MOL0     O46059   5.618   4.832   4.752 -0.0783  0.5983  0.1927
  342MOL0     C46060   5.575   4.962   4.749 -0.3703  0.2140 -0.5381
  342MOL0     C46061   5.442   4.983   4.746  0.0266 -0.6361 -0.6406
  342MOL0     C46062   5.387   5.114   4.744 -0.0019 -0.5326 -0.0355
  342MOL0     C46063   5.477   5.225   4.736  0.1186 -0.4694  0.3749
  342MOL0     C46064   5.425   5.361   4.721 -0.7473 -0.2240 -0.6015
  342MOL0     O46065   5.285   5.379   4.730 -0.3302 -0.4150  0.8398
  342MOL0     C46066   5.235   5.502   4.691 -0.9921 -0.3966  0.5607
  342MOL0     C46067   5.281   5.615   4.748 -1.1390  0.0446  0.4560
  342MOL0     C46068   5.217   5.738   4.724 -1.0923  0.0908  0.6595
  342MOL0     C46069   5.102   5.746   4.645 -0.5641  0.0098 -0.8084
  342MOL0     O46070   5.042   5.861   4.606  0.2186 -0.5259 -0.1380
  342MOL0     C46071   5.116   5.980   4.635  0.4712  0.8616  0.6780
  342MOL0     C46072   5.066   6.083   4.530  0.0504  0.7512 -0.4766
  342MOL0     C46073   5.137   6.212   4.551  0.0794 -1.0441  0.6047
  342MOL0     C46074   5.073   6.326   4.452 -0.2158  0.5668  0.0209
  342MOL0     C46075   5.147   6.459   4.469  0.8674 -0.7760 -0.1593
  342MOL0     C46076   5.122   6.532   4.603 -0.3663 -0.3383  0.2271
  342MOL0     C46077   5.191   6.672   4.597  1.0217  0.4094 -0.1128
  342MOL0     C46078   5.335   6.665   4.593 -0.4624  1.2823  0.2218
  342MOL0    Cl46079   5.436   6.560   4.710  0.4334 -0.1493  0.2381
  342MOL0     C46080   5.051   5.618   4.596  0.0103 -1.1992 -0.4811
  342MOL0     C46081   5.121   5.499   4.616  0.0056 -0.0623  0.7170
  342MOL0     O46082   5.509   5.445   4.681  0.3729 -1.0631 -0.0720
  342MOL0     C46083   5.620   5.196   4.736  0.3819 -0.3308  0.4408
  342MOL0     C46084   5.659   5.067   4.751  0.3115  0.5198 -0.1808
  342MOL0     N46085   6.018   4.333   4.789  0.6711 -0.5260  0.6147
  342MOL0     N46086   5.955   4.254   4.871 -0.6062  0.4002 -0.1633
  342MOL0     C46087   5.177   3.486   4.796  0.1974 -0.2373  0.1722
  342MOL0     C46088   5.123   3.374   4.736 -0.6368 -0.6494 -0.3417
  342MOL0     C46089   4.783   3.074   4.580  0.4400 -0.0167  0.0272
  342MOL0     C46090   4.672   3.062   4.493 -0.0138 -0.1614  0.5801
  342MOL0     C46091   4.619   2.940   4.452  0.0784  0.1846 -0.0498
  342MOL0     C46092   4.682   2.817   4.493  0.7035 -0.7535  0.0528
  342MOL0     O46093   4.636   2.695   4.458  0.6100 -0.2019  0.3611
  342MOL0     C46094   4.508   2.672   4.389 -0.4410 -0.5225  0.2442
  342MOL0     C46095   4.434   2.540   4.423 -0.0065 -0.5295 -0.2914
  342MOL0     C46096   4.303   2.533   4.346 -0.6959  0.0961 -0.2026
  342MOL0     C46097   4.195   2.628   4.395  0.3654 -0.0816 -0.0259
  342MOL0     C46098   4.065   2.622   4.325  0.2008 -0.3523  0.2012
  342MOL0     C46099   3.958   2.637   4.278  0.3593 -0.2258  1.2607
  342MOL0     C46100   4.802   2.832   4.564 -0.5474  0.7739 -0.0278
  342MOL0     C46101   4.846   2.951   4.610 -0.1708 -0.0275 -0.2377
  342MOL0     C46102   4.976   2.939   4.685  0.6130 -0.3825 -0.0242
  342MOL0     H46103   4.798   3.419   4.825 -0.4898  0.0370 -0.1579
  342MOL0     H46104   4.895   3.602   4.944 -1.4368 -3.0502  1.2650
  342MOL0     H46105   5.049   3.849   4.956 -0.9756 -0.3073  1.3947
  342MOL0     H46106   5.016   3.722   5.086  0.5822  1.8695  2.1524
  342MOL0     H46107   5.232   3.790   5.190  0.2995 -0.5116 -0.3849
  342MOL0     H46108   5.114   3.908   5.190 -0.9875 -1.9519  0.2215
  342MOL0     H46109   5.199   4.011   4.975 -0.3590  2.0418  1.9953
  342MOL0     H46110   5.336   3.892   4.973 -1.1861 -1.2316  0.4524
  342MOL0     H46111   5.282   4.105   5.185  0.6901  1.5253  1.1947
  342MOL0     H46112   5.399   3.981   5.196 -2.0834 -0.9157 -0.1079
  342MOL0     H46113   5.473   4.071   4.950  0.2100  3.0503 -1.9629
  342MOL0     H46114   5.385   4.210   4.987 -1.6151 -2.1208 -2.1247
  342MOL0     H46115   5.534   4.244   5.201  0.1999 -0.3981 -0.3631
  342MOL0     H46116   5.599   4.086   5.149 -0.4632 -0.6679 -0.1611
  342MOL0     H46117   5.731   4.292   5.077 -1.9621 -0.2007  3.3497
  342MOL0     H46118   5.599   4.334   4.973 -1.8147  0.0740  2.2057
  342MOL0     H46119   5.778   4.089   4.970  1.4179  0.4541  1.0993
  342MOL0     H46120   5.650   4.111   4.850 -0.9647  1.6155  0.3692
  342MOL0     H46121   5.708   4.334   4.681  0.1027 -0.3613 -1.2749
  342MOL0     H46122   6.032   4.461   4.543 -1.9296  0.2079 -3.2336
  342MOL0     H46123   5.861   4.457   4.515  0.0009 -0.3987 -0.2679
  342MOL0     H46124   5.975   4.634   4.732 -0.6860 -2.1654  0.6975
  342MOL0     H46125   5.945   4.687   4.569  3.3506 -2.1032 -0.5729
  342MOL0     H46126   5.738   4.601   4.790  1.0078 -0.9411  0.0256
  342MOL0     H46127   5.692   4.601   4.628 -0.1750 -0.4998  1.9444
  342MOL0     H46128   5.757   4.846   4.606  0.5848 -0.5447 -0.9478
  342MOL0     H46129   5.828   4.847   4.767 -1.0451 -2.2373  3.6139
  342MOL0     H46130   5.375   4.898   4.750 -0.4739 -0.3768 -2.3958
  342MOL0     H46131   5.282   5.139   4.740  0.3315  1.0022  0.2731
  342MOL0     H46132   5.376   5.626   4.801  0.0934  1.2588 -1.8328
  342MOL0     H46133   5.270   5.823   4.764 -0.2716  0.1469 -0.5156
  342MOL0     H46134   5.096   6.005   4.740 -0.7390 -2.6847  1.4583
  342MOL0     H46135   5.222   5.963   4.612  0.9641  2.6510  1.4924
  342MOL0     H46136   5.093   6.040   4.433 -1.2795 -2.6565  0.5136
  342MOL0     H46137   4.957   6.088   4.520  0.2466  0.8671 -3.2945
  342MOL0     H46138   5.130   6.253   4.652 -0.6129  1.8163 -0.5099
  342MOL0     H46139   5.240   6.190   4.520  0.3933  0.2183  0.7127
  342MOL0     H46140   4.968   6.332   4.482 -0.8851 -0.0724 -1.9679
  342MOL0     H46141   5.086   6.283   4.352 -0.2122 -1.0494  0.6984
  342MOL0     H46142   5.122   6.529   4.389  0.5558 -0.6595  0.0372
  342MOL0     H46143   5.252   6.437   4.450  0.7070 -1.4346 -0.2932
  342MOL0     H46144   5.015   6.544   4.618 -0.1676 -0.4507  1.9718
  342MOL0     H46145   5.158   6.468   4.684  0.5765 -0.3468 -0.1838
  342MOL0     H46146   5.157   6.735   4.679 -1.4190  4.5424 -3.8383
  342MOL0     H46147   5.153   6.726   4.510 -1.0782  0.0202  0.5185
  342MOL0     H46148   5.361   6.646   4.488 -1.6549 -1.0270  0.2699
  342MOL0     H46149   5.370   6.766   4.616 -2.4633  1.6796  1.7696
  342MOL0     H46150   4.955   5.622   4.546 -0.5784 -0.6869  0.6419
  342MOL0     H46151   5.084   5.402   4.585  2.0122 -0.7873  0.4622
  342MOL0     H46152   5.694   5.272   4.712 -2.0027  1.6808 -0.9783
  342MOL0     H46153   5.766   5.045   4.752  0.3672  0.8039  0.4814
  342MOL0     H46154   5.284   3.494   4.777 -0.2289  2.0533 -1.6299
  342MOL0     H46155   5.180   3.293   4.691 -0.8153 -1.4888  0.9049
  342MOL0     H46156   4.617   3.147   4.452  0.0430 -1.1236 -1.6340
  342MOL0     H46157   4.545   2.943   4.373  3.3094  1.5529 -3.3218
  342MOL0     H46158   4.529   2.673   4.281 -1.1706 -1.2412  0.0898
  342MOL0     H46159   4.438   2.753   4.411  0.5413  0.6153 -0.6708
  342MOL0     H46160   4.406   2.531   4.528 -0.0919 -2.4975 -0.4628
  342MOL0     H46161   4.496   2.455   4.395 -1.4336 -0.6948 -3.2791
  342MOL0     H46162   4.269   2.430   4.358 -3.0485  0.8993  0.5208
  342MOL0     H46163   4.318   2.545   4.239 -3.4785  0.1241 -0.6544
  342MOL0     H46164   4.172   2.612   4.501 -1.8024  0.6963 -0.3360
  342MOL0     H46165   4.228   2.731   4.377 -0.9632  0.5556  0.9637
  342MOL0     H46166   3.858   2.658   4.247 -1.1279 -2.8431  3.7196
  342MOL0     H46167   4.867   2.749   4.586 -1.8107  0.2695  2.1171
  342MOL0     H46168   5.044   3.014   4.644 -1.0063  0.7042 -0.8162
  342MOL0     H46169   4.961   2.949   4.793 -0.8023  1.1889 -0.3208
  342MOL0     H46170   5.030   2.846   4.664  1.4820 -0.2270  1.3698
  343MOL0     O46171   0.864   0.667   1.813  0.2669 -0.7523  0.7447
  343MOL0     C46172   0.831   0.562   1.755 -0.9665 -0.0142  0.7498
  343MOL0     O46173   0.917   0.477   1.689  0.0774 -0.6089  0.2576
  343MOL0     C46174   1.047   0.497   1.712 -0.9959 -0.0786  0.7493
  343MOL0     C46175   1.104   0.495   1.836  0.0830 -0.3936 -0.3872
  343MOL0     C46176   1.246   0.505   1.851  0.8081 -0.3146  0.9356
  343MOL0     C46177   1.331   0.522   1.740 -0.5055  0.0098  0.2112
  343MOL0     O46178   1.466   0.511   1.747 -0.3041 -1.1785 -0.0149
  343MOL0     C46179   1.537   0.579   1.846  0.2577 -0.1377  0.3431
  343MOL0     C46180   1.667   0.511   1.859 -0.1873  0.5722  0.1373
  343MOL0     C46181   1.753   0.559   1.743 -0.1709  0.0351  0.9566
  343MOL0     C46182   1.901   0.510   1.755 -0.0406 -0.2133  1.3390
  343MOL0     C46183   1.971   0.555   1.620  0.1432  0.1744 -0.7317
  343MOL0     C46184   2.111   0.511   1.640  0.4504  0.2576 -0.4223
  343MOL0     C46185   2.200   0.584   1.538 -0.3611 -0.3809  0.4068
  343MOL0     C46186   2.315   0.488   1.533  0.5786 -0.3336 -0.0490
  343MOL0     N46187   2.396   0.482   1.654 -0.8214  1.1703  0.3167
  343MOL0     C46188   2.379   0.383   1.750  0.1931 -0.0125  0.1340
  343MOL0     C46189   2.454   0.436   1.849 -0.0845 -0.8565  0.0819
  343MOL0     C46190   2.457   0.384   1.983 -0.3170 -0.2927  0.1556
  343MOL0     C46191   2.586   0.306   2.009 -0.1801 -0.3940  0.7539
  343MOL0     C46192   2.710   0.401   2.033  0.1642 -0.9336 -0.0400
  343MOL0     C46193   2.836   0.336   2.052 -1.5077  0.3520  0.1554
  343MOL0     O46194   2.875   0.257   1.935 -0.3708  0.7048 -0.2957
  343MOL0     C46195   3.010   0.232   1.925 -0.1207 -0.3590 -0.1563
  343MOL0     C46196   3.102   0.214   2.032  0.2662 -0.5865 -0.4837
  343MOL0     C46197   3.242   0.189   2.012  0.7201 -0.4812 -0.0671
  343MOL0     C46198   3.296   0.162   1.882 -0.3535  0.1902  0.3903
  343MOL0     C46199   3.438   0.124   1.859  0.2891 -0.6590  0.7487
  343MOL0     O46200   3.473   0.063   1.743 -0.0655 -0.1654 -0.2035
  343MOL0     C46201   3.609   0.024   1.713  0.6288  0.5013  0.7192
  343MOL0     C46202   3.647  -0.108   1.699 -0.4673 -0.0962  0.4959
  343MOL0     C46203   3.785  -0.147   1.691 -1.2384  0.2758 -0.4257
  343MOL0     C46204   3.883  -0.044   1.703  0.2544  0.9196  0.2314
  343MOL0     O46205   4.014  -0.083   1.696 -0.1281  0.1391  0.4438
  343MOL0     C46206   4.109   0.005   1.747 -0.0440 -0.6979  0.0394
  343MOL0     C46207   4.238  -0.061   1.777 -0.0265  0.1642 -0.5861
  343MOL0     C46208   4.345   0.041   1.786 -0.5356  0.8171  1.0140
  343MOL0     C46209   4.476  -0.030   1.832  1.1444 -0.4374  0.1879
  343MOL0     C46210   4.607   0.048   1.798  0.7815  0.0330  0.3329
  343MOL0     C46211   4.632   0.173   1.885  1.0142 -0.2507 -0.1459
  343MOL0     C46212   4.643   0.132   2.035 -0.3278 -0.8006  0.6258
  343MOL0     C46213   4.667   0.261   2.115  0.1830 -0.0738 -0.8249
  343MOL0    Cl46214   4.537   0.381   2.087  0.0832 -0.1273  0.2959
  343MOL0     C46215   3.837   0.087   1.704  1.2737 -0.0453 -0.4565
  343MOL0     C46216   3.702   0.120   1.715 -0.2874 -0.2919 -0.1774
  343MOL0     O46217   3.513   0.168   1.944 -0.0885  0.0510 -0.2048
  343MOL0     C46218   3.205   0.181   1.780 -0.2364  0.2753  0.6274
  343MOL0     C46219   3.065   0.208   1.802 -0.3799 -0.3846 -0.2355
  343MOL0     N46220   2.528   0.545   1.813 -0.9592  0.4293 -0.2253
  343MOL0     N46221   2.490   0.572   1.691 -0.4942  0.3460  0.0330
  343MOL0     C46222   1.272   0.525   1.610  0.1199 -0.5527 -1.0747
  343MOL0     C46223   1.133   0.515   1.599 -0.4550  0.0166  0.7463
  343MOL0     C46224   0.687   0.524   1.765 -0.5213 -0.1112  0.2386
  343MOL0     C46225   0.663   0.383   1.775 -0.7975 -0.2701 -0.1662
  343MOL0     C46226   0.528   0.347   1.783  1.4788  0.2359 -0.1007
  343MOL0     C46227   0.416   0.434   1.764 -0.1473  0.7958 -0.2668
  343MOL0     O46228   0.291   0.385   1.748  0.1447 -0.2440 -0.4877
  343MOL0     C46229   0.210   0.376   1.861 -0.7226 -0.3274 -0.6632
  343MOL0     C46230   0.104   0.482   1.860  0.6143  0.4293 -0.4302
  343MOL0     C46231  -0.006   0.469   1.966  1.0686 -0.2264 -0.5721
  343MOL0     C46232  -0.113   0.361   1.932  0.1625  0.7575  0.7108
  343MOL0     C46233  -0.236   0.372   2.007  0.1118 -1.4628  1.6289
  343MOL0     C46234  -0.330   0.380   2.084 -0.6706 -0.0066  0.4789
  343MOL0     C46235   0.451   0.570   1.758  0.1599  0.1008 -0.8942
  343MOL0     C46236   0.582   0.615   1.759 -0.8108  0.1553  0.2062
  343MOL0     C46237   0.598   0.762   1.732  0.0988 -0.0083  0.2569
  343MOL0     H46238   1.042   0.476   1.922  0.7153 -0.6451  0.0199
  343MOL0     H46239   1.291   0.491   1.949 -0.7037 -1.9807  1.4565
  343MOL0     H46240   1.541   0.687   1.833  1.5029 -0.4097 -1.8899
  343MOL0     H46241   1.488   0.576   1.944 -2.9976  0.1846 -1.1407
  343MOL0     H46242   1.663   0.403   1.843 -0.1799  0.9017 -2.4536
  343MOL0     H46243   1.705   0.538   1.958 -0.9150  0.4338  0.4584
  343MOL0     H46244   1.765   0.667   1.749 -0.3264  0.0655  0.6827
  343MOL0     H46245   1.709   0.527   1.649  0.8305  1.9400 -0.2170
  343MOL0     H46246   1.944   0.552   1.847  3.0061  0.3046 -0.1909
  343MOL0     H46247   1.909   0.401   1.765  2.0357 -0.3319 -0.7807
  343MOL0     H46248   1.936   0.499   1.533 -0.1544 -0.9753  0.1091
  343MOL0     H46249   1.965   0.664   1.605  0.1902  0.3097  0.1637
  343MOL0     H46250   2.140   0.532   1.743 -1.9925  0.5564  0.2725
  343MOL0     H46251   2.124   0.403   1.630  1.9353  0.2522  1.1818
  343MOL0     H46252   2.223   0.684   1.573  0.0826 -0.5070  0.4829
  343MOL0     H46253   2.150   0.596   1.441 -2.0083  2.6803  1.5157
  343MOL0     H46254   2.281   0.389   1.501  1.9165 -0.8826  0.1811
  343MOL0     H46255   2.379   0.514   1.449  0.8700  0.2382  0.3436
  343MOL0     H46256   2.304   0.305   1.765 -0.4256  1.1596  5.1354
  343MOL0     H46257   2.456   0.469   2.053  1.6297 -2.5248  3.1341
  343MOL0     H46258   2.370   0.328   2.020 -1.7924  2.5511  1.3855
  343MOL0     H46259   2.567   0.257   2.105 -0.0934 -2.9204 -0.4174
  343MOL0     H46260   2.599   0.227   1.933 -1.4793 -0.4841  0.5969
  343MOL0     H46261   2.680   0.465   2.117 -1.0299  0.1994 -1.2706
  343MOL0     H46262   2.733   0.465   1.947  0.7349  1.7653  1.9911
  343MOL0     H46263   2.839   0.270   2.139  1.8726 -0.8013 -0.6752
  343MOL0     H46264   2.910   0.413   2.075  0.2567 -1.1913 -0.1013
  343MOL0     H46265   3.061   0.236   2.130 -0.4393  1.9928 -1.2852
  343MOL0     H46266   3.304   0.178   2.101  0.0784 -1.9368  0.2296
  343MOL0     H46267   3.571  -0.184   1.693  0.3559 -0.8647 -0.6970
  343MOL0     H46268   3.816  -0.251   1.680 -2.0437  0.1231 -1.4278
  343MOL0     H46269   4.134   0.088   1.681 -2.0405 -0.2121 -0.1924
  343MOL0     H46270   4.074   0.045   1.843 -0.4655  0.7024 -0.6622
  343MOL0     H46271   4.230  -0.101   1.879  1.6532  2.7728  0.6897
  343MOL0     H46272   4.257  -0.140   1.704  0.6089 -0.4065  0.1784
  343MOL0     H46273   4.362   0.086   1.688 -1.5879 -2.1301 -0.6437
  343MOL0     H46274   4.316   0.120   1.856 -2.1810  2.3966 -1.3219
  343MOL0     H46275   4.477  -0.130   1.787 -0.8309 -0.2050 -0.4480
  343MOL0     H46276   4.474  -0.045   1.940  0.6852  1.5492  0.4949
  343MOL0     H46277   4.607   0.074   1.692  0.4064  0.1838  0.3712
  343MOL0     H46278   4.694  -0.014   1.823  0.3923 -1.3662 -1.6061
  343MOL0     H46279   4.722   0.223   1.850 -0.4470  0.6870 -2.9056
  343MOL0     H46280   4.542   0.233   1.869  0.4535 -0.6519  1.3615
  343MOL0     H46281   4.725   0.060   2.045  0.3381 -0.1348  0.0848
  343MOL0     H46282   4.552   0.086   2.075 -3.3223  0.1802 -4.2422
  343MOL0     H46283   4.658   0.222   2.217 -0.0901  0.6985 -0.5462
  343MOL0     H46284   4.760   0.308   2.081  1.3387 -0.4685  1.5542
  343MOL0     H46285   3.907   0.169   1.694  1.1666  0.4782  2.2701
  343MOL0     H46286   3.671   0.224   1.720 -0.8053 -0.4029 -0.9547
  343MOL0     H46287   3.250   0.189   1.682 -1.5298 -2.7975 -0.3323
  343MOL0     H46288   3.005   0.224   1.713  0.8979 -0.5238 -1.1558
  343MOL0     H46289   1.333   0.531   1.520  0.1889 -1.3416 -1.0875
  343MOL0     H46290   1.085   0.509   1.502  0.2072 -4.2008  0.5093
  343MOL0     H46291   0.746   0.313   1.772  1.6988  2.5339 -2.1592
  343MOL0     H46292   0.497   0.244   1.801  1.9128 -0.2488 -1.8769
  343MOL0     H46293   0.280   0.377   1.945 -0.5625 -1.5143 -0.7540
  343MOL0     H46294   0.149   0.285   1.858 -0.6502 -0.3518 -2.2927
  343MOL0     H46295   0.054   0.482   1.763 -1.4550 -2.6315  0.4810
  343MOL0     H46296   0.149   0.580   1.878 -0.5986  0.9511 -0.0750
  343MOL0     H46297  -0.068   0.558   1.975 -0.6733 -1.5163  0.8723
  343MOL0     H46298   0.034   0.431   2.061 -2.2175  1.8323  1.8334
  343MOL0     H46299  -0.139   0.353   1.826  0.4616 -0.0824  0.6915
  343MOL0     H46300  -0.075   0.259   1.945 -1.3143 -0.0449 -0.8528
  343MOL0     H46301  -0.414   0.375   2.150 -0.6864 -0.0317  0.4574
  343MOL0     H46302   0.371   0.643   1.745 -0.4332 -0.2318  0.6394
  343MOL0     H46303   0.594   0.780   1.624  1.2820  1.5153  0.4347
  343MOL0     H46304   0.520   0.821   1.781  1.1561  0.7961  1.0048
  343MOL0     H46305   0.689   0.808   1.771  0.4236  0.9192 -1.5181
  344MOL0     O46306   9.422   4.631   6.660  0.4559 -0.0451 -0.3193
  344MOL0     C46307   9.385   4.737   6.721  0.0186  0.4354  0.5871
  344MOL0     O46308   9.466   4.820   6.785  0.2628  0.1752  0.3051
  344MOL0     C46309   9.586   4.779   6.825 -0.3535  0.2016 -0.6457
  344MOL0     C46310   9.700   4.825   6.762  0.2857 -0.3373  0.7719
  344MOL0     C46311   9.829   4.789   6.811 -0.1961 -0.3162  0.3678
  344MOL0     C46312   9.840   4.725   6.932 -0.4236 -0.0657 -0.1862
  344MOL0     O46313   9.958   4.685   6.995  0.1154  0.1210 -0.1018
  344MOL0     C46314  10.083   4.712   6.929 -0.4555 -0.0878 -0.6440
  344MOL0     C46315  10.194   4.638   7.004 -0.5091 -0.1069 -0.4386
  344MOL0     C46316  10.218   4.672   7.160 -0.3423 -0.8976  0.6111
  344MOL0     C46317  10.254   4.818   7.175 -0.2388  0.0321  0.5723
  344MOL0     C46318  10.297   4.847   7.314  0.1666  0.6905 -0.7311
  344MOL0     C46319  10.345   4.992   7.335  0.4725  0.1478  0.4354
  344MOL0     C46320  10.340   5.039   7.483  0.4533 -0.5380 -0.3775
  344MOL0     C46321  10.389   5.187   7.510  0.0298 -0.4036 -0.3347
  344MOL0     N46322  10.540   5.188   7.485  0.4733  0.1185 -0.1988
  344MOL0     C46323  10.631   5.119   7.561  0.4749 -0.5763 -0.6238
  344MOL0     C46324  10.753   5.130   7.501 -0.8195 -0.1216 -0.3021
  344MOL0     C46325  10.876   5.061   7.555 -0.5813  0.0190 -1.0657
  344MOL0     C46326  11.006   5.126   7.527 -0.5463 -0.1411  0.2035
  344MOL0     C46327  11.111   5.033   7.577 -0.2048  0.6220  0.4364
  344MOL0     C46328  11.134   5.041   7.727 -0.0415 -0.0959 -0.3754
  344MOL0     O46329  11.255   4.970   7.764  0.0874  0.0160  0.1160
  344MOL0     C46330  11.375   5.037   7.776  0.8432  0.4996 -1.1052
  344MOL0     C46331  11.473   4.980   7.859  0.4418 -0.0323  0.5710
  344MOL0     C46332  11.593   5.035   7.885 -0.0458 -0.3768  0.1242
  344MOL0     C46333  11.619   5.155   7.820 -0.3577  1.0673  0.2505
  344MOL0     C46334  11.756   5.205   7.824 -0.4803 -0.4534 -1.2889
  344MOL0     O46335  11.854   5.135   7.775 -0.1601 -0.1426 -0.0258
  344MOL0     C46336  11.963   5.200   7.721 -0.8233  0.4771 -0.3683
  344MOL0     C46337  12.000   5.180   7.589  0.0555 -0.1898 -0.1827
  344MOL0     C46338  12.115   5.240   7.535 -0.1484  0.1651  0.2118
  344MOL0     C46339  12.197   5.318   7.615  0.2837 -0.0593 -0.3511
  344MOL0     O46340  12.306   5.377   7.554 -0.2278 -0.0979  0.5325
  344MOL0     C46341  12.420   5.380   7.633  0.4021 -0.1531 -0.2698
  344MOL0     C46342  12.543   5.403   7.554  0.0314  0.5193  0.1571
  344MOL0     C46343  12.547   5.541   7.492  1.2078  0.1946 -0.1937
  344MOL0     C46344  12.657   5.565   7.391 -0.1878  0.6932  0.2409
  344MOL0     C46345  12.747   5.679   7.448 -0.7717  0.3557  0.2820
  344MOL0     C46346  12.846   5.622   7.565 -0.0877  0.2904  0.2818
  344MOL0     C46347  12.946   5.732   7.597 -0.4698  0.4937 -0.1036
  344MOL0     C46348  13.042   5.686   7.706 -0.3887 -0.0182  0.5200
  344MOL0    Cl46349  13.133   5.829   7.769  0.4140 -0.0721 -0.1012
  344MOL0     C46350  12.166   5.334   7.753  0.1429  0.4006  0.0280
  344MOL0     C46351  12.052   5.270   7.806  0.5285  0.8210 -0.3266
  344MOL0     O46352  11.767   5.313   7.886 -0.0523 -0.7118 -0.4203
  344MOL0     C46353  11.523   5.214   7.735 -1.0285 -0.2930 -0.5849
  344MOL0     C46354  11.398   5.157   7.723 -0.7812 -0.2869 -0.3003
  344MOL0     N46355  10.741   5.201   7.381  0.4825 -0.0688  0.6289
  344MOL0     N46356  10.615   5.230   7.377 -0.0080  0.1457 -0.2708
  344MOL0     C46357   9.721   4.687   7.001  0.2071  0.0922  0.3359
  344MOL0     C46358   9.601   4.708   6.945  0.2134 -0.2049 -0.0729
  344MOL0     C46359   9.238   4.756   6.705  0.0582 -0.0324 -0.3844
  344MOL0     C46360   9.163   4.708   6.592  0.3068 -0.5993  0.7280
  344MOL0     C46361   9.022   4.726   6.584 -0.3670  0.1998 -0.0263
  344MOL0     C46362   8.955   4.790   6.684  0.0387 -1.1444 -0.8697
  344MOL0     O46363   8.825   4.809   6.662 -0.1220 -0.2440 -0.6967
  344MOL0     C46364   8.794   4.938   6.593  0.0860 -0.2002 -0.2885
  344MOL0     C46365   8.788   5.071   6.684 -0.0115  0.4444  0.4242
  344MOL0     C46366   8.677   5.057   6.783 -0.3007 -0.1012 -0.3132
  344MOL0     C46367   8.694   5.157   6.896  0.3050 -0.3614 -0.5568
  344MOL0     C46368   8.592   5.147   6.997 -0.4022  0.0893 -0.0941
  344MOL0     C46369   8.520   5.138   7.092  0.5080 -0.3674 -0.0347
  344MOL0     C46370   9.022   4.837   6.795  0.9075 -0.5270 -0.2341
  344MOL0     C46371   9.160   4.827   6.806 -0.4405 -0.4957  0.3964
  344MOL0     C46372   9.231   4.883   6.926 -0.0035 -0.0605 -0.5265
  344MOL0     H46373   9.704   4.897   6.681 -0.7412  0.4691  1.4197
  344MOL0     H46374   9.914   4.828   6.756 -1.4039  2.8030  0.5093
  344MOL0     H46375  10.091   4.680   6.825 -1.4665  0.0436 -0.7767
  344MOL0     H46376  10.118   4.815   6.940  1.6562 -0.7931 -0.2193
  344MOL0     H46377  10.291   4.632   6.955 -0.7794 -0.8256 -0.9040
  344MOL0     H46378  10.157   4.535   6.997 -1.1944  0.0215  0.8512
  344MOL0     H46379  10.300   4.609   7.195  0.8999  0.8097  0.8986
  344MOL0     H46380  10.128   4.656   7.219 -0.0229 -0.8020  1.1288
  344MOL0     H46381  10.331   4.848   7.103  0.2664 -0.5774  0.8472
  344MOL0     H46382  10.174   4.887   7.147 -0.4947 -0.4516  0.1099
  344MOL0     H46383  10.221   4.816   7.386 -0.0153  0.0400 -1.1877
  344MOL0     H46384  10.381   4.782   7.341 -1.3253 -0.6172  1.0018
  344MOL0     H46385  10.442   5.005   7.287 -0.3903 -0.8131 -1.7296
  344MOL0     H46386  10.263   5.044   7.284 -0.2347 -2.0765 -0.8600
  344MOL0     H46387  10.385   4.967   7.552 -2.3655 -1.6870  0.4250
  344MOL0     H46388  10.236   5.033   7.517  1.2077 -2.6764  1.8707
  344MOL0     H46389  10.338   5.260   7.446  0.7264 -1.0379 -1.6566
  344MOL0     H46390  10.373   5.209   7.616  3.0259  4.1302 -0.5350
  344MOL0     H46391  10.599   5.068   7.651 -0.6991  1.2051  0.0362
  344MOL0     H46392  10.870   5.054   7.664 -1.4571  1.0643 -1.0303
  344MOL0     H46393  10.878   4.959   7.514  0.6909 -1.6955  2.8453
  344MOL0     H46394  11.015   5.138   7.419 -0.0965 -0.7620  0.1634
  344MOL0     H46395  11.009   5.228   7.565  0.2262  0.5515 -1.6526
  344MOL0     H46396  11.194   5.083   7.526 -2.3889  3.1727 -0.9245
  344MOL0     H46397  11.097   4.930   7.542 -1.1121 -0.0345  2.5838
  344MOL0     H46398  11.051   4.989   7.777  0.6826 -2.4438 -1.4323
  344MOL0     H46399  11.145   5.143   7.762 -2.8250 -0.1604  0.9659
  344MOL0     H46400  11.450   4.889   7.914  0.8625 -0.4559  0.0632
  344MOL0     H46401  11.667   4.990   7.950 -0.4923 -0.6220  0.4722
  344MOL0     H46402  11.926   5.137   7.522  0.5976  2.4342 -2.6806
  344MOL0     H46403  12.130   5.239   7.428 -1.8633 -0.2127 -0.0562
  344MOL0     H46404  12.428   5.462   7.705  1.6862  0.5605 -1.1836
  344MOL0     H46405  12.429   5.285   7.686 -0.2515 -0.5111 -0.7913
  344MOL0     H46406  12.630   5.382   7.616 -0.3667  0.9037  0.8565
  344MOL0     H46407  12.539   5.328   7.474 -3.5408 -0.6327  1.2468
  344MOL0     H46408  12.445   5.568   7.462  0.0698 -1.5252  1.8202
  344MOL0     H46409  12.570   5.606   7.577  0.4069  0.6073 -0.2795
  344MOL0     H46410  12.619   5.593   7.292  0.7100 -1.0505 -0.6497
  344MOL0     H46411  12.709   5.471   7.369 -1.2093  0.6321 -2.3396
  344MOL0     H46412  12.690   5.768   7.480 -0.7275  0.6119 -0.3379
  344MOL0     H46413  12.802   5.727   7.367  0.8574 -0.9568  0.5645
  344MOL0     H46414  12.787   5.601   7.655  1.4067 -0.9730  1.0165
  344MOL0     H46415  12.901   5.530   7.542  1.5654  1.8664 -2.7324
  344MOL0     H46416  12.882   5.811   7.638  1.5774  0.8294  2.7193
  344MOL0     H46417  12.994   5.766   7.505 -0.4623  1.8654  0.3912
  344MOL0     H46418  12.992   5.635   7.789  2.2809 -0.8453  1.7402
  344MOL0     H46419  13.120   5.623   7.663 -1.2365 -2.5757  2.4639
  344MOL0     H46420  12.222   5.413   7.802 -0.8480  1.9893 -1.2778
  344MOL0     H46421  12.028   5.290   7.910 -4.0109 -1.9655 -0.5564
  344MOL0     H46422  11.543   5.310   7.688 -1.1822 -0.3583 -0.7883
  344MOL0     H46423  11.326   5.212   7.663 -1.1342  2.2818  2.2452
  344MOL0     H46424   9.722   4.625   7.090 -0.7210  0.9779  0.9803
  344MOL0     H46425   9.509   4.686   6.998  0.3552  0.0182  0.2670
  344MOL0     H46426   9.220   4.660   6.513 -0.7601 -1.2015  0.3053
  344MOL0     H46427   8.963   4.708   6.494 -1.6958  1.9679  0.4294
  344MOL0     H46428   8.691   4.938   6.556  0.1595 -2.2628 -0.5801
  344MOL0     H46429   8.862   4.955   6.508 -0.5156 -1.4918 -1.0530
  344MOL0     H46430   8.757   5.154   6.620 -3.2373 -0.2921  0.8316
  344MOL0     H46431   8.881   5.094   6.736  1.5538 -1.3937 -1.4355
  344MOL0     H46432   8.660   4.956   6.820 -2.1842  0.1516 -0.4099
  344MOL0     H46433   8.590   5.079   6.721 -0.2462 -1.9898 -1.1214
  344MOL0     H46434   8.792   5.133   6.938  0.0285 -2.3639 -0.9682
  344MOL0     H46435   8.693   5.262   6.863  2.6373 -0.0716  0.1019
  344MOL0     H46436   8.463   5.132   7.182  1.3213 -0.2677  0.5018
  344MOL0     H46437   8.960   4.897   6.862  1.9214  1.3311 -0.9041
  344MOL0     H46438   9.176   4.942   7.000  2.0423  0.4842  0.6307
  344MOL0     H46439   9.267   4.800   6.987 -0.5922 -0.7837 -1.1392
  344MOL0     H46440   9.310   4.954   6.900 -0.2805  1.6083  2.7335
  345MOL0     O46441  10.568   1.893  10.402 -0.0628  0.4700  0.3255
  345MOL0     C46442  10.562   2.016  10.405  0.8504 -0.1500  0.4531
  345MOL0     O46443  10.673   2.100  10.411  0.5092 -0.6356  0.5736
  345MOL0     C46444  10.791   2.051  10.389  0.4411 -0.2305 -0.3042
  345MOL0     C46445  10.858   1.965  10.473 -0.1220  1.4173 -0.4454
  345MOL0     C46446  10.987   1.937  10.457 -0.1104 -0.5508 -0.5109
  345MOL0     C46447  11.064   1.977  10.348  0.2479  0.7832  0.4908
  345MOL0     O46448  11.200   1.967  10.318 -0.2032  0.1125  0.0673
  345MOL0     C46449  11.293   1.984  10.425  0.5960  0.5167 -0.3509
  345MOL0     C46450  11.435   2.018  10.376 -0.9061  0.2378 -0.2257
  345MOL0     C46451  11.445   2.125  10.272 -0.3978  0.2334  0.8110
  345MOL0     C46452  11.396   2.256  10.331  0.7616 -1.2941 -0.5060
  345MOL0     C46453  11.377   2.360  10.224 -0.1572 -0.5270  0.9907
  345MOL0     C46454  11.261   2.328  10.132  0.0591 -0.1513  0.2040
  345MOL0     C46455  11.253   2.427  10.012  0.1175  0.1949  0.6492
  345MOL0     C46456  11.324   2.386   9.883  0.3179  0.4525  0.0370
  345MOL0     N46457  11.467   2.366   9.896 -0.0574  0.6621 -0.5805
  345MOL0     C46458  11.539   2.258   9.939  1.0539 -1.2583  0.4295
  345MOL0     C46459  11.663   2.304   9.936  0.0140  0.4696  0.0514
  345MOL0     C46460  11.772   2.210   9.947 -0.2729 -0.0829  0.3311
  345MOL0     C46461  11.911   2.262   9.953 -0.3358  0.1341  0.4602
  345MOL0     C46462  12.002   2.149  10.010 -0.1301  0.4225  0.3785
  345MOL0     C46463  12.150   2.175  10.027  0.2096 -0.7708  0.2550
  345MOL0     O46464  12.219   2.050  10.014  0.1797 -0.3501 -0.1674
  345MOL0     C46465  12.300   1.990  10.106 -0.3461  0.0260 -0.1050
  345MOL0     C46466  12.327   1.849  10.080  0.6115 -0.3648 -0.5297
  345MOL0     C46467  12.407   1.779  10.167 -0.9656 -0.0756 -0.0155
  345MOL0     C46468  12.471   1.844  10.283  0.2831 -0.2013 -0.2768
  345MOL0     C46469  12.573   1.779  10.368 -0.5109  0.4471  0.0149
  345MOL0     O46470  12.637   1.850  10.461  0.4830 -0.0667  0.2594
  345MOL0     C46471  12.724   1.786  10.548  0.4607 -0.0336  0.1384
  345MOL0     C46472  12.680   1.675  10.630 -0.0825  0.0428 -0.0707
  345MOL0     C46473  12.767   1.615  10.722 -0.8741  0.0148 -0.8447
  345MOL0     C46474  12.905   1.651  10.730  0.4826  0.6150 -0.3030
  345MOL0     O46475  12.983   1.593  10.816 -0.6629 -0.1931 -0.4916
  345MOL0     C46476  13.111   1.553  10.770  0.0845  0.6037  0.2515
  345MOL0     C46477  13.179   1.469  10.887  0.6925  0.0491  0.2982
  345MOL0     C46478  13.328   1.474  10.879  0.3525  0.1672 -0.3127
  345MOL0     C46479  13.386   1.389  10.773  0.6326  0.3435 -0.0003
  345MOL0     C46480  13.544   1.396  10.771 -0.2229  0.1217  0.0662
  345MOL0     C46481  13.604   1.528  10.728  0.1197  0.4437 -0.3412
  345MOL0     C46482  13.746   1.513  10.680  0.6839 -0.2676 -0.8149
  345MOL0     C46483  13.820   1.650  10.682  1.2380 -0.1119  0.1607
  345MOL0    Cl46484  13.998   1.639  10.625  0.4865  0.0348  0.0732
  345MOL0     C46485  12.949   1.755  10.647  0.1518 -0.2529 -0.1415
  345MOL0     C46486  12.858   1.821  10.558 -0.0840 -0.2113  0.0991
  345MOL0     O46487  12.596   1.665  10.341  0.1491  0.3912 -0.2575
  345MOL0     C46488  12.452   1.981  10.299 -0.1466  0.6271  0.4883
  345MOL0     C46489  12.361   2.048  10.222  0.5851  0.2652 -0.5415
  345MOL0     N46490  11.672   2.435   9.912 -0.2033  0.1611  0.7813
  345MOL0     N46491  11.546   2.469   9.880 -0.3974 -0.6034 -0.1078
  345MOL0     C46492  10.999   2.067  10.258 -0.2283  0.6228  0.0683
  345MOL0     C46493  10.859   2.093  10.273  0.0761 -0.6178  0.1267
  345MOL0     C46494  10.429   2.078  10.423  0.6049  0.0798 -0.5469
  345MOL0     C46495  10.313   2.005  10.441 -0.3094  0.9846 -0.4189
  345MOL0     C46496  10.186   2.052  10.452  0.3330  0.4205 -0.1193
  345MOL0     C46497  10.172   2.189  10.444  0.0621 -0.9196 -0.4767
  345MOL0     O46498  10.043   2.235  10.448  0.2335  0.1130  0.4138
  345MOL0     C46499   9.946   2.185  10.548 -0.6799  0.0143 -0.5356
  345MOL0     C46500   9.921   2.301  10.646 -0.1871 -0.3436 -0.2906
  345MOL0     C46501   9.830   2.251  10.769 -1.1519 -0.0129 -0.4070
  345MOL0     C46502   9.788   2.364  10.867 -0.0889  0.2842 -0.1587
  345MOL0     C46503   9.897   2.450  10.911 -0.1217 -0.4382  0.6302
  345MOL0     C46504   9.993   2.527  10.929 -0.0201  0.4645 -0.7710
  345MOL0     C46505  10.280   2.273  10.418 -0.2737  0.2661  0.4455
  345MOL0     C46506  10.403   2.220  10.411 -0.3957  0.4687  0.7431
  345MOL0     C46507  10.515   2.323  10.386  0.4235  0.0878  1.0313
  345MOL0     H46508  10.808   1.933  10.565  0.1427  0.2809 -0.6823
  345MOL0     H46509  11.030   1.878  10.537 -1.7022  0.5973  1.2641
  345MOL0     H46510  11.252   2.062  10.490  0.6742  0.9982 -0.8697
  345MOL0     H46511  11.291   1.891  10.482  0.4051 -1.5292 -3.4460
  345MOL0     H46512  11.476   1.928  10.330  1.5436  2.2014 -2.1469
  345MOL0     H46513  11.496   2.045  10.463 -0.2094 -0.1949 -0.5742
  345MOL0     H46514  11.391   2.098  10.180  2.0967 -1.8007 -0.1667
  345MOL0     H46515  11.550   2.139  10.245 -0.3618  0.6411  1.1541
  345MOL0     H46516  11.300   2.249  10.383  0.6682 -2.7130 -0.8270
  345MOL0     H46517  11.468   2.294  10.404  0.2590 -0.9586 -0.1717
  345MOL0     H46518  11.361   2.459  10.268 -0.9170  0.8713 -2.1113
  345MOL0     H46519  11.472   2.372  10.170 -0.1391 -1.7560  0.7137
  345MOL0     H46520  11.262   2.226  10.093 -2.2556 -0.3150  0.4566
  345MOL0     H46521  11.180   2.335  10.204  1.4263 -1.7431  1.9890
  345MOL0     H46522  11.308   2.515  10.046  1.1744 -0.8380  1.7481
  345MOL0     H46523  11.150   2.450   9.986  0.1363 -0.3743  0.0355
  345MOL0     H46524  11.287   2.290   9.846  2.5585 -1.4599  2.3351
  345MOL0     H46525  11.314   2.466   9.810 -0.4736  1.9834  1.7475
  345MOL0     H46526  11.499   2.157   9.952 -1.5307 -0.5434 -1.2426
  345MOL0     H46527  11.750   2.151  10.036  3.6707  2.7538  3.5709
  345MOL0     H46528  11.760   2.144   9.860  0.2438 -0.3567  0.4579
  345MOL0     H46529  11.942   2.303   9.857  0.9388 -2.9044 -0.5297
  345MOL0     H46530  11.906   2.336  10.033  0.5049 -0.6460  1.2570
  345MOL0     H46531  12.000   2.069   9.935 -1.6771  1.8122 -1.1261
  345MOL0     H46532  11.958   2.118  10.105 -1.1687 -0.8957 -0.4993
  345MOL0     H46533  12.161   2.240  10.115  0.6616 -0.8727  0.2742
  345MOL0     H46534  12.183   2.237   9.943 -0.7052  1.8282  1.7008
  345MOL0     H46535  12.275   1.795  10.001  1.8021 -1.7425 -0.3976
  345MOL0     H46536  12.425   1.673  10.155  0.5650  0.2719 -1.1901
  345MOL0     H46537  12.581   1.637  10.612  0.9943 -2.7295 -0.6221
  345MOL0     H46538  12.731   1.530  10.779 -1.9473  0.6114 -0.6186
  345MOL0     H46539  13.097   1.485  10.686  2.3118  2.0247 -1.4135
  345MOL0     H46540  13.167   1.642  10.740 -0.8305  0.3449 -2.5047
  345MOL0     H46541  13.137   1.510  10.979  1.8160  0.9564  0.4381
  345MOL0     H46542  13.145   1.365  10.880  1.2617 -0.1229 -0.0254
  345MOL0     H46543  13.348   1.577  10.851 -1.9014  0.7514 -0.0128
  345MOL0     H46544  13.368   1.448  10.978 -0.9245 -0.3792  0.0819
  345MOL0     H46545  13.353   1.414  10.672  0.5454 -2.5720 -0.7853
  345MOL0     H46546  13.365   1.284  10.799  0.0368  0.9379  2.1247
  345MOL0     H46547  13.571   1.318  10.700  1.8578 -0.9751  1.9191
  345MOL0     H46548  13.591   1.364  10.865 -0.1957  0.7843  0.2845
  345MOL0     H46549  13.543   1.581  10.654  1.8604  3.3149  0.1014
  345MOL0     H46550  13.599   1.587  10.821  0.4963 -1.1054  0.6959
  345MOL0     H46551  13.747   1.469  10.580 -2.4305  0.0780 -1.1274
  345MOL0     H46552  13.785   1.435  10.746 -1.3390 -2.0221 -1.5609
  345MOL0     H46553  13.771   1.720  10.613  1.2668 -1.5941 -1.4261
  345MOL0     H46554  13.818   1.683  10.786 -0.0596  1.5266 -0.3305
  345MOL0     H46555  13.053   1.784  10.651 -0.2103  1.3817 -1.5986
  345MOL0     H46556  12.889   1.898  10.488 -1.7180  0.3854 -0.0151
  345MOL0     H46557  12.508   2.036  10.374  2.3736 -1.3244  0.1968
  345MOL0     H46558  12.342   2.153  10.242 -2.0754 -0.1668 -0.4725
  345MOL0     H46559  11.053   2.116  10.177 -1.8166  1.7695 -0.3386
  345MOL0     H46560  10.806   2.162  10.208 -0.1474 -1.6383 -0.8071
  345MOL0     H46561  10.334   1.898  10.443  2.9839  1.4951 -1.0411
  345MOL0     H46562  10.100   1.987  10.441  0.5533  0.1931 -0.5291
  345MOL0     H46563   9.982   2.093  10.594 -3.6231 -1.4316 -0.9222
  345MOL0     H46564   9.854   2.158  10.495  0.6698 -1.2089 -2.3766
  345MOL0     H46565   9.855   2.365  10.587  1.2076  1.3146 -0.1631
  345MOL0     H46566  10.009   2.354  10.684 -0.6892 -0.0987  0.5788
  345MOL0     H46567   9.887   2.179  10.828 -1.9488  2.0483  3.1055
  345MOL0     H46568   9.742   2.198  10.730 -2.9373  2.6149 -0.1932
  345MOL0     H46569   9.712   2.427  10.818 -0.3054 -1.0115 -1.5633
  345MOL0     H46570   9.747   2.320  10.959 -2.4935 -0.3878 -1.4528
  345MOL0     H46571  10.069   2.603  10.932 -1.1930  1.6633  0.3614
  345MOL0     H46572  10.269   2.379  10.399 -1.8394 -0.0180 -0.4595
  345MOL0     H46573  10.583   2.296  10.305 -1.6297  3.3040 -2.0588
  345MOL0     H46574  10.464   2.415  10.354 -0.9302 -2.1899 -4.4766
  345MOL0     H46575  10.571   2.340  10.479  1.0649 -0.4967  0.7635
  346MOL0     O46576   2.525   0.485   0.525  0.2421 -0.0551 -0.7312
  346MOL0     C46577   2.487   0.589   0.469  0.2471  0.2168 -0.0183
  346MOL0     O46578   2.557   0.701   0.451 -0.0175 -0.3682 -0.0017
  346MOL0     C46579   2.653   0.752   0.538  0.5524 -0.2530 -0.1947
  346MOL0     C46580   2.681   0.707   0.667  0.2413  0.4065 -0.1589
  346MOL0     C46581   2.768   0.769   0.756 -0.3622 -0.4994  0.6766
  346MOL0     C46582   2.848   0.870   0.715 -0.9998  0.6594 -0.1884
  346MOL0     O46583   2.957   0.900   0.795 -0.7490 -0.0957 -0.6704
  346MOL0     C46584   3.065   0.961   0.725  0.5004 -0.9115 -0.2258
  346MOL0     C46585   3.174   0.973   0.827 -0.0396 -0.1183  0.8015
  346MOL0     C46586   3.227   0.840   0.872  0.7769 -0.1079 -0.2547
  346MOL0     C46587   3.370   0.856   0.915 -0.3023 -0.5258  0.2835
  346MOL0     C46588   3.443   0.724   0.917  0.6559  0.9424 -0.2268
  346MOL0     C46589   3.572   0.743   0.994 -0.1564  0.2483  0.1805
  346MOL0     C46590   3.636   0.607   1.024  0.4714 -0.0733 -0.6642
  346MOL0     C46591   3.754   0.623   1.122 -0.5358  0.3285 -0.0512
  346MOL0     N46592   3.885   0.649   1.067 -0.2430  0.4704  0.9239
  346MOL0     C46593   3.928   0.611   0.936  0.1952 -0.7643 -0.0597
  346MOL0     C46594   4.058   0.648   0.943 -0.3889 -0.0662  0.4860
  346MOL0     C46595   4.152   0.628   0.826  0.6574 -0.0359  0.7607
  346MOL0     C46596   4.202   0.483   0.802 -0.5310  0.1632 -0.1751
  346MOL0     C46597   4.301   0.473   0.690 -0.2364 -0.1009 -0.7517
  346MOL0     C46598   4.352   0.329   0.656  0.5903 -0.0341 -0.5920
  346MOL0     O46599   4.457   0.272   0.730 -0.3867  0.6089  0.8430
  346MOL0     C46600   4.579   0.302   0.681 -0.3441  1.1838 -0.5926
  346MOL0     C46601   4.655   0.203   0.614  0.2006 -0.0619 -0.0291
  346MOL0     C46602   4.788   0.226   0.575 -0.8827  0.2005  0.1229
  346MOL0     C46603   4.854   0.352   0.606 -0.0703 -0.0261  0.8454
  346MOL0     C46604   4.997   0.374   0.567 -0.8739 -0.0091  0.4580
  346MOL0     O46605   5.064   0.260   0.523 -0.1913 -0.2656  0.0341
  346MOL0     C46606   5.198   0.262   0.483  1.0666  0.0335 -0.6358
  346MOL0     C46607   5.295   0.350   0.529  0.1631 -0.0388 -0.2836
  346MOL0     C46608   5.425   0.342   0.485  0.3347 -0.7823  0.1684
  346MOL0     C46609   5.453   0.263   0.369 -0.6189  0.5331  0.3180
  346MOL0     O46610   5.577   0.238   0.307  0.8213 -0.1920  0.4745
  346MOL0     C46611   5.694   0.282   0.379 -0.6478 -0.3987 -0.5259
  346MOL0     C46612   5.815   0.249   0.298 -0.8115 -0.2240  0.2468
  346MOL0     C46613   5.943   0.280   0.370 -0.3686 -0.7349 -0.1326
  346MOL0     C46614   6.066   0.233   0.283 -0.8469  0.5393 -0.7280
  346MOL0     C46615   6.198   0.231   0.364  0.5016 -0.0555  0.6033
  346MOL0     C46616   6.272   0.369   0.389 -0.0234  0.3004 -0.0124
  346MOL0     C46617   6.267   0.451   0.263  0.4921  0.3482  0.3759
  346MOL0     C46618   6.377   0.548   0.237  0.0949 -0.5713 -0.2331
  346MOL0    Cl46619   6.481   0.474   0.110 -0.1744 -0.0649  0.0654
  346MOL0     C46620   5.356   0.168   0.328 -0.2163 -0.1713  0.6158
  346MOL0     C46621   5.227   0.162   0.398  0.2548 -0.0524  1.4557
  346MOL0     O46622   5.049   0.485   0.571 -0.2085  0.0748  0.2019
  346MOL0     C46623   4.777   0.449   0.672 -0.0229 -0.1408 -0.0151
  346MOL0     C46624   4.649   0.421   0.711  0.1019  0.1465 -0.1856
  346MOL0     N46625   4.093   0.693   1.066  0.8882 -0.5274  0.4119
  346MOL0     N46626   3.988   0.699   1.142  0.0791 -0.4279  0.1709
  346MOL0     C46627   2.832   0.917   0.584  0.7408 -0.1987  0.1906
  346MOL0     C46628   2.734   0.864   0.492 -0.1029  0.6791 -0.6119
  346MOL0     C46629   2.355   0.574   0.399 -0.3029  0.2245  0.0186
  346MOL0     C46630   2.314   0.447   0.361  0.3588 -0.4913  0.6237
  346MOL0     C46631   2.192   0.421   0.296  1.0031 -1.2382  0.6281
  346MOL0     C46632   2.114   0.533   0.257 -0.1377 -0.2970 -0.0149
  346MOL0     O46633   1.998   0.503   0.187  0.0305  0.3747 -0.1935
  346MOL0     C46634   1.935   0.376   0.209 -0.3295  0.3045 -0.5165
  346MOL0     C46635   1.789   0.373   0.167  0.2968  0.2437 -0.1539
  346MOL0     C46636   1.692   0.282   0.249  0.9329  0.3534 -0.6765
  346MOL0     C46637   1.545   0.298   0.210 -0.2978 -0.7496 -0.1265
  346MOL0     C46638   1.490   0.412   0.270 -0.7227  0.1111 -0.5080
  346MOL0     C46639   1.455   0.514   0.311 -0.3421 -0.3028  0.8862
  346MOL0     C46640   2.147   0.661   0.294 -0.1507  0.2345 -0.1279
  346MOL0     C46641   2.270   0.685   0.361 -0.2989  0.5792  0.2618
  346MOL0     C46642   2.317   0.824   0.395  0.2681  0.1920 -0.2035
  346MOL0     H46643   2.612   0.629   0.699 -0.6875  1.9679  1.8483
  346MOL0     H46644   2.794   0.718   0.848 -0.9502 -0.5379  0.8242
  346MOL0     H46645   3.105   0.898   0.645 -1.6064 -0.2484 -1.9073
  346MOL0     H46646   3.049   1.061   0.683  0.4233 -1.5273 -1.7396
  346MOL0     H46647   3.136   1.027   0.913  1.4603 -1.3803  2.3291
  346MOL0     H46648   3.254   1.035   0.785 -0.5838  0.7401  1.0161
  346MOL0     H46649   3.223   0.768   0.790 -2.3346  0.9900 -1.2178
  346MOL0     H46650   3.165   0.802   0.953 -2.7748  0.7186 -2.3824
  346MOL0     H46651   3.423   0.931   0.855 -1.4401  0.7581  0.8396
  346MOL0     H46652   3.357   0.889   1.019 -1.8728 -3.2973  1.0431
  346MOL0     H46653   3.387   0.650   0.975  2.3071  0.5930  1.0195
  346MOL0     H46654   3.454   0.677   0.819  1.8303 -2.7392  1.4685
  346MOL0     H46655   3.629   0.808   0.927 -3.4459  0.8787 -2.2779
  346MOL0     H46656   3.551   0.791   1.090 -1.4019  0.1398 -0.0222
  346MOL0     H46657   3.680   0.568   0.931 -0.3934  0.3805 -1.2749
  346MOL0     H46658   3.560   0.547   1.073  2.8389 -0.5765  2.7508
  346MOL0     H46659   3.733   0.703   1.194 -2.4844  0.8452 -1.1192
  346MOL0     H46660   3.770   0.536   1.186  1.3090 -0.2065 -1.1868
  346MOL0     H46661   3.875   0.564   0.854 -1.1072  0.3659  0.0911
  346MOL0     H46662   4.098   0.663   0.738  1.7189 -0.3287 -0.0264
  346MOL0     H46663   4.240   0.692   0.832  0.1863  1.0812 -2.2562
  346MOL0     H46664   4.246   0.442   0.894  0.4312 -2.2085 -1.6239
  346MOL0     H46665   4.114   0.423   0.778  0.0788  0.5899 -3.9970
  346MOL0     H46666   4.384   0.540   0.713 -3.6174  3.8489  1.3748
  346MOL0     H46667   4.254   0.512   0.599  0.8193  1.4083 -0.6722
  346MOL0     H46668   4.366   0.319   0.548  0.3574 -0.1007 -0.6168
  346MOL0     H46669   4.265   0.262   0.667  0.7358 -0.0398  0.5964
  346MOL0     H46670   4.597   0.119   0.577 -1.5627  1.8182 -1.8290
  346MOL0     H46671   4.845   0.153   0.519  1.0380  2.7690 -1.5028
  346MOL0     H46672   5.277   0.434   0.596 -0.8732  0.6051 -1.3215
  346MOL0     H46673   5.494   0.403   0.543  1.2447 -1.9061  0.3116
  346MOL0     H46674   5.707   0.388   0.402 -0.6785 -0.6693  0.8625
  346MOL0     H46675   5.710   0.227   0.473 -0.8990  0.4215  0.0132
  346MOL0     H46676   5.804   0.142   0.280 -0.9559 -0.2942  0.7268
  346MOL0     H46677   5.807   0.303   0.203 -1.9141 -0.1873  0.3469
  346MOL0     H46678   5.962   0.387   0.384 -1.5889 -0.2636 -1.6888
  346MOL0     H46679   5.956   0.244   0.472  0.9732  2.0399  0.7811
  346MOL0     H46680   6.059   0.307   0.203 -2.7517  0.2285 -0.8847
  346MOL0     H46681   6.055   0.129   0.251  0.4073 -0.0591  0.6824
  346MOL0     H46682   6.264   0.159   0.315 -0.3668 -0.6757  0.3243
  346MOL0     H46683   6.178   0.178   0.458 -0.5729  0.2895  0.5792
  346MOL0     H46684   6.229   0.418   0.478 -1.2918 -2.5132  1.0675
  346MOL0     H46685   6.376   0.367   0.422  0.6759 -0.7394 -2.1147
  346MOL0     H46686   6.170   0.500   0.252  0.4972 -0.2376 -4.0614
  346MOL0     H46687   6.266   0.375   0.184  0.2705 -0.0808  0.7834
  346MOL0     H46688   6.328   0.641   0.204  0.8894  0.2582  0.8568
  346MOL0     H46689   6.445   0.557   0.322  2.8604 -1.3273 -2.2058
  346MOL0     H46690   5.388   0.101   0.249  0.2279  0.4653  0.2393
  346MOL0     H46691   5.151   0.098   0.356  0.1273  0.2669  1.1910
  346MOL0     H46692   4.817   0.542   0.709  1.3576 -1.7911  2.9070
  346MOL0     H46693   4.600   0.498   0.771  1.0239  0.9996 -0.4954
  346MOL0     H46694   2.890   1.001   0.548 -0.7039  0.5155 -0.5581
  346MOL0     H46695   2.727   0.898   0.389  1.5305  2.5701 -0.1508
  346MOL0     H46696   2.380   0.362   0.375  2.8133  1.2537  0.2472
  346MOL0     H46697   2.157   0.320   0.277 -1.2157 -0.1635 -1.7193
  346MOL0     H46698   1.947   0.336   0.310  0.1893  1.0818 -0.2597
  346MOL0     H46699   1.981   0.308   0.136  0.1262 -0.2554  0.2820
  346MOL0     H46700   1.773   0.344   0.063 -3.9836  0.0692  0.3440
  346MOL0     H46701   1.764   0.478   0.186 -0.2529 -0.2258  2.1459
  346MOL0     H46702   1.701   0.301   0.356  0.9740  1.3181 -0.8399
  346MOL0     H46703   1.723   0.177   0.242  0.0229  0.1296 -1.5669
  346MOL0     H46704   1.533   0.298   0.101 -1.6048 -0.3705  0.0029
  346MOL0     H46705   1.492   0.215   0.257 -0.2726  0.6611  2.5762
  346MOL0     H46706   1.420   0.613   0.333  2.9245  1.1373  0.1807
  346MOL0     H46707   2.075   0.742   0.286 -3.1436 -1.2443  6.0401
  346MOL0     H46708   2.402   0.855   0.334  2.2179 -3.0655  0.6197
  346MOL0     H46709   2.237   0.898   0.383 -0.4860 -0.5531  0.1104
  346MOL0     H46710   2.355   0.827   0.497  1.5127 -2.4576 -0.5126
  347MOL0     O46711   2.489   3.516   6.675 -0.0551 -0.1006  0.2796
  347MOL0     C46712   2.415   3.487   6.767 -0.4473 -0.1070  0.5241
  347MOL0     O46713   2.459   3.468   6.887  0.1598 -0.6657  0.2738
  347MOL0     C46714   2.589   3.482   6.931  0.1500  0.5998 -0.1609
  347MOL0     C46715   2.705   3.524   6.864  0.5524  0.5260 -0.9610
  347MOL0     C46716   2.822   3.534   6.932 -0.1592 -0.5231  0.0796
  347MOL0     C46717   2.830   3.517   7.067 -1.0340 -0.1988 -0.1977
  347MOL0     O46718   2.942   3.515   7.137 -1.0452  1.2624  0.4548
  347MOL0     C46719   3.063   3.572   7.070  0.3680  1.0851  0.1544
  347MOL0     C46720   3.175   3.592   7.174 -0.0501 -0.7802 -0.0742
  347MOL0     C46721   3.293   3.652   7.096 -0.3051  0.5683 -0.0690
  347MOL0     C46722   3.412   3.642   7.186  0.1241 -0.2697  0.4840
  347MOL0     C46723   3.530   3.738   7.147  0.2668 -0.3049  0.5099
  347MOL0     C46724   3.644   3.716   7.245  0.5849  0.2010  0.3317
  347MOL0     C46725   3.769   3.795   7.208 -0.4734  0.2393 -0.2521
  347MOL0     C46726   3.844   3.719   7.096  0.1116 -0.0446 -0.3038
  347MOL0     N46727   3.976   3.779   7.061  0.3358  0.1093 -0.3516
  347MOL0     C46728   3.994   3.918   7.039  0.5210 -0.3354 -0.9550
  347MOL0     C46729   4.128   3.923   7.018  0.2935  0.3956  0.2491
  347MOL0     C46730   4.203   4.049   6.973  0.4593  0.2273  0.9329
  347MOL0     C46731   4.356   4.028   6.960  0.0777 -0.3420  0.8166
  347MOL0     C46732   4.422   4.160   6.915 -0.3769 -0.2351  0.3912
  347MOL0     C46733   4.562   4.145   6.855 -0.6885  1.3369  1.0798
  347MOL0     O46734   4.602   4.277   6.815  0.2390 -0.5610 -0.4141
  347MOL0     C46735   4.720   4.307   6.754 -0.2396  0.5037 -0.6634
  347MOL0     C46736   4.759   4.440   6.730  0.4159 -0.0876 -0.4716
  347MOL0     C46737   4.890   4.469   6.677 -0.3485 -0.2484 -1.1831
  347MOL0     C46738   4.986   4.367   6.658  0.0571 -0.6120 -0.3631
  347MOL0     C46739   5.113   4.394   6.597 -0.4738  0.0905 -0.0801
  347MOL0     O46740   5.178   4.294   6.530 -0.1072  0.3600 -0.2308
  347MOL0     C46741   5.275   4.310   6.441 -0.4913  0.7081  0.3394
  347MOL0     C46742   5.319   4.432   6.366 -0.1299  0.4043  0.0349
  347MOL0     C46743   5.418   4.424   6.266 -0.2938 -0.8554 -0.7134
  347MOL0     C46744   5.476   4.294   6.240  0.0037 -0.1747 -0.1907
  347MOL0     O46745   5.565   4.290   6.127 -0.2396 -0.0014  0.2015
  347MOL0     C46746   5.679   4.211   6.140 -0.1555 -0.1519  0.3410
  347MOL0     C46747   5.697   4.098   6.045  0.4908  0.0761  0.3549
  347MOL0     C46748   5.714   4.140   5.901  0.5729 -1.0754  0.3144
  347MOL0     C46749   5.747   4.022   5.811  0.0846 -0.0895  0.4181
  347MOL0     C46750   5.873   4.014   5.727 -0.1448  0.0478 -0.3824
  347MOL0     C46751   5.998   3.997   5.811 -1.2344  0.5008 -0.4665
  347MOL0     C46752   6.133   4.006   5.739 -0.0647  0.9121  0.0744
  347MOL0     C46753   6.261   3.987   5.834 -0.4611 -0.5652 -0.2219
  347MOL0    Cl46754   6.279   3.821   5.884 -0.5748 -0.1244  0.0645
  347MOL0     C46755   5.439   4.187   6.311  0.8892  0.2418  0.2293
  347MOL0     C46756   5.346   4.196   6.408 -0.4253  0.8778 -0.2422
  347MOL0     O46757   5.144   4.511   6.593 -0.3297  1.0340  0.4071
  347MOL0     C46758   4.949   4.237   6.701  0.8027  0.4249 -0.6267
  347MOL0     C46759   4.820   4.217   6.743 -0.0456  0.3640 -0.4102
  347MOL0     N46760   4.186   3.801   7.023  0.5188  0.0678  0.4394
  347MOL0     N46761   4.100   3.713   7.051 -0.3531  0.4270 -0.3293
  347MOL0     C46762   2.720   3.463   7.130  0.4821  0.3056  0.0060
  347MOL0     C46763   2.599   3.442   7.062 -0.6689  0.2887  0.7489
  347MOL0     C46764   2.268   3.491   6.745 -0.6542 -0.7725 -0.3730
  347MOL0     C46765   2.183   3.479   6.859 -0.7612  0.3878  0.0656
  347MOL0     C46766   2.044   3.486   6.844  0.2027 -0.0080 -0.1906
  347MOL0     C46767   1.991   3.521   6.720  0.6795  1.1282  0.2932
  347MOL0     O46768   1.852   3.542   6.710 -0.4477 -0.2033  0.0788
  347MOL0     C46769   1.765   3.485   6.811  0.1930  0.0235  0.4100
  347MOL0     C46770   1.617   3.502   6.768  0.1954  0.3681  0.7868
  347MOL0     C46771   1.592   3.382   6.676 -0.0737 -1.0653 -0.6083
  347MOL0     C46772   1.450   3.355   6.660  0.5461  0.5257  0.4649
  347MOL0     C46773   1.386   3.462   6.591  0.1138  0.1231  0.8323
  347MOL0     C46774   1.337   3.556   6.530  0.7988 -0.0546  0.9838
  347MOL0     C46775   2.072   3.523   6.605 -0.0896  0.6076  0.4943
  347MOL0     C46776   2.208   3.505   6.615  0.1041 -0.0306  0.8824
  347MOL0     C46777   2.280   3.526   6.485 -0.0684  0.1895  0.1336
  347MOL0     H46778   2.721   3.538   6.757  0.9076 -0.1977 -1.0067
  347MOL0     H46779   2.909   3.556   6.871 -1.1858 -1.4163 -1.8335
  347MOL0     H46780   3.098   3.507   6.990  2.4036  0.7809  1.2202
  347MOL0     H46781   3.041   3.665   7.017 -0.2166 -0.2265 -2.0356
  347MOL0     H46782   3.201   3.503   7.232  3.8193  1.6752  2.4032
  347MOL0     H46783   3.142   3.674   7.239 -0.5979  0.4362 -1.8067
  347MOL0     H46784   3.270   3.758   7.081  1.7500  1.0965  0.2837
  347MOL0     H46785   3.314   3.605   6.999 -0.1527  1.5207 -0.5017
  347MOL0     H46786   3.390   3.646   7.293 -1.2347 -2.9357  0.3805
  347MOL0     H46787   3.452   3.541   7.171  1.8653  0.7836 -3.0008
  347MOL0     H46788   3.556   3.708   7.045 -2.0992  1.2859 -0.6742
  347MOL0     H46789   3.503   3.843   7.134 -1.0080 -0.9254 -2.8182
  347MOL0     H46790   3.606   3.748   7.342 -0.8127 -1.7887  0.5017
  347MOL0     H46791   3.657   3.609   7.261 -1.9327 -0.4975 -1.6049
  347MOL0     H46792   3.831   3.802   7.298 -1.9594  1.3026  0.7473
  347MOL0     H46793   3.740   3.896   7.177  1.0439  0.4449 -1.0990
  347MOL0     H46794   3.859   3.615   7.127 -0.2831  0.4017  1.5249
  347MOL0     H46795   3.781   3.729   7.007  0.6014  0.4455 -0.6014
  347MOL0     H46796   3.922   3.999   7.038 -0.0080 -0.7934 -0.3482
  347MOL0     H46797   4.167   4.083   6.876 -1.9519 -1.1000  1.2941
  347MOL0     H46798   4.170   4.114   7.055  0.4103 -1.2293  2.0964
  347MOL0     H46799   4.394   3.995   7.057 -3.6805  0.5970  2.8097
  347MOL0     H46800   4.380   3.961   6.876 -0.4818  1.0290 -0.4773
  347MOL0     H46801   4.427   4.233   6.996  4.3692 -3.0401  3.1020
  347MOL0     H46802   4.353   4.200   6.840 -1.4240 -0.1221  1.3889
  347MOL0     H46803   4.558   4.074   6.771 -2.5490  0.4765  1.8466
  347MOL0     H46804   4.627   4.106   6.933 -0.5935  2.1489  1.4133
  347MOL0     H46805   4.684   4.514   6.756  2.3418  1.4456  1.1389
  347MOL0     H46806   4.904   4.574   6.651 -0.6731 -0.4023 -1.9958
  347MOL0     H46807   5.275   4.530   6.376  1.3773  1.0281  0.7061
  347MOL0     H46808   5.452   4.505   6.203 -0.0115 -1.3318 -1.1890
  347MOL0     H46809   5.771   4.270   6.128  0.4451 -1.3604 -1.4140
  347MOL0     H46810   5.689   4.167   6.239 -0.1059 -1.6639 -0.3092
  347MOL0     H46811   5.781   4.039   6.081 -0.8795 -2.5351 -0.4823
  347MOL0     H46812   5.605   4.039   6.058  1.5165 -1.4702  0.9007
  347MOL0     H46813   5.621   4.192   5.874 -1.0956 -2.9164  2.1662
  347MOL0     H46814   5.795   4.211   5.889  0.7229 -1.2380  0.3563
  347MOL0     H46815   5.668   4.016   5.735  0.0103  3.1300  0.0974
  347MOL0     H46816   5.732   3.931   5.870 -2.3086  1.2510  2.0391
  347MOL0     H46817   5.869   4.109   5.673  1.0479 -0.1343 -0.8225
  347MOL0     H46818   5.875   3.936   5.651  2.3863  0.3088 -0.6504
  347MOL0     H46819   5.998   4.072   5.890  0.4219 -0.0702  0.1158
  347MOL0     H46820   5.990   3.899   5.859 -0.6201  0.5235 -0.3066
  347MOL0     H46821   6.130   4.105   5.694 -0.5950  0.7621 -0.2299
  347MOL0     H46822   6.146   3.942   5.651 -2.5989  2.1158 -1.2696
  347MOL0     H46823   6.355   4.008   5.784 -0.8129  0.0460 -0.6348
  347MOL0     H46824   6.252   4.057   5.918  2.7568 -0.7828  0.4270
  347MOL0     H46825   5.483   4.089   6.292  1.9189  0.5013  1.1331
  347MOL0     H46826   5.316   4.114   6.473 -0.1753  2.9101  2.6435
  347MOL0     H46827   5.014   4.150   6.710  0.1763 -0.3479 -2.9097
  347MOL0     H46828   4.800   4.114   6.772  3.4857  0.0008  1.3038
  347MOL0     H46829   2.736   3.424   7.230  0.1813  2.1489  0.8245
  347MOL0     H46830   2.505   3.405   7.103 -1.5131 -0.1607 -1.4175
  347MOL0     H46831   2.224   3.460   6.957 -1.1137 -0.2871  0.0870
  347MOL0     H46832   1.999   3.483   6.943  0.3003 -2.3190 -0.1722
  347MOL0     H46833   1.780   3.531   6.909 -5.0546 -0.9293  1.9275
  347MOL0     H46834   1.789   3.380   6.829 -3.4254 -1.0666 -0.4530
  347MOL0     H46835   1.604   3.597   6.716  1.9382  0.6700  0.8419
  347MOL0     H46836   1.550   3.496   6.855 -1.8116  1.5984 -0.6062
  347MOL0     H46837   1.630   3.289   6.720 -1.8023 -0.8259  1.5209
  347MOL0     H46838   1.654   3.389   6.586  1.0353 -1.0679  0.1341
  347MOL0     H46839   1.447   3.263   6.600  0.4554  0.9495 -0.1914
  347MOL0     H46840   1.411   3.334   6.760 -1.1863 -2.3555 -0.6685
  347MOL0     H46841   1.297   3.634   6.469  0.9215 -0.4822  0.3514
  347MOL0     H46842   2.030   3.537   6.506  1.6416  3.6323  0.0408
  347MOL0     H46843   2.368   3.463   6.470  0.1641  0.5100  0.1573
  347MOL0     H46844   2.210   3.516   6.400 -0.7389  3.0341  0.2290
  347MOL0     H46845   2.305   3.632   6.491 -2.7808  0.8223  3.2375
  348MOL0     O46846   2.590   2.307   5.041  0.6978 -0.7964 -0.0664
  348MOL0     C46847   2.575   2.336   4.923 -0.7026  0.5298 -0.1467
  348MOL0     O46848   2.683   2.339   4.833 -0.7724  0.8128  0.5808
  348MOL0     C46849   2.811   2.332   4.872 -0.7960  0.0484  0.2647
  348MOL0     C46850   2.863   2.391   4.983  0.7045 -0.5471  0.4394
  348MOL0     C46851   2.997   2.390   5.008 -0.6603  0.4562  1.0755
  348MOL0     C46852   3.091   2.341   4.918 -0.7244  0.2294 -0.0162
  348MOL0     O46853   3.230   2.336   4.937 -0.6962  0.0056 -0.5895
  348MOL0     C46854   3.275   2.336   5.078 -0.9487 -0.0029 -0.0823
  348MOL0     C46855   3.383   2.434   5.114 -0.2456 -0.1049  0.1890
  348MOL0     C46856   3.350   2.573   5.065  0.4743  0.7387  0.4259
  348MOL0     C46857   3.448   2.693   5.100  0.8781 -0.0539 -0.1676
  348MOL0     C46858   3.602   2.671   5.102  0.2630 -0.3381  0.8587
  348MOL0     C46859   3.662   2.642   4.955  0.6294 -0.2864  0.1216
  348MOL0     C46860   3.815   2.624   4.975 -1.1032 -0.4489 -0.4747
  348MOL0     C46861   3.871   2.551   4.853 -0.0264 -0.2228  0.5520
  348MOL0     N46862   4.015   2.566   4.830 -0.0375 -0.5507 -0.1200
  348MOL0     C46863   4.102   2.603   4.931 -0.3367  0.0842 -0.3118
  348MOL0     C46864   4.227   2.572   4.882  0.2063 -0.0218 -0.4068
  348MOL0     C46865   4.347   2.574   4.971 -0.1232  0.2054  0.1967
  348MOL0     C46866   4.475   2.592   4.892  0.0174 -0.0648 -0.2806
  348MOL0     C46867   4.599   2.652   4.981  0.0046 -0.2990 -0.0102
  348MOL0     C46868   4.725   2.639   4.903 -0.2836 -0.5955 -0.4711
  348MOL0     O46869   4.817   2.710   4.976  0.1439  0.3416 -0.2843
  348MOL0     C46870   4.951   2.690   4.940  1.2109 -0.0442 -0.2296
  348MOL0     C46871   5.048   2.748   5.027  0.3238  0.1819 -0.0321
  348MOL0     C46872   5.182   2.735   4.992 -0.4730  0.2704 -0.5530
  348MOL0     C46873   5.220   2.666   4.879  0.7454 -0.3639 -0.0816
  348MOL0     C46874   5.358   2.667   4.850 -0.3491  0.0810  0.2106
  348MOL0     O46875   5.442   2.706   4.953 -0.0389  0.4319  0.1246
  348MOL0     C46876   5.582   2.711   4.943  0.7818 -0.3412  0.0387
  348MOL0     C46877   5.645   2.832   4.933  0.0418 -0.0227  0.1588
  348MOL0     C46878   5.778   2.832   4.904  0.3963  0.2186 -0.3145
  348MOL0     C46879   5.857   2.712   4.896 -0.2537  0.0462 -0.0530
  348MOL0     O46880   5.994   2.697   4.874 -0.0122  0.2707 -0.2954
  348MOL0     C46881   6.074   2.817   4.837  0.4118  0.0957 -0.0310
  348MOL0     C46882   6.132   2.887   4.956 -0.9491  0.2300 -0.4603
  348MOL0     C46883   6.258   2.985   4.924 -0.0479  0.1175 -0.1153
  348MOL0     C46884   6.395   2.918   4.913  0.2481  0.0853 -0.2287
  348MOL0     C46885   6.500   3.020   4.947 -0.1714  0.1690 -0.0122
  348MOL0     C46886   6.637   2.956   4.915 -0.2984 -0.3047 -0.2882
  348MOL0     C46887   6.752   3.042   4.968  0.0819 -0.3748  0.0310
  348MOL0     C46888   6.875   2.963   4.940 -0.2255 -0.3316  0.4339
  348MOL0    Cl46889   7.021   3.038   5.004 -0.2056  0.2300  0.4694
  348MOL0     C46890   5.790   2.595   4.904  0.3880 -0.0368 -0.1112
  348MOL0     C46891   5.655   2.587   4.915  0.0944  0.2148  0.2122
  348MOL0     O46892   5.397   2.618   4.744  0.6625  0.2546  0.0546
  348MOL0     C46893   5.122   2.614   4.793  0.4986 -0.7901 -0.1911
  348MOL0     C46894   4.988   2.628   4.822 -0.0544 -0.3889 -0.2344
  348MOL0     N46895   4.210   2.535   4.749 -0.2971 -0.0430 -0.6010
  348MOL0     N46896   4.088   2.530   4.717  1.2399 -1.0993 -0.5246
  348MOL0     C46897   3.043   2.284   4.802 -0.1507  0.0871  0.1026
  348MOL0     C46898   2.901   2.270   4.782  0.4288 -0.1454 -0.1079
  348MOL0     C46899   2.447   2.355   4.875  0.3250 -0.2066  0.7727
  348MOL0     C46900   2.357   2.422   4.961 -0.1999 -0.0714 -0.6347
  348MOL0     C46901   2.232   2.463   4.913 -1.8411  0.3535 -0.4079
  348MOL0     C46902   2.190   2.426   4.788  0.4994 -0.4289 -0.2018
  348MOL0     O46903   2.071   2.479   4.738  0.2189 -0.7838  0.1370
  348MOL0     C46904   2.093   2.591   4.634  1.5064 -0.3984 -0.7033
  348MOL0     C46905   2.048   2.718   4.712  0.2657 -0.1323  0.3541
  348MOL0     C46906   2.026   2.842   4.633  0.3280 -0.0715 -0.0615
  348MOL0     C46907   1.975   2.958   4.715  0.2038  0.3954  0.2122
  348MOL0     C46908   1.825   2.955   4.741 -0.5240 -0.0547 -1.9622
  348MOL0     C46909   1.705   2.949   4.750 -0.7454 -0.2194 -0.2466
  348MOL0     C46910   2.278   2.358   4.702  0.1855  0.2628 -0.0227
  348MOL0     C46911   2.407   2.319   4.743 -0.0815 -0.5850  0.0114
  348MOL0     C46912   2.495   2.255   4.638  0.2727  0.0643 -0.1266
  348MOL0     H46913   2.804   2.439   5.060  0.8627 -1.6130  1.2441
  348MOL0     H46914   3.028   2.438   5.101 -0.6095  0.8509  0.8545
  348MOL0     H46915   3.199   2.348   5.156  2.9423 -0.7403  4.2438
  348MOL0     H46916   3.313   2.235   5.095 -2.1184 -0.4659 -0.1252
  348MOL0     H46917   3.473   2.400   5.063 -0.0051 -0.2369  0.6987
  348MOL0     H46918   3.403   2.438   5.222  0.5001  0.6821  0.0360
  348MOL0     H46919   3.243   2.592   5.076 -0.0042 -2.2108  1.7688
  348MOL0     H46920   3.364   2.553   4.958  0.2479  2.1194  0.1212
  348MOL0     H46921   3.430   2.769   5.024  1.2507  1.0782  0.8443
  348MOL0     H46922   3.414   2.728   5.198 -0.2085 -0.2654 -0.4616
  348MOL0     H46923   3.657   2.748   5.156  1.8754 -1.5162  0.9547
  348MOL0     H46924   3.618   2.589   5.172 -0.3107 -1.4271 -0.2618
  348MOL0     H46925   3.610   2.561   4.903 -0.5768  0.6602 -0.1850
  348MOL0     H46926   3.659   2.725   4.884  0.6362  0.9307  1.4849
  348MOL0     H46927   3.836   2.580   5.073 -2.3580  0.5984  0.2929
  348MOL0     H46928   3.860   2.724   4.967 -1.1532 -0.2207  1.5516
  348MOL0     H46929   3.856   2.445   4.876  3.1847 -0.3813  2.6183
  348MOL0     H46930   3.808   2.577   4.768 -0.4793  2.2372  1.5401
  348MOL0     H46931   4.065   2.627   5.031 -3.2531 -0.4285 -1.1618
  348MOL0     H46932   4.342   2.665   5.031  1.5656  0.3793  0.1114
  348MOL0     H46933   4.360   2.481   5.027  0.3324 -0.0143 -0.2631
  348MOL0     H46934   4.519   2.497   4.861  2.0729  1.0438 -0.9665
  348MOL0     H46935   4.460   2.655   4.804 -0.2521 -0.1210 -0.2764
  348MOL0     H46936   4.601   2.600   5.078 -0.6128 -0.5344 -0.1184
  348MOL0     H46937   4.578   2.758   4.997 -0.8550 -0.4078 -0.3111
  348MOL0     H46938   4.719   2.687   4.805  1.1669  0.8957  0.1122
  348MOL0     H46939   4.759   2.535   4.896  0.0535 -0.5426  0.3025
  348MOL0     H46940   5.020   2.803   5.116 -0.5952  1.1635 -0.8971
  348MOL0     H46941   5.256   2.779   5.059  0.2347 -0.2566 -0.9684
  348MOL0     H46942   5.590   2.925   4.943 -1.3913 -0.5786 -1.8353
  348MOL0     H46943   5.829   2.927   4.893  1.8418 -0.5265 -0.2411
  348MOL0     H46944   6.148   2.790   4.761 -2.0878  0.2082 -2.6829
  348MOL0     H46945   6.019   2.892   4.780  1.7544  0.9133 -0.3086
  348MOL0     H46946   6.058   2.949   5.008  0.1946  1.2663 -0.0198
  348MOL0     H46947   6.160   2.809   5.028  0.2588 -0.5113 -1.7024
  348MOL0     H46948   6.224   3.043   4.837  1.3874  0.4796 -0.4555
  348MOL0     H46949   6.270   3.056   5.006  1.8276 -0.8186  0.4706
  348MOL0     H46950   6.402   2.882   4.810 -1.5034  1.7108 -0.9600
  348MOL0     H46951   6.395   2.829   4.978 -1.2478  1.8260  2.3467
  348MOL0     H46952   6.499   3.050   5.052  1.5516  2.2313 -0.5066
  348MOL0     H46953   6.481   3.114   4.894  0.1721 -1.2113 -2.7733
  348MOL0     H46954   6.636   2.854   4.956 -5.1229 -0.1650  0.5450
  348MOL0     H46955   6.654   2.944   4.807  1.5857  0.0716 -0.0646
  348MOL0     H46956   6.738   3.055   5.076  0.1370  0.8554 -0.0911
  348MOL0     H46957   6.767   3.141   4.923  0.1588  0.5648  2.0162
  348MOL0     H46958   6.868   2.866   4.991  1.4926  0.0992  1.5589
  348MOL0     H46959   6.878   2.958   4.830 -0.9050 -0.8517  0.4299
  348MOL0     H46960   5.853   2.507   4.909 -3.7925 -3.3300  0.8765
  348MOL0     H46961   5.608   2.490   4.905  1.4425 -0.4232 -0.0632
  348MOL0     H46962   5.147   2.577   4.694  1.8432 -0.7768  0.1208
  348MOL0     H46963   4.915   2.600   4.746  0.7903  1.2667 -1.7459
  348MOL0     H46964   3.110   2.239   4.729  1.3665 -1.4007  2.3041
  348MOL0     H46965   2.847   2.209   4.710 -2.2361  1.3523  0.4644
  348MOL0     H46966   2.386   2.452   5.061  0.9323 -1.5368 -0.4911
  348MOL0     H46967   2.172   2.523   4.980 -2.3621 -1.2466  0.6154
  348MOL0     H46968   2.038   2.571   4.542 -0.9586  0.7646  0.4195
  348MOL0     H46969   2.200   2.604   4.614  1.2449  0.8408 -1.4020
  348MOL0     H46970   2.113   2.721   4.800  0.6226 -2.0755  0.2082
  348MOL0     H46971   1.951   2.690   4.754  0.3836 -1.5513 -0.2689
  348MOL0     H46972   1.945   2.825   4.561  1.7595  1.5277 -2.1603
  348MOL0     H46973   2.117   2.862   4.576  1.1017  0.7590  1.4021
  348MOL0     H46974   2.027   2.965   4.811 -0.0582  1.6398  0.2828
  348MOL0     H46975   1.993   3.051   4.660 -1.0620 -0.3765 -1.6023
  348MOL0     H46976   1.599   2.941   4.764 -0.7676 -1.9728 -1.0973
  348MOL0     H46977   2.236   2.316   4.610  1.4218 -2.4440  0.5600
  348MOL0     H46978   2.572   2.329   4.616 -1.6422  1.4873 -2.4890
  348MOL0     H46979   2.528   2.161   4.683 -1.1324 -0.4206 -0.0447
  348MOL0     H46980   2.438   2.233   4.547  0.1832  1.3575 -0.3897
  349MOL0     O46981   8.201   5.607   7.741  0.1941  0.0554  0.0816
  349MOL0     C46982   8.156   5.600   7.857 -0.0954 -0.5015  0.3860
  349MOL0     O46983   8.243   5.596   7.975 -0.0469  0.5536  0.0619
  349MOL0     C46984   8.375   5.592   7.944 -0.2573  0.1218 -0.3268
  349MOL0     C46985   8.428   5.466   7.922  0.8425  0.6914 -0.6681
  349MOL0     C46986   8.566   5.464   7.896  0.3225  0.2819 -1.1446
  349MOL0     C46987   8.649   5.580   7.892 -0.3651  0.6152 -0.5554
  349MOL0     O46988   8.784   5.554   7.871 -0.2213  0.1795 -0.2354
  349MOL0     C46989   8.869   5.645   7.938 -0.1991  0.0260  0.3952
  349MOL0     C46990   9.009   5.594   7.930 -0.0150 -0.2115 -0.0868
  349MOL0     C46991   9.034   5.457   8.011 -0.2743 -0.6790  0.8117
  349MOL0     C46992   9.175   5.409   7.983 -0.6984 -0.8509  0.0705
  349MOL0     C46993   9.282   5.487   8.063 -0.3382  0.0561  0.2213
  349MOL0     C46994   9.426   5.425   8.037  0.7750  0.2499  0.4039
  349MOL0     C46995   9.439   5.283   8.098  0.3856  0.1438  0.4557
  349MOL0     C46996   9.580   5.278   8.172 -0.0155 -0.2312  1.0599
  349MOL0     N46997   9.585   5.144   8.238  0.1650 -0.0588  0.4934
  349MOL0     C46998   9.492   5.071   8.317 -0.0608  0.5281 -1.1157
  349MOL0     C46999   9.553   4.952   8.343 -0.4301 -0.5323 -0.1955
  349MOL0     C47000   9.507   4.831   8.442 -0.8322 -0.0290  0.2873
  349MOL0     C47001   9.359   4.846   8.483 -0.5392  0.2097 -0.5831
  349MOL0     C47002   9.340   4.721   8.579  0.4065 -0.8843  1.0413
  349MOL0     C47003   9.192   4.721   8.606 -0.3358  0.6352  0.2671
  349MOL0     O47004   9.139   4.839   8.677  0.0167  0.2181  0.7567
  349MOL0     C47005   9.003   4.836   8.690  0.5880  0.3338  0.6359
  349MOL0     C47006   8.913   4.726   8.686 -0.8026  0.6721 -0.2836
  349MOL0     C47007   8.778   4.748   8.688  0.8496  0.8830 -0.1645
  349MOL0     C47008   8.724   4.878   8.706 -0.4809  1.4748  0.0965
  349MOL0     C47009   8.582   4.894   8.724  0.4160  0.6516 -0.5393
  349MOL0     O47010   8.530   5.017   8.751 -0.1363 -0.1855 -0.2056
  349MOL0     C47011   8.394   5.034   8.736  0.7660  0.4820 -0.5106
  349MOL0     C47012   8.305   5.024   8.852 -0.5586 -0.1480  0.4796
  349MOL0     C47013   8.169   5.034   8.836  0.7909  0.4449  0.1125
  349MOL0     C47014   8.111   5.058   8.715 -0.0321 -0.1270 -0.9562
  349MOL0     O47015   7.977   5.056   8.690  0.5328  0.0852 -0.3367
  349MOL0     C47016   7.933   4.942   8.617 -0.0929 -0.5923 -0.3305
  349MOL0     C47017   7.783   4.926   8.617 -1.0065  0.5622 -0.6387
  349MOL0     C47018   7.734   4.788   8.565  0.5544 -0.2449  0.8457
  349MOL0     C47019   7.614   4.732   8.634  0.5823  0.8520  0.5773
  349MOL0     C47020   7.491   4.817   8.594  0.0513 -0.5471  0.0495
  349MOL0     C47021   7.365   4.789   8.682 -0.1175  0.2450 -1.1587
  349MOL0     C47022   7.248   4.872   8.630  0.2571 -0.0395  0.1631
  349MOL0     C47023   7.151   4.901   8.737  0.1924 -0.3120 -0.6501
  349MOL0    Cl47024   7.000   4.983   8.678  0.0592  0.0688  0.3334
  349MOL0     C47025   8.199   5.067   8.609 -0.7567 -0.0432 -0.0941
  349MOL0     C47026   8.332   5.053   8.616 -0.1242  0.9316  0.0738
  349MOL0     O47027   8.514   4.797   8.686 -0.4911 -0.8732  0.1061
  349MOL0     C47028   8.809   4.982   8.706  0.1900  0.0314 -0.9661
  349MOL0     C47029   8.941   4.965   8.702 -1.0133  0.1702 -1.3275
  349MOL0     N47030   9.686   4.950   8.299 -0.1217 -0.0842  0.2616
  349MOL0     N47031   9.695   5.059   8.223  0.0082  0.2482 -0.8921
  349MOL0     C47032   8.588   5.703   7.923 -1.0175  0.3875  0.0259
  349MOL0     C47033   8.452   5.712   7.939  0.2510 -0.6582 -0.1235
  349MOL0     C47034   8.011   5.610   7.880 -0.4177 -0.7220  0.0264
  349MOL0     C47035   7.974   5.648   8.013 -0.1542  0.2398 -0.2787
  349MOL0     C47036   7.839   5.648   8.052  0.1614  0.9690 -0.0960
  349MOL0     C47037   7.739   5.603   7.972  0.1086 -0.3003 -0.5710
  349MOL0     O47038   7.609   5.600   8.006  0.8181 -0.0509 -0.4269
  349MOL0     C47039   7.563   5.711   8.087 -0.2265  0.6716  0.2316
  349MOL0     C47040   7.409   5.731   8.073  0.0060 -0.5137  0.0798
  349MOL0     C47041   7.329   5.670   8.182  0.6536  0.0843 -0.0229
  349MOL0     C47042   7.182   5.704   8.160 -0.5181  0.3668  0.5513
  349MOL0     C47043   7.151   5.846   8.191  0.0341 -0.3219  0.5844
  349MOL0     C47044   7.106   5.951   8.225 -0.1674 -0.8439 -0.8145
  349MOL0     C47045   7.774   5.569   7.844 -0.1574  0.1133 -0.4660
  349MOL0     C47046   7.903   5.560   7.798  1.1134  0.3178 -0.0615
  349MOL0     C47047   7.918   5.502   7.661  0.0731 -0.0935  0.3934
  349MOL0     H47048   8.363   5.380   7.941 -0.8564  2.0716  0.0954
  349MOL0     H47049   8.611   5.365   7.889  1.0427  0.5809 -0.7901
  349MOL0     H47050   8.860   5.741   7.887  0.8854 -1.0748 -2.0181
  349MOL0     H47051   8.835   5.667   8.040  1.8648  0.2934  1.0617
  349MOL0     H47052   9.076   5.669   7.973  0.0294 -0.6812  0.6704
  349MOL0     H47053   9.026   5.576   7.824  1.9846  0.2710  0.1259
  349MOL0     H47054   8.975   5.373   7.973  0.4281 -1.6850  1.8952
  349MOL0     H47055   9.017   5.465   8.118  0.6002  1.0942  0.8475
  349MOL0     H47056   9.176   5.307   8.023 -0.3658 -0.6261  0.6425
  349MOL0     H47057   9.194   5.404   7.875  0.2083 -0.6967  0.2116
  349MOL0     H47058   9.276   5.596   8.051 -2.1819  0.3261  2.7981
  349MOL0     H47059   9.269   5.482   8.172 -1.9987  0.1084  0.0433
  349MOL0     H47060   9.462   5.417   7.933 -0.1825  0.4647  0.0456
  349MOL0     H47061   9.498   5.492   8.085  0.3945 -0.2338  1.6690
  349MOL0     H47062   9.428   5.202   8.025 -2.1272  1.4540 -0.7297
  349MOL0     H47063   9.368   5.286   8.181  0.3694  3.3439  0.4576
  349MOL0     H47064   9.655   5.285   8.093  0.3716  1.6005  1.5490
  349MOL0     H47065   9.588   5.355   8.249  1.0718 -1.9538  2.7786
  349MOL0     H47066   9.392   5.097   8.348 -0.2552 -1.0570 -0.3034
  349MOL0     H47067   9.519   4.736   8.389  1.1797 -0.2475  1.0626
  349MOL0     H47068   9.579   4.828   8.523 -0.4273 -3.2680 -0.0565
  349MOL0     H47069   9.336   4.933   8.545 -3.1561 -1.6566  1.2655
  349MOL0     H47070   9.288   4.843   8.400 -2.0575 -0.2366  0.6818
  349MOL0     H47071   9.405   4.726   8.666  2.9744  2.0621 -0.8606
  349MOL0     H47072   9.370   4.629   8.528  2.0235 -0.3751  1.0304
  349MOL0     H47073   9.176   4.632   8.667 -1.5597  0.3940 -0.3629
  349MOL0     H47074   9.133   4.701   8.515 -1.1032  1.4153  0.5746
  349MOL0     H47075   8.951   4.627   8.662 -1.5843  0.6926 -1.6485
  349MOL0     H47076   8.719   4.657   8.682 -2.9865  2.9594  2.0485
  349MOL0     H47077   8.344   4.993   8.948  1.0363 -2.7247 -0.9127
  349MOL0     H47078   8.099   5.038   8.920  0.1297 -2.1596 -0.2245
  349MOL0     H47079   7.973   4.952   8.516  2.5567  0.7132  0.7499
  349MOL0     H47080   7.974   4.860   8.677 -2.0533  0.6642  3.0055
  349MOL0     H47081   7.751   4.950   8.719 -0.1200 -3.4168  0.7464
  349MOL0     H47082   7.754   5.011   8.554 -2.5090  1.8927  1.7088
  349MOL0     H47083   7.709   4.805   8.460  0.4187  0.7581  1.0357
  349MOL0     H47084   7.817   4.718   8.576  0.4120 -0.6552 -0.4301
  349MOL0     H47085   7.621   4.730   8.744 -2.6605 -0.1387  0.8878
  349MOL0     H47086   7.592   4.633   8.595 -0.4940  1.8983 -1.6142
  349MOL0     H47087   7.465   4.799   8.489 -0.6191 -0.1639  0.1411
  349MOL0     H47088   7.513   4.924   8.601  0.1639 -0.6600  1.7620
  349MOL0     H47089   7.328   4.686   8.683 -0.7752  0.4354  1.3968
  349MOL0     H47090   7.378   4.808   8.789 -2.4110 -2.2133 -0.3353
  349MOL0     H47091   7.200   4.809   8.555  0.5994  0.3728 -0.4157
  349MOL0     H47092   7.266   4.968   8.580  1.0656  0.3775  1.2104
  349MOL0     H47093   7.124   4.808   8.787  2.9831 -1.8004 -1.7186
  349MOL0     H47094   7.200   4.967   8.808  0.1439 -0.6210 -0.3289
  349MOL0     H47095   8.142   5.085   8.518 -5.7920 -1.1264  2.4559
  349MOL0     H47096   8.393   5.063   8.527 -0.2232  0.9224  0.0067
  349MOL0     H47097   8.796   5.090   8.707  0.4857  0.0649 -0.0901
  349MOL0     H47098   9.002   5.055   8.706  0.8900 -1.0515 -1.1850
  349MOL0     H47099   8.639   5.798   7.926  1.6400 -0.8437 -1.8971
  349MOL0     H47100   8.402   5.808   7.948 -1.5560 -1.3888 -1.6511
  349MOL0     H47101   8.047   5.669   8.090 -0.0064 -3.0417  0.6336
  349MOL0     H47102   7.818   5.670   8.156  0.3228  1.6647 -0.2051
  349MOL0     H47103   7.605   5.805   8.050 -1.1294  1.1272  0.3615
  349MOL0     H47104   7.596   5.692   8.190 -0.0865  1.1553  0.2789
  349MOL0     H47105   7.373   5.701   7.974  0.4532  2.0961 -0.9522
  349MOL0     H47106   7.390   5.839   8.075  1.1841 -0.0855 -3.4189
  349MOL0     H47107   7.359   5.701   8.282  0.1956 -2.1474  0.8734
  349MOL0     H47108   7.351   5.563   8.191  1.6176 -0.0540 -2.7871
  349MOL0     H47109   7.152   5.685   8.057 -2.4601 -1.2809  1.3411
  349MOL0     H47110   7.122   5.632   8.217 -1.6610  0.9911  0.1828
  349MOL0     H47111   7.083   6.048   8.264  1.7139 -0.6680 -0.0159
  349MOL0     H47112   7.699   5.532   7.775  0.6644 -1.7194 -0.4378
  349MOL0     H47113   7.909   5.579   7.585 -0.2577  0.2180  0.7458
  349MOL0     H47114   8.014   5.449   7.654  0.7309  1.1757 -0.3627
  349MOL0     H47115   7.829   5.441   7.642 -0.4064  1.4722 -3.1108
  350MOL0     O47116   7.006   5.600   0.120 -0.0354  0.0608 -0.6572
  350MOL0     C47117   6.973   5.651   0.011  0.4705  0.0386 -0.0846
  350MOL0     O47118   7.052   5.665  -0.104  0.2581  0.0567  0.1280
  350MOL0     C47119   7.180   5.628  -0.094 -0.2439  0.3745  0.2015
  350MOL0     C47120   7.232   5.526  -0.187 -0.2789 -1.4877  0.1822
  350MOL0     C47121   7.362   5.475  -0.162 -0.8027  0.9138 -0.4527
  350MOL0     C47122   7.450   5.525  -0.067 -0.0564 -0.4574  0.2121
  350MOL0     O47123   7.577   5.471  -0.056  0.6530 -0.3114 -0.1913
  350MOL0     C47124   7.672   5.564  -0.007  0.0344  0.4228 -0.4268
  350MOL0     C47125   7.811   5.527  -0.057  0.0343 -0.6800 -0.4049
  350MOL0     C47126   7.918   5.610   0.013  0.5585 -0.6188 -0.0500
  350MOL0     C47127   8.059   5.559  -0.030  0.2871 -0.3559 -0.9299
  350MOL0     C47128   8.180   5.635   0.020  0.1675 -0.8656 -0.8245
  350MOL0     C47129   8.308   5.580  -0.050 -0.1369 -0.1232 -0.0998
  350MOL0     C47130   8.442   5.637   0.012  0.0504  0.4097 -0.0177
  350MOL0     C47131   8.455   5.787  -0.018 -0.2481  0.6522  0.8856
  350MOL0     N47132   8.554   5.831   0.072 -0.1172 -0.6280  0.6454
  350MOL0     C47133   8.546   5.850   0.206 -0.2540 -0.5300 -0.0802
  350MOL0     C47134   8.661   5.901   0.242  0.6020 -1.0798  0.8047
  350MOL0     C47135   8.692   5.945   0.378  0.7970 -0.2000  0.2016
  350MOL0     C47136   8.773   5.843   0.462 -0.0687  0.0575 -0.7298
  350MOL0     C47137   8.909   5.820   0.412 -0.5401  0.2274  0.3701
  350MOL0     C47138   9.008   5.895   0.498 -0.6355  0.5705  0.0657
  350MOL0     O47139   9.039   5.838   0.627  0.2624 -0.6934 -0.3130
  350MOL0     C47140   9.157   5.875   0.692 -0.0342 -0.0768  0.0638
  350MOL0     C47141   9.237   5.771   0.734 -0.1974 -0.5404  0.4240
  350MOL0     C47142   9.352   5.794   0.801 -0.0516 -0.4384 -0.6741
  350MOL0     C47143   9.396   5.924   0.822  0.6147 -0.0279 -0.2994
  350MOL0     C47144   9.524   5.947   0.898 -0.1885 -0.6762  0.7022
  350MOL0     O47145   9.577   6.070   0.900  0.1501  0.0219  0.3199
  350MOL0     C47146   9.705   6.087   0.945 -0.4306  0.7405 -0.6437
  350MOL0     C47147   9.715   6.153   1.073 -0.1440  0.4021  0.5059
  350MOL0     C47148   9.844   6.182   1.128  0.0704  0.2915 -0.2971
  350MOL0     C47149   9.959   6.126   1.069  0.0095 -0.2514 -0.9130
  350MOL0     O47150  10.067   6.172   1.136 -0.2883  0.0059  0.4132
  350MOL0     C47151  10.190   6.109   1.108 -0.2253  0.0535 -0.6264
  350MOL0     C47152  10.295   6.148   1.219 -0.3790 -0.0575  0.6855
  350MOL0     C47153  10.421   6.095   1.180 -0.7619 -0.2492 -0.6125
  350MOL0     C47154  10.525   6.156   1.278  0.5700 -0.0044 -0.4173
  350MOL0     C47155  10.661   6.082   1.272  0.1636 -0.7669 -0.0829
  350MOL0     C47156  10.782   6.159   1.339 -0.1869  0.1796 -0.4693
  350MOL0     C47157  10.912   6.076   1.315 -0.6885  1.1772 -0.3552
  350MOL0     C47158  11.015   6.095   1.428  0.4595 -0.5787 -0.4612
  350MOL0    Cl47159  11.152   5.995   1.387  0.3293  0.3160  0.4732
  350MOL0     C47160   9.948   6.050   0.948  0.1435 -0.2959 -0.2251
  350MOL0     C47161   9.819   6.036   0.888 -0.3880 -0.3432 -0.2708
  350MOL0     O47162   9.574   5.847   0.957  0.3128 -0.5454  0.0161
  350MOL0     C47163   9.318   6.026   0.776 -0.2322 -0.8269 -0.5893
  350MOL0     C47164   9.198   6.002   0.710 -0.6872  0.5104 -0.1117
  350MOL0     N47165   8.738   5.923   0.130  0.1895 -0.7489 -0.5264
  350MOL0     N47166   8.673   5.882   0.029  0.8579  0.7663 -0.3120
  350MOL0     C47167   7.397   5.630   0.016 -0.5830 -0.4276 -0.2222
  350MOL0     C47168   7.266   5.686  -0.002  0.0142  0.1740  0.6935
  350MOL0     C47169   6.830   5.700  -0.007  0.4875 -0.9188 -0.4964
  350MOL0     C47170   6.766   5.681  -0.134 -0.4598 -0.1269  0.4704
  350MOL0     C47171   6.640   5.743  -0.158  0.0108  0.5587  0.2403
  350MOL0     C47172   6.563   5.790  -0.060  0.0199 -0.2801  0.5495
  350MOL0     O47173   6.439   5.827  -0.093  0.6571 -0.2962 -0.2317
  350MOL0     C47174   6.418   5.928  -0.196 -0.2053 -0.0822  0.0689
  350MOL0     C47175   6.434   6.060  -0.132 -0.8644 -0.0186  0.6434
  350MOL0     C47176   6.306   6.105  -0.080  0.6119  0.5160  0.0825
  350MOL0     C47177   6.290   6.261  -0.059 -0.1858 -0.0101 -0.2933
  350MOL0     C47178   6.320   6.300   0.082 -0.0873  0.3879  0.2702
  350MOL0     C47179   6.351   6.325   0.197  0.3817 -0.0974  0.3940
  350MOL0     C47180   6.613   5.791   0.073  0.6610 -0.6927  0.3148
  350MOL0     C47181   6.749   5.756   0.095 -0.1677 -0.2913  0.0989
  350MOL0     C47182   6.798   5.768   0.242 -0.4177  0.8671 -0.7698
  350MOL0     H47183   7.171   5.484  -0.266 -1.0066 -1.0671  0.5084
  350MOL0     H47184   7.391   5.396  -0.230 -1.3330 -0.2668  0.6470
  350MOL0     H47185   7.653   5.667  -0.038  1.6670  1.4129  1.5903
  350MOL0     H47186   7.675   5.561   0.103  0.2254  0.8323 -0.4181
  350MOL0     H47187   7.815   5.550  -0.163  0.0774  2.3198  0.1577
  350MOL0     H47188   7.825   5.420  -0.041  1.6487 -0.6837 -1.5936
  350MOL0     H47189   7.913   5.602   0.122  1.4005  1.3699  0.1957
  350MOL0     H47190   7.908   5.715  -0.018  3.4799  0.1021  1.0413
  350MOL0     H47191   8.071   5.453  -0.008 -2.4221 -0.7577 -1.1585
  350MOL0     H47192   8.072   5.567  -0.138  1.0236  1.0061 -0.7694
  350MOL0     H47193   8.160   5.738  -0.009  0.0012 -0.5619  0.3203
  350MOL0     H47194   8.173   5.635   0.129 -2.5980  3.2938 -0.7660
  350MOL0     H47195   8.309   5.475  -0.018 -3.4486  0.0187  0.7640
  350MOL0     H47196   8.309   5.594  -0.158  1.7570 -0.1659 -0.1283
  350MOL0     H47197   8.527   5.578  -0.021 -1.0442 -1.8222  0.9848
  350MOL0     H47198   8.439   5.624   0.120  3.1342  0.0595  0.1025
  350MOL0     H47199   8.486   5.799  -0.122 -1.6857  2.9733  0.6598
  350MOL0     H47200   8.366   5.850  -0.014 -0.8242 -0.1778  1.4841
  350MOL0     H47201   8.463   5.838   0.274 -0.7161  3.7555  0.3421
  350MOL0     H47202   8.745   6.039   0.359 -0.3506  0.2166 -1.1365
  350MOL0     H47203   8.602   5.978   0.430  0.8066 -0.9350  0.6906
  350MOL0     H47204   8.782   5.877   0.565  2.4137  0.3424 -0.9900
  350MOL0     H47205   8.722   5.746   0.466  0.6342 -0.2962  2.2185
  350MOL0     H47206   8.914   5.850   0.307 -1.0020 -0.0873  0.2526
  350MOL0     H47207   8.931   5.713   0.421 -3.7608 -0.3273  4.4071
  350MOL0     H47208   8.974   5.997   0.518 -0.0406  0.7742  0.0769
  350MOL0     H47209   9.102   5.914   0.444  0.1897  0.6955  1.5043
  350MOL0     H47210   9.196   5.671   0.720 -1.1393  0.1420 -2.4345
  350MOL0     H47211   9.414   5.712   0.835  0.7310 -0.8620 -2.9504
  350MOL0     H47212   9.623   6.192   1.118 -1.0606 -1.2982  0.2059
  350MOL0     H47213   9.842   6.244   1.217  0.0427  0.7386 -0.6048
  350MOL0     H47214  10.173   6.001   1.114  1.9472 -0.2985  0.0040
  350MOL0     H47215  10.230   6.131   1.009  1.4550 -0.1319 -0.0341
  350MOL0     H47216  10.299   6.255   1.239 -1.3436  0.2866 -0.8580
  350MOL0     H47217  10.267   6.101   1.314  0.5558 -0.9565  0.5354
  350MOL0     H47218  10.433   5.987   1.175 -0.1119 -0.1387 -1.9756
  350MOL0     H47219  10.440   6.130   1.078 -0.4320  1.8885  0.1241
  350MOL0     H47220  10.492   6.140   1.381  2.4612 -0.0053  0.2195
  350MOL0     H47221  10.530   6.262   1.251 -0.1798 -0.5758 -3.1476
  350MOL0     H47222  10.683   6.060   1.167 -3.3983 -2.2941 -0.6511
  350MOL0     H47223  10.651   5.984   1.318  2.4301 -0.7610  0.5575
  350MOL0     H47224  10.786   6.260   1.297  1.0512  0.6734  0.7730
  350MOL0     H47225  10.772   6.171   1.447  3.4319  1.3322 -0.1303
  350MOL0     H47226  10.975   6.106   1.230  4.3809 -2.5319  1.6164
  350MOL0     H47227  10.881   5.972   1.301  0.7821  0.5929  0.6037
  350MOL0     H47228  11.048   6.199   1.434  1.1060 -0.8694  1.9005
  350MOL0     H47229  10.976   6.075   1.528 -2.2861  0.6862 -1.2020
  350MOL0     H47230  10.027   6.000   0.893  0.8656  0.0038  0.5336
  350MOL0     H47231   9.807   5.977   0.798 -0.3295  0.1343 -0.5947
  350MOL0     H47232   9.338   6.128   0.809 -0.3110 -0.2497 -2.2355
  350MOL0     H47233   9.128   6.079   0.680 -2.3170 -1.3900 -1.3992
  350MOL0     H47234   7.457   5.680   0.090 -2.6005  0.2695  1.0290
  350MOL0     H47235   7.223   5.760   0.065  0.1075  1.3580 -0.5029
  350MOL0     H47236   6.821   5.643  -0.220  0.6190 -0.6463  1.3673
  350MOL0     H47237   6.603   5.744  -0.260  0.6908 -1.0365 -0.0413
  350MOL0     H47238   6.324   5.921  -0.252  1.0553 -0.4991 -2.0716
  350MOL0     H47239   6.500   5.921  -0.268  0.9040  0.1065  1.2771
  350MOL0     H47240   6.500   6.126  -0.189 -0.6867  1.2126  2.1921
  350MOL0     H47241   6.501   6.045  -0.047 -2.2406 -0.6017  1.6698
  350MOL0     H47242   6.300   6.049   0.014 -4.3229  1.6926  0.7343
  350MOL0     H47243   6.222   6.068  -0.139  0.8220 -1.7834  1.0956
  350MOL0     H47244   6.349   6.318  -0.130 -0.6482 -0.1238 -0.7772
  350MOL0     H47245   6.192   6.301  -0.086  1.5677  3.0261 -2.8011
  350MOL0     H47246   6.367   6.345   0.301  2.3433  0.2176  0.0725
  350MOL0     H47247   6.551   5.823   0.157  1.1814 -0.2755  0.5388
  350MOL0     H47248   6.840   5.670   0.267  0.7664  0.8693 -2.5806
  350MOL0     H47249   6.879   5.841   0.247 -1.3449  1.8296  1.1960
  350MOL0     H47250   6.728   5.803   0.318 -3.0914 -3.3913 -0.9372
  351MOL0     O47251  10.857   0.916   2.448  0.4106 -0.1903  0.0125
  351MOL0     C47252  10.815   0.826   2.514  0.1446  0.1854 -0.0608
  351MOL0     O47253  10.888   0.713   2.546  0.1896 -1.1767  0.7654
  351MOL0     C47254  11.001   0.697   2.470  0.4431 -0.5360  0.5911
  351MOL0     C47255  11.007   0.673   2.330  0.0015  0.2178  0.2278
  351MOL0     C47256  11.120   0.634   2.267  0.0263 -0.4416  0.7479
  351MOL0     C47257  11.246   0.629   2.327  0.1319  0.5392  1.0109
  351MOL0     O47258  11.362   0.604   2.255 -0.2234  0.1125 -0.2780
  351MOL0     C47259  11.493   0.636   2.310 -0.1891  0.0151  0.0071
  351MOL0     C47260  11.595   0.611   2.199 -0.1979  0.1595 -0.4299
  351MOL0     C47261  11.742   0.616   2.248 -0.1989  0.5155 -0.7698
  351MOL0     C47262  11.835   0.614   2.127  0.6442  0.3896 -0.2641
  351MOL0     C47263  11.986   0.634   2.168  0.2452  0.0444 -0.5197
  351MOL0     C47264  12.046   0.526   2.239 -1.4826  0.5796  0.6551
  351MOL0     C47265  12.201   0.523   2.222 -0.4510  0.6340  0.0930
  351MOL0     C47266  12.273   0.415   2.309  0.7879 -0.5251 -0.2261
  351MOL0     N47267  12.408   0.389   2.261 -0.1486  0.0166  0.1948
  351MOL0     C47268  12.448   0.261   2.237 -0.0690 -0.5490 -0.5419
  351MOL0     C47269  12.585   0.284   2.219 -0.0340  0.2034 -0.7334
  351MOL0     C47270  12.686   0.178   2.174  0.6468 -0.6698 -0.0821
  351MOL0     C47271  12.678   0.182   2.020 -0.1134 -0.1372  0.6492
  351MOL0     C47272  12.785   0.089   1.945 -0.1331 -0.5946  0.4090
  351MOL0     C47273  12.930   0.128   1.966 -0.7354 -0.2318 -0.3314
  351MOL0     O47274  13.011   0.013   1.960 -0.1171 -0.5556  0.3294
  351MOL0     C47275  13.147   0.014   1.948 -0.3397 -0.6290 -0.2330
  351MOL0     C47276  13.195  -0.110   1.908 -0.0550 -0.0439 -0.2676
  351MOL0     C47277  13.337  -0.123   1.903  0.7571  0.2766  0.2807
  351MOL0     C47278  13.427  -0.016   1.936  1.1860  0.1531  0.4003
  351MOL0     C47279  13.575  -0.038   1.938  0.0942 -0.5745  0.0463
  351MOL0     O47280  13.633  -0.128   1.845  0.2842 -0.1975 -0.0608
  351MOL0     C47281  13.770  -0.142   1.829 -0.0860  0.4886 -0.0485
  351MOL0     C47282  13.849  -0.038   1.790 -0.0748  0.1326 -0.2898
  351MOL0     C47283  13.985  -0.057   1.764 -0.4711 -0.2231 -0.5885
  351MOL0     C47284  14.043  -0.186   1.776  0.4175 -0.4820 -0.2023
  351MOL0     O47285  14.175  -0.223   1.751 -0.1479 -0.5690  0.2997
  351MOL0     C47286  14.273  -0.122   1.790  0.1525  0.1225  0.8140
  351MOL0     C47287  14.412  -0.178   1.805 -0.4977  0.5563  1.3864
  351MOL0     C47288  14.469  -0.222   1.665  0.0679  0.3369 -0.4145
  351MOL0     C47289  14.487  -0.114   1.559 -0.4155 -0.2066 -0.1039
  351MOL0     C47290  14.585  -0.152   1.452 -0.5190 -0.4585  0.7911
  351MOL0     C47291  14.602  -0.036   1.352 -0.0528  0.1457 -0.6771
  351MOL0     C47292  14.672  -0.087   1.232 -0.7903  0.3238  0.0415
  351MOL0     C47293  14.717   0.029   1.141 -0.4074 -0.2282  1.2294
  351MOL0    Cl47294  14.820   0.152   1.226  0.5192 -0.1004  0.3261
  351MOL0     C47295  13.966  -0.287   1.831 -0.5803  0.1848 -1.3200
  351MOL0     C47296  13.832  -0.267   1.847  0.0999 -0.0218  0.0629
  351MOL0     O47297  13.631   0.041   2.011  0.2315  0.1083  0.4426
  351MOL0     C47298  13.371   0.110   1.967  0.2170  0.7807  0.6730
  351MOL0     C47299  13.233   0.117   1.973 -0.3857  0.5857  0.2639
  351MOL0     N47300  12.613   0.424   2.229  0.2445  0.2135 -0.0955
  351MOL0     N47301  12.505   0.487   2.253 -0.1902 -0.6655  0.1312
  351MOL0     C47302  11.246   0.654   2.469 -0.4926 -0.2559 -0.1682
  351MOL0     C47303  11.123   0.680   2.538  0.1634 -0.1543 -0.8465
  351MOL0     C47304  10.684   0.843   2.582  0.3610 -0.4096 -0.1701
  351MOL0     C47305  10.657   0.778   2.707  0.0083 -0.5793 -0.3239
  351MOL0     C47306  10.537   0.791   2.780 -0.0040  0.1446  0.0414
  351MOL0     C47307  10.432   0.868   2.728  0.3345 -0.0141 -0.1309
  351MOL0     O47308  10.317   0.866   2.799  0.7388  0.0928  0.0490
  351MOL0     C47309  10.194   0.876   2.726 -0.8321  0.2022 -0.1107
  351MOL0     C47310  10.112   0.751   2.740  0.0161 -0.3511  0.1030
  351MOL0     C47311  10.089   0.700   2.882 -0.3751 -0.2604  0.7385
  351MOL0     C47312  10.008   0.568   2.895  0.2950 -0.8740  0.4706
  351MOL0     C47313   9.969   0.544   3.038  0.6893  0.8279 -0.4283
  351MOL0     C47314   9.932   0.502   3.145 -0.0316 -0.0156  0.1932
  351MOL0     C47315  10.456   0.930   2.606  0.1113 -0.4913 -1.7647
  351MOL0     C47316  10.578   0.921   2.536  0.1219 -0.4028 -0.3366
  351MOL0     C47317  10.576   1.016   2.417 -0.6688 -0.0133 -1.1022
  351MOL0     H47318  10.910   0.678   2.281  0.0456 -0.6520  0.0325
  351MOL0     H47319  11.106   0.605   2.163  3.2903 -0.6035  0.2503
  351MOL0     H47320  11.499   0.742   2.337 -3.1905  0.4731 -0.7971
  351MOL0     H47321  11.511   0.577   2.401 -2.9845  1.0529  1.3264
  351MOL0     H47322  11.573   0.689   2.126  1.5918  2.3229  1.2090
  351MOL0     H47323  11.573   0.513   2.155 -1.8653 -0.2185  1.1134
  351MOL0     H47324  11.759   0.523   2.304  2.4441 -0.0576 -2.3619
  351MOL0     H47325  11.755   0.707   2.308 -0.6344 -0.9342  1.6846
  351MOL0     H47326  11.819   0.513   2.088  0.3413 -0.0122  0.8697
  351MOL0     H47327  11.793   0.679   2.049 -0.0696  2.3837  1.6805
  351MOL0     H47328  12.048   0.643   2.078  1.3607  0.9648  0.3113
  351MOL0     H47329  11.994   0.726   2.226 -2.8961  0.2570 -0.2659
  351MOL0     H47330  12.019   0.532   2.345 -0.6084 -0.3502  0.9486
  351MOL0     H47331  12.009   0.437   2.187  2.1752 -0.7999  0.1044
  351MOL0     H47332  12.245   0.622   2.232  2.4771 -0.2153 -2.6658
  351MOL0     H47333  12.221   0.500   2.117 -2.5791  0.3319 -0.3033
  351MOL0     H47334  12.271   0.441   2.415  0.8875 -3.1695  0.4849
  351MOL0     H47335  12.211   0.326   2.298 -0.8483  0.4326  0.8135
  351MOL0     H47336  12.377   0.179   2.236 -2.2717  1.0890  2.3648
  351MOL0     H47337  12.786   0.213   2.202 -0.9567  3.2676  1.4066
  351MOL0     H47338  12.659   0.076   2.204 -0.3754 -0.2787  0.3820
  351MOL0     H47339  12.582   0.155   1.977  0.5507  3.5905 -4.0971
  351MOL0     H47340  12.694   0.285   1.986 -2.7562 -0.8241 -3.4526
  351MOL0     H47341  12.765   0.076   1.839 -2.6164 -1.5864  0.9349
  351MOL0     H47342  12.769  -0.010   1.989 -3.6107 -0.2672  0.1303
  351MOL0     H47343  12.946   0.161   2.069 -1.3157  1.8171 -0.8369
  351MOL0     H47344  12.962   0.207   1.896  2.0672 -2.2033 -1.4696
  351MOL0     H47345  13.120  -0.186   1.885 -1.9116  1.1388  1.4769
  351MOL0     H47346  13.373  -0.221   1.873  0.8351  0.1268  0.8401
  351MOL0     H47347  13.811   0.063   1.782 -1.4530  0.1212  3.7659
  351MOL0     H47348  14.037   0.036   1.745  0.6487 -0.4475  1.2011
  351MOL0     H47349  14.273  -0.037   1.720  2.5431 -0.6425 -0.2259
  351MOL0     H47350  14.259  -0.077   1.888  3.6897 -0.7686  1.8855
  351MOL0     H47351  14.475  -0.108   1.862  1.0678  1.5974 -1.4508
  351MOL0     H47352  14.392  -0.269   1.862 -0.7345 -2.6391 -3.2892
  351MOL0     H47353  14.563  -0.276   1.678 -1.4602 -1.9619  1.9354
  351MOL0     H47354  14.401  -0.298   1.626  1.2715 -1.0603  0.0886
  351MOL0     H47355  14.536  -0.031   1.610  2.3615 -2.8330  1.8843
  351MOL0     H47356  14.390  -0.078   1.523  0.3508  0.4502 -1.6226
  351MOL0     H47357  14.556  -0.246   1.403  2.5032 -1.6703  1.1138
  351MOL0     H47358  14.682  -0.166   1.500  0.0215  0.0956 -0.0958
  351MOL0     H47359  14.509   0.004   1.310  0.0313  1.2437  0.1502
  351MOL0     H47360  14.647   0.047   1.407 -0.9198  1.2510 -1.5896
  351MOL0     H47361  14.602  -0.150   1.176 -0.8879  0.3287  0.1582
  351MOL0     H47362  14.760  -0.151   1.248 -0.8279 -0.4309 -2.3271
  351MOL0     H47363  14.770  -0.012   1.055 -0.6637  0.6894  0.6321
  351MOL0     H47364  14.629   0.075   1.096  0.4441 -1.6228 -2.2190
  351MOL0     H47365  14.008  -0.381   1.867 -1.4393  0.4376  0.4730
  351MOL0     H47366  13.779  -0.346   1.898 -0.2103  0.1701  0.0375
  351MOL0     H47367  13.424   0.202   1.990  2.9339  0.6746 -3.8912
  351MOL0     H47368  13.192   0.212   2.008  3.9825  1.9298  2.4301
  351MOL0     H47369  11.335   0.636   2.529 -1.3645  2.9959  2.3897
  351MOL0     H47370  11.124   0.679   2.647 -0.6235 -1.6609 -0.8294
  351MOL0     H47371  10.728   0.706   2.747 -1.7806 -1.3919  1.5849
  351MOL0     H47372  10.538   0.743   2.878 -1.4279 -0.8366 -0.3934
  351MOL0     H47373  10.210   0.882   2.618  1.8877  1.9308  0.2884
  351MOL0     H47374  10.135   0.962   2.759  0.6030  1.5173 -0.8784
  351MOL0     H47375  10.183   0.677   2.703  1.3424  0.3884  1.1065
  351MOL0     H47376  10.025   0.768   2.675 -1.0336  0.7837  1.7317
  351MOL0     H47377  10.038   0.781   2.934 -0.3139  1.0879 -1.2081
  351MOL0     H47378  10.184   0.689   2.936  0.6257 -1.5007 -1.1527
  351MOL0     H47379   9.915   0.591   2.843 -0.2067  2.0602  2.4210
  351MOL0     H47380  10.060   0.483   2.851 -1.1497  0.2557 -3.9633
  351MOL0     H47381   9.894   0.471   3.241  0.2015  0.9663  0.6198
  351MOL0     H47382  10.373   0.991   2.570  0.1273  0.6064 -0.0849
  351MOL0     H47383  10.509   1.099   2.442 -0.9257 -0.3718 -0.5839
  351MOL0     H47384  10.677   1.056   2.408 -0.6837  0.0982 -0.7819
  351MOL0     H47385  10.549   0.969   2.321 -0.1111  1.4844 -2.0223
  352MOL0     O47386   2.727   1.070   0.152 -0.0381 -0.5068 -0.7801
  352MOL0     C47387   2.746   1.187   0.170  0.2153  0.2776 -0.4192
  352MOL0     O47388   2.867   1.246   0.182  0.3596 -0.9581  0.2009
  352MOL0     C47389   2.986   1.176   0.164  0.8649 -0.4656 -0.0099
  352MOL0     C47390   3.074   1.234   0.071 -0.9154  0.1299  0.4601
  352MOL0     C47391   3.197   1.168   0.033 -0.4396  0.0213  0.0248
  352MOL0     C47392   3.238   1.059   0.107 -0.3255 -0.3409  0.0962
  352MOL0     O47393   3.353   0.996   0.086  0.1937  0.4398  0.5186
  352MOL0     C47394   3.440   1.011  -0.024  0.1793 -0.1306  0.4580
  352MOL0     C47395   3.534   0.894  -0.034 -0.7577 -0.6746 -0.1911
  352MOL0     C47396   3.641   0.925  -0.140 -0.1255  0.3453  0.4661
  352MOL0     C47397   3.774   0.855  -0.112  0.2760  0.2964  0.9869
  352MOL0     C47398   3.872   0.880  -0.227  0.2879  0.6362 -0.1764
  352MOL0     C47399   3.978   0.774  -0.220  0.2820  0.7560  0.4938
  352MOL0     C47400   4.085   0.818  -0.324 -0.1625  0.0940 -0.4103
  352MOL0     C47401   4.194   0.716  -0.357 -0.0712  0.0272 -0.1159
  352MOL0     N47402   4.276   0.687  -0.238 -0.1757  0.0675 -0.3252
  352MOL0     C47403   4.293   0.559  -0.199  0.3438 -0.2513  0.2839
  352MOL0     C47404   4.380   0.563  -0.097 -0.1987  0.4986 -0.1828
  352MOL0     C47405   4.442   0.440  -0.033  0.3718  0.1194  0.5032
  352MOL0     C47406   4.570   0.395  -0.103  0.0917  0.0081 -0.0481
  352MOL0     C47407   4.626   0.269  -0.028  0.1585  0.4593  1.4608
  352MOL0     C47408   4.762   0.233  -0.088  0.9046 -0.8652  0.3321
  352MOL0     O47409   4.855   0.345  -0.087  0.0647  0.4851  0.3725
  352MOL0     C47410   4.987   0.308  -0.091 -0.2406  0.1947 -0.3611
  352MOL0     C47411   5.063   0.300   0.025 -0.0299  0.5175 -1.0517
  352MOL0     C47412   5.200   0.255   0.025 -0.3910 -0.6583  0.2748
  352MOL0     C47413   5.264   0.224  -0.099  0.2723 -0.2767 -0.3747
  352MOL0     C47414   5.399   0.166  -0.097  0.2830 -0.3048 -0.5292
  352MOL0     O47415   5.491   0.206   0.008 -0.4346 -0.0704  0.4562
  352MOL0     C47416   5.630   0.187  -0.017 -0.8481  0.1301 -0.2470
  352MOL0     C47417   5.710   0.283  -0.094  0.0784 -0.6887  0.0545
  352MOL0     C47418   5.840   0.274  -0.120 -0.5319  1.1028 -0.6217
  352MOL0     C47419   5.908   0.158  -0.078 -0.9507  0.2899  0.2147
  352MOL0     O47420   6.040   0.132  -0.100 -0.1782  0.1861 -0.1491
  352MOL0     C47421   6.123   0.208  -0.184  0.0740  0.5854  0.4057
  352MOL0     C47422   6.245   0.119  -0.237 -0.1544  0.0940 -0.3080
  352MOL0     C47423   6.340   0.082  -0.114  0.4075 -0.3393 -0.0905
  352MOL0     C47424   6.478   0.039  -0.160  0.2791 -0.5470 -0.1012
  352MOL0     C47425   6.568   0.164  -0.170 -0.7417 -0.0634  0.1125
  352MOL0     C47426   6.702   0.104  -0.206 -0.7050 -0.6087  0.0548
  352MOL0     C47427   6.791   0.226  -0.248  0.7723  0.6525  0.3813
  352MOL0     C47428   6.850   0.292  -0.125 -0.1938  0.0055 -0.5200
  352MOL0    Cl47429   6.958   0.426  -0.183  0.1028 -0.0123 -0.0567
  352MOL0     C47430   5.839   0.053  -0.004 -0.5979  0.1436  0.7522
  352MOL0     C47431   5.701   0.074   0.021 -0.2214 -1.1753 -1.0856
  352MOL0     O47432   5.431   0.094  -0.193 -0.4792  0.0108 -0.3901
  352MOL0     C47433   5.182   0.238  -0.217 -0.8801 -0.3378 -0.5526
  352MOL0     C47434   5.053   0.276  -0.213 -0.1753 -1.2796  1.2960
  352MOL0     N47435   4.409   0.688  -0.064  0.2004 -0.1818 -0.3295
  352MOL0     N47436   4.330   0.767  -0.133 -0.2565  0.1008  0.8513
  352MOL0     C47437   3.149   1.001   0.195  0.0240 -0.4218 -0.5711
  352MOL0     C47438   3.018   1.058   0.222 -0.1923  0.4690  0.6479
  352MOL0     C47439   2.638   1.288   0.190  0.4478  0.1953  0.2266
  352MOL0     C47440   2.515   1.241   0.243  0.4717  0.3265  0.2217
  352MOL0     C47441   2.402   1.326   0.255  1.0243  0.0165  0.2262
  352MOL0     C47442   2.415   1.467   0.231  0.4573 -0.1925 -1.0512
  352MOL0     O47443   2.313   1.557   0.244  0.2176  0.0563  0.5340
  352MOL0     C47444   2.194   1.519   0.169 -0.5616 -0.8891  0.2729
  352MOL0     C47445   2.207   1.546   0.022  0.4241  0.1467 -0.6359
  352MOL0     C47446   2.211   1.693  -0.029 -0.1438  1.0903 -0.3838
  352MOL0     C47447   2.254   1.720  -0.171  0.1151 -1.0024 -0.1721
  352MOL0     C47448   2.386   1.672  -0.214 -0.1660 -1.1351 -0.6130
  352MOL0     C47449   2.499   1.638  -0.241 -0.2841  0.4864 -0.0409
  352MOL0     C47450   2.539   1.512   0.191 -0.5217 -0.4601 -0.0416
  352MOL0     C47451   2.650   1.426   0.163 -0.1023 -0.4222  0.3236
  352MOL0     C47452   2.774   1.488   0.089  0.5805 -0.2032 -0.2360
  352MOL0     H47453   3.048   1.331   0.032 -1.0139 -0.2080 -0.3395
  352MOL0     H47454   3.268   1.228  -0.023 -0.7628 -1.1183 -1.6732
  352MOL0     H47455   3.376   1.021  -0.112  0.3079  1.3391  0.5157
  352MOL0     H47456   3.497   1.100   0.005  1.0467 -0.8435  0.9964
  352MOL0     H47457   3.479   0.801  -0.049  0.3322 -1.5437  0.9784
  352MOL0     H47458   3.586   0.880   0.061 -1.7627  1.3267  0.7161
  352MOL0     H47459   3.663   1.032  -0.149  1.7518 -0.1520 -2.2197
  352MOL0     H47460   3.607   0.891  -0.238  2.2407 -0.7941 -0.0251
  352MOL0     H47461   3.823   0.878  -0.017  1.1628  1.2910  0.3036
  352MOL0     H47462   3.746   0.749  -0.110 -0.5673  0.5065  0.9899
  352MOL0     H47463   3.819   0.863  -0.321 -1.4314  2.1062  0.4758
  352MOL0     H47464   3.907   0.983  -0.224 -2.0352  1.4552  2.5141
  352MOL0     H47465   4.018   0.774  -0.119  0.3286 -1.3402  0.5175
  352MOL0     H47466   3.934   0.674  -0.228 -1.4831  1.3638  1.9013
  352MOL0     H47467   4.125   0.912  -0.285 -1.6377  1.2476 -1.5371
  352MOL0     H47468   4.050   0.830  -0.427  1.7594 -2.5358 -1.4790
  352MOL0     H47469   4.147   0.626  -0.399 -0.7902  0.8954 -1.2362
  352MOL0     H47470   4.256   0.771  -0.427  1.3987  0.0410  1.1564
  352MOL0     H47471   4.250   0.470  -0.243 -2.5713  0.5439  1.3337
  352MOL0     H47472   4.463   0.471   0.070 -2.6987 -2.4478  2.0656
  352MOL0     H47473   4.360   0.367  -0.030 -0.3062  0.8783  0.7618
  352MOL0     H47474   4.555   0.368  -0.207  0.1680 -0.3019  0.0181
  352MOL0     H47475   4.638   0.480  -0.093 -0.6981  0.8218 -1.4956
  352MOL0     H47476   4.557   0.184  -0.032 -0.5574  1.0770  0.0984
  352MOL0     H47477   4.635   0.291   0.079  2.1324 -2.2180  1.9589
  352MOL0     H47478   4.744   0.208  -0.193  0.5650  1.1242 -0.1153
  352MOL0     H47479   4.801   0.136  -0.055  2.6891 -1.2735 -2.6516
  352MOL0     H47480   5.010   0.313   0.118 -2.3946 -0.4385 -2.1936
  352MOL0     H47481   5.244   0.245   0.124 -0.6415  1.3411  0.6183
  352MOL0     H47482   5.667   0.377  -0.128  2.5852  0.8362  0.7848
  352MOL0     H47483   5.880   0.357  -0.178 -0.8464  2.2925  0.7969
  352MOL0     H47484   6.063   0.242  -0.269  2.2197 -0.4860 -1.6248
  352MOL0     H47485   6.162   0.291  -0.125  1.8580  0.9141 -1.1547
  352MOL0     H47486   6.228   0.026  -0.293  3.5023 -0.3389 -0.9115
  352MOL0     H47487   6.307   0.176  -0.307 -0.9216 -1.4169 -2.3472
  352MOL0     H47488   6.346   0.162  -0.040 -4.3227  0.3281 -0.1465
  352MOL0     H47489   6.295  -0.004  -0.064  2.2196 -1.1168  0.2948
  352MOL0     H47490   6.478  -0.012  -0.257 -0.9252 -1.0694  0.1595
  352MOL0     H47491   6.520  -0.036  -0.092 -0.9298 -0.2917  0.9486
  352MOL0     H47492   6.571   0.205  -0.068 -3.5333  2.1354 -0.5376
  352MOL0     H47493   6.524   0.231  -0.245  1.4077  0.1740 -1.0129
  352MOL0     H47494   6.752   0.056  -0.121  0.6816  1.7263  0.6367
  352MOL0     H47495   6.696   0.033  -0.289 -1.0028 -0.1901 -0.2874
  352MOL0     H47496   6.728   0.294  -0.305 -0.8618 -0.2085  1.1147
  352MOL0     H47497   6.876   0.197  -0.311 -1.3862 -2.7412 -1.2855
  352MOL0     H47498   6.769   0.330  -0.062  0.4403  0.0188  0.3028
  352MOL0     H47499   6.908   0.221  -0.066 -2.3205 -0.0625  1.6461
  352MOL0     H47500   5.888  -0.042   0.014  0.7620  0.4864 -0.8544
  352MOL0     H47501   5.640   0.000   0.072 -0.2594 -1.0817 -0.9954
  352MOL0     H47502   5.229   0.201  -0.308  0.8356  2.0122 -0.7219
  352MOL0     H47503   5.003   0.283  -0.309 -1.7750 -1.2548  2.1025
  352MOL0     H47504   3.171   0.910   0.251 -1.9220  0.7055  2.2624
  352MOL0     H47505   2.938   1.020   0.285  0.1173 -0.3441  0.5694
  352MOL0     H47506   2.506   1.133   0.253 -5.3235  0.3447 -1.2221
  352MOL0     H47507   2.305   1.294   0.292  0.0730 -0.0890 -2.1699
  352MOL0     H47508   2.107   1.575   0.204  0.2166  0.3229  0.3147
  352MOL0     H47509   2.153   1.419   0.188 -3.2104  0.6037  3.2407
  352MOL0     H47510   2.128   1.496  -0.035  1.1177 -2.2241  0.3710
  352MOL0     H47511   2.296   1.491  -0.009 -1.0924 -4.2209  1.8541
  352MOL0     H47512   2.270   1.750   0.043 -1.3524  3.9406 -1.5169
  352MOL0     H47513   2.106   1.716  -0.009  0.1128  0.8426  1.3777
  352MOL0     H47514   2.183   1.690  -0.249 -0.1794  1.8928 -1.1296
  352MOL0     H47515   2.266   1.828  -0.172  0.7417 -1.0417  1.1453
  352MOL0     H47516   2.599   1.600  -0.256  0.1028  1.5706 -0.2953
  352MOL0     H47517   2.541   1.621   0.184 -2.2355 -0.3294  0.9483
  352MOL0     H47518   2.850   1.493   0.167  2.1401  3.5206 -1.7530
  352MOL0     H47519   2.808   1.421   0.009  0.1833  0.9701 -1.4399
  352MOL0     H47520   2.750   1.588   0.051 -1.0588  0.0559  1.3398
  353MOL0     O47521   2.378   8.115   2.182  0.3928  1.1743 -0.8868
  353MOL0     C47522   2.327   8.206   2.245  0.1110  0.3069 -0.8179
  353MOL0     O47523   2.376   8.256   2.361  0.3507  0.7217  0.0425
  353MOL0     C47524   2.515   8.243   2.378  0.6956 -0.4547  0.0675
  353MOL0     C47525   2.587   8.343   2.318  0.2389  0.3173  0.5796
  353MOL0     C47526   2.723   8.348   2.332  0.8642 -0.0938  0.1832
  353MOL0     C47527   2.791   8.258   2.415  0.0422 -0.4297  0.1002
  353MOL0     O47528   2.922   8.266   2.436 -0.4936 -0.4240 -0.4794
  353MOL0     C47529   3.003   8.314   2.333 -0.6690  0.0106  0.8626
  353MOL0     C47530   3.145   8.298   2.379  0.8926 -0.0282 -0.4604
  353MOL0     C47531   3.178   8.146   2.384  0.1115  0.1940 -0.5586
  353MOL0     C47532   3.330   8.125   2.391  0.5492  0.3304 -0.5298
  353MOL0     C47533   3.387   7.984   2.422 -0.6437 -1.6276  0.6907
  353MOL0     C47534   3.541   8.003   2.418  0.2560  0.8158 -0.4338
  353MOL0     C47535   3.602   7.865   2.456 -0.4379 -0.3239 -0.3165
  353MOL0     C47536   3.753   7.879   2.473 -0.0347 -0.1118 -0.3377
  353MOL0     N47537   3.827   7.887   2.346 -0.4669 -0.3894 -0.9910
  353MOL0     C47538   3.876   7.779   2.276  0.5810  0.4993 -0.3575
  353MOL0     C47539   3.964   7.827   2.186  0.3182  0.0911  0.0833
  353MOL0     C47540   4.046   7.740   2.102  0.3818  0.1744  0.7566
  353MOL0     C47541   4.167   7.684   2.181  0.2273 -0.7128 -0.5047
  353MOL0     C47542   4.270   7.799   2.205  1.0706 -0.6133  1.0954
  353MOL0     C47543   4.399   7.746   2.254 -0.2546  0.6080  0.4455
  353MOL0     O47544   4.494   7.856   2.245 -0.1342  0.4324  0.4978
  353MOL0     C47545   4.617   7.817   2.291 -0.3089  0.5724 -0.7594
  353MOL0     C47546   4.673   7.687   2.295  0.0469 -0.1437  0.7109
  353MOL0     C47547   4.796   7.673   2.354 -0.0525 -0.5656 -0.0288
  353MOL0     C47548   4.872   7.781   2.403 -0.7215 -1.1972 -0.3971
  353MOL0     C47549   5.011   7.756   2.454 -0.0405  0.4811  0.5277
  353MOL0     O47550   5.069   7.845   2.537 -0.1110  0.3539  0.2394
  353MOL0     C47551   5.204   7.837   2.577  0.6627  0.2853 -0.0992
  353MOL0     C47552   5.235   7.875   2.704 -0.7115 -0.4263 -0.4839
  353MOL0     C47553   5.368   7.893   2.737 -0.9398 -0.5790  0.1826
  353MOL0     C47554   5.480   7.855   2.652  0.4410 -0.1363 -0.7040
  353MOL0     O47555   5.606   7.884   2.685 -0.0521 -0.6788 -0.0690
  353MOL0     C47556   5.658   7.811   2.790 -0.0382  0.4106 -0.2218
  353MOL0     C47557   5.708   7.900   2.900 -0.3477 -0.4134  0.3880
  353MOL0     C47558   5.805   7.828   2.993 -1.0698 -0.0751 -0.0101
  353MOL0     C47559   5.737   7.740   3.092 -1.2692  0.8251 -0.4517
  353MOL0     C47560   5.832   7.640   3.176  1.0218  0.1243  0.2599
  353MOL0     C47561   5.878   7.528   3.083  0.5489  0.6898  0.6585
  353MOL0     C47562   5.955   7.438   3.166  0.4031  0.0233 -0.1890
  353MOL0     C47563   6.033   7.338   3.078  0.0674 -0.3462 -0.4469
  353MOL0    Cl47564   6.099   7.206   3.169 -0.0055  0.1166 -0.1483
  353MOL0     C47565   5.443   7.796   2.526 -0.7624 -0.2400 -0.6494
  353MOL0     C47566   5.305   7.801   2.487 -0.5919 -0.4619 -0.1377
  353MOL0     O47567   5.062   7.650   2.409  0.0842 -0.1046 -0.8358
  353MOL0     C47568   4.822   7.905   2.393 -0.2324 -0.6865  0.0554
  353MOL0     C47569   4.695   7.927   2.339  0.2130 -0.5114 -1.1284
  353MOL0     N47570   3.973   7.963   2.202  0.9244  0.0011 -0.2374
  353MOL0     N47571   3.892   8.001   2.296 -0.2982  0.7614 -0.4049
  353MOL0     C47572   2.714   8.152   2.472 -0.3975 -0.5228 -1.0364
  353MOL0     C47573   2.578   8.151   2.463 -0.1183 -0.5165 -0.0836
  353MOL0     C47574   2.191   8.239   2.197  0.9432 -0.1002 -0.1741
  353MOL0     C47575   2.114   8.130   2.144  0.8042 -0.1068 -0.7679
  353MOL0     C47576   1.979   8.144   2.109 -0.8246  0.0838 -0.4463
  353MOL0     C47577   1.915   8.267   2.116  0.0778 -0.2334 -0.4193
  353MOL0     O47578   1.782   8.285   2.086  0.0809  0.0010  0.2808
  353MOL0     C47579   1.720   8.193   1.990 -0.1759  0.1505  0.3368
  353MOL0     C47580   1.605   8.251   1.912  0.5265  0.8535  0.2868
  353MOL0     C47581   1.480   8.295   1.988 -0.1856 -0.2212  0.8083
  353MOL0     C47582   1.449   8.445   2.007  0.4649 -0.5939  0.3145
  353MOL0     C47583   1.308   8.472   2.018  0.3574 -0.1579  0.1029
  353MOL0     C47584   1.185   8.475   2.017  0.3125 -0.2453  0.1555
  353MOL0     C47585   1.993   8.376   2.154 -0.0019  0.4590 -0.4286
  353MOL0     C47586   2.121   8.363   2.202 -0.2320 -0.1442  0.4575
  353MOL0     C47587   2.188   8.486   2.268  0.6596  0.1201 -0.3490
  353MOL0     H47588   2.528   8.398   2.245  2.8110  0.1359 -1.8222
  353MOL0     H47589   2.780   8.421   2.276  0.7590 -0.7575 -0.8156
  353MOL0     H47590   2.999   8.247   2.247  0.6726 -1.7503  2.0937
  353MOL0     H47591   2.981   8.418   2.309  0.9588  0.1364 -0.1548
  353MOL0     H47592   3.149   8.338   2.481 -0.9398  0.5536 -0.5826
  353MOL0     H47593   3.210   8.360   2.316  1.3859  1.0846  1.0908
  353MOL0     H47594   3.136   8.094   2.297 -1.2536  1.1207 -0.5014
  353MOL0     H47595   3.130   8.101   2.471 -0.7139  0.3753 -0.9121
  353MOL0     H47596   3.368   8.155   2.292 -1.3042  3.3511 -0.4442
  353MOL0     H47597   3.365   8.200   2.462  3.0262 -0.2896 -0.9882
  353MOL0     H47598   3.352   7.964   2.523 -0.4729  1.4210  1.4476
  353MOL0     H47599   3.360   7.905   2.351  2.0694 -1.5857 -0.5353
  353MOL0     H47600   3.575   8.037   2.319  0.5134  0.1735 -0.5732
  353MOL0     H47601   3.569   8.072   2.497  0.0392  0.3922  0.0157
  353MOL0     H47602   3.580   7.792   2.378 -1.1908  0.7669 -1.1540
  353MOL0     H47603   3.565   7.835   2.555  2.0042 -0.8364  0.5171
  353MOL0     H47604   3.770   7.968   2.534 -1.3159  2.4164 -3.4003
  353MOL0     H47605   3.776   7.786   2.525 -1.1607 -0.5306 -0.5637
  353MOL0     H47606   3.856   7.673   2.291  1.7989  0.2956 -0.0270
  353MOL0     H47607   3.977   7.664   2.066  1.0404 -1.1692  2.2443
  353MOL0     H47608   4.080   7.793   2.012  0.6513 -1.6242 -0.2512
  353MOL0     H47609   4.130   7.644   2.276 -1.9255 -0.4759 -1.1913
  353MOL0     H47610   4.218   7.605   2.125 -0.4902 -1.0017 -0.7735
  353MOL0     H47611   4.219   7.855   2.285  2.6347  2.0814  0.3572
  353MOL0     H47612   4.287   7.857   2.114 -1.2162 -1.1775  0.2390
  353MOL0     H47613   4.430   7.663   2.190  1.9092  1.9240 -0.3209
  353MOL0     H47614   4.375   7.706   2.353 -2.9240  1.4250  0.1984
  353MOL0     H47615   4.618   7.598   2.267 -1.5493  0.3757  1.9533
  353MOL0     H47616   4.837   7.573   2.362 -0.3527 -0.6362  0.6446
  353MOL0     H47617   5.158   7.909   2.774 -0.3714 -1.2490  0.3117
  353MOL0     H47618   5.393   7.930   2.836 -1.2935 -1.6079  0.6622
  353MOL0     H47619   5.583   7.744   2.832 -0.5525  0.8627 -0.4052
  353MOL0     H47620   5.742   7.751   2.751  0.2052  0.9714 -0.5734
  353MOL0     H47621   5.759   7.987   2.857  0.9835 -1.1775  0.3431
  353MOL0     H47622   5.627   7.942   2.959 -2.2108  0.2034 -2.4265
  353MOL0     H47623   5.870   7.776   2.922 -2.3848  0.1693 -1.4479
  353MOL0     H47624   5.873   7.902   3.036 -1.0987  0.4909 -0.9203
  353MOL0     H47625   5.654   7.689   3.043  1.8646 -2.2040 -3.1695
  353MOL0     H47626   5.696   7.807   3.168  0.7414  1.8538 -0.2089
  353MOL0     H47627   5.762   7.598   3.249 -4.6558  4.7322 -1.6790
  353MOL0     H47628   5.917   7.697   3.214  1.1870  1.0825 -1.4127
  353MOL0     H47629   5.790   7.478   3.042  1.0981 -0.4273  0.7887
  353MOL0     H47630   5.936   7.565   2.997 -0.6570 -0.0281 -0.5018
  353MOL0     H47631   5.886   7.382   3.229 -1.5379  1.1091 -1.2345
  353MOL0     H47632   6.025   7.492   3.230  0.0326  1.5822 -1.0334
  353MOL0     H47633   5.964   7.296   3.004 -1.2861 -2.1061  1.7164
  353MOL0     H47634   6.119   7.385   3.029 -0.5204  1.5688  0.2680
  353MOL0     H47635   5.522   7.768   2.457 -0.3167 -0.5418 -0.0255
  353MOL0     H47636   5.281   7.779   2.383  2.2521 -0.3225 -0.9130
  353MOL0     H47637   4.887   7.989   2.413  0.5581 -1.8740  2.9707
  353MOL0     H47638   4.655   8.028   2.327 -0.0972 -0.2522  1.5003
  353MOL0     H47639   2.762   8.086   2.544 -1.6595 -0.5938 -0.2175
  353MOL0     H47640   2.518   8.090   2.529  0.9368  0.7580  2.1450
  353MOL0     H47641   2.172   8.039   2.136  0.4734 -0.3872 -0.0722
  353MOL0     H47642   1.932   8.051   2.079  1.9169 -1.2548 -0.9076
  353MOL0     H47643   1.696   8.098   2.039  0.1670 -1.0988 -1.7939
  353MOL0     H47644   1.798   8.159   1.922  0.2187 -0.3467  1.0307
  353MOL0     H47645   1.570   8.169   1.848  1.9444 -0.4467  1.1156
  353MOL0     H47646   1.636   8.333   1.846  0.1745 -0.7550 -2.0130
  353MOL0     H47647   1.470   8.245   2.085 -0.6352 -2.6953 -0.4240
  353MOL0     H47648   1.400   8.239   1.939  0.9412 -2.1158  1.0315
  353MOL0     H47649   1.485   8.496   2.096  2.3170  1.2123 -1.3816
  353MOL0     H47650   1.487   8.506   1.925  0.8597 -1.4654 -0.1626
  353MOL0     H47651   1.078   8.486   2.016  0.4405  1.3721 -0.9847
  353MOL0     H47652   1.938   8.470   2.155 -1.9962 -0.6368  1.2586
  353MOL0     H47653   2.268   8.523   2.203  1.1400  0.6706  0.5356
  353MOL0     H47654   2.111   8.562   2.279  1.8812  1.3875 -0.3399
  353MOL0     H47655   2.225   8.459   2.368 -2.0064 -0.1224  0.6563
  354MOL0     O47656   3.502   7.910   9.591 -0.6364  0.8402 -0.4272
  354MOL0     C47657   3.392   7.876   9.556  0.0658  0.2239  0.0136
  354MOL0     O47658   3.367   7.783   9.456  0.2608  0.0458 -0.2310
  354MOL0     C47659   3.480   7.718   9.412  0.0857 -0.8136  0.4473
  354MOL0     C47660   3.560   7.641   9.491 -0.0989 -0.1568  0.4392
  354MOL0     C47661   3.670   7.577   9.436 -0.5830  0.5444  0.1584
  354MOL0     C47662   3.688   7.582   9.301 -0.5871  0.8819 -0.0581
  354MOL0     O47663   3.799   7.521   9.244 -0.0073 -0.1166  0.0996
  354MOL0     C47664   3.784   7.416   9.146 -0.0879 -0.9484  0.4390
  354MOL0     C47665   3.915   7.342   9.144  0.0804 -0.2674  0.1658
  354MOL0     C47666   3.949   7.283   9.287  0.6216 -0.6965  0.2786
  354MOL0     C47667   4.069   7.186   9.283  0.1746 -0.5434 -0.2434
  354MOL0     C47668   4.066   7.118   9.427 -0.1943  0.5836 -0.0195
  354MOL0     C47669   4.197   7.027   9.452  0.4762 -0.0298 -0.8094
  354MOL0     C47670   4.322   7.098   9.475 -0.9051  0.0287  0.4045
  354MOL0     C47671   4.386   7.088   9.614  0.4981  0.4908  0.0316
  354MOL0     N47672   4.520   7.147   9.603 -0.5661  0.0701 -0.4100
  354MOL0     C47673   4.639   7.088   9.570  0.6781 -0.3035 -0.0428
  354MOL0     C47674   4.731   7.188   9.557  0.7786 -0.6584 -0.4638
  354MOL0     C47675   4.870   7.182   9.520 -0.4919  0.4581  0.3485
  354MOL0     C47676   4.956   7.211   9.652  0.4518 -0.0351  0.5343
  354MOL0     C47677   4.948   7.371   9.687 -0.5444  0.9890 -0.1610
  354MOL0     C47678   5.047   7.412   9.787  0.2968 -0.1055 -0.0244
  354MOL0     O47679   5.179   7.384   9.744  0.5718 -0.2668 -0.5965
  354MOL0     C47680   5.290   7.410   9.824 -0.3735  0.6614 -0.0906
  354MOL0     C47681   5.294   7.483   9.940 -0.2936  0.0626  0.1456
  354MOL0     C47682   5.411   7.502  10.005 -0.5830  0.2702 -0.1506
  354MOL0     C47683   5.538   7.443   9.965  0.7831 -0.8763  0.0689
  354MOL0     C47684   5.671   7.457  10.035  0.3033  0.4548 -0.4593
  354MOL0     O47685   5.781   7.393   9.979  0.0569 -0.2197  0.2622
  354MOL0     C47686   5.912   7.408  10.012 -0.8266  0.2384 -0.9253
  354MOL0     C47687   5.962   7.533  10.045 -0.2146  0.9705  0.1331
  354MOL0     C47688   6.100   7.545  10.067 -0.2317 -0.2013  0.1566
  354MOL0     C47689   6.189   7.435  10.073 -0.1040 -0.0296  0.0353
  354MOL0     O47690   6.326   7.446  10.103  0.7252 -0.4022 -0.0794
  354MOL0     C47691   6.372   7.558  10.179  0.2251  0.2717  0.0972
  354MOL0     C47692   6.522   7.540  10.192 -0.2882  0.0811  0.5828
  354MOL0     C47693   6.593   7.658  10.268 -0.1365 -0.2471 -0.3104
  354MOL0     C47694   6.545   7.669  10.417 -0.2743 -0.3942 -0.4169
  354MOL0     C47695   6.606   7.777  10.490  0.4807 -0.0012  0.9525
  354MOL0     C47696   6.539   7.903  10.439  0.9969 -0.0275  0.1209
  354MOL0     C47697   6.524   8.026  10.527 -0.3433 -0.4428  0.0757
  354MOL0     C47698   6.663   8.083  10.565 -0.6095  0.0119 -0.0146
  354MOL0    Cl47699   6.775   8.077  10.421  0.3794 -0.4046  0.1791
  354MOL0     C47700   6.140   7.311  10.044  0.1013 -0.3463  0.6413
  354MOL0     C47701   6.003   7.300  10.010 -0.5269 -0.0606 -0.1321
  354MOL0     O47702   5.680   7.536  10.129  0.0366  0.0676 -0.8742
  354MOL0     C47703   5.532   7.379   9.846 -0.4732 -0.4365 -0.6411
  354MOL0     C47704   5.415   7.353   9.773  0.0232  0.5396 -0.3981
  354MOL0     N47705   4.662   7.310   9.569  0.3596 -0.3255  0.4181
  354MOL0     N47706   4.547   7.283   9.613  0.2114  0.2217 -0.0882
  354MOL0     C47707   3.608   7.655   9.212  0.0503 -0.7243 -0.0515
  354MOL0     C47708   3.502   7.726   9.271 -0.3471 -0.2613  0.4462
  354MOL0     C47709   3.276   7.954   9.609  0.3146  0.4334  0.4804
  354MOL0     C47710   3.289   8.013   9.739 -0.3582  0.0821  0.1643
  354MOL0     C47711   3.178   8.081   9.798 -0.3404 -0.2348  0.1242
  354MOL0     C47712   3.063   8.081   9.742 -0.4187  0.6005 -0.1398
  354MOL0     O47713   2.958   8.135   9.825  0.1426  0.1972 -0.1527
  354MOL0     C47714   2.845   8.157   9.754 -0.1640  0.2227  0.4396
  354MOL0     C47715   2.726   8.231   9.817 -0.2214 -0.4288  0.3876
  354MOL0     C47716   2.696   8.186   9.960  0.4357 -0.0767 -0.5639
  354MOL0     C47717   2.639   8.044   9.994  0.3345 -0.3495  0.5620
  354MOL0     C47718   2.494   8.047   9.952  0.0509 -0.7638 -0.1934
  354MOL0     C47719   2.369   8.048   9.922 -0.6381  0.4406 -0.8383
  354MOL0     C47720   3.052   8.032   9.613  0.4649 -0.6506  0.2689
  354MOL0     C47721   3.153   7.973   9.542 -0.4828 -0.0333  0.1181
  354MOL0     C47722   3.136   7.936   9.393  0.1067 -0.5832 -1.1330
  354MOL0     H47723   3.531   7.639   9.596  0.6365  0.3593  0.6670
  354MOL0     H47724   3.746   7.527   9.494  2.1400  3.0590 -0.9822
  354MOL0     H47725   3.703   7.349   9.174 -3.3541  3.3306  2.3921
  354MOL0     H47726   3.771   7.452   9.043  0.6186 -0.8683  0.3712
  354MOL0     H47727   3.996   7.402   9.101  1.3642 -4.0529 -3.3378
  354MOL0     H47728   3.894   7.265   9.069 -1.1779 -1.5905  1.7886
  354MOL0     H47729   3.864   7.224   9.324  0.0064  1.1040  1.9141
  354MOL0     H47730   3.953   7.368   9.355 -1.0373  0.1842 -0.6399
  354MOL0     H47731   4.059   7.107   9.208 -2.9510 -1.9177  1.4268
  354MOL0     H47732   4.165   7.237   9.271  0.8262 -1.0083  2.3429
  354MOL0     H47733   4.075   7.197   9.502 -0.4667 -0.6664  1.3707
  354MOL0     H47734   3.970   7.068   9.441  0.9043 -1.5439  0.2519
  354MOL0     H47735   4.177   6.972   9.545  1.6639  0.3275 -0.3208
  354MOL0     H47736   4.200   6.953   9.372  0.9530 -2.3229  1.2101
  354MOL0     H47737   4.313   7.204   9.449 -2.3434  0.0341  0.8540
  354MOL0     H47738   4.388   7.048   9.403 -0.2431 -1.4267  1.9503
  354MOL0     H47739   4.330   7.153   9.681  1.9677 -0.2655  2.1012
  354MOL0     H47740   4.396   6.987   9.656 -0.7409  0.2960 -0.1085
  354MOL0     H47741   4.656   6.981   9.577  0.6722 -0.2508  0.9119
  354MOL0     H47742   4.897   7.084   9.481 -3.3720  0.5241 -2.2075
  354MOL0     H47743   4.883   7.260   9.445 -1.3031  0.5524  0.2960
  354MOL0     H47744   4.914   7.158   9.737  0.2812 -0.2099  0.3426
  354MOL0     H47745   5.058   7.177   9.637 -0.1304 -1.3236 -0.7719
  354MOL0     H47746   4.848   7.387   9.727 -1.2700 -1.2627 -0.9239
  354MOL0     H47747   4.954   7.434   9.598 -0.1486  0.4035 -0.5516
  354MOL0     H47748   5.032   7.354   9.878 -0.9585  0.1563 -0.0518
  354MOL0     H47749   5.040   7.521   9.793  0.1949 -0.1562  0.8966
  354MOL0     H47750   5.206   7.513   9.998  0.3242 -0.4154  1.3675
  354MOL0     H47751   5.412   7.557  10.099 -0.4729  0.2224 -0.1233
  354MOL0     H47752   5.908   7.626  10.061  1.4475  1.8499  0.8176
  354MOL0     H47753   6.131   7.646  10.091  2.8062 -1.1601  0.7673
  354MOL0     H47754   6.350   7.655  10.135  0.6949  1.3401  2.0867
  354MOL0     H47755   6.330   7.555  10.280  1.7451  2.8984  0.9196
  354MOL0     H47756   6.548   7.446  10.242  1.9663  0.2614 -0.1049
  354MOL0     H47757   6.561   7.532  10.090 -2.5048  0.6014 -0.3628
  354MOL0     H47758   6.698   7.633  10.283  0.3615  1.9363  0.1947
  354MOL0     H47759   6.576   7.754  10.219 -1.7069  0.4353  1.4334
  354MOL0     H47760   6.571   7.576  10.468  3.3282 -0.1483 -1.5330
  354MOL0     H47761   6.436   7.667  10.425 -0.1551 -2.9352  2.2829
  354MOL0     H47762   6.714   7.791  10.478  0.0521  1.7192 -1.8161
  354MOL0     H47763   6.582   7.766  10.596 -0.1462  1.9583  1.0532
  354MOL0     H47764   6.587   7.943  10.349  2.8141  1.9371  1.8452
  354MOL0     H47765   6.442   7.880  10.393  1.0795 -0.0865 -0.0235
  354MOL0     H47766   6.463   8.005  10.615  0.8857  0.5369  1.2087
  354MOL0     H47767   6.472   8.097  10.462  0.2237  0.5379  0.6551
  354MOL0     H47768   6.657   8.187  10.599 -0.7330  1.0569 -2.9885
  354MOL0     H47769   6.710   8.018  10.639  1.1102  1.5534  0.3189
  354MOL0     H47770   6.203   7.223  10.035  0.6191  0.1585 -1.0713
  354MOL0     H47771   5.964   7.205   9.975 -2.3012  0.1584  1.1206
  354MOL0     H47772   5.617   7.339   9.792 -0.9516  0.0151 -1.7766
  354MOL0     H47773   5.412   7.291   9.684 -0.2726 -1.7920  1.1505
  354MOL0     H47774   3.614   7.652   9.104 -0.4721  0.3277 -0.1308
  354MOL0     H47775   3.438   7.793   9.214 -0.1083 -1.1673 -0.9193
  354MOL0     H47776   3.381   8.011   9.798 -0.5659 -1.4051  0.4677
  354MOL0     H47777   3.187   8.121   9.899  0.0630  0.1448 -0.0619
  354MOL0     H47778   2.811   8.059   9.720  0.7187  1.0443 -3.3805
  354MOL0     H47779   2.868   8.218   9.666  0.4103  1.2088  1.2476
  354MOL0     H47780   2.644   8.233   9.745 -0.7226 -1.1688  0.9239
  354MOL0     H47781   2.760   8.334   9.830 -2.4178  0.1153  2.6286
  354MOL0     H47782   2.619   8.256   9.995 -0.1607  1.1098 -3.8873
  354MOL0     H47783   2.789   8.198  10.016 -1.3847  2.8698  2.2064
  354MOL0     H47784   2.689   7.969   9.933 -1.9743 -1.2441 -0.3730
  354MOL0     H47785   2.651   8.026  10.101  0.0446 -0.9792  0.4960
  354MOL0     H47786   2.268   8.030   9.890 -0.0438 -3.2329 -1.1401
  354MOL0     H47787   2.956   8.050   9.566  1.6676  0.4224 -1.9456
  354MOL0     H47788   3.197   7.999   9.328  0.5595 -0.8070 -0.9236
  354MOL0     H47789   3.153   7.829   9.379  1.2975 -0.9836  2.3945
  354MOL0     H47790   3.030   7.952   9.367 -1.1386 -1.3114  2.8302
  355MOL0     O47791   5.078   5.427   7.124  0.2341 -0.1597 -0.3289
  355MOL0     C47792   4.970   5.432   7.176 -0.1876 -0.8899  0.2118
  355MOL0     O47793   4.944   5.502   7.293  0.4895  0.1347  0.4568
  355MOL0     C47794   5.056   5.542   7.361  0.7576 -0.6005 -0.7605
  355MOL0     C47795   5.110   5.675   7.321  0.1402  0.1308 -0.0957
  355MOL0     C47796   5.226   5.711   7.382 -1.0174  0.7488  0.1133
  355MOL0     C47797   5.288   5.639   7.488 -0.3890  0.1307  0.9371
  355MOL0     O47798   5.399   5.685   7.554  0.3630 -0.3130  0.1904
  355MOL0     C47799   5.480   5.782   7.486 -0.3122  0.3670 -0.1768
  355MOL0     C47800   5.561   5.722   7.364  0.0213  0.6182 -0.9911
  355MOL0     C47801   5.647   5.605   7.406 -0.5518 -0.7653  0.4658
  355MOL0     C47802   5.698   5.536   7.291 -0.6726  0.3430  0.3938
  355MOL0     C47803   5.777   5.407   7.317 -0.4186  0.3146  0.1515
  355MOL0     C47804   5.836   5.356   7.189  0.3236 -0.1453 -1.2949
  355MOL0     C47805   5.902   5.220   7.206 -0.2746  0.2015 -0.1476
  355MOL0     C47806   5.958   5.180   7.070  0.2571 -0.6088  0.6654
  355MOL0     N47807   6.075   5.268   7.051  0.2356  1.0527  0.0949
  355MOL0     C47808   6.201   5.245   7.113  0.3799 -0.7407 -0.2522
  355MOL0     C47809   6.295   5.333   7.062 -0.8327  0.3780 -0.4175
  355MOL0     C47810   6.440   5.365   7.100  0.5749 -0.1320  0.2845
  355MOL0     C47811   6.533   5.247   7.113  0.3942  0.3695  0.8046
  355MOL0     C47812   6.651   5.272   7.207  0.2809 -0.4122 -0.4860
  355MOL0     C47813   6.733   5.147   7.233  0.2264  0.6965 -0.9552
  355MOL0     O47814   6.756   5.090   7.101  0.0760  0.5774 -0.5933
  355MOL0     C47815   6.875   5.022   7.085 -0.4827  0.4565  0.4115
  355MOL0     C47816   6.943   5.023   6.962 -0.6341 -0.1269  0.5499
  355MOL0     C47817   7.069   4.973   6.935 -0.4170  0.4669  0.3038
  355MOL0     C47818   7.122   4.889   7.036 -0.0968 -0.8360 -0.6354
  355MOL0     C47819   7.255   4.821   7.009 -0.0129 -0.0132  0.1705
  355MOL0     O47820   7.298   4.824   6.879  0.5503  0.1363  0.1380
  355MOL0     C47821   7.430   4.790   6.846 -0.4930  0.1944  0.0904
  355MOL0     C47822   7.537   4.841   6.923 -0.0927 -0.1501 -0.2272
  355MOL0     C47823   7.668   4.809   6.891  0.3187  0.1295 -0.2920
  355MOL0     C47824   7.690   4.734   6.775  0.4571  0.2375  0.3106
  355MOL0     O47825   7.816   4.693   6.753  0.8441  0.1835  0.2748
  355MOL0     C47826   7.850   4.591   6.661  0.0541  0.1387  0.0081
  355MOL0     C47827   7.996   4.554   6.656 -0.5170 -0.2201 -0.0946
  355MOL0     C47828   8.029   4.458   6.545 -0.3426  0.2784  0.0801
  355MOL0     C47829   7.923   4.352   6.513  0.7636 -0.1191  0.0995
  355MOL0     C47830   7.983   4.239   6.422 -0.5322 -0.5009  0.0863
  355MOL0     C47831   8.036   4.294   6.292 -0.3559  0.3109  0.6657
  355MOL0     C47832   8.039   4.183   6.193  0.0267  0.4854  0.2715
  355MOL0     C47833   8.077   4.240   6.056 -0.3182  0.0076  0.1751
  355MOL0    Cl47834   8.253   4.272   6.050  0.1413  0.1728  0.1719
  355MOL0     C47835   7.578   4.685   6.695 -0.9369 -0.3656 -0.5688
  355MOL0     C47836   7.452   4.715   6.729  1.2491  0.4348  0.1960
  355MOL0     O47837   7.316   4.768   7.109  0.2724 -0.1047 -0.3997
  355MOL0     C47838   7.047   4.872   7.165 -0.1241  0.7947  0.7087
  355MOL0     C47839   6.930   4.942   7.186 -0.6271  0.1938 -1.0442
  355MOL0     N47840   6.222   5.413   6.976 -0.0889 -0.1012 -0.0714
  355MOL0     N47841   6.094   5.379   6.974  0.1204  0.2725 -0.0469
  355MOL0     C47842   5.222   5.529   7.538  0.5404  0.0099 -0.5538
  355MOL0     C47843   5.105   5.481   7.473  0.6274  0.3947  0.0487
  355MOL0     C47844   4.862   5.346   7.110 -0.4447  0.0032  0.9363
  355MOL0     C47845   4.745   5.326   7.180  0.2395 -0.0640 -0.2211
  355MOL0     C47846   4.636   5.252   7.130  0.8398  0.0227  0.7540
  355MOL0     C47847   4.641   5.197   7.001 -0.1308 -0.0740 -0.2515
  355MOL0     O47848   4.541   5.118   6.953  0.0369 -0.1643  0.9639
  355MOL0     C47849   4.481   5.169   6.827 -0.0285  0.8731  0.8880
  355MOL0     C47850   4.423   5.305   6.833 -0.5378 -0.3933  0.4597
  355MOL0     C47851   4.337   5.329   6.956  0.0470 -0.5622  0.9627
  355MOL0     C47852   4.244   5.445   6.938 -0.3872  0.1942 -0.4513
  355MOL0     C47853   4.145   5.424   6.843  0.2980 -0.8848 -0.1545
  355MOL0     C47854   4.059   5.413   6.761  0.6536  0.5508 -0.5108
  355MOL0     C47855   4.763   5.207   6.933  0.0674 -0.2329 -0.6233
  355MOL0     C47856   4.872   5.284   6.985  0.2581  0.6014  0.8243
  355MOL0     C47857   4.993   5.291   6.887  0.4208  0.6336  0.7776
  355MOL0     H47858   5.064   5.744   7.251 -0.3397  2.9039  2.7542
  355MOL0     H47859   5.267   5.805   7.348 -1.7429  0.5928 -1.2984
  355MOL0     H47860   5.440   5.874   7.443  2.6392  2.0710  0.4182
  355MOL0     H47861   5.547   5.821   7.563 -0.8349 -0.0752  0.5058
  355MOL0     H47862   5.625   5.803   7.326 -1.5691  0.9928 -3.0770
  355MOL0     H47863   5.504   5.702   7.273  1.0173 -2.4268 -1.0320
  355MOL0     H47864   5.599   5.539   7.479 -1.8826 -0.7525 -0.3617
  355MOL0     H47865   5.735   5.645   7.458 -0.6778 -0.4504  0.4411
  355MOL0     H47866   5.616   5.518   7.222  1.0781 -2.0524 -1.2555
  355MOL0     H47867   5.765   5.606   7.240 -2.3438  1.5404 -0.2269
  355MOL0     H47868   5.853   5.428   7.393 -0.3014  1.1528 -0.1887
  355MOL0     H47869   5.708   5.328   7.348 -0.2521 -0.3471 -1.1004
  355MOL0     H47870   5.767   5.358   7.104  0.3870  2.6204 -1.3701
  355MOL0     H47871   5.910   5.431   7.159  0.8446  0.5801  1.5285
  355MOL0     H47872   5.826   5.152   7.246  0.1407  1.3374  2.8089
  355MOL0     H47873   5.981   5.234   7.281 -1.6153  0.3567  1.2802
  355MOL0     H47874   5.989   5.075   7.072 -1.5381 -1.1868 -0.1767
  355MOL0     H47875   5.890   5.183   6.984  1.6061  0.1028 -0.4257
  355MOL0     H47876   6.232   5.183   7.196  0.9554  0.1731  0.2235
  355MOL0     H47877   6.494   5.447   7.051  0.5359  0.8881  1.8672
  355MOL0     H47878   6.430   5.394   7.205  1.4738  0.1852  0.2902
  355MOL0     H47879   6.485   5.150   7.130  1.1206 -0.3647 -1.0717
  355MOL0     H47880   6.561   5.222   7.010  0.5046 -1.1016  1.1669
  355MOL0     H47881   6.620   5.321   7.299  3.0723  0.1796  0.2503
  355MOL0     H47882   6.713   5.347   7.156 -1.2867  1.1955 -0.1334
  355MOL0     H47883   6.663   5.085   7.289 -0.8089 -0.6370 -3.5854
  355MOL0     H47884   6.821   5.165   7.296 -3.0680 -0.5417  4.7183
  355MOL0     H47885   6.891   5.075   6.881  0.0058 -0.3074  0.0142
  355MOL0     H47886   7.122   4.979   6.840 -1.8503 -0.6773 -0.6159
  355MOL0     H47887   7.518   4.899   7.012 -0.4313  0.8594 -0.9402
  355MOL0     H47888   7.747   4.835   6.962 -0.8190 -1.4685  1.6802
  355MOL0     H47889   7.804   4.502   6.704 -1.1623  0.4478 -0.6230
  355MOL0     H47890   7.821   4.618   6.559  3.3811  1.7918 -0.6304
  355MOL0     H47891   8.052   4.648   6.647  0.4642 -0.5572  1.9111
  355MOL0     H47892   8.033   4.521   6.753  2.6258 -0.0430 -1.1204
  355MOL0     H47893   8.053   4.514   6.454  3.0483  0.5767  1.0161
  355MOL0     H47894   8.111   4.394   6.578 -1.0590 -0.3148  0.7538
  355MOL0     H47895   7.840   4.403   6.464  0.1684  0.2527  1.4545
  355MOL0     H47896   7.882   4.311   6.605  0.8044  1.7213  0.9886
  355MOL0     H47897   7.911   4.158   6.408  0.7431 -1.4672 -1.2831
  355MOL0     H47898   8.063   4.195   6.482 -1.2564  0.6485  1.9780
  355MOL0     H47899   7.973   4.378   6.261 -0.2001 -0.0926 -0.8348
  355MOL0     H47900   8.143   4.318   6.295  0.7278 -3.7629  0.4192
  355MOL0     H47901   7.942   4.132   6.194 -0.5282  1.4097 -1.8423
  355MOL0     H47902   8.116   4.111   6.224 -1.8369 -0.8008  2.2390
  355MOL0     H47903   8.045   4.168   5.979  1.7731  2.3489 -3.1709
  355MOL0     H47904   8.035   4.339   6.035 -0.5788  0.2541  1.7790
  355MOL0     H47905   7.598   4.625   6.607  0.2909 -0.7575 -0.0483
  355MOL0     H47906   7.360   4.687   6.679  0.9206  0.1646  0.9408
  355MOL0     H47907   7.083   4.808   7.245 -1.5628  2.6121  2.9401
  355MOL0     H47908   6.891   4.929   7.286  0.5253 -1.7345 -0.7912
  355MOL0     H47909   5.261   5.479   7.625 -0.5963  0.3562  0.1758
  355MOL0     H47910   5.060   5.390   7.510  0.6598 -0.7615 -2.5277
  355MOL0     H47911   4.738   5.378   7.274 -2.0131 -1.9552  0.7707
  355MOL0     H47912   4.544   5.240   7.186 -0.9539  1.1555 -1.7812
  355MOL0     H47913   4.413   5.094   6.785  2.3058 -2.3943  2.5069
  355MOL0     H47914   4.554   5.181   6.747 -1.3090  2.3080 -0.1134
  355MOL0     H47915   4.363   5.321   6.742 -2.7720  3.5521  2.3759
  355MOL0     H47916   4.495   5.387   6.832 -0.0269 -0.8162 -1.4314
  355MOL0     H47917   4.408   5.353   7.035  2.0705 -0.1353 -0.8861
  355MOL0     H47918   4.280   5.239   6.985  0.0136 -0.2178  1.9943
  355MOL0     H47919   4.191   5.452   7.033 -1.8241 -0.2415 -1.1953
  355MOL0     H47920   4.296   5.537   6.911  1.3557 -0.2242  1.2204
  355MOL0     H47921   3.983   5.386   6.691 -2.1500  0.9003  2.1739
  355MOL0     H47922   4.776   5.154   6.839  0.7064 -1.4612  0.1294
  355MOL0     H47923   5.073   5.236   6.937  0.1666  0.6927  1.2651
  355MOL0     H47924   4.963   5.254   6.789 -1.4294  1.1288  1.1128
  355MOL0     H47925   5.028   5.394   6.892 -0.3690  0.8749  1.9447
  356MOL0     O47926   4.733   5.689   6.098  0.2265 -0.5357  1.3407
  356MOL0     C47927   4.763   5.572   6.114 -0.0515 -0.6258  0.0072
  356MOL0     O47928   4.889   5.526   6.104  0.1401 -0.6290  0.5550
  356MOL0     C47929   4.995   5.615   6.084  1.0785 -0.0210 -0.0488
  356MOL0     C47930   5.006   5.751   6.113 -0.1029 -0.3038  0.0999
  356MOL0     C47931   5.123   5.811   6.079 -0.0158 -1.1827  0.3447
  356MOL0     C47932   5.236   5.747   6.033 -0.6991  0.6619  0.3523
  356MOL0     O47933   5.359   5.796   6.017 -0.1518 -0.1881  0.1181
  356MOL0     C47934   5.356   5.901   5.924 -0.4454  0.3177  0.1636
  356MOL0     C47935   5.505   5.936   5.904  0.6728 -0.3152  0.3085
  356MOL0     C47936   5.574   5.818   5.827  0.0628  0.1250 -0.3102
  356MOL0     C47937   5.722   5.854   5.822 -0.3398  1.1159 -0.4973
  356MOL0     C47938   5.814   5.730   5.796 -0.1255 -0.2142 -0.4178
  356MOL0     C47939   5.957   5.769   5.799 -0.1737  0.0391 -0.0276
  356MOL0     C47940   6.058   5.656   5.801 -0.2007  0.0789  1.6911
  356MOL0     C47941   6.192   5.713   5.849  0.2617  0.3141 -0.1715
  356MOL0     N47942   6.244   5.834   5.781  0.6406 -0.1912 -0.0545
  356MOL0     C47943   6.286   5.840   5.653 -0.0366  1.0766 -0.2424
  356MOL0     C47944   6.334   5.961   5.637 -0.6685  0.5744 -0.0878
  356MOL0     C47945   6.422   6.015   5.523  0.0203  0.2414  0.5711
  356MOL0     C47946   6.568   6.026   5.568  0.7897  0.6514  0.3196
  356MOL0     C47947   6.646   6.123   5.478  0.2401  0.7953 -0.3986
  356MOL0     C47948   6.786   6.135   5.516 -0.5701 -0.2470  0.0849
  356MOL0     O47949   6.858   6.213   5.418 -0.0848  0.3107 -0.3949
  356MOL0     C47950   6.990   6.235   5.435 -0.2176  0.1390 -0.7558
  356MOL0     C47951   7.055   6.331   5.348  0.5712 -0.3164 -0.2506
  356MOL0     C47952   7.190   6.357   5.369 -0.4305 -0.1273 -0.0246
  356MOL0     C47953   7.262   6.316   5.480  0.3009 -0.0435 -0.0124
  356MOL0     C47954   7.397   6.361   5.513  1.2164 -1.5431 -0.3770
  356MOL0     O47955   7.442   6.320   5.638 -1.1260 -0.1326 -0.0920
  356MOL0     C47956   7.561   6.372   5.683 -0.3273  0.5702  0.2759
  356MOL0     C47957   7.583   6.510   5.691  0.6317 -0.1989 -0.4726
  356MOL0     C47958   7.707   6.565   5.741 -0.2610 -0.8647  0.9869
  356MOL0     C47959   7.808   6.476   5.781  0.6397 -0.1580 -0.4620
  356MOL0     O47960   7.936   6.520   5.818 -0.1624 -0.4335 -0.1360
  356MOL0     C47961   7.998   6.635   5.745  0.1261 -0.1725 -0.4399
  356MOL0     C47962   8.139   6.656   5.799 -0.1672 -0.0849  0.0880
  356MOL0     C47963   8.250   6.567   5.737  0.6224 -0.0438  0.4655
  356MOL0     C47964   8.372   6.572   5.827 -0.7897  0.8641 -0.3033
  356MOL0     C47965   8.483   6.489   5.762  0.1292 -0.5004 -0.0246
  356MOL0     C47966   8.609   6.489   5.848 -0.2029 -0.3658 -0.0497
  356MOL0     C47967   8.715   6.402   5.780  0.2421  0.4901  0.6860
  356MOL0     C47968   8.848   6.384   5.845 -0.8698  0.1268 -0.6083
  356MOL0    Cl47969   8.832   6.317   6.020 -0.8121 -0.2094  0.3837
  356MOL0     C47970   7.774   6.342   5.789 -0.9863  0.4154  0.0786
  356MOL0     C47971   7.652   6.288   5.741 -0.0355  0.1606  1.4549
  356MOL0     O47972   7.454   6.437   5.438  0.0236 -0.6396 -0.6640
  356MOL0     C47973   7.200   6.224   5.556 -0.7303 -0.1074 -0.0501
  356MOL0     C47974   7.070   6.189   5.537  0.8884 -0.0299 -0.3234
  356MOL0     N47975   6.312   6.032   5.753  0.0563 -0.9691 -0.0492
  356MOL0     N47976   6.259   5.949   5.843 -0.8442 -0.3915 -0.7079
  356MOL0     C47977   5.227   5.610   6.004  0.3490 -0.4179  0.3079
  356MOL0     C47978   5.103   5.545   6.016  0.1399 -0.5421 -0.4848
  356MOL0     C47979   4.657   5.472   6.125  0.0917 -0.0567 -0.2682
  356MOL0     C47980   4.701   5.337   6.136 -0.0669  0.5735 -0.0915
  356MOL0     C47981   4.605   5.236   6.148  0.5977 -0.2284 -0.0481
  356MOL0     C47982   4.472   5.264   6.139 -0.3275  0.4861 -0.4461
  356MOL0     O47983   4.392   5.156   6.176  0.5260  0.0461 -0.1191
  356MOL0     C47984   4.260   5.186   6.227 -0.1523  0.3861  0.1600
  356MOL0     C47985   4.198   5.070   6.298 -0.2727  0.0184 -0.0134
  356MOL0     C47986   4.199   5.093   6.451 -0.3852 -0.4969  0.1629
  356MOL0     C47987   4.101   5.006   6.521  0.2908 -0.5654 -0.6360
  356MOL0     C47988   4.081   5.058   6.662  0.5208 -0.4182  0.6490
  356MOL0     C47989   4.053   5.085   6.777  0.2061 -0.3956 -0.0414
  356MOL0     C47990   4.426   5.399   6.121  0.1883 -0.1460  0.3123
  356MOL0     C47991   4.524   5.505   6.111  0.4404  0.3431 -0.4944
  356MOL0     C47992   4.467   5.645   6.078  0.1854 -0.7216 -0.0931
  356MOL0     H47993   4.933   5.822   6.151  2.1910  2.0512  0.4156
  356MOL0     H47994   5.124   5.918   6.096 -1.5953 -0.6712 -2.2400
  356MOL0     H47995   5.299   5.875   5.835 -2.4879 -0.6905  1.6790
  356MOL0     H47996   5.315   5.990   5.973  2.2797  1.2105  1.0094
  356MOL0     H47997   5.557   5.967   5.995  2.2660  0.7642 -0.9178
  356MOL0     H47998   5.512   6.016   5.830 -0.7607 -0.4532  0.0028
  356MOL0     H47999   5.540   5.820   5.723 -2.8963  3.8841  0.5408
  356MOL0     H48000   5.558   5.723   5.878 -1.2602  0.4374 -0.1119
  356MOL0     H48001   5.732   5.929   5.744 -3.8941  4.1657  1.6509
  356MOL0     H48002   5.744   5.908   5.915  0.4794 -0.1812  0.0956
  356MOL0     H48003   5.791   5.652   5.870  1.9099 -0.5781 -0.1110
  356MOL0     H48004   5.786   5.699   5.694 -1.2387  2.9294 -1.1715
  356MOL0     H48005   5.969   5.827   5.706 -2.5564 -1.1681 -1.1703
  356MOL0     H48006   5.969   5.837   5.883 -0.1414 -0.3869  0.3138
  356MOL0     H48007   6.049   5.619   5.698 -2.8962  0.2487  1.7960
  356MOL0     H48008   6.032   5.574   5.870 -0.9294 -0.6609  0.5879
  356MOL0     H48009   6.179   5.747   5.952  1.8991  5.0093 -1.2228
  356MOL0     H48010   6.264   5.631   5.842 -1.6752 -1.4151 -0.8196
  356MOL0     H48011   6.296   5.756   5.584  0.5244 -1.5328  2.7925
  356MOL0     H48012   6.419   5.949   5.436  1.1934  1.8339 -0.7352
  356MOL0     H48013   6.391   6.115   5.492 -0.6771  0.1105  0.8171
  356MOL0     H48014   6.570   6.073   5.667 -0.0692  1.7164 -0.1552
  356MOL0     H48015   6.611   5.926   5.578  2.0164  0.9927 -1.1197
  356MOL0     H48016   6.595   6.220   5.482  2.1616  1.8555 -0.4159
  356MOL0     H48017   6.636   6.085   5.376 -2.1385  1.0319 -0.3266
  356MOL0     H48018   6.836   6.038   5.522  0.3400  0.2197  0.2300
  356MOL0     H48019   6.794   6.168   5.620 -2.2095 -2.5083  0.9969
  356MOL0     H48020   7.003   6.377   5.264  1.9176 -2.6346 -2.5316
  356MOL0     H48021   7.242   6.422   5.299  1.1912 -0.4971  0.8094
  356MOL0     H48022   7.511   6.574   5.640 -0.4414 -1.9105 -1.2055
  356MOL0     H48023   7.728   6.671   5.732 -0.7201 -0.8699 -0.4772
  356MOL0     H48024   7.997   6.607   5.639  1.6416 -2.4364  0.0826
  356MOL0     H48025   7.945   6.731   5.746  1.9176  0.8600 -1.2653
  356MOL0     H48026   8.163   6.761   5.780  2.6551 -0.7169 -0.3389
  356MOL0     H48027   8.145   6.637   5.907 -0.8573 -3.4451 -0.3498
  356MOL0     H48028   8.210   6.465   5.728  2.5867 -1.3214  4.1315
  356MOL0     H48029   8.284   6.602   5.639 -0.3000  0.3492  0.2779
  356MOL0     H48030   8.352   6.529   5.925 -0.5828  1.1812 -0.1192
  356MOL0     H48031   8.409   6.674   5.836 -0.1689  0.6997 -0.8688
  356MOL0     H48032   8.503   6.524   5.660 -0.1955 -0.9443 -0.2433
  356MOL0     H48033   8.447   6.386   5.770 -1.3479  0.0695  1.2392
  356MOL0     H48034   8.645   6.591   5.864  0.9624 -0.4821 -1.6843
  356MOL0     H48035   8.598   6.443   5.946  1.2710  3.7736  2.3120
  356MOL0     H48036   8.729   6.459   5.688 -2.9769 -1.6561 -1.3696
  356MOL0     H48037   8.680   6.301   5.756  1.8124 -0.1327  0.8828
  356MOL0     H48038   8.916   6.319   5.789  2.0407  2.6070 -0.2416
  356MOL0     H48039   8.891   6.485   5.845 -1.3317  0.3293 -0.3353
  356MOL0     H48040   7.845   6.269   5.827 -1.8533  0.3070  1.5585
  356MOL0     H48041   7.628   6.182   5.742  2.1895 -0.4136 -0.0504
  356MOL0     H48042   7.253   6.181   5.640 -1.1375 -0.6794 -0.0806
  356MOL0     H48043   7.021   6.128   5.612 -0.9456  0.1268 -1.3444
  356MOL0     H48044   5.313   5.564   5.957  1.5132  1.6414  0.3135
  356MOL0     H48045   5.104   5.438   6.003  2.8863 -0.6892  0.2028
  356MOL0     H48046   4.805   5.306   6.148 -0.2826  0.4315  1.6869
  356MOL0     H48047   4.646   5.136   6.163  3.0810  0.7290  0.0133
  356MOL0     H48048   4.187   5.210   6.149 -3.2239 -3.5851  1.4525
  356MOL0     H48049   4.270   5.268   6.298  0.6108  1.3205 -1.0099
  356MOL0     H48050   4.257   4.983   6.265 -2.5788 -1.0042 -1.7375
  356MOL0     H48051   4.098   5.060   6.256 -0.4604  1.4554  0.0439
  356MOL0     H48052   4.181   5.198   6.479  2.1637  0.7441 -2.3287
  356MOL0     H48053   4.299   5.079   6.492 -1.1566  1.2062  2.9714
  356MOL0     H48054   4.005   5.017   6.469  0.2602  1.0917 -0.2738
  356MOL0     H48055   4.131   4.901   6.515  1.2135 -0.7003  3.4984
  356MOL0     H48056   4.026   5.100   6.880  1.9132 -1.4382  0.6014
  356MOL0     H48057   4.319   5.414   6.113  0.4254  0.8473 -1.4391
  356MOL0     H48058   4.459   5.709   6.166  0.0042 -3.2852  1.8677
  356MOL0     H48059   4.507   5.702   5.993  0.9460  0.4276  1.0108
  356MOL0     H48060   4.360   5.637   6.057  0.2323 -0.2990 -0.5227
  357MOL0     O48061   5.017  10.509  11.050  0.1559  0.4321 -0.3530
  357MOL0     C48062   4.982  10.418  10.968  0.6616 -0.2953  0.2138
  357MOL0     O48063   5.069  10.327  10.916 -0.1380  0.4595 -0.1453
  357MOL0     C48064   5.201  10.329  10.949 -0.3314 -0.2339 -0.2633
  357MOL0     C48065   5.254  10.321  11.080 -0.1402 -0.2567 -0.6346
  357MOL0     C48066   5.387  10.304  11.109 -0.4782  0.7999  0.5099
  357MOL0     C48067   5.488  10.307  11.008  0.6899  0.8704  0.6606
  357MOL0     O48068   5.618  10.290  11.043  0.2156  0.1532  0.2510
  357MOL0     C48069   5.716  10.362  10.954 -0.3095 -0.4836 -0.4937
  357MOL0     C48070   5.842  10.361  11.044 -0.1223  0.1295 -0.5615
  357MOL0     C48071   5.964  10.391  10.964 -0.2652  0.8814 -0.0243
  357MOL0     C48072   6.082  10.426  11.056  0.5818 -0.3417 -1.3670
  357MOL0     C48073   6.214  10.441  10.975 -0.5791  0.3328  0.0731
  357MOL0     C48074   6.315  10.515  11.055  0.1406 -0.1200 -0.0756
  357MOL0     C48075   6.443  10.559  10.981 -0.3060  0.1383 -0.8648
  357MOL0     C48076   6.534  10.434  10.961 -0.2186  0.9035  0.3234
  357MOL0     N48077   6.663  10.455  10.893  0.5883 -0.9080 -0.0459
  357MOL0     C48078   6.775  10.506  10.946  0.1944 -0.3588 -0.3341
  357MOL0     C48079   6.879  10.496  10.860 -0.2701 -0.0785 -0.3788
  357MOL0     C48080   7.020  10.548  10.879  0.0319  0.0418  0.0697
  357MOL0     C48081   7.068  10.648  10.770 -0.4851 -0.2087  0.9263
  357MOL0     C48082   7.213  10.698  10.813  0.0284  0.5818 -0.0032
  357MOL0     C48083   7.280  10.788  10.708 -0.0699  0.4479 -0.1262
  357MOL0     O48084   7.400  10.840  10.777 -0.0444 -0.5085 -0.1224
  357MOL0     C48085   7.479  10.934  10.717 -0.2275  0.4388 -0.3793
  357MOL0     C48086   7.452  10.994  10.596 -0.1591  0.6741  0.1409
  357MOL0     C48087   7.545  11.081  10.543 -0.2120 -0.2516 -0.7797
  357MOL0     C48088   7.663  11.119  10.615  0.5207 -0.0996 -0.1974
  357MOL0     C48089   7.745  11.232  10.558 -0.1493 -0.1769 -0.6950
  357MOL0     O48090   7.825  11.286  10.652  0.2163 -1.1233  0.0764
  357MOL0     C48091   7.948  11.346  10.625  0.2273 -0.2418 -0.0934
  357MOL0     C48092   8.042  11.298  10.532  0.4730  0.0609 -0.3543
  357MOL0     C48093   8.157  11.373  10.515  0.5579 -0.2028  0.3375
  357MOL0     C48094   8.194  11.478  10.595  0.1451  1.0064  0.6553
  357MOL0     O48095   8.312  11.538  10.579 -0.0391 -0.2811  0.2436
  357MOL0     C48096   8.352  11.657  10.649  0.5913 -0.3070 -0.3664
  357MOL0     C48097   8.497  11.688  10.612 -0.2627  0.1201  0.1002
  357MOL0     C48098   8.514  11.729  10.473 -0.0317  0.3585 -0.3160
  357MOL0     C48099   8.665  11.774  10.452  0.3134  0.2007  0.5772
  357MOL0     C48100   8.703  11.790  10.301  0.8257 -0.7958 -0.4552
  357MOL0     C48101   8.853  11.806  10.279 -0.0498  1.0196  0.6229
  357MOL0     C48102   8.890  11.813  10.126 -0.3574 -0.3877 -0.3143
  357MOL0     C48103   9.040  11.785  10.103  1.1612  0.2803 -0.0093
  357MOL0    Cl48104   9.070  11.613  10.143 -0.2826  0.4662 -0.1400
  357MOL0     C48105   8.101  11.520  10.694  0.0477 -0.5196 -0.2237
  357MOL0     C48106   7.982  11.459  10.708 -0.5801 -0.3484 -0.6070
  357MOL0     O48107   7.745  11.262  10.443 -0.2817  0.0335  0.1691
  357MOL0     C48108   7.677  11.069  10.742 -0.2738  0.3109 -0.1032
  357MOL0     C48109   7.588  10.976  10.801  0.3366  0.0376  0.0421
  357MOL0     N48110   6.823  10.450  10.744  0.3606 -0.7423  0.9623
  357MOL0     N48111   6.699  10.416  10.772 -0.7016 -0.1178  0.1253
  357MOL0     C48112   5.440  10.328  10.874  0.4104 -0.1609  0.1033
  357MOL0     C48113   5.299  10.335  10.841  0.1909 -0.1579  0.0091
  357MOL0     C48114   4.835  10.411  10.924 -0.3520  0.3464 -0.2168
  357MOL0     C48115   4.800  10.317  10.825 -0.1586 -0.4344  0.2419
  357MOL0     C48116   4.669  10.309  10.767 -0.1099  0.5561 -0.1651
  357MOL0     C48117   4.569  10.391  10.818 -0.1871 -0.3102 -0.2640
  357MOL0     O48118   4.433  10.379  10.788 -0.0147 -1.1764  1.1323
  357MOL0     C48119   4.401  10.290  10.685  0.3363 -0.4431  0.3093
  357MOL0     C48120   4.255  10.294  10.660  0.0358  0.1750 -0.7017
  357MOL0     C48121   4.207  10.418  10.590 -0.4177  0.9033 -0.1375
  357MOL0     C48122   4.054  10.444  10.587 -0.3632 -0.2213 -0.4339
  357MOL0     C48123   3.982  10.333  10.529 -0.4767  0.6902  0.4303
  357MOL0     C48124   3.936  10.245  10.468  0.5374  0.2812  0.2739
  357MOL0     C48125   4.596  10.475  10.926  0.1691  0.4893  1.0704
  357MOL0     C48126   4.726  10.487  10.976  0.2513  0.1507  0.1138
  357MOL0     C48127   4.740  10.569  11.102  0.2232 -0.0896 -0.0729
  357MOL0     H48128   5.191  10.343  11.166  0.0701 -1.6508 -0.0999
  357MOL0     H48129   5.430  10.294  11.208 -0.7203 -1.3829  0.4543
  357MOL0     H48130   5.716  10.311  10.857 -0.1785 -0.3292 -0.5738
  357MOL0     H48131   5.695  10.468  10.940 -1.2367 -0.4680  0.7801
  357MOL0     H48132   5.856  10.262  11.089  1.3257 -0.0040 -1.2676
  357MOL0     H48133   5.827  10.425  11.131 -0.5389 -2.2466  1.2299
  357MOL0     H48134   5.948  10.482  10.906 -0.6348  0.4830 -0.5633
  357MOL0     H48135   5.989  10.313  10.891 -3.2590  0.6198 -0.8833
  357MOL0     H48136   6.064  10.526  11.097  1.9868 -1.5871  2.8092
  357MOL0     H48137   6.098  10.357  11.140  1.2693  1.5672  0.1452
  357MOL0     H48138   6.255  10.342  10.953  1.3518  1.3245 -1.0488
  357MOL0     H48139   6.201  10.495  10.881  0.9406 -0.8210 -0.8382
  357MOL0     H48140   6.258  10.602  11.087 -1.8084 -1.0867 -0.7458
  357MOL0     H48141   6.341  10.462  11.148 -0.8874  0.3700  0.5079
  357MOL0     H48142   6.500  10.639  11.028 -0.8677 -0.6270  1.2139
  357MOL0     H48143   6.406  10.596  10.885  0.1396  1.0989 -0.6705
  357MOL0     H48144   6.544  10.388  11.059 -0.6734  0.2128  0.0495
  357MOL0     H48145   6.480  10.363  10.897  1.3261  0.2379 -0.2884
  357MOL0     H48146   6.790  10.530  11.051 -0.1145  0.7552 -0.5236
  357MOL0     H48147   7.039  10.601  10.973 -2.1906  1.6001 -0.2563
  357MOL0     H48148   7.077  10.455  10.876 -2.7042 -1.7899  0.9790
  357MOL0     H48149   7.079  10.604  10.670 -1.0179  2.4847 -0.3878
  357MOL0     H48150   6.994  10.723  10.741  0.6696  0.0067 -1.7572
  357MOL0     H48151   7.283  10.615  10.828  2.7002  2.6726 -0.1928
  357MOL0     H48152   7.211  10.756  10.906 -0.4220 -0.2615  0.5345
  357MOL0     H48153   7.224  10.868  10.659  3.3795  2.3298 -1.3319
  357MOL0     H48154   7.319  10.736  10.620 -2.5854  2.3926 -2.5583
  357MOL0     H48155   7.364  10.973  10.535  1.6253  3.2342 -3.7182
  357MOL0     H48156   7.515  11.121  10.446 -1.1050 -2.0539 -1.2869
  357MOL0     H48157   8.021  11.222  10.457  1.0297  0.7700 -1.2418
  357MOL0     H48158   8.219  11.349  10.429  0.8092  0.7676  0.2346
  357MOL0     H48159   8.291  11.739  10.610 -0.7471 -0.9879  0.2312
  357MOL0     H48160   8.342  11.638  10.756 -3.3176  2.7246  0.0383
  357MOL0     H48161   8.537  11.764  10.679 -0.3315  1.6627 -1.5318
  357MOL0     H48162   8.553  11.594  10.626 -1.1283 -0.9045 -2.6150
  357MOL0     H48163   8.490  11.652  10.399  0.6849 -1.1285  0.9585
  357MOL0     H48164   8.448  11.815  10.459 -1.4433 -0.0258  3.1241
  357MOL0     H48165   8.725  11.701  10.506 -3.2526 -1.6227  2.4360
  357MOL0     H48166   8.680  11.871  10.501 -0.2117  0.8201 -0.4254
  357MOL0     H48167   8.647  11.880  10.270 -0.5889 -1.3079  0.4876
  357MOL0     H48168   8.674  11.704  10.241  1.3399 -0.5691 -1.0370
  357MOL0     H48169   8.885  11.891  10.340 -2.4424  1.6330  1.1178
  357MOL0     H48170   8.904  11.719  10.321 -1.4114  0.0178  0.3014
  357MOL0     H48171   8.870  11.915  10.090  1.2796 -0.2844 -0.9943
  357MOL0     H48172   8.829  11.745  10.066  0.2721 -0.4588 -0.8821
  357MOL0     H48173   9.082  11.808  10.005  2.6487 -1.1014  0.2650
  357MOL0     H48174   9.085  11.853  10.175  1.8158 -1.2654  1.1044
  357MOL0     H48175   8.115  11.612  10.750 -1.8148 -1.2801  1.6472
  357MOL0     H48176   7.914  11.504  10.779 -1.2655 -2.7650  0.3922
  357MOL0     H48177   7.762  11.101  10.801 -0.7353 -0.4147  0.9786
  357MOL0     H48178   7.593  10.935  10.901 -0.0424  0.6137  0.3038
  357MOL0     H48179   5.518  10.327  10.797 -0.2695 -0.3809 -0.5922
  357MOL0     H48180   5.273  10.335  10.736  1.3565 -1.5405 -0.3163
  357MOL0     H48181   4.878  10.252  10.787  1.1511  0.3871  1.4114
  357MOL0     H48182   4.651  10.241  10.685 -2.4292 -0.8168  1.3512
  357MOL0     H48183   4.428  10.188  10.716 -0.6320 -1.1828 -1.1491
  357MOL0     H48184   4.451  10.318  10.592  1.9430 -1.0865  0.9517
  357MOL0     H48185   4.206  10.272  10.755 -1.0597 -1.9592 -1.6702
  357MOL0     H48186   4.234  10.204  10.600 -0.7131  0.0176 -0.2067
  357MOL0     H48187   4.236  10.411  10.485 -1.2212 -1.5332 -0.2614
  357MOL0     H48188   4.259  10.499  10.642 -0.8843 -0.1018  2.0502
  357MOL0     H48189   4.022  10.464  10.690  0.6325  0.2737 -0.2135
  357MOL0     H48190   4.047  10.538  10.532 -1.2462  2.0753  3.2181
  357MOL0     H48191   3.897  10.164  10.410 -0.5922 -0.2696  1.7307
  357MOL0     H48192   4.510  10.528  10.964 -1.0906 -1.7628  1.5212
  357MOL0     H48193   4.812  10.651  11.093 -0.9581  0.7314 -2.9550
  357MOL0     H48194   4.645  10.605  11.141  0.7055 -0.2330  1.2938
  357MOL0     H48195   4.779  10.512  11.187  0.4926 -2.0455 -1.4351
  358MOL0     O48196   4.594  10.852   1.865  0.2545  0.1716  0.4990
  358MOL0     C48197   4.594  10.937   1.955 -0.3655 -0.3290 -0.1291
  358MOL0     O48198   4.695  11.024   1.982  1.1553 -1.0101  0.3358
  358MOL0     C48199   4.819  10.991   1.935 -0.7937 -0.4512 -0.9743
  358MOL0     C48200   4.882  11.067   1.830 -0.9567  0.2391 -0.1072
  358MOL0     C48201   5.025  11.039   1.803 -0.2939  0.1879 -0.1387
  358MOL0     C48202   5.091  10.947   1.886 -0.2273 -0.4037  0.8124
  358MOL0     O48203   5.224  10.934   1.851  0.5228  0.0778 -0.4760
  358MOL0     C48204   5.314  10.850   1.934 -0.0381  0.2525 -0.1314
  358MOL0     C48205   5.456  10.861   1.881  0.3531  0.1021  0.7374
  358MOL0     C48206   5.542  10.736   1.935 -0.1480 -0.1943 -0.6639
  358MOL0     C48207   5.686  10.777   1.908  0.2005  0.2048  0.8383
  358MOL0     C48208   5.781  10.677   1.975 -0.3967 -0.1470 -0.2329
  358MOL0     C48209   5.924  10.714   1.929 -1.0358 -0.5893 -0.0537
  358MOL0     C48210   6.024  10.612   1.985  0.3657 -0.3787  0.9827
  358MOL0     C48211   6.170  10.642   1.950 -0.3090 -0.0647 -0.3492
  358MOL0     N48212   6.236  10.748   2.028 -0.5529  0.6152  0.3422
  358MOL0     C48213   6.238  10.754   2.161 -0.5122 -0.7718  0.2301
  358MOL0     C48214   6.306  10.871   2.189  0.4612  0.1107 -0.2768
  358MOL0     C48215   6.323  10.927   2.326  0.6909  0.9395  0.6199
  358MOL0     C48216   6.451  10.877   2.390  0.9055  0.3638  0.2469
  358MOL0     C48217   6.590  10.893   2.318 -0.2684 -0.0279  0.3829
  358MOL0     C48218   6.711  10.867   2.404 -0.1789 -0.1967 -0.2849
  358MOL0     O48219   6.827  10.910   2.331 -0.2421  0.0312 -0.0448
  358MOL0     C48220   6.946  10.871   2.371  0.6631 -0.3088  0.1139
  358MOL0     C48221   6.974  10.799   2.488  0.1121 -0.5926 -1.0105
  358MOL0     C48222   7.103  10.756   2.521  0.4612  0.1470  0.6095
  358MOL0     C48223   7.209  10.779   2.428  0.2186  0.7346 -0.1447
  358MOL0     C48224   7.348  10.749   2.466 -1.0232 -0.0456  1.0957
  358MOL0     O48225   7.447  10.775   2.383  0.3429  0.0597  0.6462
  358MOL0     C48226   7.568  10.730   2.411 -0.3746  0.2794  0.2319
  358MOL0     C48227   7.645  10.765   2.529  0.5503  0.1627 -1.3100
  358MOL0     C48228   7.775  10.707   2.553  0.5453 -0.2073  0.6363
  358MOL0     C48229   7.825  10.614   2.457 -0.0802 -0.0833  0.1236
  358MOL0     O48230   7.947  10.551   2.492 -0.7081  0.9926 -0.0301
  358MOL0     C48231   8.006  10.471   2.381  0.5301 -0.2788 -0.2388
  358MOL0     C48232   8.153  10.453   2.408 -0.3515 -0.4072  0.7925
  358MOL0     C48233   8.219  10.584   2.437 -0.9666  0.1082 -0.1553
  358MOL0     C48234   8.363  10.561   2.484  0.7812 -0.2558  0.1734
  358MOL0     C48235   8.457  10.499   2.378  0.6633 -0.2740  0.0657
  358MOL0     C48236   8.598  10.491   2.430 -0.5870  0.1455 -0.0008
  358MOL0     C48237   8.699  10.444   2.325 -0.1454  0.1825 -0.0330
  358MOL0     C48238   8.837  10.424   2.383  0.3484 -0.2652  0.1800
  358MOL0    Cl48239   8.902  10.589   2.415 -0.0198 -0.2020 -0.3812
  358MOL0     C48240   7.760  10.603   2.332 -0.3099  0.1870 -0.3165
  358MOL0     C48241   7.638  10.665   2.307 -0.2381  0.3216 -0.0594
  358MOL0     O48242   7.357  10.702   2.582 -0.6558  0.3000 -0.5799
  358MOL0     C48243   7.178  10.849   2.309  0.0330  0.6081 -0.7732
  358MOL0     C48244   7.051  10.896   2.284  0.2375  0.5129  0.4128
  358MOL0     N48245   6.355  10.919   2.068 -0.1120 -0.2690  0.0074
  358MOL0     N48246   6.310  10.849   1.972  0.6810  0.6828 -0.4280
  358MOL0     C48247   5.021  10.892   1.992  1.2449  0.2639 -0.5005
  358MOL0     C48248   4.884  10.912   2.023 -0.5324  0.3912  0.3925
  358MOL0     C48249   4.463  10.950   2.031 -0.2259 -0.2907  0.1780
  358MOL0     C48250   4.352  10.890   1.983 -0.8503 -0.2043  0.2031
  358MOL0     C48251   4.222  10.912   2.041  0.8290  0.2917 -0.3129
  358MOL0     C48252   4.207  10.988   2.152 -0.3008 -0.2080 -0.4476
  358MOL0     O48253   4.086  11.009   2.220  0.1523 -0.0218  0.2245
  358MOL0     C48254   4.058  11.145   2.255 -0.6797  0.8288  0.0104
  358MOL0     C48255   3.954  11.205   2.152  0.0344  0.3071 -0.0572
  358MOL0     C48256   3.825  11.116   2.147 -0.0922 -0.1756  0.3107
  358MOL0     C48257   3.721  11.201   2.068 -0.1436  0.2185  0.5716
  358MOL0     C48258   3.595  11.123   2.040 -0.3647 -0.6033 -0.4124
  358MOL0     C48259   3.515  11.045   1.997 -0.1211  0.2133 -0.2084
  358MOL0     C48260   4.324  11.035   2.215 -0.5141  0.7712  0.3974
  358MOL0     C48261   4.447  11.019   2.156 -0.5285 -0.6205  0.0761
  358MOL0     C48262   4.568  11.086   2.228  0.3902  0.9415 -0.1923
  358MOL0     H48263   4.825  11.139   1.772  0.8992  0.7718 -1.3575
  358MOL0     H48264   5.065  11.109   1.731  1.1253  0.0813  0.5121
  358MOL0     H48265   5.314  10.898   2.033  1.6331  0.5553 -0.2572
  358MOL0     H48266   5.282  10.746   1.937  2.6385 -0.6456 -0.1503
  358MOL0     H48267   5.507  10.955   1.905  4.1590 -0.9015 -2.3503
  358MOL0     H48268   5.461  10.848   1.773  1.8375 -3.6696  1.1092
  358MOL0     H48269   5.528  10.647   1.875  1.2546  0.8200 -2.6015
  358MOL0     H48270   5.527  10.719   2.042  2.2415 -0.4534 -0.3159
  358MOL0     H48271   5.695  10.768   1.799 -4.8169 -0.6063  0.2373
  358MOL0     H48272   5.704  10.880   1.941 -1.8868  1.2720 -1.0359
  358MOL0     H48273   5.767  10.677   2.084  0.8241 -2.5145 -0.0054
  358MOL0     H48274   5.760  10.572   1.950  0.9836 -0.3450 -0.6338
  358MOL0     H48275   5.923  10.714   1.820 -0.6988 -1.6711 -0.0744
  358MOL0     H48276   5.948  10.816   1.960 -1.4536  0.0709 -1.8004
  358MOL0     H48277   6.020  10.512   1.940  1.5168  0.1872 -0.4718
  358MOL0     H48278   6.016  10.622   2.094 -0.3893  1.5660  0.7946
  358MOL0     H48279   6.223  10.551   1.981 -1.7612 -0.7196  0.2921
  358MOL0     H48280   6.199  10.654   1.845  0.5533  0.3523 -0.0746
  358MOL0     H48281   6.175  10.698   2.229 -0.0207 -2.4171 -0.6286
  358MOL0     H48282   6.335  11.035   2.309  0.0161  0.9842  0.4077
  358MOL0     H48283   6.229  10.922   2.380  0.3457 -1.5522 -0.1037
  358MOL0     H48284   6.455  10.924   2.489 -0.6524  0.8344  0.1028
  358MOL0     H48285   6.444  10.769   2.410 -2.6974  0.7301  1.6466
  358MOL0     H48286   6.584  10.992   2.272 -1.8195  1.4520  3.4682
  358MOL0     H48287   6.595  10.816   2.240  2.5553 -1.6347  1.9708
  358MOL0     H48288   6.713  10.762   2.435  0.2005  0.5073  2.3022
  358MOL0     H48289   6.698  10.925   2.496 -0.7082 -1.1704  0.2698
  358MOL0     H48290   6.900  10.778   2.565  0.5781  1.1930 -0.0142
  358MOL0     H48291   7.131  10.708   2.614  0.2798 -0.8980  0.1333
  358MOL0     H48292   7.593  10.819   2.608  2.9010  1.1246 -0.3380
  358MOL0     H48293   7.826  10.733   2.645  0.7456 -1.7319  0.9852
  358MOL0     H48294   7.950  10.378   2.383  1.2200 -0.6936  0.6504
  358MOL0     H48295   7.995  10.517   2.282 -2.9586  1.9147  0.9648
  358MOL0     H48296   8.169  10.388   2.493  0.8222 -3.1654 -1.3828
  358MOL0     H48297   8.198  10.419   2.314 -1.2290  0.3282  0.0741
  358MOL0     H48298   8.227  10.640   2.343 -0.4181  0.5773  0.1632
  358MOL0     H48299   8.163  10.648   2.506  1.8490  0.8557  1.6274
  358MOL0     H48300   8.357  10.496   2.572 -2.6372 -3.1555 -1.8896
  358MOL0     H48301   8.406  10.659   2.508 -1.5705  1.3736 -1.7973
  358MOL0     H48302   8.458  10.557   2.285  2.2439  0.7552  0.6798
  358MOL0     H48303   8.413  10.403   2.348 -1.0855  0.3903  0.3957
  358MOL0     H48304   8.623  10.594   2.457  0.6731 -0.2355  0.3643
  358MOL0     H48305   8.612  10.420   2.512  2.1830  0.2720 -0.2639
  358MOL0     H48306   8.714  10.516   2.244 -1.8530 -0.4700 -0.9840
  358MOL0     H48307   8.666  10.349   2.280  0.7828 -0.5448  0.7817
  358MOL0     H48308   8.840  10.356   2.469 -0.6650  1.4201  1.6320
  358MOL0     H48309   8.905  10.378   2.310 -0.1912 -0.4487 -0.2081
  358MOL0     H48310   7.801  10.552   2.245 -0.3227  0.8574 -0.7170
  358MOL0     H48311   7.602  10.649   2.206  2.0646 -3.6358 -0.4441
  358MOL0     H48312   7.257  10.880   2.241  0.0245  2.1477 -0.1132
  358MOL0     H48313   7.026  10.956   2.197  2.1562 -0.2312 -0.7171
  358MOL0     H48314   5.065  10.810   2.048 -1.6437 -3.9722 -3.7823
  358MOL0     H48315   4.840  10.857   2.106  1.9740 -1.0230  0.9016
  358MOL0     H48316   4.363  10.835   1.891  3.1928  2.3285 -1.0915
  358MOL0     H48317   4.131  10.869   2.001  1.1632 -1.2932  0.5436
  358MOL0     H48318   4.145  11.212   2.255 -0.6037  0.8201  2.5413
  358MOL0     H48319   4.022  11.146   2.358  2.2044 -0.6186  1.1405
  358MOL0     H48320   4.002  11.215   2.054  0.3686 -0.1734  0.0538
  358MOL0     H48321   3.924  11.301   2.194  1.5633  1.5324 -1.5939
  358MOL0     H48322   3.796  11.089   2.249  0.1310  0.2288  0.4857
  358MOL0     H48323   3.845  11.026   2.088  1.4942  1.4821 -1.8630
  358MOL0     H48324   3.694  11.299   2.111 -0.5671  0.8673 -1.1058
  358MOL0     H48325   3.770  11.214   1.971 -0.1956  0.1654  0.5387
  358MOL0     H48326   3.464  10.953   1.975  2.0391 -1.0108 -0.4102
  358MOL0     H48327   4.313  11.081   2.312  0.9753 -1.4414  1.6934
  358MOL0     H48328   4.544  11.096   2.334 -0.5247 -1.4910 -0.0988
  358MOL0     H48329   4.660  11.027   2.225 -0.7206 -0.8862 -0.2258
  358MOL0     H48330   4.589  11.184   2.185  1.8546  0.9506  0.4872
  359MOL0     O48331   4.337   1.089   6.802  0.1553  0.3396 -0.0548
  359MOL0     C48332   4.264   1.047   6.711  0.1068 -0.6608 -0.3495
  359MOL0     O48333   4.318   0.995   6.597  0.5604  0.5223  0.0034
  359MOL0     C48334   4.449   0.968   6.574 -0.4608  0.1507 -0.0475
  359MOL0     C48335   4.471   0.848   6.510 -0.2460  0.2795 -1.3916
  359MOL0     C48336   4.606   0.814   6.478  1.0906  1.2824  0.0420
  359MOL0     C48337   4.719   0.891   6.505  0.6308  0.4497  0.5009
  359MOL0     O48338   4.853   0.870   6.479 -0.5727  0.1682  1.4090
  359MOL0     C48339   4.895   0.749   6.426  0.2743 -0.7957  0.6068
  359MOL0     C48340   5.049   0.756   6.432  0.2754  0.3194  0.1433
  359MOL0     C48341   5.116   0.618   6.409  0.0923  0.1972  0.0900
  359MOL0     C48342   5.260   0.634   6.367  0.4798 -0.2500 -0.1046
  359MOL0     C48343   5.313   0.510   6.293 -0.4566  0.3757  0.8612
  359MOL0     C48344   5.440   0.528   6.212  0.4985  0.3965  0.4714
  359MOL0     C48345   5.556   0.566   6.298  0.0943  0.4788  0.0059
  359MOL0     C48346   5.691   0.600   6.225  0.2798  0.7259  0.2529
  359MOL0     N48347   5.803   0.617   6.318  0.5342  0.3406 -0.1551
  359MOL0     C48348   5.871   0.507   6.375 -0.3048 -0.2967  0.0750
  359MOL0     C48349   5.991   0.558   6.408  0.3710 -0.3164 -0.2337
  359MOL0     C48350   6.116   0.498   6.466 -0.4757  0.0641  0.1766
  359MOL0     C48351   6.235   0.513   6.368 -0.5228  0.0819  0.4455
  359MOL0     C48352   6.358   0.452   6.427  0.2898  0.2694 -1.0641
  359MOL0     C48353   6.434   0.533   6.541 -0.0149 -0.9597 -0.3391
  359MOL0     O48354   6.511   0.649   6.488 -0.1841  0.4952  0.4248
  359MOL0     C48355   6.602   0.699   6.578 -0.2637  0.4860  0.0641
  359MOL0     C48356   6.647   0.650   6.699 -0.2298 -0.6764 -0.4711
  359MOL0     C48357   6.747   0.713   6.774  0.0177  0.3283  0.8707
  359MOL0     C48358   6.807   0.833   6.733  0.1797 -0.0159  0.0234
  359MOL0     C48359   6.924   0.899   6.800  0.2473 -0.5811  0.0780
  359MOL0     O48360   7.008   0.978   6.734  0.3398 -0.6300 -0.2228
  359MOL0     C48361   7.066   1.097   6.791  0.2995 -0.7548  0.7024
  359MOL0     C48362   7.165   1.160   6.718 -0.2342 -0.7561 -0.6880
  359MOL0     C48363   7.223   1.282   6.761 -0.1522 -0.2338  0.3317
  359MOL0     C48364   7.190   1.339   6.877  0.6123  0.0739  0.0972
  359MOL0     O48365   7.270   1.443   6.908  0.6789  0.0386 -0.1500
  359MOL0     C48366   7.227   1.529   7.016 -0.3316 -1.3032  0.1116
  359MOL0     C48367   7.094   1.607   6.972 -0.5382  0.0928 -0.3671
  359MOL0     C48368   7.102   1.674   6.831 -0.2806  0.5136 -0.6625
  359MOL0     C48369   6.989   1.767   6.800 -0.2493  0.3252  0.4737
  359MOL0     C48370   6.997   1.886   6.893  0.1894  0.1921 -0.5180
  359MOL0     C48371   7.119   1.984   6.894  0.0132 -0.4435 -0.1816
  359MOL0     C48372   7.147   2.049   6.753 -0.1907 -0.5127  0.7513
  359MOL0     C48373   7.282   2.124   6.758 -0.6612 -0.4254  0.6670
  359MOL0    Cl48374   7.422   2.011   6.755 -0.0315 -0.1584  0.3214
  359MOL0     C48375   7.084   1.278   6.947 -0.0414  0.1077 -0.1676
  359MOL0     C48376   7.025   1.156   6.912 -0.3923 -0.5134  0.2815
  359MOL0     O48377   6.934   0.879   6.921  0.1424  0.2507 -0.6104
  359MOL0     C48378   6.755   0.887   6.612 -0.4687  0.0195  0.2920
  359MOL0     C48379   6.660   0.812   6.537  0.5396  0.7532 -0.2130
  359MOL0     N48380   5.993   0.695   6.379 -0.0585  0.2126  0.2833
  359MOL0     N48381   5.880   0.728   6.329  0.8574  0.3177  1.0018
  359MOL0     C48382   4.699   1.007   6.571  0.8845 -0.8207  0.0278
  359MOL0     C48383   4.564   1.050   6.604  0.3997 -0.7091  1.0033
  359MOL0     C48384   4.121   1.032   6.727 -0.5537 -0.9829  0.0044
  359MOL0     C48385   4.063   0.912   6.688 -0.0769  0.2076  0.6025
  359MOL0     C48386   3.918   0.892   6.699 -0.1435 -0.4768 -0.1923
  359MOL0     C48387   3.836   0.992   6.759 -0.0711 -0.0497 -0.3549
  359MOL0     O48388   3.702   0.994   6.784  0.1496  0.1121 -0.8070
  359MOL0     C48389   3.622   0.884   6.748  0.0019  1.1331 -0.2883
  359MOL0     C48390   3.472   0.930   6.777 -0.6133  0.7807 -0.0557
  359MOL0     C48391   3.461   0.988   6.917  0.5914  0.3486 -0.1942
  359MOL0     C48392   3.321   1.020   6.966  0.0189  0.6170 -0.0569
  359MOL0     C48393   3.238   0.897   6.976 -0.0154 -0.3985  0.0359
  359MOL0     C48394   3.175   0.796   6.964 -0.3933  1.1710  0.4337
  359MOL0     C48395   3.896   1.107   6.792 -0.7919 -0.4414  0.3945
  359MOL0     C48396   4.033   1.129   6.774  0.1492  0.4727  0.4402
  359MOL0     C48397   4.088   1.271   6.804  0.2784 -0.4447 -0.1006
  359MOL0     H48398   4.380   0.790   6.499 -0.8693  1.5056 -3.3834
  359MOL0     H48399   4.615   0.716   6.431 -1.4992 -1.1928  4.1537
  359MOL0     H48400   4.851   0.663   6.477 -2.2692 -0.8121 -1.4195
  359MOL0     H48401   4.878   0.752   6.318  4.9254 -0.5408 -0.3433
  359MOL0     H48402   5.065   0.792   6.534  0.0323 -0.5514  0.4988
  359MOL0     H48403   5.082   0.827   6.355 -1.1227 -0.3684 -1.1442
  359MOL0     H48404   5.056   0.571   6.331 -2.1205  1.9715  0.6159
  359MOL0     H48405   5.113   0.548   6.494  3.0250 -1.8866 -1.3322
  359MOL0     H48406   5.278   0.724   6.308 -0.2442  0.4872  0.7677
  359MOL0     H48407   5.316   0.650   6.459 -0.9195  1.8840  0.4662
  359MOL0     H48408   5.331   0.425   6.359  0.6063 -1.3096 -1.4634
  359MOL0     H48409   5.227   0.474   6.235  0.0715  0.5229 -0.0353
  359MOL0     H48410   5.457   0.427   6.172 -2.5976 -0.4830  1.0869
  359MOL0     H48411   5.426   0.598   6.128  1.7867 -0.9509 -0.9381
  359MOL0     H48412   5.578   0.492   6.376 -1.2882  1.0273  0.9638
  359MOL0     H48413   5.524   0.650   6.360 -1.9801  1.0326 -1.6991
  359MOL0     H48414   5.714   0.514   6.161  0.2162  1.8742 -1.3722
  359MOL0     H48415   5.685   0.685   6.157 -1.8507  1.1100  0.8389
  359MOL0     H48416   5.839   0.403   6.373  1.2316 -0.8159 -2.6522
  359MOL0     H48417   6.140   0.552   6.558 -1.8348  0.4094  0.3385
  359MOL0     H48418   6.096   0.395   6.495 -0.6269  0.1546  0.3898
  359MOL0     H48419   6.218   0.460   6.274 -0.4654  0.6367  0.1189
  359MOL0     H48420   6.250   0.620   6.349  1.1432  0.2954  2.5839
  359MOL0     H48421   6.425   0.443   6.341  0.2416 -1.5961 -0.9425
  359MOL0     H48422   6.343   0.345   6.446  4.5368 -0.1042  1.4687
  359MOL0     H48423   6.510   0.462   6.574  0.1212 -0.4302  0.4944
  359MOL0     H48424   6.369   0.573   6.620  1.2487  1.1533 -0.2963
  359MOL0     H48425   6.606   0.561   6.745 -2.4461  0.9695  0.9865
  359MOL0     H48426   6.786   0.667   6.865 -0.6277  2.0423  2.0559
  359MOL0     H48427   7.205   1.107   6.633 -0.6939 -1.9119 -0.2085
  359MOL0     H48428   7.303   1.309   6.693 -1.9352 -2.4056 -2.8979
  359MOL0     H48429   7.206   1.479   7.111 -0.1606  0.7730  1.2943
  359MOL0     H48430   7.299   1.610   7.030 -0.8144 -0.6245 -1.1509
  359MOL0     H48431   7.011   1.536   6.971 -1.2324  0.8528  0.6878
  359MOL0     H48432   7.084   1.683   7.051  0.8953 -0.6645  0.5974
  359MOL0     H48433   7.197   1.728   6.824  0.6934 -1.0362  0.0108
  359MOL0     H48434   7.102   1.596   6.754  2.3402 -1.0531  0.7762
  359MOL0     H48435   6.899   1.711   6.828 -0.9631  1.6250  0.8288
  359MOL0     H48436   6.985   1.795   6.695 -2.8995  1.0572  0.6911
  359MOL0     H48437   6.987   1.853   6.997  1.2054 -0.3581 -0.5765
  359MOL0     H48438   6.904   1.939   6.873 -0.5257 -0.2953  1.3450
  359MOL0     H48439   7.096   2.068   6.961 -1.7758  0.5408 -1.9151
  359MOL0     H48440   7.210   1.938   6.933  1.4778  0.0002 -2.8444
  359MOL0     H48441   7.061   2.109   6.722 -2.4383 -2.6675  2.4360
  359MOL0     H48442   7.145   1.970   6.677  0.5742  0.3589 -0.2017
  359MOL0     H48443   7.291   2.176   6.662  0.2681 -1.3978  0.2063
  359MOL0     H48444   7.288   2.188   6.847  1.0059 -2.0666  1.7912
  359MOL0     H48445   7.041   1.316   7.039 -2.7239  2.3343 -2.1575
  359MOL0     H48446   6.953   1.110   6.978 -1.1963 -1.0229 -0.9121
  359MOL0     H48447   6.812   0.975   6.583 -0.5336  0.9258  2.6633
  359MOL0     H48448   6.643   0.842   6.435  0.4744  1.8303  0.1001
  359MOL0     H48449   4.783   1.073   6.593  1.0361 -1.3064  0.9875
  359MOL0     H48450   4.529   1.144   6.646 -1.5076 -1.4467  1.1581
  359MOL0     H48451   4.119   0.841   6.628  0.9566  2.3651 -1.0995
  359MOL0     H48452   3.872   0.802   6.661 -0.7133  0.1618 -1.0567
  359MOL0     H48453   3.657   0.796   6.803 -4.4541  0.1951  1.4934
  359MOL0     H48454   3.627   0.858   6.642 -1.9202 -1.8549  0.2373
  359MOL0     H48455   3.422   0.833   6.770  1.8110 -0.4874 -0.8342
  359MOL0     H48456   3.435   1.004   6.705  0.3861  1.2698 -0.0744
  359MOL0     H48457   3.505   1.088   6.920  0.0717  0.5616  2.0139
  359MOL0     H48458   3.506   0.922   6.991 -2.3473 -0.4038  1.0430
  359MOL0     H48459   3.324   1.086   7.053 -0.1114  1.5823 -0.7668
  359MOL0     H48460   3.279   1.074   6.880  2.4710  0.0344 -1.7306
  359MOL0     H48461   3.113   0.709   6.960 -0.8665  1.4199  1.7850
  359MOL0     H48462   3.845   1.190   6.840  1.0014 -0.4690  2.5617
  359MOL0     H48463   4.173   1.280   6.872  1.1633  3.4635 -1.4722
  359MOL0     H48464   4.126   1.313   6.710 -1.4316 -0.7791 -0.9834
  359MOL0     H48465   4.014   1.342   6.840  0.0313 -1.6217  1.8572
  360MOL0     O48466   6.324   3.386   1.996  0.5991 -0.0704 -0.7193
  360MOL0     C48467   6.219   3.342   2.042 -0.9565 -0.0257  0.8807
  360MOL0     O48468   6.180   3.206   2.042  0.3644 -0.1570 -0.4121
  360MOL0     C48469   6.263   3.116   1.979  0.8610  0.4920  0.6778
  360MOL0     C48470   6.285   3.001   2.049 -0.7212 -0.2113 -0.3279
  360MOL0     C48471   6.363   2.897   1.986 -0.0015 -0.1921 -0.4391
  360MOL0     C48472   6.433   2.921   1.864  0.3994 -0.1564  0.2293
  360MOL0     O48473   6.507   2.821   1.812 -0.2264  0.2605  0.1510
  360MOL0     C48474   6.557   2.833   1.672 -0.5443 -0.7432 -0.9166
  360MOL0     C48475   6.658   2.722   1.664  0.0281  0.0791 -0.1879
  360MOL0     C48476   6.700   2.723   1.518 -0.1867 -0.1200 -0.6735
  360MOL0     C48477   6.811   2.623   1.485 -0.0822  0.1101 -0.2491
  360MOL0     C48478   6.955   2.675   1.525  0.2624  0.1491 -0.4799
  360MOL0     C48479   7.060   2.591   1.465  0.4787 -0.3644 -1.4202
  360MOL0     C48480   7.204   2.629   1.520  0.0721  0.4809  0.1489
  360MOL0     C48481   7.243   2.774   1.473 -0.7719  0.5752  0.5255
  360MOL0     N48482   7.385   2.802   1.513 -0.1100  0.1267 -0.2665
  360MOL0     C48483   7.418   2.887   1.618  0.7142  0.0782 -0.8126
  360MOL0     C48484   7.554   2.875   1.623 -0.2220  0.1499  0.7025
  360MOL0     C48485   7.648   2.935   1.730 -0.5092  0.0454  0.7432
  360MOL0     C48486   7.644   2.863   1.862 -0.8067 -0.3047 -0.2183
  360MOL0     C48487   7.644   2.707   1.836  0.5439 -0.0434  0.7558
  360MOL0     C48488   7.672   2.643   1.968 -0.2074  0.1187  0.3241
  360MOL0     O48489   7.796   2.695   2.030  0.1393  0.4736  0.2268
  360MOL0     C48490   7.919   2.653   1.993  1.0174  1.1660 -0.4203
  360MOL0     C48491   7.952   2.566   1.890  0.3953  0.0591  0.3000
  360MOL0     C48492   8.087   2.542   1.859 -0.4139  0.0195  0.4782
  360MOL0     C48493   8.193   2.596   1.926  0.2147  1.1649  0.4876
  360MOL0     C48494   8.338   2.566   1.896  0.0898 -0.7643 -0.0354
  360MOL0     O48495   8.436   2.615   1.974 -0.1614  0.1343 -0.3180
  360MOL0     C48496   8.567   2.575   1.986 -0.9684  0.7046  0.4912
  360MOL0     C48497   8.657   2.653   2.060  0.1422  0.0146  0.4988
  360MOL0     C48498   8.787   2.619   2.090  0.0368  0.5738  0.3682
  360MOL0     C48499   8.836   2.497   2.053  0.4080 -0.0439  0.2170
  360MOL0     O48500   8.969   2.459   2.070 -0.4476  0.4125 -0.3222
  360MOL0     C48501   9.061   2.563   2.100  0.2930  0.2139  0.6882
  360MOL0     C48502   9.198   2.505   2.094 -0.2841 -0.5201 -0.6270
  360MOL0     C48503   9.311   2.606   2.125 -0.8363 -0.7115 -0.1368
  360MOL0     C48504   9.441   2.526   2.131 -0.6449  1.0735  0.4855
  360MOL0     C48505   9.555   2.624   2.167  0.3537  0.7627 -0.7515
  360MOL0     C48506   9.683   2.538   2.197 -0.5117 -0.8252 -0.1233
  360MOL0     C48507   9.791   2.629   2.259 -1.1049 -0.2873  0.0057
  360MOL0     C48508   9.922   2.557   2.264 -0.4264  0.3299 -0.6078
  360MOL0    Cl48509  10.032   2.688   2.345 -0.1134 -0.1408 -0.0469
  360MOL0     C48510   8.753   2.417   1.976 -0.0371 -0.4917  0.3689
  360MOL0     C48511   8.620   2.453   1.942 -0.3094 -0.2829 -0.8580
  360MOL0     O48512   8.361   2.494   1.797 -0.5628 -0.5106 -0.3927
  360MOL0     C48513   8.160   2.669   2.038 -0.6832 -0.9987  0.1123
  360MOL0     C48514   8.028   2.706   2.060 -0.2788  0.3650  0.5435
  360MOL0     N48515   7.601   2.787   1.529  1.5522 -0.3297  0.0877
  360MOL0     N48516   7.497   2.746   1.463 -0.0145  0.5922  0.1040
  360MOL0     C48517   6.414   3.046   1.799  0.0392  0.9915  0.3479
  360MOL0     C48518   6.320   3.140   1.848  1.4309 -0.1610 -1.1695
  360MOL0     C48519   6.128   3.422   2.124  0.9251  1.1196  0.4830
  360MOL0     C48520   5.988   3.394   2.123 -0.2365  0.5380  0.9651
  360MOL0     C48521   5.894   3.472   2.198 -0.4834  1.1935  1.7058
  360MOL0     C48522   5.937   3.585   2.274  0.2119  1.0518  0.3925
  360MOL0     O48523   5.850   3.655   2.344 -0.3250 -0.7426  0.1344
  360MOL0     C48524   5.743   3.728   2.280 -0.7682  0.0969  0.2013
  360MOL0     C48525   5.606   3.677   2.327  0.4910  0.6612 -0.0939
  360MOL0     C48526   5.497   3.777   2.294  0.9710  0.0956  0.3868
  360MOL0     C48527   5.364   3.705   2.278 -0.0634  0.7296  0.8155
  360MOL0     C48528   5.345   3.652   2.141  0.1148  0.0472 -0.7211
  360MOL0     C48529   5.336   3.604   2.032  0.5996 -0.8844  0.5783
  360MOL0     C48530   6.074   3.604   2.288 -0.0958  1.1883  0.8146
  360MOL0     C48531   6.167   3.523   2.218  0.4950 -0.6994  0.3052
  360MOL0     C48532   6.306   3.544   2.255 -1.0875 -0.4790  0.2339
  360MOL0     H48533   6.261   2.973   2.151 -0.1457 -0.2127 -0.1907
  360MOL0     H48534   6.363   2.799   2.032 -0.1521  0.2721  0.5795
  360MOL0     H48535   6.477   2.804   1.603 -0.2359 -0.1236 -1.5454
  360MOL0     H48536   6.602   2.930   1.650 -0.4274 -0.1271  1.6670
  360MOL0     H48537   6.607   2.629   1.692  1.0654 -0.8947 -1.4125
  360MOL0     H48538   6.744   2.739   1.729 -0.1906 -1.0671  0.4235
  360MOL0     H48539   6.727   2.819   1.473  1.4450 -1.4472 -2.7034
  360MOL0     H48540   6.613   2.698   1.458 -2.3164  3.1892  0.7235
  360MOL0     H48541   6.781   2.529   1.532  0.4905 -0.3002 -0.6954
  360MOL0     H48542   6.803   2.605   1.377 -3.4748  1.6488 -0.3987
  360MOL0     H48543   6.979   2.777   1.494 -1.3966  0.6884 -0.0971
  360MOL0     H48544   6.964   2.662   1.633  0.7261  0.2029 -0.5094
  360MOL0     H48545   7.041   2.487   1.492  3.2951 -1.0154 -1.7284
  360MOL0     H48546   7.067   2.611   1.358  1.5188  0.1270 -1.2747
  360MOL0     H48547   7.274   2.557   1.478 -1.2324 -0.8217  0.1282
  360MOL0     H48548   7.205   2.624   1.629 -0.3160  1.0267  0.1827
  360MOL0     H48549   7.232   2.789   1.366 -0.2969 -2.1482  0.0078
  360MOL0     H48550   7.187   2.858   1.515  0.6340  1.7778  0.0655
  360MOL0     H48551   7.355   2.955   1.675 -0.6178 -1.6048 -0.2015
  360MOL0     H48552   7.752   2.933   1.697  0.0119 -3.7430  2.1850
  360MOL0     H48553   7.619   3.039   1.748 -1.0894  0.2086 -0.9560
  360MOL0     H48554   7.735   2.899   1.910 -1.1717  3.7462 -2.1115
  360MOL0     H48555   7.552   2.884   1.918 -1.4648 -2.7625 -0.2606
  360MOL0     H48556   7.724   2.678   1.768 -1.4517  0.3559 -1.9183
  360MOL0     H48557   7.556   2.657   1.793 -0.3032  0.6017  1.7054
  360MOL0     H48558   7.680   2.534   1.965 -2.1581 -0.2855  3.7714
  360MOL0     H48559   7.593   2.657   2.042 -0.8874  1.9404 -0.6889
  360MOL0     H48560   7.883   2.516   1.823  2.2428 -0.7377 -1.1256
  360MOL0     H48561   8.113   2.470   1.783  0.1674  0.1537  0.5500
  360MOL0     H48562   8.628   2.753   2.090  0.3001 -0.3761  2.0745
  360MOL0     H48563   8.850   2.693   2.137 -0.5271  1.1669  0.2112
  360MOL0     H48564   9.049   2.639   2.023 -0.9860 -0.4050  0.2577
  360MOL0     H48565   9.045   2.612   2.197  0.6009  0.2350  0.7305
  360MOL0     H48566   9.189   2.426   2.169  0.1424 -0.3330 -0.3735
  360MOL0     H48567   9.220   2.457   1.998  1.4571  3.6277 -2.5384
  360MOL0     H48568   9.318   2.682   2.047  1.4771  0.3017  0.9726
  360MOL0     H48569   9.305   2.655   2.223 -0.7158  0.4513 -0.6988
  360MOL0     H48570   9.455   2.483   2.032 -0.3430  1.1110  0.5112
  360MOL0     H48571   9.434   2.443   2.203  2.0353  1.3269  1.1689
  360MOL0     H48572   9.526   2.687   2.252 -1.0224  1.8517 -1.9697
  360MOL0     H48573   9.569   2.690   2.081  0.6204 -0.2300 -1.4872
  360MOL0     H48574   9.658   2.455   2.263 -0.0103  0.3209  1.5609
  360MOL0     H48575   9.726   2.506   2.102 -0.9922 -1.3870 -0.1602
  360MOL0     H48576   9.769   2.659   2.362 -1.1037  1.3197 -0.4444
  360MOL0     H48577   9.805   2.720   2.201 -1.1746 -0.8486 -0.9000
  360MOL0     H48578   9.903   2.474   2.333 -0.3781  0.9798  0.1988
  360MOL0     H48579   9.951   2.529   2.163 -1.0250  0.4615 -0.8241
  360MOL0     H48580   8.794   2.323   1.940 -0.2494 -2.8904  5.5356
  360MOL0     H48581   8.559   2.388   1.881  0.5343 -0.3122 -1.6943
  360MOL0     H48582   8.240   2.719   2.092 -1.3318  2.5534 -1.8872
  360MOL0     H48583   8.010   2.783   2.134  2.9885  1.2359  0.6093
  360MOL0     H48584   6.454   3.086   1.707 -0.7528  0.3195 -0.2999
  360MOL0     H48585   6.312   3.233   1.793  0.4842  0.3434 -0.2043
  360MOL0     H48586   5.941   3.313   2.069 -0.8553 -0.6123  3.1085
  360MOL0     H48587   5.786   3.464   2.200 -0.5732 -1.8187 -2.3805
  360MOL0     H48588   5.757   3.702   2.175 -0.0198  1.5838 -0.0849
  360MOL0     H48589   5.749   3.837   2.291  0.6075  0.0695 -0.0948
  360MOL0     H48590   5.610   3.658   2.435 -2.4472  1.8698  0.3099
  360MOL0     H48591   5.590   3.576   2.288 -1.9398  1.0057 -0.0929
  360MOL0     H48592   5.519   3.830   2.201 -1.3281 -0.3771 -0.4890
  360MOL0     H48593   5.478   3.849   2.374  2.1283  0.4279  0.3783
  360MOL0     H48594   5.354   3.628   2.354  0.9305 -0.3327 -0.0828
  360MOL0     H48595   5.285   3.777   2.303  0.5006  2.4024 -1.7844
  360MOL0     H48596   5.336   3.567   1.931 -0.8638  2.1067 -0.6361
  360MOL0     H48597   6.118   3.675   2.358  2.1358  2.6328 -1.8256
  360MOL0     H48598   6.339   3.452   2.304 -1.9102 -2.1764 -2.1895
  360MOL0     H48599   6.366   3.580   2.171 -1.5236  2.1007  0.9432
  360MOL0     H48600   6.324   3.623   2.329 -0.7529  0.1782 -0.5244
  361MOL0     O48601   4.922  11.242   4.678 -0.0015 -0.0431 -0.4742
  361MOL0     C48602   4.867  11.132   4.680 -0.6284 -0.4185 -0.7333
  361MOL0     O48603   4.923  11.012   4.735 -0.4493  0.2818  0.2457
  361MOL0     C48604   5.053  11.013   4.779  0.5138  0.0903  0.0764
  361MOL0     C48605   5.083  10.979   4.914 -0.9954 -0.0940  0.3286
  361MOL0     C48606   5.211  10.978   4.965  0.8074 -0.0886 -0.8154
  361MOL0     C48607   5.317  11.017   4.887 -0.2212 -0.6552  0.0234
  361MOL0     O48608   5.444  11.024   4.938  0.4483 -0.6036  0.1142
  361MOL0     C48609   5.521  11.131   4.895 -0.1222  0.0851  0.1302
  361MOL0     C48610   5.665  11.104   4.952 -0.0348 -0.5390  0.0101
  361MOL0     C48611   5.772  11.194   4.895  0.7175 -0.0674 -0.3033
  361MOL0     C48612   5.822  11.192   4.746  0.1482  0.5336 -0.8752
  361MOL0     C48613   5.900  11.317   4.702  0.6352  1.0768  0.0187
  361MOL0     C48614   6.016  11.360   4.802  0.3564  0.0979  0.5818
  361MOL0     C48615   6.078  11.488   4.747 -0.6950  0.4510 -0.0950
  361MOL0     C48616   6.168  11.552   4.851 -0.1310  0.0685 -0.6190
  361MOL0     N48617   6.287  11.476   4.889 -0.0205 -0.0938 -0.5531
  361MOL0     C48618   6.375  11.519   4.982 -0.1334 -0.1159  0.6011
  361MOL0     C48619   6.462  11.419   4.995 -0.0348  1.3701  0.0867
  361MOL0     C48620   6.575  11.410   5.089 -0.2497  0.0946  0.0830
  361MOL0     C48621   6.682  11.511   5.054 -1.1854 -0.8440 -0.3153
  361MOL0     C48622   6.751  11.477   4.916 -0.8425 -0.7193  0.2282
  361MOL0     C48623   6.837  11.592   4.860  0.1175 -0.1719  0.3634
  361MOL0     O48624   6.940  11.626   4.950  0.2683  0.2046 -0.5639
  361MOL0     C48625   7.060  11.563   4.956  0.7638 -0.1005  0.1845
  361MOL0     C48626   7.147  11.617   5.046 -1.1385  0.0364  0.3545
  361MOL0     C48627   7.282  11.569   5.054  0.4533 -0.4351  0.5153
  361MOL0     C48628   7.324  11.453   4.989  0.5252 -0.0752  0.4597
  361MOL0     C48629   7.463  11.412   4.994 -1.0044  0.7001 -0.5892
  361MOL0     O48630   7.483  11.280   4.986 -0.0523 -0.1384 -0.1760
  361MOL0     C48631   7.613  11.245   5.002  0.2599  0.2018  0.0016
  361MOL0     C48632   7.667  11.244   5.137  0.3119  0.3351 -0.5485
  361MOL0     C48633   7.804  11.222   5.156 -0.5783  0.0336 -0.4901
  361MOL0     C48634   7.891  11.209   5.047 -0.6308  0.6305  1.3520
  361MOL0     O48635   8.020  11.191   5.073  0.4568  0.3802 -0.4456
  361MOL0     C48636   8.111  11.145   4.971 -0.6734  0.7519 -0.6440
  361MOL0     C48637   8.248  11.131   5.038 -1.4435  0.1177  0.3086
  361MOL0     C48638   8.368  11.087   4.950  0.0738 -0.1847  0.0301
  361MOL0     C48639   8.488  11.148   5.017 -0.3853  0.4940  0.1336
  361MOL0     C48640   8.613  11.117   4.939 -0.3418  0.6108  0.5151
  361MOL0     C48641   8.740  11.154   5.012 -0.9376  0.2665  0.4429
  361MOL0     C48642   8.869  11.156   4.910  0.1855  0.3191 -0.4537
  361MOL0     C48643   8.989  11.195   4.992  0.5975  0.5337 -0.0946
  361MOL0    Cl48644   9.037  11.070   5.108  0.4225 -0.0909  0.3416
  361MOL0     C48645   7.840  11.220   4.918  0.4023  1.2640 -0.4464
  361MOL0     C48646   7.699  11.236   4.889 -1.4272  0.1055 -0.9490
  361MOL0     O48647   7.549  11.502   5.012 -0.4285  0.6710 -0.0300
  361MOL0     C48648   7.234  11.396   4.897  0.0835  0.7450 -0.0449
  361MOL0     C48649   7.101  11.452   4.879 -0.4910 -0.6890  0.6993
  361MOL0     N48650   6.435  11.318   4.907  0.1471  0.3999 -0.4442
  361MOL0     N48651   6.331  11.358   4.839 -0.5148 -0.7260 -0.2662
  361MOL0     C48652   5.284  11.039   4.748  0.9173 -0.4212 -0.1269
  361MOL0     C48653   5.154  11.029   4.692 -0.6571  0.3776 -0.7197
  361MOL0     C48654   4.721  11.129   4.653  0.1416 -0.2451  0.4318
  361MOL0     C48655   4.654  11.021   4.714  0.1649  0.7957  0.2228
  361MOL0     C48656   4.516  11.006   4.697 -0.0047  0.1053  0.0926
  361MOL0     C48657   4.440  11.102   4.630  0.2572  0.1148 -0.4304
  361MOL0     O48658   4.301  11.086   4.616 -0.6215 -0.1605  0.0212
  361MOL0     C48659   4.228  11.199   4.564 -0.0610  0.7014 -0.7848
  361MOL0     C48660   4.074  11.179   4.565  0.0675  0.1719 -0.1044
  361MOL0     C48661   4.009  11.089   4.465 -0.6858 -0.1699  0.2321
  361MOL0     C48662   4.025  10.936   4.507  0.5256  0.5803 -0.0332
  361MOL0     C48663   3.965  10.853   4.397 -1.0526 -0.0416  0.0162
  361MOL0     C48664   3.908  10.783   4.323 -0.2205 -0.0896  0.8741
  361MOL0     C48665   4.504  11.222   4.587  0.3494 -0.3048  0.7613
  361MOL0     C48666   4.647  11.229   4.580 -0.0544  0.7737 -0.3460
  361MOL0     C48667   4.704  11.359   4.535  0.8409  0.1435  0.9748
  361MOL0     H48668   5.003  10.941   4.976  0.1015 -0.5212  1.5279
  361MOL0     H48669   5.228  10.944   5.067  1.4107  3.4145  0.4053
  361MOL0     H48670   5.524  11.137   4.786 -0.5861  3.5195  0.1940
  361MOL0     H48671   5.470  11.220   4.932 -1.3092 -0.0483 -1.1475
  361MOL0     H48672   5.691  10.999   4.934 -0.7400 -1.1335  2.0987
  361MOL0     H48673   5.666  11.108   5.061  0.9152 -0.7597  0.0213
  361MOL0     H48674   5.854  11.184   4.967 -0.0482 -1.4313  0.4038
  361MOL0     H48675   5.728  11.293   4.907 -1.5105 -1.2216  1.9538
  361MOL0     H48676   5.886  11.104   4.733  0.4295  0.4897  0.6911
  361MOL0     H48677   5.738  11.180   4.677  0.1224 -0.0418 -0.7455
  361MOL0     H48678   5.934  11.303   4.599  0.5767  1.6788 -0.0860
  361MOL0     H48679   5.830  11.401   4.701 -2.4195 -1.2841  0.4439
  361MOL0     H48680   5.972  11.387   4.899 -0.0799  1.2478  0.0805
  361MOL0     H48681   6.089  11.279   4.814  1.5853  1.1089  0.2039
  361MOL0     H48682   6.000  11.563   4.730  0.0114  1.0551 -0.6916
  361MOL0     H48683   6.133  11.463   4.656  2.5395  3.3160  0.8474
  361MOL0     H48684   6.198  11.651   4.816  0.3980 -1.2325 -4.2373
  361MOL0     H48685   6.110  11.577   4.941  3.3680  3.3158  1.0056
  361MOL0     H48686   6.369  11.615   5.033 -0.4446  0.8385 -1.1714
  361MOL0     H48687   6.530  11.431   5.186  0.4512  0.6886  0.2874
  361MOL0     H48688   6.617  11.309   5.086  5.5388  2.1732 -1.5106
  361MOL0     H48689   6.638  11.611   5.053 -4.3598 -2.0214  2.3534
  361MOL0     H48690   6.764  11.514   5.125  1.2344 -1.8150 -2.8665
  361MOL0     H48691   6.683  11.441   4.838  2.1537 -3.3516 -1.3770
  361MOL0     H48692   6.816  11.390   4.931  1.2915  0.8372  0.4762
  361MOL0     H48693   6.777  11.681   4.838 -1.6193 -0.6906  2.6071
  361MOL0     H48694   6.865  11.556   4.760 -1.2002 -1.2498  0.3578
  361MOL0     H48695   7.112  11.696   5.112 -0.0310  0.9951 -0.1675
  361MOL0     H48696   7.354  11.614   5.123  1.2934 -1.5270  0.3727
  361MOL0     H48697   7.602  11.253   5.224  2.3321 -1.4934  1.2766
  361MOL0     H48698   7.846  11.222   5.256  0.2741  1.9904 -0.8012
  361MOL0     H48699   8.082  11.054   4.919  0.1645  0.9389 -1.4645
  361MOL0     H48700   8.127  11.227   4.901 -1.1696  1.2352 -0.1976
  361MOL0     H48701   8.257  11.236   5.067  1.3209  0.5652 -1.7366
  361MOL0     H48702   8.234  11.060   5.120  0.5100 -1.7778 -0.8916
  361MOL0     H48703   8.373  10.980   4.930  3.4096  0.2188 -2.1104
  361MOL0     H48704   8.369  11.126   4.847  3.5850  0.0177  0.0429
  361MOL0     H48705   8.502  11.109   5.119  2.0817  0.6412 -0.0790
  361MOL0     H48706   8.484  11.256   5.027 -0.0381  0.3321  2.7981
  361MOL0     H48707   8.608  11.177   4.848  0.1540 -2.7090 -1.8732
  361MOL0     H48708   8.612  11.011   4.912 -0.0131  1.4642 -3.4204
  361MOL0     H48709   8.727  11.254   5.054 -0.8114  1.0881 -1.4098
  361MOL0     H48710   8.759  11.092   5.100  1.4470 -1.1122 -0.9500
  361MOL0     H48711   8.855  11.222   4.823 -1.6814 -0.2783 -0.6536
  361MOL0     H48712   8.886  11.056   4.869  1.3930  0.6893 -0.9157
  361MOL0     H48713   9.070  11.226   4.926 -0.0189  4.2160  0.6740
  361MOL0     H48714   8.959  11.289   5.040 -1.8107 -0.6757  0.9685
  361MOL0     H48715   7.906  11.203   4.833  1.7237  0.7615  0.6528
  361MOL0     H48716   7.666  11.245   4.786  0.9749 -1.0108 -1.8879
  361MOL0     H48717   7.254  11.314   4.829 -1.3668 -1.2501  1.7795
  361MOL0     H48718   7.035  11.415   4.800 -1.9424  3.7280 -0.4648
  361MOL0     H48719   5.362  11.071   4.681 -0.2673  0.8739 -0.9312
  361MOL0     H48720   5.129  11.033   4.587  0.0177  0.6518 -0.8703
  361MOL0     H48721   4.710  10.940   4.757 -0.4402 -0.5985 -1.4755
  361MOL0     H48722   4.469  10.913   4.727  2.0336 -0.9831  0.0897
  361MOL0     H48723   4.263  11.218   4.463 -1.2475  0.1535 -1.3150
  361MOL0     H48724   4.241  11.290   4.624 -3.2811  0.9523 -0.2897
  361MOL0     H48725   4.038  11.281   4.549  0.2420  0.4403  1.1559
  361MOL0     H48726   4.041  11.151   4.666 -1.7456  0.7198 -0.5004
  361MOL0     H48727   4.065  11.112   4.374  0.0822 -1.4744  0.3435
  361MOL0     H48728   3.902  11.111   4.459 -0.4427  1.1241  0.3117
  361MOL0     H48729   4.129  10.911   4.533  0.5543  0.2612 -0.4460
  361MOL0     H48730   3.958  10.928   4.593 -1.8931  4.3796 -1.3122
  361MOL0     H48731   3.863  10.716   4.253  2.4352 -2.9469  1.6790
  361MOL0     H48732   4.448  11.309   4.556 -0.7422  0.0120  3.3289
  361MOL0     H48733   4.728  11.425   4.619  4.0355  0.7781 -0.2583
  361MOL0     H48734   4.799  11.341   4.482 -1.1719 -2.1359 -2.1984
  361MOL0     H48735   4.635  11.402   4.461  1.7735 -0.7410 -0.4675
  362MOL0     O48736   7.455   1.931   9.481  0.5867 -0.1234 -0.0555
  362MOL0     C48737   7.444   1.813   9.491 -1.3275 -0.4827 -0.0515
  362MOL0     O48738   7.542   1.719   9.473  0.0017  0.0831 -0.3113
  362MOL0     C48739   7.665   1.767   9.447 -0.5599 -0.3829  0.2196
  362MOL0     C48740   7.728   1.854   9.540 -0.0232 -0.4827 -0.1206
  362MOL0     C48741   7.860   1.897   9.526  0.7836 -0.0908 -0.1721
  362MOL0     C48742   7.925   1.867   9.406  0.8176 -1.2509  0.1713
  362MOL0     O48743   8.057   1.895   9.394  0.6268 -0.5726  0.4827
  362MOL0     C48744   8.081   2.019   9.328  0.3832  0.0216 -0.5963
  362MOL0     C48745   8.235   2.035   9.308  0.5803  0.1631 -0.7591
  362MOL0     C48746   8.268   2.183   9.328  0.6308 -0.4976  0.3477
  362MOL0     C48747   8.415   2.214   9.305  0.1325  0.4209 -0.1057
  362MOL0     C48748   8.461   2.342   9.377  0.9678  0.0599  0.5771
  362MOL0     C48749   8.608   2.377   9.347 -0.0838 -0.3662  0.1313
  362MOL0     C48750   8.707   2.345   9.464 -0.9852  0.5045  0.0843
  362MOL0     C48751   8.843   2.391   9.415  0.6369  0.3026 -0.1358
  362MOL0     N48752   8.948   2.378   9.513  0.5466 -0.7676 -0.3787
  362MOL0     C48753   9.061   2.463   9.512 -0.8809  0.7158  0.5594
  362MOL0     C48754   9.143   2.414   9.609  0.1282  0.9755  0.5070
  362MOL0     C48755   9.279   2.470   9.643 -0.2218 -0.1718 -0.0941
  362MOL0     C48756   9.383   2.447   9.542 -0.5650 -0.4865  0.9389
  362MOL0     C48757   9.418   2.298   9.535  1.1893  0.0268 -0.1843
  362MOL0     C48758   9.511   2.246   9.640  0.3402 -0.6195 -0.1594
  362MOL0     O48759   9.639   2.307   9.648 -0.7678  0.3252  0.9305
  362MOL0     C48760   9.741   2.260   9.564 -0.2674  0.5657 -0.2456
  362MOL0     C48761   9.869   2.279   9.614 -0.5184 -0.0273  0.3689
  362MOL0     C48762   9.980   2.216   9.554 -0.3123  0.4423 -0.8843
  362MOL0     C48763   9.970   2.130   9.447 -0.2497  0.0931 -1.0067
  362MOL0     C48764  10.090   2.072   9.391  0.1165  0.4924 -0.1678
  362MOL0     O48765  10.067   1.962   9.315 -0.7382 -0.5838 -0.4535
  362MOL0     C48766  10.185   1.910   9.260 -0.4777 -0.2829  0.1940
  362MOL0     C48767  10.234   1.780   9.292  0.1363 -0.0426  0.0946
  362MOL0     C48768  10.335   1.715   9.225 -0.0765 -0.0173 -0.2849
  362MOL0     C48769  10.403   1.779   9.123  0.0563  0.4002  0.4845
  362MOL0     O48770  10.512   1.729   9.061  0.1464  0.0186 -0.1679
  362MOL0     C48771  10.491   1.611   8.982 -1.1743 -0.0566 -0.6898
  362MOL0     C48772  10.607   1.614   8.879  0.4258  0.3393 -1.0951
  362MOL0     C48773  10.618   1.474   8.805  0.0602  0.3063  0.4043
  362MOL0     C48774  10.746   1.468   8.724 -0.4941  0.1267  0.0120
  362MOL0     C48775  10.785   1.334   8.657  0.3042 -0.2183 -0.1076
  362MOL0     C48776  10.667   1.278   8.579  0.2174 -0.5126  0.1433
  362MOL0     C48777  10.723   1.182   8.484  0.3922  0.5196  0.1905
  362MOL0     C48778  10.611   1.100   8.417  0.7773 -0.0241 -0.1010
  362MOL0    Cl48779  10.504   1.023   8.538  0.0709  0.1421  0.3085
  362MOL0     C48780  10.348   1.893   9.073  0.0939  0.1795  0.8016
  362MOL0     C48781  10.237   1.961   9.141  0.2776  0.3327  0.4159
  362MOL0     O48782  10.196   2.120   9.424  0.5376  0.2816  0.0166
  362MOL0     C48783   9.843   2.112   9.393  0.0385  0.3134  0.0863
  362MOL0     C48784   9.735   2.178   9.455 -0.2722  0.0734 -0.4233
  362MOL0     N48785   9.084   2.297   9.657 -0.0691  0.0168 -0.1946
  362MOL0     N48786   8.966   2.278   9.604 -0.4396  0.0237  0.7871
  362MOL0     C48787   7.864   1.789   9.306 -0.2879  0.0736 -0.2580
  362MOL0     C48788   7.737   1.739   9.330  0.3815  0.6939 -0.0202
  362MOL0     C48789   7.307   1.759   9.504 -0.2556 -1.0237 -0.4009
  362MOL0     C48790   7.286   1.625   9.470 -0.5887 -0.2889  0.0788
  362MOL0     C48791   7.155   1.576   9.485 -0.0565  0.4063  0.1978
  362MOL0     C48792   7.045   1.652   9.512  0.3170  0.3345 -1.1493
  362MOL0     O48793   6.925   1.590   9.501  0.4070  0.1329  0.1766
  362MOL0     C48794   6.863   1.567   9.627 -0.4207 -0.6680 -1.0391
  362MOL0     C48795   6.715   1.531   9.601  0.4266  0.0283 -0.1664
  362MOL0     C48796   6.711   1.396   9.529  0.0033 -0.6379 -0.1045
  362MOL0     C48797   6.565   1.339   9.520  0.0890  0.3170  0.3808
  362MOL0     C48798   6.503   1.307   9.649  0.2823 -0.1914 -1.1756
  362MOL0     C48799   6.443   1.291   9.749 -1.2404  1.2109  0.4870
  362MOL0     C48800   7.059   1.787   9.530 -0.0805 -0.1750 -0.2245
  362MOL0     C48801   7.192   1.841   9.540 -0.0164 -0.2760  0.0288
  362MOL0     C48802   7.199   1.979   9.601  0.8373 -0.2076 -1.0814
  362MOL0     H48803   7.685   1.882   9.636  0.4111 -1.1110  0.2753
  362MOL0     H48804   7.907   1.966   9.596 -2.8457  1.1543  1.3205
  362MOL0     H48805   8.047   2.021   9.224  2.4969 -2.9094 -1.4825
  362MOL0     H48806   8.025   2.096   9.382 -2.7491 -1.2265 -1.7835
  362MOL0     H48807   8.268   1.993   9.213  1.0884 -0.9046 -0.1323
  362MOL0     H48808   8.291   1.972   9.378  0.9652  0.6802 -0.5970
  362MOL0     H48809   8.246   2.214   9.431  1.4648  0.1292  0.3448
  362MOL0     H48810   8.209   2.245   9.259  0.8471  0.0219  0.6215
  362MOL0     H48811   8.477   2.131   9.342  0.1070  1.0892  1.4940
  362MOL0     H48812   8.435   2.229   9.198  3.1068 -1.0646  0.1313
  362MOL0     H48813   8.406   2.434   9.353  3.3154  1.3001 -0.3990
  362MOL0     H48814   8.440   2.336   9.484  0.4666  0.9771  0.5423
  362MOL0     H48815   8.644   2.321   9.260  1.5214  2.1351 -0.9318
  362MOL0     H48816   8.614   2.485   9.331  0.3023 -0.4169 -0.0552
  362MOL0     H48817   8.709   2.236   9.471 -1.4223  0.3882 -1.2241
  362MOL0     H48818   8.690   2.388   9.562 -0.6531 -0.5125  0.6085
  362MOL0     H48819   8.870   2.329   9.329  0.8562 -3.1930  2.2748
  362MOL0     H48820   8.836   2.499   9.399  0.3545  0.3961  0.5790
  362MOL0     H48821   9.091   2.549   9.453  0.6122  0.3895  0.7996
  362MOL0     H48822   9.274   2.579   9.651  1.3011 -0.0531 -0.5864
  362MOL0     H48823   9.298   2.435   9.745 -0.0371 -1.0012 -0.4069
  362MOL0     H48824   9.352   2.502   9.453  0.9990 -1.8856 -0.5627
  362MOL0     H48825   9.476   2.500   9.563 -2.2032  2.5348  1.0814
  362MOL0     H48826   9.469   2.285   9.439 -0.6360 -0.8261 -1.0937
  362MOL0     H48827   9.326   2.239   9.531  1.9086 -1.2900  1.5569
  362MOL0     H48828   9.521   2.137   9.635  2.1408 -0.5739  1.4181
  362MOL0     H48829   9.467   2.254   9.740 -2.0859 -2.5917 -0.9558
  362MOL0     H48830   9.881   2.336   9.706 -0.2950 -0.5472  0.6629
  362MOL0     H48831  10.081   2.230   9.590 -0.5282 -2.5818  1.1918
  362MOL0     H48832  10.175   1.732   9.369 -0.7541 -0.8372 -1.0540
  362MOL0     H48833  10.357   1.610   9.239  2.2363  0.7840  3.3630
  362MOL0     H48834  10.502   1.518   9.039 -0.4188  1.4768  1.8190
  362MOL0     H48835  10.395   1.620   8.930 -0.9347  1.4306 -0.9178
  362MOL0     H48836  10.590   1.694   8.806  0.1086  0.1026 -1.2824
  362MOL0     H48837  10.705   1.636   8.923  0.1366  1.0097 -0.7775
  362MOL0     H48838  10.616   1.390   8.875  0.1597 -2.1687 -2.3860
  362MOL0     H48839  10.536   1.465   8.734 -0.6879  2.3952  0.9220
  362MOL0     H48840  10.823   1.506   8.792 -1.4099 -0.9838  1.7590
  362MOL0     H48841  10.757   1.543   8.645  0.0966  2.5644  2.2531
  362MOL0     H48842  10.812   1.265   8.738 -1.9984  1.2115  1.9881
  362MOL0     H48843  10.872   1.354   8.593  1.3364 -0.1860  1.2584
  362MOL0     H48844  10.593   1.231   8.644 -0.5978 -0.1482 -0.4949
  362MOL0     H48845  10.605   1.354   8.531  0.1924 -0.6762 -0.0844
  362MOL0     H48846  10.785   1.108   8.536 -0.6242 -1.2174 -0.9773
  362MOL0     H48847  10.785   1.228   8.406 -0.0996 -0.6784 -0.9461
  362MOL0     H48848  10.552   1.174   8.362 -1.1282 -2.0758 -0.9587
  362MOL0     H48849  10.645   1.032   8.339  1.9663  2.0520 -1.5002
  362MOL0     H48850  10.390   1.942   8.986  1.4831 -0.7744  0.9054
  362MOL0     H48851  10.190   2.053   9.108 -1.5259 -1.1680 -1.4975
  362MOL0     H48852   9.832   2.049   9.306 -1.3512 -0.7887  1.0191
  362MOL0     H48853   9.638   2.150   9.413 -1.0296  2.6425 -0.5167
  362MOL0     H48854   7.922   1.768   9.217 -1.9592 -1.8829 -0.9582
  362MOL0     H48855   7.690   1.669   9.261 -1.2844 -0.0837  1.8036
  362MOL0     H48856   7.367   1.557   9.442 -1.6480 -3.2621  3.4097
  362MOL0     H48857   7.155   1.468   9.472  1.6059  0.0667  2.3990
  362MOL0     H48858   6.861   1.660   9.684 -2.4007 -1.3366  0.0744
  362MOL0     H48859   6.914   1.486   9.679  0.8660  0.5253 -0.3664
  362MOL0     H48860   6.670   1.610   9.540 -1.9716 -1.4211 -0.3555
  362MOL0     H48861   6.663   1.529   9.696  1.6861 -1.8581  0.5484
  362MOL0     H48862   6.764   1.321   9.589  0.0682 -0.7665 -0.3214
  362MOL0     H48863   6.759   1.407   9.431  2.2642  0.1639  1.0196
  362MOL0     H48864   6.498   1.406   9.465  1.6357  1.1139 -0.5930
  362MOL0     H48865   6.592   1.244   9.474  0.0131  0.0580  0.8598
  362MOL0     H48866   6.371   1.270   9.825 -2.6649  2.6909 -0.3714
  362MOL0     H48867   6.977   1.852   9.560  1.8151  1.9022  0.8142
  362MOL0     H48868   7.284   2.002   9.666  0.1541 -0.5263 -0.0515
  362MOL0     H48869   7.195   2.047   9.515 -1.3354  1.3934  0.1699
  362MOL0     H48870   7.103   2.000   9.651  0.5149 -3.7889  0.0446
  363MOL0     O48871   6.916   3.149   1.630  0.2269 -0.0966  0.1882
  363MOL0     C48872   6.876   3.168   1.519  0.5998 -0.5031 -0.6263
  363MOL0     O48873   6.933   3.137   1.400 -0.1703  0.1339  0.3455
  363MOL0     C48874   7.065   3.146   1.377  0.2001  0.3120 -0.4703
  363MOL0     C48875   7.122   3.068   1.274 -0.0206 -0.5178  0.7359
  363MOL0     C48876   7.256   3.063   1.255  0.0658  0.8899  0.3868
  363MOL0     C48877   7.353   3.123   1.339  0.0447  0.1116  0.1107
  363MOL0     O48878   7.485   3.117   1.302 -0.0816  0.1503 -1.3043
  363MOL0     C48879   7.585   3.196   1.367 -0.4596  0.0803  0.3744
  363MOL0     C48880   7.714   3.134   1.326 -0.2894  0.8600 -0.0747
  363MOL0     C48881   7.844   3.214   1.354  0.4537  0.4940  0.1205
  363MOL0     C48882   7.871   3.217   1.507  0.6186  0.1622  0.1820
  363MOL0     C48883   7.986   3.307   1.535  0.2079 -0.0600  0.4454
  363MOL0     C48884   8.112   3.250   1.491  0.3043  1.0559 -0.3897
  363MOL0     C48885   8.237   3.303   1.561 -1.0066 -1.0013  1.0954
  363MOL0     C48886   8.244   3.449   1.528 -0.3378 -0.4114 -0.0909
  363MOL0     N48887   8.347   3.535   1.585  0.6499 -0.2101 -0.3396
  363MOL0     C48888   8.370   3.675   1.564  0.0593  0.9112 -0.3262
  363MOL0     C48889   8.491   3.704   1.620  0.0639 -0.3743  0.1810
  363MOL0     C48890   8.562   3.841   1.596  0.2200  0.3037 -0.9035
  363MOL0     C48891   8.691   3.854   1.673 -0.5688  0.6858 -0.8527
  363MOL0     C48892   8.760   3.996   1.664  0.2407  0.5430 -0.0491
  363MOL0     C48893   8.879   4.010   1.753  0.3904 -0.1173 -0.6703
  363MOL0     O48894   8.920   4.150   1.769  0.5607  0.1614 -0.7008
  363MOL0     C48895   9.023   4.173   1.852 -0.3438 -0.1096  0.5564
  363MOL0     C48896   9.072   4.095   1.957 -0.0918  0.4879  0.6967
  363MOL0     C48897   9.174   4.138   2.044  0.0504 -0.0423 -0.5602
  363MOL0     C48898   9.231   4.261   2.031  0.2395  0.1134  0.5559
  363MOL0     C48899   9.342   4.310   2.110 -0.4234 -0.3865  0.3931
  363MOL0     O48900   9.439   4.371   2.042 -0.2154 -0.3808  0.1522
  363MOL0     C48901   9.563   4.411   2.083 -0.2528  0.7792 -0.2099
  363MOL0     C48902   9.636   4.513   2.013 -1.1724 -0.7067  0.2236
  363MOL0     C48903   9.758   4.562   2.056  0.0181  0.3463  0.2994
  363MOL0     C48904   9.826   4.501   2.169  0.0509 -0.2640 -0.5435
  363MOL0     O48905   9.943   4.558   2.212  0.6548  0.2233 -0.0462
  363MOL0     C48906  10.044   4.469   2.259  0.1297  0.3723  0.1248
  363MOL0     C48907  10.169   4.556   2.281 -0.2577  0.2371 -0.3166
  363MOL0     C48908  10.303   4.472   2.293 -0.1830  0.0682 -0.2130
  363MOL0     C48909  10.428   4.557   2.310  1.0879  0.5403 -0.1842
  363MOL0     C48910  10.451   4.644   2.191  0.4310 -0.1697 -0.3140
  363MOL0     C48911  10.538   4.763   2.225  0.7320 -0.2725  0.0455
  363MOL0     C48912  10.684   4.728   2.211 -0.6138 -0.1389 -0.3117
  363MOL0     C48913  10.741   4.726   2.058  0.1203  1.0465  0.0468
  363MOL0    Cl48914  10.921   4.710   2.060 -0.0946  0.1427 -0.3938
  363MOL0     C48915   9.766   4.385   2.227  0.9361 -0.3262  1.1858
  363MOL0     C48916   9.634   4.351   2.188 -0.1413 -0.3001  0.1365
  363MOL0     O48917   9.342   4.299   2.230  0.3324 -0.4517 -0.1882
  363MOL0     C48918   9.188   4.341   1.919  0.0391 -0.0085 -0.4617
  363MOL0     C48919   9.086   4.295   1.836 -0.3502 -0.1428  0.5300
  363MOL0     N48920   8.533   3.595   1.691  0.3517 -0.1056 -0.3898
  363MOL0     N48921   8.451   3.490   1.669  0.0533  0.0488 -0.1442
  363MOL0     C48922   7.297   3.202   1.441 -0.9893  0.8406 -0.6167
  363MOL0     C48923   7.159   3.215   1.464  0.3062 -0.2490  0.9648
  363MOL0     C48924   6.727   3.210   1.507 -0.3872 -0.6965  1.1958
  363MOL0     C48925   6.667   3.197   1.383 -0.2076  0.9388 -0.8314
  363MOL0     C48926   6.537   3.234   1.350 -0.1995 -0.0419  0.1806
  363MOL0     C48927   6.468   3.305   1.444 -0.0099  0.2057  0.2557
  363MOL0     O48928   6.337   3.331   1.406 -0.0535 -0.0296 -0.4164
  363MOL0     C48929   6.232   3.312   1.499  0.4479 -0.2104 -0.1444
  363MOL0     C48930   6.096   3.333   1.434  0.2137 -0.6641 -0.4180
  363MOL0     C48931   6.006   3.450   1.499 -0.1452 -0.3848  0.9916
  363MOL0     C48932   5.870   3.387   1.516  0.5236  0.6479  0.4348
  363MOL0     C48933   5.864   3.282   1.619 -0.0021  0.0572 -0.1989
  363MOL0     C48934   5.861   3.201   1.716 -1.0136  0.2660 -0.7014
  363MOL0     C48935   6.522   3.319   1.577 -0.3175 -0.0044  0.5213
  363MOL0     C48936   6.653   3.277   1.608 -0.8687 -0.1328 -0.2102
  363MOL0     C48937   6.717   3.318   1.748  0.4676  0.1386 -0.3622
  363MOL0     H48938   7.049   3.013   1.214  1.7788 -0.4845 -1.6304
  363MOL0     H48939   7.291   3.005   1.170 -0.6313  1.1278 -0.0806
  363MOL0     H48940   7.587   3.299   1.331  2.6261  0.1553  0.4997
  363MOL0     H48941   7.585   3.197   1.476  1.3838 -2.7937  0.5091
  363MOL0     H48942   7.708   3.128   1.217 -1.8824  1.4408 -0.0383
  363MOL0     H48943   7.725   3.034   1.368  0.0167  1.1936  0.6457
  363MOL0     H48944   7.833   3.317   1.318  1.8710 -0.5555 -3.8308
  363MOL0     H48945   7.930   3.170   1.303 -0.6445 -0.0470 -1.3150
  363MOL0     H48946   7.779   3.258   1.550 -0.1487  1.6239 -2.6120
  363MOL0     H48947   7.878   3.115   1.548 -1.5329 -0.5771 -1.1190
  363MOL0     H48948   7.971   3.405   1.489  0.0496 -0.5091 -0.4884
  363MOL0     H48949   7.984   3.309   1.644 -0.0082 -0.2958  0.4482
  363MOL0     H48950   8.118   3.142   1.507 -0.8485  1.0253 -0.1306
  363MOL0     H48951   8.114   3.251   1.381 -1.1851  0.7629 -0.4410
  363MOL0     H48952   8.329   3.249   1.539  0.1695  1.0571  0.6273
  363MOL0     H48953   8.222   3.306   1.669  0.1094  0.2287  1.2503
  363MOL0     H48954   8.236   3.470   1.421 -1.0468 -1.2037 -0.2080
  363MOL0     H48955   8.157   3.500   1.571  1.2500  2.0796  0.3902
  363MOL0     H48956   8.314   3.737   1.495 -0.4290  2.1440  1.1243
  363MOL0     H48957   8.562   3.857   1.488 -1.9024  2.5976 -0.6547
  363MOL0     H48958   8.496   3.920   1.634 -0.8596 -1.2643  0.6145
  363MOL0     H48959   8.659   3.827   1.773 -3.6253 -3.1818 -2.6117
  363MOL0     H48960   8.764   3.779   1.640 -0.7509 -0.1131  0.5208
  363MOL0     H48961   8.689   4.073   1.693  0.7733  1.3225 -0.7755
  363MOL0     H48962   8.779   4.017   1.558 -1.5271 -0.7343 -0.6679
  363MOL0     H48963   8.961   3.950   1.712  0.3319  0.4442 -1.6138
  363MOL0     H48964   8.857   3.972   1.854  1.5238 -0.3774 -0.5128
  363MOL0     H48965   9.019   4.002   1.977 -1.1456  0.5994 -1.3227
  363MOL0     H48966   9.203   4.079   2.131 -2.0474  0.2540  0.4284
  363MOL0     H48967   9.590   4.572   1.934 -3.5160  0.7030  2.5066
  363MOL0     H48968   9.795   4.642   1.993 -1.9715  0.3925 -0.8894
  363MOL0     H48969  10.030   4.423   2.357 -0.2811  2.1492  0.9332
  363MOL0     H48970  10.051   4.393   2.180  1.9808  0.6404 -0.0078
  363MOL0     H48971  10.170   4.625   2.196  0.2611  2.0335  1.0872
  363MOL0     H48972  10.160   4.598   2.381  4.1777 -2.9032  1.7534
  363MOL0     H48973  10.288   4.393   2.368  0.0347 -0.2781 -0.5295
  363MOL0     H48974  10.310   4.411   2.202 -0.0745 -1.4885  0.7930
  363MOL0     H48975  10.510   4.485   2.316  1.8836  1.5502  1.7762
  363MOL0     H48976  10.415   4.608   2.406 -2.5370 -2.8938  1.4209
  363MOL0     H48977  10.359   4.694   2.161 -0.1951  0.2216  2.0446
  363MOL0     H48978  10.482   4.579   2.109 -0.8993 -1.5260  0.1989
  363MOL0     H48979  10.511   4.845   2.158  1.6979 -0.4069 -0.5308
  363MOL0     H48980  10.515   4.788   2.329  0.0950 -0.3106 -0.0839
  363MOL0     H48981  10.702   4.639   2.273 -0.8535 -0.1498 -0.2582
  363MOL0     H48982  10.743   4.799   2.270  0.0543 -1.5735  0.8228
  363MOL0     H48983  10.697   4.636   2.013 -0.0373  0.0669  2.0359
  363MOL0     H48984  10.711   4.815   2.003 -1.3026  1.0635  0.8192
  363MOL0     H48985   9.819   4.328   2.303  3.1493 -0.3372 -0.2742
  363MOL0     H48986   9.586   4.268   2.238  1.5167 -0.3842  1.6408
  363MOL0     H48987   9.216   4.446   1.921 -0.4814  0.1190  1.3160
  363MOL0     H48988   9.048   4.349   1.750 -1.7396 -0.9840  0.5822
  363MOL0     H48989   7.364   3.249   1.512 -1.3613 -2.4193  2.1274
  363MOL0     H48990   7.122   3.282   1.540 -0.7988  0.1749  0.0768
  363MOL0     H48991   6.716   3.134   1.311  1.0143 -1.3065  1.7597
  363MOL0     H48992   6.495   3.214   1.252 -0.2547 -1.3054  0.4509
  363MOL0     H48993   6.250   3.387   1.576  1.0361  1.6994 -2.0565
  363MOL0     H48994   6.234   3.215   1.550 -0.5885 -0.4432 -0.5207
  363MOL0     H48995   6.047   3.235   1.430 -0.1247 -0.5305  0.2419
  363MOL0     H48996   6.113   3.362   1.330 -3.2727 -2.0241 -1.5130
  363MOL0     H48997   6.009   3.527   1.420  1.6376  0.1141  1.4970
  363MOL0     H48998   6.029   3.481   1.601 -0.0344 -2.9398  1.8119
  363MOL0     H48999   5.797   3.462   1.548 -0.3179  0.6302 -1.3069
  363MOL0     H49000   5.840   3.346   1.419  1.7647  0.4198  0.1332
  363MOL0     H49001   5.846   3.158   1.813 -1.7768  3.1940  0.5651
  363MOL0     H49002   6.462   3.357   1.659 -0.0640 -1.9255  1.6653
  363MOL0     H49003   6.810   3.368   1.721  0.8888 -1.7650 -2.7492
  363MOL0     H49004   6.641   3.372   1.806 -0.3218  0.3919 -1.5820
  363MOL0     H49005   6.741   3.228   1.805 -1.2067 -1.8639 -2.5838
  364MOL0     O49006   1.067   6.942  10.221  0.2899 -0.5694 -0.1116
  364MOL0     C49007   1.016   6.837  10.257  0.0114  0.7378  0.1459
  364MOL0     O49008   1.052   6.771  10.370  0.1896 -0.1380  0.0692
  364MOL0     C49009   1.151   6.836  10.443 -0.1672  0.3499 -0.1736
  364MOL0     C49010   1.266   6.761  10.467 -1.0851  0.2209  0.2141
  364MOL0     C49011   1.357   6.814  10.554 -0.6831  0.2332  0.5095
  364MOL0     C49012   1.349   6.948  10.602 -0.0424 -0.1991  0.4508
  364MOL0     O49013   1.439   7.000  10.693 -0.1274  0.0899  0.4975
  364MOL0     C49014   1.475   7.140  10.687 -0.2822 -0.5586  0.7594
  364MOL0     C49015   1.616   7.161  10.756  0.5325  0.0727  0.3400
  364MOL0     C49016   1.735   7.119  10.668  0.7332 -0.2812  0.2934
  364MOL0     C49017   1.752   6.966  10.626  0.2096 -0.9616 -0.7023
  364MOL0     C49018   1.878   6.912  10.563 -0.6704 -0.1743  0.3312
  364MOL0     C49019   1.982   6.912  10.672 -0.3282  1.2825  1.1282
  364MOL0     C49020   2.088   6.810  10.632 -0.2810 -0.3427 -1.0968
  364MOL0     C49021   2.201   6.891  10.568  0.0555 -0.2815 -0.7579
  364MOL0     N49022   2.323   6.809  10.574  0.1047  0.7502  0.0687
  364MOL0     C49023   2.340   6.682  10.516  0.3587 -0.7361 -0.0468
  364MOL0     C49024   2.468   6.655  10.540 -0.0085 -0.6105  0.0085
  364MOL0     C49025   2.544   6.544  10.469 -0.5523 -0.8998  0.1583
  364MOL0     C49026   2.673   6.514  10.542 -0.3820  0.0544  0.6988
  364MOL0     C49027   2.734   6.401  10.462  0.3755 -0.2680  0.4547
  364MOL0     C49028   2.881   6.369  10.508  0.6040 -0.0971  0.0648
  364MOL0     O49029   2.935   6.287  10.403  0.3367  0.1898  0.4306
  364MOL0     C49030   3.071   6.261  10.387 -0.3074  0.0453  0.0480
  364MOL0     C49031   3.178   6.328  10.453  0.8003 -0.8678 -1.1709
  364MOL0     C49032   3.312   6.291  10.429  0.7673 -0.2384 -0.4569
  364MOL0     C49033   3.346   6.189  10.341 -0.4225  0.3705 -0.0302
  364MOL0     C49034   3.482   6.149  10.315 -0.1050  0.0992  0.1825
  364MOL0     O49035   3.576   6.206  10.396 -0.2294  0.3812  0.5003
  364MOL0     C49036   3.699   6.146  10.395  0.1933  0.6649 -0.0163
  364MOL0     C49037   3.716   6.013  10.430 -0.6787  0.9446  0.3572
  364MOL0     C49038   3.844   5.949  10.411  0.1253 -0.7780  0.2601
  364MOL0     C49039   3.948   6.016  10.356 -0.7814  0.2387  0.2669
  364MOL0     O49040   4.072   5.956  10.360  0.6680  0.2136 -0.7433
  364MOL0     C49041   4.182   6.047  10.366  0.4410  1.1184 -0.5678
  364MOL0     C49042   4.298   5.981  10.446  0.1707 -0.1815  0.7244
  364MOL0     C49043   4.271   5.960  10.594 -0.6211  0.0586  0.6468
  364MOL0     C49044   4.396   5.930  10.681 -0.6730  1.4217 -0.2457
  364MOL0     C49045   4.350   5.895  10.821  0.0989  0.9425  0.9656
  364MOL0     C49046   4.470   5.883  10.903  0.0209  0.2489  0.3791
  364MOL0     C49047   4.440   5.838  11.052 -0.7990 -0.3274  0.3512
  364MOL0     C49048   4.568   5.770  11.106 -0.2151  0.2553  0.3139
  364MOL0    Cl49049   4.701   5.892  11.102 -0.0233 -0.1154 -0.1501
  364MOL0     C49050   3.928   6.147  10.316  0.4787  0.2192  0.6604
  364MOL0     C49051   3.803   6.213  10.341 -0.4167  0.2776  0.1898
  364MOL0     O49052   3.512   6.078  10.222 -1.0048  0.1236  0.2335
  364MOL0     C49053   3.240   6.119  10.278  0.7239  0.5074  0.0232
  364MOL0     C49054   3.104   6.152  10.307 -0.1075  0.4305 -0.2040
  364MOL0     N49055   2.534   6.761  10.611 -0.0832  0.6940 -0.4487
  364MOL0     N49056   2.443   6.848  10.624  0.2469  0.3854 -0.5954
  364MOL0     C49057   1.234   7.029  10.565 -0.8114 -0.5113 -0.4727
  364MOL0     C49058   1.132   6.967  10.496 -1.5466  0.5041  0.4911
  364MOL0     C49059   0.926   6.778  10.160  0.2707 -0.2710  0.2374
  364MOL0     C49060   0.879   6.845  10.048 -0.0456  0.2389 -0.3113
  364MOL0     C49061   0.780   6.803   9.960  0.6551  0.3392 -0.0803
  364MOL0     C49062   0.710   6.682   9.987  0.7863  0.5920  0.7705
  364MOL0     O49063   0.593   6.644   9.925 -0.5387  0.1256  0.1204
  364MOL0     C49064   0.512   6.741   9.863  0.0632 -0.3490  0.1167
  364MOL0     C49065   0.365   6.694   9.854  0.0993  0.4162 -0.3330
  364MOL0     C49066   0.327   6.619   9.982 -0.0203 -0.3698 -0.6891
  364MOL0     C49067   0.176   6.590   9.976 -0.1950  0.0138  0.3304
  364MOL0     C49068   0.124   6.566  10.110  0.8065  0.8532 -0.8678
  364MOL0     C49069   0.069   6.558  10.219 -0.2210 -0.4749  0.1158
  364MOL0     C49070   0.755   6.604  10.088 -0.9995 -0.3114  0.0408
  364MOL0     C49071   0.866   6.648  10.171 -0.5896  0.1543 -0.0021
  364MOL0     C49072   0.921   6.540  10.268  1.0431 -0.2984  0.5079
  364MOL0     H49073   1.269   6.658  10.434 -1.5007 -0.0067  0.8733
  364MOL0     H49074   1.434   6.741  10.577 -0.8159 -0.3241 -0.7467
  364MOL0     H49075   1.475   7.177  10.584  0.8533 -0.4753  0.7841
  364MOL0     H49076   1.400   7.199  10.741 -0.3738  3.1364 -2.9593
  364MOL0     H49077   1.611   7.098  10.845  1.0373 -2.0124 -1.0188
  364MOL0     H49078   1.622   7.265  10.789 -0.7832  0.3418 -0.2026
  364MOL0     H49079   1.825   7.146  10.725 -0.1120  0.3372  1.3813
  364MOL0     H49080   1.724   7.184  10.581 -1.1736 -0.8493  0.0670
  364MOL0     H49081   1.735   6.912  10.720  0.1959  0.5912  0.2059
  364MOL0     H49082   1.666   6.934  10.566 -0.0897  0.3678 -1.0082
  364MOL0     H49083   1.865   6.812  10.520 -0.0708 -1.0653  2.1401
  364MOL0     H49084   1.915   6.983  10.488  2.5831 -0.5871  1.3736
  364MOL0     H49085   2.024   7.012  10.689  4.5075 -0.3780  0.3867
  364MOL0     H49086   1.935   6.867  10.760  2.3299 -4.1300  0.1574
  364MOL0     H49087   2.045   6.724  10.580 -1.9582 -0.4510  0.3738
  364MOL0     H49088   2.138   6.776  10.723  0.6949  1.8855 -0.7255
  364MOL0     H49089   2.164   6.912  10.468  0.3578 -0.4000 -0.8953
  364MOL0     H49090   2.232   6.986  10.614  0.1243 -0.6461 -0.0358
  364MOL0     H49091   2.268   6.622  10.462  0.1792 -0.1319 -0.4971
  364MOL0     H49092   2.481   6.455  10.480 -0.6253 -0.5914  2.9050
  364MOL0     H49093   2.554   6.568  10.363 -0.3344  1.1419  0.5946
  364MOL0     H49094   2.741   6.599  10.537 -0.6220  0.4393  2.8451
  364MOL0     H49095   2.658   6.475  10.643 -0.3142 -1.8709  0.0005
  364MOL0     H49096   2.727   6.414  10.354  0.7922  0.1178  0.4754
  364MOL0     H49097   2.674   6.314  10.493  2.0702 -1.1262  1.4800
  364MOL0     H49098   2.884   6.318  10.604 -0.6033 -0.0537  0.1348
  364MOL0     H49099   2.943   6.459  10.521  2.0771 -1.1424  0.5488
  364MOL0     H49100   3.161   6.395  10.536  2.2133 -2.1147  0.1962
  364MOL0     H49101   3.382   6.352  10.485  0.0618  0.7429 -0.6306
  364MOL0     H49102   3.637   5.952  10.472  0.2674 -0.9427 -0.4641
  364MOL0     H49103   3.852   5.844  10.438 -0.9939 -0.8270  0.4267
  364MOL0     H49104   4.207   6.067  10.262 -0.3025  1.8256 -0.6167
  364MOL0     H49105   4.157   6.136  10.425  1.7811 -0.9861  3.5725
  364MOL0     H49106   4.318   5.888  10.392 -1.3190 -0.1529  0.0749
  364MOL0     H49107   4.385   6.047  10.437  1.6934 -1.9831  1.7079
  364MOL0     H49108   4.206   6.039  10.631 -0.2178  1.9151 -2.2763
  364MOL0     H49109   4.200   5.877  10.587  0.1309 -0.4823 -1.1486
  364MOL0     H49110   4.467   6.012  10.685  2.7889 -1.3860  0.3548
  364MOL0     H49111   4.441   5.840  10.639 -0.5384  0.1250  2.4598
  364MOL0     H49112   4.304   5.796  10.822  2.9416 -0.4920  0.3024
  364MOL0     H49113   4.288   5.977  10.859 -0.1758  0.0188  2.6276
  364MOL0     H49114   4.536   5.810  10.855  1.0631  1.0859  0.5049
  364MOL0     H49115   4.526   5.976  10.915  0.4252  0.0323  0.1960
  364MOL0     H49116   4.369   5.756  11.041  0.8619 -1.4454 -4.6191
  364MOL0     H49117   4.412   5.916  11.123  1.3692  2.2617 -1.4369
  364MOL0     H49118   4.538   5.732  11.205 -0.4773 -2.1440 -0.6323
  364MOL0     H49119   4.597   5.683  11.046 -2.1468  0.1727 -0.5629
  364MOL0     H49120   4.000   6.213  10.270  0.3696 -2.4121 -3.9783
  364MOL0     H49121   3.794   6.318  10.315  1.7251  0.4849  0.0936
  364MOL0     H49122   3.266   6.042  10.207 -0.3701  1.8267 -1.8996
  364MOL0     H49123   3.022   6.095  10.265 -0.3393  0.1114  0.6707
  364MOL0     H49124   1.209   7.130  10.595  0.3469 -0.8493  1.8019
  364MOL0     H49125   1.047   7.031  10.472 -2.2986 -0.7315 -0.2450
  364MOL0     H49126   0.931   6.939  10.034  1.5854 -0.5473  0.2922
  364MOL0     H49127   0.752   6.868   9.878  0.5402  1.1622  0.6107
  364MOL0     H49128   0.547   6.780   9.767 -0.1468  1.6417  0.8019
  364MOL0     H49129   0.494   6.828   9.926 -2.3359 -1.4779  1.1387
  364MOL0     H49130   0.350   6.627   9.768 -1.4915  2.0496 -1.4015
  364MOL0     H49131   0.299   6.780   9.838  0.8140  2.1410  4.5077
  364MOL0     H49132   0.352   6.687  10.064 -1.4105  0.0700 -0.5990
  364MOL0     H49133   0.377   6.522   9.990  1.5567  0.4234 -0.7096
  364MOL0     H49134   0.115   6.673   9.936  1.2275  0.5080 -0.9389
  364MOL0     H49135   0.162   6.498   9.919 -3.9589  0.2086  0.6998
  364MOL0     H49136   0.015   6.561  10.311 -2.6867  2.5137 -1.2446
  364MOL0     H49137   0.705   6.510  10.108 -0.0505 -0.7843  0.2138
  364MOL0     H49138   1.030   6.540  10.279  1.3513  2.5065 -1.4332
  364MOL0     H49139   0.884   6.566  10.368  2.6343  2.8157  0.4036
  364MOL0     H49140   0.879   6.443  10.240 -1.7447  0.2447  2.4014
  365MOL0     O49141   7.477  10.396   8.277  0.0952  0.3041  0.1313
  365MOL0     C49142   7.453  10.402   8.159  0.4358 -0.5922  0.3280
  365MOL0     O49143   7.537  10.356   8.064 -0.1675 -0.3421 -0.2992
  365MOL0     C49144   7.658  10.416   8.039  0.0879  0.4302  0.8325
  365MOL0     C49145   7.733  10.335   7.950  0.2198 -1.2191 -0.4083
  365MOL0     C49146   7.857  10.381   7.900  0.0526 -1.0151  0.0697
  365MOL0     C49147   7.907  10.506   7.947 -0.3567  0.1123 -0.0941
  365MOL0     O49148   8.024  10.558   7.897  0.2446 -0.3876  0.3854
  365MOL0     C49149   8.137  10.462   7.912  0.2518 -0.5159  1.5415
  365MOL0     C49150   8.261  10.528   7.857  0.8260  0.3290 -0.2812
  365MOL0     C49151   8.382  10.440   7.886  0.2028  0.0163  0.7803
  365MOL0     C49152   8.483  10.429   7.770  0.2960  0.2884 -0.5704
  365MOL0     C49153   8.615  10.365   7.824  0.2874 -0.5109  0.1668
  365MOL0     C49154   8.730  10.380   7.730 -0.1043 -0.2479  0.8038
  365MOL0     C49155   8.863  10.313   7.779  0.7837 -0.0120  0.6898
  365MOL0     C49156   8.863  10.165   7.787  0.2079  0.7098 -0.5618
  365MOL0     N49157   8.999  10.115   7.839  0.2819  0.8453  0.3891
  365MOL0     C49158   9.047  10.000   7.789  0.2639 -0.5078  0.1509
  365MOL0     C49159   9.168   9.991   7.836 -0.2136  0.4016 -0.4870
  365MOL0     C49160   9.242   9.858   7.842 -0.1494  0.0782 -0.7707
  365MOL0     C49161   9.396   9.866   7.842  0.2797  0.3365 -0.5510
  365MOL0     C49162   9.469   9.781   7.949  0.8698  0.0051 -0.0322
  365MOL0     C49163   9.626   9.797   7.935 -0.1926  0.8522 -0.2100
  365MOL0     O49164   9.689   9.706   8.028  0.0394 -0.2967  0.2779
  365MOL0     C49165   9.827   9.690   8.016 -0.2187  0.5236  0.0110
  365MOL0     C49166   9.869   9.587   8.098 -0.1575 -1.2440  0.4398
  365MOL0     C49167  10.006   9.557   8.088  0.3709 -0.3017 -0.5006
  365MOL0     C49168  10.103   9.622   8.007 -0.0428  0.1326  0.0182
  365MOL0     C49169  10.246   9.593   8.017  0.0436 -0.1844  0.3901
  365MOL0     O49170  10.282   9.472   8.077 -0.5871 -0.3403 -0.3927
  365MOL0     C49171  10.414   9.460   8.097  0.9650  0.2673 -0.0764
  365MOL0     C49172  10.506   9.391   8.019  0.1624 -0.3341  0.5148
  365MOL0     C49173  10.642   9.371   8.038 -0.4170 -0.4298  0.6007
  365MOL0     C49174  10.694   9.435   8.154 -0.5729 -0.3553 -0.6952
  365MOL0     O49175  10.830   9.418   8.183 -0.1969  0.6932 -0.4926
  365MOL0     C49176  10.856   9.415   8.323 -0.5476 -0.1900 -0.6127
  365MOL0     C49177  10.993   9.364   8.353  0.1478  0.3006 -0.2996
  365MOL0     C49178  11.055   9.403   8.481 -0.0812  0.3212 -0.2152
  365MOL0     C49179  10.995   9.327   8.605 -1.2594  0.7054  0.5081
  365MOL0     C49180  10.869   9.383   8.662 -1.0125  0.5028 -0.0041
  365MOL0     C49181  10.902   9.516   8.729  0.8745  0.2777 -0.3341
  365MOL0     C49182  10.780   9.583   8.794 -0.4909 -0.4619  0.0551
  365MOL0     C49183  10.827   9.686   8.902 -0.0805  0.7608  1.4874
  365MOL0    Cl49184  10.926   9.814   8.827  0.0931  0.0518  0.2322
  365MOL0     C49185  10.604   9.514   8.230  0.2464  0.1110 -1.6570
  365MOL0     C49186  10.468   9.521   8.208 -0.5570  0.5569 -0.4358
  365MOL0     O49187  10.325   9.674   7.972 -0.2096  0.0636 -0.2653
  365MOL0     C49188  10.054   9.731   7.935  0.3335  0.1203  0.0959
  365MOL0     C49189   9.916   9.762   7.940  0.1779  0.4114  0.1731
  365MOL0     N49190   9.198  10.095   7.920 -0.7488 -0.5228  0.4606
  365MOL0     N49191   9.101  10.175   7.920  0.6704  0.2007 -0.5165
  365MOL0     C49192   7.837  10.575   8.046 -0.0218  0.2299 -0.4405
  365MOL0     C49193   7.709  10.534   8.083  0.6945 -0.2194 -1.0683
  365MOL0     C49194   7.317  10.440   8.113  0.4282  0.7306  0.1302
  365MOL0     C49195   7.274  10.388   7.983 -0.0488  1.2466  1.0829
  365MOL0     C49196   7.144  10.416   7.939  0.1950 -0.2453 -0.1183
  365MOL0     C49197   7.058  10.502   8.011  0.0236  0.0415  0.2848
  365MOL0     O49198   6.931  10.530   7.974  0.1086  0.5151 -0.0505
  365MOL0     C49199   6.879  10.465   7.860  0.3929 -0.3516 -1.0263
  365MOL0     C49200   6.736  10.516   7.836 -0.6776 -0.0219  0.1029
  365MOL0     C49201   6.650  10.490   7.966 -0.6743 -0.5593 -1.4362
  365MOL0     C49202   6.511  10.506   7.946  0.0244  0.2891  0.0938
  365MOL0     C49203   6.469  10.643   7.912  0.0739  0.6080  0.1788
  365MOL0     C49204   6.434  10.753   7.886  1.1180 -0.1367 -0.1728
  365MOL0     C49205   7.099  10.552   8.135  0.1067  0.2394 -0.2617
  365MOL0     C49206   7.230  10.531   8.184  0.0775  0.7854  1.1094
  365MOL0     C49207   7.275  10.618   8.300 -0.0404 -0.0822 -0.3927
  365MOL0     H49208   7.702  10.232   7.932 -3.5823 -0.1175 -0.8567
  365MOL0     H49209   7.912  10.319   7.829 -1.9079 -0.9405 -1.5939
  365MOL0     H49210   8.160  10.456   8.018 -1.2638  2.6134  2.1737
  365MOL0     H49211   8.124  10.362   7.869  1.5331 -0.2377  0.4228
  365MOL0     H49212   8.264  10.623   7.910 -1.0751 -0.6709  1.7456
  365MOL0     H49213   8.254  10.533   7.748  2.8646  1.3774 -0.4296
  365MOL0     H49214   8.349  10.338   7.904 -0.3238 -0.1133 -0.8333
  365MOL0     H49215   8.420  10.474   7.984  1.9183 -1.1708  0.5713
  365MOL0     H49216   8.446  10.359   7.694  0.0888 -0.7317  0.4377
  365MOL0     H49217   8.505  10.526   7.725  0.7232  0.4335 -0.0509
  365MOL0     H49218   8.638  10.432   7.908 -2.2783  0.2716  0.3230
  365MOL0     H49219   8.594  10.264   7.861 -1.8867  0.9686  3.4548
  365MOL0     H49220   8.699  10.338   7.634  0.6194  0.0494  0.4233
  365MOL0     H49221   8.739  10.484   7.698 -2.2915 -0.9573 -2.6904
  365MOL0     H49222   8.868  10.352   7.882 -0.3295  0.6651  0.5075
  365MOL0     H49223   8.945  10.351   7.718 -0.0144 -2.8716 -2.4479
  365MOL0     H49224   8.785  10.131   7.856  1.8413 -2.2756 -0.0014
  365MOL0     H49225   8.838  10.117   7.692  0.2020  0.8236 -0.6176
  365MOL0     H49226   8.994   9.914   7.750  0.1512 -1.5789  2.5105
  365MOL0     H49227   9.200   9.808   7.930  2.1166 -1.2409 -0.3592
  365MOL0     H49228   9.211   9.800   7.755  0.7023  0.5610 -1.4113
  365MOL0     H49229   9.424   9.829   7.743 -1.6845  0.8880 -1.3646
  365MOL0     H49230   9.428   9.969   7.859 -2.0816  1.0671 -0.1405
  365MOL0     H49231   9.435   9.678   7.945 -1.3716  0.6092 -5.5631
  365MOL0     H49232   9.452   9.818   8.050 -1.6599  0.9681 -0.7298
  365MOL0     H49233   9.658   9.899   7.954  1.9301  0.4485 -1.2873
  365MOL0     H49234   9.653   9.781   7.830  0.2065  2.0440 -0.2993
  365MOL0     H49235   9.807   9.530   8.167 -1.6002 -0.8878 -0.5056
  365MOL0     H49236  10.043   9.477   8.151  2.3263 -0.9734 -2.3939
  365MOL0     H49237  10.477   9.359   7.920 -0.4430 -1.4555  1.0364
  365MOL0     H49238  10.717   9.324   7.976 -0.8943 -2.9392  1.7611
  365MOL0     H49239  10.832   9.516   8.358 -1.5022  0.0839 -1.9786
  365MOL0     H49240  10.783   9.353   8.375 -0.6397  0.4168 -0.0102
  365MOL0     H49241  10.991   9.254   8.349 -0.6368  0.3266 -0.6849
  365MOL0     H49242  11.053   9.411   8.275 -1.6546  2.5827 -0.4175
  365MOL0     H49243  11.162   9.382   8.468  0.1268  0.3628  1.2429
  365MOL0     H49244  11.040   9.511   8.481  2.5516  0.7642  0.7537
  365MOL0     H49245  11.077   9.337   8.677  0.9900 -1.0602 -1.6413
  365MOL0     H49246  10.980   9.220   8.588 -2.4938  1.2164 -2.1144
  365MOL0     H49247  10.844   9.315   8.744 -1.9864  1.2723  0.3612
  365MOL0     H49248  10.791   9.393   8.586  0.4156 -1.4088 -1.8480
  365MOL0     H49249  10.981   9.500   8.803 -0.2852 -1.3953  0.6095
  365MOL0     H49250  10.939   9.588   8.655  1.4423 -0.7725 -1.1063
  365MOL0     H49251  10.710   9.517   8.846  0.3207 -0.5207  1.1238
  365MOL0     H49252  10.733   9.639   8.713  0.8192 -1.0270 -1.1392
  365MOL0     H49253  10.734   9.718   8.951 -0.4422  1.4926  0.3726
  365MOL0     H49254  10.892   9.642   8.978 -1.1840 -3.8842  0.1012
  365MOL0     H49255  10.645   9.560   8.320 -1.1445  1.0851 -1.4952
  365MOL0     H49256  10.409   9.579   8.279  0.8051 -0.6619  1.8222
  365MOL0     H49257  10.111   9.806   7.881  5.8734 -2.9704  0.8436
  365MOL0     H49258   9.887   9.840   7.871  1.2253  0.7693  0.1189
  365MOL0     H49259   7.883  10.666   8.083 -1.0346  0.4487  0.3091
  365MOL0     H49260   7.655  10.600   8.150  0.2794 -0.4672 -1.1524
  365MOL0     H49261   7.328  10.322   7.915  1.0306  3.1358  0.0176
  365MOL0     H49262   7.113  10.369   7.847  1.0559 -0.1120 -0.4886
  365MOL0     H49263   6.883  10.358   7.885  2.7578 -0.5190 -1.8329
  365MOL0     H49264   6.940  10.483   7.770 -0.0818  1.1552 -1.0722
  365MOL0     H49265   6.689  10.463   7.753 -0.6809 -1.7058  1.1284
  365MOL0     H49266   6.733  10.620   7.802 -0.4810 -0.6099 -1.8864
  365MOL0     H49267   6.681  10.567   8.038  0.3635 -0.2193 -2.2325
  365MOL0     H49268   6.674  10.394   8.012 -0.9156  0.9694  2.2457
  365MOL0     H49269   6.469  10.445   7.866  0.6293  0.6937 -0.5410
  365MOL0     H49270   6.462  10.478   8.040  1.6490 -1.7876  0.4032
  365MOL0     H49271   6.401  10.855   7.879 -0.0340 -0.4792  0.0287
  365MOL0     H49272   7.040  10.616   8.199  0.8130  0.7863 -0.1418
  365MOL0     H49273   7.246  10.574   8.397 -1.6992  0.6861 -0.5055
  365MOL0     H49274   7.381  10.641   8.296 -0.6397  3.4855  0.3996
  365MOL0     H49275   7.210  10.706   8.306  0.1134 -0.0655  3.4530
  366MOL0     O49276   2.069   2.150   6.005  0.4807 -0.1776 -0.0273
  366MOL0     C49277   2.081   2.208   5.901 -0.6328 -0.2785 -0.3713
  366MOL0     O49278   2.167   2.318   5.881  0.9528  0.0552  0.2904
  366MOL0     C49279   2.282   2.322   5.953  0.0916  0.2084 -0.3498
  366MOL0     C49280   2.273   2.346   6.091  0.4777 -1.3849 -0.8924
  366MOL0     C49281   2.401   2.360   6.158  0.1670 -0.6282 -0.0689
  366MOL0     C49282   2.527   2.360   6.102  0.5278  0.0221 -0.3981
  366MOL0     O49283   2.638   2.379   6.181  0.0151  0.0963  0.6111
  366MOL0     C49284   2.756   2.299   6.144  0.2425 -0.0893  0.2932
  366MOL0     C49285   2.817   2.243   6.278 -0.5317  0.0917  0.3452
  366MOL0     C49286   2.875   2.364   6.354  0.3302 -0.0130  0.8179
  366MOL0     C49287   3.011   2.398   6.297  0.2112  0.4423 -0.7785
  366MOL0     C49288   3.123   2.307   6.338  0.5622  0.3657  0.4564
  366MOL0     C49289   3.158   2.322   6.488 -0.1711  0.2060  1.0892
  366MOL0     C49290   3.291   2.257   6.508 -0.3311  0.4079 -0.2710
  366MOL0     C49291   3.409   2.346   6.473  0.4111 -0.5160  0.4496
  366MOL0     N49292   3.533   2.264   6.471 -0.2005 -0.2129 -0.2146
  366MOL0     C49293   3.595   2.210   6.591 -1.0335 -0.3376  0.5154
  366MOL0     C49294   3.698   2.135   6.534  0.7265  0.9202 -0.4612
  366MOL0     C49295   3.798   2.047   6.605 -0.1561 -0.6340 -0.6520
  366MOL0     C49296   3.730   1.946   6.687  0.1038  0.3592  0.2824
  366MOL0     C49297   3.656   1.822   6.620  0.1697 -0.4168 -0.0316
  366MOL0     C49298   3.516   1.867   6.558  1.0741  0.0082 -1.1085
  366MOL0     O49299   3.436   1.754   6.540  0.1310 -0.1820  0.3775
  366MOL0     C49300   3.296   1.766   6.537  0.7927 -0.7865 -0.8626
  366MOL0     C49301   3.213   1.855   6.605  0.4438  0.5558 -0.2719
  366MOL0     C49302   3.074   1.827   6.614  0.0939  1.2173 -0.2895
  366MOL0     C49303   3.011   1.720   6.554  0.2302  0.1308  0.0221
  366MOL0     C49304   2.876   1.693   6.563  0.0601 -0.5466 -0.2942
  366MOL0     O49305   2.826   1.584   6.490  0.3177  0.0584 -0.3452
  366MOL0     C49306   2.695   1.541   6.510  0.0078 -0.4153  0.7781
  366MOL0     C49307   2.648   1.489   6.627  0.0555 -0.3501  0.2276
  366MOL0     C49308   2.512   1.460   6.636 -0.0259  0.1600  0.4346
  366MOL0     C49309   2.419   1.461   6.523 -0.0716 -0.2159  0.5299
  366MOL0     O49310   2.288   1.411   6.533 -0.2700  0.1419  0.1207
  366MOL0     C49311   2.273   1.296   6.621 -0.2142  0.2068  0.3391
  366MOL0     C49312   2.147   1.208   6.594 -0.9375 -0.5036  0.0248
  366MOL0     C49313   2.020   1.292   6.614 -0.0745 -0.4265  0.1099
  366MOL0     C49314   1.891   1.217   6.596 -0.1691  0.3196  0.9133
  366MOL0     C49315   1.869   1.150   6.459 -0.1278 -0.1831 -0.2789
  366MOL0     C49316   1.831   1.260   6.359 -0.1968  0.5393  0.2898
  366MOL0     C49317   1.803   1.185   6.224 -0.3420  0.2890 -0.2254
  366MOL0     C49318   1.813   1.280   6.107  0.5885  0.9947 -0.5181
  366MOL0    Cl49319   1.775   1.173   5.966 -0.3399  0.0909  0.0515
  366MOL0     C49320   2.472   1.516   6.397  0.9761  0.6185 -0.9280
  366MOL0     C49321   2.611   1.561   6.396  0.7509  0.2382 -0.0088
  366MOL0     O49322   2.810   1.776   6.625 -0.6739  0.7666 -0.3508
  366MOL0     C49323   3.098   1.633   6.476  0.6045 -0.7278 -0.8755
  366MOL0     C49324   3.238   1.654   6.470  0.3261  0.6417 -0.7839
  366MOL0     N49325   3.683   2.145   6.399  0.9056 -0.2257 -0.1013
  366MOL0     N49326   3.585   2.219   6.353 -0.0276  0.1044 -0.5347
  366MOL0     C49327   2.532   2.340   5.961 -0.5634 -0.0789  0.3783
  366MOL0     C49328   2.406   2.332   5.892 -0.1517  0.3000  0.2096
  366MOL0     C49329   1.990   2.169   5.785  0.1986  0.1813 -0.1941
  366MOL0     C49330   1.865   2.114   5.813 -0.0588  1.1735  0.1822
  366MOL0     C49331   1.770   2.066   5.718  0.3113 -0.3387 -0.6828
  366MOL0     C49332   1.812   2.068   5.585  0.2594 -0.0321 -0.4791
  366MOL0     O49333   1.717   2.014   5.496  0.0034 -0.2692 -0.1001
  366MOL0     C49334   1.686   2.094   5.384  1.2821  1.1497  0.3684
  366MOL0     C49335   1.612   2.231   5.409  0.5465 -0.3047 -0.0518
  366MOL0     C49336   1.482   2.222   5.487  0.1411  1.7279  0.9853
  366MOL0     C49337   1.425   2.356   5.525 -0.5661 -0.0781  0.7186
  366MOL0     C49338   1.294   2.351   5.586 -0.7460 -0.5367  0.4626
  366MOL0     C49339   1.175   2.352   5.620 -0.5273 -0.4098  0.5321
  366MOL0     C49340   1.937   2.121   5.556 -1.0994 -0.3553  0.5085
  366MOL0     C49341   2.026   2.167   5.652 -1.1393 -0.0681 -0.4176
  366MOL0     C49342   2.160   2.225   5.615 -0.5554  0.2241  0.3355
  366MOL0     H49343   2.171   2.361   6.125  0.1393 -0.0603 -2.3764
  366MOL0     H49344   2.404   2.372   6.266  1.4702 -0.6894 -0.0792
  366MOL0     H49345   2.733   2.212   6.082 -0.6329  1.4857 -1.7065
  366MOL0     H49346   2.817   2.372   6.090  0.6382 -1.8912 -1.8152
  366MOL0     H49347   2.892   2.168   6.249 -1.2983  0.6067 -3.5325
  366MOL0     H49348   2.740   2.193   6.337  1.7221 -1.1568  2.3952
  366MOL0     H49349   2.895   2.339   6.458  1.4554  1.3534  0.9500
  366MOL0     H49350   2.808   2.450   6.361 -1.4821 -1.2246 -0.5263
  366MOL0     H49351   3.008   2.410   6.189  1.3374  2.0398 -0.6741
  366MOL0     H49352   3.029   2.497   6.340 -0.2338 -0.3734  1.4509
  366MOL0     H49353   3.092   2.206   6.310 -0.4226  1.0886 -1.2664
  366MOL0     H49354   3.215   2.317   6.280  1.4067 -2.0690  1.2758
  366MOL0     H49355   3.161   2.424   6.527 -0.4387  0.8637 -0.5209
  366MOL0     H49356   3.093   2.260   6.550  2.6066 -2.1030  1.8753
  366MOL0     H49357   3.285   2.164   6.451 -4.0569 -0.5467  1.3271
  366MOL0     H49358   3.314   2.223   6.610  1.4613  2.3723  0.0480
  366MOL0     H49359   3.394   2.394   6.376  1.2203 -1.8467 -0.3667
  366MOL0     H49360   3.416   2.423   6.550 -1.1335 -1.4410  1.5648
  366MOL0     H49361   3.580   2.218   6.698  0.6946  0.8829  0.7064
  366MOL0     H49362   3.858   1.993   6.532  1.9950 -0.9953  1.2864
  366MOL0     H49363   3.853   2.122   6.663 -2.2428  0.8112 -0.4008
  366MOL0     H49364   3.808   1.903   6.750  0.5280 -0.2434 -0.6404
  366MOL0     H49365   3.659   2.003   6.748 -0.1531 -0.0237  0.3473
  366MOL0     H49366   3.639   1.751   6.701  1.2102  0.7838  1.2965
  366MOL0     H49367   3.723   1.778   6.547  2.3742 -1.7587  2.6169
  366MOL0     H49368   3.530   1.928   6.468  2.0754  1.4311 -0.0487
  366MOL0     H49369   3.479   1.946   6.625  1.3832  0.9198 -1.9759
  366MOL0     H49370   3.251   1.928   6.677  1.5808 -0.9636  0.7376
  366MOL0     H49371   3.016   1.896   6.674  0.6379  0.5772  1.0168
  366MOL0     H49372   2.701   1.481   6.722 -0.8524  0.4202  0.8202
  366MOL0     H49373   2.474   1.444   6.736 -2.1040  1.6729 -0.0418
  366MOL0     H49374   2.363   1.233   6.609  0.7742  1.3225  1.5411
  366MOL0     H49375   2.272   1.330   6.725 -0.6664 -0.0100  0.4061
  366MOL0     H49376   2.155   1.172   6.491 -4.5023 -1.7880  0.0556
  366MOL0     H49377   2.144   1.121   6.659 -1.0927  0.4659  1.3480
  366MOL0     H49378   2.021   1.338   6.714 -0.1462 -1.4911  0.6219
  366MOL0     H49379   2.011   1.380   6.550  1.3707  1.4816  2.3593
  366MOL0     H49380   1.811   1.287   6.622  0.9513  1.8437  0.3461
  366MOL0     H49381   1.887   1.133   6.667  0.6387 -1.2052 -0.7732
  366MOL0     H49382   1.784   1.084   6.476 -0.4668  0.0454 -1.0265
  366MOL0     H49383   1.954   1.093   6.422  0.8634 -0.0475  1.6761
  366MOL0     H49384   1.739   1.308   6.392 -2.1831 -1.5937 -1.7924
  366MOL0     H49385   1.899   1.345   6.348  1.3763 -0.8879 -2.3762
  366MOL0     H49386   1.699   1.152   6.238 -0.5993  1.1486 -0.0460
  366MOL0     H49387   1.869   1.099   6.212  2.5455  1.6851  3.4815
  366MOL0     H49388   1.740   1.359   6.124  2.5226  2.7926 -0.1181
  366MOL0     H49389   1.911   1.324   6.083  1.4515  0.3169  1.5432
  366MOL0     H49390   2.415   1.517   6.305  4.3685  0.8033 -3.2456
  366MOL0     H49391   2.654   1.609   6.309 -0.0901  1.2290  0.1119
  366MOL0     H49392   3.045   1.559   6.418 -1.2765  0.6982 -1.0752
  366MOL0     H49393   3.298   1.583   6.412 -2.8414 -2.9990 -0.0016
  366MOL0     H49394   2.627   2.338   5.908 -1.9435  2.6267 -2.6055
  366MOL0     H49395   2.415   2.341   5.784  1.5953  3.0238  0.4724
  366MOL0     H49396   1.835   2.102   5.916 -0.1100 -0.5746 -0.0203
  366MOL0     H49397   1.677   2.021   5.751  1.4175 -3.9222 -2.0327
  366MOL0     H49398   1.623   2.033   5.319  2.6576 -2.5581  2.2089
  366MOL0     H49399   1.779   2.114   5.330  1.6606 -0.9178  0.1663
  366MOL0     H49400   1.600   2.284   5.315 -1.5517 -2.7026 -1.2697
  366MOL0     H49401   1.682   2.287   5.472 -0.5291  1.2938 -0.2191
  366MOL0     H49402   1.484   2.151   5.570 -0.6483 -0.5718 -0.8525
  366MOL0     H49403   1.411   2.189   5.411  0.0668  3.5321  0.2056
  366MOL0     H49404   1.498   2.403   5.591  1.9278 -2.0382 -0.4819
  366MOL0     H49405   1.426   2.410   5.430 -0.2533 -0.5963  0.4184
  366MOL0     H49406   1.075   2.362   5.658 -0.0801  3.2647  1.1038
  366MOL0     H49407   1.973   2.137   5.455  3.5839  2.1194  2.2328
  366MOL0     H49408   2.173   2.332   5.635  0.8992 -0.2269  2.0919
  366MOL0     H49409   2.228   2.155   5.664 -1.7743 -1.9721 -0.9298
  366MOL0     H49410   2.199   2.211   5.513 -2.2819  1.5538 -0.5509
  367MOL0     O49411   1.784   6.442   6.260 -0.0729  0.1914  0.2653
  367MOL0     C49412   1.719   6.403   6.166 -0.1362  0.2198  0.9570
  367MOL0     O49413   1.739   6.437   6.037 -0.3658  0.0535  0.1321
  367MOL0     C49414   1.862   6.399   5.984 -0.8748  0.4793  0.4273
  367MOL0     C49415   1.876   6.288   5.899  0.7052 -0.3211  0.1970
  367MOL0     C49416   2.002   6.250   5.851  1.0360  0.1130 -0.5177
  367MOL0     C49417   2.120   6.308   5.910  0.1906 -0.6009 -0.2247
  367MOL0     O49418   2.246   6.270   5.867 -0.3156 -0.0018  0.3523
  367MOL0     C49419   2.295   6.328   5.746  0.5086  0.1741  0.4046
  367MOL0     C49420   2.432   6.255   5.727 -0.5728  1.1599 -0.2943
  367MOL0     C49421   2.516   6.313   5.613 -0.7703 -1.0129 -0.2762
  367MOL0     C49422   2.638   6.217   5.599  0.4757  0.3072  0.7090
  367MOL0     C49423   2.730   6.255   5.484 -0.1977  0.1540  0.4366
  367MOL0     C49424   2.686   6.249   5.334  0.7160  1.0592  0.1713
  367MOL0     C49425   2.791   6.302   5.227 -0.4149 -0.1433 -0.9738
  367MOL0     C49426   2.812   6.457   5.231  0.1568  0.4396  0.7026
  367MOL0     N49427   2.955   6.494   5.214  0.0030  0.0707  1.0035
  367MOL0     C49428   3.027   6.483   5.098 -0.8654 -0.1395 -0.4259
  367MOL0     C49429   3.146   6.518   5.135 -0.5323 -0.7629  0.5345
  367MOL0     C49430   3.272   6.504   5.043  1.2189 -0.2030 -0.2764
  367MOL0     C49431   3.323   6.358   5.016  0.3050 -0.6128  0.4110
  367MOL0     C49432   3.381   6.327   4.883  0.5333 -0.5815 -0.6306
  367MOL0     C49433   3.534   6.367   4.874  0.0676  0.3322 -0.3685
  367MOL0     O49434   3.559   6.388   4.738 -0.0551  0.1933 -0.4320
  367MOL0     C49435   3.692   6.413   4.701 -0.1627  0.3637 -0.2025
  367MOL0     C49436   3.723   6.397   4.572  0.4653  1.5088  0.2785
  367MOL0     C49437   3.852   6.407   4.518 -0.0169  0.0138 -0.0862
  367MOL0     C49438   3.958   6.441   4.606 -1.0495 -1.0880 -0.9221
  367MOL0     C49439   4.096   6.457   4.555  0.8894 -0.7414  0.3258
  367MOL0     O49440   4.119   6.503   4.429 -0.6800 -0.2449  0.9239
  367MOL0     C49441   4.245   6.519   4.383  0.0917  0.4267  0.0334
  367MOL0     C49442   4.291   6.654   4.364  0.1388  0.3306 -0.3259
  367MOL0     C49443   4.407   6.680   4.303 -0.3786  0.6122  0.2038
  367MOL0     C49444   4.488   6.572   4.266  0.6271 -0.2722  0.1280
  367MOL0     O49445   4.613   6.596   4.204  0.0223 -0.0956  0.4297
  367MOL0     C49446   4.692   6.704   4.247  0.6714  0.1063 -0.7087
  367MOL0     C49447   4.838   6.654   4.236  0.7566  0.2850 -0.7188
  367MOL0     C49448   4.891   6.638   4.091  0.5651 -0.2486 -0.8394
  367MOL0     C49449   5.029   6.568   4.084  0.7416  0.2162  0.3357
  367MOL0     C49450   5.070   6.527   3.942 -0.4495  0.2519 -0.6367
  367MOL0     C49451   5.215   6.472   3.945  0.4456  0.9730 -0.7338
  367MOL0     C49452   5.225   6.333   4.014  0.0122 -0.4198 -0.3447
  367MOL0     C49453   5.365   6.274   3.997 -0.6784  0.8629  0.5805
  367MOL0    Cl49454   5.393   6.230   3.821  0.0594  0.0856 -0.2289
  367MOL0     C49455   4.445   6.436   4.283  0.4695  0.3225 -0.1001
  367MOL0     C49456   4.324   6.407   4.355 -0.5684 -0.2793 -0.6323
  367MOL0     O49457   4.182   6.412   4.629 -0.0042  0.2630 -0.2349
  367MOL0     C49458   3.927   6.459   4.743  0.0709  0.2189  0.8596
  367MOL0     C49459   3.802   6.434   4.791 -0.0159  0.6144 -0.7369
  367MOL0     N49460   3.152   6.546   5.269 -0.2697 -0.6111  0.0087
  367MOL0     N49461   3.029   6.533   5.318 -1.0770 -0.1425  0.3319
  367MOL0     C49462   2.107   6.419   6.007  1.0698 -0.3856 -0.6749
  367MOL0     C49463   1.977   6.463   6.036  0.2454  0.4327 -0.1158
  367MOL0     C49464   1.605   6.314   6.198  0.0541 -0.1266 -0.2833
  367MOL0     C49465   1.496   6.326   6.116 -0.2207 -0.1692 -0.4738
  367MOL0     C49466   1.394   6.236   6.129  0.0394 -0.0540 -0.6116
  367MOL0     C49467   1.396   6.132   6.219 -0.3647  0.0509 -0.2681
  367MOL0     O49468   1.289   6.057   6.225 -0.2856  0.3626  0.1078
  367MOL0     C49469   1.242   6.005   6.347 -0.4545 -0.0679  0.0742
  367MOL0     C49470   1.134   5.900   6.319  0.1277 -0.3819  0.3382
  367MOL0     C49471   1.052   5.937   6.193  0.1322 -0.4506 -0.1317
  367MOL0     C49472   0.922   5.857   6.167 -0.4370  1.1499  0.7635
  367MOL0     C49473   0.958   5.724   6.103  0.4649  0.3130  0.4894
  367MOL0     C49474   0.991   5.632   6.029  0.2358  0.3016  0.1721
  367MOL0     C49475   1.504   6.128   6.314 -0.5902 -0.2368 -0.5201
  367MOL0     C49476   1.612   6.224   6.309  0.5040  0.4048  0.6981
  367MOL0     C49477   1.719   6.211   6.410 -0.2297 -0.4451 -0.7338
  367MOL0     H49478   1.784   6.239   5.870 -0.4097  0.9895  1.3797
  367MOL0     H49479   2.012   6.158   5.794  0.2167 -1.2571  1.4515
  367MOL0     H49480   2.223   6.313   5.665  0.6789 -0.1551  0.3115
  367MOL0     H49481   2.322   6.434   5.757  0.0448  0.2424  0.8967
  367MOL0     H49482   2.415   6.148   5.717 -0.2940  0.9832  0.9620
  367MOL0     H49483   2.490   6.267   5.819 -0.3198 -2.2788  0.1056
  367MOL0     H49484   2.549   6.416   5.623  1.2083 -1.5038 -1.3887
  367MOL0     H49485   2.442   6.303   5.532 -0.9270 -3.4660  0.0893
  367MOL0     H49486   2.695   6.228   5.692  2.6058 -0.8831 -0.3597
  367MOL0     H49487   2.612   6.113   5.580  1.3505  0.4846 -1.8272
  367MOL0     H49488   2.760   6.359   5.493  0.3489  0.2059 -1.5970
  367MOL0     H49489   2.826   6.202   5.491 -0.2547 -0.0670 -0.3968
  367MOL0     H49490   2.663   6.144   5.314 -2.1115  1.4414  1.0175
  367MOL0     H49491   2.587   6.292   5.315 -1.3634 -2.3499  2.1789
  367MOL0     H49492   2.771   6.282   5.121 -0.7499  1.1902 -1.1797
  367MOL0     H49493   2.891   6.266   5.253 -0.0347  1.4540 -0.0725
  367MOL0     H49494   2.748   6.498   5.153  0.7528  1.0398  0.5200
  367MOL0     H49495   2.779   6.499   5.326 -1.7484 -2.2313  1.3264
  367MOL0     H49496   2.990   6.444   5.003 -0.6808 -1.3278 -0.0348
  367MOL0     H49497   3.241   6.552   4.950 -1.8961 -0.9413  0.2635
  367MOL0     H49498   3.347   6.568   5.091  2.0349 -1.6080  0.3696
  367MOL0     H49499   3.394   6.340   5.097  1.5135  0.1897 -0.4396
  367MOL0     H49500   3.232   6.298   5.019  0.3464 -0.7393 -0.5209
  367MOL0     H49501   3.330   6.382   4.804  1.0594 -1.3394 -1.5072
  367MOL0     H49502   3.377   6.220   4.862  3.1414 -0.5331 -1.7435
  367MOL0     H49503   3.594   6.283   4.909 -1.7835 -1.1811 -0.6972
  367MOL0     H49504   3.561   6.454   4.935 -2.9968  0.6315  0.7206
  367MOL0     H49505   3.635   6.374   4.512  0.9670 -1.7042  0.6029
  367MOL0     H49506   3.870   6.384   4.414  2.1996  0.3567  0.1837
  367MOL0     H49507   4.233   6.740   4.396 -0.3322 -0.8723  2.4316
  367MOL0     H49508   4.435   6.783   4.282 -0.1591  0.3596 -0.7790
  367MOL0     H49509   4.683   6.794   4.185 -0.2820  2.2592  2.3097
  367MOL0     H49510   4.659   6.729   4.348 -2.4991  1.4773 -1.9256
  367MOL0     H49511   4.907   6.722   4.287  0.9667 -0.3492 -0.1564
  367MOL0     H49512   4.838   6.554   4.279 -1.6547  1.4344  2.2738
  367MOL0     H49513   4.813   6.591   4.030 -1.7923  0.1422  1.6750
  367MOL0     H49514   4.891   6.734   4.038  0.3491  0.9713  1.2303
  367MOL0     H49515   5.018   6.478   4.146 -0.8243  0.6877  0.7859
  367MOL0     H49516   5.102   6.641   4.119 -1.9856  2.7184  1.1310
  367MOL0     H49517   5.067   6.612   3.874 -2.9412 -0.6029 -1.7009
  367MOL0     H49518   4.997   6.452   3.909  0.2456  0.4459 -2.7604
  367MOL0     H49519   5.237   6.451   3.840  0.5614  1.6955 -0.8621
  367MOL0     H49520   5.287   6.548   3.977  1.3721  1.6237 -4.0034
  367MOL0     H49521   5.161   6.261   3.963  2.0753 -2.5298 -0.1158
  367MOL0     H49522   5.208   6.340   4.122  0.7432 -0.1047 -0.2469
  367MOL0     H49523   5.438   6.349   4.028 -0.4566  0.4100  1.1456
  367MOL0     H49524   5.391   6.186   4.056  2.0552  0.6113 -0.8598
  367MOL0     H49525   4.494   6.344   4.253 -2.2010 -2.9625  4.2023
  367MOL0     H49526   4.287   6.305   4.367  2.8955 -1.4873  1.4367
  367MOL0     H49527   4.006   6.469   4.817  0.8840 -2.5000  0.4494
  367MOL0     H49528   3.798   6.447   4.898  1.9464  0.5601 -0.6149
  367MOL0     H49529   2.194   6.469   6.048 -1.2049  0.8013  3.3211
  367MOL0     H49530   1.964   6.548   6.103 -2.2141 -0.4285  0.5718
  367MOL0     H49531   1.478   6.408   6.048  0.0195 -1.2683 -1.9003
  367MOL0     H49532   1.301   6.238   6.074 -0.9821 -2.2203  0.8874
  367MOL0     H49533   1.213   6.094   6.403 -1.2293  0.9293 -1.8207
  367MOL0     H49534   1.322   5.958   6.405 -0.7012 -1.9849 -1.0653
  367MOL0     H49535   1.069   5.889   6.407 -1.7688 -2.1882 -1.2025
  367MOL0     H49536   1.186   5.805   6.302 -0.8455 -0.7557 -0.5974
  367MOL0     H49537   1.117   5.937   6.105  1.0576 -0.5795  0.5302
  367MOL0     H49538   1.029   6.041   6.218  0.1017 -1.2308  3.7105
  367MOL0     H49539   0.876   5.847   6.266 -0.1302 -0.0227  0.8007
  367MOL0     H49540   0.861   5.917   6.098  1.2291 -0.0942 -1.9663
  367MOL0     H49541   1.025   5.560   5.958 -1.4760  1.4116 -1.8876
  367MOL0     H49542   1.512   6.052   6.391  2.1454 -1.7318 -2.0807
  367MOL0     H49543   1.813   6.189   6.360  0.9322 -0.2093  1.2258
  367MOL0     H49544   1.735   6.297   6.476 -2.5581 -0.8213  0.4315
  367MOL0     H49545   1.704   6.120   6.469  0.3311  0.7942  1.4533
  368MOL0     O49546   1.877   9.623   3.615 -0.1922 -0.6357  0.7953
  368MOL0     C49547   1.762   9.653   3.638  0.8168 -0.1648  0.5662
  368MOL0     O49548   1.727   9.765   3.705 -0.8490 -1.0452 -0.0264
  368MOL0     C49549   1.822   9.847   3.757 -0.3665 -0.8075  0.2278
  368MOL0     C49550   1.852   9.962   3.681 -0.4688  0.6280  0.3442
  368MOL0     C49551   1.939  10.061   3.736  0.5248  0.2892 -0.4144
  368MOL0     C49552   2.005  10.031   3.841 -0.4792  0.3288 -0.8979
  368MOL0     O49553   2.074  10.124   3.917 -0.9227  0.3568  0.5792
  368MOL0     C49554   2.199  10.161   3.861 -0.4744 -0.0442 -0.3787
  368MOL0     C49555   2.305  10.050   3.853 -0.4492  0.1240  0.3722
  368MOL0     C49556   2.323   9.959   3.975  0.4769 -0.0878 -0.5463
  368MOL0     C49557   2.461   9.903   3.979  0.5110  0.1708 -0.1223
  368MOL0     C49558   2.485   9.814   4.093  0.3373  0.5935  0.3688
  368MOL0     C49559   2.397   9.685   4.096  0.5829 -0.8505 -0.0012
  368MOL0     C49560   2.431   9.592   4.209  0.6680 -0.3944 -0.5973
  368MOL0     C49561   2.559   9.509   4.185 -0.5415  0.4473 -0.0856
  368MOL0     N49562   2.532   9.415   4.078  1.2535  0.2471 -0.8469
  368MOL0     C49563   2.460   9.303   4.097  0.1215  0.0528 -0.1158
  368MOL0     C49564   2.478   9.231   3.988 -0.4794 -1.1763 -0.5817
  368MOL0     C49565   2.434   9.092   3.962 -0.2021 -0.5928 -1.2388
  368MOL0     C49566   2.289   9.081   3.913 -0.0081 -0.4413 -0.3087
  368MOL0     C49567   2.267   9.095   3.765 -0.1560  0.3810 -0.0699
  368MOL0     C49568   2.131   9.074   3.698 -0.1472 -0.4738 -0.5099
  368MOL0     O49569   2.055   8.967   3.752  1.2937 -0.4638 -0.1006
  368MOL0     C49570   1.924   8.955   3.707  0.2089  0.3524 -0.3694
  368MOL0     C49571   1.872   9.032   3.598 -0.2385  0.6276 -0.0961
  368MOL0     C49572   1.754   8.994   3.531 -0.1151 -0.0515 -0.5065
  368MOL0     C49573   1.681   8.878   3.571  0.6147  0.4121  0.5766
  368MOL0     C49574   1.556   8.841   3.494 -0.8721 -0.1850 -0.2148
  368MOL0     O49575   1.499   8.728   3.536 -1.0447  0.9193 -0.0935
  368MOL0     C49576   1.386   8.681   3.479  0.3245 -0.3720  0.2863
  368MOL0     C49577   1.368   8.671   3.333  0.5787 -0.5526  0.0044
  368MOL0     C49578   1.257   8.608   3.281 -0.6158  0.1428  0.0018
  368MOL0     C49579   1.146   8.583   3.367 -0.7591 -0.2334  0.2142
  368MOL0     O49580   1.028   8.530   3.332 -0.0654 -0.2590  0.4736
  368MOL0     C49581   0.954   8.613   3.235  0.6959  0.1679 -0.1184
  368MOL0     C49582   0.814   8.556   3.235  0.4214  0.4203 -0.4492
  368MOL0     C49583   0.748   8.600   3.371 -0.0978  1.1613 -0.1200
  368MOL0     C49584   0.589   8.600   3.365 -0.2538  0.3469 -0.2651
  368MOL0     C49585   0.517   8.486   3.290 -0.7668 -0.8225  0.6552
  368MOL0     C49586   0.528   8.359   3.368 -0.4254  0.0832  0.4234
  368MOL0     C49587   0.445   8.249   3.311 -0.4315 -0.1602  0.0985
  368MOL0     C49588   0.520   8.133   3.246 -1.0169 -0.9656  0.3166
  368MOL0    Cl49589   0.399   8.014   3.178  0.1389 -0.0360 -0.0465
  368MOL0     C49590   1.157   8.616   3.496  0.6607  0.3133  0.0719
  368MOL0     C49591   1.274   8.669   3.559  0.9901  0.6617  0.2665
  368MOL0     O49592   1.523   8.911   3.399 -0.2580 -0.1051  0.3832
  368MOL0     C49593   1.737   8.809   3.677 -0.2039 -0.2265 -0.1470
  368MOL0     C49594   1.852   8.843   3.743 -1.0186 -0.1684  0.2171
  368MOL0     N49595   2.559   9.305   3.903  0.7980  0.3127 -0.2499
  368MOL0     N49596   2.595   9.409   3.958  0.0170 -0.2242 -0.1472
  368MOL0     C49597   1.984   9.911   3.916 -0.2079 -0.6684  0.5272
  368MOL0     C49598   1.893   9.818   3.871 -0.1258  0.7669  0.1600
  368MOL0     C49599   1.653   9.583   3.581  0.2408  1.3396 -0.3697
  368MOL0     C49600   1.540   9.573   3.662 -0.2154 -0.7518 -0.2581
  368MOL0     C49601   1.428   9.509   3.621 -0.4081 -0.1434  0.0603
  368MOL0     C49602   1.427   9.441   3.502  0.2488 -0.3794 -0.6171
  368MOL0     O49603   1.317   9.356   3.475  0.1130 -0.2257  0.6903
  368MOL0     C49604   1.267   9.337   3.346 -0.8245  0.0484  0.0277
  368MOL0     C49605   1.134   9.416   3.333  0.6382 -0.0143 -0.5987
  368MOL0     C49606   1.069   9.408   3.189  0.3940 -0.2051  0.1425
  368MOL0     C49607   1.106   9.531   3.109 -0.7652 -0.2136  0.1799
  368MOL0     C49608   1.030   9.649   3.156  0.1690 -0.1700  0.4486
  368MOL0     C49609   0.966   9.730   3.219  0.2813  0.3520 -0.0594
  368MOL0     C49610   1.537   9.443   3.428 -0.2772  1.4105 -0.4576
  368MOL0     C49611   1.655   9.508   3.459  0.4236 -0.5204  0.3718
  368MOL0     C49612   1.760   9.499   3.363 -0.4278 -0.4961  0.9139
  368MOL0     H49613   1.804   9.976   3.585  0.3749 -0.7855 -0.3224
  368MOL0     H49614   1.955  10.149   3.675 -0.3418  0.2430 -0.7275
  368MOL0     H49615   2.203  10.218   3.768  2.3426 -0.0190 -0.3266
  368MOL0     H49616   2.249  10.224   3.935  1.4525 -1.2909 -0.5294
  368MOL0     H49617   2.403  10.094   3.833 -0.4313 -0.1339 -0.1032
  368MOL0     H49618   2.283   9.996   3.761  0.9104  0.3657 -0.1105
  368MOL0     H49619   2.246   9.882   3.983  2.1052 -1.6234  1.9145
  368MOL0     H49620   2.301  10.027   4.058  0.1340  0.7921 -1.3366
  368MOL0     H49621   2.470   9.849   3.885 -0.6143  0.6497 -0.5256
  368MOL0     H49622   2.524   9.992   3.972  0.7294 -0.1148 -2.3495
  368MOL0     H49623   2.581   9.763   4.082 -2.2214 -4.6918 -0.2865
  368MOL0     H49624   2.482   9.871   4.186 -0.9582 -0.5221  1.0391
  368MOL0     H49625   2.292   9.714   4.101  0.4068 -1.5900  0.7280
  368MOL0     H49626   2.414   9.622   4.008 -0.5129 -0.4595 -0.5213
  368MOL0     H49627   2.345   9.526   4.219 -0.0183  0.6450  0.7571
  368MOL0     H49628   2.431   9.664   4.291  0.3984  2.2888 -2.7876
  368MOL0     H49629   2.641   9.580   4.176  1.0289 -1.3358 -0.3050
  368MOL0     H49630   2.594   9.449   4.269 -2.5368 -0.2885  0.2858
  368MOL0     H49631   2.404   9.286   4.189  1.0086 -0.2700  0.3726
  368MOL0     H49632   2.503   9.059   3.885  1.9998  1.3524 -0.2262
  368MOL0     H49633   2.446   9.044   4.060  0.9801  3.6060  0.9128
  368MOL0     H49634   2.252   8.985   3.950  1.6615 -0.5037  1.3389
  368MOL0     H49635   2.228   9.160   3.958 -2.8025 -1.4140 -2.0943
  368MOL0     H49636   2.347   9.033   3.723 -0.8055  0.3261 -1.2733
  368MOL0     H49637   2.293   9.198   3.740 -0.4620  0.6130  0.5487
  368MOL0     H49638   2.150   9.063   3.591 -0.5138 -1.5398 -0.4725
  368MOL0     H49639   2.076   9.168   3.712 -1.5635 -1.4738  1.2033
  368MOL0     H49640   1.917   9.118   3.551 -1.4317  2.1910  1.5028
  368MOL0     H49641   1.720   9.052   3.446 -1.3388  0.4358  0.2947
  368MOL0     H49642   1.451   8.683   3.264 -0.2179 -3.4157 -1.6224
  368MOL0     H49643   1.255   8.572   3.179  1.8257  0.4536 -0.2202
  368MOL0     H49644   0.951   8.718   3.265 -1.6311 -0.5567  2.5878
  368MOL0     H49645   0.987   8.607   3.131 -0.0981 -0.4650 -0.3466
  368MOL0     H49646   0.757   8.595   3.150 -2.7038 -2.7864 -0.0830
  368MOL0     H49647   0.810   8.447   3.227  2.3593  0.2697  0.2828
  368MOL0     H49648   0.783   8.525   3.443 -0.3796  0.0637 -1.0954
  368MOL0     H49649   0.785   8.693   3.415 -2.4784  1.6447  1.0086
  368MOL0     H49650   0.562   8.698   3.326 -0.4803  0.7573  0.8757
  368MOL0     H49651   0.549   8.594   3.466  0.2612 -2.6708 -0.1456
  368MOL0     H49652   0.563   8.477   3.192  0.3437  1.2871  0.9141
  368MOL0     H49653   0.414   8.522   3.278  0.2791  1.4805 -2.6459
  368MOL0     H49654   0.633   8.331   3.380  0.2709  0.9288 -2.7923
  368MOL0     H49655   0.486   8.376   3.467  1.7148  1.7584  1.1170
  368MOL0     H49656   0.379   8.293   3.236  1.3960  2.8357  0.0677
  368MOL0     H49657   0.385   8.210   3.393  0.4540  1.4434  1.5944
  368MOL0     H49658   0.583   8.181   3.170 -0.5306 -2.2215 -0.0996
  368MOL0     H49659   0.588   8.095   3.322  1.2177 -0.4503 -1.3044
  368MOL0     H49660   1.076   8.595   3.566  0.5669 -1.1103 -0.4405
  368MOL0     H49661   1.279   8.708   3.660 -0.8961  2.8567 -0.3956
  368MOL0     H49662   1.681   8.728   3.723 -1.5683  1.1721  0.7409
  368MOL0     H49663   1.895   8.773   3.813  0.3771  1.3911  0.9758
  368MOL0     H49664   2.031   9.877   4.008  1.7560 -3.7708 -1.4231
  368MOL0     H49665   1.875   9.730   3.930  0.3803 -1.2626 -2.5175
  368MOL0     H49666   1.550   9.622   3.758  2.8148 -1.6815 -0.0113
  368MOL0     H49667   1.341   9.504   3.685 -1.7692 -1.7232 -1.7819
  368MOL0     H49668   1.244   9.231   3.329 -0.2914  0.1287 -1.3459
  368MOL0     H49669   1.338   9.362   3.266 -0.7072 -1.1159 -0.2519
  368MOL0     H49670   1.150   9.522   3.355  1.1164 -0.1175 -0.4577
  368MOL0     H49671   1.060   9.374   3.402 -0.8622  0.8508 -1.6252
  368MOL0     H49672   0.959   9.404   3.193  0.3820 -0.4948 -0.4256
  368MOL0     H49673   1.097   9.315   3.140 -2.6336 -0.8812 -0.5563
  368MOL0     H49674   1.209   9.559   3.130 -1.2350 -0.6093  3.4386
  368MOL0     H49675   1.088   9.522   3.001  0.0422  2.6544 -0.2673
  368MOL0     H49676   0.896   9.788   3.276 -0.8332 -2.3815  1.5896
  368MOL0     H49677   1.541   9.382   3.339  1.3168 -0.2292  0.6726
  368MOL0     H49678   1.859   9.530   3.399  1.1893 -2.0920 -1.7739
  368MOL0     H49679   1.777   9.395   3.335  0.0988 -0.2100  0.1499
  368MOL0     H49680   1.723   9.563   3.282  2.3588  0.4198  0.2321
  369MOL0     O49681   0.336  10.221   9.419  0.7345 -0.2127  0.4393
  369MOL0     C49682   0.240  10.221   9.341  0.7445  0.7386  0.4748
  369MOL0     O49683   0.260  10.199   9.204  0.8246 -0.3210 -0.5717
  369MOL0     C49684   0.383  10.209   9.155 -0.7699 -0.7445  0.0883
  369MOL0     C49685   0.482  10.105   9.186 -0.2221  0.6493  0.5417
  369MOL0     C49686   0.606  10.097   9.122  0.4749  0.3722  0.1917
  369MOL0     C49687   0.659  10.210   9.050  0.4804  0.3612  0.8028
  369MOL0     O49688   0.790  10.215   9.000 -0.2389 -0.1397  0.2450
  369MOL0     C49689   0.889  10.113   9.046  0.6324 -0.3245  0.4088
  369MOL0     C49690   1.027  10.153   9.007  0.7124 -0.2864 -0.1115
  369MOL0     C49691   1.056  10.130   8.861  0.2460 -0.3860 -0.0867
  369MOL0     C49692   1.199  10.178   8.834 -0.6826 -0.0890 -0.0721
  369MOL0     C49693   1.236  10.178   8.684  0.2901 -0.6808  0.1249
  369MOL0     C49694   1.258  10.037   8.635 -0.1362  0.0202  0.3126
  369MOL0     C49695   1.307  10.035   8.493 -0.1947  0.3116  0.3916
  369MOL0     C49696   1.333   9.891   8.447  0.4012 -0.0310 -0.4196
  369MOL0     N49697   1.324   9.882   8.299  0.3622  0.3304  0.5037
  369MOL0     C49698   1.410   9.941   8.214 -0.1277  0.1296  0.2135
  369MOL0     C49699   1.352   9.923   8.090  0.8342 -0.5058 -0.7313
  369MOL0     C49700   1.398   9.986   7.963  0.5381  0.2757 -0.1139
  369MOL0     C49701   1.319  10.117   7.943  0.5773  0.9709  0.1436
  369MOL0     C49702   1.350  10.174   7.796  0.4550  0.5083 -0.4296
  369MOL0     C49703   1.502  10.200   7.769  0.6464  0.7388  0.6001
  369MOL0     O49704   1.563  10.261   7.882 -0.2225  0.5586  0.1598
  369MOL0     C49705   1.701  10.248   7.896  0.2319 -0.5715 -0.6747
  369MOL0     C49706   1.763  10.256   8.027 -0.1017  0.6582 -0.4476
  369MOL0     C49707   1.904  10.253   8.047  0.3164  0.1904  0.4994
  369MOL0     C49708   1.984  10.240   7.937 -0.9693  0.1055 -0.0687
  369MOL0     C49709   2.138  10.224   7.945  0.2072  0.4997 -0.4799
  369MOL0     O49710   2.194  10.226   8.071  0.0551 -0.1298 -0.0547
  369MOL0     C49711   2.328  10.198   8.075  0.0256  0.6421 -0.3366
  369MOL0     C49712   2.381  10.072   8.040 -0.0037  0.5704 -1.0752
  369MOL0     C49713   2.517  10.052   8.018  0.0677 -0.0746  0.7039
  369MOL0     C49714   2.608  10.149   8.043  0.0433  0.0733  0.3138
  369MOL0     O49715   2.743  10.118   8.029  0.2509 -0.2907  0.4948
  369MOL0     C49716   2.844  10.198   8.098  0.1130  0.6285  0.5386
  369MOL0     C49717   2.969  10.113   8.066 -0.1749  0.5639  0.5640
  369MOL0     C49718   3.101  10.192   8.117 -0.6428  1.3609  0.6504
  369MOL0     C49719   3.225  10.099   8.096  0.2333 -0.1112  0.2622
  369MOL0     C49720   3.347  10.169   8.167  0.0881  0.6364  0.3436
  369MOL0     C49721   3.463  10.058   8.157 -0.5972 -0.9086  0.6304
  369MOL0     C49722   3.580  10.088   8.250  0.3820 -0.5979 -0.2236
  369MOL0     C49723   3.701  10.000   8.246 -0.1075  0.6661 -0.3412
  369MOL0    Cl49724   3.851  10.069   8.317  0.4618 -0.1323 -0.0227
  369MOL0     C49725   2.563  10.272   8.095  0.2859 -0.6007  0.7840
  369MOL0     C49726   2.420  10.295   8.113  0.1035 -0.5446  0.3287
  369MOL0     O49727   2.188  10.188   7.840  0.3625 -0.1548 -0.4069
  369MOL0     C49728   1.926  10.225   7.813 -0.0590 -0.1063 -0.4003
  369MOL0     C49729   1.788  10.231   7.789 -0.3742 -0.5530  0.3268
  369MOL0     N49730   1.237   9.842   8.111  0.0792  0.1577  0.1703
  369MOL0     N49731   1.225   9.815   8.233  0.4712 -0.0849 -0.2787
  369MOL0     C49732   0.560  10.300   9.010 -0.5204  0.0698  0.2741
  369MOL0     C49733   0.420  10.294   9.046 -0.9881 -0.3113 -0.3157
  369MOL0     C49734   0.100  10.219   9.397  0.8643  0.0056 -0.3744
  369MOL0     C49735   0.088  10.203   9.535  0.3910  0.2353 -0.1139
  369MOL0     C49736  -0.037  10.185   9.594 -0.2634  0.2646  0.2080
  369MOL0     C49737  -0.152  10.200   9.517 -0.0826  0.8652 -0.1267
  369MOL0     O49738  -0.279  10.199   9.571  0.2787 -0.2641  0.3631
  369MOL0     C49739  -0.298  10.170   9.714 -0.2039  1.2508  0.0363
  369MOL0     C49740  -0.453  10.166   9.735  0.0007  0.2709  0.4615
  369MOL0     C49741  -0.524  10.299   9.756  0.7072  0.2531 -0.9441
  369MOL0     C49742  -0.678  10.266   9.760 -0.8614  0.5576 -0.4580
  369MOL0     C49743  -0.752  10.391   9.764 -0.0037 -0.8840 -0.3125
  369MOL0     C49744  -0.810  10.496   9.758  0.1284 -0.5060  0.6988
  369MOL0     C49745  -0.147  10.218   9.379 -0.0619  0.3299  0.0655
  369MOL0     C49746  -0.022  10.238   9.325 -0.0870  0.7850  0.0695
  369MOL0     C49747  -0.030  10.275   9.176  0.3110  0.8520  0.1024
  369MOL0     H49748   0.455  10.022   9.250 -2.5521 -0.3049 -1.5255
  369MOL0     H49749   0.680  10.018   9.130  0.3884  0.3448  0.7586
  369MOL0     H49750   0.878  10.105   9.154 -0.3768  1.0996  0.4333
  369MOL0     H49751   0.867  10.011   9.011  1.0781 -0.6909  1.1630
  369MOL0     H49752   1.099  10.098   9.068  0.2810 -1.8356 -0.9538
  369MOL0     H49753   1.040  10.257   9.037 -0.9546  0.0879 -0.5545
  369MOL0     H49754   0.986  10.188   8.800  1.9247 -0.1038 -1.8421
  369MOL0     H49755   1.044  10.025   8.833  3.0533 -1.3115  1.7778
  369MOL0     H49756   1.210  10.281   8.868  2.0801 -1.1629  2.7670
  369MOL0     H49757   1.263  10.112   8.894 -0.4523 -0.7256 -0.9925
  369MOL0     H49758   1.153  10.207   8.619 -0.8584 -0.1981  1.7304
  369MOL0     H49759   1.320  10.245   8.666 -0.7502  1.4793  2.5868
  369MOL0     H49760   1.337   9.984   8.689  0.3140 -1.3873 -1.6401
  369MOL0     H49761   1.172   9.971   8.648 -0.7053  0.5142 -0.7918
  369MOL0     H49762   1.399  10.094   8.492 -0.1518  0.4498  3.2452
  369MOL0     H49763   1.240  10.088   8.425  2.9338  3.4927 -0.5116
  369MOL0     H49764   1.437   9.870   8.476  1.2029 -0.0470 -3.0542
  369MOL0     H49765   1.278   9.806   8.486 -0.3955  0.9435  0.6505
  369MOL0     H49766   1.501   9.999   8.230 -2.7750  4.8786 -0.2394
  369MOL0     H49767   1.503  10.015   7.977  0.5358 -0.1511  0.9281
  369MOL0     H49768   1.381   9.915   7.882 -2.0686  0.6176  0.0579
  369MOL0     H49769   1.214  10.093   7.960  0.4714  2.0516  1.1666
  369MOL0     H49770   1.346  10.182   8.027 -1.0865  0.4880  1.1024
  369MOL0     H49771   1.295  10.266   7.773 -1.9411 -1.2267 -2.1685
  369MOL0     H49772   1.301  10.109   7.722  1.6832 -1.3012  0.2644
  369MOL0     H49773   1.509  10.251   7.672 -0.0128  1.2499  0.8160
  369MOL0     H49774   1.544  10.101   7.750  0.4696  1.0794 -1.9052
  369MOL0     H49775   1.708  10.265   8.120 -0.5226 -0.1721 -0.6132
  369MOL0     H49776   1.953  10.250   8.144  1.8961  2.3629 -0.1458
  369MOL0     H49777   2.311   9.989   8.028  0.8432 -0.2696 -0.3249
  369MOL0     H49778   2.539   9.950   7.986 -1.3534 -0.3212  0.4277
  369MOL0     H49779   2.852  10.305   8.076  0.0277  0.7549  1.1190
  369MOL0     H49780   2.821  10.184   8.204 -2.0706 -0.6686 -0.0366
  369MOL0     H49781   2.956  10.016   8.117  0.2815  1.7149  3.0415
  369MOL0     H49782   2.973  10.105   7.957 -0.5925  1.0419  0.5108
  369MOL0     H49783   3.119  10.286   8.063  0.2439  0.9241  0.1607
  369MOL0     H49784   3.084  10.217   8.222 -1.1052  0.1920  0.8713
  369MOL0     H49785   3.241  10.080   7.989  1.5429  0.8758  0.2687
  369MOL0     H49786   3.187  10.013   8.152 -2.2077  2.1791  2.3891
  369MOL0     H49787   3.336  10.197   8.272  2.1668  1.0970  0.4905
  369MOL0     H49788   3.367  10.256   8.104  3.1205 -1.4834 -1.9296
  369MOL0     H49789   3.434   9.960   8.196  0.8185 -1.6292 -0.0541
  369MOL0     H49790   3.496  10.040   8.055 -1.2182 -0.8801  0.4194
  369MOL0     H49791   3.535  10.100   8.349  0.6333 -0.7112 -0.0948
  369MOL0     H49792   3.628  10.178   8.212  1.0712 -0.9380 -0.1759
  369MOL0     H49793   3.679   9.907   8.300  1.9142 -0.6753 -1.6595
  369MOL0     H49794   3.718   9.982   8.139  0.2429 -2.3850  0.1260
  369MOL0     H49795   2.628  10.358   8.110  1.2334 -1.4324  1.6015
  369MOL0     H49796   2.389  10.395   8.141  3.4988  0.8224 -0.3110
  369MOL0     H49797   1.986  10.205   7.724  1.1365  1.7748 -0.0682
  369MOL0     H49798   1.760  10.241   7.685 -1.0319  0.3519  0.5827
  369MOL0     H49799   0.596  10.374   8.939  0.7083  0.7562  1.5584
  369MOL0     H49800   0.345  10.360   9.004 -0.6017 -0.9414 -2.1333
  369MOL0     H49801   0.178  10.201   9.595  0.8023 -2.2959 -0.7079
  369MOL0     H49802  -0.028  10.162   9.700  3.3912 -1.5651 -0.3374
  369MOL0     H49803  -0.253  10.248   9.775 -0.2880  1.1077  0.2842
  369MOL0     H49804  -0.255  10.074   9.744 -1.7741  0.4493 -0.1295
  369MOL0     H49805  -0.480  10.108   9.825  1.0707 -0.7883  0.1332
  369MOL0     H49806  -0.497  10.105   9.655  0.2212  0.8594 -0.1109
  369MOL0     H49807  -0.507  10.369   9.674  1.3872 -1.1639 -2.0461
  369MOL0     H49808  -0.497  10.357   9.845  0.1108  0.7972 -1.1023
  369MOL0     H49809  -0.710  10.212   9.670  0.1340 -0.4561 -0.2229
  369MOL0     H49810  -0.697  10.203   9.847  3.0040  1.0948  0.9592
  369MOL0     H49811  -0.860  10.590   9.747 -2.9124 -2.2320 -1.6458
  369MOL0     H49812  -0.243  10.217   9.330  1.1325  0.3441 -2.4012
  369MOL0     H49813   0.008  10.193   9.116  1.3012 -0.4750  2.4021
  369MOL0     H49814  -0.133  10.301   9.149 -0.0898  0.2012  0.9587
  369MOL0     H49815   0.040  10.359   9.164  0.2584  0.7257 -1.1694
  370MOL0     O49816   9.017   7.398   5.598  0.1534  0.0961 -0.0910
  370MOL0     C49817   8.940   7.348   5.679 -0.6016 -0.2155 -0.6367
  370MOL0     O49818   8.961   7.253   5.770  0.2771  0.8318 -0.1362
  370MOL0     C49819   9.082   7.185   5.776  0.0872 -0.0299 -0.4241
  370MOL0     C49820   9.089   7.052   5.741 -0.2904 -0.8985  0.5107
  370MOL0     C49821   9.206   6.982   5.758  0.6784  0.7070  0.2991
  370MOL0     C49822   9.322   7.030   5.818 -0.2879 -0.2435  0.2733
  370MOL0     O49823   9.436   6.969   5.855 -0.3130 -0.3021  0.2090
  370MOL0     C49824   9.436   6.821   5.852  0.7677  0.5176 -0.4987
  370MOL0     C49825   9.583   6.780   5.875 -0.5193 -0.3592  0.4019
  370MOL0     C49826   9.637   6.839   6.008  0.3633 -0.5193  0.2426
  370MOL0     C49827   9.761   6.758   6.043  0.1948 -0.1975  0.5472
  370MOL0     C49828   9.808   6.783   6.181 -0.2822  0.6959 -0.6976
  370MOL0     C49829   9.836   6.930   6.211  0.5909 -0.3707 -0.1191
  370MOL0     C49830   9.912   6.933   6.350  0.3691  0.1323  1.2270
  370MOL0     C49831   9.928   7.071   6.405  0.6070 -0.3991  0.0614
  370MOL0     N49832   9.992   7.149   6.302  0.8377  0.5074 -0.1602
  370MOL0     C49833   9.929   7.221   6.196 -0.0175  0.3966 -0.2064
  370MOL0     C49834  10.024   7.293   6.132 -0.4043 -0.4275  0.2739
  370MOL0     C49835  10.009   7.369   6.001  0.5366 -0.0156 -0.6171
  370MOL0     C49836   9.861   7.355   5.966  0.1774 -0.0444 -0.3726
  370MOL0     C49837   9.815   7.411   5.835  0.3479  0.0995  0.2486
  370MOL0     C49838   9.786   7.561   5.860  0.0989 -0.6358  0.1158
  370MOL0     O49839   9.898   7.640   5.895  0.0034 -1.0048  0.4760
  370MOL0     C49840   9.977   7.695   5.803 -0.4815  0.2118  0.7709
  370MOL0     C49841  10.082   7.776   5.836  0.4520 -0.3790  0.0004
  370MOL0     C49842  10.174   7.817   5.744 -0.6507  0.2751  0.4819
  370MOL0     C49843  10.168   7.793   5.605  0.4222 -0.0998 -0.8616
  370MOL0     C49844  10.277   7.827   5.510  0.4059  0.6756  0.9398
  370MOL0     O49845  10.398   7.874   5.561  0.1231  0.0649  0.0376
  370MOL0     C49846  10.494   7.945   5.489 -0.2961  0.0531 -0.2429
  370MOL0     C49847  10.579   8.038   5.561 -0.0647  0.1940  0.2973
  370MOL0     C49848  10.696   8.081   5.504 -0.8986  0.0950 -0.0770
  370MOL0     C49849  10.722   8.060   5.369  0.6233 -0.0824 -0.0711
  370MOL0     O49850  10.815   8.144   5.317  0.1790 -0.0117  0.4512
  370MOL0     C49851  10.859   8.112   5.190 -0.6377  0.3183  0.2955
  370MOL0     C49852  10.997   8.172   5.158  0.4744 -0.2036  0.6902
  370MOL0     C49853  10.992   8.325   5.153 -0.0003 -0.2274 -0.4172
  370MOL0     C49854  10.875   8.382   5.059 -0.1513 -0.4821  0.3167
  370MOL0     C49855  10.904   8.528   5.031  0.0490 -0.3530  0.3815
  370MOL0     C49856  10.776   8.605   4.996 -0.3062 -0.5808  0.6145
  370MOL0     C49857  10.815   8.756   4.978 -0.2431  0.6588 -0.1076
  370MOL0     C49858  10.718   8.813   4.875  0.6250 -0.1883 -0.0977
  370MOL0    Cl49859  10.735   8.757   4.710  0.1187  0.2116  0.0548
  370MOL0     C49860  10.626   7.978   5.296 -0.3087 -0.7950  0.2221
  370MOL0     C49861  10.514   7.926   5.356 -0.2389  0.6558  1.1204
  370MOL0     O49862  10.244   7.818   5.389 -0.2754 -0.8413  0.2199
  370MOL0     C49863  10.058   7.714   5.571 -0.3000 -0.1943 -0.1227
  370MOL0     C49864   9.962   7.664   5.661  0.2771 -0.0142 -0.9200
  370MOL0     N49865  10.142   7.273   6.202 -0.1428  0.3433 -0.4799
  370MOL0     N49866  10.119   7.194   6.306 -0.2337 -1.0394 -0.0025
  370MOL0     C49867   9.321   7.172   5.842  0.7228  0.1472  0.7303
  370MOL0     C49868   9.200   7.239   5.832 -0.3367 -0.4731  0.4311
  370MOL0     C49869   8.802   7.411   5.681  0.1300 -0.0209 -0.6303
  370MOL0     C49870   8.746   7.457   5.563 -0.9341  0.2497 -0.0077
  370MOL0     C49871   8.615   7.506   5.557 -0.4115 -0.5866 -1.1538
  370MOL0     C49872   8.541   7.527   5.673 -0.0567  0.8011 -0.2267
  370MOL0     O49873   8.417   7.580   5.643  0.1030  0.4045 -0.2364
  370MOL0     C49874   8.344   7.645   5.752  0.0284  0.2199  0.4651
  370MOL0     C49875   8.419   7.773   5.813  1.0083  0.3309 -0.3776
  370MOL0     C49876   8.331   7.851   5.916 -0.1776  0.2631  0.7009
  370MOL0     C49877   8.312   7.775   6.043 -0.0246  0.7412 -0.4437
  370MOL0     C49878   8.441   7.761   6.119  0.3388  0.7371 -1.5607
  370MOL0     C49879   8.546   7.761   6.186  0.4847  0.6596 -0.3202
  370MOL0     C49880   8.596   7.499   5.798 -1.0830  0.0794 -0.4773
  370MOL0     C49881   8.730   7.437   5.804  0.8852  0.4210 -0.0082
  370MOL0     C49882   8.787   7.413   5.938 -1.0229  0.6138 -0.0105
  370MOL0     H49883   9.003   6.997   5.705  0.4136  0.0813 -3.0572
  370MOL0     H49884   9.195   6.875   5.746  1.0639  0.3616  2.5449
  370MOL0     H49885   9.386   6.783   5.941  2.7990  2.5773  1.6829
  370MOL0     H49886   9.389   6.781   5.762  0.9782  1.0568 -0.8558
  370MOL0     H49887   9.643   6.824   5.795 -2.1183 -1.4172 -1.4747
  370MOL0     H49888   9.594   6.671   5.879  0.7511 -0.2412  0.4634
  370MOL0     H49889   9.561   6.825   6.085  0.4719 -0.5862  0.3384
  370MOL0     H49890   9.658   6.945   5.996  2.2509 -0.9076 -0.3785
  370MOL0     H49891   9.743   6.650   6.033  0.8953 -0.2364 -0.2787
  370MOL0     H49892   9.838   6.779   5.969 -0.7405  1.1882 -0.0813
  370MOL0     H49893   9.737   6.744   6.254 -0.3757  2.5865  0.2738
  370MOL0     H49894   9.905   6.737   6.203 -0.8088  0.3386  1.0066
  370MOL0     H49895   9.901   6.963   6.129  2.2153 -0.4654  1.0650
  370MOL0     H49896   9.740   6.978   6.196  2.0383  2.1166 -2.2801
  370MOL0     H49897  10.014   6.891   6.354  1.7608  2.6191 -2.5315
  370MOL0     H49898   9.853   6.878   6.424 -0.5407  0.7815  0.9978
  370MOL0     H49899   9.831   7.121   6.408  0.8970  0.2950 -1.3005
  370MOL0     H49900   9.967   7.081   6.507  0.4616  1.2433 -0.0171
  370MOL0     H49901   9.828   7.200   6.162  0.2093 -0.1199 -0.5827
  370MOL0     H49902  10.033   7.472   6.029 -0.8145  0.3171 -0.6397
  370MOL0     H49903  10.075   7.334   5.921 -0.0950 -1.0958 -0.6739
  370MOL0     H49904   9.841   7.248   5.954  1.7688 -0.3376 -0.5423
  370MOL0     H49905   9.799   7.384   6.052 -0.0113 -0.5086 -0.3484
  370MOL0     H49906   9.716   7.366   5.822  0.0378 -0.5925  3.8982
  370MOL0     H49907   9.894   7.386   5.764  3.7743 -1.4658  4.1751
  370MOL0     H49908   9.720   7.579   5.945  0.9828 -0.7868  0.8516
  370MOL0     H49909   9.731   7.596   5.773  0.2503  0.4220  0.4264
  370MOL0     H49910  10.092   7.795   5.942 -0.5643  3.3973 -0.4417
  370MOL0     H49911  10.259   7.875   5.781  1.5103 -1.7858 -0.9912
  370MOL0     H49912  10.555   8.057   5.665 -0.7028 -0.0808  0.2054
  370MOL0     H49913  10.758   8.153   5.556 -1.6760  3.1334 -2.9984
  370MOL0     H49914  10.868   8.004   5.180 -0.2280  0.5685 -3.4873
  370MOL0     H49915  10.785   8.146   5.117 -0.5610  0.6055  0.3490
  370MOL0     H49916  11.063   8.136   5.238  0.4735 -4.1884 -0.8758
  370MOL0     H49917  11.041   8.142   5.062 -0.7107  0.6498 -0.1453
  370MOL0     H49918  10.990   8.365   5.255  0.7185 -0.6072 -0.2466
  370MOL0     H49919  11.088   8.355   5.109 -0.2498 -0.3355 -1.0489
  370MOL0     H49920  10.782   8.371   5.116  0.3048 -3.6105  0.5896
  370MOL0     H49921  10.865   8.315   4.974 -1.5155 -1.1761  0.9805
  370MOL0     H49922  10.971   8.544   4.947 -0.4875  0.7839  0.1588
  370MOL0     H49923  10.946   8.572   5.122  0.8281 -0.9201  0.3105
  370MOL0     H49924  10.728   8.560   4.909 -1.3987 -2.6708  2.1905
  370MOL0     H49925  10.704   8.598   5.078 -0.4106 -1.2700  0.4728
  370MOL0     H49926  10.917   8.762   4.938 -0.7209  1.1155 -1.2833
  370MOL0     H49927  10.817   8.810   5.074  1.0608 -0.5209  0.5708
  370MOL0     H49928  10.616   8.784   4.902  0.8910 -2.7768 -1.5821
  370MOL0     H49929  10.722   8.922   4.871  1.3273 -0.2118 -0.0619
  370MOL0     H49930  10.639   7.982   5.189 -1.2000  1.7948  0.1293
  370MOL0     H49931  10.457   7.856   5.295 -0.8759  2.3572 -0.3118
  370MOL0     H49932  10.040   7.689   5.467  1.8502  1.1758 -0.8784
  370MOL0     H49933   9.881   7.601   5.625 -3.2026  2.6561  1.5523
  370MOL0     H49934   9.406   7.223   5.886  0.7383  1.9837 -1.2644
  370MOL0     H49935   9.209   7.339   5.872  3.3004  0.2486 -1.7444
  370MOL0     H49936   8.815   7.456   5.480  0.1580  2.1335  0.8079
  370MOL0     H49937   8.577   7.533   5.460 -3.3246 -2.5928 -0.7167
  370MOL0     H49938   8.321   7.576   5.833 -0.3861  1.4929  1.4706
  370MOL0     H49939   8.245   7.676   5.717 -0.5814 -3.0097 -1.0242
  370MOL0     H49940   8.432   7.838   5.726 -0.4137  0.5039 -0.4876
  370MOL0     H49941   8.512   7.749   5.865 -1.2608 -1.3415  3.3793
  370MOL0     H49942   8.239   7.877   5.864 -0.2537 -2.0663 -0.4668
  370MOL0     H49943   8.389   7.940   5.940  0.4359  0.1726 -0.3455
  370MOL0     H49944   8.239   7.821   6.109 -0.0281 -1.4309  1.1567
  370MOL0     H49945   8.264   7.679   6.027  1.3038  0.2570 -1.8446
  370MOL0     H49946   8.630   7.765   6.253 -0.9945  0.2736  1.6655
  370MOL0     H49947   8.533   7.510   5.885  0.2482 -1.8432  0.7855
  370MOL0     H49948   8.793   7.306   5.962  2.3419  1.3089  3.3430
  370MOL0     H49949   8.882   7.466   5.949  0.0024 -1.4109  1.7343
  370MOL0     H49950   8.728   7.448   6.023 -3.6702 -1.9694 -0.6036
  371MOL0     O49951   7.573   8.538   6.396  0.1475  0.5328 -0.4341
  371MOL0     C49952   7.587   8.566   6.512 -0.0039 -0.3902 -0.2360
  371MOL0     O49953   7.695   8.627   6.567  0.3161 -0.2416 -0.9164
  371MOL0     C49954   7.782   8.704   6.489  1.0509  0.0134  0.0689
  371MOL0     C49955   7.747   8.802   6.411 -0.0753 -0.1354  0.1873
  371MOL0     C49956   7.835   8.891   6.369 -0.0844 -0.0480  0.3959
  371MOL0     C49957   7.968   8.874   6.393 -0.1868  0.1829 -0.5480
  371MOL0     O49958   8.046   8.978   6.352  0.5558  0.0897 -0.5865
  371MOL0     C49959   8.181   8.977   6.401  0.3545  0.2519  0.5140
  371MOL0     C49960   8.258   9.093   6.333 -0.6461 -0.1800 -0.3330
  371MOL0     C49961   8.391   9.118   6.397  0.2708 -0.0107 -0.1385
  371MOL0     C49962   8.475   9.225   6.317  0.1893  0.6609 -0.7115
  371MOL0     C49963   8.623   9.219   6.351 -0.2791 -0.4027  1.0646
  371MOL0     C49964   8.696   9.323   6.261  0.0268 -0.3993 -0.2495
  371MOL0     C49965   8.703   9.280   6.116 -0.7010 -0.0780  0.3731
  371MOL0     C49966   8.746   9.408   6.047 -0.0808  0.5938 -0.4157
  371MOL0     N49967   8.869   9.475   6.093  0.4153  0.4956 -0.2694
  371MOL0     C49968   9.000   9.448   6.041  0.6339  0.1426 -0.4895
  371MOL0     C49969   9.086   9.543   6.094  0.0171 -0.4121  0.3201
  371MOL0     C49970   9.224   9.563   6.058 -0.1688 -0.4585  0.3371
  371MOL0     C49971   9.305   9.471   5.965  0.2166  0.7670  0.5955
  371MOL0     C49972   9.425   9.539   5.906  0.5718  0.4003  0.2461
  371MOL0     C49973   9.536   9.548   6.005 -0.0039 -0.9330  0.1515
  371MOL0     O49974   9.619   9.428   5.994  0.3589 -0.9386 -0.1850
  371MOL0     C49975   9.731   9.438   6.072 -1.3103  0.3670  1.3566
  371MOL0     C49976   9.849   9.466   6.004  0.0048  0.0720 -0.3377
  371MOL0     C49977   9.968   9.471   6.072 -0.6831 -0.5150  0.4727
  371MOL0     C49978   9.974   9.452   6.211 -0.1981 -0.1128  0.2784
  371MOL0     C49979  10.099   9.469   6.275  0.1700  0.4992  0.2856
  371MOL0     O49980  10.082   9.448   6.407 -0.8341 -0.4495  0.0741
  371MOL0     C49981  10.176   9.488   6.499 -0.1126  0.4554 -0.2660
  371MOL0     C49982  10.254   9.607   6.488 -0.0939  0.5597 -0.5771
  371MOL0     C49983  10.350   9.635   6.587  0.1637  0.2317  0.0687
  371MOL0     C49984  10.363   9.553   6.696  1.1473  0.3436  0.2752
  371MOL0     O49985  10.454   9.588   6.794 -0.9536 -0.2632 -0.2680
  371MOL0     C49986  10.557   9.690   6.777  0.0820 -1.1275  0.9748
  371MOL0     C49987  10.676   9.667   6.682 -0.1799 -0.5179 -0.2379
  371MOL0     C49988  10.770   9.789   6.661 -0.1907  0.5380  0.1087
  371MOL0     C49989  10.860   9.816   6.782 -0.7406  0.7827 -0.4618
  371MOL0     C49990  10.979   9.905   6.758 -1.1981  0.0435  0.1380
  371MOL0     C49991  11.097   9.883   6.855  0.5854  0.1784  0.0874
  371MOL0     C49992  11.218   9.978   6.829  0.3164 -0.3004 -0.0234
  371MOL0     C49993  11.343   9.937   6.905  0.2788 -0.0810 -0.3571
  371MOL0    Cl49994  11.406   9.787   6.836 -0.5013  0.0419 -0.0248
  371MOL0     C49995  10.284   9.442   6.710  0.3877 -0.1348  0.1106
  371MOL0     C49996  10.186   9.406   6.619 -0.3617  0.2608  0.1741
  371MOL0     O49997  10.201   9.495   6.209  0.2801 -0.2541  0.2976
  371MOL0     C49998   9.852   9.427   6.284  0.0176  0.2059 -0.3461
  371MOL0     C49999   9.735   9.422   6.208  0.0578  0.1404 -0.6736
  371MOL0     N50000   9.007   9.613   6.182  0.5117  0.2081 -0.0206
  371MOL0     N50001   8.880   9.578   6.181  0.5817 -0.1519  0.1947
  371MOL0     C50002   8.009   8.759   6.464 -0.3439 -0.5002 -0.4938
  371MOL0     C50003   7.910   8.670   6.512 -0.2390 -0.3346  0.2145
  371MOL0     C50004   7.479   8.523   6.593  0.6826  0.0872 -0.2413
  371MOL0     C50005   7.343   8.516   6.538  0.4110 -0.5192  0.4106
  371MOL0     C50006   7.234   8.481   6.623  0.8842 -0.4902  0.2938
  371MOL0     C50007   7.248   8.471   6.759  0.2405 -0.4413  0.3539
  371MOL0     O50008   7.145   8.459   6.844  0.2494  0.0860 -0.3309
  371MOL0     C50009   7.005   8.464   6.806  0.6763  0.2961 -0.4050
  371MOL0     C50010   6.903   8.431   6.921 -0.2702  0.0046 -0.0255
  371MOL0     C50011   6.916   8.289   6.962  0.8323  0.2670 -0.6289
  371MOL0     C50012   6.894   8.190   6.853 -0.0019 -0.2166  0.1192
  371MOL0     C50013   6.871   8.051   6.905  0.2404 -0.8678 -0.6830
  371MOL0     C50014   6.837   7.942   6.953  0.0558 -0.2644 -0.1944
  371MOL0     C50015   7.376   8.482   6.809  0.0765 -0.0769  0.3736
  371MOL0     C50016   7.494   8.498   6.730  0.2952  0.9443  0.1785
  371MOL0     C50017   7.622   8.509   6.813  0.0574  0.1312 -0.3769
  371MOL0     H50018   7.643   8.827   6.390 -0.5882 -3.4291 -2.0404
  371MOL0     H50019   7.807   8.981   6.316 -1.4536 -0.5795  0.1738
  371MOL0     H50020   8.182   8.982   6.510  2.4317  1.4276  0.4896
  371MOL0     H50021   8.222   8.887   6.354  0.9751  0.5002  0.5673
  371MOL0     H50022   8.198   9.184   6.337 -2.7537 -1.4647 -0.9909
  371MOL0     H50023   8.273   9.074   6.227 -0.1684 -1.7753 -0.0026
  371MOL0     H50024   8.439   9.020   6.398  0.1328 -0.0769  0.7220
  371MOL0     H50025   8.376   9.143   6.503 -3.2477 -0.9531 -0.2735
  371MOL0     H50026   8.470   9.195   6.212  1.2585 -1.7395 -0.1539
  371MOL0     H50027   8.436   9.323   6.343  3.7275  1.7715  1.0318
  371MOL0     H50028   8.636   9.246   6.456 -1.1388 -0.1438  1.1128
  371MOL0     H50029   8.677   9.125   6.336 -0.1857 -0.2883  0.6706
  371MOL0     H50030   8.641   9.417   6.273 -1.2727 -0.9393 -1.6318
  371MOL0     H50031   8.795   9.337   6.304  0.9010 -0.5818 -2.1102
  371MOL0     H50032   8.608   9.246   6.073 -1.5053 -0.2415  2.1841
  371MOL0     H50033   8.775   9.197   6.113 -1.5762 -0.8405 -0.3269
  371MOL0     H50034   8.755   9.384   5.941 -1.5017 -1.2641 -0.1535
  371MOL0     H50035   8.666   9.481   6.065  0.1547  0.6851  0.3242
  371MOL0     H50036   9.019   9.366   5.973 -1.9451 -1.0149  0.0627
  371MOL0     H50037   9.236   9.664   6.018  1.9834 -0.8842 -0.2446
  371MOL0     H50038   9.279   9.554   6.153 -0.6504 -5.3463  0.4501
  371MOL0     H50039   9.332   9.382   6.024  0.7962  1.8107  1.9569
  371MOL0     H50040   9.241   9.438   5.882 -0.4055 -0.0471  1.3649
  371MOL0     H50041   9.401   9.643   5.881  1.8134  0.3726 -1.1904
  371MOL0     H50042   9.462   9.498   5.812 -0.2921  0.6502 -0.2138
  371MOL0     H50043   9.503   9.565   6.108  1.8206  3.2343  0.2467
  371MOL0     H50044   9.601   9.630   5.973 -0.3231 -1.5183 -2.1508
  371MOL0     H50045   9.852   9.488   5.898 -0.3267 -2.1079 -0.8405
  371MOL0     H50046  10.053   9.514   6.019 -3.5277  1.2205 -3.0372
  371MOL0     H50047  10.239   9.671   6.402  0.0821 -1.1545 -1.9548
  371MOL0     H50048  10.411   9.723   6.570  1.3329 -0.7503 -1.0759
  371MOL0     H50049  10.512   9.788   6.758  0.3055 -0.8869  1.6624
  371MOL0     H50050  10.615   9.703   6.869  0.5878  1.8055  0.3368
  371MOL0     H50051  10.722   9.572   6.710  1.4138 -0.0244 -1.0511
  371MOL0     H50052  10.636   9.662   6.580 -0.5881  1.1023 -0.1909
  371MOL0     H50053  10.826   9.763   6.571 -0.0984  1.6930 -0.1790
  371MOL0     H50054  10.707   9.877   6.648 -0.6661  0.0720 -0.8663
  371MOL0     H50055  10.893   9.718   6.817 -2.4715  0.3742  0.1334
  371MOL0     H50056  10.799   9.849   6.867  0.6970 -0.5106  1.1591
  371MOL0     H50057  10.945  10.007   6.778 -1.1823 -0.3112  2.2768
  371MOL0     H50058  11.014   9.893   6.656 -2.1789  0.8570 -0.3107
  371MOL0     H50059  11.066   9.911   6.957  2.8903  1.7415  0.4446
  371MOL0     H50060  11.137   9.782   6.851  2.0244  0.7612 -1.6703
  371MOL0     H50061  11.177  10.075   6.858  1.0631  0.0624 -0.1669
  371MOL0     H50062  11.252   9.971   6.725  1.9853 -1.5624  0.5733
  371MOL0     H50063  11.428  10.006   6.904  0.5737 -0.4244  0.6384
  371MOL0     H50064  11.316   9.911   7.007 -1.5038  1.9818 -0.2087
  371MOL0     H50065  10.304   9.380   6.797  0.4586 -0.5649 -0.2129
  371MOL0     H50066  10.120   9.320   6.616 -0.5990  0.4712 -0.7433
  371MOL0     H50067   9.857   9.425   6.393  0.6818  0.4076 -0.3669
  371MOL0     H50068   9.640   9.400   6.256 -0.4019 -0.5252 -1.8433
  371MOL0     H50069   8.114   8.733   6.472  0.0712  0.4303 -2.1802
  371MOL0     H50070   7.933   8.583   6.571  0.1860 -2.3073 -2.6670
  371MOL0     H50071   7.322   8.548   6.437 -0.4292 -1.5749  0.2412
  371MOL0     H50072   7.135   8.478   6.580 -0.1307  0.0585  2.4729
  371MOL0     H50073   6.987   8.406   6.715 -0.2458 -0.1324  0.0316
  371MOL0     H50074   6.979   8.568   6.783 -0.8092  0.6237  2.3144
  371MOL0     H50075   6.804   8.458   6.883 -1.1838 -1.3041  1.2967
  371MOL0     H50076   6.920   8.499   7.005 -1.7472 -0.8440  1.0106
  371MOL0     H50077   6.834   8.277   7.034  0.9451  2.1551 -0.1130
  371MOL0     H50078   7.009   8.256   7.010 -0.5400 -1.0172  1.3064
  371MOL0     H50079   6.802   8.219   6.801 -0.3223 -0.1398  0.7175
  371MOL0     H50080   6.982   8.190   6.788  1.3070  2.5792  1.7137
  371MOL0     H50081   6.806   7.845   6.986 -1.2397 -0.1895 -1.0955
  371MOL0     H50082   7.388   8.482   6.917  3.9221  1.1753  0.1205
  371MOL0     H50083   7.618   8.445   6.901 -1.3261  3.1826  1.9783
  371MOL0     H50084   7.714   8.484   6.759 -0.4612 -2.3899 -0.2139
  371MOL0     H50085   7.638   8.609   6.856 -4.6614  0.8353  0.2921
  372MOL0     O50086   8.814   7.137   0.200 -0.3857  0.3817  0.6699
  372MOL0     C50087   8.866   7.048   0.266  0.8145 -0.1689  0.4013
  372MOL0     O50088   9.001   7.034   0.278  0.3538  0.5773  0.2079
  372MOL0     C50089   9.075   7.151   0.263 -0.9071  0.4132 -0.5419
  372MOL0     C50090   9.062   7.245   0.363 -0.4625  0.0070 -0.2435
  372MOL0     C50091   9.137   7.360   0.356 -0.3314 -0.6534 -0.4880
  372MOL0     C50092   9.229   7.381   0.256 -0.0442 -0.1002  0.5288
  372MOL0     O50093   9.313   7.490   0.260  0.3048 -0.3965  0.1862
  372MOL0     C50094   9.259   7.617   0.316 -0.0757 -0.0315 -0.1417
  372MOL0     C50095   9.364   7.723   0.330 -0.1934  0.3992  0.0350
  372MOL0     C50096   9.433   7.711   0.472  0.4074 -0.5482 -0.6214
  372MOL0     C50097   9.521   7.836   0.507  0.8170  0.3391  0.2196
  372MOL0     C50098   9.611   7.856   0.387 -0.2708  0.1831  0.3762
  372MOL0     C50099   9.718   7.958   0.408  0.3974  0.9734  0.0099
  372MOL0     C50100   9.819   7.961   0.300 -0.0433  0.1941 -0.4036
  372MOL0     C50101   9.903   8.071   0.332  0.2251 -0.1715  0.5491
  372MOL0     N50102  10.012   8.089   0.236  0.3909  0.7538 -0.5022
  372MOL0     C50103  10.118   8.003   0.227 -0.1119  0.5435  0.6247
  372MOL0     C50104  10.161   8.021   0.092 -0.3160  1.0590  0.3283
  372MOL0     C50105  10.278   7.952   0.033 -0.5865 -0.9767 -0.5199
  372MOL0     C50106  10.403   8.038   0.039 -0.9585 -0.3498  0.4762
  372MOL0     C50107  10.471   8.050   0.174  0.5403 -0.1826  0.1654
  372MOL0     C50108  10.564   8.175   0.176 -1.0200 -0.2443 -0.2435
  372MOL0     O50109  10.661   8.177   0.067 -0.4138 -0.1606 -0.7024
  372MOL0     C50110  10.764   8.268   0.087 -0.3341 -0.3328 -0.6087
  372MOL0     C50111  10.895   8.220   0.051 -0.4626 -0.5007  0.1587
  372MOL0     C50112  11.000   8.309   0.076  0.0849  0.8200  0.7403
  372MOL0     C50113  10.988   8.435   0.124 -0.2254 -0.4760  0.1331
  372MOL0     C50114  11.103   8.535   0.126  0.1996  0.1936 -0.1764
  372MOL0     O50115  11.234   8.482   0.118 -0.7060 -0.6258  0.5946
  372MOL0     C50116  11.336   8.570   0.082 -0.3841  0.2659  0.0087
  372MOL0     C50117  11.462   8.560   0.140  0.0576  0.5742 -0.2164
  372MOL0     C50118  11.571   8.641   0.105  0.1145 -1.2623 -0.3042
  372MOL0     C50119  11.551   8.735  -0.001 -0.3897  1.0361 -0.6838
  372MOL0     O50120  11.640   8.825  -0.061 -0.1801 -0.1608  0.4172
  372MOL0     C50121  11.764   8.830   0.003 -0.9102  0.7199  0.4672
  372MOL0     C50122  11.844   8.936  -0.071  0.5086 -0.2748  0.2080
  372MOL0     C50123  11.789   9.083  -0.038 -0.2523 -0.9106  0.5180
  372MOL0     C50124  11.824   9.190  -0.145  0.0112 -0.1813 -0.2299
  372MOL0     C50125  11.784   9.341  -0.115 -0.4797  0.4606 -0.2417
  372MOL0     C50126  11.882   9.414  -0.020 -0.1714  0.2612 -0.7790
  372MOL0     C50127  11.834   9.546   0.028  0.4342 -0.0517  0.5505
  372MOL0     C50128  11.727   9.531   0.136  0.4420 -0.1792 -0.3005
  372MOL0    Cl50129  11.796   9.519   0.305  0.1066 -0.3286  0.2839
  372MOL0     C50130  11.428   8.730  -0.069 -1.0770 -0.9563 -0.5853
  372MOL0     C50131  11.326   8.649  -0.031  0.8013  0.2983  0.6562
  372MOL0     O50132  11.069   8.652   0.128  0.4919 -0.3126 -0.6328
  372MOL0     C50133  10.861   8.483   0.166  0.5003 -0.3734  0.5985
  372MOL0     C50134  10.749   8.406   0.142 -0.6577 -0.4873 -0.2946
  372MOL0     N50135  10.086   8.115   0.038  0.0091 -0.2410 -0.9255
  372MOL0     N50136   9.995   8.155   0.120  0.0330 -0.6591  0.1802
  372MOL0     C50137   9.250   7.288   0.162 -0.2037  0.0591  0.5234
  372MOL0     C50138   9.168   7.169   0.164 -1.0779  0.2973  0.1769
  372MOL0     C50139   8.785   6.946   0.325  0.3331  0.1421  1.2536
  372MOL0     C50140   8.861   6.830   0.362  0.5002  0.0433 -1.0370
  372MOL0     C50141   8.795   6.715   0.393  0.2825 -0.1994  0.1019
  372MOL0     C50142   8.655   6.712   0.407 -0.1702  0.5542 -0.4665
  372MOL0     O50143   8.605   6.589   0.450  0.0217 -0.2716  0.1203
  372MOL0     C50144   8.485   6.577   0.524  0.0132 -0.3085 -0.1225
  372MOL0     C50145   8.468   6.437   0.580 -0.0793 -0.1269 -0.4567
  372MOL0     C50146   8.326   6.416   0.646  0.4759 -0.7533 -0.4505
  372MOL0     C50147   8.324   6.290   0.739  0.3495 -0.2133  0.1458
  372MOL0     C50148   8.189   6.293   0.805  0.2838  0.0848  0.4882
  372MOL0     C50149   8.087   6.299   0.865 -0.0628  0.2496 -0.0130
  372MOL0     C50150   8.582   6.826   0.382 -0.1202  1.1028  0.5588
  372MOL0     C50151   8.642   6.939   0.344 -0.0399 -0.2074  0.6567
  372MOL0     C50152   8.546   7.058   0.327 -0.6909  0.3888 -0.6197
  372MOL0     H50153   9.002   7.217   0.449 -0.4332 -2.6160 -0.9877
  372MOL0     H50154   9.113   7.441   0.425 -1.8621 -0.4721 -1.1912
  372MOL0     H50155   9.187   7.664   0.248  2.2775  2.4086 -1.1418
  372MOL0     H50156   9.216   7.606   0.416 -3.1628 -0.3129 -1.3889
  372MOL0     H50157   9.317   7.821   0.317  2.4420  1.7469 -0.0863
  372MOL0     H50158   9.432   7.712   0.245 -2.8020  3.1194 -2.6513
  372MOL0     H50159   9.489   7.618   0.480  0.0598 -0.5735  2.8691
  372MOL0     H50160   9.352   7.703   0.545 -0.0599  1.8036 -0.8083
  372MOL0     H50161   9.459   7.926   0.518 -1.5201 -0.9285 -1.5685
  372MOL0     H50162   9.576   7.823   0.601 -0.6021 -1.6784  0.8420
  372MOL0     H50163   9.668   7.766   0.362  0.1236 -0.5599  3.5113
  372MOL0     H50164   9.553   7.882   0.298 -0.6866  2.7385  1.3269
  372MOL0     H50165   9.665   8.053   0.412 -1.8799 -0.1719 -1.1044
  372MOL0     H50166   9.761   7.937   0.507  1.0837  3.8951  0.4059
  372MOL0     H50167   9.765   7.974   0.206 -1.4489 -1.0697  0.1913
  372MOL0     H50168   9.882   7.871   0.298  0.2628  0.2336  2.8273
  372MOL0     H50169   9.838   8.159   0.324  0.7107  0.1900  0.5609
  372MOL0     H50170   9.947   8.070   0.431  2.3510 -0.1249 -0.3474
  372MOL0     H50171  10.166   7.941   0.302 -0.2304 -1.3110 -0.7713
  372MOL0     H50172  10.301   7.858   0.084 -1.7680 -0.1739  1.6271
  372MOL0     H50173  10.262   7.921  -0.071 -0.4258 -0.5288 -0.6828
  372MOL0     H50174  10.480   8.006  -0.032  1.4321  1.4781  2.0484
  372MOL0     H50175  10.375   8.139   0.008  1.9046  0.5531  0.5352
  372MOL0     H50176  10.545   7.971   0.187  0.8287  0.1222  0.3762
  372MOL0     H50177  10.390   8.054   0.248 -1.2322  0.2793 -1.6897
  372MOL0     H50178  10.617   8.190   0.271  0.3464 -0.1180 -1.0012
  372MOL0     H50179  10.497   8.258   0.156 -0.4817  0.0344 -0.9264
  372MOL0     H50180  10.898   8.120   0.008 -0.3841 -0.6785  0.5681
  372MOL0     H50181  11.102   8.273   0.066 -0.8595 -1.6271 -1.3716
  372MOL0     H50182  11.452   8.494   0.225 -0.9488  0.0502 -0.7099
  372MOL0     H50183  11.655   8.624   0.172  1.8727  1.4571 -1.6412
  372MOL0     H50184  11.746   8.863   0.105  0.6252  2.9230  0.1212
  372MOL0     H50185  11.817   8.735   0.015 -0.9877  0.6464  0.2227
  372MOL0     H50186  11.949   8.936  -0.039  0.1163  0.2388  1.5581
  372MOL0     H50187  11.828   8.908  -0.175 -0.0633 -3.8190  1.1147
  372MOL0     H50188  11.680   9.080  -0.032 -0.2854 -0.7760  0.0358
  372MOL0     H50189  11.831   9.106   0.060 -0.1791 -5.3810  1.7808
  372MOL0     H50190  11.781   9.152  -0.238  0.3455 -2.8480  0.6313
  372MOL0     H50191  11.933   9.185  -0.157  0.4325 -0.3651  2.8866
  372MOL0     H50192  11.682   9.341  -0.077 -0.0918 -4.2965  1.4585
  372MOL0     H50193  11.790   9.400  -0.208 -0.8736 -1.0285 -1.2528
  372MOL0     H50194  11.913   9.348   0.062 -0.2025 -1.1082 -1.8431
  372MOL0     H50195  11.979   9.433  -0.066  0.0673 -0.4788 -0.5936
  372MOL0     H50196  11.794   9.595  -0.061  0.7140 -1.6755 -0.5022
  372MOL0     H50197  11.910   9.613   0.070 -0.0871  0.0360  1.3800
  372MOL0     H50198  11.665   9.621   0.144 -1.0458 -1.2857  1.2987
  372MOL0     H50199  11.651   9.454   0.123 -0.9177  0.7136  1.7629
  372MOL0     H50200  11.417   8.801  -0.150 -0.5057  1.7119  1.5166
  372MOL0     H50201  11.234   8.646  -0.088  1.8497 -2.7973 -1.1498
  372MOL0     H50202  10.851   8.583   0.206  1.0300 -0.2958  0.5560
  372MOL0     H50203  10.649   8.438   0.171 -0.6700 -0.5745 -0.2403
  372MOL0     H50204   9.332   7.297   0.092 -0.9251  2.7325 -0.0827
  372MOL0     H50205   9.171   7.097   0.083 -0.8820  0.3949  0.0974
  372MOL0     H50206   8.969   6.833   0.351  0.5511 -0.9091 -0.9260
  372MOL0     H50207   8.851   6.625   0.417  0.7586  0.0546 -0.0339
  372MOL0     H50208   8.395   6.592   0.464 -0.1601  0.6660  0.3520
  372MOL0     H50209   8.478   6.639   0.615  0.1941 -1.4685  0.7053
  372MOL0     H50210   8.545   6.425   0.657 -1.2471 -1.1783  0.5848
  372MOL0     H50211   8.490   6.367   0.500  1.0747 -2.8672  2.0696
  372MOL0     H50212   8.261   6.400   0.559  2.6046 -2.9865 -1.7767
  372MOL0     H50213   8.294   6.509   0.694  3.4657  0.1293  0.0099
  372MOL0     H50214   8.332   6.196   0.685  1.7498 -0.4209  0.6700
  372MOL0     H50215   8.400   6.290   0.818 -0.6590 -2.1886  1.1881
  372MOL0     H50216   8.001   6.310   0.928  1.0151  1.0465  1.3769
  372MOL0     H50217   8.476   6.834   0.404 -0.8804 -2.7469 -0.7823
  372MOL0     H50218   8.512   7.064   0.223  1.6309  0.5280 -1.4149
  372MOL0     H50219   8.470   7.056   0.405 -0.1217 -1.0344 -0.0651
  372MOL0     H50220   8.593   7.156   0.337 -1.8159  1.0923 -1.7775
  373MOL0     O50221   6.322   5.982   4.600 -0.6238 -0.4181  0.1940
  373MOL0     C50222   6.317   5.869   4.547  0.3304 -0.0670  0.8833
  373MOL0     O50223   6.421   5.779   4.521 -0.0598  0.3199 -0.0913
  373MOL0     C50224   6.543   5.806   4.578  0.3218  0.0241 -0.1528
  373MOL0     C50225   6.597   5.710   4.663  0.5592 -0.4083 -0.0807
  373MOL0     C50226   6.733   5.725   4.708  0.4081  0.4547  0.4709
  373MOL0     C50227   6.806   5.837   4.674  0.0815 -1.0022 -0.3114
  373MOL0     O50228   6.935   5.854   4.732  0.0944  0.0351 -0.4444
  373MOL0     C50229   7.044   5.936   4.683 -0.0192 -0.6815 -0.0382
  373MOL0     C50230   7.182   5.910   4.749  1.0919 -0.9469  0.7038
  373MOL0     C50231   7.292   5.959   4.653  0.5084  0.0269  0.1316
  373MOL0     C50232   7.334   5.841   4.559 -0.4944 -0.0282 -0.2684
  373MOL0     C50233   7.456   5.885   4.483 -1.0473 -0.3501  0.0071
  373MOL0     C50234   7.506   5.775   4.388  0.6812 -0.1074  0.0326
  373MOL0     C50235   7.641   5.818   4.324 -0.3585  0.2903 -0.4665
  373MOL0     C50236   7.675   5.712   4.222 -0.6471  0.1224 -0.0906
  373MOL0     N50237   7.814   5.728   4.162 -0.3547  0.0745  0.1759
  373MOL0     C50238   7.927   5.673   4.221 -0.2679  0.6384 -0.2653
  373MOL0     C50239   8.021   5.679   4.122  0.4641 -0.2124  0.3242
  373MOL0     C50240   8.164   5.626   4.143 -0.1502  0.2688  0.1824
  373MOL0     C50241   8.267   5.734   4.123 -0.2626 -0.1323 -0.7811
  373MOL0     C50242   8.407   5.670   4.153  0.7216  0.1293  0.2287
  373MOL0     C50243   8.531   5.753   4.112 -0.2911  0.0767  0.2791
  373MOL0     O50244   8.651   5.680   4.160  0.2549 -0.3883  0.2614
  373MOL0     C50245   8.777   5.726   4.126  0.7183  0.3537 -0.0922
  373MOL0     C50246   8.895   5.677   4.192  0.1294  0.1967 -0.3449
  373MOL0     C50247   9.025   5.711   4.156  0.2857 -0.2540  0.6899
  373MOL0     C50248   9.045   5.809   4.058  0.7334  0.1792 -0.1198
  373MOL0     C50249   9.182   5.861   4.035  0.2049 -0.2369 -1.3763
  373MOL0     O50250   9.284   5.802   4.103 -0.2913  0.4698  0.7567
  373MOL0     C50251   9.417   5.853   4.092  0.0109 -0.2498 -0.1941
  373MOL0     C50252   9.510   5.790   4.010  0.1260  0.3106  0.2874
  373MOL0     C50253   9.635   5.845   3.998 -0.3147  0.3385 -0.1809
  373MOL0     C50254   9.668   5.970   4.053 -0.4224 -0.3631 -0.2431
  373MOL0     O50255   9.796   6.013   4.039 -0.9870  0.5731  0.3059
  373MOL0     C50256   9.850   6.103   4.140 -0.1085  0.2976  0.4845
  373MOL0     C50257   9.999   6.102   4.123 -0.1367  0.7223 -0.3122
  373MOL0     C50258  10.060   6.177   4.240  0.8340  0.2507  0.4637
  373MOL0     C50259  10.213   6.210   4.217  0.7139 -0.0209  0.6351
  373MOL0     C50260  10.266   6.267   4.349  0.3532 -0.5208 -0.0461
  373MOL0     C50261  10.403   6.330   4.331 -0.4046 -0.1054  0.0086
  373MOL0     C50262  10.490   6.327   4.459  0.4992  0.2072  0.2806
  373MOL0     C50263  10.629   6.377   4.433 -0.0584 -0.6597 -0.6385
  373MOL0    Cl50264  10.639   6.544   4.383 -0.0525 -0.0013 -0.1156
  373MOL0     C50265   9.575   6.034   4.137 -0.0087  0.2206  0.3928
  373MOL0     C50266   9.449   5.976   4.155 -0.1528  0.0583 -0.0976
  373MOL0     O50267   9.192   5.957   3.955 -0.3425 -0.3208 -0.0187
  373MOL0     C50268   8.927   5.859   3.991 -0.1411 -0.4007  0.4491
  373MOL0     C50269   8.798   5.821   4.024  0.4159  0.1471 -0.6675
  373MOL0     N50270   7.972   5.755   4.016  0.8975 -0.5701  0.4293
  373MOL0     N50271   7.845   5.792   4.048 -0.0657 -0.3186 -0.4085
  373MOL0     C50272   6.747   5.932   4.592  0.1650  0.6442  0.1658
  373MOL0     C50273   6.613   5.916   4.545 -0.6695  0.3553 -0.4067
  373MOL0     C50274   6.188   5.832   4.482 -0.2190  0.4921 -0.4279
  373MOL0     C50275   6.194   5.749   4.375  0.0864  0.6051 -0.0422
  373MOL0     C50276   6.081   5.715   4.301  0.2796 -0.0216 -0.0464
  373MOL0     C50277   5.951   5.769   4.338 -0.0221  0.7264  0.5271
  373MOL0     O50278   5.836   5.723   4.284  0.1743  0.6361 -0.3464
  373MOL0     C50279   5.823   5.603   4.200  0.5391  0.6601 -0.2707
  373MOL0     C50280   5.670   5.600   4.177 -0.1922 -0.0171 -0.1287
  373MOL0     C50281   5.597   5.551   4.304 -0.1249 -0.9289 -1.0054
  373MOL0     C50282   5.445   5.553   4.288 -0.1790  0.4902 -0.3225
  373MOL0     C50283   5.389   5.688   4.272 -0.0850 -0.0348  0.1489
  373MOL0     C50284   5.346   5.802   4.256  0.2375 -0.4045  0.7442
  373MOL0     C50285   5.949   5.843   4.452 -0.5734 -0.0199  0.4303
  373MOL0     C50286   6.065   5.881   4.533  0.4372 -0.3464  0.1573
  373MOL0     C50287   6.045   5.943   4.668 -0.0376  0.1115 -0.2872
  373MOL0     H50288   6.548   5.616   4.686 -1.3987  0.8224  1.1070
  373MOL0     H50289   6.781   5.653   4.773 -3.5272 -0.0724  3.1022
  373MOL0     H50290   7.063   5.924   4.576 -0.5276 -1.3403 -0.0541
  373MOL0     H50291   7.018   6.041   4.701 -2.1703 -1.1139 -0.4091
  373MOL0     H50292   7.201   5.804   4.764  1.5600 -1.4793 -2.8027
  373MOL0     H50293   7.182   5.964   4.844 -0.5528  1.1764 -0.4247
  373MOL0     H50294   7.377   5.976   4.720  0.7303 -4.7239  1.4478
  373MOL0     H50295   7.270   6.046   4.590  0.0329 -2.0746 -2.8139
  373MOL0     H50296   7.341   5.745   4.610 -3.0205 -0.9468 -1.4944
  373MOL0     H50297   7.257   5.831   4.482  0.5664 -1.5446 -1.2125
  373MOL0     H50298   7.437   5.985   4.443  1.1618  0.4922  0.8677
  373MOL0     H50299   7.535   5.897   4.558 -0.5243  1.1037 -0.7349
  373MOL0     H50300   7.514   5.685   4.450  0.5683  1.1037  1.9140
  373MOL0     H50301   7.428   5.774   4.312  1.0732  0.5240 -0.3900
  373MOL0     H50302   7.719   5.821   4.401  0.3954  2.3208 -1.2535
  373MOL0     H50303   7.647   5.915   4.275  3.6398 -1.1774 -3.4424
  373MOL0     H50304   7.659   5.613   4.267  0.3307 -0.4083 -0.8751
  373MOL0     H50305   7.602   5.721   4.141 -1.9076 -3.0485  0.5435
  373MOL0     H50306   7.926   5.622   4.318  1.6754  1.2160  0.0957
  373MOL0     H50307   8.178   5.574   4.238  2.0515  0.5202  0.0365
  373MOL0     H50308   8.175   5.551   4.064 -1.7868 -1.1072  1.1770
  373MOL0     H50309   8.261   5.784   4.026  4.9028  2.2044 -0.2166
  373MOL0     H50310   8.240   5.821   4.184 -2.9008 -0.4053 -1.4427
  373MOL0     H50311   8.423   5.577   4.099  1.0962  0.1497  0.3030
  373MOL0     H50312   8.413   5.640   4.258  0.0794 -1.1132 -0.0642
  373MOL0     H50313   8.520   5.851   4.160  0.7976  0.2117  0.2810
  373MOL0     H50314   8.531   5.762   4.003  1.0202  2.5949  0.4078
  373MOL0     H50315   8.883   5.600   4.268  0.6343  1.4070  1.0151
  373MOL0     H50316   9.105   5.665   4.212  0.7941  1.4458  1.4160
  373MOL0     H50317   9.483   5.690   3.977  0.2019  0.5275 -0.4430
  373MOL0     H50318   9.705   5.785   3.940 -0.4035 -0.6150  0.6856
  373MOL0     H50319   9.809   6.203   4.121  0.5276  0.4705  0.0119
  373MOL0     H50320   9.814   6.079   4.241 -1.7775 -1.8820 -0.5276
  373MOL0     H50321  10.033   5.998   4.122 -2.8861 -0.2656  0.2403
  373MOL0     H50322  10.035   6.145   4.029 -1.6612  0.9724 -0.8110
  373MOL0     H50323  10.016   6.275   4.261  3.3825  0.8588  3.7649
  373MOL0     H50324  10.054   6.123   4.335  0.9620 -1.2412 -0.3482
  373MOL0     H50325  10.222   6.290   4.143  0.0204  1.2087  1.8511
  373MOL0     H50326  10.273   6.125   4.181  0.0817 -0.1438 -0.1538
  373MOL0     H50327  10.263   6.194   4.431  0.0425  0.4778  0.8677
  373MOL0     H50328  10.191   6.339   4.383  1.4099  0.2277  0.7763
  373MOL0     H50329  10.452   6.275   4.251  1.2707  1.1579  0.1176
  373MOL0     H50330  10.392   6.436   4.305 -1.0252  0.0615  0.8977
  373MOL0     H50331  10.490   6.225   4.499 -1.2825  0.7695  1.8832
  373MOL0     H50332  10.444   6.388   4.539  3.0406  0.8140  1.3923
  373MOL0     H50333  10.687   6.372   4.526 -0.5560  0.8532 -0.2258
  373MOL0     H50334  10.678   6.322   4.352 -1.4073 -1.3997 -0.9898
  373MOL0     H50335   9.592   6.133   4.177 -1.3352  1.6256 -2.2218
  373MOL0     H50336   9.364   6.023   4.203  0.9255  1.0505  0.9034
  373MOL0     H50337   8.937   5.939   3.919  1.3248 -3.8509 -3.5825
  373MOL0     H50338   8.721   5.876   3.971 -1.3587 -1.9493 -0.3477
  373MOL0     H50339   6.788   6.028   4.563 -0.3784  1.1309  0.9805
  373MOL0     H50340   6.578   5.996   4.480 -0.6162  3.2941  2.8973
  373MOL0     H50341   6.289   5.702   4.351  0.1036  1.6426 -2.1861
  373MOL0     H50342   6.093   5.637   4.226 -1.5996 -1.3361  0.9298
  373MOL0     H50343   5.866   5.517   4.253  2.7978  1.0314 -1.4040
  373MOL0     H50344   5.880   5.618   4.108  1.7178 -1.1488  0.0985
  373MOL0     H50345   5.642   5.530   4.098 -0.1869 -0.9250  0.6508
  373MOL0     H50346   5.641   5.704   4.157 -0.1052  0.4106  1.7359
  373MOL0     H50347   5.627   5.613   4.390 -0.8063 -3.0834  0.8824
  373MOL0     H50348   5.626   5.448   4.327 -0.9190 -0.7426  1.0649
  373MOL0     H50349   5.423   5.500   4.196  0.6502  0.2160 -0.3664
  373MOL0     H50350   5.401   5.499   4.372 -1.2487  2.4925  0.4919
  373MOL0     H50351   5.305   5.899   4.241 -1.5532 -1.0246  1.3040
  373MOL0     H50352   5.852   5.868   4.493 -0.8397  0.5919 -0.5415
  373MOL0     H50353   6.039   6.052   4.659 -0.6822  0.1328  0.3133
  373MOL0     H50354   5.954   5.912   4.719 -0.1680  3.5711  1.9524
  373MOL0     H50355   6.119   5.921   4.746  0.0496  2.5564  0.4295
  374MOL0     O50356   1.972   1.923   4.628  0.0779 -0.3701 -0.4212
  374MOL0     C50357   1.979   2.047   4.625 -0.9005  1.3486 -0.4358
  374MOL0     O50358   2.096   2.112   4.643  0.2780  0.0056  0.1352
  374MOL0     C50359   2.208   2.040   4.689 -0.1273 -0.4159  0.5385
  374MOL0     C50360   2.281   1.944   4.623 -0.3132 -0.4377  0.5274
  374MOL0     C50361   2.398   1.879   4.677  0.0920 -0.3901  0.2972
  374MOL0     C50362   2.442   1.922   4.803  0.1254  0.5563  0.0323
  374MOL0     O50363   2.560   1.885   4.863  0.2874 -0.1640 -0.2793
  374MOL0     C50364   2.630   1.987   4.938 -0.2581  0.0969 -0.4242
  374MOL0     C50365   2.762   1.935   4.964 -0.5375 -0.7561 -1.0169
  374MOL0     C50366   2.820   2.003   5.089 -0.2203 -0.3804 -0.0261
  374MOL0     C50367   2.957   1.934   5.106  0.6866 -0.0382  0.2265
  374MOL0     C50368   3.048   2.008   5.201 -0.2256 -0.2468  0.4860
  374MOL0     C50369   3.184   1.938   5.214  0.7246  0.7475 -0.1323
  374MOL0     C50370   3.251   1.997   5.345  0.2134 -0.1497  0.8608
  374MOL0     C50371   3.396   1.936   5.354  0.7709 -0.9481  0.0770
  374MOL0     N50372   3.478   2.007   5.455 -0.3759  0.4755 -0.3752
  374MOL0     C50373   3.595   1.948   5.491 -0.2075  0.8525 -0.0775
  374MOL0     C50374   3.650   2.036   5.569 -0.4215 -0.0879 -0.2973
  374MOL0     C50375   3.776   2.006   5.649  0.1776  0.3975  0.1432
  374MOL0     C50376   3.902   2.013   5.566 -0.6089 -0.5030 -0.3870
  374MOL0     C50377   4.019   1.986   5.659  0.1443  0.2675 -0.8268
  374MOL0     C50378   4.127   1.922   5.569 -0.3289  0.8202  0.1828
  374MOL0     O50379   4.241   1.862   5.637  0.2397  0.1968 -0.2640
  374MOL0     C50380   4.303   1.939   5.737  0.5500 -0.9593 -0.2016
  374MOL0     C50381   4.385   2.050   5.704 -0.0987  0.0584 -0.5279
  374MOL0     C50382   4.441   2.118   5.809  0.3384  0.0567  0.0853
  374MOL0     C50383   4.417   2.081   5.945  0.4800  0.6415  0.0210
  374MOL0     C50384   4.477   2.161   6.062  0.4137  0.3300  0.5240
  374MOL0     O50385   4.529   2.285   6.032  0.9657 -0.3308 -1.2462
  374MOL0     C50386   4.565   2.382   6.118 -0.1671 -0.0796 -0.2506
  374MOL0     C50387   4.657   2.364   6.224 -0.1562 -0.1092  0.0624
  374MOL0     C50388   4.683   2.463   6.329 -0.2216  0.6684 -0.3744
  374MOL0     C50389   4.608   2.583   6.321  0.1359 -0.4319 -0.7184
  374MOL0     O50390   4.595   2.679   6.420  0.5891 -1.0346 -0.9330
  374MOL0     C50391   4.693   2.676   6.526  0.4509  0.2817 -0.0135
  374MOL0     C50392   4.838   2.704   6.483 -0.6309 -0.5929 -0.1763
  374MOL0     C50393   4.930   2.743   6.595  0.1840  0.1575 -0.5265
  374MOL0     C50394   5.065   2.790   6.537 -0.3559 -0.1959 -0.2314
  374MOL0     C50395   5.156   2.838   6.650  1.0524  0.1480  0.5530
  374MOL0     C50396   5.260   2.935   6.591  0.1131 -0.1988 -0.0168
  374MOL0     C50397   5.341   3.011   6.696  0.0878  0.6461 -0.0453
  374MOL0     C50398   5.449   3.078   6.618 -0.2862 -0.3930 -0.0682
  374MOL0    Cl50399   5.578   2.972   6.553 -0.0781 -0.2478  0.5296
  374MOL0     C50400   4.520   2.599   6.214  0.3177 -0.6033 -0.2769
  374MOL0     C50401   4.497   2.501   6.115  0.2370  0.4391  0.2397
  374MOL0     O50402   4.491   2.094   6.162  0.1956 -0.4429  0.4321
  374MOL0     C50403   4.343   1.974   5.973 -0.1091  0.2943 -0.3006
  374MOL0     C50404   4.278   1.909   5.878 -0.3913  0.1431  0.4664
  374MOL0     N50405   3.568   2.144   5.593  0.9522  0.1133 -0.0747
  374MOL0     N50406   3.463   2.128   5.524 -0.6821  0.4141  0.4035
  374MOL0     C50407   2.356   2.003   4.873 -0.0078  0.0863 -0.1093
  374MOL0     C50408   2.241   2.056   4.820 -0.4604 -0.2839 -1.0023
  374MOL0     C50409   1.870   2.124   4.569  0.1402  0.3110 -0.4444
  374MOL0     C50410   1.911   2.248   4.507  0.3166  0.1438  0.3075
  374MOL0     C50411   1.821   2.341   4.456 -0.9037 -0.4151 -0.4841
  374MOL0     C50412   1.685   2.307   4.457  0.1401 -0.3034  0.2948
  374MOL0     O50413   1.609   2.394   4.386  0.5265  0.0756 -0.5657
  374MOL0     C50414   1.475   2.352   4.355  0.5778 -0.3038  0.0407
  374MOL0     C50415   1.410   2.456   4.255 -0.1360 -0.2012 -0.7358
  374MOL0     C50416   1.261   2.442   4.235 -0.2533  0.2529 -0.0027
  374MOL0     C50417   1.231   2.319   4.143  0.5092  0.0498  0.3050
  374MOL0     C50418   1.101   2.341   4.081 -0.2700  0.0912 -0.7502
  374MOL0     C50419   0.998   2.362   4.024  0.2793 -0.4854 -0.1212
  374MOL0     C50420   1.647   2.187   4.522  0.4823 -0.2104  0.6564
  374MOL0     C50421   1.731   2.094   4.587  0.0614  0.1775  0.1480
  374MOL0     C50422   1.679   1.967   4.648 -0.8291  0.0690  0.1590
  374MOL0     H50423   2.256   1.932   4.518  1.0807 -1.7010  0.3045
  374MOL0     H50424   2.464   1.816   4.620 -0.3212 -1.6444  1.1495
  374MOL0     H50425   2.633   2.083   4.885 -1.0959  0.6013  0.4120
  374MOL0     H50426   2.576   1.991   5.033  0.1509  0.5070 -0.2026
  374MOL0     H50427   2.830   1.956   4.881 -1.5124  0.4258 -1.5479
  374MOL0     H50428   2.763   1.828   4.983  2.0941 -0.4095  1.4160
  374MOL0     H50429   2.754   1.987   5.174 -1.2761  2.2683 -0.2527
  374MOL0     H50430   2.825   2.112   5.079 -1.8244 -0.2814  0.1081
  374MOL0     H50431   2.945   1.834   5.149 -0.6771 -0.0758 -0.2207
  374MOL0     H50432   3.005   1.916   5.009 -0.6330  1.2790 -0.7254
  374MOL0     H50433   3.070   2.110   5.167 -0.2693 -0.2805  0.3544
  374MOL0     H50434   3.001   2.022   5.298  0.3939  2.3658  0.4989
  374MOL0     H50435   3.176   1.829   5.215 -0.9450  0.8124 -1.7795
  374MOL0     H50436   3.252   1.967   5.134  2.2361  0.1852  0.8958
  374MOL0     H50437   3.186   1.970   5.429  1.4543 -0.1924  1.8305
  374MOL0     H50438   3.248   2.106   5.346 -1.9765 -0.1587  1.8988
  374MOL0     H50439   3.399   1.830   5.382 -0.2844 -1.6689 -2.3192
  374MOL0     H50440   3.452   1.930   5.261  2.6433 -3.0870  1.2355
  374MOL0     H50441   3.628   1.850   5.458 -0.4501  1.3238 -1.8640
  374MOL0     H50442   3.778   2.082   5.728 -2.8401 -1.8537  2.6086
  374MOL0     H50443   3.772   1.907   5.695  1.1184 -0.2655 -1.1476
  374MOL0     H50444   3.898   1.944   5.482 -1.5894 -1.1354  0.1650
  374MOL0     H50445   3.926   2.111   5.525 -1.3544  0.1589  0.7167
  374MOL0     H50446   3.996   1.923   5.745  0.3339  2.3130  0.8174
  374MOL0     H50447   4.059   2.077   5.706  1.2622 -0.0408 -1.1546
  374MOL0     H50448   4.177   2.000   5.512  2.4121 -0.5769  0.4764
  374MOL0     H50449   4.082   1.851   5.499 -0.1692 -1.2958  2.0756
  374MOL0     H50450   4.400   2.066   5.598 -3.1516 -1.6839 -1.3375
  374MOL0     H50451   4.510   2.200   5.794  1.1173 -0.9615 -2.6080
  374MOL0     H50452   4.703   2.267   6.234  0.0133 -0.1489 -0.9313
  374MOL0     H50453   4.749   2.429   6.409  0.0609  0.8451 -0.5312
  374MOL0     H50454   4.662   2.758   6.591 -0.3600 -0.5820  0.7337
  374MOL0     H50455   4.688   2.585   6.588 -1.3857  1.2470  1.3728
  374MOL0     H50456   4.880   2.619   6.429 -2.3331 -1.2053 -0.5810
  374MOL0     H50457   4.828   2.781   6.406 -4.1718 -2.1647 -1.4541
  374MOL0     H50458   4.881   2.831   6.638  1.2522  1.3100 -1.5841
  374MOL0     H50459   4.938   2.659   6.665 -1.1273 -2.5884 -3.4153
  374MOL0     H50460   5.053   2.868   6.462 -0.0228 -1.4846 -1.6873
  374MOL0     H50461   5.112   2.703   6.490  1.3486  0.3661  0.3699
  374MOL0     H50462   5.191   2.749   6.703 -3.9867 -4.0257 -2.2406
  374MOL0     H50463   5.099   2.903   6.718  0.3592 -0.2226  0.3254
  374MOL0     H50464   5.341   2.883   6.539  1.4923  0.5237  1.3042
  374MOL0     H50465   5.211   3.005   6.523  0.6707  1.2189  0.9990
  374MOL0     H50466   5.383   2.946   6.774  0.7056  1.1784  0.0790
  374MOL0     H50467   5.281   3.088   6.745 -0.2937 -0.6836  1.6693
  374MOL0     H50468   5.403   3.128   6.532  1.7487  0.4594 -0.7222
  374MOL0     H50469   5.502   3.152   6.678 -1.0288  0.3227 -0.2743
  374MOL0     H50470   4.471   2.693   6.193  1.0005 -0.5117 -1.6028
  374MOL0     H50471   4.434   2.524   6.030  0.7497  1.6958  0.1760
  374MOL0     H50472   4.318   1.941   6.073 -1.8680 -3.0084 -1.6984
  374MOL0     H50473   4.201   1.841   5.912 -1.3462 -0.4482 -2.5333
  374MOL0     H50474   2.383   2.039   4.971 -1.3193 -1.4746  0.8766
  374MOL0     H50475   2.184   2.122   4.886  1.0184 -0.5526  0.6253
  374MOL0     H50476   2.015   2.278   4.495  0.6310 -0.4012  1.5585
  374MOL0     H50477   1.871   2.424   4.407  2.8017 -1.7177  0.7207
  374MOL0     H50478   1.421   2.345   4.450  0.8686 -3.2676  0.0804
  374MOL0     H50479   1.473   2.258   4.299  2.5610  0.5199 -1.5492
  374MOL0     H50480   1.460   2.448   4.158  1.8535  0.4063  0.2006
  374MOL0     H50481   1.423   2.556   4.296  0.1170  1.0485 -3.5987
  374MOL0     H50482   1.221   2.541   4.209 -0.4247 -0.1897 -1.5143
  374MOL0     H50483   1.219   2.431   4.335  1.4270  1.0557  0.8467
  374MOL0     H50484   1.315   2.316   4.073 -0.9812  1.2621 -1.6194
  374MOL0     H50485   1.238   2.231   4.208 -2.6398 -0.6713 -0.2086
  374MOL0     H50486   0.910   2.381   3.966 -1.0056  1.7898  2.3496
  374MOL0     H50487   1.541   2.167   4.529  0.5636 -0.8939 -0.0365
  374MOL0     H50488   1.722   1.952   4.748 -2.0744  1.0965  0.8940
  374MOL0     H50489   1.570   1.962   4.658 -0.7082 -1.0816  1.0685
  374MOL0     H50490   1.708   1.876   4.595 -0.5050  0.2250  0.0720
  375MOL0     O50491   9.632   6.034   9.768 -0.2702 -0.3998  0.2385
  375MOL0     C50492   9.561   5.935   9.757 -0.0835  0.0753  0.8597
  375MOL0     O50493   9.593   5.805   9.769 -0.4283 -0.0556 -0.0199
  375MOL0     C50494   9.694   5.752   9.835  0.5345  0.2359 -0.1847
  375MOL0     C50495   9.800   5.817   9.902 -1.1293  0.2264  1.0222
  375MOL0     C50496   9.901   5.745   9.966  0.4056 -0.1538 -0.4618
  375MOL0     C50497   9.914   5.609   9.963 -0.0521  1.4464  0.6029
  375MOL0     O50498  10.019   5.534  10.011 -0.0649 -0.0678  0.4955
  375MOL0     C50499  10.073   5.573  10.131 -0.5224 -0.0673 -0.5294
  375MOL0     C50500   9.971   5.549  10.252 -0.5331  0.0792  0.5215
  375MOL0     C50501   9.934   5.409  10.286 -0.0639 -0.0180  0.4863
  375MOL0     C50502   9.890   5.391  10.431  0.7325 -0.0898  0.4130
  375MOL0     C50503  10.010   5.408  10.525 -0.0532  1.2059  0.2691
  375MOL0     C50504  10.079   5.270  10.556  0.1133 -0.0063  0.6689
  375MOL0     C50505  10.203   5.292  10.648  0.5058 -0.9065 -0.4582
  375MOL0     C50506  10.175   5.297  10.802  0.2362 -0.3518 -0.0078
  375MOL0     N50507  10.292   5.262  10.879 -0.0248  0.5709  0.2559
  375MOL0     C50508  10.421   5.293  10.839 -0.0160  0.3081 -0.7409
  375MOL0     C50509  10.491   5.234  10.940 -0.8315  0.4737  0.4882
  375MOL0     C50510  10.645   5.224  10.956  0.1280  0.9944  0.7290
  375MOL0     C50511  10.702   5.355  10.993 -0.7777 -0.0383  0.3023
  375MOL0     C50512  10.670   5.417  11.127 -0.1902  0.0150  0.2830
  375MOL0     C50513  10.754   5.534  11.162 -0.8651 -0.5075  0.3432
  375MOL0     O50514  10.730   5.633  11.057 -0.3634 -0.0874  0.4057
  375MOL0     C50515  10.817   5.737  11.066  0.0500 -0.5983  0.6371
  375MOL0     C50516  10.948   5.718  11.029  0.3565  0.8696  0.0098
  375MOL0     C50517  11.040   5.818  11.057  0.7206  0.2466 -0.3862
  375MOL0     C50518  11.004   5.944  11.114 -0.3836  0.4235  0.3666
  375MOL0     C50519  11.102   6.052  11.137  0.2429  0.0999  0.1103
  375MOL0     O50520  11.080   6.139  11.246  0.1610  0.2055  0.3650
  375MOL0     C50521  11.173   6.237  11.264 -0.1514  0.3499 -0.3673
  375MOL0     C50522  11.147   6.364  11.217  0.0304  0.4787  0.1554
  375MOL0     C50523  11.241   6.466  11.244 -0.7140  0.1528 -0.5132
  375MOL0     C50524  11.358   6.443  11.315 -0.2562 -0.0683 -0.0971
  375MOL0     O50525  11.433   6.561  11.329  0.2369  0.2910 -0.1084
  375MOL0     C50526  11.572   6.551  11.310 -0.8751 -0.1543  0.5975
  375MOL0     C50527  11.616   6.685  11.258 -0.1181  0.7721 -0.1490
  375MOL0     C50528  11.768   6.681  11.250  0.3252 -0.2368 -0.0715
  375MOL0     C50529  11.818   6.808  11.179 -0.2170  0.2321  0.3500
  375MOL0     C50530  11.971   6.829  11.196  0.0929  1.2061 -0.3158
  375MOL0     C50531  12.005   6.898  11.333 -1.1336  0.1482  0.2665
  375MOL0     C50532  12.156   6.927  11.324 -0.9316 -0.4252 -0.9379
  375MOL0     C50533  12.201   6.961  11.469  0.6635  0.4019  0.3689
  375MOL0    Cl50534  12.375   6.977  11.474 -0.4559 -0.2928  0.2584
  375MOL0     C50535  11.385   6.312  11.358 -0.0275  0.1507 -0.4504
  375MOL0     C50536  11.296   6.204  11.332  0.1131  0.2508 -0.4040
  375MOL0     O50537  11.195   6.060  11.056 -0.8029  0.3472  0.3761
  375MOL0     C50538  10.862   5.958  11.145 -0.7496 -0.2964  0.3303
  375MOL0     C50539  10.769   5.853  11.125  0.8755 -0.5131  0.5330
  375MOL0     N50540  10.407   5.170  11.029 -0.1671  0.5029  0.0932
  375MOL0     N50541  10.287   5.181  10.988  0.1665  0.3131  1.4381
  375MOL0     C50542   9.812   5.547   9.894 -0.1752  0.3028  0.0352
  375MOL0     C50543   9.709   5.614   9.825 -0.3732  0.9778  0.0970
  375MOL0     C50544   9.419   5.982   9.735 -0.1397 -0.4400  0.2025
  375MOL0     C50545   9.392   6.106   9.689  0.1654  0.1207  0.2195
  375MOL0     C50546   9.272   6.162   9.666  0.2131 -0.2830 -0.2388
  375MOL0     C50547   9.153   6.087   9.708 -0.1600 -0.4574 -0.6105
  375MOL0     O50548   9.018   6.134   9.700 -0.4492  0.1204  0.1339
  375MOL0     C50549   9.002   6.270   9.652  1.0020  0.6716 -0.2411
  375MOL0     C50550   8.864   6.300   9.607 -0.4796 -0.0565 -0.3745
  375MOL0     C50551   8.822   6.225   9.484  0.7832  0.0354 -0.6649
  375MOL0     C50552   8.670   6.194   9.492 -0.0102 -0.2517  0.2412
  375MOL0     C50553   8.582   6.308   9.472 -0.8967  0.3880  0.2277
  375MOL0     C50554   8.519   6.412   9.471  0.0303 -0.5713 -0.6037
  375MOL0     C50555   9.177   5.958   9.743 -0.3494  0.0186 -0.1009
  375MOL0     C50556   9.312   5.893   9.744  0.4722  0.5688  0.0733
  375MOL0     C50557   9.313   5.742   9.776  0.2650  0.5691 -0.0652
  375MOL0     H50558   9.799   5.926   9.902 -0.4215  0.3871 -2.9826
  375MOL0     H50559   9.987   5.797  10.007 -1.9784  2.0948  2.0836
  375MOL0     H50560  10.162   5.511  10.145  0.2320  1.1745  0.3786
  375MOL0     H50561  10.112   5.675  10.131  1.6269 -0.7990  1.1966
  375MOL0     H50562   9.885   5.611  10.224  0.3971  0.9844 -0.4297
  375MOL0     H50563  10.021   5.605  10.331  0.9303 -0.5351  0.0614
  375MOL0     H50564  10.026   5.354  10.266  1.0017  2.0839 -0.8388
  375MOL0     H50565   9.863   5.368  10.213  0.5099 -0.0030 -0.0873
  375MOL0     H50566   9.824   5.474  10.455 -0.5385 -0.8891 -0.2554
  375MOL0     H50567   9.841   5.296  10.453 -2.6530  1.1601 -1.1749
  375MOL0     H50568  10.083   5.482  10.492  2.0845 -0.3196  1.3609
  375MOL0     H50569   9.966   5.438  10.620  0.3218  0.1265  0.8012
  375MOL0     H50570  10.010   5.198  10.602 -2.0257 -0.9194 -3.4827
  375MOL0     H50571  10.102   5.227  10.459 -0.9211  1.6374 -0.3466
  375MOL0     H50572  10.258   5.382  10.619 -0.0699 -0.3930  0.0274
  375MOL0     H50573  10.256   5.199  10.626 -0.9267 -2.0027  0.5513
  375MOL0     H50574  10.140   5.397  10.831  0.0087  0.0563 -1.5953
  375MOL0     H50575  10.099   5.221  10.822  0.9271 -0.4484  2.6298
  375MOL0     H50576  10.455   5.360  10.761  1.0358 -0.0080 -0.5791
  375MOL0     H50577  10.662   5.141  11.025  2.2703  0.8583  0.1350
  375MOL0     H50578  10.689   5.179  10.866 -0.3562  0.4223  0.7704
  375MOL0     H50579  10.811   5.352  11.003 -0.5835  0.2489 -1.4762
  375MOL0     H50580  10.680   5.428  10.914  1.5082 -0.5460 -0.8903
  375MOL0     H50581  10.671   5.345  11.209 -1.1541 -1.5876 -1.0443
  375MOL0     H50582  10.567   5.450  11.110 -1.3738 -4.2586 -2.8054
  375MOL0     H50583  10.859   5.504  11.170 -0.6764  0.3960  1.5442
  375MOL0     H50584  10.725   5.577  11.258 -0.3038  0.9000 -0.0932
  375MOL0     H50585  10.958   5.621  10.982  0.1981  1.8013 -2.0831
  375MOL0     H50586  11.144   5.813  11.026  1.2825 -1.6180  1.5925
  375MOL0     H50587  11.061   6.385  11.153  0.7645  1.8978 -0.4217
  375MOL0     H50588  11.223   6.570  11.218  1.2295  0.7320  0.2309
  375MOL0     H50589  11.620   6.525  11.405 -1.5130 -1.3068  0.6226
  375MOL0     H50590  11.595   6.469  11.242  2.8635 -0.5009  2.0143
  375MOL0     H50591  11.575   6.693  11.157 -2.5649 -2.2612  0.4335
  375MOL0     H50592  11.563   6.764  11.313 -2.1657 -0.5374 -0.1676
  375MOL0     H50593  11.815   6.660  11.347  1.4551  0.4615 -0.4512
  375MOL0     H50594  11.801   6.605  11.179  0.2638  1.7162 -2.3068
  375MOL0     H50595  11.763   6.892  11.223 -2.5919 -0.8152 -0.4498
  375MOL0     H50596  11.791   6.814  11.074 -1.2829  1.9808  0.6746
  375MOL0     H50597  12.007   6.895  11.116  0.9746 -0.1630 -1.0768
  375MOL0     H50598  12.024   6.735  11.181 -0.6489  0.8851 -1.0506
  375MOL0     H50599  11.954   6.995  11.327  1.2852  1.5070 -0.0767
  375MOL0     H50600  11.991   6.840  11.424  1.2291 -1.7722 -0.4734
  375MOL0     H50601  12.170   7.019  11.266  1.1439  1.0858  1.7012
  375MOL0     H50602  12.217   6.843  11.288  2.1936  0.6290  1.3754
  375MOL0     H50603  12.145   7.045  11.512  0.2119 -0.4707  1.5500
  375MOL0     H50604  12.183   6.878  11.538  1.1076  2.3002  2.9252
  375MOL0     H50605  11.477   6.293  11.412  0.6374 -0.2196 -1.6706
  375MOL0     H50606  11.316   6.105  11.373  2.2426  0.7606 -0.0940
  375MOL0     H50607  10.827   6.051  11.188 -0.7031  1.1363 -2.4460
  375MOL0     H50608  10.664   5.869  11.148  0.7774 -0.3418 -0.0218
  375MOL0     H50609   9.811   5.440   9.882  1.6918  0.4195 -2.0159
  375MOL0     H50610   9.630   5.553   9.784 -0.8724  0.9378  1.0951
  375MOL0     H50611   9.476   6.172   9.670  0.3218  0.6964  2.4962
  375MOL0     H50612   9.269   6.263   9.627  1.8753  0.4020  1.2465
  375MOL0     H50613   9.059   6.289   9.561  0.5738  0.0362 -0.6458
  375MOL0     H50614   9.029   6.337   9.735 -0.0421 -0.6516  1.2315
  375MOL0     H50615   8.849   6.408   9.598 -0.7138 -0.0806 -0.3007
  375MOL0     H50616   8.811   6.270   9.698  0.9019 -1.5750 -0.0356
  375MOL0     H50617   8.867   6.127   9.502  0.3863 -0.0607 -0.1582
  375MOL0     H50618   8.851   6.264   9.386  2.1657  0.6633 -0.0287
  375MOL0     H50619   8.639   6.131   9.409 -2.2676 -0.2086  0.9892
  375MOL0     H50620   8.653   6.127   9.576 -1.2814 -1.7832 -1.1805
  375MOL0     H50621   8.445   6.489   9.474  2.1993  1.6077 -0.1586
  375MOL0     H50622   9.095   5.890   9.764  0.1582 -0.2845  1.0212
  375MOL0     H50623   9.309   5.677   9.688 -1.5671  1.8560 -1.0196
  375MOL0     H50624   9.395   5.712   9.841 -0.6157 -1.9811 -0.0432
  375MOL0     H50625   9.220   5.711   9.824 -0.4764 -0.3637 -2.0084
  376MOL0     O50626  10.609   1.486   9.594 -0.9989 -0.9650  0.3977
  376MOL0     C50627  10.509   1.449   9.534  0.2753 -0.2281  0.6296
  376MOL0     O50628  10.517   1.397   9.406 -0.3961 -0.1613  0.0723
  376MOL0     C50629  10.636   1.422   9.333  0.4392  0.2949  0.5953
  376MOL0     C50630  10.663   1.545   9.283 -0.2191 -0.3997 -0.0118
  376MOL0     C50631  10.778   1.570   9.209 -0.6570  0.0870 -0.0484
  376MOL0     C50632  10.854   1.459   9.164  0.1031 -0.0759  0.1659
  376MOL0     O50633  10.958   1.466   9.075 -0.4955 -0.2107 -0.2029
  376MOL0     C50634  11.023   1.596   9.058  0.4001  0.1085  0.9022
  376MOL0     C50635  11.102   1.594   8.929 -0.3269  1.4909  0.0455
  376MOL0     C50636  11.201   1.707   8.896 -0.2075 -0.1406 -0.2183
  376MOL0     C50637  11.242   1.707   8.750  0.3572  0.0499  0.5547
  376MOL0     C50638  11.360   1.804   8.725 -0.1274 -0.5603 -0.0097
  376MOL0     C50639  11.384   1.815   8.575  0.9682  0.6509 -0.0733
  376MOL0     C50640  11.501   1.908   8.543  0.2403  0.0901 -0.6332
  376MOL0     C50641  11.524   1.925   8.395 -1.2175  0.2580 -0.2553
  376MOL0     N50642  11.657   1.971   8.353  0.5143 -0.0136  0.0667
  376MOL0     C50643  11.699   2.090   8.387  0.6917  0.6535 -0.1714
  376MOL0     C50644  11.824   2.088   8.337  0.1225 -0.5279  0.4595
  376MOL0     C50645  11.929   2.188   8.335 -0.4064 -0.7383  0.3062
  376MOL0     C50646  11.923   2.284   8.457 -0.3138 -0.3044 -0.5834
  376MOL0     C50647  12.002   2.418   8.432  0.3091  0.3343  0.0175
  376MOL0     C50648  12.065   2.489   8.555  0.0005 -0.5791 -0.0431
  376MOL0     O50649  12.141   2.596   8.507 -0.1709  0.3389  0.5958
  376MOL0     C50650  12.275   2.613   8.544  0.6957  0.3341 -0.6042
  376MOL0     C50651  12.316   2.723   8.620  0.7301 -0.4220 -0.0977
  376MOL0     C50652  12.442   2.751   8.681  1.0367  0.6368 -0.8015
  376MOL0     C50653  12.537   2.651   8.655 -0.6192 -0.0594  0.3177
  376MOL0     C50654  12.674   2.653   8.726 -0.3021  0.9460  0.4217
  376MOL0     O50655  12.696   2.735   8.834  0.0105  0.3615  0.2553
  376MOL0     C50656  12.805   2.706   8.909  0.2009  1.1316 -1.2013
  376MOL0     C50657  12.774   2.688   9.047 -0.2217 -0.9014  0.0601
  376MOL0     C50658  12.887   2.677   9.137  1.0499  0.5021 -0.0057
  376MOL0     C50659  13.020   2.685   9.091 -0.1592  0.3294 -0.2912
  376MOL0     O50660  13.117   2.683   9.189 -0.2460 -0.8720  0.0406
  376MOL0     C50661  13.253   2.681   9.161  0.2184 -0.6040  0.1014
  376MOL0     C50662  13.295   2.544   9.099 -0.0103 -1.2984  0.1590
  376MOL0     C50663  13.425   2.576   9.018 -0.8565  0.0781  0.4973
  376MOL0     C50664  13.505   2.454   8.967  0.2673  0.2755  0.6033
  376MOL0     C50665  13.624   2.498   8.880 -0.3999  0.5230 -0.5499
  376MOL0     C50666  13.680   2.387   8.794  0.6695  0.4118 -0.0389
  376MOL0     C50667  13.829   2.382   8.762 -0.5586 -0.2337 -0.9285
  376MOL0     C50668  13.870   2.506   8.695  0.1786  0.3284  0.1834
  376MOL0    Cl50669  14.028   2.493   8.620  0.3930 -0.2624 -0.2660
  376MOL0     C50670  13.046   2.695   8.954 -0.3692  0.1036 -0.3690
  376MOL0     C50671  12.939   2.704   8.866  0.6149  0.0088 -1.0547
  376MOL0     O50672  12.760   2.576   8.676  0.9545 -0.4239  0.0402
  376MOL0     C50673  12.492   2.532   8.594 -0.0383  0.3073  0.4827
  376MOL0     C50674  12.373   2.515   8.529  0.0245  0.9432 -0.3510
  376MOL0     N50675  11.858   1.967   8.283 -0.4612 -0.4209  0.2637
  376MOL0     N50676  11.755   1.892   8.297 -0.0580  0.4102 -0.0734
  376MOL0     C50677  10.811   1.328   9.208 -0.0599 -0.7005 -0.1138
  376MOL0     C50678  10.704   1.316   9.294 -0.0452  1.0525 -0.9886
  376MOL0     C50679  10.379   1.450   9.598 -0.1959  0.4925  0.2052
  376MOL0     C50680  10.270   1.475   9.523  1.1967 -0.2862  0.6491
  376MOL0     C50681  10.144   1.482   9.574 -0.1409 -0.5546 -0.3122
  376MOL0     C50682  10.113   1.452   9.707  0.1753 -0.0850 -1.3349
  376MOL0     O50683   9.985   1.453   9.769  0.4130  0.1638 -0.6793
  376MOL0     C50684   9.876   1.504   9.687 -0.9389 -0.4569 -0.2883
  376MOL0     C50685   9.745   1.476   9.769 -0.7190 -0.0829  0.1197
  376MOL0     C50686   9.753   1.534   9.908 -0.7666 -0.2672 -0.1956
  376MOL0     C50687   9.621   1.564   9.980  0.7768 -0.3452 -0.0761
  376MOL0     C50688   9.559   1.434  10.021  0.6076  0.5643 -0.1499
  376MOL0     C50689   9.497   1.331  10.046 -0.0719  0.7711 -0.1621
  376MOL0     C50690  10.224   1.429   9.792  0.0553  1.0832  0.1635
  376MOL0     C50691  10.354   1.432   9.739 -0.2381 -0.3248 -0.5801
  376MOL0     C50692  10.467   1.412   9.835 -0.4564 -0.3497  0.3464
  376MOL0     H50693  10.599   1.631   9.300 -1.5782 -1.2910 -0.4426
  376MOL0     H50694  10.788   1.672   9.173  0.0731  0.3328  0.8362
  376MOL0     H50695  10.956   1.683   9.061 -0.7229 -0.6677 -0.6914
  376MOL0     H50696  11.105   1.612   9.129  1.1199  0.3071  0.0388
  376MOL0     H50697  11.029   1.589   8.847  0.5257  2.1418 -0.7781
  376MOL0     H50698  11.161   1.503   8.940 -1.4505  0.8032  0.6245
  376MOL0     H50699  11.291   1.697   8.957 -0.1942 -2.9542 -0.5375
  376MOL0     H50700  11.142   1.797   8.914 -0.6624 -0.8098  1.9456
  376MOL0     H50701  11.271   1.608   8.713 -1.8101  0.0137 -1.2591
  376MOL0     H50702  11.158   1.740   8.688  1.2983  2.0019  0.2118
  376MOL0     H50703  11.340   1.904   8.762  0.1370 -1.2879  2.2805
  376MOL0     H50704  11.452   1.774   8.778 -0.8116 -0.6437  1.1579
  376MOL0     H50705  11.402   1.717   8.529  0.7587  0.3401  0.4947
  376MOL0     H50706  11.295   1.855   8.526 -0.7333 -0.0102  2.3227
  376MOL0     H50707  11.589   1.864   8.591 -1.0103 -1.5925  0.2326
  376MOL0     H50708  11.480   2.009   8.579 -1.6146  0.2587 -2.0591
  376MOL0     H50709  11.508   1.832   8.339 -0.2261 -0.1179  0.0489
  376MOL0     H50710  11.450   1.992   8.353 -2.2807 -0.6670  0.0888
  376MOL0     H50711  11.650   2.172   8.438  0.2046 -1.0832  2.3359
  376MOL0     H50712  12.028   2.142   8.331 -1.6906 -3.6649 -0.1520
  376MOL0     H50713  11.911   2.242   8.242  1.1951 -1.4433 -0.4648
  376MOL0     H50714  11.821   2.296   8.495  0.7751  0.5393  2.3340
  376MOL0     H50715  11.973   2.232   8.539  0.2772  1.8618  0.5086
  376MOL0     H50716  11.942   2.484   8.369  0.1133  0.4164  0.2896
  376MOL0     H50717  12.089   2.391   8.371  1.2578 -0.6981  1.7551
  376MOL0     H50718  12.111   2.418   8.624  0.4423  1.5098  1.9425
  376MOL0     H50719  11.977   2.528   8.606 -0.5239  1.1597 -2.1147
  376MOL0     H50720  12.237   2.796   8.636  1.2844  0.2360 -0.3373
  376MOL0     H50721  12.458   2.829   8.755 -4.2093 -1.5720  3.3237
  376MOL0     H50722  12.669   2.685   9.076 -0.3207  1.3276  0.1678
  376MOL0     H50723  12.864   2.651   9.240 -2.7503 -0.3127 -0.8921
  376MOL0     H50724  13.288   2.763   9.097 -0.3235  0.1355  0.7239
  376MOL0     H50725  13.306   2.696   9.255  2.6176  0.0781 -1.2826
  376MOL0     H50726  13.322   2.480   9.184  1.4708  0.9622  1.4910
  376MOL0     H50727  13.210   2.506   9.042 -0.0599 -0.5749 -0.2674
  376MOL0     H50728  13.393   2.642   8.936 -2.8121  0.9583  1.8740
  376MOL0     H50729  13.501   2.628   9.077  1.1347 -1.9900 -0.1146
  376MOL0     H50730  13.438   2.385   8.914 -1.4617  0.9923  1.7424
  376MOL0     H50731  13.550   2.397   9.048  2.0146  0.9367  0.1356
  376MOL0     H50732  13.701   2.534   8.948 -1.7241  1.6136  0.4469
  376MOL0     H50733  13.601   2.579   8.810 -0.3033 -1.7049 -3.3310
  376MOL0     H50734  13.654   2.289   8.836 -1.2073  1.1457  0.5821
  376MOL0     H50735  13.615   2.395   8.707  0.7054 -2.1349 -0.3858
  376MOL0     H50736  13.851   2.299   8.693 -0.3486  0.2252 -1.4177
  376MOL0     H50737  13.885   2.388   8.856  1.1297  1.9015 -1.9958
  376MOL0     H50738  13.801   2.527   8.613 -0.5214  0.5623  0.8263
  376MOL0     H50739  13.873   2.595   8.758  0.4678  0.0083  0.6305
  376MOL0     H50740  13.145   2.716   8.916 -0.6198 -1.1483 -1.7538
  376MOL0     H50741  12.959   2.714   8.759  1.0735  0.7497 -0.9026
  376MOL0     H50742  12.554   2.443   8.596 -0.8391 -0.2912 -0.3928
  376MOL0     H50743  12.345   2.432   8.465 -0.5170 -0.6191  1.7980
  376MOL0     H50744  10.865   1.246   9.163  0.5096 -0.6058  0.3802
  376MOL0     H50745  10.681   1.219   9.337 -2.0575  1.8860 -0.0851
  376MOL0     H50746  10.281   1.508   9.420  3.9294  1.4237  1.3820
  376MOL0     H50747  10.065   1.502   9.503 -0.1421  2.3755  0.4029
  376MOL0     H50748   9.864   1.443   9.597 -1.7377 -2.8575  1.3388
  376MOL0     H50749   9.888   1.609   9.658  0.2267 -0.2010  0.9912
  376MOL0     H50750   9.751   1.368   9.785  4.3198 -0.0907 -0.4754
  376MOL0     H50751   9.652   1.503   9.717 -1.8551 -0.3008  1.9341
  376MOL0     H50752   9.805   1.630   9.898 -1.9476  0.4365  0.1926
  376MOL0     H50753   9.815   1.469   9.970 -2.3382 -2.5740 -0.8818
  376MOL0     H50754   9.642   1.614  10.075 -0.2994  1.0096 -0.5206
  376MOL0     H50755   9.552   1.631   9.927 -0.6253  0.8990  3.0488
  376MOL0     H50756   9.455   1.245  10.095  1.5537 -0.7124 -1.2403
  376MOL0     H50757  10.189   1.419   9.894  2.7405 -0.2065  1.0401
  376MOL0     H50758  10.549   1.349   9.799  0.4301  0.7795  0.3378
  376MOL0     H50759  10.509   1.506   9.871 -1.7914  1.6332 -2.8373
  376MOL0     H50760  10.426   1.364   9.924  0.0442 -0.2751  0.6240
  377MOL0     O50761   4.734   4.469   5.474  0.1180 -0.4949 -0.4149
  377MOL0     C50762   4.659   4.463   5.572  0.6147 -0.0636  0.2066
  377MOL0     O50763   4.676   4.524   5.685  0.2666 -0.4020  0.1541
  377MOL0     C50764   4.806   4.553   5.726 -0.3910 -0.5151 -0.2897
  377MOL0     C50765   4.814   4.657   5.823 -0.8018 -0.2023  0.2413
  377MOL0     C50766   4.930   4.680   5.887 -0.8538 -0.7997 -0.0667
  377MOL0     C50767   5.055   4.627   5.847  0.6208  0.2919  0.2870
  377MOL0     O50768   5.172   4.667   5.906  0.1205 -0.2005  0.4556
  377MOL0     C50769   5.296   4.625   5.847  0.8920 -0.0949  0.5155
  377MOL0     C50770   5.412   4.675   5.927  0.4026  0.2319 -0.1581
  377MOL0     C50771   5.545   4.605   5.904  0.8692 -0.3063  0.0784
  377MOL0     C50772   5.669   4.664   5.975  0.5125 -0.1266  0.5059
  377MOL0     C50773   5.794   4.587   5.941  0.3587 -0.1527 -0.7178
  377MOL0     C50774   5.901   4.623   6.033 -0.0775  0.2499 -0.0420
  377MOL0     C50775   6.045   4.578   6.011 -0.0366  0.7758  0.3015
  377MOL0     C50776   6.062   4.431   5.968  0.1817 -1.1123 -0.1889
  377MOL0     N50777   6.200   4.379   5.956 -0.4667 -0.9143 -0.2491
  377MOL0     C50778   6.292   4.392   6.054 -0.5600  0.1624 -0.1908
  377MOL0     C50779   6.409   4.361   5.985  0.2972 -0.2612 -0.5633
  377MOL0     C50780   6.539   4.357   6.047  0.4916 -0.9117  0.1855
  377MOL0     C50781   6.583   4.499   6.098 -0.0479 -0.1440  0.5657
  377MOL0     C50782   6.616   4.590   5.979  0.3664 -0.4202  0.0476
  377MOL0     C50783   6.648   4.730   6.059  0.1417  0.2967  0.6731
  377MOL0     O50784   6.764   4.724   6.136 -0.2836  0.0910  0.5101
  377MOL0     C50785   6.882   4.773   6.075  0.4912 -0.3247  0.2808
  377MOL0     C50786   6.916   4.761   5.941 -0.0543 -0.1928  0.0320
  377MOL0     C50787   7.040   4.799   5.896  0.4254  0.0055  1.0618
  377MOL0     C50788   7.126   4.866   5.985  0.4637  0.1942  0.1686
  377MOL0     C50789   7.247   4.936   5.930 -0.2009 -0.2493 -0.2131
  377MOL0     O50790   7.330   4.992   6.018 -0.5160 -0.3538 -0.7815
  377MOL0     C50791   7.441   5.045   5.974 -1.1743  0.6849  0.0142
  377MOL0     C50792   7.456   5.150   5.884 -0.5982  0.1336  0.3436
  377MOL0     C50793   7.578   5.203   5.836 -0.1176 -0.2343 -0.9101
  377MOL0     C50794   7.696   5.166   5.906  0.4001  0.0395  0.4943
  377MOL0     O50795   7.810   5.224   5.851 -0.2778  0.7961 -0.7983
  377MOL0     C50796   7.927   5.195   5.932 -0.0229  0.4039  0.5090
  377MOL0     C50797   8.053   5.254   5.873 -0.0494  1.1126  0.4161
  377MOL0     C50798   8.156   5.272   5.984  0.1756  0.8917  0.2969
  377MOL0     C50799   8.283   5.352   5.954  0.1851  0.7313  1.0127
  377MOL0     C50800   8.389   5.327   6.066  0.8138 -0.6369  0.7136
  377MOL0     C50801   8.466   5.192   6.055  0.5530  0.2113  1.5826
  377MOL0     C50802   8.588   5.196   6.137 -0.6954  0.2156  0.7528
  377MOL0     C50803   8.656   5.063   6.143 -0.0407  0.9947 -0.1529
  377MOL0    Cl50804   8.808   5.083   6.239  0.6871  0.6243 -0.3428
  377MOL0     C50805   7.688   5.063   6.004 -0.0096 -0.4923 -0.4096
  377MOL0     C50806   7.563   5.006   6.038  0.3850  0.1757 -0.1665
  377MOL0     O50807   7.273   4.920   5.810 -0.6517 -0.0607  0.1032
  377MOL0     C50808   7.087   4.870   6.124  0.2977  0.6300 -0.0032
  377MOL0     C50809   6.968   4.824   6.169  0.6894  0.3761  0.5132
  377MOL0     N50810   6.385   4.337   5.855 -0.0681 -0.8000  0.6798
  377MOL0     N50811   6.259   4.364   5.835  0.2939  0.2608  0.4182
  377MOL0     C50812   5.050   4.531   5.744 -0.4780 -0.2731  0.1114
  377MOL0     C50813   4.928   4.491   5.687 -0.4036  0.0950 -0.6192
  377MOL0     C50814   4.525   4.397   5.541 -0.2214 -0.7807 -0.3422
  377MOL0     C50815   4.497   4.365   5.400  0.0332 -0.4429  0.0887
  377MOL0     C50816   4.380   4.294   5.362 -0.5560  0.1824 -0.0272
  377MOL0     C50817   4.297   4.237   5.452  0.1932 -0.8816  0.6211
  377MOL0     O50818   4.197   4.165   5.404 -0.9153  0.3716  0.5658
  377MOL0     C50819   4.117   4.090   5.490 -0.2750 -0.4514 -0.3132
  377MOL0     C50820   4.197   3.966   5.532  0.3580 -0.2373  0.4277
  377MOL0     C50821   4.233   3.891   5.405 -0.4654  0.1181 -0.1760
  377MOL0     C50822   4.286   3.750   5.433  0.3627 -0.3914  0.8466
  377MOL0     C50823   4.183   3.653   5.477  0.0146  0.1675 -0.5548
  377MOL0     C50824   4.095   3.587   5.517  0.2492  0.2648  0.3807
  377MOL0     C50825   4.315   4.295   5.574  0.2178 -0.6077 -0.0721
  377MOL0     C50826   4.421   4.367   5.625 -0.5784  0.1735 -0.2182
  377MOL0     C50827   4.429   4.379   5.772 -0.3691  0.1915 -0.2161
  377MOL0     H50828   4.720   4.704   5.853 -0.1952 -0.4124  2.7421
  377MOL0     H50829   4.935   4.748   5.971  0.3113 -1.3194  0.3109
  377MOL0     H50830   5.307   4.516   5.844 -1.5552 -0.3984  0.7623
  377MOL0     H50831   5.296   4.663   5.745 -0.6557 -2.1020 -0.3227
  377MOL0     H50832   5.388   4.658   6.032 -0.4598  1.6433 -0.0949
  377MOL0     H50833   5.411   4.783   5.912 -1.6072  0.0566 -1.7552
  377MOL0     H50834   5.571   4.626   5.799  0.5909 -0.7237 -0.0768
  377MOL0     H50835   5.525   4.500   5.924 -1.4929 -0.0185 -0.5187
  377MOL0     H50836   5.680   4.769   5.945 -1.3541  1.0009  3.3554
  377MOL0     H50837   5.654   4.656   6.083 -0.5620 -1.1170  0.3049
  377MOL0     H50838   5.773   4.479   5.947 -2.0291  0.3117  1.9801
  377MOL0     H50839   5.819   4.612   5.838 -2.4884 -0.1075 -1.4898
  377MOL0     H50840   5.894   4.732   6.040 -2.4565  0.0580  1.5140
  377MOL0     H50841   5.874   4.577   6.128  2.5244  0.1390  0.7280
  377MOL0     H50842   6.112   4.589   6.096  0.1523 -0.2390  0.2929
  377MOL0     H50843   6.091   4.632   5.927 -1.4585  0.4688 -0.7044
  377MOL0     H50844   6.030   4.361   6.046  2.3685 -0.1039  1.7353
  377MOL0     H50845   6.014   4.409   5.873  0.9201  1.0904 -1.1374
  377MOL0     H50846   6.275   4.414   6.159 -2.7934  3.2445 -1.0840
  377MOL0     H50847   6.535   4.283   6.128 -1.4333  0.6154  1.5741
  377MOL0     H50848   6.614   4.328   5.973  2.0996  0.7185  1.1113
  377MOL0     H50849   6.497   4.540   6.152  0.7369  3.9696 -0.9535
  377MOL0     H50850   6.676   4.490   6.155  0.9347 -0.6659 -1.0293
  377MOL0     H50851   6.530   4.599   5.912 -0.4802  1.1199  1.2989
  377MOL0     H50852   6.707   4.558   5.927  1.3668 -1.8692  2.5419
  377MOL0     H50853   6.567   4.749   6.130 -0.3187 -2.0272  0.8790
  377MOL0     H50854   6.647   4.808   5.982  0.2018 -0.4034 -0.0536
  377MOL0     H50855   6.840   4.719   5.876 -1.7642 -0.0010  1.8238
  377MOL0     H50856   7.058   4.795   5.789  1.3471  0.3486  1.1940
  377MOL0     H50857   7.366   5.191   5.840  0.2360 -2.3814 -4.4445
  377MOL0     H50858   7.599   5.284   5.767  1.9278  0.7816  0.7702
  377MOL0     H50859   7.911   5.225   6.035  0.1917 -0.0445  0.6768
  377MOL0     H50860   7.951   5.088   5.928 -0.0563  0.4167 -1.9246
  377MOL0     H50861   8.101   5.183   5.804 -1.4039  1.7936 -1.3150
  377MOL0     H50862   8.033   5.351   5.826  0.9907  0.7056 -0.9266
  377MOL0     H50863   8.106   5.309   6.074 -2.4294 -0.1408 -0.6347
  377MOL0     H50864   8.186   5.168   6.004  1.2181  0.6073 -2.3987
  377MOL0     H50865   8.272   5.460   5.946 -3.0404  0.6256  2.4783
  377MOL0     H50866   8.322   5.309   5.861  0.8989 -0.0272  1.6488
  377MOL0     H50867   8.357   5.338   6.170  2.1844  3.1346  0.9063
  377MOL0     H50868   8.465   5.406   6.065 -0.3874  0.6398  2.5602
  377MOL0     H50869   8.399   5.109   6.081 -0.5615  0.2490 -0.8807
  377MOL0     H50870   8.501   5.164   5.955  0.0742 -0.8922  1.6986
  377MOL0     H50871   8.555   5.231   6.236 -3.8858 -1.3992  0.3851
  377MOL0     H50872   8.646   5.270   6.082 -0.8631  0.7952  1.3431
  377MOL0     H50873   8.578   4.994   6.177  1.0381 -2.0107 -3.2418
  377MOL0     H50874   8.692   5.024   6.047  0.6516  0.9597  0.1137
  377MOL0     H50875   7.769   5.009   6.054  1.6268  3.3918  1.5495
  377MOL0     H50876   7.566   4.930   6.116 -1.5330 -1.2160 -1.3291
  377MOL0     H50877   7.143   4.924   6.200  2.6790 -1.2078 -0.3264
  377MOL0     H50878   6.928   4.817   6.270  0.8147  1.4423  0.6397
  377MOL0     H50879   5.140   4.490   5.700 -2.1668 -4.3322 -0.0335
  377MOL0     H50880   4.926   4.406   5.621 -0.0922  1.0408 -1.8910
  377MOL0     H50881   4.557   4.402   5.318 -0.1720  2.3919  1.1272
  377MOL0     H50882   4.371   4.279   5.255 -0.3273 -0.8052  0.0828
  377MOL0     H50883   4.022   4.076   5.437 -0.0289  0.9932 -1.2027
  377MOL0     H50884   4.085   4.158   5.570 -1.9367 -3.0103  1.3324
  377MOL0     H50885   4.139   3.900   5.596  0.7927 -2.9465 -1.7589
  377MOL0     H50886   4.292   3.993   5.578  0.8951 -0.3472 -0.5701
  377MOL0     H50887   4.315   3.945   5.357 -0.5762 -0.5187 -1.0998
  377MOL0     H50888   4.146   3.894   5.340 -1.2916  1.4229  0.9307
  377MOL0     H50889   4.330   3.725   5.337 -0.2968 -0.6527  0.6084
  377MOL0     H50890   4.361   3.757   5.512 -0.0474 -0.0603  1.2151
  377MOL0     H50891   4.011   3.534   5.557  0.3451  1.3613  2.1638
  377MOL0     H50892   4.251   4.267   5.657  1.2689  0.7509  1.2435
  377MOL0     H50893   4.521   4.325   5.797  0.5032  2.2002  1.1684
  377MOL0     H50894   4.452   4.479   5.808  3.2100 -0.4079 -0.4544
  377MOL0     H50895   4.343   4.338   5.826  1.8495 -2.1739  1.8403
  378MOL0     O50896   3.853   4.727   5.388  0.3462  0.4477 -0.4966
  378MOL0     C50897   3.870   4.613   5.434 -0.2581 -0.4422 -0.6724
  378MOL0     O50898   3.989   4.554   5.453  0.2462  1.0159 -0.3652
  378MOL0     C50899   4.102   4.625   5.426 -0.1524  0.3641 -0.4319
  378MOL0     C50900   4.211   4.625   5.517 -0.2379 -0.2085 -1.4018
  378MOL0     C50901   4.319   4.712   5.496  0.1758 -0.0244 -1.5906
  378MOL0     C50902   4.338   4.772   5.375  0.3550 -0.1548  0.2262
  378MOL0     O50903   4.446   4.853   5.345  0.3526 -0.2103  0.2085
  378MOL0     C50904   4.571   4.816   5.406  1.1461  0.2803  0.1255
  378MOL0     C50905   4.670   4.906   5.347 -0.8710 -0.5887  0.3039
  378MOL0     C50906   4.810   4.914   5.395  0.0870 -0.4716  0.4450
  378MOL0     C50907   4.880   4.780   5.367 -0.1254  0.6083 -0.3560
  378MOL0     C50908   5.009   4.769   5.445 -0.0010 -0.7930  0.5290
  378MOL0     C50909   5.096   4.897   5.436 -0.4826 -0.3008  0.2011
  378MOL0     C50910   5.219   4.865   5.513 -0.5936 -0.8419  0.1501
  378MOL0     C50911   5.330   4.967   5.481  0.3291  0.3939  0.9720
  378MOL0     N50912   5.452   4.933   5.549 -0.5996 -0.1757  0.0165
  378MOL0     C50913   5.564   4.890   5.475  0.5253  0.1303  0.3181
  378MOL0     C50914   5.655   4.856   5.570  0.2418  0.3068 -0.3476
  378MOL0     C50915   5.796   4.793   5.547  0.3722 -0.3635 -0.6111
  378MOL0     C50916   5.876   4.873   5.446  0.0217  0.1146  0.0645
  378MOL0     C50917   5.908   5.018   5.504  0.1418 -0.3926 -0.7912
  378MOL0     C50918   6.015   5.081   5.429 -0.4307  0.0008  0.0798
  378MOL0     O50919   6.128   4.999   5.456 -0.1385  0.0856  0.2822
  378MOL0     C50920   6.247   5.033   5.399 -0.5527 -0.2295  0.9243
  378MOL0     C50921   6.355   4.955   5.425 -0.5507 -0.2232  0.2235
  378MOL0     C50922   6.473   4.982   5.360 -0.9559 -0.1242 -0.3987
  378MOL0     C50923   6.497   5.093   5.280 -1.0098  1.1144  0.1570
  378MOL0     C50924   6.629   5.108   5.218 -0.0543 -0.3474 -0.2293
  378MOL0     O50925   6.663   5.237   5.181 -0.1147 -0.1332  0.0247
  378MOL0     C50926   6.778   5.282   5.118 -0.5316  0.1459  0.3850
  378MOL0     C50927   6.867   5.212   5.032  0.1756 -0.1853 -0.3031
  378MOL0     C50928   6.960   5.278   4.960  0.0383  0.2302  0.5066
  378MOL0     C50929   6.974   5.413   4.950 -0.3177  0.0262 -0.2320
  378MOL0     O50930   7.051   5.482   4.861 -0.3759 -0.1991 -0.0665
  378MOL0     C50931   7.159   5.409   4.794  0.7181  1.3007  0.3432
  378MOL0     C50932   7.275   5.493   4.735 -0.0292 -0.4946  0.1475
  378MOL0     C50933   7.404   5.406   4.731  0.4895 -0.6264  0.7687
  378MOL0     C50934   7.527   5.471   4.676 -0.1496  0.4303 -0.0062
  378MOL0     C50935   7.589   5.580   4.766  0.0783 -0.3564 -0.7666
  378MOL0     C50936   7.726   5.634   4.711  0.3953 -0.0600  0.3891
  378MOL0     C50937   7.774   5.764   4.770 -0.2232  0.2664 -0.2735
  378MOL0     C50938   7.924   5.785   4.750  0.2593 -0.1448 -0.4513
  378MOL0    Cl50939   7.971   5.739   4.578 -0.2251  0.3353 -0.4188
  378MOL0     C50940   6.899   5.491   5.041  0.1154  0.5235  0.3574
  378MOL0     C50941   6.809   5.422   5.124 -0.5943  0.2040 -0.4547
  378MOL0     O50942   6.708   5.019   5.217 -0.8737 -0.1820 -0.4603
  378MOL0     C50943   6.383   5.169   5.257  0.5840 -0.3323 -0.2094
  378MOL0     C50944   6.264   5.147   5.316  0.3840  0.3258  0.4567
  378MOL0     N50945   5.592   4.880   5.696  0.4316 -0.1413  0.4999
  378MOL0     N50946   5.474   4.934   5.682 -0.2606  0.3847  0.7714
  378MOL0     C50947   4.247   4.759   5.274 -0.4431 -0.3123  0.0746
  378MOL0     C50948   4.124   4.688   5.295 -0.7926 -0.5756  0.0614
  378MOL0     C50949   3.740   4.549   5.482 -0.0164 -0.5253 -0.9430
  378MOL0     C50950   3.614   4.604   5.453  0.6253 -1.1949  0.8892
  378MOL0     C50951   3.490   4.560   5.493  1.0349  0.1103  0.9210
  378MOL0     C50952   3.480   4.444   5.569  0.2318 -0.2157  1.0590
  378MOL0     O50953   3.364   4.390   5.608  0.1646 -0.1216 -0.4695
  378MOL0     C50954   3.232   4.450   5.583  0.5643  0.2104  0.3352
  378MOL0     C50955   3.147   4.350   5.645  1.0318  0.1830  0.9357
  378MOL0     C50956   3.010   4.405   5.653  0.0002 -1.0687 -0.0089
  378MOL0     C50957   2.911   4.301   5.708 -0.5908 -0.0865  0.3446
  378MOL0     C50958   2.777   4.363   5.737  0.6374  0.6108 -0.4815
  378MOL0     C50959   2.663   4.389   5.727 -0.3118 -0.7221 -0.3285
  378MOL0     C50960   3.603   4.374   5.592  0.0165  0.0598 -0.7761
  378MOL0     C50961   3.730   4.428   5.558 -0.0893  1.2745  0.4132
  378MOL0     C50962   3.856   4.345   5.607  0.7719  0.6515 -0.2174
  378MOL0     H50963   4.199   4.568   5.609 -1.6558  1.9534 -0.1418
  378MOL0     H50964   4.392   4.724   5.576 -1.0842  1.9112 -0.6424
  378MOL0     H50965   4.568   4.829   5.514 -3.8724 -0.5025  0.2921
  378MOL0     H50966   4.592   4.712   5.382 -1.6961 -0.5455  0.8249
  378MOL0     H50967   4.630   5.008   5.347  1.9280  0.7012  2.9935
  378MOL0     H50968   4.684   4.879   5.242  0.7945  0.7257  0.1554
  378MOL0     H50969   4.814   4.942   5.501 -0.9412  3.7292 -0.4522
  378MOL0     H50970   4.865   4.985   5.332  0.9025 -0.6562  0.9315
  378MOL0     H50971   4.812   4.706   5.410 -0.1301 -0.0415 -1.4526
  378MOL0     H50972   4.888   4.750   5.262 -3.3091  0.0990 -0.5246
  378MOL0     H50973   4.981   4.749   5.549  0.2868  3.8540  1.7051
  378MOL0     H50974   5.067   4.684   5.408 -0.1373 -1.1064  1.0163
  378MOL0     H50975   5.124   4.907   5.331  1.3304 -0.6054  0.6230
  378MOL0     H50976   5.048   4.987   5.475  0.2972 -0.8249  2.5194
  378MOL0     H50977   5.253   4.767   5.478  0.4373 -0.4614  0.0702
  378MOL0     H50978   5.199   4.866   5.620 -1.9373 -0.4767 -0.0870
  378MOL0     H50979   5.349   4.945   5.376  1.5440  0.7456  1.1017
  378MOL0     H50980   5.294   5.068   5.501 -1.6072 -0.3126  1.2505
  378MOL0     H50981   5.573   4.886   5.367  1.4690 -0.7422  0.4183
  378MOL0     H50982   5.854   4.793   5.639  1.6731  0.6392 -1.4108
  378MOL0     H50983   5.785   4.688   5.516 -0.2587 -0.2442 -0.8149
  378MOL0     H50984   5.967   4.819   5.418 -0.6067 -1.5877  1.1087
  378MOL0     H50985   5.807   4.882   5.361 -3.7667 -0.3335  2.8112
  378MOL0     H50986   5.942   5.026   5.608  0.5146 -3.2254 -0.6214
  378MOL0     H50987   5.811   5.068   5.507  0.8270  1.1002  3.2611
  378MOL0     H50988   6.035   5.185   5.458 -1.0819  0.4552 -1.0031
  378MOL0     H50989   5.987   5.065   5.324  0.4323  1.8042 -0.4597
  378MOL0     H50990   6.345   4.863   5.481  0.9308  0.0574  0.9932
  378MOL0     H50991   6.551   4.907   5.364  1.2581  2.0860  0.1308
  378MOL0     H50992   6.848   5.105   5.029  0.4413 -0.2303 -0.4008
  378MOL0     H50993   7.021   5.212   4.900 -1.4570  1.0795 -2.1490
  378MOL0     H50994   7.201   5.340   4.867  2.2814  3.4176  1.5612
  378MOL0     H50995   7.115   5.344   4.718 -0.7952 -0.2578  2.4458
  378MOL0     H50996   7.254   5.530   4.634  0.5136 -0.1430  0.1578
  378MOL0     H50997   7.287   5.576   4.804  2.1507 -0.2915 -0.4005
  378MOL0     H50998   7.431   5.376   4.832 -1.2136 -0.8477  1.1824
  378MOL0     H50999   7.390   5.315   4.671  1.8325 -1.1158  1.1641
  378MOL0     H51000   7.502   5.515   4.579 -1.2852 -1.3919 -0.5778
  378MOL0     H51001   7.596   5.387   4.664 -3.3665 -2.3051 -0.9334
  378MOL0     H51002   7.610   5.534   4.863 -0.5035 -0.1235 -0.5191
  378MOL0     H51003   7.519   5.661   4.790 -1.4330 -1.5164 -1.1199
  378MOL0     H51004   7.805   5.560   4.727 -1.2164 -1.5341  1.9056
  378MOL0     H51005   7.717   5.647   4.602  2.6982 -0.4106  0.1033
  378MOL0     H51006   7.763   5.774   4.878  0.6206 -2.2360  0.1105
  378MOL0     H51007   7.721   5.848   4.723 -1.1884  0.1611  0.5986
  378MOL0     H51008   7.943   5.891   4.768 -0.5106  0.2658 -1.9330
  378MOL0     H51009   7.977   5.714   4.813 -1.2234 -0.9894 -0.1144
  378MOL0     H51010   6.916   5.598   5.041  1.1401  0.3744 -0.3115
  378MOL0     H51011   6.750   5.488   5.187 -3.2920 -0.9554 -1.6036
  378MOL0     H51012   6.377   5.250   5.185 -0.5522  0.2086  0.4516
  378MOL0     H51013   6.176   5.210   5.309  0.4450  0.3379 -0.2130
  378MOL0     H51014   4.273   4.794   5.175  0.8876  1.8700  1.1035
  378MOL0     H51015   4.054   4.665   5.215 -0.6013  2.2317 -1.0048
  378MOL0     H51016   3.602   4.698   5.399  0.6985 -1.3456  0.6117
  378MOL0     H51017   3.403   4.621   5.473  0.6217  0.3995  3.2649
  378MOL0     H51018   3.211   4.463   5.476  0.1698 -3.9381 -0.2630
  378MOL0     H51019   3.209   4.546   5.630 -4.0258  1.6883 -4.0591
  378MOL0     H51020   3.175   4.331   5.749  1.2174  0.6583  0.9751
  378MOL0     H51021   3.145   4.257   5.588  1.2396  1.4972 -1.3108
  378MOL0     H51022   2.977   4.431   5.552 -1.0013  0.9253  0.7635
  378MOL0     H51023   3.000   4.498   5.710 -1.6921 -1.6740  0.7742
  378MOL0     H51024   2.905   4.219   5.636 -1.3832  3.6830 -4.3308
  378MOL0     H51025   2.956   4.265   5.801 -1.5653  2.6444  2.0079
  378MOL0     H51026   2.558   4.409   5.724  0.1336  1.7583 -1.4094
  378MOL0     H51027   3.607   4.282   5.649  0.3166  0.3281 -0.3617
  378MOL0     H51028   3.833   4.258   5.670  0.2099 -0.2807 -1.6442
  378MOL0     H51029   3.918   4.302   5.527 -0.9572 -1.4254 -0.5505
  378MOL0     H51030   3.916   4.409   5.671  0.4891 -0.9195  1.6979
  379MOL0     O51031   0.467   5.032   6.544 -0.1683  0.2871 -0.6091
  379MOL0     C51032   0.454   5.125   6.472 -0.7798 -0.7846  1.3950
  379MOL0     O51033   0.560   5.215   6.439  0.1505 -0.5643  0.5310
  379MOL0     C51034   0.679   5.186   6.492  0.3011  0.2110 -0.4888
  379MOL0     C51035   0.771   5.140   6.397  0.4439 -0.3352  1.0005
  379MOL0     C51036   0.902   5.112   6.432 -0.7285  0.4500 -1.1280
  379MOL0     C51037   0.950   5.142   6.560  0.1734 -0.2892  0.4534
  379MOL0     O51038   1.082   5.113   6.596 -0.3539  0.1475  0.1409
  379MOL0     C51039   1.156   5.226   6.623 -0.2828  0.4491  0.3523
  379MOL0     C51040   1.288   5.181   6.693  0.2172  0.3953 -0.7284
  379MOL0     C51041   1.382   5.292   6.695 -0.2116 -0.3126  0.1231
  379MOL0     C51042   1.523   5.258   6.754 -0.7371 -0.6477 -0.2446
  379MOL0     C51043   1.627   5.367   6.755 -1.1506  0.6907 -0.5822
  379MOL0     C51044   1.751   5.319   6.840  1.2146 -0.0832 -0.0516
  379MOL0     C51045   1.860   5.430   6.854  1.0931 -0.4481  0.2790
  379MOL0     C51046   1.980   5.387   6.942  0.3601  0.3174  0.2140
  379MOL0     N51047   2.070   5.500   6.972 -0.1808 -0.3395  0.0400
  379MOL0     C51048   2.036   5.637   6.975 -0.0260 -0.5193  0.0945
  379MOL0     C51049   2.149   5.694   7.022 -0.3072  0.2854 -0.0696
  379MOL0     C51050   2.180   5.827   7.044  0.4174 -0.4279  0.5989
  379MOL0     C51051   2.243   5.893   6.926  0.1306  0.1944 -0.0267
  379MOL0     C51052   2.274   6.041   6.939  0.7898 -0.0625 -0.4503
  379MOL0     C51053   2.390   6.081   6.847 -0.3117 -0.6613 -0.2053
  379MOL0     O51054   2.399   6.221   6.840 -0.0761 -0.6624 -0.1444
  379MOL0     C51055   2.515   6.279   6.801 -0.4947  0.3524  0.8410
  379MOL0     C51056   2.545   6.395   6.860 -0.3351 -0.6651 -0.1369
  379MOL0     C51057   2.665   6.458   6.828 -0.2164  0.4881 -0.1456
  379MOL0     C51058   2.766   6.404   6.747  0.6129 -1.1242 -0.2030
  379MOL0     C51059   2.895   6.468   6.713 -0.0873  0.3031  0.2974
  379MOL0     O51060   2.945   6.566   6.796 -0.3284 -0.1939  0.0637
  379MOL0     C51061   3.060   6.630   6.758  0.2812 -0.3365  0.3472
  379MOL0     C51062   3.192   6.595   6.788 -0.4717 -0.4017  0.2502
  379MOL0     C51063   3.298   6.681   6.757  0.2434  0.2696 -0.3876
  379MOL0     C51064   3.275   6.800   6.685 -0.1353  0.6324 -0.3944
  379MOL0     O51065   3.378   6.885   6.656  0.1693  0.5404 -0.2259
  379MOL0     C51066   3.470   6.837   6.570  0.2200 -0.8096  0.3074
  379MOL0     C51067   3.599   6.908   6.595 -0.7146  0.5465  1.4036
  379MOL0     C51068   3.678   6.838   6.702 -0.4467  0.3936 -0.3658
  379MOL0     C51069   3.785   6.934   6.756  0.2753 -0.0433 -0.0326
  379MOL0     C51070   3.884   6.962   6.637 -0.6487 -0.5349 -0.6051
  379MOL0     C51071   4.008   7.044   6.686  0.6858 -0.0024 -0.3077
  379MOL0     C51072   4.080   6.988   6.817  0.5538 -0.0277 -0.7228
  379MOL0     C51073   4.201   7.073   6.832  0.0026 -0.1814  0.4933
  379MOL0    Cl51074   4.187   7.253   6.840  0.2535 -0.1352 -0.1502
  379MOL0     C51075   3.145   6.840   6.657 -0.0164  0.5090  0.7433
  379MOL0     C51076   3.041   6.753   6.689 -0.3952  0.1325  0.8710
  379MOL0     O51077   2.945   6.433   6.602  0.0155  0.1714  0.1950
  379MOL0     C51078   2.727   6.289   6.673  0.2311 -0.4567 -0.5604
  379MOL0     C51079   2.608   6.225   6.704  0.1946 -0.6099 -0.6869
  379MOL0     N51080   2.247   5.596   7.065 -0.0865 -0.0846  0.2641
  379MOL0     N51081   2.198   5.480   7.025  0.2567 -0.7617  0.9945
  379MOL0     C51082   0.863   5.196   6.654  0.0500  0.2483  0.4974
  379MOL0     C51083   0.724   5.230   6.617 -0.4844  0.2413 -0.9969
  379MOL0     C51084   0.315   5.149   6.424 -0.0986 -0.3692 -0.1261
  379MOL0     C51085   0.268   5.283   6.428  0.1924  0.1546 -0.8421
  379MOL0     C51086   0.139   5.326   6.399  0.3173 -0.1662 -0.2763
  379MOL0     C51087   0.051   5.233   6.337 -0.4136 -0.9834  0.0718
  379MOL0     O51088  -0.075   5.274   6.292 -0.4705 -0.1646  0.0879
  379MOL0     C51089  -0.103   5.416   6.258  0.6416 -0.1194  0.3632
  379MOL0     C51090  -0.234   5.413   6.180  0.7597  0.2236  0.8435
  379MOL0     C51091  -0.337   5.315   6.236  0.4886 -0.5155 -0.0970
  379MOL0     C51092  -0.377   5.341   6.388  0.1336 -0.1401  0.1995
  379MOL0     C51093  -0.443   5.471   6.401  0.0404  0.4651 -0.1310
  379MOL0     C51094  -0.486   5.583   6.387  0.4746  0.0699  0.1239
  379MOL0     C51095   0.091   5.100   6.335 -0.0155  0.0170  0.2837
  379MOL0     C51096   0.215   5.060   6.373 -0.3490  0.5218 -0.2283
  379MOL0     C51097   0.254   4.912   6.348  0.4662 -0.3149  0.6598
  379MOL0     H51098   0.735   5.142   6.295  0.7793  5.0305  0.6937
  379MOL0     H51099   0.954   5.058   6.354  0.3999  0.3417 -0.3161
  379MOL0     H51100   1.192   5.269   6.529 -0.3786 -1.0605 -0.4087
  379MOL0     H51101   1.115   5.297   6.695  1.9688 -0.4022  2.6557
  379MOL0     H51102   1.327   5.098   6.633 -3.4180 -2.2650  0.2239
  379MOL0     H51103   1.265   5.142   6.792 -1.3924  0.6896 -0.9537
  379MOL0     H51104   1.343   5.380   6.746  0.0272  0.4356 -0.9383
  379MOL0     H51105   1.407   5.320   6.592 -1.5836 -3.7740 -1.3074
  379MOL0     H51106   1.519   5.233   6.861  2.8353  1.8241  0.6658
  379MOL0     H51107   1.572   5.181   6.693  1.5115  1.2992 -1.0710
  379MOL0     H51108   1.642   5.405   6.654  2.0171  0.9325 -0.1247
  379MOL0     H51109   1.586   5.448   6.818 -0.4249 -1.2395  2.5890
  379MOL0     H51110   1.721   5.290   6.941  2.9062 -0.7011  0.3103
  379MOL0     H51111   1.800   5.234   6.792  4.5336  1.7940 -0.2975
  379MOL0     H51112   1.812   5.523   6.886 -0.9587 -1.9127  1.7077
  379MOL0     H51113   1.905   5.455   6.757  1.1483 -0.1312  0.3876
  379MOL0     H51114   1.947   5.344   7.037 -0.1770  0.4376  0.0900
  379MOL0     H51115   2.027   5.316   6.874 -0.2752  1.0378 -1.0133
  379MOL0     H51116   1.943   5.686   6.947 -0.6494 -0.3629  2.2897
  379MOL0     H51117   2.084   5.873   7.070  1.3643  3.0839 -1.3950
  379MOL0     H51118   2.239   5.841   7.135 -0.2023  0.6343  0.8584
  379MOL0     H51119   2.340   5.849   6.900  1.3514  1.3076  2.3928
  379MOL0     H51120   2.171   5.892   6.844  0.6350 -0.0664 -0.4749
  379MOL0     H51121   2.297   6.068   7.042 -0.9371 -0.1304 -0.0143
  379MOL0     H51122   2.186   6.095   6.904  1.3956  0.3398 -1.3883
  379MOL0     H51123   2.360   6.048   6.747  3.4784  0.0405 -1.7679
  379MOL0     H51124   2.484   6.036   6.880 -1.2163 -2.6130 -0.1469
  379MOL0     H51125   2.473   6.454   6.916 -0.9986  0.0552 -1.6859
  379MOL0     H51126   2.691   6.553   6.872 -1.0279  2.5227 -3.6801
  379MOL0     H51127   3.218   6.508   6.848 -2.7472 -0.9254  0.5694
  379MOL0     H51128   3.402   6.659   6.779 -0.0883 -0.1131  0.8643
  379MOL0     H51129   3.496   6.731   6.576  0.4772 -0.7060  1.0658
  379MOL0     H51130   3.437   6.873   6.472 -0.2472  0.9029  1.0623
  379MOL0     H51131   3.651   6.904   6.500 -2.9107 -1.7554  0.1790
  379MOL0     H51132   3.584   7.009   6.636 -2.3495  0.8783  0.1229
  379MOL0     H51133   3.612   6.810   6.784 -1.2714 -1.6936 -1.6698
  379MOL0     H51134   3.720   6.745   6.664  2.1074  1.2764  0.0621
  379MOL0     H51135   3.836   6.894   6.844  2.9505  3.0524 -0.0228
  379MOL0     H51136   3.738   7.028   6.786 -2.3737 -1.1642 -0.3814
  379MOL0     H51137   3.834   7.033   6.571 -3.2051  0.5200  2.2125
  379MOL0     H51138   3.923   6.871   6.591  1.8377 -1.0254  2.1921
  379MOL0     H51139   4.083   7.044   6.607 -0.1027  0.0909 -1.0663
  379MOL0     H51140   3.966   7.143   6.705 -0.1640 -0.8124  2.5861
  379MOL0     H51141   4.107   6.883   6.808 -0.7652 -0.3587 -0.9915
  379MOL0     H51142   4.013   6.998   6.903 -0.1629 -2.4512 -0.9409
  379MOL0     H51143   4.259   7.040   6.918  1.2763 -0.7150 -0.5470
  379MOL0     H51144   4.270   7.054   6.749  1.7906  0.8164  1.6858
  379MOL0     H51145   3.130   6.931   6.599 -0.4871 -0.8446 -1.3576
  379MOL0     H51146   2.941   6.776   6.653 -0.3667 -1.2062 -0.1359
  379MOL0     H51147   2.805   6.248   6.610  0.4910 -0.4164 -0.2694
  379MOL0     H51148   2.580   6.133   6.653  2.2272 -1.0535 -1.0707
  379MOL0     H51149   0.901   5.224   6.751  0.2471  0.1578  0.4457
  379MOL0     H51150   0.652   5.263   6.691 -0.9167 -5.4867  1.7036
  379MOL0     H51151   0.332   5.356   6.477  0.3679 -0.7071  0.2392
  379MOL0     H51152   0.110   5.430   6.403  1.4840  0.1476  2.6933
  379MOL0     H51153  -0.025   5.472   6.205 -0.5341  0.9201 -0.3085
  379MOL0     H51154  -0.115   5.462   6.356 -0.1653  1.7568 -0.5672
  379MOL0     H51155  -0.221   5.376   6.078 -1.1648  2.0672 -0.1519
  379MOL0     H51156  -0.274   5.514   6.165  1.8849  0.4912 -0.6146
  379MOL0     H51157  -0.297   5.213   6.228  3.2073  0.4019  0.7003
  379MOL0     H51158  -0.428   5.326   6.175  0.5280  0.0397 -0.0578
  379MOL0     H51159  -0.445   5.258   6.406  0.0071 -0.1714 -0.3973
  379MOL0     H51160  -0.295   5.332   6.460 -1.1857  1.7433  2.0617
  379MOL0     H51161  -0.544   5.672   6.375 -0.2678 -0.2780  0.9680
  379MOL0     H51162   0.017   5.032   6.294  1.6854 -2.1878  0.6965
  379MOL0     H51163   0.194   4.881   6.262  1.4105 -1.0297  0.2411
  379MOL0     H51164   0.361   4.893   6.346  0.6515  0.5469  1.4774
  379MOL0     H51165   0.207   4.857   6.430 -2.4506 -0.9199 -1.2504
  380MOL0     O51166   5.467   3.675   7.949 -0.1920  0.1780  0.1800
  380MOL0     C51167   5.435   3.570   7.903  0.9609  0.3219  0.7835
  380MOL0     O51168   5.446   3.541   7.764  0.3962  0.3270  0.1142
  380MOL0     C51169   5.533   3.621   7.693 -0.3114  0.0359  0.4505
  380MOL0     C51170   5.486   3.683   7.577 -0.1043  0.1060  1.5018
  380MOL0     C51171   5.577   3.767   7.500  0.2507 -0.2020 -0.3184
  380MOL0     C51172   5.711   3.791   7.541  0.2067  0.9218 -0.9774
  380MOL0     O51173   5.788   3.870   7.470 -0.5424 -0.4245  0.3608
  380MOL0     C51174   5.889   3.946   7.547  0.1400 -0.6323  0.3238
  380MOL0     C51175   5.940   4.061   7.468 -0.0255 -0.4777 -0.2696
  380MOL0     C51176   6.032   4.143   7.564  0.5300 -0.3713  0.9056
  380MOL0     C51177   6.083   4.263   7.480 -0.8019  0.0342 -0.0766
  380MOL0     C51178   6.159   4.352   7.582 -0.0282 -0.2110  0.0242
  380MOL0     C51179   6.219   4.476   7.515  0.0943 -0.5137  0.3085
  380MOL0     C51180   6.349   4.481   7.442  0.3253 -0.1448 -0.4465
  380MOL0     C51181   6.468   4.445   7.531  0.4054 -0.5242  0.6075
  380MOL0     N51182   6.590   4.457   7.455 -0.0639  0.2703  0.3771
  380MOL0     C51183   6.687   4.355   7.433  0.1840 -0.3999 -0.1507
  380MOL0     C51184   6.799   4.421   7.400 -0.0113  0.1811 -0.3065
  380MOL0     C51185   6.933   4.361   7.407 -0.3791 -0.0199  0.5185
  380MOL0     C51186   7.030   4.476   7.452 -0.2152 -0.0443 -0.3246
  380MOL0     C51187   7.172   4.417   7.475 -0.8626  0.0981  0.0490
  380MOL0     C51188   7.274   4.534   7.479 -0.0259 -0.0518 -0.2512
  380MOL0     O51189   7.311   4.565   7.617 -0.6984  0.1045 -0.2884
  380MOL0     C51190   7.437   4.521   7.648 -0.1359  0.6280  0.4621
  380MOL0     C51191   7.493   4.398   7.610  0.2432  1.0784 -0.8125
  380MOL0     C51192   7.626   4.359   7.641 -0.8381  0.3399 -0.2684
  380MOL0     C51193   7.704   4.459   7.719  0.0234  0.4836  0.5551
  380MOL0     C51194   7.832   4.429   7.777  0.1309  0.3254 -0.0171
  380MOL0     O51195   7.865   4.501   7.891 -0.2345 -0.3880 -0.0406
  380MOL0     C51196   7.997   4.508   7.923  0.8065  0.3567 -0.0761
  380MOL0     C51197   8.033   4.402   8.006 -0.0881  0.0322  0.4778
  380MOL0     C51198   8.167   4.395   8.047 -0.5417  0.4190  0.4538
  380MOL0     C51199   8.265   4.473   7.982 -0.5275 -0.1526 -0.2810
  380MOL0     O51200   8.398   4.461   8.003 -0.3945  0.1342  1.1357
  380MOL0     C51201   8.431   4.398   8.132 -0.2533  0.3799  0.1879
  380MOL0     C51202   8.580   4.412   8.150 -0.2506  0.4498  0.0937
  380MOL0     C51203   8.665   4.290   8.105 -0.3342  0.2062  0.6582
  380MOL0     C51204   8.803   4.350   8.122 -0.2724 -0.5986  0.4818
  380MOL0     C51205   8.914   4.245   8.124 -0.5260  0.4429 -0.1057
  380MOL0     C51206   9.066   4.287   8.100 -0.4007 -0.3051  0.9307
  380MOL0     C51207   9.100   4.415   8.184  0.5517 -0.4130  0.7478
  380MOL0     C51208   9.257   4.439   8.192  0.3553 -0.1970 -0.1833
  380MOL0    Cl51209   9.346   4.319   8.283 -0.3680 -0.2630  0.1654
  380MOL0     C51210   8.230   4.575   7.892  1.2024 -0.4283  0.7516
  380MOL0     C51211   8.091   4.600   7.871  0.7339  0.1080  0.1751
  380MOL0     O51212   7.899   4.339   7.724  0.2897 -0.4099 -0.4570
  380MOL0     C51213   7.648   4.578   7.752  1.1689  0.3682 -0.4118
  380MOL0     C51214   7.519   4.609   7.719  0.7726  0.1946 -0.5216
  380MOL0     N51215   6.782   4.557   7.403  0.5576 -0.3005  0.8749
  380MOL0     N51216   6.659   4.573   7.435 -0.6575 -0.5917 -0.0198
  380MOL0     C51217   5.761   3.718   7.654  0.1225 -0.5216  0.0471
  380MOL0     C51218   5.677   3.634   7.721  0.0542 -0.8999  0.2427
  380MOL0     C51219   5.368   3.468   7.990  0.3027  0.0245 -0.1743
  380MOL0     C51220   5.327   3.518   8.111 -0.3250  0.3586  0.2472
  380MOL0     C51221   5.271   3.442   8.209 -0.6840 -1.2289 -0.9352
  380MOL0     C51222   5.278   3.301   8.199 -0.1648 -0.0185 -0.4944
  380MOL0     O51223   5.228   3.207   8.277 -0.1951 -0.8988 -1.2004
  380MOL0     C51224   5.177   3.243   8.416 -0.2474 -0.3034  0.5214
  380MOL0     C51225   5.155   3.116   8.499 -0.1386  0.3889 -0.5664
  380MOL0     C51226   5.054   3.018   8.440  0.1253  0.5381 -0.0219
  380MOL0     C51227   5.073   2.869   8.500  0.0960  0.1268  0.3669
  380MOL0     C51228   5.040   2.860   8.644 -0.4215 -0.3995  0.1526
  380MOL0     C51229   5.012   2.858   8.767  0.2087 -0.4554  0.2821
  380MOL0     C51230   5.322   3.248   8.075 -0.4856  0.2157 -0.8314
  380MOL0     C51231   5.358   3.330   7.968 -0.4845 -0.7244 -0.0049
  380MOL0     C51232   5.394   3.264   7.837  0.7235 -0.6243  0.5451
  380MOL0     H51233   5.383   3.676   7.543 -0.6242 -0.4120  3.1031
  380MOL0     H51234   5.528   3.803   7.411  0.3494 -3.5536 -1.8759
  380MOL0     H51235   5.833   3.980   7.634  1.0925 -1.1251  1.1484
  380MOL0     H51236   5.974   3.881   7.568  0.9469  0.8472  1.9024
  380MOL0     H51237   5.857   4.130   7.451  2.0832  2.0123 -1.1783
  380MOL0     H51238   5.990   4.050   7.371 -0.7571  4.4278 -1.4582
  380MOL0     H51239   6.107   4.071   7.599 -0.5633 -2.5809 -1.0764
  380MOL0     H51240   5.969   4.181   7.646 -2.1006  2.7494 -2.2169
  380MOL0     H51241   6.140   4.219   7.398  0.4991 -2.3870  1.9896
  380MOL0     H51242   6.005   4.325   7.434 -0.0904  1.6181  0.7785
  380MOL0     H51243   6.091   4.376   7.664  0.6870  1.0442  0.2781
  380MOL0     H51244   6.242   4.299   7.630 -1.0110 -1.7899  0.0454
  380MOL0     H51245   6.149   4.520   7.444  2.4158  0.5495 -1.4392
  380MOL0     H51246   6.242   4.548   7.594  3.7300  4.7623 -4.7242
  380MOL0     H51247   6.358   4.583   7.403  1.1637 -0.1043 -0.1543
  380MOL0     H51248   6.326   4.416   7.358 -1.7727 -0.5891  0.3851
  380MOL0     H51249   6.467   4.499   7.627  0.5028 -0.1325  0.3909
  380MOL0     H51250   6.451   4.341   7.559 -1.3093 -1.2413 -2.5729
  380MOL0     H51251   6.658   4.252   7.445  1.1625 -0.9146 -1.8190
  380MOL0     H51252   6.927   4.274   7.472 -1.5431 -1.6876 -1.6948
  380MOL0     H51253   6.964   4.342   7.304 -0.0656  1.9206  0.2106
  380MOL0     H51254   7.028   4.554   7.374 -0.7311 -1.2789 -1.5851
  380MOL0     H51255   7.000   4.530   7.542 -1.3206  1.2216 -1.4076
  380MOL0     H51256   7.202   4.352   7.391  0.3300 -0.3582  0.8069
  380MOL0     H51257   7.167   4.364   7.570 -3.0530  1.9025  1.0363
  380MOL0     H51258   7.230   4.622   7.431 -0.3997  0.3987  0.8698
  380MOL0     H51259   7.359   4.508   7.416 -1.1450 -0.8506 -1.4767
  380MOL0     H51260   7.427   4.338   7.549 -0.0918  0.9216 -0.3039
  380MOL0     H51261   7.669   4.267   7.600  0.1902  0.6240  0.1258
  380MOL0     H51262   7.960   4.334   8.050  0.8565 -1.0787  0.3939
  380MOL0     H51263   8.205   4.316   8.111  0.2393  1.2389  1.0378
  380MOL0     H51264   8.381   4.457   8.209  0.7638  0.3238  0.9040
  380MOL0     H51265   8.419   4.290   8.136  2.4493  0.0040  0.0191
  380MOL0     H51266   8.619   4.504   8.106 -1.1391  1.1474  0.7196
  380MOL0     H51267   8.596   4.409   8.258 -1.9302  2.8607  0.4957
  380MOL0     H51268   8.637   4.207   8.171  0.0088 -1.9408 -1.7331
  380MOL0     H51269   8.657   4.266   7.999 -0.0162  1.1927  0.3975
  380MOL0     H51270   8.820   4.415   8.208 -1.9255  1.3014 -0.5656
  380MOL0     H51271   8.826   4.417   8.038 -1.5288 -1.8176 -0.8937
  380MOL0     H51272   8.891   4.168   8.049  0.3647 -1.4782  1.4909
  380MOL0     H51273   8.911   4.204   8.225 -0.0623  2.9769  1.0119
  380MOL0     H51274   9.133   4.204   8.126 -0.0783 -0.0609  0.8857
  380MOL0     H51275   9.090   4.296   7.993  0.1342 -2.5243  0.8071
  380MOL0     H51276   9.065   4.395   8.286  2.3876  1.2976  1.8024
  380MOL0     H51277   9.044   4.495   8.135  2.6169  0.5955 -0.1153
  380MOL0     H51278   9.304   4.452   8.094  0.7650 -1.1518 -0.1284
  380MOL0     H51279   9.267   4.539   8.236 -1.5380  1.6790 -3.6684
  380MOL0     H51280   8.310   4.629   7.842  2.2536 -3.6648 -1.3876
  380MOL0     H51281   8.055   4.671   7.797 -0.8457 -2.0918 -1.3187
  380MOL0     H51282   7.704   4.649   7.813 -0.0609  0.5194  0.5862
  380MOL0     H51283   7.482   4.706   7.751  1.1917  0.4069 -0.6725
  380MOL0     H51284   5.866   3.714   7.680  1.3550  3.2556 -3.3053
  380MOL0     H51285   5.730   3.568   7.789  1.7215 -3.1075 -2.9221
  380MOL0     H51286   5.329   3.624   8.130  1.4968  0.3652  0.1895
  380MOL0     H51287   5.225   3.504   8.285 -0.5768 -0.4056 -1.5266
  380MOL0     H51288   5.093   3.313   8.408 -2.1753 -2.6862 -1.5919
  380MOL0     H51289   5.247   3.305   8.473  0.4126 -0.9150  0.3913
  380MOL0     H51290   5.110   3.140   8.596 -1.7449 -1.3273 -0.8209
  380MOL0     H51291   5.252   3.078   8.532 -0.2930  1.2667  1.0154
  380MOL0     H51292   5.081   3.006   8.334 -2.3257 -0.4131 -0.6344
  380MOL0     H51293   4.951   3.054   8.434 -0.4380 -0.6804  1.5065
  380MOL0     H51294   5.009   2.798   8.447 -0.7763  1.2373 -0.1077
  380MOL0     H51295   5.174   2.828   8.495  0.0650 -0.2034  1.9760
  380MOL0     H51296   4.997   2.856   8.873  0.6807 -1.2072  0.3390
  380MOL0     H51297   5.325   3.140   8.063 -1.2439  0.2076 -1.0208
  380MOL0     H51298   5.435   3.165   7.862  0.0131 -0.8448  0.8673
  380MOL0     H51299   5.309   3.255   7.769 -1.2101  2.7422  2.2432
  380MOL0     H51300   5.477   3.318   7.791 -0.7767  1.2216 -0.0997
  381MOL0     O51301   3.489   9.580   2.121 -0.4597  0.6698 -0.5203
  381MOL0     C51302   3.400   9.558   2.034  0.3490 -0.9433 -0.3423
  381MOL0     O51303   3.404   9.475   1.928 -0.8073  0.4380  0.2712
  381MOL0     C51304   3.503   9.384   1.926 -0.0206  0.2048 -0.0138
  381MOL0     C51305   3.632   9.420   1.870  0.1378  0.0230 -0.0575
  381MOL0     C51306   3.730   9.316   1.884 -0.6277 -0.0992  0.0816
  381MOL0     C51307   3.700   9.184   1.927  0.1436  1.0834 -0.2539
  381MOL0     O51308   3.792   9.085   1.932  0.1385 -0.5731 -0.1605
  381MOL0     C51309   3.926   9.102   1.886 -0.5406  0.1384  0.7621
  381MOL0     C51310   3.995   8.960   1.869 -0.5618 -0.2365  0.0256
  381MOL0     C51311   4.147   8.979   1.860  0.2163  0.0336 -0.4719
  381MOL0     C51312   4.215   8.851   1.804 -0.2344 -0.1090 -0.8624
  381MOL0     C51313   4.361   8.876   1.781 -0.5876 -0.4951  0.5829
  381MOL0     C51314   4.444   8.885   1.912  0.0418  0.5388  0.6358
  381MOL0     C51315   4.593   8.908   1.889  0.0875  0.3778  0.1647
  381MOL0     C51316   4.672   8.883   2.012  0.5667 -0.5437 -0.0454
  381MOL0     N51317   4.655   8.983   2.112 -0.1614 -0.2923  0.1697
  381MOL0     C51318   4.678   9.120   2.087 -0.5263 -0.1974  0.4196
  381MOL0     C51319   4.610   9.179   2.183  0.3815  0.0910  0.2973
  381MOL0     C51320   4.608   9.323   2.207  0.5432  0.2245  0.2380
  381MOL0     C51321   4.739   9.381   2.236  0.5860 -0.0430 -0.7600
  381MOL0     C51322   4.750   9.530   2.291  0.3038  0.9486  0.1838
  381MOL0     C51323   4.888   9.582   2.292  0.2635 -0.5857  0.6433
  381MOL0     O51324   4.944   9.527   2.414 -0.1627  0.9621 -0.4205
  381MOL0     C51325   5.079   9.536   2.428  0.4648  0.0061  0.1623
  381MOL0     C51326   5.162   9.641   2.370  0.4201  0.4186 -0.5044
  381MOL0     C51327   5.296   9.647   2.409  0.4870 -0.0344  0.5415
  381MOL0     C51328   5.346   9.565   2.508 -0.8565 -0.3045 -0.0347
  381MOL0     C51329   5.489   9.583   2.550 -0.2053 -0.0103  0.2019
  381MOL0     O51330   5.526   9.501   2.655 -0.0591 -0.6090 -0.5938
  381MOL0     C51331   5.656   9.496   2.707  0.0415  0.4732 -0.7876
  381MOL0     C51332   5.777   9.500   2.625  0.1803 -0.8313 -0.2655
  381MOL0     C51333   5.900   9.484   2.681  1.2286 -0.7563 -0.7299
  381MOL0     C51334   5.914   9.475   2.823  0.0652 -0.2463  0.1716
  381MOL0     O51335   6.038   9.452   2.887  0.1693  0.6972  0.7124
  381MOL0     C51336   6.126   9.366   2.811 -0.8907 -0.4953  0.3542
  381MOL0     C51337   6.254   9.340   2.886  0.4936 -0.3412  0.7123
  381MOL0     C51338   6.231   9.256   3.011 -0.4800  0.7393 -0.4621
  381MOL0     C51339   6.367   9.234   3.074  0.4570 -0.2041 -0.5291
  381MOL0     C51340   6.458   9.138   2.992  0.2186 -1.1561 -0.2159
  381MOL0     C51341   6.604   9.181   3.014 -0.7805  1.0756  0.4228
  381MOL0     C51342   6.704   9.085   2.944  1.0759 -0.0311  0.5787
  381MOL0     C51343   6.836   9.088   3.017  0.1808  0.4047 -0.1191
  381MOL0    Cl51344   6.956   8.966   2.959 -0.0268 -0.0482  0.0321
  381MOL0     C51345   5.799   9.497   2.902 -0.1083 -0.2365  0.0785
  381MOL0     C51346   5.668   9.495   2.847 -0.0139 -0.0894  0.3416
  381MOL0     O51347   5.568   9.663   2.491  0.2761 -0.5928  0.3648
  381MOL0     C51348   5.269   9.467   2.573  0.0320  0.5315  0.0830
  381MOL0     C51349   5.141   9.448   2.517  0.3799  1.1054 -0.0087
  381MOL0     N51350   4.544   9.083   2.258  0.0705  0.0937 -0.3637
  381MOL0     N51351   4.575   8.966   2.221  0.6382  0.1463 -0.5002
  381MOL0     C51352   3.573   9.154   1.957  0.3427 -0.0621 -0.5545
  381MOL0     C51353   3.477   9.250   1.974  0.2459 -0.3256  0.8812
  381MOL0     C51354   3.274   9.645   2.034  0.5309 -0.8218 -0.6477
  381MOL0     C51355   3.199   9.641   1.912 -0.0694  0.0714 -0.4692
  381MOL0     C51356   3.073   9.707   1.910  0.6363 -0.2600 -0.0780
  381MOL0     C51357   3.028   9.779   2.019 -0.1171 -0.3823  0.8509
  381MOL0     O51358   2.915   9.860   2.024 -0.1828  0.8205  0.1446
  381MOL0     C51359   2.852   9.908   1.910  0.1481  0.5250  0.5640
  381MOL0     C51360   2.884  10.055   1.902  0.2693 -0.0358 -0.7079
  381MOL0     C51361   3.027  10.094   1.874 -0.1059  0.2112 -0.1238
  381MOL0     C51362   3.099  10.025   1.762  0.2707 -0.4538 -0.0051
  381MOL0     C51363   3.235  10.080   1.751 -0.1071  0.9635  0.4839
  381MOL0     C51364   3.350  10.115   1.728 -0.2001  0.8369 -0.7004
  381MOL0     C51365   3.100   9.788   2.131 -1.0837  0.1589 -0.9873
  381MOL0     C51366   3.230   9.730   2.145 -0.0818  0.0393 -0.0172
  381MOL0     C51367   3.303   9.751   2.270 -0.2885  0.1147  0.1986
  381MOL0     H51368   3.649   9.521   1.833  0.4270  0.1189  0.3377
  381MOL0     H51369   3.835   9.339   1.867 -1.4136  1.3384 -4.1918
  381MOL0     H51370   3.950   9.155   1.793  0.8521 -2.3458 -0.4208
  381MOL0     H51371   3.985   9.161   1.956 -0.7950  0.0022  1.0923
  381MOL0     H51372   3.957   8.911   1.779 -0.7486  1.2163 -0.7199
  381MOL0     H51373   3.975   8.892   1.952 -1.6467  0.2224  0.1604
  381MOL0     H51374   4.186   8.993   1.961  1.5858  0.3472 -1.0203
  381MOL0     H51375   4.164   9.070   1.801 -1.7380 -0.1409 -1.3901
  381MOL0     H51376   4.205   8.774   1.881 -2.7902  1.4307  0.4985
  381MOL0     H51377   4.163   8.835   1.709  0.8582  0.3742 -1.5515
  381MOL0     H51378   4.400   8.803   1.710 -1.0022 -1.0419  0.9110
  381MOL0     H51379   4.375   8.973   1.731 -1.1740  0.9265  3.0180
  381MOL0     H51380   4.412   8.966   1.978  0.7633  0.4256  1.1267
  381MOL0     H51381   4.433   8.792   1.968  1.3741  0.0308  0.0860
  381MOL0     H51382   4.629   9.003   1.848  2.1391 -0.0742  0.7940
  381MOL0     H51383   4.617   8.833   1.813  1.7358 -1.6727  2.5396
  381MOL0     H51384   4.656   8.783   2.053  2.9160  0.0516  2.6508
  381MOL0     H51385   4.780   8.875   1.995  0.7779  0.6217  0.6300
  381MOL0     H51386   4.740   9.169   2.012  0.8432  0.6258  2.0197
  381MOL0     H51387   4.558   9.383   2.130 -1.9601  1.2744  2.5123
  381MOL0     H51388   4.549   9.352   2.295  3.5321  3.5909  1.3846
  381MOL0     H51389   4.783   9.314   2.311  3.2066  0.7383 -1.5124
  381MOL0     H51390   4.803   9.371   2.147 -0.2504  0.8455 -1.4840
  381MOL0     H51391   4.695   9.522   2.386  0.3182  1.3555  0.2298
  381MOL0     H51392   4.688   9.590   2.224 -1.1573 -0.1290  0.5059
  381MOL0     H51393   4.879   9.691   2.292 -3.0424 -0.7158 -1.8508
  381MOL0     H51394   4.950   9.559   2.206  0.8317  2.8518  0.0010
  381MOL0     H51395   5.125   9.711   2.296  2.2955  0.4510 -1.4870
  381MOL0     H51396   5.361   9.710   2.349  0.9057  1.0959  2.1200
  381MOL0     H51397   5.778   9.509   2.517  2.5226 -4.0485 -0.6435
  381MOL0     H51398   5.981   9.486   2.608  1.6222  2.0996 -0.3352
  381MOL0     H51399   6.072   9.274   2.788 -2.0381 -0.0510  1.1420
  381MOL0     H51400   6.161   9.406   2.716  1.0179 -0.6460  0.9522
  381MOL0     H51401   6.307   9.286   2.806 -1.7311  1.1556 -1.9699
  381MOL0     H51402   6.306   9.434   2.905  0.8714 -0.0316 -1.5379
  381MOL0     H51403   6.159   9.299   3.081  0.8550  1.2004  0.6848
  381MOL0     H51404   6.186   9.161   2.983 -2.7015  1.6854 -0.2891
  381MOL0     H51405   6.362   9.194   3.176  0.3116 -0.6120 -0.6908
  381MOL0     H51406   6.404   9.334   3.095  0.1379  0.0919 -1.3695
  381MOL0     H51407   6.442   9.146   2.884 -3.4007  0.9517  0.3182
  381MOL0     H51408   6.447   9.036   3.031 -1.3228 -0.4026  1.4389
  381MOL0     H51409   6.603   9.279   2.964 -2.4958  0.8994  0.0746
  381MOL0     H51410   6.632   9.195   3.119  2.2471  1.8057 -0.3771
  381MOL0     H51411   6.713   9.113   2.838  0.1932 -2.0748 -0.0759
  381MOL0     H51412   6.664   8.983   2.947  1.7157 -0.2699  1.1019
  381MOL0     H51413   6.874   9.186   2.986  0.5905  0.2484 -0.1154
  381MOL0     H51414   6.822   9.076   3.125 -0.8114 -1.7606 -0.4469
  381MOL0     H51415   5.810   9.490   3.009 -1.0618 -0.4830  0.1653
  381MOL0     H51416   5.580   9.482   2.908 -1.0541 -0.7808 -1.2299
  381MOL0     H51417   5.316   9.411   2.654  2.8301 -1.3114 -2.5877
  381MOL0     H51418   5.081   9.373   2.568  1.4919  0.7925  0.9011
  381MOL0     H51419   3.555   9.050   1.980  0.1540 -0.4912 -2.4364
  381MOL0     H51420   3.377   9.226   2.010 -0.4707  2.3372  0.9037
  381MOL0     H51421   3.224   9.575   1.830 -1.4781 -0.0025 -0.8689
  381MOL0     H51422   3.016   9.687   1.820  1.7244  0.8417 -1.0639
  381MOL0     H51423   2.746   9.888   1.929 -0.0812  3.7915  3.8225
  381MOL0     H51424   2.875   9.864   1.813  1.8013  1.6023  0.4345
  381MOL0     H51425   2.859  10.102   1.998  2.6537  1.3594 -0.7082
  381MOL0     H51426   2.815  10.101   1.831 -0.5868 -0.0354  0.1015
  381MOL0     H51427   3.078  10.090   1.971  0.4027 -1.4880 -0.4362
  381MOL0     H51428   3.024  10.200   1.845  0.5983 -0.5255 -3.2900
  381MOL0     H51429   3.114   9.918   1.777  1.8354 -0.2015  0.3797
  381MOL0     H51430   3.047  10.031   1.666  0.5501  1.2353 -0.0823
  381MOL0     H51431   3.446  10.145   1.692  0.2921  1.2716  0.9294
  381MOL0     H51432   3.068   9.832   2.225  0.9038  2.4929 -1.2938
  381MOL0     H51433   3.320   9.656   2.321  0.1964  0.3753  0.5418
  381MOL0     H51434   3.404   9.792   2.257  0.5098 -1.6610  0.4892
  381MOL0     H51435   3.250   9.818   2.338 -0.4568  0.0033  0.1764
  382MOL0     O51436   3.365   1.649   1.353 -0.5755  0.2391  0.5599
  382MOL0     C51437   3.350   1.541   1.409 -0.4257  0.2625 -0.4732
  382MOL0     O51438   3.446   1.458   1.450 -0.7377  0.0503  0.0678
  382MOL0     C51439   3.577   1.473   1.418 -0.2364 -0.5318  0.0223
  382MOL0     C51440   3.623   1.547   1.307 -0.3761  0.0689 -0.2839
  382MOL0     C51441   3.761   1.550   1.282  0.6734 -0.3237 -0.2562
  382MOL0     C51442   3.850   1.493   1.368  0.4215  0.1446 -0.1177
  382MOL0     O51443   3.987   1.507   1.342  0.0998 -0.1903  0.2896
  382MOL0     C51444   4.074   1.478   1.454  0.3402 -0.3635  0.7805
  382MOL0     C51445   4.214   1.520   1.425 -0.1044  0.4001 -0.0899
  382MOL0     C51446   4.259   1.467   1.287 -1.1334 -0.0073 -0.5942
  382MOL0     C51447   4.416   1.469   1.284  0.0409  0.4048 -0.1410
  382MOL0     C51448   4.472   1.452   1.147 -0.2717  0.7896 -0.3163
  382MOL0     C51449   4.626   1.454   1.139  0.0041 -0.1759  0.4190
  382MOL0     C51450   4.661   1.426   0.999  0.4784 -0.3526  0.2864
  382MOL0     C51451   4.802   1.458   0.966  0.7797 -0.2197 -0.5780
  382MOL0     N51452   4.872   1.342   0.933 -0.2363  0.3024 -0.0040
  382MOL0     C51453   4.962   1.276   1.011 -0.2408  0.8771 -0.4498
  382MOL0     C51454   5.002   1.168   0.938  0.7478 -0.3649  0.2335
  382MOL0     C51455   5.084   1.057   0.978  0.7537 -0.8705 -0.7264
  382MOL0     C51456   5.227   1.055   0.931  0.1590 -0.0906  0.8254
  382MOL0     C51457   5.288   0.913   0.937  0.2845 -0.3571 -0.1237
  382MOL0     C51458   5.437   0.924   0.950  0.2223  0.7746 -0.4338
  382MOL0     O51459   5.458   0.941   1.086  0.1110  0.3152  0.6832
  382MOL0     C51460   5.589   0.952   1.123  0.0357 -0.2352 -1.1159
  382MOL0     C51461   5.620   0.936   1.261  0.4548  0.5328  0.1648
  382MOL0     C51462   5.751   0.937   1.309  0.4344 -0.5742 -0.0184
  382MOL0     C51463   5.854   0.967   1.221 -0.4871 -0.1828  0.2689
  382MOL0     C51464   5.995   0.963   1.265  0.0636 -0.7733  0.0098
  382MOL0     O51465   6.082   0.915   1.183  0.0092  0.0618  0.6699
  382MOL0     C51466   6.215   0.903   1.231 -0.1809 -0.0119 -0.4619
  382MOL0     C51467   6.249   0.845   1.354  0.4509  0.7253 -0.3639
  382MOL0     C51468   6.378   0.839   1.402 -0.1993 -0.2554  0.2383
  382MOL0     C51469   6.481   0.878   1.312 -0.1462  0.9751 -0.0491
  382MOL0     O51470   6.616   0.890   1.342  0.2237 -0.2537 -0.5300
  382MOL0     C51471   6.659   0.812   1.450 -0.3666  0.5680  0.2053
  382MOL0     C51472   6.810   0.811   1.454 -0.1682 -0.6576 -1.2599
  382MOL0     C51473   6.856   0.677   1.521  0.2669 -0.8016 -0.2391
  382MOL0     C51474   7.009   0.686   1.518 -0.0114  0.0897 -0.2230
  382MOL0     C51475   7.054   0.585   1.632  0.3891 -0.2525 -0.2255
  382MOL0     C51476   7.200   0.583   1.675  0.0761  0.0358 -0.8540
  382MOL0     C51477   7.206   0.479   1.790  0.3013  0.1638  0.0338
  382MOL0     C51478   7.353   0.432   1.812 -0.4868 -0.4788  0.7412
  382MOL0    Cl51479   7.455   0.570   1.834 -0.0322  0.1831  0.1981
  382MOL0     C51480   6.455   0.937   1.191 -0.1278 -0.3920  0.0280
  382MOL0     C51481   6.317   0.942   1.145  0.7167  0.3666  0.1986
  382MOL0     O51482   6.018   1.017   1.370  0.0678  0.4705 -0.2740
  382MOL0     C51483   5.826   0.983   1.085 -0.6480  0.0789  0.2479
  382MOL0     C51484   5.699   0.979   1.037 -0.2766  0.3464  0.7352
  382MOL0     N51485   4.915   1.169   0.823 -0.2136  0.4714 -0.2016
  382MOL0     N51486   4.849   1.275   0.820 -0.2278  0.7100 -0.2285
  382MOL0     C51487   3.797   1.406   1.471  0.5758  0.3602 -0.7016
  382MOL0     C51488   3.663   1.400   1.497 -1.2318  0.1953  0.8121
  382MOL0     C51489   3.207   1.502   1.439 -0.1505  0.2911 -0.3569
  382MOL0     C51490   3.185   1.434   1.562 -0.5409 -0.7680 -0.1773
  382MOL0     C51491   3.060   1.380   1.592  0.2802 -0.3743  0.7143
  382MOL0     C51492   2.952   1.405   1.506  0.4629 -0.6873  0.4276
  382MOL0     O51493   2.838   1.354   1.549 -0.6389  0.6833  0.1462
  382MOL0     C51494   2.713   1.407   1.492  1.0793 -0.3837  0.2637
  382MOL0     C51495   2.600   1.427   1.593  0.2014 -0.3869 -0.4138
  382MOL0     C51496   2.634   1.525   1.709 -0.5257  0.2544  0.1547
  382MOL0     C51497   2.589   1.665   1.674 -1.3089 -0.5815  0.2788
  382MOL0     C51498   2.677   1.769   1.731  0.4606  0.0043  0.5607
  382MOL0     C51499   2.740   1.870   1.760  0.5607  0.0371  0.5272
  382MOL0     C51500   2.974   1.475   1.385 -0.2201  0.2858  0.0844
  382MOL0     C51501   3.100   1.526   1.348  0.5634 -0.1559 -0.3208
  382MOL0     C51502   3.113   1.591   1.217  0.4063  0.4191  0.7324
  382MOL0     H51503   3.572   1.613   1.238  0.2587  1.1863  0.2938
  382MOL0     H51504   3.801   1.617   1.206 -1.5594  2.4220  0.8058
  382MOL0     H51505   4.034   1.516   1.548 -0.0005 -1.2815  1.0198
  382MOL0     H51506   4.084   1.372   1.476 -1.4352 -1.2610 -2.1506
  382MOL0     H51507   4.276   1.474   1.502 -2.2262 -1.2964  0.7258
  382MOL0     H51508   4.231   1.628   1.432  0.1769  0.3700 -0.2771
  382MOL0     H51509   4.218   1.522   1.202  0.7215  2.1689 -0.1660
  382MOL0     H51510   4.228   1.362   1.287 -1.5975  0.1160  0.2317
  382MOL0     H51511   4.449   1.565   1.326  0.0141  0.3019  0.1117
  382MOL0     H51512   4.440   1.382   1.346 -1.3285  1.1219  1.4599
  382MOL0     H51513   4.435   1.355   1.111 -0.0334  0.8887 -0.8346
  382MOL0     H51514   4.418   1.523   1.084 -1.0919 -0.4455 -1.0716
  382MOL0     H51515   4.650   1.553   1.179 -0.4958 -0.1386  0.6365
  382MOL0     H51516   4.670   1.374   1.199  0.1154 -2.0024 -1.9218
  382MOL0     H51517   4.592   1.480   0.933 -0.7984 -2.4508 -0.1742
  382MOL0     H51518   4.647   1.320   0.977 -1.1534 -0.3184  1.0529
  382MOL0     H51519   4.794   1.521   0.877 -1.3352 -1.4854 -1.3393
  382MOL0     H51520   4.847   1.515   1.048 -0.7529 -0.3872  0.4266
  382MOL0     H51521   4.989   1.301   1.113  2.9629  1.8619 -1.4101
  382MOL0     H51522   5.067   1.055   1.086  0.2457 -0.1466 -0.7840
  382MOL0     H51523   5.028   0.966   0.954 -1.7942  0.1258  0.9562
  382MOL0     H51524   5.216   1.100   0.832  1.1505 -0.2853  0.6244
  382MOL0     H51525   5.291   1.123   0.988  0.2353  1.6490 -1.2132
  382MOL0     H51526   5.256   0.858   0.848 -1.2436  0.0899  0.1258
  382MOL0     H51527   5.248   0.849   1.016 -1.1531  1.9686  1.1302
  382MOL0     H51528   5.484   1.004   0.893  0.7017  2.3467  2.0245
  382MOL0     H51529   5.493   0.838   0.911  0.1840  0.4493  0.2155
  382MOL0     H51530   5.536   0.919   1.327 -0.7398  1.1996 -1.1276
  382MOL0     H51531   5.771   0.918   1.414  0.3518 -1.6286 -0.1757
  382MOL0     H51532   6.164   0.820   1.416 -0.0149  0.9910 -0.8857
  382MOL0     H51533   6.400   0.800   1.501  0.6281 -0.9962 -0.2248
  382MOL0     H51534   6.622   0.857   1.542  2.2064  2.6455  0.3393
  382MOL0     H51535   6.635   0.707   1.433  1.1433  0.5661 -2.4828
  382MOL0     H51536   6.850   0.808   1.352  2.2775 -1.7981 -0.3356
  382MOL0     H51537   6.847   0.901   1.505 -0.5922  0.4163 -2.7812
  382MOL0     H51538   6.812   0.659   1.619 -0.6361 -2.7122 -0.9434
  382MOL0     H51539   6.828   0.592   1.458  1.2538 -3.0039  2.1421
  382MOL0     H51540   7.048   0.784   1.547 -1.1018  0.1014  1.2983
  382MOL0     H51541   7.046   0.654   1.420  0.3157 -0.9683  0.2388
  382MOL0     H51542   7.018   0.486   1.603 -0.5212 -0.4564  1.4839
  382MOL0     H51543   7.005   0.611   1.726 -0.4678 -2.0142 -0.1614
  382MOL0     H51544   7.264   0.569   1.587  0.4577 -0.6649 -0.4737
  382MOL0     H51545   7.236   0.681   1.705  2.2019 -1.4666  2.0260
  382MOL0     H51546   7.140   0.393   1.775  2.5950 -2.1858  2.3556
  382MOL0     H51547   7.174   0.524   1.885  2.1254 -1.1070  1.3340
  382MOL0     H51548   7.360   0.365   1.898  0.8185  1.1030  1.9369
  382MOL0     H51549   7.375   0.387   1.715 -1.7547  3.4350 -1.6136
  382MOL0     H51550   6.534   0.985   1.134  0.7493  3.6775  4.0316
  382MOL0     H51551   6.291   0.986   1.049 -3.9399 -1.9289  0.1137
  382MOL0     H51552   5.906   0.992   1.013  1.1536 -0.2594  2.0991
  382MOL0     H51553   5.683   0.999   0.932  1.7096  0.3316  0.3930
  382MOL0     H51554   3.866   1.355   1.538 -0.4991  0.9608  0.9174
  382MOL0     H51555   3.625   1.346   1.583 -3.0464 -0.9168 -0.6254
  382MOL0     H51556   3.269   1.408   1.626 -0.6134 -1.6514 -0.4325
  382MOL0     H51557   3.043   1.323   1.682  0.0515 -0.0986  0.8478
  382MOL0     H51558   2.693   1.339   1.408  0.4193  2.6593 -2.2458
  382MOL0     H51559   2.729   1.509   1.455  2.1518 -0.5971  0.0950
  382MOL0     H51560   2.577   1.331   1.641  0.3749 -0.1188  0.2254
  382MOL0     H51561   2.510   1.458   1.539  1.8559 -0.0915 -3.2046
  382MOL0     H51562   2.741   1.532   1.732 -1.0336  1.4188  2.4693
  382MOL0     H51563   2.587   1.494   1.803 -0.3461  1.9721  0.8546
  382MOL0     H51564   2.586   1.683   1.566 -2.0052 -0.4502  0.3157
  382MOL0     H51565   2.484   1.670   1.705 -2.2694  0.8358 -2.8349
  382MOL0     H51566   2.804   1.951   1.789 -0.2867  0.1091  2.3685
  382MOL0     H51567   2.891   1.484   1.315 -1.0393  1.1927  1.1483
  382MOL0     H51568   3.203   1.544   1.174 -0.4141  0.5437 -1.2090
  382MOL0     H51569   3.029   1.569   1.151 -1.3132 -2.9827  3.6963
  382MOL0     H51570   3.119   1.700   1.225  1.5529  0.3040  1.6791
  383MOL0     O51571   3.287   2.128   0.916 -0.2146  0.3597  0.4858
  383MOL0     C51572   3.217   2.028   0.942 -1.0092 -0.6154  0.3852
  383MOL0     O51573   3.267   1.899   0.963 -0.3539  0.0441 -0.2224
  383MOL0     C51574   3.404   1.889   0.955 -0.6637  1.0638 -0.3080
  383MOL0     C51575   3.472   1.848   0.838  0.7284  0.4992 -0.3913
  383MOL0     C51576   3.602   1.815   0.846 -0.7030  0.5140 -0.1886
  383MOL0     C51577   3.675   1.822   0.967  0.1916 -0.1469 -0.6251
  383MOL0     O51578   3.807   1.809   0.973 -0.2517 -0.2221  0.2042
  383MOL0     C51579   3.857   1.695   0.898 -0.1478  0.3353  0.2327
  383MOL0     C51580   4.002   1.666   0.955 -0.0047  0.3350  0.4177
  383MOL0     C51581   4.072   1.569   0.855  0.4827  0.2373  0.2117
  383MOL0     C51582   4.205   1.615   0.806 -0.9317  0.4006 -0.3747
  383MOL0     C51583   4.285   1.492   0.754 -1.0839 -0.0913 -0.0188
  383MOL0     C51584   4.413   1.525   0.675  0.1056 -0.3767 -0.1940
  383MOL0     C51585   4.486   1.401   0.628 -0.6530  0.2619 -1.2782
  383MOL0     C51586   4.620   1.432   0.561 -0.7806  0.4633  0.0891
  383MOL0     N51587   4.666   1.324   0.476  1.0888  0.2484 -0.2044
  383MOL0     C51588   4.726   1.206   0.529 -0.1042 -0.4002 -0.4366
  383MOL0     C51589   4.791   1.146   0.423  0.2950 -0.5532 -0.0143
  383MOL0     C51590   4.847   1.012   0.404 -0.2012 -0.9502  0.0055
  383MOL0     C51591   4.978   0.995   0.476  0.1297  0.3031 -0.2256
  383MOL0     C51592   5.037   0.852   0.443 -0.0826 -0.3624 -0.2650
  383MOL0     C51593   5.167   0.813   0.510 -0.3121  0.1419  0.9574
  383MOL0     O51594   5.280   0.904   0.498  0.1405 -0.6215 -0.3066
  383MOL0     C51595   5.395   0.858   0.563  0.5829 -0.2333 -0.8526
  383MOL0     C51596   5.416   0.735   0.623 -0.3710 -0.6131  0.3691
  383MOL0     C51597   5.544   0.691   0.676 -0.4724 -0.5027 -0.6020
  383MOL0     C51598   5.641   0.778   0.693 -0.0045  0.0749 -0.1193
  383MOL0     C51599   5.768   0.735   0.747  1.0421  0.5161 -0.5134
  383MOL0     O51600   5.783   0.596   0.774  0.3904 -0.2688 -0.7988
  383MOL0     C51601   5.903   0.564   0.819 -1.1056 -0.0897 -1.5942
  383MOL0     C51602   5.956   0.608   0.944 -0.7685 -0.2783 -0.1795
  383MOL0     C51603   6.084   0.578   0.991  0.5508  0.6072 -0.7208
  383MOL0     C51604   6.165   0.516   0.895 -0.2303  0.3750 -0.9641
  383MOL0     O51605   6.301   0.484   0.933 -0.2334  0.2152  0.1784
  383MOL0     C51606   6.371   0.593   1.000 -0.2152 -0.0536 -0.7529
  383MOL0     C51607   6.520   0.588   0.997  0.4951 -0.6785 -1.0584
  383MOL0     C51608   6.567   0.480   1.098  0.2068 -0.7030 -0.7844
  383MOL0     C51609   6.720   0.479   1.090  0.4064 -0.6166  0.5467
  383MOL0     C51610   6.774   0.382   1.194  0.2841 -0.6476  0.4744
  383MOL0     C51611   6.926   0.375   1.208  0.4741 -0.1181 -0.1668
  383MOL0     C51612   6.964   0.307   1.340 -0.1163  0.1667  0.0846
  383MOL0     C51613   7.114   0.286   1.360 -0.6715  0.3657  1.2983
  383MOL0    Cl51614   7.154   0.203   1.512 -0.1223  0.3803 -0.1468
  383MOL0     C51615   6.121   0.480   0.771  0.8109  0.0305 -0.0342
  383MOL0     C51616   5.990   0.507   0.730 -0.0640  0.1690 -0.5636
  383MOL0     O51617   5.861   0.816   0.751 -0.1623 -0.2784  1.0712
  383MOL0     C51618   5.617   0.907   0.634 -1.1977  0.2062  0.2193
  383MOL0     C51619   5.502   0.947   0.575 -0.0817 -0.7336 -0.3282
  383MOL0     N51620   4.779   1.235   0.323  0.1467  0.1632  0.5619
  383MOL0     N51621   4.699   1.340   0.351 -0.2398 -0.1129  0.2453
  383MOL0     C51622   3.605   1.858   1.086  0.2162 -0.7056 -0.1436
  383MOL0     C51623   3.469   1.899   1.077  0.3164  0.2031 -0.2759
  383MOL0     C51624   3.070   2.042   0.934  0.0446  0.1298  0.2962
  383MOL0     C51625   2.991   1.941   0.989  0.9782 -0.6146 -0.5938
  383MOL0     C51626   2.852   1.947   0.989  0.3933  0.3334  0.1884
  383MOL0     C51627   2.786   2.058   0.933 -0.4468  0.3578 -1.0746
  383MOL0     O51628   2.649   2.069   0.919  0.5959  0.2436 -0.6152
  383MOL0     C51629   2.571   1.960   0.971  1.4867 -0.5356 -0.5257
  383MOL0     C51630   2.417   1.998   0.967 -0.4002  0.0635 -0.1171
  383MOL0     C51631   2.362   2.025   0.825  0.0602 -0.9070 -0.1517
  383MOL0     C51632   2.244   2.120   0.825  0.1143  0.1925  0.0070
  383MOL0     C51633   2.128   2.054   0.877 -0.2871  0.0397  0.2838
  383MOL0     C51634   2.036   2.006   0.935  0.0390  0.3367  0.2966
  383MOL0     C51635   2.866   2.163   0.889 -0.4947  0.1124 -0.2641
  383MOL0     C51636   3.006   2.157   0.902 -0.4709 -0.2472  0.3135
  383MOL0     C51637   3.067   2.276   0.827 -0.1985 -0.3965  0.5207
  383MOL0     H51638   3.426   1.841   0.740 -0.5777  2.3391  0.0385
  383MOL0     H51639   3.660   1.807   0.755  1.0145 -0.6246  0.9521
  383MOL0     H51640   3.794   1.607   0.915 -0.9209  0.8196 -0.0632
  383MOL0     H51641   3.854   1.724   0.792 -2.0355 -0.6188 -0.0219
  383MOL0     H51642   3.995   1.640   1.061 -0.1640  3.2468  1.2343
  383MOL0     H51643   4.048   1.765   0.944 -0.2957  0.5227  0.8438
  383MOL0     H51644   4.009   1.550   0.767  1.5153  0.5297 -0.6031
  383MOL0     H51645   4.089   1.474   0.907  2.5895  0.0534 -0.7265
  383MOL0     H51646   4.193   1.690   0.727 -1.7650 -0.1339 -0.7729
  383MOL0     H51647   4.259   1.662   0.889 -1.8264 -0.0465  0.4748
  383MOL0     H51648   4.319   1.429   0.837  1.5867  0.0858 -0.8977
  383MOL0     H51649   4.215   1.431   0.697 -0.9928 -0.1662 -0.0516
  383MOL0     H51650   4.396   1.590   0.588 -1.5097 -0.0216  0.3483
  383MOL0     H51651   4.479   1.574   0.747  0.1927 -2.3247  1.1292
  383MOL0     H51652   4.423   1.354   0.552  1.4049 -1.8298 -1.8106
  383MOL0     H51653   4.500   1.332   0.712 -2.5114 -1.3223 -2.1869
  383MOL0     H51654   4.594   1.520   0.501 -2.9480 -0.6813 -0.7468
  383MOL0     H51655   4.693   1.465   0.636 -2.5896  2.7170  0.9798
  383MOL0     H51656   4.695   1.154   0.619  2.0119 -2.5165 -0.8299
  383MOL0     H51657   4.771   0.951   0.454 -0.8107 -1.2392 -1.2575
  383MOL0     H51658   4.858   0.978   0.301  1.0476 -0.6760  0.0256
  383MOL0     H51659   5.052   1.067   0.438  1.2904  0.1817  1.7016
  383MOL0     H51660   4.972   1.007   0.584 -1.2968 -1.9435  0.0096
  383MOL0     H51661   5.042   0.838   0.334  1.4644 -0.5213 -0.1991
  383MOL0     H51662   4.960   0.779   0.469  0.1611 -1.2094 -1.8075
  383MOL0     H51663   5.193   0.713   0.475 -3.1362 -0.0306 -0.8976
  383MOL0     H51664   5.129   0.813   0.613 -2.6253  0.1154  0.1550
  383MOL0     H51665   5.347   0.653   0.605  1.8662 -1.8543 -3.9400
  383MOL0     H51666   5.561   0.597   0.729 -0.4938  0.6105  1.5030
  383MOL0     H51667   5.896   0.676   1.003  1.0339  1.7139 -0.5102
  383MOL0     H51668   6.124   0.601   1.089  0.0764 -2.1911  0.2287
  383MOL0     H51669   6.330   0.683   0.952  1.4362  0.3703 -1.4361
  383MOL0     H51670   6.351   0.589   1.107 -0.4028  0.2193 -0.7776
  383MOL0     H51671   6.568   0.577   0.899  1.6795 -3.3124 -0.2913
  383MOL0     H51672   6.554   0.685   1.033 -0.5895 -1.2358  1.7312
  383MOL0     H51673   6.524   0.504   1.196 -0.4634  0.3166 -1.3145
  383MOL0     H51674   6.537   0.376   1.077  1.2460 -1.7319  2.2607
  383MOL0     H51675   6.763   0.580   1.096 -2.3011  0.7827 -1.3826
  383MOL0     H51676   6.758   0.450   0.991  0.6998  1.1571  0.0832
  383MOL0     H51677   6.734   0.284   1.166 -2.2248  0.3539  0.3002
  383MOL0     H51678   6.728   0.417   1.286  1.8507  1.2320  0.6039
  383MOL0     H51679   6.973   0.322   1.125 -0.9793 -2.5002  0.4381
  383MOL0     H51680   6.956   0.480   1.216 -0.4359  0.1546 -0.1832
  383MOL0     H51681   6.914   0.210   1.340 -2.4808  1.2861  1.8326
  383MOL0     H51682   6.925   0.357   1.428  2.0701  0.6438  0.8481
  383MOL0     H51683   7.156   0.224   1.281  4.9519  1.2373  3.1898
  383MOL0     H51684   7.151   0.388   1.370 -1.9052  0.9929 -0.1826
  383MOL0     H51685   6.188   0.430   0.702 -0.1480 -2.2303  0.5859
  383MOL0     H51686   5.972   0.474   0.628  1.2908 -2.4911 -0.0504
  383MOL0     H51687   5.697   0.977   0.656  1.0822 -2.0854 -0.2598
  383MOL0     H51688   5.483   1.052   0.554 -1.4025 -0.8605  0.1503
  383MOL0     H51689   3.648   1.864   1.185  4.5140  4.0816 -1.8339
  383MOL0     H51690   3.406   1.902   1.165 -1.4852 -1.5602 -1.4282
  383MOL0     H51691   3.018   1.853   1.046 -0.8462 -0.3804  0.7186
  383MOL0     H51692   2.798   1.869   1.043 -1.1267  0.8620 -0.5215
  383MOL0     H51693   2.607   1.930   1.070 -2.2878  0.5129  1.3784
  383MOL0     H51694   2.576   1.868   0.911 -1.9362 -0.8634 -0.5086
  383MOL0     H51695   2.406   2.090   1.026  2.3066 -0.0149  0.6238
  383MOL0     H51696   2.359   1.914   1.007 -2.0302  1.3162  0.2786
  383MOL0     H51697   2.353   1.929   0.773  0.2536  0.4572 -2.9013
  383MOL0     H51698   2.445   2.076   0.775 -0.8657  0.2369 -0.5467
  383MOL0     H51699   2.278   2.205   0.884  0.7035  0.9637 -1.3827
  383MOL0     H51700   2.219   2.156   0.724 -2.7354 -2.2766 -0.3064
  383MOL0     H51701   1.945   1.969   0.979  0.3984 -0.2946  0.5206
  383MOL0     H51702   2.813   2.248   0.848 -3.4020 -2.5069 -2.4175
  383MOL0     H51703   3.149   2.325   0.881  1.1489 -0.5407 -1.3024
  383MOL0     H51704   3.112   2.232   0.737 -1.7277 -0.8711 -0.0510
  383MOL0     H51705   2.999   2.348   0.782 -2.1284 -1.5599  1.4482
  384MOL0     O51706  10.635   8.121   7.149 -1.0521  0.5160  0.7604
  384MOL0     C51707  10.576   8.061   7.237 -0.3102 -0.1816  0.2082
  384MOL0     O51708  10.634   7.979   7.332 -0.2913 -0.2176  0.4291
  384MOL0     C51709  10.767   7.926   7.309  0.0756  0.5944 -1.0851
  384MOL0     C51710  10.781   7.802   7.367  0.5204 -0.8955  0.2448
  384MOL0     C51711  10.906   7.747   7.362 -0.7379  0.2534  0.7978
  384MOL0     C51712  11.012   7.814   7.288 -0.1286  0.7903  0.3995
  384MOL0     O51713  11.131   7.745   7.283 -0.2067  0.4370  0.1626
  384MOL0     C51714  11.140   7.661   7.167 -0.7213 -0.2068  0.1303
  384MOL0     C51715  11.216   7.731   7.062  1.0268  0.4217  0.3735
  384MOL0     C51716  11.251   7.638   6.944  0.0295 -0.4800 -0.2259
  384MOL0     C51717  11.325   7.713   6.839 -0.5234 -0.4592 -0.2315
  384MOL0     C51718  11.420   7.615   6.771 -0.2504 -0.5391 -0.0141
  384MOL0     C51719  11.361   7.497   6.691 -0.5140 -0.2081  0.6855
  384MOL0     C51720  11.445   7.458   6.565 -1.0115  0.9200  0.1121
  384MOL0     C51721  11.582   7.402   6.610 -0.1075  0.4159 -0.4499
  384MOL0     N51722  11.664   7.381   6.490 -0.2974  0.0981  0.2570
  384MOL0     C51723  11.649   7.274   6.405 -0.1529 -0.2766 -0.3845
  384MOL0     C51724  11.752   7.284   6.318 -0.3241 -0.0709 -0.4165
  384MOL0     C51725  11.788   7.172   6.214  0.2962 -1.0504 -0.1596
  384MOL0     C51726  11.898   7.234   6.121  0.7992 -0.0829 -1.2437
  384MOL0     C51727  11.837   7.327   6.021  0.6948  0.3867  1.2134
  384MOL0     C51728  11.958   7.374   5.940 -0.2802 -0.2850  0.1678
  384MOL0     O51729  12.024   7.484   6.006  0.5347 -0.1881  0.2833
  384MOL0     C51730  12.147   7.501   5.961 -0.1491 -0.1607  0.5729
  384MOL0     C51731  12.194   7.471   5.824  0.2407 -0.6554 -0.0835
  384MOL0     C51732  12.316   7.504   5.772 -0.0483 -0.2886 -0.6262
  384MOL0     C51733  12.418   7.564   5.853 -0.2153 -0.0953  0.5670
  384MOL0     C51734  12.548   7.603   5.794 -0.3612  0.6087 -0.2384
  384MOL0     O51735  12.578   7.572   5.670 -0.7541 -0.3896 -0.0513
  384MOL0     C51736  12.700   7.585   5.615 -0.6370 -0.8613 -0.4407
  384MOL0     C51737  12.763   7.478   5.550  1.2531 -0.2320 -0.7800
  384MOL0     C51738  12.881   7.490   5.473  0.3566 -0.0005 -0.5122
  384MOL0     C51739  12.933   7.617   5.450 -0.2701  0.2325  0.1617
  384MOL0     O51740  13.050   7.631   5.376 -0.6633  0.1206 -0.3538
  384MOL0     C51741  13.055   7.567   5.249  0.0754  0.6772  0.3678
  384MOL0     C51742  13.185   7.614   5.169  0.0156  0.0864  0.2026
  384MOL0     C51743  13.324   7.551   5.215 -0.3499 -0.6199 -0.4188
  384MOL0     C51744  13.432   7.616   5.129 -0.0179  0.0976  0.4139
  384MOL0     C51745  13.568   7.555   5.157  0.2051 -0.1124 -0.3748
  384MOL0     C51746  13.660   7.631   5.050  0.1793  0.0212  0.6153
  384MOL0     C51747  13.809   7.597   5.076 -0.3180  0.0531  0.6092
  384MOL0     C51748  13.895   7.636   4.959  0.6430  0.2458 -0.0698
  384MOL0    Cl51749  13.938   7.803   4.974 -0.3377 -0.1422  0.0416
  384MOL0     C51750  12.874   7.726   5.510 -0.0108 -0.5732 -0.2568
  384MOL0     C51751  12.759   7.707   5.583 -0.5874  0.1511 -0.4013
  384MOL0     O51752  12.616   7.677   5.869  0.0559 -0.3766  0.4310
  384MOL0     C51753  12.376   7.611   5.978  0.2744  1.1530 -0.2457
  384MOL0     C51754  12.248   7.573   6.032 -0.4820 -0.3163 -0.3707
  384MOL0     N51755  11.827   7.397   6.347 -0.1798  0.3439  0.5773
  384MOL0     N51756  11.778   7.453   6.448 -0.1247 -0.0046 -0.6470
  384MOL0     C51757  10.990   7.940   7.241 -1.1110  0.5851  0.6054
  384MOL0     C51758  10.870   7.998   7.248 -0.6449  0.0707  0.3208
  384MOL0     C51759  10.426   8.072   7.253  0.4303 -0.6055  0.6031
  384MOL0     C51760  10.361   8.001   7.354  1.0134  0.2406 -0.4860
  384MOL0     C51761  10.221   8.005   7.371 -0.3270  0.0018 -0.9085
  384MOL0     C51762  10.142   8.078   7.279 -0.1807 -0.7094 -1.6647
  384MOL0     O51763  10.004   8.075   7.291  0.1409 -0.0896 -0.4163
  384MOL0     C51764   9.928   8.102   7.168  0.3761  0.8151  0.3876
  384MOL0     C51765   9.785   8.034   7.178  0.3896  1.0188 -0.9779
  384MOL0     C51766   9.795   7.884   7.199  0.3523  0.6809  0.2377
  384MOL0     C51767   9.683   7.829   7.296  0.6057  0.2959 -0.1897
  384MOL0     C51768   9.718   7.700   7.367  0.8546 -0.1819  1.2676
  384MOL0     C51769   9.734   7.584   7.399  0.1137  0.1455 -0.0678
  384MOL0     C51770  10.203   8.155   7.178  0.2576 -0.6366  0.3251
  384MOL0     C51771  10.340   8.153   7.162 -0.6173 -0.1486  0.3976
  384MOL0     C51772  10.387   8.221   7.038 -0.2803  0.8896  0.3513
  384MOL0     H51773  10.691   7.762   7.412 -1.1533  1.1131 -1.0803
  384MOL0     H51774  10.932   7.647   7.394 -1.4204 -0.2844 -0.2819
  384MOL0     H51775  11.194   7.573   7.202  1.1697  0.2773 -1.4109
  384MOL0     H51776  11.044   7.627   7.128 -1.0250  0.5334  0.2058
  384MOL0     H51777  11.304   7.778   7.108  1.4742 -2.3978  2.6889
  384MOL0     H51778  11.151   7.808   7.020  1.2385  1.1252  1.2709
  384MOL0     H51779  11.169   7.582   6.899 -0.3213  0.6780 -1.0754
  384MOL0     H51780  11.317   7.564   6.990 -1.0970  0.5390  3.3033
  384MOL0     H51781  11.249   7.750   6.770 -0.9634 -0.0066  0.4869
  384MOL0     H51782  11.376   7.800   6.881 -0.1964 -0.4591 -0.6261
  384MOL0     H51783  11.482   7.681   6.710 -1.7682  2.3901  1.4119
  384MOL0     H51784  11.493   7.578   6.843 -0.9356  2.2760  2.3042
  384MOL0     H51785  11.335   7.404   6.741 -0.2961 -1.1093 -0.8180
  384MOL0     H51786  11.272   7.550   6.654 -0.9733 -0.3969  1.4990
  384MOL0     H51787  11.458   7.540   6.494 -2.6465 -0.2745 -1.6557
  384MOL0     H51788  11.399   7.373   6.515  2.4556 -0.2991 -1.3054
  384MOL0     H51789  11.634   7.479   6.667  0.4811 -1.3947  1.5772
  384MOL0     H51790  11.552   7.327   6.684 -0.2361  0.8136 -0.0898
  384MOL0     H51791  11.569   7.205   6.430 -0.8504  1.1038  1.4743
  384MOL0     H51792  11.826   7.083   6.265  2.2049 -0.4454 -0.4183
  384MOL0     H51793  11.697   7.139   6.164  1.1661 -2.7089 -0.7210
  384MOL0     H51794  11.966   7.299   6.178  0.1390  2.3663 -3.0706
  384MOL0     H51795  11.957   7.152   6.080 -0.3535 -1.4439 -0.2632
  384MOL0     H51796  11.785   7.416   6.058 -0.6838  1.0425 -1.9456
  384MOL0     H51797  11.760   7.275   5.962  1.0090  1.7554 -0.4670
  384MOL0     H51798  11.926   7.404   5.840  2.7738 -1.9404 -1.4198
  384MOL0     H51799  12.025   7.296   5.905  1.6160  1.1991  0.3347
  384MOL0     H51800  12.127   7.417   5.758 -0.2703  0.1190 -0.2070
  384MOL0     H51801  12.337   7.472   5.671  1.8437  1.4238 -0.8461
  384MOL0     H51802  12.706   7.385   5.554 -3.0697  2.1147 -1.5810
  384MOL0     H51803  12.939   7.405   5.440  2.2659  0.6873  0.8409
  384MOL0     H51804  13.075   7.461   5.269 -2.7120 -0.6741 -3.0291
  384MOL0     H51805  12.965   7.585   5.189 -1.5099 -0.4440  2.2994
  384MOL0     H51806  13.161   7.580   5.068 -3.1296  1.3414  0.4178
  384MOL0     H51807  13.189   7.724   5.175 -1.4312  0.1902 -0.4031
  384MOL0     H51808  13.343   7.565   5.322  0.0132  1.9986 -0.7789
  384MOL0     H51809  13.323   7.443   5.197  2.5502 -0.4723 -2.0979
  384MOL0     H51810  13.429   7.725   5.127 -1.4868  0.1169 -2.5677
  384MOL0     H51811  13.401   7.592   5.027 -0.6950 -1.3241  0.9224
  384MOL0     H51812  13.575   7.447   5.141  2.9631  0.0646 -0.8605
  384MOL0     H51813  13.579   7.567   5.265 -2.8786  0.4614 -0.0231
  384MOL0     H51814  13.626   7.604   4.950  0.7790 -1.9754  0.8936
  384MOL0     H51815  13.639   7.738   5.061 -0.3905  0.2789 -2.1839
  384MOL0     H51816  13.833   7.495   5.105 -1.1462 -0.4285 -0.3269
  384MOL0     H51817  13.851   7.653   5.160  3.2460  0.0623 -0.9666
  384MOL0     H51818  13.989   7.581   4.954  0.6461  0.3329 -1.3112
  384MOL0     H51819  13.831   7.619   4.872 -0.6854 -1.7894  1.2299
  384MOL0     H51820  12.908   7.829   5.501 -0.8243 -0.2259  0.4244
  384MOL0     H51821  12.699   7.779   5.638 -0.9171 -1.1261  0.9715
  384MOL0     H51822  12.448   7.665   6.039  0.6441 -0.8551  1.1863
  384MOL0     H51823  12.214   7.622   6.122  0.8325  0.1716 -0.1221
  384MOL0     H51824  11.075   7.993   7.199 -0.8010  0.4664  1.0606
  384MOL0     H51825  10.866   8.098   7.205 -0.2353 -1.3400 -3.2843
  384MOL0     H51826  10.420   7.933   7.415 -0.4305 -0.3595  0.3049
  384MOL0     H51827  10.175   7.953   7.454  1.2784 -0.4041 -0.2443
  384MOL0     H51828   9.988   8.070   7.082  0.4990  0.9900  0.4082
  384MOL0     H51829   9.907   8.209   7.164 -1.7938  0.4432  0.2040
  384MOL0     H51830   9.723   8.057   7.090 -0.7038  2.0009  0.0045
  384MOL0     H51831   9.728   8.078   7.260 -0.7297 -0.2695 -1.0271
  384MOL0     H51832   9.896   7.863   7.237  0.7308 -0.6198 -1.3769
  384MOL0     H51833   9.795   7.839   7.100 -0.7767 -0.5345  0.7706
  384MOL0     H51834   9.649   7.906   7.366 -1.6866 -1.3345  0.6216
  384MOL0     H51835   9.595   7.810   7.233 -2.3486  1.9664  3.0665
  384MOL0     H51836   9.739   7.481   7.427 -2.4998  0.4917  2.1273
  384MOL0     H51837  10.153   8.229   7.116 -1.1887  0.0535  2.2367
  384MOL0     H51838  10.482   8.183   6.998 -0.2448  0.2108  1.0471
  384MOL0     H51839  10.318   8.213   6.953 -0.6185 -0.4478  0.7251
  384MOL0     H51840  10.393   8.326   7.067  3.5579  0.9557 -0.0984
  385MOL0     O51841   0.715   2.207   9.551 -0.8096  0.4775  1.0744
  385MOL0     C51842   0.652   2.311   9.573  0.4151  0.7955  0.1911
  385MOL0     O51843   0.702   2.420   9.637  0.6625  0.3304 -0.4995
  385MOL0     C51844   0.838   2.441   9.637  0.1557 -0.2604  0.0235
  385MOL0     C51845   0.936   2.350   9.684 -0.1475  0.0525  0.6465
  385MOL0     C51846   1.069   2.391   9.696 -0.0558  0.1065  0.0459
  385MOL0     C51847   1.116   2.515   9.649  0.4439  0.2257  0.3640
  385MOL0     O51848   1.251   2.538   9.658  0.8099  0.3104  0.6857
  385MOL0     C51849   1.309   2.646   9.576  0.2251 -0.5050 -0.0263
  385MOL0     C51850   1.464   2.610   9.560  0.4445  0.1611 -0.0206
  385MOL0     C51851   1.542   2.627   9.691  0.2874  0.3987  0.1454
  385MOL0     C51852   1.689   2.644   9.665  0.0025 -0.5623 -0.7408
  385MOL0     C51853   1.771   2.653   9.795 -0.3329 -0.8114  0.5517
  385MOL0     C51854   1.912   2.715   9.768  0.7639  0.2035  0.3028
  385MOL0     C51855   1.991   2.620   9.679 -0.4469 -0.0844 -0.1272
  385MOL0     C51856   2.140   2.631   9.721 -0.5393 -0.1256 -0.4388
  385MOL0     N51857   2.232   2.571   9.624  0.6105  0.0569  0.0044
  385MOL0     C51858   2.309   2.459   9.638 -0.0762 -0.1157 -0.6069
  385MOL0     C51859   2.379   2.441   9.523  0.8443 -0.4405 -0.3788
  385MOL0     C51860   2.490   2.351   9.493  0.3556 -0.4462 -0.1017
  385MOL0     C51861   2.613   2.415   9.557 -0.1017 -0.2724 -0.6961
  385MOL0     C51862   2.726   2.318   9.588 -0.2491  0.0792 -0.1213
  385MOL0     C51863   2.834   2.383   9.675  0.4131  0.7465  0.6052
  385MOL0     O51864   2.908   2.452   9.572  0.1647  0.0753 -0.1604
  385MOL0     C51865   3.040   2.411   9.547 -1.1962 -0.1501  0.3873
  385MOL0     C51866   3.065   2.280   9.501  0.2541  0.2734 -0.1984
  385MOL0     C51867   3.189   2.227   9.472  0.1847  0.4266  0.5339
  385MOL0     C51868   3.300   2.305   9.491 -0.1657  0.1405  0.0656
  385MOL0     C51869   3.437   2.251   9.479  0.6850  0.0302  0.3131
  385MOL0     O51870   3.452   2.132   9.410  0.0381 -0.5443 -0.9502
  385MOL0     C51871   3.579   2.080   9.398 -0.3228  0.3477 -0.0676
  385MOL0     C51872   3.630   1.978   9.484  0.4550 -0.4473  0.0873
  385MOL0     C51873   3.750   1.923   9.467 -0.8065 -0.4131 -0.1761
  385MOL0     C51874   3.829   1.964   9.360 -0.7224 -0.5800  0.5433
  385MOL0     O51875   3.956   1.909   9.338  0.2054  0.1051  0.0522
  385MOL0     C51876   4.035   1.875   9.452  0.2676  0.7064 -0.4348
  385MOL0     C51877   4.184   1.861   9.400 -0.1063  0.1306 -0.3781
  385MOL0     C51878   4.202   1.742   9.306  0.1599 -0.3633  0.7954
  385MOL0     C51879   4.217   1.615   9.388  0.0020 -0.1213  0.8783
  385MOL0     C51880   4.233   1.490   9.293 -0.7346  0.4287  0.4711
  385MOL0     C51881   4.251   1.359   9.375 -0.0704 -0.0502 -0.2735
  385MOL0     C51882   4.287   1.234   9.284  0.2397 -0.5005 -0.9671
  385MOL0     C51883   4.437   1.237   9.254  0.4509  0.3531  0.3786
  385MOL0    Cl51884   4.472   1.089   9.155 -0.1286  0.2801 -0.2882
  385MOL0     C51885   3.770   2.050   9.259 -0.8632  0.6190  0.3525
  385MOL0     C51886   3.653   2.117   9.282  0.0082  0.1371 -0.9536
  385MOL0     O51887   3.527   2.316   9.528 -0.4720  0.6243 -0.0698
  385MOL0     C51888   3.277   2.438   9.544 -0.5351 -0.1865 -0.0654
  385MOL0     C51889   3.151   2.490   9.565 -0.7660  0.9668  0.4366
  385MOL0     N51890   2.342   2.542   9.437 -0.5280 -0.3752 -0.1028
  385MOL0     N51891   2.255   2.618   9.491  0.1601  0.4590  0.2118
  385MOL0     C51892   1.028   2.597   9.599  0.5366  0.0686  0.5526
  385MOL0     C51893   0.885   2.564   9.600  0.7859  0.7789 -0.4264
  385MOL0     C51894   0.508   2.312   9.542 -0.3377 -0.0388  0.1857
  385MOL0     C51895   0.430   2.423   9.565 -0.3387 -0.3432  0.4545
  385MOL0     C51896   0.299   2.432   9.517  0.4784 -0.1690 -0.5036
  385MOL0     C51897   0.229   2.327   9.460  1.0354 -0.0507  0.3181
  385MOL0     O51898   0.095   2.331   9.434  0.3693 -0.7378 -0.5036
  385MOL0     C51899   0.006   2.433   9.479  0.1237 -0.0127 -0.1294
  385MOL0     C51900  -0.141   2.425   9.433 -0.2202 -0.6939 -0.5593
  385MOL0     C51901  -0.204   2.323   9.533 -0.6159 -0.4862 -0.1582
  385MOL0     C51902  -0.350   2.302   9.484 -0.6135 -0.5978 -0.3051
  385MOL0     C51903  -0.428   2.425   9.511 -0.1148 -0.3734 -0.3810
  385MOL0     C51904  -0.494   2.519   9.548 -0.3362 -0.7669  0.6347
  385MOL0     C51905   0.305   2.209   9.440  0.2776 -0.1949 -0.1442
  385MOL0     C51906   0.441   2.200   9.479  0.5625  0.0795  0.4339
  385MOL0     C51907   0.506   2.074   9.431  0.7612 -0.5892 -0.2184
  385MOL0     H51908   0.904   2.258   9.733  1.2504  0.6321  2.8066
  385MOL0     H51909   1.132   2.322   9.751 -1.3623  0.0136  1.5011
  385MOL0     H51910   1.261   2.639   9.477  0.0870  1.2691 -0.1091
  385MOL0     H51911   1.302   2.746   9.619  1.7307 -0.6024  0.4755
  385MOL0     H51912   1.497   2.683   9.485  0.5604  2.5114  2.1555
  385MOL0     H51913   1.474   2.507   9.526 -1.0717  0.6490 -2.1913
  385MOL0     H51914   1.518   2.539   9.752 -2.4492  1.7633  1.2107
  385MOL0     H51915   1.505   2.717   9.741 -1.1259  1.3763 -2.4848
  385MOL0     H51916   1.723   2.555   9.611 -0.2518 -1.6357  0.8140
  385MOL0     H51917   1.704   2.734   9.604  0.8850 -0.2989 -0.1587
  385MOL0     H51918   1.716   2.715   9.866 -1.4627  0.4514 -1.3574
  385MOL0     H51919   1.773   2.552   9.839 -0.2324 -0.7646  0.6583
  385MOL0     H51920   1.901   2.812   9.719  0.5139 -0.9596 -2.1607
  385MOL0     H51921   1.943   2.739   9.870  0.0320 -0.4867  0.7054
  385MOL0     H51922   1.973   2.656   9.577 -4.4345  0.6086  0.6597
  385MOL0     H51923   1.969   2.514   9.694  1.9836 -0.2031  4.6742
  385MOL0     H51924   2.168   2.735   9.738 -2.5581  0.6396 -1.5102
  385MOL0     H51925   2.151   2.577   9.816  1.2776  0.3456 -0.3535
  385MOL0     H51926   2.326   2.392   9.721  1.5167  0.9511 -0.0106
  385MOL0     H51927   2.481   2.248   9.529  0.2780  0.0642  1.4172
  385MOL0     H51928   2.515   2.345   9.387  1.2337  1.7304 -0.0592
  385MOL0     H51929   2.649   2.488   9.483  2.2183 -1.5961 -0.9742
  385MOL0     H51930   2.592   2.473   9.647 -0.4453  2.3878 -2.3695
  385MOL0     H51931   2.776   2.275   9.501  0.4282  0.8275 -0.1219
  385MOL0     H51932   2.679   2.238   9.645  0.1566  0.6953  1.1139
  385MOL0     H51933   2.882   2.295   9.719 -0.6869  0.2046  0.7652
  385MOL0     H51934   2.795   2.457   9.745 -3.8769 -0.5484 -0.1611
  385MOL0     H51935   2.974   2.224   9.482 -0.8918  2.5354 -1.7646
  385MOL0     H51936   3.196   2.123   9.442  1.2275  1.9901 -6.3877
  385MOL0     H51937   3.570   1.945   9.568 -1.1279  0.0469 -0.8206
  385MOL0     H51938   3.794   1.860   9.543  2.4777  1.7752 -0.0607
  385MOL0     H51939   4.023   1.954   9.527 -1.2040  1.1626 -1.1248
  385MOL0     H51940   4.002   1.781   9.496 -1.1047  0.9276 -0.9346
  385MOL0     H51941   4.199   1.952   9.342 -0.0688  0.1949 -0.2667
  385MOL0     H51942   4.248   1.849   9.488  0.9141 -1.2463 -1.2672
  385MOL0     H51943   4.120   1.746   9.235 -1.5937 -0.6800  2.7126
  385MOL0     H51944   4.288   1.761   9.241 -0.3851  2.3260  0.7285
  385MOL0     H51945   4.124   1.605   9.444 -0.1526 -0.1009  0.6281
  385MOL0     H51946   4.306   1.627   9.450  1.9191  2.7893 -2.0941
  385MOL0     H51947   4.322   1.508   9.233 -1.3154  0.1396 -0.5005
  385MOL0     H51948   4.151   1.468   9.224  0.0150 -0.1689 -0.2495
  385MOL0     H51949   4.329   1.360   9.452 -0.4497 -2.9205  0.2895
  385MOL0     H51950   4.155   1.339   9.424  0.1267  2.3665  1.2442
  385MOL0     H51951   4.218   1.237   9.199 -0.9122  4.1808 -0.1627
  385MOL0     H51952   4.270   1.149   9.352 -0.3205  2.2140  2.6264
  385MOL0     H51953   4.463   1.326   9.197  1.3486  0.1335  0.4360
  385MOL0     H51954   4.491   1.252   9.347 -0.8769  3.9450  0.6943
  385MOL0     H51955   3.826   2.080   9.171  0.8024 -3.7634 -0.3743
  385MOL0     H51956   3.613   2.201   9.226  0.2390  0.3460 -0.8009
  385MOL0     H51957   3.367   2.496   9.561 -0.0113 -0.9030 -0.3658
  385MOL0     H51958   3.142   2.589   9.608 -0.9003 -0.4071  3.8660
  385MOL0     H51959   1.065   2.692   9.562  1.5046 -0.6238 -0.3046
  385MOL0     H51960   0.809   2.635   9.568  0.0707 -0.4718 -1.6003
  385MOL0     H51961   0.468   2.510   9.618  2.0665 -0.7915 -0.3897
  385MOL0     H51962   0.245   2.526   9.519 -0.5141 -0.7172 -0.8521
  385MOL0     H51963   0.053   2.528   9.455  0.9114 -0.2472  0.4504
  385MOL0     H51964   0.001   2.440   9.588 -2.8364 -0.7939 -0.1389
  385MOL0     H51965  -0.154   2.395   9.328 -1.2516 -1.6825 -0.1563
  385MOL0     H51966  -0.187   2.524   9.440 -1.9083 -1.2498 -2.4918
  385MOL0     H51967  -0.209   2.351   9.638  1.9846 -1.5218  0.3052
  385MOL0     H51968  -0.145   2.231   9.536  1.7454  0.9394 -0.6647
  385MOL0     H51969  -0.353   2.260   9.383  0.9504 -0.0910 -0.5807
  385MOL0     H51970  -0.403   2.226   9.544 -4.7167  1.1824 -1.3162
  385MOL0     H51971  -0.550   2.600   9.591  1.2875  1.0421 -0.5329
  385MOL0     H51972   0.254   2.118   9.410 -0.3344 -1.6502  4.4108
  385MOL0     H51973   0.566   2.099   9.343 -1.1151  3.6742 -0.5287
  385MOL0     H51974   0.574   2.032   9.506  1.1712  0.6818  0.1454
  385MOL0     H51975   0.430   1.996   9.418 -0.6560  0.4295  1.5438
  386MOL0     O51976   3.792   1.471   6.521 -0.2655 -0.0369 -0.4545
  386MOL0     C51977   3.776   1.407   6.420 -0.3837  0.1538 -0.0789
  386MOL0     O51978   3.868   1.375   6.329  0.5643 -0.4172 -0.4622
  386MOL0     C51979   3.998   1.393   6.362  0.2706 -0.1384 -0.4787
  386MOL0     C51980   4.061   1.504   6.316 -1.0517  0.6715 -0.0911
  386MOL0     C51981   4.194   1.525   6.351 -0.0253 -0.1793 -0.6243
  386MOL0     C51982   4.270   1.436   6.419 -0.5613  0.2548 -1.0541
  386MOL0     O51983   4.398   1.449   6.468 -0.5774  0.4082  0.6350
  386MOL0     C51984   4.470   1.569   6.435 -0.9179 -0.4708  0.4989
  386MOL0     C51985   4.598   1.582   6.512  0.1458 -0.0127 -0.2271
  386MOL0     C51986   4.715   1.491   6.478 -0.1353  0.7060  0.4281
  386MOL0     C51987   4.844   1.521   6.554 -0.6765 -0.3758  0.4350
  386MOL0     C51988   4.968   1.443   6.506 -0.0089  0.4186 -0.4798
  386MOL0     C51989   4.968   1.303   6.576 -0.5762 -0.4923 -0.4901
  386MOL0     C51990   5.108   1.255   6.542 -1.1680  0.2514 -0.0151
  386MOL0     C51991   5.130   1.103   6.561 -0.5269 -0.1159 -0.7102
  386MOL0     N51992   5.267   1.083   6.506 -1.0691  0.1192 -0.1218
  386MOL0     C51993   5.391   1.122   6.556 -0.3185  0.2460 -0.4410
  386MOL0     C51994   5.484   1.077   6.476 -0.0692  0.4111 -0.2769
  386MOL0     C51995   5.633   1.093   6.493  0.7358 -0.5188  1.1042
  386MOL0     C51996   5.696   0.946   6.522  0.7992  0.1905 -0.4802
  386MOL0     C51997   5.658   0.892   6.663  0.4924 -0.6623  0.6349
  386MOL0     C51998   5.672   0.743   6.656  0.1489 -0.0142  0.3433
  386MOL0     O51999   5.702   0.697   6.789  0.5531  0.4189  0.1365
  386MOL0     C52000   5.744   0.563   6.817  0.3987  0.0344  0.6876
  386MOL0     C52001   5.747   0.513   6.952 -0.4102 -0.1604  0.0425
  386MOL0     C52002   5.777   0.387   6.981  0.8875  0.1817  1.1109
  386MOL0     C52003   5.830   0.305   6.886  0.0979  0.1809  0.6724
  386MOL0     C52004   5.882   0.170   6.921  0.0548 -0.3199 -0.3329
  386MOL0     O52005   5.932   0.086   6.816 -0.8018 -0.1369  0.1322
  386MOL0     C52006   5.977  -0.045   6.843  0.5593 -0.9168  0.0837
  386MOL0     C52007   6.029  -0.088   6.967 -0.5646 -0.2502  0.4996
  386MOL0     C52008   6.089  -0.214   6.970 -0.5354  0.3223 -0.0882
  386MOL0     C52009   6.084  -0.301   6.870 -0.2216 -0.1869  0.4537
  386MOL0     O52010   6.126  -0.430   6.895 -0.0603 -0.7311  0.2933
  386MOL0     C52011   6.076  -0.529   6.808 -0.3171  0.1075 -0.0397
  386MOL0     C52012   6.104  -0.674   6.845  0.1599  0.1844 -0.0397
  386MOL0     C52013   6.239  -0.699   6.918  0.3570 -0.7049  0.4718
  386MOL0     C52014   6.258  -0.828   6.986  0.2059 -0.1421 -0.1592
  386MOL0     C52015   6.386  -0.841   7.067 -0.2288  0.1339  0.5789
  386MOL0     C52016   6.509  -0.788   6.991 -0.0654  0.5823  0.1776
  386MOL0     C52017   6.636  -0.833   7.054  0.7097  0.0583 -0.2697
  386MOL0     C52018   6.763  -0.789   6.982  0.9109 -0.4307  0.7005
  386MOL0    Cl52019   6.776  -0.867   6.824 -0.2902 -0.8992 -0.1757
  386MOL0     C52020   6.026  -0.259   6.753  0.7407 -0.0395  0.0744
  386MOL0     C52021   5.978  -0.134   6.731  0.4534 -0.2185  0.2779
  386MOL0     O52022   5.878   0.140   7.042  0.1106  0.2648 -0.1587
  386MOL0     C52023   5.825   0.344   6.751 -0.9023 -0.2300  0.0093
  386MOL0     C52024   5.778   0.471   6.716 -0.2681  0.3051  0.6597
  386MOL0     N52025   5.422   0.992   6.389 -0.4599 -0.4032  0.3675
  386MOL0     N52026   5.299   1.006   6.402 -0.3072 -0.4546  0.3871
  386MOL0     C52027   4.203   1.318   6.460 -0.3101  0.7411  0.2182
  386MOL0     C52028   4.066   1.297   6.438  0.0400 -0.5888  0.2180
  386MOL0     C52029   3.641   1.357   6.394  0.8072 -0.5763  0.0576
  386MOL0     C52030   3.575   1.274   6.490  0.3864 -0.3161 -0.1995
  386MOL0     C52031   3.440   1.232   6.472 -0.3177  0.2302 -0.0062
  386MOL0     C52032   3.366   1.288   6.369 -0.0630 -0.7147 -0.6064
  386MOL0     O52033   3.234   1.270   6.354  0.0864  0.6384  0.8659
  386MOL0     C52034   3.174   1.166   6.415  0.7230 -0.0816  0.3340
  386MOL0     C52035   3.031   1.156   6.356 -0.0483 -0.1152  0.5198
  386MOL0     C52036   2.956   1.033   6.410 -0.0309 -0.0346 -0.4946
  386MOL0     C52037   2.814   1.020   6.347 -0.2889  0.0008  0.3133
  386MOL0     C52038   2.754   0.900   6.406  0.0939 -0.1420 -0.1768
  386MOL0     C52039   2.711   0.794   6.439  0.1190 -0.2873 -0.0956
  386MOL0     C52040   3.432   1.369   6.279 -0.0866  0.2348 -0.3966
  386MOL0     C52041   3.571   1.406   6.287 -0.0288 -0.3152 -0.0174
  386MOL0     C52042   3.623   1.514   6.192  0.2368 -0.2988 -0.5520
  386MOL0     H52043   4.018   1.588   6.262  2.2885  2.9383  0.4429
  386MOL0     H52044   4.239   1.621   6.325  0.1407 -0.4219 -1.2701
  386MOL0     H52045   4.489   1.565   6.327 -2.0446 -2.2338  0.3322
  386MOL0     H52046   4.411   1.657   6.461 -0.3712 -0.3497  1.3501
  386MOL0     H52047   4.575   1.555   6.616  3.6526 -2.1762  0.1660
  386MOL0     H52048   4.639   1.682   6.495  1.1042 -0.8863 -3.8310
  386MOL0     H52049   4.731   1.493   6.370  0.4583  0.9616  0.5143
  386MOL0     H52050   4.688   1.389   6.507 -1.6543  1.1133  0.5125
  386MOL0     H52051   4.860   1.627   6.531  0.4469 -1.0058 -1.9867
  386MOL0     H52052   4.823   1.522   6.662 -0.2563 -2.3737  0.5714
  386MOL0     H52053   4.978   1.436   6.398  1.2079 -3.2380 -0.2815
  386MOL0     H52054   5.043   1.507   6.552  0.9552 -0.9755 -0.0332
  386MOL0     H52055   4.959   1.306   6.685  0.1133 -1.9857 -0.3730
  386MOL0     H52056   4.892   1.237   6.533  0.5016 -0.2734 -2.8668
  386MOL0     H52057   5.186   1.312   6.592 -0.0398 -1.1422 -0.1221
  386MOL0     H52058   5.116   1.275   6.434 -0.1162 -0.3807 -0.0653
  386MOL0     H52059   5.128   1.080   6.668  1.2637  0.2873 -0.5546
  386MOL0     H52060   5.061   1.053   6.492  0.5766 -1.5572 -0.8197
  386MOL0     H52061   5.407   1.184   6.643 -1.7278 -0.3043  0.2315
  386MOL0     H52062   5.674   1.137   6.402 -0.5080  5.0788  2.8121
  386MOL0     H52063   5.661   1.164   6.572 -2.2891  2.8370 -0.5994
  386MOL0     H52064   5.670   0.878   6.441  0.5848 -0.1687 -0.1169
  386MOL0     H52065   5.804   0.953   6.510  0.6946 -0.7408 -2.1170
  386MOL0     H52066   5.555   0.919   6.688  0.9529  2.8727 -0.6980
  386MOL0     H52067   5.726   0.927   6.741  2.0377 -0.0362 -0.9263
  386MOL0     H52068   5.752   0.711   6.589 -0.0558 -0.9179  0.5129
  386MOL0     H52069   5.582   0.689   6.625 -0.8344  1.8787 -0.2662
  386MOL0     H52070   5.722   0.581   7.033 -0.1537 -2.5158  2.2546
  386MOL0     H52071   5.783   0.355   7.084 -0.8692  0.0566  1.2084
  386MOL0     H52072   6.043  -0.022   7.052  1.2877  0.9133 -0.6267
  386MOL0     H52073   6.132  -0.251   7.062  0.5079  2.9790  0.5916
  386MOL0     H52074   5.970  -0.512   6.785 -0.1071  0.1089 -1.0802
  386MOL0     H52075   6.129  -0.512   6.714 -0.7329 -0.9606 -0.4775
  386MOL0     H52076   6.018  -0.707   6.903  0.2866  0.0251  0.0585
  386MOL0     H52077   6.113  -0.723   6.747 -1.2422  0.9400 -0.5700
  386MOL0     H52078   6.312  -0.678   6.839 -1.5659 -0.7990 -1.4066
  386MOL0     H52079   6.251  -0.626   6.998  0.6889  0.2519 -0.4196
  386MOL0     H52080   6.251  -0.910   6.913  1.4811  0.0946 -0.5781
  386MOL0     H52081   6.175  -0.844   7.055 -1.1398 -0.3738 -1.7855
  386MOL0     H52082   6.394  -0.945   7.097  1.4839  0.4618  1.4185
  386MOL0     H52083   6.375  -0.778   7.155  0.8417  1.5914 -0.2679
  386MOL0     H52084   6.513  -0.841   6.896  0.6124  1.0205 -0.0508
  386MOL0     H52085   6.511  -0.679   6.981  0.0280  0.4871 -0.9247
  386MOL0     H52086   6.633  -0.943   7.061  0.6953  0.1714  2.5680
  386MOL0     H52087   6.638  -0.789   7.154 -3.1098 -1.6877  0.7846
  386MOL0     H52088   6.760  -0.680   6.966  0.1098 -0.5797 -0.3034
  386MOL0     H52089   6.848  -0.820   7.043  0.5689 -2.7064  0.1180
  386MOL0     H52090   6.008  -0.325   6.668 -4.1625  2.8810 -1.6069
  386MOL0     H52091   5.947  -0.088   6.638 -1.2447  0.9090  1.3444
  386MOL0     H52092   5.864   0.269   6.683  3.3794 -0.1660  2.0535
  386MOL0     H52093   5.776   0.496   6.611 -0.7944 -3.0142 -0.2054
  386MOL0     H52094   4.267   1.249   6.515  1.7795  0.4125 -2.4076
  386MOL0     H52095   4.022   1.213   6.490 -2.0962 -0.8744 -1.8589
  386MOL0     H52096   3.626   1.240   6.580 -2.0281 -2.0342  0.6349
  386MOL0     H52097   3.408   1.152   6.538 -0.4783  0.5652  0.3309
  386MOL0     H52098   3.166   1.190   6.522  4.7824 -1.5591  1.1373
  386MOL0     H52099   3.217   1.065   6.414  0.3190 -0.2539 -0.4069
  386MOL0     H52100   3.061   1.147   6.251 -1.4099  1.0165  0.0066
  386MOL0     H52101   2.969   1.240   6.388 -0.5129 -1.0839  2.3121
  386MOL0     H52102   2.935   1.050   6.516  2.2986  1.7296 -0.2438
  386MOL0     H52103   3.003   0.937   6.387 -2.8571 -1.7612  0.3113
  386MOL0     H52104   2.759   1.114   6.362 -1.4305 -0.3074 -1.5672
  386MOL0     H52105   2.821   1.000   6.240  1.2818  1.5756  0.0616
  386MOL0     H52106   2.679   0.692   6.447 -1.1844 -0.2766 -3.5958
  386MOL0     H52107   3.366   1.418   6.209  0.1367  0.6856 -0.2961
  386MOL0     H52108   3.618   1.613   6.240  0.2543  0.0696 -1.2987
  386MOL0     H52109   3.728   1.499   6.169  1.0616  3.5331 -0.0571
  386MOL0     H52110   3.569   1.522   6.097  0.3850  0.4150 -0.5845
  387MOL0     O52111   0.779   0.816  10.919  0.1527 -0.5236  0.0634
  387MOL0     C52112   0.763   0.883  11.022  0.3639  0.8366  0.2976
  387MOL0     O52113   0.835   0.994  11.053  0.3778 -0.4835 -0.5436
  387MOL0     C52114   0.954   1.020  10.993 -0.1025 -1.2542 -0.0154
  387MOL0     C52115   1.052   0.930  10.991  0.3044  0.3227  0.1360
  387MOL0     C52116   1.169   0.941  10.913  0.0666 -0.0359 -0.1216
  387MOL0     C52117   1.194   1.064  10.853 -0.4214 -0.5991  0.5439
  387MOL0     O52118   1.308   1.100  10.789  0.4810 -0.3657  0.2596
  387MOL0     C52119   1.409   1.006  10.789 -0.2197 -0.5761 -0.6526
  387MOL0     C52120   1.529   1.060  10.718  0.0773 -0.7673  0.1428
  387MOL0     C52121   1.654   0.976  10.755  0.0746 -0.3741 -0.0635
  387MOL0     C52122   1.782   1.026  10.682 -0.0701 -0.3909  0.1716
  387MOL0     C52123   1.910   0.953  10.727 -0.4337  0.0728  0.0269
  387MOL0     C52124   2.014   0.978  10.618  0.3945 -0.1256 -0.0611
  387MOL0     C52125   2.153   0.984  10.689  0.1270  0.6230  0.7461
  387MOL0     C52126   2.274   0.980  10.585 -0.3837 -0.1847 -0.2812
  387MOL0     N52127   2.394   1.000  10.665  0.6060 -0.3873  0.2812
  387MOL0     C52128   2.450   0.914  10.746  0.0073 -1.0446 -0.2230
  387MOL0     C52129   2.568   0.963  10.786  0.1146 -0.5309  0.0405
  387MOL0     C52130   2.668   0.900  10.875  0.1542  0.0205 -0.3313
  387MOL0     C52131   2.722   0.766  10.815  0.7228 -0.5286  0.1777
  387MOL0     C52132   2.763   0.773  10.666 -0.0888 -0.1677  1.1154
  387MOL0     C52133   2.868   0.880  10.638  0.2919  0.1096  0.1538
  387MOL0     O52134   2.912   0.881  10.503 -0.1584 -0.3071  0.2946
  387MOL0     C52135   3.043   0.887  10.476 -0.4931  1.1173 -0.6325
  387MOL0     C52136   3.089   0.802  10.373  0.3073  0.1938  0.6315
  387MOL0     C52137   3.222   0.791  10.327 -0.1248  0.2789  0.0671
  387MOL0     C52138   3.315   0.874  10.394  0.1409  0.6800  0.1864
  387MOL0     C52139   3.468   0.873  10.358  0.7075  0.1875 -0.1325
  387MOL0     O52140   3.512   0.761  10.297  0.3864 -0.2661 -0.6348
  387MOL0     C52141   3.646   0.743  10.266  0.4965  0.5164 -0.8326
  387MOL0     C52142   3.710   0.829  10.183 -0.4662 -0.3257 -0.1441
  387MOL0     C52143   3.841   0.799  10.138  0.1336 -0.1647 -0.5075
  387MOL0     C52144   3.907   0.688  10.179 -0.6997  0.1596 -0.2209
  387MOL0     O52145   4.036   0.661  10.145 -0.2396  0.8251 -0.6039
  387MOL0     C52146   4.069   0.687  10.009 -0.8383 -0.0133 -0.5154
  387MOL0     C52147   4.217   0.644  10.006 -0.1155 -0.2295  0.4751
  387MOL0     C52148   4.276   0.705   9.887 -0.5932 -0.1926 -0.3885
  387MOL0     C52149   4.423   0.666   9.872 -0.6337  0.0260 -0.1677
  387MOL0     C52150   4.497   0.755   9.785 -0.1861 -0.4644  0.2008
  387MOL0     C52151   4.545   0.679   9.657  0.1110  0.2193 -0.0855
  387MOL0     C52152   4.614   0.774   9.573 -0.2326 -0.2666 -0.3156
  387MOL0     C52153   4.624   0.731   9.436 -0.0621  0.1361 -0.0065
  387MOL0    Cl52154   4.472   0.781   9.350  0.4151  0.0699 -0.0706
  387MOL0     C52155   3.837   0.597  10.254  0.0418 -0.8076 -0.3336
  387MOL0     C52156   3.707   0.620  10.302 -0.1348  0.3951 -0.0054
  387MOL0     O52157   3.539   0.963  10.409  0.7071 -0.3296 -0.0560
  387MOL0     C52158   3.269   0.958  10.498  0.1142 -0.1365 -0.4195
  387MOL0     C52159   3.137   0.961  10.535 -0.3287 -0.0079 -0.3234
  387MOL0     N52160   2.574   1.093  10.725 -0.3765 -0.1639  0.1027
  387MOL0     N52161   2.475   1.110  10.646  0.3529 -0.0303 -0.6955
  387MOL0     C52162   1.097   1.164  10.861  0.1515  0.0485 -0.1667
  387MOL0     C52163   0.986   1.144  10.939 -0.1809  0.6423 -0.0897
  387MOL0     C52164   0.657   0.841  11.122 -0.2409 -0.1181  0.5560
  387MOL0     C52165   0.686   0.880  11.253  0.0610  0.6899 -0.0657
  387MOL0     C52166   0.599   0.847  11.353  0.2092  0.3045 -0.2613
  387MOL0     C52167   0.493   0.768  11.337  0.0897  0.6436  0.6306
  387MOL0     O52168   0.402   0.751  11.435  0.0171 -0.0217 -0.1072
  387MOL0     C52169   0.401   0.610  11.481 -0.4239  0.0379  0.0529
  387MOL0     C52170   0.503   0.596  11.595  0.0429  0.1762 -0.8921
  387MOL0     C52171   0.539   0.449  11.625 -0.4581  0.3739  0.0154
  387MOL0     C52172   0.417   0.360  11.673 -0.3998  0.4053  0.6708
  387MOL0     C52173   0.447   0.314  11.812  0.2088 -0.1299  1.0970
  387MOL0     C52174   0.488   0.303  11.924  0.3541  0.2732 -0.3535
  387MOL0     C52175   0.460   0.727  11.204 -0.7287 -0.7954  0.1869
  387MOL0     C52176   0.535   0.769  11.098 -0.3464  0.4887  0.5461
  387MOL0     C52177   0.476   0.726  10.962 -0.4439  0.3797 -0.1435
  387MOL0     H52178   1.020   0.835  11.034 -1.1515  1.2220  1.0963
  387MOL0     H52179   1.247   0.866  10.905  1.1698  1.1621 -0.8525
  387MOL0     H52180   1.436   0.986  10.893  1.1763 -2.0551 -1.2534
  387MOL0     H52181   1.371   0.917  10.738 -1.5534 -0.0889 -0.5440
  387MOL0     H52182   1.536   1.165  10.746 -2.4613 -0.3976 -0.3696
  387MOL0     H52183   1.505   1.064  10.611  1.0298  1.8766 -0.0379
  387MOL0     H52184   1.636   0.871  10.731  0.4997 -0.0145 -2.1797
  387MOL0     H52185   1.668   0.998  10.861  0.3506 -0.4030 -0.0923
  387MOL0     H52186   1.772   1.015  10.574  0.1854 -0.6205  0.1695
  387MOL0     H52187   1.796   1.132  10.702  0.3851 -0.5319  0.6506
  387MOL0     H52188   1.947   0.983  10.825 -0.3366  2.2440 -0.6276
  387MOL0     H52189   1.876   0.850  10.737  0.4557 -0.2013  0.3232
  387MOL0     H52190   1.998   0.898  10.545 -2.5594 -0.6667  1.0361
  387MOL0     H52191   1.996   1.077  10.575 -1.4068 -0.3296  0.1433
  387MOL0     H52192   2.167   0.901  10.759 -2.8461 -1.8885 -1.3494
  387MOL0     H52193   2.172   1.075  10.747  0.8251  1.6983 -1.0624
  387MOL0     H52194   2.286   0.885  10.531  1.0722  0.8918 -1.9473
  387MOL0     H52195   2.269   1.064  10.515 -0.1086 -2.0007 -2.6080
  387MOL0     H52196   2.406   0.822  10.783 -0.8936 -1.1026 -1.3951
  387MOL0     H52197   2.751   0.969  10.890  0.9429 -0.8532 -0.6094
  387MOL0     H52198   2.613   0.882  10.968  0.6790 -1.2058 -0.2385
  387MOL0     H52199   2.790   0.723  10.889 -1.1439 -2.7255  0.7398
  387MOL0     H52200   2.648   0.687  10.832  1.2737 -0.3418  4.3260
  387MOL0     H52201   2.677   0.777  10.599 -0.3771  1.0537  1.5360
  387MOL0     H52202   2.820   0.683  10.641  3.4438  2.6325 -2.3526
  387MOL0     H52203   2.954   0.851  10.700 -0.2466  0.8610  1.2824
  387MOL0     H52204   2.823   0.976  10.666 -3.1343 -0.4957 -2.6052
  387MOL0     H52205   3.011   0.751  10.317 -0.3556  3.1947 -1.4737
  387MOL0     H52206   3.260   0.726  10.248  1.2551  4.4252 -3.0261
  387MOL0     H52207   3.664   0.917  10.140 -0.2936  0.9595  2.1479
  387MOL0     H52208   3.893   0.859  10.064  1.7398 -0.3530  0.4347
  387MOL0     H52209   4.014   0.643   9.926 -3.2719 -0.9915  1.4908
  387MOL0     H52210   4.070   0.796  10.011 -1.3571  0.0031 -0.9893
  387MOL0     H52211   4.264   0.699  10.088  1.8730  2.3110 -2.1630
  387MOL0     H52212   4.233   0.536  10.008 -0.5916 -0.3614 -1.1270
  387MOL0     H52213   4.234   0.664   9.794 -0.1041  0.7173 -1.0227
  387MOL0     H52214   4.258   0.812   9.890 -1.4652 -0.3625  0.6997
  387MOL0     H52215   4.437   0.562   9.844  2.3812  0.8029 -1.9875
  387MOL0     H52216   4.476   0.668   9.968  0.0288  0.0992 -0.5296
  387MOL0     H52217   4.584   0.778   9.847  0.3721  1.0635 -1.0975
  387MOL0     H52218   4.441   0.846   9.764  0.1278 -0.3238 -0.0244
  387MOL0     H52219   4.618   0.605   9.690  0.0827  1.8221  4.1205
  387MOL0     H52220   4.452   0.649   9.608 -0.8830  2.3354  0.4079
  387MOL0     H52221   4.712   0.799   9.613 -1.5464  1.5039  2.1009
  387MOL0     H52222   4.561   0.870   9.567  2.4854  1.2369 -2.1166
  387MOL0     H52223   4.702   0.793   9.394 -0.7977 -0.6146 -2.6725
  387MOL0     H52224   4.655   0.628   9.416 -0.0846  0.2562 -0.6662
  387MOL0     H52225   3.894   0.508  10.276 -1.5228 -1.6689  0.3860
  387MOL0     H52226   3.659   0.548  10.367 -4.2581  0.0540 -3.0738
  387MOL0     H52227   3.332   1.015  10.565 -0.7187 -0.7655  0.9321
  387MOL0     H52228   3.106   1.028  10.615  2.3834 -0.2819  1.0649
  387MOL0     H52229   1.105   1.256  10.804 -0.8564 -0.7286 -1.6260
  387MOL0     H52230   0.918   1.228  10.941 -1.8081 -0.6545  1.4751
  387MOL0     H52231   0.777   0.933  11.278  1.1598 -0.6027 -1.1847
  387MOL0     H52232   0.606   0.898  11.449 -2.0312  1.3563 -0.5878
  387MOL0     H52233   0.425   0.546  11.396  1.0478  2.1940 -1.2232
  387MOL0     H52234   0.301   0.590  11.521  0.5908 -1.2421  2.1728
  387MOL0     H52235   0.462   0.639  11.686  3.0352  1.5267 -0.0331
  387MOL0     H52236   0.595   0.655  11.583  0.2213  0.3059  0.9391
  387MOL0     H52237   0.612   0.456  11.707  0.2707  2.6039 -0.7457
  387MOL0     H52238   0.597   0.395  11.550  1.7041  0.7046  1.3540
  387MOL0     H52239   0.332   0.427  11.688 -0.8059  0.2604 -0.7497
  387MOL0     H52240   0.392   0.282  11.600 -0.3805  0.4673  0.5979
  387MOL0     H52241   0.523   0.310  12.024 -0.6202 -0.1530  0.0319
  387MOL0     H52242   0.371   0.671  11.178  0.0092 -0.4350 -3.7594
  387MOL0     H52243   0.390   0.659  10.963 -0.4655  0.3460 -1.7672
  387MOL0     H52244   0.443   0.818  10.911  1.6993  1.2905 -0.0038
  387MOL0     H52245   0.546   0.679  10.893  0.1341  1.2110 -0.1419
  388MOL0     O52246   7.809   3.666  10.582 -0.0796 -0.0258 -0.0177
  388MOL0     C52247   7.729   3.574  10.606  0.0033 -0.6113  0.5203
  388MOL0     O52248   7.709   3.528  10.732  0.5193 -0.4747 -0.1120
  388MOL0     C52249   7.815   3.523  10.816 -0.5374 -0.4306  0.7799
  388MOL0     C52250   7.949   3.474  10.785 -0.1318 -0.3337 -0.0732
  388MOL0     C52251   8.046   3.459  10.885  0.1249 -0.2751  0.3783
  388MOL0     C52252   8.012   3.484  11.016  0.1400  0.8310  0.3304
  388MOL0     O52253   8.108   3.476  11.115  0.0262 -0.5790 -0.5871
  388MOL0     C52254   8.245   3.496  11.091  0.6048 -0.4105 -0.3567
  388MOL0     C52255   8.282   3.594  11.207  0.1695  0.0975 -0.6682
  388MOL0     C52256   8.432   3.608  11.244  0.2840  0.0417  0.3824
  388MOL0     C52257   8.509   3.486  11.301  0.1244 -0.1324 -0.3996
  388MOL0     C52258   8.654   3.521  11.321  0.0641  0.8123 -0.3255
  388MOL0     C52259   8.691   3.618  11.443  0.3653  0.1729  0.9592
  388MOL0     C52260   8.843   3.619  11.461  0.7884 -0.4653 -0.0625
  388MOL0     C52261   8.876   3.673  11.598 -0.4821  0.8721 -0.0539
  388MOL0     N52262   9.026   3.664  11.623 -0.3383 -0.8448  0.3373
  388MOL0     C52263   9.129   3.733  11.551  0.7252  0.1448 -1.0894
  388MOL0     C52264   9.234   3.657  11.574  0.2763 -0.6807  0.3617
  388MOL0     C52265   9.372   3.684  11.529  0.2544  0.8647  0.7355
  388MOL0     C52266   9.476   3.634  11.626  0.4990  0.6416 -0.0431
  388MOL0     C52267   9.599   3.710  11.603  0.9649  0.1761  0.0274
  388MOL0     C52268   9.718   3.652  11.692 -0.7459  0.3220 -0.7030
  388MOL0     O52269   9.847   3.664  11.618 -0.4440 -0.5507  0.2264
  388MOL0     C52270   9.953   3.584  11.646  0.3725  0.2614 -0.5178
  388MOL0     C52271   9.949   3.475  11.732  0.2602 -0.9439 -0.3153
  388MOL0     C52272  10.069   3.399  11.759  0.3947 -0.3320  0.3576
  388MOL0     C52273  10.191   3.443  11.698  0.3923  0.2293 -0.2120
  388MOL0     C52274  10.317   3.371  11.735 -0.1547  0.4193  0.1827
  388MOL0     O52275  10.418   3.408  11.653  0.2108  0.8958 -0.3994
  388MOL0     C52276  10.536   3.340  11.654  0.5730  0.3202 -0.1746
  388MOL0     C52277  10.567   3.240  11.561 -0.1808  0.0095  0.1582
  388MOL0     C52278  10.692   3.187  11.553  0.1848 -0.5906  0.5015
  388MOL0     C52279  10.798   3.235  11.630  0.5821  0.1612 -0.5709
  388MOL0     O52280  10.926   3.195  11.596  0.2764  0.2108  0.1354
  388MOL0     C52281  11.039   3.229  11.673 -0.0254  0.3029  1.1964
  388MOL0     C52282  11.168   3.158  11.602  0.4175  0.4545 -0.1039
  388MOL0     C52283  11.305   3.191  11.663  0.5032 -0.8040 -0.6274
  388MOL0     C52284  11.301   3.201  11.817  0.0836  0.7316  0.2246
  388MOL0     C52285  11.446   3.223  11.875 -0.5620  0.2465 -0.1660
  388MOL0     C52286  11.457   3.220  12.030 -1.0161  0.8983 -0.3063
  388MOL0     C52287  11.600   3.243  12.069 -0.4415  0.2144 -0.7962
  388MOL0     C52288  11.610   3.239  12.222  0.3910 -0.7367  0.2159
  388MOL0    Cl52289  11.778   3.225  12.281 -0.0229  0.1644 -0.0052
  388MOL0     C52290  10.772   3.336  11.731 -0.2798  0.1974 -0.0906
  388MOL0     C52291  10.634   3.384  11.745 -0.1758  0.2338  0.0965
  388MOL0     O52292  10.329   3.291  11.834 -0.4081 -0.3366  0.3249
  388MOL0     C52293  10.186   3.555  11.608  0.5447 -0.4853 -0.5490
  388MOL0     C52294  10.068   3.624  11.596 -0.2723  1.2577  0.9635
  388MOL0     N52295   9.192   3.550  11.655 -0.2959  0.2933  0.4836
  388MOL0     N52296   9.072   3.566  11.691 -0.1599 -0.2156 -0.7364
  388MOL0     C52297   7.877   3.524  11.048 -0.8794 -0.2187 -0.3355
  388MOL0     C52298   7.785   3.546  10.948  0.2112 -0.4498 -0.3760
  388MOL0     C52299   7.638   3.521  10.502 -0.6375 -0.7542 -0.3327
  388MOL0     C52300   7.551   3.421  10.533  0.4219  0.4523  0.1228
  388MOL0     C52301   7.449   3.374  10.445 -1.2725 -0.9768 -0.7699
  388MOL0     C52302   7.440   3.441  10.319  0.2792  0.8551 -0.3100
  388MOL0     O52303   7.334   3.412  10.241 -0.2362  0.1559 -0.0612
  388MOL0     C52304   7.353   3.449  10.108 -0.6036 -0.0173  0.6031
  388MOL0     C52305   7.235   3.404  10.024 -0.5186  0.4373  0.2433
  388MOL0     C52306   7.246   3.255  10.001 -0.2857 -0.3093 -0.0936
  388MOL0     C52307   7.314   3.228   9.867  0.0169 -0.0993  0.3604
  388MOL0     C52308   7.396   3.114   9.884  0.4690  0.0756 -0.7059
  388MOL0     C52309   7.456   3.011   9.894 -0.5171 -0.2410  0.1478
  388MOL0     C52310   7.527   3.542  10.287  0.4299  0.0984 -0.1920
  388MOL0     C52311   7.624   3.577  10.374 -0.1008 -0.9726 -0.0146
  388MOL0     C52312   7.699   3.701  10.331 -0.1295 -0.1064  0.3499
  388MOL0     H52313   7.969   3.454  10.681  0.5144  0.0880 -0.0327
  388MOL0     H52314   8.147   3.433  10.855  0.2342  0.7112 -0.1164
  388MOL0     H52315   8.305   3.405  11.105 -0.6469 -1.5141 -1.7732
  388MOL0     H52316   8.268   3.543  10.995  0.9159 -3.5622 -1.9489
  388MOL0     H52317   8.217   3.570  11.292  1.2307  0.3217  0.2219
  388MOL0     H52318   8.245   3.691  11.174  0.5408 -0.1827 -1.9412
  388MOL0     H52319   8.443   3.690  11.316 -0.0582 -0.2565  0.7797
  388MOL0     H52320   8.485   3.626  11.150  0.5093 -0.8078  0.3428
  388MOL0     H52321   8.459   3.453  11.393  1.1640 -0.4438  0.0605
  388MOL0     H52322   8.507   3.409  11.223  4.4597 -0.4036 -0.4385
  388MOL0     H52323   8.715   3.436  11.351 -0.1653  1.1302  1.1447
  388MOL0     H52324   8.692   3.562  11.227 -2.5692  0.2788 -1.7302
  388MOL0     H52325   8.668   3.724  11.433  0.7017  0.1516 -0.1070
  388MOL0     H52326   8.635   3.585  11.531  2.3137 -3.1457  1.1308
  388MOL0     H52327   8.901   3.655  11.375  2.9278 -2.2421  0.5370
  388MOL0     H52328   8.878   3.516  11.473  0.3901 -0.5653  0.2395
  388MOL0     H52329   8.833   3.773  11.603 -0.2547  0.9414  0.6308
  388MOL0     H52330   8.826   3.611  11.673  0.0053 -2.3785 -2.2056
  388MOL0     H52331   9.121   3.823  11.491 -1.5975  0.4116 -0.5025
  388MOL0     H52332   9.393   3.636  11.433  0.1886  0.7685  0.7688
  388MOL0     H52333   9.392   3.792  11.535  2.4108  0.4605  1.5641
  388MOL0     H52334   9.452   3.635  11.733 -0.8523 -1.1682 -0.2852
  388MOL0     H52335   9.493   3.527  11.613 -0.6921  0.4351 -0.0433
  388MOL0     H52336   9.592   3.815  11.632  1.7544 -0.0670  1.1921
  388MOL0     H52337   9.621   3.702  11.497 -1.0180  2.8439 -0.6842
  388MOL0     H52338   9.682   3.549  11.700 -1.7915  0.5863 -1.8078
  388MOL0     H52339   9.722   3.680  11.798  1.2843 -1.0219 -0.3613
  388MOL0     H52340   9.871   3.427  11.792  2.5933 -1.1590  2.8153
  388MOL0     H52341  10.068   3.316  11.829 -1.6675 -1.7905 -1.2877
  388MOL0     H52342  10.490   3.197  11.498  1.0563  0.7508 -1.9622
  388MOL0     H52343  10.721   3.118  11.474  2.8291  0.5147  0.3910
  388MOL0     H52344  11.055   3.337  11.684 -1.7435  1.0752 -2.3641
  388MOL0     H52345  11.033   3.198  11.777  0.2259 -1.4903  0.7191
  388MOL0     H52346  11.145   3.052  11.616 -1.2731  0.9107  0.8782
  388MOL0     H52347  11.167   3.168  11.494  0.0578 -1.3193 -0.2924
  388MOL0     H52348  11.386   3.122  11.639  1.4557 -0.4684  1.4483
  388MOL0     H52349  11.329   3.290  11.624 -2.0366 -0.1362 -0.6451
  388MOL0     H52350  11.266   3.105  11.856  0.9523  0.6811  0.8920
  388MOL0     H52351  11.242   3.286  11.854  0.3620  0.7550  0.6163
  388MOL0     H52352  11.476   3.324  11.847  0.1273  0.7241  2.1054
  388MOL0     H52353  11.510   3.142  11.837  0.3995  0.3064  1.2593
  388MOL0     H52354  11.396   3.302  12.070 -0.6652  1.6260 -1.2113
  388MOL0     H52355  11.417   3.127  12.070 -0.7827  0.2555 -1.5224
  388MOL0     H52356  11.631   3.344  12.039 -0.7149 -0.3822 -3.3258
  388MOL0     H52357  11.663   3.164  12.027 -0.2582 -2.0277  3.2050
  388MOL0     H52358  11.564   3.327  12.268 -0.4617  0.1843 -2.2474
  388MOL0     H52359  11.556   3.147  12.247 -0.7293 -0.2420 -0.2889
  388MOL0     H52360  10.852   3.375  11.793 -0.5793 -3.0359  2.5861
  388MOL0     H52361  10.608   3.452  11.825 -1.5208 -0.0452 -0.0763
  388MOL0     H52362  10.279   3.593  11.567  1.6180 -0.2096  1.9787
  388MOL0     H52363  10.074   3.711  11.532  2.8114  0.4362 -0.0591
  388MOL0     H52364   7.853   3.554  11.150 -4.1428 -0.8911 -0.7800
  388MOL0     H52365   7.686   3.583  10.975  0.2297  0.5932 -1.6328
  388MOL0     H52366   7.563   3.371  10.629  3.7676 -0.1273 -0.4855
  388MOL0     H52367   7.374   3.304  10.480 -0.9654 -0.6039  0.7316
  388MOL0     H52368   7.450   3.424  10.065 -2.0395 -1.1920 -2.1550
  388MOL0     H52369   7.355   3.559  10.106 -0.9694  0.0055 -2.0681
  388MOL0     H52370   7.236   3.453   9.926  1.0768 -2.3962 -1.2994
  388MOL0     H52371   7.139   3.420  10.074 -0.5813 -0.5623  0.4552
  388MOL0     H52372   7.143   3.218  10.012 -0.2414 -0.2794  0.4798
  388MOL0     H52373   7.297   3.214  10.089  1.0406  0.1429 -0.6278
  388MOL0     H52374   7.244   3.214   9.784 -1.6779 -1.2773  1.8971
  388MOL0     H52375   7.384   3.308   9.839 -1.4066 -0.1620 -4.1720
  388MOL0     H52376   7.515   2.922   9.897  1.5463  1.0631  0.3594
  388MOL0     H52377   7.526   3.597  10.194  0.0996  0.3356 -0.0484
  388MOL0     H52378   7.669   3.747  10.236  2.9301 -0.4604 -0.9039
  388MOL0     H52379   7.695   3.782  10.404 -0.7716  2.1076 -1.9956
  388MOL0     H52380   7.804   3.671  10.320  1.4126  2.9668  4.1678
  389MOL0     O52381   0.314   1.506   9.606  0.3027 -0.8751 -0.1355
  389MOL0     C52382   0.339   1.454   9.713  0.3081  0.5850 -0.6386
  389MOL0     O52383   0.444   1.373   9.744  0.4575  0.0192  0.2604
  389MOL0     C52384   0.510   1.304   9.645 -0.0258  0.0569  0.1735
  389MOL0     C52385   0.468   1.175   9.616  0.0158  0.4049 -0.0621
  389MOL0     C52386   0.522   1.098   9.514 -0.1717  0.2653 -0.0213
  389MOL0     C52387   0.625   1.155   9.438 -0.3751  0.1843 -0.7215
  389MOL0     O52388   0.684   1.085   9.341  0.0141  0.6096 -0.1248
  389MOL0     C52389   0.634   1.093   9.210  0.4342  0.3595  1.1545
  389MOL0     C52390   0.733   1.026   9.113 -1.3469  0.5138 -0.3572
  389MOL0     C52391   0.844   1.117   9.072 -0.7140  0.1518 -0.5361
  389MOL0     C52392   0.925   1.040   8.973  0.0616  0.2717 -0.4468
  389MOL0     C52393   1.060   1.106   8.940  0.1727 -0.7911 -0.0963
  389MOL0     C52394   1.163   0.993   8.900 -0.4605  0.5747 -0.6140
  389MOL0     C52395   1.305   1.049   8.881 -0.1565  0.5226 -0.3101
  389MOL0     C52396   1.342   1.157   8.973 -0.3023  0.2908 -0.5287
  389MOL0     N52397   1.486   1.210   8.977 -0.4221  0.9030 -0.8181
  389MOL0     C52398   1.595   1.143   9.027  0.1079 -0.7037 -1.3279
  389MOL0     C52399   1.703   1.217   9.003 -1.1462  0.2000 -0.2227
  389MOL0     C52400   1.850   1.190   9.026 -0.2800  0.1794  0.9456
  389MOL0     C52401   1.931   1.121   8.909 -0.3131  0.7479 -1.2498
  389MOL0     C52402   2.075   1.157   8.946  0.1007  0.6649  0.0435
  389MOL0     C52403   2.179   1.084   8.867 -0.1009  0.5573  0.5081
  389MOL0     O52404   2.312   1.121   8.905  0.3488  0.5167  0.2823
  389MOL0     C52405   2.416   1.033   8.903 -0.0921  0.0972 -0.0483
  389MOL0     C52406   2.539   1.083   8.877  0.7667 -0.6644  0.3973
  389MOL0     C52407   2.654   1.019   8.875  0.0233  0.6453 -0.3923
  389MOL0     C52408   2.653   0.881   8.906  0.7347 -0.3069 -0.0226
  389MOL0     C52409   2.781   0.796   8.909  0.6772  0.1994 -0.7582
  389MOL0     O52410   2.765   0.662   8.923 -0.1922 -0.1230 -0.0588
  389MOL0     C52411   2.870   0.578   8.894 -0.2835  0.2722 -1.2047
  389MOL0     C52412   2.883   0.517   8.771  0.5162  0.5064 -0.0637
  389MOL0     C52413   2.993   0.440   8.737  0.5066 -0.1659 -0.3104
  389MOL0     C52414   3.096   0.425   8.830 -0.6721  0.1912 -0.3622
  389MOL0     O52415   3.215   0.355   8.817 -0.0181  0.2127 -0.9196
  389MOL0     C52416   3.279   0.347   8.692 -0.0744  0.4795 -0.4341
  389MOL0     C52417   3.432   0.331   8.716  0.9346 -0.2170  0.7161
  389MOL0     C52418   3.498   0.459   8.761 -0.4897  0.9042  0.4057
  389MOL0     C52419   3.647   0.440   8.794  0.8617  0.5183 -0.1684
  389MOL0     C52420   3.726   0.572   8.810 -0.1399 -0.0432  0.2297
  389MOL0     C52421   3.780   0.614   8.676 -0.8763  0.3959  0.1649
  389MOL0     C52422   3.869   0.733   8.693  0.7182 -0.3581  0.5707
  389MOL0     C52423   3.919   0.779   8.547  0.4116 -0.1149  0.2503
  389MOL0    Cl52424   4.049   0.897   8.570  0.0474 -0.1464 -0.2684
  389MOL0     C52425   3.077   0.476   8.957  0.1325  0.3296  0.5120
  389MOL0     C52426   2.969   0.545   8.997  0.5438  0.2166  0.2314
  389MOL0     O52427   2.888   0.859   8.893  0.4599  0.1933 -0.2033
  389MOL0     C52428   2.525   0.827   8.951  0.6183 -0.6024  0.3179
  389MOL0     C52429   2.411   0.901   8.946 -0.1422 -0.4766  0.1284
  389MOL0     N52430   1.653   1.337   8.942 -0.0763  0.0612 -0.1994
  389MOL0     N52431   1.529   1.327   8.923 -0.1274  0.2123  0.3853
  389MOL0     C52432   0.672   1.281   9.467  0.1978 -0.5097 -0.2568
  389MOL0     C52433   0.617   1.354   9.574  0.7305 -0.1171 -0.3378
  389MOL0     C52434   0.260   1.505   9.831 -0.3212  0.3883 -0.0944
  389MOL0     C52435   0.324   1.485   9.956  0.3557 -0.7522 -0.0308
  389MOL0     C52436   0.260   1.527  10.073 -0.2444  0.4355 -0.1053
  389MOL0     C52437   0.124   1.575  10.078 -0.7506  0.8115 -0.0446
  389MOL0     O52438   0.076   1.604  10.204 -0.4762  0.0241 -0.2927
  389MOL0     C52439  -0.069   1.631  10.213 -1.4696  0.4852  0.4073
  389MOL0     C52440  -0.157   1.514  10.181 -0.1038 -0.8659 -0.1034
  389MOL0     C52441  -0.303   1.533  10.228  0.7388 -0.8536  0.4483
  389MOL0     C52442  -0.389   1.641  10.146 -0.2099  0.6042 -0.3218
  389MOL0     C52443  -0.449   1.579  10.028  0.5299 -0.5936  0.4424
  389MOL0     C52444  -0.492   1.527   9.926  0.3055  0.3384 -0.6263
  389MOL0     C52445   0.062   1.588   9.955 -0.1582 -0.0756  0.2364
  389MOL0     C52446   0.126   1.552   9.834  0.3500  0.3377  0.7642
  389MOL0     C52447   0.047   1.570   9.703 -0.8614 -0.1025  0.4414
  389MOL0     H52448   0.389   1.123   9.670  2.6380 -0.4378  3.2970
  389MOL0     H52449   0.498   0.996   9.486  3.4238  0.0646 -3.2240
  389MOL0     H52450   0.542   1.034   9.214  1.1580 -1.1237 -1.4656
  389MOL0     H52451   0.615   1.195   9.174  2.4297 -0.0397 -1.3183
  389MOL0     H52452   0.666   1.004   9.029 -1.4550 -1.5340  0.1930
  389MOL0     H52453   0.780   0.934   9.150 -0.6575  1.4386  1.1569
  389MOL0     H52454   0.908   1.130   9.160 -2.0553 -4.1014  1.3372
  389MOL0     H52455   0.813   1.215   9.034 -0.6704  0.3850  0.0264
  389MOL0     H52456   0.955   0.943   9.014  2.9203  1.4533  0.5298
  389MOL0     H52457   0.873   1.026   8.878 -0.4740 -4.0058  0.2751
  389MOL0     H52458   1.053   1.176   8.856  0.2007  0.8562  1.2333
  389MOL0     H52459   1.088   1.170   9.024 -2.5314 -0.5906  0.7617
  389MOL0     H52460   1.172   0.925   8.985  0.8451  3.3278  1.6583
  389MOL0     H52461   1.131   0.937   8.812  2.7541  1.1844 -2.3152
  389MOL0     H52462   1.322   1.086   8.779  0.9165  1.2960  0.1331
  389MOL0     H52463   1.371   0.962   8.887 -1.4296 -0.6398 -1.9864
  389MOL0     H52464   1.294   1.251   8.948  1.6099  1.1870 -1.0092
  389MOL0     H52465   1.316   1.125   9.075  3.3933 -3.4345 -0.4407
  389MOL0     H52466   1.600   1.043   9.069 -0.6709 -1.0210 -1.9572
  389MOL0     H52467   1.898   1.286   9.044  2.1981 -0.9889  1.0646
  389MOL0     H52468   1.869   1.143   9.123  1.5756 -2.5026 -0.5681
  389MOL0     H52469   1.900   1.016   8.904 -1.5366  1.1468 -2.9672
  389MOL0     H52470   1.912   1.169   8.813 -0.6616  0.3664 -1.3770
  389MOL0     H52471   2.104   1.130   9.048  0.9154  4.9978  1.1540
  389MOL0     H52472   2.089   1.265   8.937 -0.1958  0.7981  1.0942
  389MOL0     H52473   2.179   1.110   8.761 -1.4594 -3.5788 -0.6564
  389MOL0     H52474   2.161   0.977   8.861 -1.5395  0.7886  0.3461
  389MOL0     H52475   2.543   1.190   8.855 -0.7974 -0.5847  0.3887
  389MOL0     H52476   2.751   1.051   8.840  0.3711  0.3477  0.2887
  389MOL0     H52477   2.797   0.528   8.706 -0.3822 -0.1355  0.9767
  389MOL0     H52478   2.995   0.391   8.640  0.8503 -2.4955  0.7884
  389MOL0     H52479   3.245   0.261   8.634 -0.0166  0.3716 -0.3085
  389MOL0     H52480   3.251   0.432   8.628 -3.2310 -0.6846 -0.7820
  389MOL0     H52481   3.447   0.251   8.789  0.5693  0.6832  1.7864
  389MOL0     H52482   3.471   0.297   8.619 -0.3814  0.3630 -0.0521
  389MOL0     H52483   3.493   0.538   8.686 -0.4649  0.7680  0.2623
  389MOL0     H52484   3.448   0.504   8.848  0.6698 -2.5546  3.0932
  389MOL0     H52485   3.687   0.366   8.723  1.0994 -0.0609  0.5519
  389MOL0     H52486   3.657   0.391   8.892 -1.4615  0.4325  0.0819
  389MOL0     H52487   3.806   0.549   8.881  0.9268 -0.4434 -1.0570
  389MOL0     H52488   3.660   0.642   8.861  1.7384  0.7799  1.6290
  389MOL0     H52489   3.843   0.535   8.637  1.8156  2.0631  0.8572
  389MOL0     H52490   3.699   0.634   8.604  0.1088 -1.1760 -1.4408
  389MOL0     H52491   3.951   0.706   8.760  1.9229  2.5426  0.3924
  389MOL0     H52492   3.821   0.818   8.742  3.4404  1.2307  0.7228
  389MOL0     H52493   3.956   0.684   8.509 -1.0102 -1.5289  2.1689
  389MOL0     H52494   3.846   0.820   8.476 -0.1179 -0.5096  0.5602
  389MOL0     H52495   3.146   0.448   9.036  0.4698 -0.8066 -0.1493
  389MOL0     H52496   2.966   0.592   9.095 -0.4997  2.1726 -0.6942
  389MOL0     H52497   2.517   0.723   8.982 -0.2185 -0.7355 -0.3257
  389MOL0     H52498   2.318   0.853   8.975 -0.6260  0.3536 -0.0253
  389MOL0     H52499   0.758   1.324   9.418  1.2312  0.5221  2.2822
  389MOL0     H52500   0.655   1.450   9.609  1.7443 -1.0452  1.2485
  389MOL0     H52501   0.423   1.444   9.972  0.3573 -0.5955  0.3732
  389MOL0     H52502   0.323   1.525  10.162  1.7564 -1.3822 -1.4408
  389MOL0     H52503  -0.105   1.716  10.154 -4.5776  1.1883  3.0650
  389MOL0     H52504  -0.091   1.649  10.319 -2.3905  0.4246  0.2309
  389MOL0     H52505  -0.114   1.431  10.238 -0.3140  0.0172  1.3751
  389MOL0     H52506  -0.165   1.490  10.074  0.8880 -0.7128 -0.2172
  389MOL0     H52507  -0.302   1.583  10.326 -2.0796  3.2906 -1.3468
  389MOL0     H52508  -0.354   1.437  10.233  0.6849 -0.7679  3.5513
  389MOL0     H52509  -0.469   1.684  10.206 -0.7126  2.5101 -2.2334
  389MOL0     H52510  -0.328   1.727  10.116  3.3374 -1.8109 -0.6745
  389MOL0     H52511  -0.523   1.490   9.831  2.3107  2.4891 -2.2285
  389MOL0     H52512  -0.035   1.636   9.969  0.5510  1.1720  1.0929
  389MOL0     H52513   0.063   1.478   9.647 -2.9574  0.4989 -1.2755
  389MOL0     H52514  -0.060   1.577   9.722 -0.8630  3.0599 -0.1031
  389MOL0     H52515   0.073   1.657   9.642  3.4200 -1.0386  0.5908
  390MOL0     O52516   3.620   3.526   3.070  0.1302 -1.1951  0.0335
  390MOL0     C52517   3.595   3.640   3.040 -0.0405  0.4033  0.0171
  390MOL0     O52518   3.688   3.739   3.025 -0.3452  0.3805 -0.7028
  390MOL0     C52519   3.817   3.705   3.027 -0.1630 -0.4056  0.0098
  390MOL0     C52520   3.892   3.741   2.912  0.3857 -0.4703 -0.2571
  390MOL0     C52521   4.030   3.725   2.909  0.0974  0.2004  1.3346
  390MOL0     C52522   4.099   3.663   3.011  0.1588 -0.3401 -1.2327
  390MOL0     O52523   4.238   3.645   3.015  0.8961  0.0518 -0.0380
  390MOL0     C52524   4.311   3.732   2.930  0.0772 -0.5320  1.0865
  390MOL0     C52525   4.453   3.741   2.976 -0.1790  0.0988 -1.1364
  390MOL0     C52526   4.542   3.632   2.928 -0.8562 -0.7533  0.0507
  390MOL0     C52527   4.691   3.639   2.977  0.2751 -0.1809  0.0382
  390MOL0     C52528   4.780   3.531   2.934  0.5872  0.2129 -0.7807
  390MOL0     C52529   4.929   3.567   2.971  0.7702  0.5148  0.7318
  390MOL0     C52530   5.027   3.450   2.946  0.3591 -0.3060  0.6891
  390MOL0     C52531   5.168   3.498   2.942 -0.3210  0.2653  0.2559
  390MOL0     N52532   5.224   3.529   3.073  0.4640 -0.0317 -0.3240
  390MOL0     C52533   5.295   3.441   3.147 -0.7780 -0.4638  0.4683
  390MOL0     C52534   5.309   3.496   3.269 -0.5270 -0.9138 -0.5934
  390MOL0     C52535   5.364   3.455   3.407 -0.2407  0.4713 -0.1664
  390MOL0     C52536   5.345   3.298   3.417 -0.4910 -0.2706  0.2802
  390MOL0     C52537   5.368   3.244   3.554  0.5813  0.3140  0.3676
  390MOL0     C52538   5.519   3.237   3.580 -0.3619 -0.7900 -0.2585
  390MOL0     O52539   5.548   3.311   3.698  0.0922 -0.0954 -0.7663
  390MOL0     C52540   5.684   3.338   3.720 -0.5906  1.0296 -0.4994
  390MOL0     C52541   5.801   3.303   3.641  0.2852  0.1887 -0.6709
  390MOL0     C52542   5.927   3.351   3.674 -0.1555 -0.2643 -0.7562
  390MOL0     C52543   5.946   3.443   3.776 -0.2249  0.4303  0.7448
  390MOL0     C52544   6.080   3.490   3.826 -0.5928  0.0842 -0.1748
  390MOL0     O52545   6.181   3.395   3.815  0.2765 -0.1867  0.5342
  390MOL0     C52546   6.312   3.416   3.833 -0.4708 -0.9439  0.3219
  390MOL0     C52547   6.369   3.542   3.854 -0.6221  0.5666 -0.0647
  390MOL0     C52548   6.509   3.557   3.869  0.2609 -0.0715 -0.1235
  390MOL0     C52549   6.599   3.451   3.864  0.4974 -0.5552 -0.5536
  390MOL0     O52550   6.737   3.466   3.878  0.3458  0.2110  0.0463
  390MOL0     C52551   6.783   3.582   3.823 -0.1057  0.2741  0.5557
  390MOL0     C52552   6.926   3.557   3.772  0.8230  0.7047  0.1972
  390MOL0     C52553   7.028   3.522   3.888 -0.4662  0.1429  0.3849
  390MOL0     C52554   7.168   3.509   3.822 -0.1935 -0.5584  0.4603
  390MOL0     C52555   7.264   3.446   3.918 -0.0440  0.1811 -0.6116
  390MOL0     C52556   7.397   3.423   3.852 -0.4920 -0.9336  0.2689
  390MOL0     C52557   7.489   3.339   3.933  0.9703  0.2513 -0.5993
  390MOL0     C52558   7.540   3.397   4.062 -0.8895 -0.2572  0.1888
  390MOL0    Cl52559   7.635   3.277   4.148 -0.0033 -0.3376 -0.2655
  390MOL0     C52560   6.541   3.322   3.860 -0.3577 -0.0700  0.3749
  390MOL0     C52561   6.404   3.310   3.834  0.2609  0.1450  0.1297
  390MOL0     O52562   6.086   3.595   3.892  0.4259 -0.2333 -0.2713
  390MOL0     C52563   5.836   3.468   3.860 -0.2016  1.1718 -0.1662
  390MOL0     C52564   5.708   3.418   3.829 -0.4578 -0.5069  0.2324
  390MOL0     N52565   5.243   3.625   3.263 -0.0562  0.1537 -0.0397
  390MOL0     N52566   5.200   3.635   3.145  0.6617 -0.6826  0.0984
  390MOL0     C52567   4.026   3.623   3.122 -0.2941 -0.3741  0.4148
  390MOL0     C52568   3.886   3.638   3.133 -0.4975 -0.4561 -1.0530
  390MOL0     C52569   3.454   3.674   3.004  0.0704  0.3703  0.1920
  390MOL0     C52570   3.428   3.810   2.961  0.4777  0.0762  0.5936
  390MOL0     C52571   3.290   3.850   2.939  0.0240  0.3301  0.6741
  390MOL0     C52572   3.187   3.754   2.944 -0.5970 -0.2091  0.7965
  390MOL0     O52573   3.055   3.772   2.910 -0.4367 -0.8948 -0.1181
  390MOL0     C52574   3.022   3.900   2.856  0.1328 -0.2669 -0.7100
  390MOL0     C52575   2.867   3.909   2.834 -0.1537  0.1080 -0.8171
  390MOL0     C52576   2.826   4.016   2.736  0.6100  0.2615 -0.0737
  390MOL0     C52577   2.678   4.011   2.696  0.0119  0.4335  0.0948
  390MOL0     C52578   2.633   3.891   2.618 -0.2220  0.6840 -0.4635
  390MOL0     C52579   2.599   3.788   2.558  0.4500 -0.9071 -0.3027
  390MOL0     C52580   3.215   3.621   2.979  0.1565  0.8481 -0.6157
  390MOL0     C52581   3.343   3.579   3.014 -0.1231 -0.8696  0.7405
  390MOL0     C52582   3.359   3.440   3.066 -0.2488 -0.5137 -0.3677
  390MOL0     H52583   3.850   3.794   2.827  0.3323  0.9130  0.5986
  390MOL0     H52584   4.077   3.766   2.821 -0.0630 -0.6627  0.8336
  390MOL0     H52585   4.304   3.702   2.825 -1.2704  0.2424  0.9297
  390MOL0     H52586   4.263   3.830   2.937 -0.3422 -0.5750 -0.6603
  390MOL0     H52587   4.453   3.731   3.084 -0.5250  0.8816 -1.0574
  390MOL0     H52588   4.504   3.836   2.959  0.8350 -0.0343  0.9314
  390MOL0     H52589   4.546   3.633   2.818 -0.7491 -0.4711  0.0570
  390MOL0     H52590   4.509   3.528   2.937  0.3979 -1.0883  1.1159
  390MOL0     H52591   4.739   3.731   2.943 -2.0385  1.1667  0.1744
  390MOL0     H52592   4.701   3.643   3.086  3.6045  1.6037 -0.2064
  390MOL0     H52593   4.762   3.439   2.990  0.2600  1.9050  2.0574
  390MOL0     H52594   4.785   3.523   2.825  2.1784 -0.7445 -0.6695
  390MOL0     H52595   4.965   3.645   2.905  3.8043 -2.1430 -1.0324
  390MOL0     H52596   4.931   3.594   3.077  0.5481 -1.5581  1.3182
  390MOL0     H52597   5.010   3.411   2.845  0.6577  2.3546 -0.4749
  390MOL0     H52598   5.007   3.369   3.016 -0.5520 -1.7014 -1.0929
  390MOL0     H52599   5.227   3.417   2.899 -1.2323 -1.6105  2.3381
  390MOL0     H52600   5.182   3.578   2.869  1.3141 -1.1087 -1.0219
  390MOL0     H52601   5.347   3.353   3.109 -0.0779  0.2365 -0.2361
  390MOL0     H52602   5.469   3.480   3.421 -0.6816  0.7358  3.7599
  390MOL0     H52603   5.303   3.500   3.486  0.2481 -0.9896  1.0629
  390MOL0     H52604   5.243   3.272   3.388 -0.7225  1.4576 -0.6183
  390MOL0     H52605   5.399   3.239   3.342 -3.0011  1.3362 -3.0851
  390MOL0     H52606   5.328   3.142   3.560 -0.3983  0.7437  1.4572
  390MOL0     H52607   5.308   3.287   3.634  1.2297 -1.0135  1.6142
  390MOL0     H52608   5.567   3.291   3.498 -0.8219 -1.1597 -0.7706
  390MOL0     H52609   5.566   3.139   3.571  1.7578  0.2005 -0.7071
  390MOL0     H52610   5.789   3.240   3.553 -0.2391 -0.5024 -0.1165
  390MOL0     H52611   6.012   3.319   3.614  0.0753 -4.7423  1.5224
  390MOL0     H52612   6.319   3.637   3.864  0.1682  0.9671  0.1947
  390MOL0     H52613   6.539   3.661   3.879  0.5591 -0.3511  2.5363
  390MOL0     H52614   6.724   3.628   3.743  1.9265 -0.3366 -1.3985
  390MOL0     H52615   6.787   3.649   3.909 -1.2720 -0.3447  1.1148
  390MOL0     H52616   6.927   3.476   3.698  1.1800  1.1085 -0.2375
  390MOL0     H52617   6.959   3.651   3.728  0.6696  1.0774  0.8562
  390MOL0     H52618   7.029   3.597   3.967  1.3846 -1.3602  1.8687
  390MOL0     H52619   7.014   3.429   3.942 -0.3111 -0.2231 -0.1979
  390MOL0     H52620   7.198   3.610   3.789 -0.1236  0.2524  2.8326
  390MOL0     H52621   7.153   3.438   3.740  0.7991 -0.0331 -0.2040
  390MOL0     H52622   7.236   3.346   3.950  2.3720 -0.3073  0.1827
  390MOL0     H52623   7.270   3.513   4.005 -1.8135 -1.1294  0.5792
  390MOL0     H52624   7.381   3.370   3.758  0.7822 -1.0477  0.0881
  390MOL0     H52625   7.433   3.525   3.832  3.5775 -2.3230 -0.3675
  390MOL0     H52626   7.576   3.315   3.871  1.2237  1.8621 -0.8917
  390MOL0     H52627   7.437   3.245   3.955  0.6509 -0.0213 -2.3437
  390MOL0     H52628   7.605   3.483   4.047 -0.1768 -1.1715 -2.5804
  390MOL0     H52629   7.454   3.421   4.126 -1.2562  1.1230 -0.7774
  390MOL0     H52630   6.602   3.233   3.871 -2.5634 -1.6857  0.2936
  390MOL0     H52631   6.363   3.210   3.843  0.0128  0.1590 -0.7474
  390MOL0     H52632   5.851   3.536   3.943 -0.1908  2.5963 -1.2967
  390MOL0     H52633   5.624   3.446   3.892 -0.9079 -3.6030  1.1575
  390MOL0     H52634   4.073   3.569   3.203  1.1653  1.8205  1.1165
  390MOL0     H52635   3.830   3.612   3.223 -1.1633 -1.2090 -1.6663
  390MOL0     H52636   3.507   3.884   2.947 -0.1947  0.2749 -3.1371
  390MOL0     H52637   3.270   3.948   2.895  2.1830  0.7762  0.5888
  390MOL0     H52638   3.075   3.922   2.763  1.6864 -0.0189  0.2088
  390MOL0     H52639   3.047   3.983   2.922 -4.4803 -0.0127  1.1139
  390MOL0     H52640   2.823   3.937   2.930 -0.9088 -0.4341 -0.9986
  390MOL0     H52641   2.824   3.810   2.820 -2.0832  0.5882  1.2958
  390MOL0     H52642   2.887   3.999   2.647 -0.6095 -2.0940 -0.5279
  390MOL0     H52643   2.849   4.107   2.794  2.2918  0.2417 -0.6637
  390MOL0     H52644   2.606   4.027   2.776 -2.0117  2.2082 -1.9436
  390MOL0     H52645   2.670   4.098   2.630  1.2436  1.6344  1.4771
  390MOL0     H52646   2.573   3.698   2.507  1.1112 -0.7911 -0.8505
  390MOL0     H52647   3.136   3.548   2.981  0.6374  0.2665 -1.9886
  390MOL0     H52648   3.428   3.388   2.999  1.7434  0.8159  0.5689
  390MOL0     H52649   3.400   3.440   3.167 -2.8584  0.5873  0.7939
  390MOL0     H52650   3.267   3.381   3.062 -0.8548  0.4250 -0.5558
  391MOL0     O52651   5.732   8.037   4.198 -0.1303 -0.5108  0.0921
  391MOL0     C52652   5.708   8.022   4.081  0.2024 -0.5412  0.5691
  391MOL0     O52653   5.798   7.980   3.988  0.2710 -0.4227 -0.3283
  391MOL0     C52654   5.912   7.922   4.031 -1.0149  0.0478 -0.6841
  391MOL0     C52655   5.923   7.830   4.140  0.3611  0.9070  1.0266
  391MOL0     C52656   6.048   7.786   4.182 -0.3970 -0.2621 -0.6363
  391MOL0     C52657   6.173   7.829   4.113  0.0908 -0.8065  0.0248
  391MOL0     O52658   6.300   7.800   4.164  0.7490  0.3441  0.6993
  391MOL0     C52659   6.361   7.681   4.123 -0.7184 -0.1535  0.1999
  391MOL0     C52660   6.489   7.662   4.195 -0.0743  0.0537  1.1168
  391MOL0     C52661   6.553   7.531   4.144 -0.0093  1.2783 -0.6337
  391MOL0     C52662   6.701   7.521   4.186  0.2165  0.3954 -0.0771
  391MOL0     C52663   6.767   7.390   4.173 -0.0495  0.4119 -0.4711
  391MOL0     C52664   6.737   7.277   4.275 -0.3849 -0.2587 -1.4024
  391MOL0     C52665   6.765   7.311   4.420  0.8491 -0.2515 -0.4460
  391MOL0     C52666   6.789   7.188   4.500 -0.3583 -0.3778 -0.2414
  391MOL0     N52667   6.672   7.095   4.520  0.2119 -0.6523 -0.1230
  391MOL0     C52668   6.549   7.116   4.585  0.2320  0.2803  0.3779
  391MOL0     C52669   6.480   7.008   4.548 -0.7675  0.0582 -0.0836
  391MOL0     C52670   6.347   6.981   4.619  0.2358 -0.0238  0.9553
  391MOL0     C52671   6.234   7.092   4.625 -0.7403  0.0300 -0.3047
  391MOL0     C52672   6.233   7.176   4.491 -0.0303  0.1486  0.3048
  391MOL0     C52673   6.168   7.114   4.362 -0.8184 -0.1801  0.2514
  391MOL0     O52674   6.151   7.220   4.269 -0.2342  0.0506 -0.4802
  391MOL0     C52675   6.253   7.245   4.181 -0.8307  0.1939 -0.5690
  391MOL0     C52676   6.235   7.348   4.089 -0.5690  0.7070  0.3751
  391MOL0     C52677   6.327   7.365   3.980 -1.0122 -0.3710  0.1721
  391MOL0     C52678   6.440   7.282   3.963  0.4146  0.4143  0.3438
  391MOL0     C52679   6.517   7.286   3.839 -0.3156  0.0829 -0.0245
  391MOL0     O52680   6.573   7.173   3.795  0.2931  0.1040  0.0986
  391MOL0     C52681   6.661   7.178   3.684  0.2178  0.0166 -0.7411
  391MOL0     C52682   6.626   7.100   3.574  0.1353 -0.4446  0.1278
  391MOL0     C52683   6.701   7.093   3.453  0.0071 -0.1395 -0.0311
  391MOL0     C52684   6.831   7.149   3.453 -0.2410 -0.0273  0.1645
  391MOL0     O52685   6.934   7.141   3.362 -0.1023  0.0426  0.3386
  391MOL0     C52686   6.928   7.087   3.219  0.1000  0.0219  0.1580
  391MOL0     C52687   7.066   7.107   3.147  0.6425  0.3235  0.5641
  391MOL0     C52688   7.182   7.029   3.193  0.6481  0.0214  0.1983
  391MOL0     C52689   7.255   6.957   3.078 -0.5988 -0.2621  0.0285
  391MOL0     C52690   7.380   6.876   3.131  1.3600  0.1099  0.2107
  391MOL0     C52691   7.510   6.963   3.153  0.1366 -0.0473 -0.7352
  391MOL0     C52692   7.634   6.871   3.180 -0.2970 -0.3122  0.0963
  391MOL0     C52693   7.766   6.939   3.144 -0.4128  0.8216  0.0665
  391MOL0    Cl52694   7.771   6.994   2.979 -0.1166 -0.1826  0.2005
  391MOL0     C52695   6.862   7.221   3.567 -0.6927 -0.2035 -0.1139
  391MOL0     C52696   6.782   7.243   3.675 -0.2575  0.0846  0.6533
  391MOL0     O52697   6.513   7.393   3.775  0.2879  0.2334  0.0288
  391MOL0     C52698   6.460   7.182   4.060  0.8275 -0.4140  0.0159
  391MOL0     C52699   6.374   7.175   4.172 -1.0422  0.3817  0.5601
  391MOL0     N52700   6.545   6.930   4.463  0.0922  0.4988  0.1837
  391MOL0     N52701   6.664   6.977   4.451  0.2436  0.2875  0.1803
  391MOL0     C52702   6.155   7.922   4.007  0.2514  0.9889 -0.7166
  391MOL0     C52703   6.031   7.964   3.960  0.0634  0.4209 -0.7589
  391MOL0     C52704   5.572   8.064   4.041  0.0794  0.4614 -0.2389
  391MOL0     C52705   5.560   8.145   3.923 -0.9516  0.6032 -0.2780
  391MOL0     C52706   5.435   8.193   3.874 -0.3104 -0.4198 -0.0104
  391MOL0     C52707   5.317   8.148   3.942  0.7066 -0.2136 -0.3468
  391MOL0     O52708   5.188   8.179   3.900 -0.1837 -0.0117  0.7393
  391MOL0     C52709   5.131   8.296   3.943 -0.5348  0.0104 -0.8851
  391MOL0     C52710   4.986   8.297   3.889  0.1746 -0.2151 -0.0709
  391MOL0     C52711   4.893   8.188   3.943 -0.0053  0.4488 -0.1092
  391MOL0     C52712   4.772   8.176   3.852 -0.5357 -0.0929 -0.0880
  391MOL0     C52713   4.658   8.258   3.897 -0.6406 -0.3413 -0.5665
  391MOL0     C52714   4.561   8.326   3.935  0.0596 -0.5545  0.4732
  391MOL0     C52715   5.332   8.062   4.053  0.4288  0.9751 -0.2047
  391MOL0     C52716   5.454   8.019   4.104  0.0272  0.2571 -0.3653
  391MOL0     C52717   5.452   7.943   4.235  0.2240  0.5686 -0.8367
  391MOL0     H52718   5.832   7.797   4.188  1.0322 -1.0544  1.0644
  391MOL0     H52719   6.059   7.719   4.267 -0.5095 -2.0084 -1.9199
  391MOL0     H52720   6.288   7.601   4.139  2.5598 -2.9693  2.4055
  391MOL0     H52721   6.387   7.694   4.018  3.1775 -0.4657  0.9710
  391MOL0     H52722   6.484   7.662   4.304 -4.0340 -0.1738  1.0712
  391MOL0     H52723   6.556   7.744   4.165 -1.0996  1.4003  2.3416
  391MOL0     H52724   6.552   7.529   4.034  3.4607 -1.6021 -0.8098
  391MOL0     H52725   6.507   7.440   4.183  2.0026  2.0562  4.3139
  391MOL0     H52726   6.762   7.590   4.127 -2.5083  1.7402 -1.5380
  391MOL0     H52727   6.707   7.571   4.283 -1.1828  3.6438 -1.5345
  391MOL0     H52728   6.750   7.348   4.074  4.3099  1.1404 -1.7539
  391MOL0     H52729   6.875   7.408   4.179 -0.0592  2.4558 -3.8754
  391MOL0     H52730   6.633   7.242   4.276 -0.4958 -0.2231  2.2724
  391MOL0     H52731   6.810   7.200   4.249  2.9130  2.5076 -0.9855
  391MOL0     H52732   6.680   7.367   4.461  0.9260 -0.3900 -0.0947
  391MOL0     H52733   6.858   7.366   4.431 -0.6528  1.8491  3.8081
  391MOL0     H52734   6.867   7.128   4.451  0.5822  1.6701 -1.3831
  391MOL0     H52735   6.821   7.224   4.598  0.2593 -0.9043 -0.2428
  391MOL0     H52736   6.519   7.194   4.654 -2.1384 -1.7494  1.8254
  391MOL0     H52737   6.311   6.891   4.567  3.5448 -0.9568 -0.0205
  391MOL0     H52738   6.352   6.956   4.725 -1.0398 -3.4912  0.3308
  391MOL0     H52739   6.142   7.042   4.657 -1.5037  0.7931 -1.2452
  391MOL0     H52740   6.272   7.156   4.705 -1.8566  1.0132 -0.5351
  391MOL0     H52741   6.332   7.215   4.469  0.1661 -1.2047 -1.4295
  391MOL0     H52742   6.180   7.266   4.523  1.2401  1.4438 -1.1099
  391MOL0     H52743   6.067   7.087   4.395 -0.6030 -0.7851  0.4236
  391MOL0     H52744   6.229   7.028   4.332  1.2923 -0.1599  3.8285
  391MOL0     H52745   6.139   7.396   4.104 -0.8707  1.2256 -2.5411
  391MOL0     H52746   6.302   7.446   3.912  0.2430 -0.3259 -0.2621
  391MOL0     H52747   6.541   7.033   3.568  1.1679 -1.6408 -2.5390
  391MOL0     H52748   6.669   7.027   3.373  0.6656  1.1638 -1.4178
  391MOL0     H52749   6.904   6.980   3.217 -0.3157  0.1196 -0.7045
  391MOL0     H52750   6.857   7.143   3.157 -0.8976 -0.1897  1.0708
  391MOL0     H52751   7.044   7.075   3.044  1.1534  0.6051  0.3614
  391MOL0     H52752   7.092   7.213   3.132 -1.1779  0.4499 -2.8798
  391MOL0     H52753   7.242   7.096   3.256 -2.3515  1.4781  1.7063
  391MOL0     H52754   7.153   6.946   3.259 -0.5709 -0.6581 -1.1323
  391MOL0     H52755   7.289   7.045   3.022 -0.9039 -0.1492  0.0211
  391MOL0     H52756   7.190   6.889   3.024  0.8934 -2.2689  0.6384
  391MOL0     H52757   7.403   6.791   3.066  2.0016  0.6247 -0.2391
  391MOL0     H52758   7.352   6.834   3.229  1.4292 -2.4809 -0.7904
  391MOL0     H52759   7.528   7.030   3.069  1.4086 -0.9362 -1.2092
  391MOL0     H52760   7.497   7.030   3.239  0.1509 -2.4054  1.2144
  391MOL0     H52761   7.622   6.783   3.117  2.7374  1.7180 -3.7627
  391MOL0     H52762   7.633   6.841   3.285  0.8467  2.4207  0.9945
  391MOL0     H52763   7.793   7.022   3.209  1.4711 -1.0402  1.8346
  391MOL0     H52764   7.849   6.868   3.155 -0.5735  0.5113 -0.6499
  391MOL0     H52765   6.962   7.262   3.560 -0.0590 -1.6318  0.1580
  391MOL0     H52766   6.828   7.309   3.747 -0.3312  2.5492 -1.4366
  391MOL0     H52767   6.545   7.115   4.054  0.2863 -1.3188  1.8528
  391MOL0     H52768   6.398   7.102   4.249  0.4684  0.6069  0.3381
  391MOL0     H52769   6.249   7.948   3.960  0.7168 -0.0706 -0.4103
  391MOL0     H52770   6.016   8.038   3.882  1.7237  0.4940 -1.0449
  391MOL0     H52771   5.645   8.169   3.860 -2.0146 -0.2542 -2.1582
  391MOL0     H52772   5.429   8.260   3.789 -0.6217  0.1845  0.4731
  391MOL0     H52773   5.196   8.375   3.902  0.1001 -1.8686 -3.8166
  391MOL0     H52774   5.135   8.316   4.050 -1.7979 -2.1414 -0.3822
  391MOL0     H52775   4.986   8.312   3.781  3.2121 -0.1538 -0.1368
  391MOL0     H52776   4.942   8.391   3.924  0.8644  1.4471 -3.2677
  391MOL0     H52777   4.868   8.190   4.049  0.9631  1.2267  0.1152
  391MOL0     H52778   4.955   8.098   3.934  1.5819  1.5311 -0.2670
  391MOL0     H52779   4.786   8.195   3.745 -1.0036 -1.2010 -0.3522
  391MOL0     H52780   4.730   8.075   3.850  1.3165 -0.9757  1.8343
  391MOL0     H52781   4.477   8.388   3.960  0.5129  0.6983 -0.9890
  391MOL0     H52782   5.242   8.026   4.102  2.0803  0.2614  2.5816
  391MOL0     H52783   5.548   7.892   4.251 -1.0811 -2.0884 -0.9117
  391MOL0     H52784   5.432   8.010   4.320 -2.2250  0.7946 -1.5161
  391MOL0     H52785   5.375   7.865   4.242  0.5714  0.1306 -1.7514
  392MOL0     O52786   2.438   9.851   9.787 -0.2829  0.2455 -0.3122
  392MOL0     C52787   2.456   9.922   9.689 -0.4393 -0.1389 -0.4645
  392MOL0     O52788   2.576   9.966   9.650 -0.1151 -0.3361 -0.0475
  392MOL0     C52789   2.687   9.935   9.720 -0.7614  0.0159  0.4219
  392MOL0     C52790   2.690   9.934   9.859 -0.3638 -0.2127 -0.4907
  392MOL0     C52791   2.812   9.907   9.931  1.0564 -0.0381  0.6052
  392MOL0     C52792   2.933   9.897   9.861  0.3219  0.7013  0.2057
  392MOL0     O52793   3.062   9.890   9.911  0.2307 -0.7396  0.5927
  392MOL0     C52794   3.072   9.828  10.041  0.6500 -0.8215 -0.7575
  392MOL0     C52795   3.196   9.753  10.066  0.1656 -1.1310  0.4378
  392MOL0     C52796   3.215   9.611  10.006 -0.3674 -0.0903  0.7592
  392MOL0     C52797   3.179   9.490  10.102  0.4151 -0.6991  0.2036
  392MOL0     C52798   3.131   9.360  10.039  0.0982  0.2304  0.5000
  392MOL0     C52799   3.234   9.275   9.962 -0.4724  0.4637  0.4483
  392MOL0     C52800   3.349   9.223  10.047 -0.1612  0.8810  0.7638
  392MOL0     C52801   3.463   9.165   9.960 -0.4181 -0.2051 -0.1582
  392MOL0     N52802   3.577   9.135  10.048  0.4472 -0.6168 -0.1399
  392MOL0     C52803   3.570   9.045  10.151 -1.3018  1.0517 -0.0786
  392MOL0     C52804   3.698   9.012  10.190 -0.1337 -0.0578 -0.3886
  392MOL0     C52805   3.749   8.919  10.303 -0.1485 -0.2372  0.4650
  392MOL0     C52806   3.758   8.995  10.436 -0.4313  0.1798  0.6610
  392MOL0     C52807   3.872   9.093  10.441  0.3337 -0.0839 -0.2965
  392MOL0     C52808   3.890   9.151  10.587  0.2764  0.1838 -0.1525
  392MOL0     O52809   3.999   9.237  10.590  0.1858 -0.1227 -0.5638
  392MOL0     C52810   4.125   9.202  10.643  0.2252  0.5103 -0.0297
  392MOL0     C52811   4.191   9.296  10.724 -0.6510  1.2579  0.0820
  392MOL0     C52812   4.316   9.268  10.781 -1.0440  0.0585  0.6270
  392MOL0     C52813   4.383   9.140  10.763 -0.2936  0.2625  0.6308
  392MOL0     C52814   4.516   9.127  10.815  0.8548  0.2413 -0.2826
  392MOL0     O52815   4.579   9.240  10.856  0.2576 -0.1981 -0.4016
  392MOL0     C52816   4.699   9.214  10.903 -0.2460 -0.8939  0.0724
  392MOL0     C52817   4.719   9.196  11.043 -0.4835 -1.0054  0.5288
  392MOL0     C52818   4.854   9.178  11.096  0.7073  0.0611  0.2062
  392MOL0     C52819   4.962   9.183  11.009 -1.1351 -0.1759 -0.8845
  392MOL0     O52820   5.092   9.174  11.070  0.2303  0.3436  0.2996
  392MOL0     C52821   5.198   9.111  10.996 -0.1212  0.4456  0.9301
  392MOL0     C52822   5.309   9.061  11.084 -0.1221  0.7943 -0.5169
  392MOL0     C52823   5.452   9.090  11.027  0.2868  0.0547  1.3732
  392MOL0     C52824   5.489   8.998  10.912 -0.4735  0.2737  0.4626
  392MOL0     C52825   5.636   9.005  10.871  0.2121 -0.3566  0.4436
  392MOL0     C52826   5.676   9.134  10.788 -0.2710 -0.4672  0.3757
  392MOL0     C52827   5.806   9.119  10.710  0.5577 -0.6868  1.4136
  392MOL0     C52828   5.794   9.207  10.580  0.1395  0.4841  0.3798
  392MOL0    Cl52829   5.949   9.192  10.489  0.1560  0.1035 -0.0539
  392MOL0     C52830   4.938   9.203  10.872  0.6621  0.4997 -0.3778
  392MOL0     C52831   4.808   9.214  10.821  0.5826 -0.0632  0.0372
  392MOL0     O52832   4.566   9.018  10.820 -0.3885  0.3422 -0.2040
  392MOL0     C52833   4.308   9.044  10.692  0.0850  0.5506 -0.2166
  392MOL0     C52834   4.178   9.069  10.635 -0.2939 -0.6186  0.2295
  392MOL0     N52835   3.782   9.085  10.107 -0.5478 -0.0519  0.8093
  392MOL0     N52836   3.705   9.163  10.026  0.2670 -0.1996 -0.0936
  392MOL0     C52837   2.924   9.883   9.719  0.0700 -0.4319 -0.6389
  392MOL0     C52838   2.800   9.898   9.648  0.0691  0.7354  0.3094
  392MOL0     C52839   2.347   9.944   9.594  0.0859 -0.0571  0.9826
  392MOL0     C52840   2.377   9.988   9.459  0.9913  0.0404  0.2312
  392MOL0     C52841   2.272  10.028   9.367  0.2145 -0.1891  0.1389
  392MOL0     C52842   2.145  10.033   9.413  1.2531 -0.2329 -0.4040
  392MOL0     O52843   2.051  10.069   9.323  0.5198  0.2631 -0.0929
  392MOL0     C52844   1.935  10.147   9.373 -0.7223 -0.1114  0.5269
  392MOL0     C52845   1.809  10.053   9.407 -0.8647 -0.8559 -0.6562
  392MOL0     C52846   1.708  10.134   9.494  0.4891  0.2565 -0.1659
  392MOL0     C52847   1.599  10.032   9.541 -0.5153 -0.1149 -0.1427
  392MOL0     C52848   1.658   9.932   9.628 -0.4009  0.6014  0.5467
  392MOL0     C52849   1.726   9.866   9.705 -0.5819 -0.6934 -0.4287
  392MOL0     C52850   2.116   9.983   9.545  0.0612 -0.0432 -0.0217
  392MOL0     C52851   2.209   9.932   9.628 -0.0323 -0.3027 -0.6345
  392MOL0     C52852   2.159   9.880   9.757  0.1042 -0.0448 -0.8620
  392MOL0     H52853   2.598   9.952   9.913 -1.8784 -3.8915 -1.5509
  392MOL0     H52854   2.810   9.907  10.040 -1.7029  0.7573  0.6392
  392MOL0     H52855   3.057   9.906  10.117 -3.9201 -0.0025 -2.1890
  392MOL0     H52856   2.994   9.754  10.061  0.9100 -1.4518 -1.9756
  392MOL0     H52857   3.202   9.754  10.175 -0.8474  2.8598  0.6129
  392MOL0     H52858   3.282   9.809  10.029 -0.8011  1.9058  2.4708
  392MOL0     H52859   3.321   9.602   9.982 -0.3912 -0.0210  0.6302
  392MOL0     H52860   3.160   9.608   9.911  1.2863  2.2002 -0.3749
  392MOL0     H52861   3.265   9.462  10.164 -0.9559 -2.7333  1.3312
  392MOL0     H52862   3.091   9.516  10.162  0.1095  1.3125 -1.0272
  392MOL0     H52863   3.081   9.300  10.115  3.0114 -2.2208  0.6297
  392MOL0     H52864   3.044   9.378   9.974 -1.7991 -3.3131  1.8196
  392MOL0     H52865   3.192   9.184   9.919 -0.4919  0.4662  0.4605
  392MOL0     H52866   3.281   9.338   9.886 -1.0971 -0.6979 -0.9237
  392MOL0     H52867   3.321   9.135  10.105  2.1446 -1.4180 -1.3090
  392MOL0     H52868   3.387   9.300  10.115  0.2107  1.2995  0.0994
  392MOL0     H52869   3.423   9.078   9.908 -0.8277 -0.7945  1.0963
  392MOL0     H52870   3.495   9.235   9.883  0.1984  1.6536  1.6889
  392MOL0     H52871   3.478   9.006  10.194  0.2416 -1.0553  1.5685
  392MOL0     H52872   3.680   8.835  10.320 -1.2194  0.6142  0.4593
  392MOL0     H52873   3.844   8.881  10.265  0.4090  0.5092  1.0971
  392MOL0     H52874   3.669   9.055  10.458  1.3441  3.5823 -0.7160
  392MOL0     H52875   3.758   8.909  10.505 -5.3633  0.1074  0.9319
  392MOL0     H52876   3.842   9.173  10.373  0.8434  0.6226  0.2927
  392MOL0     H52877   3.965   9.039  10.418  1.0926 -0.8945  3.8583
  392MOL0     H52878   3.895   9.079  10.669  0.6705  0.7573  0.3205
  392MOL0     H52879   3.798   9.208  10.604 -0.2461 -0.7203  0.1691
  392MOL0     H52880   4.133   9.382  10.757 -0.5049  0.9483  1.1677
  392MOL0     H52881   4.371   9.343  10.837  1.6987 -0.7178 -0.8367
  392MOL0     H52882   4.640   9.214  11.116  0.1574 -1.4759  1.3526
  392MOL0     H52883   4.875   9.183  11.202  2.6414 -1.1688 -0.0616
  392MOL0     H52884   5.163   9.025  10.937  0.6340  0.3357  0.6343
  392MOL0     H52885   5.240   9.181  10.923 -0.6484 -0.5629 -0.4005
  392MOL0     H52886   5.310   9.119  11.177  4.5269  1.9187 -1.0378
  392MOL0     H52887   5.283   8.961  11.121  2.3712  1.4474  3.5873
  392MOL0     H52888   5.462   9.188  10.979  1.2954 -0.9030 -0.4765
  392MOL0     H52889   5.516   9.084  11.115  2.6182  0.6771 -0.1709
  392MOL0     H52890   5.422   9.014  10.826  0.4609 -1.2196 -0.5895
  392MOL0     H52891   5.477   8.896  10.947  1.8573 -0.4231 -0.5380
  392MOL0     H52892   5.638   8.924  10.798 -0.0070 -1.8948  2.0627
  392MOL0     H52893   5.706   8.981  10.952  0.8087  0.8685  0.3136
  392MOL0     H52894   5.594   9.163  10.722 -0.6967  0.3713  1.2529
  392MOL0     H52895   5.691   9.214  10.860 -0.3456  0.0282 -0.1573
  392MOL0     H52896   5.836   9.015  10.695 -0.5850 -0.7523 -0.7044
  392MOL0     H52897   5.891   9.164  10.762  2.6705 -1.7442 -0.9163
  392MOL0     H52898   5.705   9.165  10.533 -0.0148 -1.1694  2.0202
  392MOL0     H52899   5.779   9.311  10.608 -0.3694  0.9725 -1.5886
  392MOL0     H52900   5.028   9.212  10.812  3.1251 -3.5490  2.2615
  392MOL0     H52901   4.784   9.231  10.716  0.4595 -1.0200 -0.0990
  392MOL0     H52902   4.352   8.945  10.677 -2.4318 -0.6734 -0.0954
  392MOL0     H52903   4.138   8.994  10.568 -0.9622  0.3023 -0.4257
  392MOL0     H52904   3.013   9.871   9.657 -0.2337  0.8768 -1.3791
  392MOL0     H52905   2.797   9.893   9.540 -1.9918  0.4232  0.3365
  392MOL0     H52906   2.483   9.988   9.434  1.1388 -2.9561  0.5344
  392MOL0     H52907   2.288  10.071   9.269  0.2761  2.4128  1.2209
  392MOL0     H52908   1.899  10.218   9.298  2.2701 -0.0975 -1.0418
  392MOL0     H52909   1.968  10.200   9.463  1.8240  1.8760 -1.4057
  392MOL0     H52910   1.835   9.965   9.467 -3.0333 -0.9013  0.3487
  392MOL0     H52911   1.769  10.024   9.309  2.0345 -0.6738 -1.9887
  392MOL0     H52912   1.657  10.207   9.431 -2.5404  3.5629  5.3666
  392MOL0     H52913   1.753  10.183   9.581 -0.3347  1.1476 -0.2252
  392MOL0     H52914   1.518  10.092   9.584 -1.8056 -0.3835 -2.0763
  392MOL0     H52915   1.561   9.980   9.453  2.9867 -0.2852 -1.7067
  392MOL0     H52916   1.800   9.822   9.769 -0.8382  0.8723  1.0065
  392MOL0     H52917   2.014   9.994   9.580 -1.2359 -3.0054 -2.3632
  392MOL0     H52918   2.201   9.946   9.833 -2.3475  2.1322 -1.2489
  392MOL0     H52919   2.050   9.889   9.765  0.1913  1.3916 -0.9994
  392MOL0     H52920   2.191   9.777   9.775  1.3864  0.9843  4.3541
  393MOL0     O52921  10.062   9.004   2.941 -0.0685  0.3245 -0.0861
  393MOL0     C52922  10.083   8.898   3.011  0.0770 -0.3558 -0.0505
  393MOL0     O52923  10.185   8.878   3.095  0.0693  1.1871 -0.2742
  393MOL0     C52924  10.270   8.981   3.103  1.0436 -0.1296  0.1176
  393MOL0     C52925  10.345   9.023   2.995 -1.1723 -0.4674 -0.2328
  393MOL0     C52926  10.423   9.142   3.013  0.6832  0.4972 -0.2923
  393MOL0     C52927  10.428   9.211   3.138  0.1044 -0.0696  0.1913
  393MOL0     O52928  10.508   9.330   3.140 -0.1418  0.7567  0.6011
  393MOL0     C52929  10.589   9.363   3.254  0.2068 -0.3278  1.0273
  393MOL0     C52930  10.700   9.468   3.217  0.2653  0.0773 -0.2904
  393MOL0     C52931  10.830   9.396   3.193 -0.9667  0.7756  0.0200
  393MOL0     C52932  10.952   9.491   3.174  0.2394  0.4567  0.4859
  393MOL0     C52933  11.084   9.421   3.158  0.1126  0.7868 -1.1023
  393MOL0     C52934  11.201   9.528   3.145  0.6045 -0.4970 -0.5424
  393MOL0     C52935  11.339   9.476   3.115  0.2885 -1.0320 -0.6911
  393MOL0     C52936  11.444   9.591   3.138  0.8923 -0.1754 -0.2615
  393MOL0     N52937  11.571   9.532   3.102 -0.8582  0.1676  0.4593
  393MOL0     C52938  11.658   9.469   3.190  0.1578 -0.2311 -0.6220
  393MOL0     C52939  11.768   9.433   3.115  1.0418  0.0876 -0.5181
  393MOL0     C52940  11.898   9.380   3.169 -0.3573  0.7337  1.1616
  393MOL0     C52941  11.901   9.223   3.154 -0.3521  0.8945 -0.5724
  393MOL0     C52942  12.031   9.163   3.218  0.3300  0.0028 -0.3212
  393MOL0     C52943  12.015   9.001   3.209  0.3013 -0.4442  0.2776
  393MOL0     O52944  12.133   8.930   3.233  0.0045 -0.4527 -0.2123
  393MOL0     C52945  12.251   8.962   3.169 -0.6285 -0.4632 -0.2523
  393MOL0     C52946  12.371   8.954   3.241 -0.4233 -0.2121  0.2403
  393MOL0     C52947  12.493   8.982   3.173 -0.5493 -0.4118 -0.1941
  393MOL0     C52948  12.499   9.025   3.038 -0.1853  0.5964  0.1959
  393MOL0     C52949  12.631   9.053   2.983  0.2747 -0.9772 -0.0828
  393MOL0     O52950  12.737   9.047   3.068  0.5008  0.1781 -0.2057
  393MOL0     C52951  12.843   9.136   3.054 -0.3427 -0.6998 -1.1230
  393MOL0     C52952  12.832   9.270   3.016  0.5782 -0.0138 -0.9641
  393MOL0     C52953  12.940   9.354   3.019  0.1811  0.0935  0.8698
  393MOL0     C52954  13.066   9.310   3.061  0.0087 -0.4239  0.6811
  393MOL0     O52955  13.167   9.401   3.046 -0.5056 -0.1293 -0.7456
  393MOL0     C52956  13.305   9.365   3.071  0.4184 -0.2735  0.0897
  393MOL0     C52957  13.401   9.485   3.071 -0.3957 -0.0109  0.6398
  393MOL0     C52958  13.546   9.432   3.085  0.0129  0.5574 -0.3263
  393MOL0     C52959  13.637   9.508   2.990  0.6666  0.8414  1.3288
  393MOL0     C52960  13.790   9.459   2.977  0.3142 -0.3185 -0.7191
  393MOL0     C52961  13.867   9.466   3.110  0.5196  0.1332 -0.6929
  393MOL0     C52962  14.004   9.404   3.116 -0.3737 -0.1307  0.0680
  393MOL0     C52963  14.038   9.283   3.027  0.3454  0.6793 -0.0735
  393MOL0    Cl52964  13.949   9.137   3.078 -0.1804  0.1092 -0.1230
  393MOL0     C52965  13.080   9.178   3.098  0.2612  0.3563 -0.0989
  393MOL0     C52966  12.969   9.092   3.100 -0.5970 -0.8454 -0.9586
  393MOL0     O52967  12.640   9.085   2.863  0.6289 -0.0269 -0.0082
  393MOL0     C52968  12.381   9.030   2.970  0.0775  0.3601 -0.4796
  393MOL0     C52969  12.255   9.018   3.036  0.0725  0.0960 -0.4747
  393MOL0     N52970  11.750   9.481   2.985  0.4862  0.5706  0.1187
  393MOL0     N52971  11.629   9.524   2.977  0.0322 -0.1872 -0.0249
  393MOL0     C52972  10.357   9.158   3.248 -0.0752  0.3208  0.4286
  393MOL0     C52973  10.284   9.047   3.228  0.0417  0.1351 -0.1162
  393MOL0     C52974   9.987   8.786   2.986  0.6063 -0.1946 -0.2572
  393MOL0     C52975  10.040   8.659   3.007  0.0098  0.3210  0.1097
  393MOL0     C52976   9.966   8.540   2.988 -0.7247 -0.0668  0.3890
  393MOL0     C52977   9.832   8.554   2.944 -0.1103 -0.3168  0.1581
  393MOL0     O52978   9.772   8.433   2.923 -0.1499  0.5254  0.0150
  393MOL0     C52979   9.644   8.435   2.868 -0.3362 -0.4070  1.1892
  393MOL0     C52980   9.606   8.291   2.845 -0.3413 -1.0186 -0.9566
  393MOL0     C52981   9.478   8.270   2.770  0.1469 -0.4192 -0.2862
  393MOL0     C52982   9.347   8.279   2.848 -0.4812 -0.1466 -0.0608
  393MOL0     C52983   9.233   8.260   2.755 -0.0603 -0.1474  0.0444
  393MOL0     C52984   9.136   8.251   2.680  0.4784  1.6165 -0.0181
  393MOL0     C52985   9.776   8.682   2.927 -0.1526  0.0932  0.1551
  393MOL0     C52986   9.852   8.799   2.948  0.6540  0.1372 -1.1361
  393MOL0     C52987   9.783   8.933   2.925  0.3638 -0.5410  0.0381
  393MOL0     H52988  10.348   8.961   2.905  1.7874 -0.9508  0.1016
  393MOL0     H52989  10.477   9.197   2.937  0.5775  0.3039 -0.5091
  393MOL0     H52990  10.518   9.403   3.326 -1.7554  1.5308 -1.7088
  393MOL0     H52991  10.632   9.272   3.296  4.7832  0.7845 -0.6391
  393MOL0     H52992  10.711   9.524   3.311 -2.6085  1.2225 -0.5414
  393MOL0     H52993  10.670   9.534   3.136 -1.1549 -1.6492 -1.2426
  393MOL0     H52994  10.822   9.333   3.103  2.3906  2.3612 -1.5848
  393MOL0     H52995  10.844   9.335   3.283 -1.4793  0.5386 -0.0593
  393MOL0     H52996  10.943   9.563   3.091  0.6211  2.9767  2.4824
  393MOL0     H52997  10.958   9.550   3.266  1.1681  0.0124  0.7249
  393MOL0     H52998  11.116   9.369   3.248  0.6555  0.0240 -1.7168
  393MOL0     H52999  11.082   9.348   3.076 -0.3690  2.3551 -2.5379
  393MOL0     H53000  11.179   9.602   3.067  2.1200 -2.2681 -2.7803
  393MOL0     H53001  11.190   9.574   3.243 -2.0714 -1.6116 -0.2150
  393MOL0     H53002  11.343   9.442   3.011  1.8375  0.8435 -1.3112
  393MOL0     H53003  11.359   9.393   3.182  1.2973  0.8391  1.4617
  393MOL0     H53004  11.422   9.664   3.060  1.0024 -0.2797 -0.3919
  393MOL0     H53005  11.452   9.634   3.238  0.4397 -2.5300  0.8519
  393MOL0     H53006  11.650   9.456   3.297  0.4030  3.0067 -0.1341
  393MOL0     H53007  11.978   9.416   3.103 -0.8519 -1.8466 -0.9902
  393MOL0     H53008  11.919   9.424   3.267  0.8827  1.4871  0.5844
  393MOL0     H53009  11.809   9.199   3.209 -1.1731  3.4753 -0.6569
  393MOL0     H53010  11.894   9.194   3.049 -0.7360  0.6621 -0.4852
  393MOL0     H53011  12.032   9.186   3.325 -2.0979 -0.5294 -0.1366
  393MOL0     H53012  12.124   9.192   3.168  0.0733  1.7981  0.2064
  393MOL0     H53013  11.982   8.979   3.107  0.9182  1.6133 -0.4112
  393MOL0     H53014  11.930   8.985   3.276  0.1877  0.7982  0.4524
  393MOL0     H53015  12.348   8.935   3.346  2.5200 -0.9674  0.8505
  393MOL0     H53016  12.586   8.981   3.229 -0.4438  1.0707 -0.3172
  393MOL0     H53017  12.737   9.318   2.996  0.9030  1.7425  1.2893
  393MOL0     H53018  12.921   9.456   2.986  1.1482  0.7564  2.2797
  393MOL0     H53019  13.314   9.316   3.169  3.6450 -0.9549 -0.4538
  393MOL0     H53020  13.339   9.297   2.993 -0.2237  2.1027 -2.4019
  393MOL0     H53021  13.375   9.539   2.979 -3.7570 -1.9275  0.3006
  393MOL0     H53022  13.386   9.542   3.164  1.6107  0.5683  0.6493
  393MOL0     H53023  13.584   9.444   3.187 -0.2646  4.4448 -0.5121
  393MOL0     H53024  13.549   9.326   3.059 -0.9723  0.0933  1.2724
  393MOL0     H53025  13.637   9.611   3.026  0.9299  0.7409  1.6170
  393MOL0     H53026  13.586   9.501   2.893 -2.7304  0.1595  2.9942
  393MOL0     H53027  13.838   9.529   2.908 -0.2856  1.0786  0.2311
  393MOL0     H53028  13.787   9.356   2.941  0.2488 -0.4702 -0.2839
  393MOL0     H53029  13.883   9.571   3.133  1.3159 -0.3988  1.3869
  393MOL0     H53030  13.800   9.433   3.190 -0.3914 -0.0776 -1.5153
  393MOL0     H53031  14.022   9.385   3.223 -0.3612 -0.7191 -0.0311
  393MOL0     H53032  14.080   9.476   3.084  2.1763 -2.6021  0.1406
  393MOL0     H53033  14.003   9.299   2.925 -1.5217 -0.7760  0.2720
  393MOL0     H53034  14.143   9.253   3.031  0.0441 -0.6896 -1.4844
  393MOL0     H53035  13.179   9.143   3.124  1.0739  0.2413 -2.9627
  393MOL0     H53036  12.992   9.006   3.163  0.0152 -0.7745 -1.0772
  393MOL0     H53037  12.377   9.066   2.868 -0.5259  1.2685 -0.1527
  393MOL0     H53038  12.164   9.038   2.982 -0.4352 -0.8048  0.0227
  393MOL0     H53039  10.364   9.204   3.346 -1.1202 -2.1190  1.7403
  393MOL0     H53040  10.223   9.009   3.308  1.3963 -1.2167  0.3097
  393MOL0     H53041  10.140   8.644   3.046  0.7530 -2.4452 -2.4371
  393MOL0     H53042  10.009   8.441   2.999  2.6759  1.5430  3.8024
  393MOL0     H53043   9.641   8.482   2.769 -0.8483 -1.7698  0.5254
  393MOL0     H53044   9.575   8.477   2.942  0.4176  1.3900  0.9348
  393MOL0     H53045   9.593   8.260   2.949  1.9382  1.7428  0.2844
  393MOL0     H53046   9.689   8.247   2.790  1.5362 -0.6585  1.4398
  393MOL0     H53047   9.482   8.170   2.726 -1.6512 -1.6046  2.0089
  393MOL0     H53048   9.477   8.343   2.689 -0.8230 -1.5796 -1.3481
  393MOL0     H53049   9.345   8.204   2.927 -0.5796  1.4610  1.5320
  393MOL0     H53050   9.350   8.373   2.903  0.5014  0.4210 -1.0462
  393MOL0     H53051   9.042   8.239   2.631  0.1902 -0.2970  0.9149
  393MOL0     H53052   9.673   8.686   2.891  0.3700 -0.5860 -1.5094
  393MOL0     H53053   9.806   8.964   2.823 -2.5029 -0.7203 -0.7544
  393MOL0     H53054   9.676   8.912   2.937  0.0629  0.6810 -0.3892
  393MOL0     H53055   9.803   9.006   3.004  0.1971  0.5062 -0.8632
  394MOL0     O53056   5.703  11.265   8.350  0.3007  0.9247 -0.0630
  394MOL0     C53057   5.640  11.200   8.268  0.1191 -0.0037  0.2018
  394MOL0     O53058   5.686  11.124   8.161 -0.4398 -0.1872 -0.3014
  394MOL0     C53059   5.826  11.135   8.137  0.3619  0.1097  0.0677
  394MOL0     C53060   5.877  11.245   8.078  0.6679 -0.5033  0.2366
  394MOL0     C53061   6.014  11.241   8.036  0.4230 -0.2388 -0.7166
  394MOL0     C53062   6.104  11.135   8.067  0.8775 -0.2612  0.0652
  394MOL0     O53063   6.233  11.120   8.027 -0.6881  0.3175 -0.2670
  394MOL0     C53064   6.309  11.228   7.977  0.3645 -1.0743  0.9082
  394MOL0     C53065   6.379  11.314   8.080  0.0504 -0.4300  0.2025
  394MOL0     C53066   6.448  11.240   8.196 -0.0337 -0.7377 -0.0924
  394MOL0     C53067   6.529  11.111   8.165 -0.3040 -0.3379  0.3029
  394MOL0     C53068   6.599  11.046   8.291 -0.4500  0.5613  0.5494
  394MOL0     C53069   6.641  10.901   8.257  0.0757  0.0675 -0.2823
  394MOL0     C53070   6.697  10.822   8.373  0.2385  0.5168 -0.3320
  394MOL0     C53071   6.839  10.869   8.404 -0.4162  0.8851  0.2011
  394MOL0     N53072   6.895  10.783   8.512 -0.3463 -0.5130  0.5406
  394MOL0     C53073   6.928  10.842   8.632 -0.0380  0.8383 -0.6822
  394MOL0     C53074   7.020  10.766   8.683 -0.2196  0.1086 -0.5485
  394MOL0     C53075   7.093  10.781   8.814 -0.3918  0.5302 -0.1560
  394MOL0     C53076   7.212  10.876   8.809  0.1711  0.8473  0.4350
  394MOL0     C53077   7.278  10.884   8.951  0.0347 -0.6526  0.4697
  394MOL0     C53078   7.195  10.981   9.047 -0.1589  1.1026 -0.3537
  394MOL0     O53079   7.186  11.111   8.989  0.3434  0.3116 -0.0466
  394MOL0     C53080   7.297  11.200   8.975  0.4759  0.0173  0.0554
  394MOL0     C53081   7.422  11.159   9.026  0.1107  0.2831 -0.3678
  394MOL0     C53082   7.533  11.236   9.004  0.2663 -0.4067  0.3737
  394MOL0     C53083   7.533  11.358   8.934 -0.2181  0.2690  0.2568
  394MOL0     C53084   7.656  11.437   8.939  0.2317  0.2909 -0.1805
  394MOL0     O53085   7.778  11.380   8.966  0.0418 -0.8620 -0.6515
  394MOL0     C53086   7.888  11.470   8.970 -0.4562  1.0455 -0.2726
  394MOL0     C53087   7.972  11.494   8.856 -0.0523 -0.3769 -1.1455
  394MOL0     C53088   8.054  11.612   8.852  1.0399  0.5640  0.3943
  394MOL0     C53089   8.078  11.684   8.968 -0.1064 -0.2856 -0.7332
  394MOL0     O53090   8.159  11.788   8.953 -0.4114  0.0229  0.8000
  394MOL0     C53091   8.244  11.824   9.065  0.1924 -0.0155  0.2836
  394MOL0     C53092   8.319  11.950   9.046 -0.0007 -0.2324  0.1415
  394MOL0     C53093   8.423  11.946   8.941 -0.2959  0.1849  0.1641
  394MOL0     C53094   8.502  12.077   8.957 -0.8936  0.5121  0.9882
  394MOL0     C53095   8.605  12.104   8.847  0.0200  0.4300 -0.2934
  394MOL0     C53096   8.697  12.220   8.885  0.2068  0.3341 -0.2584
  394MOL0     C53097   8.808  12.244   8.782 -0.2122 -0.8864  0.4365
  394MOL0     C53098   8.926  12.326   8.833  0.5199  0.2444 -0.0694
  394MOL0    Cl53099   9.035  12.352   8.685  0.0518 -0.3784 -0.6163
  394MOL0     C53100   7.996  11.657   9.081 -0.8626 -0.6345  0.5315
  394MOL0     C53101   7.909  11.548   9.086 -0.0579 -0.9943  0.2647
  394MOL0     O53102   7.638  11.554   8.919 -1.2558 -0.1285  1.2601
  394MOL0     C53103   7.407  11.398   8.888  0.0446 -0.7203  0.0868
  394MOL0     C53104   7.289  11.326   8.911  1.0570 -0.0139  0.6437
  394MOL0     N53105   7.050  10.662   8.594  0.2893 -0.4873 -0.4913
  394MOL0     N53106   6.977  10.676   8.488 -0.3162  0.1086 -0.0980
  394MOL0     C53107   6.044  11.031   8.142  0.2061  0.4610  0.8278
  394MOL0     C53108   5.910  11.028   8.173  0.5543  0.2928  0.8054
  394MOL0     C53109   5.491  11.207   8.276  0.4836  0.1403 -0.1109
  394MOL0     C53110   5.409  11.097   8.240 -0.0793  0.8326  0.8724
  394MOL0     C53111   5.273  11.085   8.241  0.5573 -0.0825  0.2385
  394MOL0     C53112   5.205  11.190   8.297  0.1051  0.5574  0.5959
  394MOL0     O53113   5.069  11.188   8.310  0.1492 -0.4600  0.7326
  394MOL0     C53114   4.989  11.100   8.230  0.3036  0.2278 -0.1158
  394MOL0     C53115   5.003  11.115   8.082  0.0445 -0.8551  0.2608
  394MOL0     C53116   4.961  11.259   8.032 -0.2365  0.1494 -0.0128
  394MOL0     C53117   4.970  11.289   7.878  0.2987  0.5618  0.6163
  394MOL0     C53118   4.864  11.212   7.810 -1.0453 -0.1585  0.7119
  394MOL0     C53119   4.759  11.158   7.776 -0.2482 -0.5681  0.0006
  394MOL0     C53120   5.272  11.307   8.346 -0.4250 -0.3168  0.2497
  394MOL0     C53121   5.415  11.317   8.323 -0.8431 -0.0362 -0.2892
  394MOL0     C53122   5.474  11.451   8.367 -0.3033  0.7330 -0.1195
  394MOL0     H53123   5.823  11.338   8.067  0.3276 -0.2661  3.2089
  394MOL0     H53124   6.043  11.336   7.992 -1.7491  0.0518 -1.6486
  394MOL0     H53125   6.379  11.170   7.917  1.1541 -0.7842  1.5271
  394MOL0     H53126   6.253  11.296   7.913 -1.3527 -3.5014 -0.2926
  394MOL0     H53127   6.305  11.376   8.131  1.5823  1.2132  0.5084
  394MOL0     H53128   6.449  11.377   8.025 -1.6441  0.3456 -1.1466
  394MOL0     H53129   6.359  11.208   8.252  1.2099  0.3669  2.6798
  394MOL0     H53130   6.514  11.301   8.258  2.6630 -0.8052 -2.6758
  394MOL0     H53131   6.457  11.044   8.117  1.8245 -2.2507 -0.3784
  394MOL0     H53132   6.607  11.129   8.090  1.0441  3.8333  2.4011
  394MOL0     H53133   6.686  11.104   8.322 -0.0266  1.2674 -1.7637
  394MOL0     H53134   6.526  11.024   8.370 -0.2777 -0.0218  0.5454
  394MOL0     H53135   6.557  10.847   8.214  0.9310 -1.9363  0.4258
  394MOL0     H53136   6.715  10.900   8.176 -1.3747 -1.4029 -1.6539
  394MOL0     H53137   6.696  10.715   8.349 -0.7052  0.2248  0.9506
  394MOL0     H53138   6.636  10.829   8.464 -0.4525 -1.1721 -0.6188
  394MOL0     H53139   6.902  10.867   8.314 -1.9067 -2.0331 -0.9309
  394MOL0     H53140   6.844  10.971   8.442 -0.0990  1.5155 -1.4375
  394MOL0     H53141   6.901  10.934   8.684  4.4131  0.3272  3.2645
  394MOL0     H53142   7.015  10.809   8.885  0.9419 -2.6406  2.8311
  394MOL0     H53143   7.125  10.684   8.853 -0.6577  0.4460 -0.1448
  394MOL0     H53144   7.287  10.830   8.744 -1.3092 -0.4723 -0.4044
  394MOL0     H53145   7.176  10.973   8.775  1.4825  1.1254 -0.2091
  394MOL0     H53146   7.376  10.930   8.940 -1.5422  2.3647 -3.7927
  394MOL0     H53147   7.287  10.782   8.991 -2.4137 -1.3559 -0.5939
  394MOL0     H53148   7.243  10.984   9.145 -1.3900  0.5034  0.2926
  394MOL0     H53149   7.099  10.937   9.073  2.2908 -3.5841  1.9190
  394MOL0     H53150   7.425  11.069   9.086 -3.1600  0.0614 -0.3809
  394MOL0     H53151   7.622  11.210   9.060 -1.1520 -0.6267  2.6566
  394MOL0     H53152   7.958  11.434   8.766  2.5774 -3.2376  0.1463
  394MOL0     H53153   8.112  11.630   8.761  2.0547 -2.4471  0.3062
  394MOL0     H53154   8.173  11.841   9.147  0.5453 -2.6090  1.2223
  394MOL0     H53155   8.311  11.744   9.099  2.0902  1.1426 -0.5644
  394MOL0     H53156   8.249  12.034   9.036 -1.2234 -1.0149  1.6524
  394MOL0     H53157   8.373  11.982   9.136 -0.3125  0.6482  0.0292
  394MOL0     H53158   8.488  11.859   8.942  1.0931  1.1892 -0.3132
  394MOL0     H53159   8.372  11.935   8.845  2.9227 -0.2996 -1.6327
  394MOL0     H53160   8.558  12.083   9.051  2.7438  0.7550 -1.0110
  394MOL0     H53161   8.433  12.160   8.969  0.7603  2.1249 -0.1123
  394MOL0     H53162   8.561  12.134   8.752  0.8193  1.0773 -0.4749
  394MOL0     H53163   8.664  12.013   8.835  0.5590  0.7352 -0.0091
  394MOL0     H53164   8.635  12.309   8.900  1.4259  1.6498 -2.4600
  394MOL0     H53165   8.743  12.199   8.982  1.5568  2.3612 -0.3905
  394MOL0     H53166   8.773  12.303   8.697  2.6316  1.9623  1.0775
  394MOL0     H53167   8.848  12.150   8.742 -0.4244 -0.5033 -0.7295
  394MOL0     H53168   8.908  12.421   8.884  1.2030 -1.2778  3.2912
  394MOL0     H53169   8.984  12.270   8.907  0.4719 -2.0322 -1.6765
  394MOL0     H53170   8.002  11.732   9.158  1.5811  0.7306 -0.8570
  394MOL0     H53171   7.828  11.537   9.158 -1.2974  1.8403 -0.5306
  394MOL0     H53172   7.397  11.496   8.842 -1.6268 -1.2590 -0.7764
  394MOL0     H53173   7.198  11.371   8.872 -0.4942 -3.7813 -0.5767
  394MOL0     H53174   6.110  10.950   8.172  0.0581 -1.0400 -2.4979
  394MOL0     H53175   5.880  10.943   8.233  0.4313 -1.5074 -1.7017
  394MOL0     H53176   5.460  11.007   8.207  0.1500  0.9805  0.8204
  394MOL0     H53177   5.223  10.998   8.199 -0.9198  0.4730  0.7719
  394MOL0     H53178   4.884  11.112   8.257 -0.1638  1.8020 -2.3509
  394MOL0     H53179   5.013  10.996   8.251 -0.2938 -0.2787 -1.7756
  394MOL0     H53180   4.934  11.039   8.044  2.8196 -3.4411  0.0303
  394MOL0     H53181   5.104  11.102   8.040  1.0497  1.9986  1.5434
  394MOL0     H53182   5.016  11.336   8.087  0.5591 -1.2932  1.2896
  394MOL0     H53183   4.857  11.275   8.061 -0.3467 -2.1912  1.0295
  394MOL0     H53184   4.965  11.398   7.867  4.1874  0.8943  0.8435
  394MOL0     H53185   5.066  11.270   7.830  0.3516  2.7388 -0.2443
  394MOL0     H53186   4.668  11.115   7.738  0.6876 -0.4677 -2.5377
  394MOL0     H53187   5.208  11.385   8.386 -0.9424 -0.6945  0.1661
  394MOL0     H53188   5.499  11.459   8.473 -1.8274  1.7054  0.1995
  394MOL0     H53189   5.563  11.468   8.305  0.4848  0.4471  0.9043
  394MOL0     H53190   5.409  11.537   8.347  0.0421  0.7921 -1.0353
  395MOL0     O53191   9.803  10.875   4.546 -0.3490  0.5600 -0.2932
  395MOL0     C53192   9.859  10.953   4.476  0.3527  0.1211 -0.5079
  395MOL0     O53193   9.813  11.076   4.438  0.6755 -0.2638 -0.0554
  395MOL0     C53194   9.679  11.105   4.418 -0.7490  0.3075  0.3255
  395MOL0     C53195   9.647  11.234   4.372 -0.2468 -0.2498 -0.3651
  395MOL0     C53196   9.523  11.266   4.331 -0.0432  0.0361 -0.3800
  395MOL0     C53197   9.420  11.179   4.343  0.1753 -0.3852  0.8011
  395MOL0     O53198   9.307  11.223   4.299 -0.2188  0.2299 -0.5371
  395MOL0     C53199   9.201  11.225   4.397  0.2501  0.1146  0.4313
  395MOL0     C53200   9.226  11.343   4.496  0.4014 -1.0840 -0.0176
  395MOL0     C53201   9.110  11.373   4.593  0.3691  0.3705  0.9535
  395MOL0     C53202   8.982  11.423   4.529  0.1775 -0.1640 -0.1593
  395MOL0     C53203   8.983  11.570   4.470  0.7182  0.5815 -0.9868
  395MOL0     C53204   8.850  11.579   4.384 -0.5840 -0.3263  0.9853
  395MOL0     C53205   8.718  11.574   4.460 -0.7590 -0.1702  0.0488
  395MOL0     C53206   8.578  11.614   4.387 -0.0956 -0.0941 -0.2027
  395MOL0     N53207   8.542  11.551   4.256  0.2361  0.4799  0.4326
  395MOL0     C53208   8.606  11.579   4.138 -0.3599  0.4733 -0.1788
  395MOL0     C53209   8.565  11.492   4.047  0.1404 -0.4558  0.6496
  395MOL0     C53210   8.631  11.468   3.922 -0.5223  0.1921 -0.0468
  395MOL0     C53211   8.726  11.346   3.925  0.1748  0.3291 -0.2113
  395MOL0     C53212   8.822  11.333   3.805 -0.9108 -0.0816  0.5319
  395MOL0     C53213   8.947  11.262   3.852  0.4435 -0.0425 -0.1459
  395MOL0     O53214   9.048  11.277   3.755 -0.3597 -0.0667  0.2793
  395MOL0     C53215   9.178  11.252   3.790 -0.5300  1.1853 -0.0909
  395MOL0     C53216   9.219  11.208   3.918 -0.9882 -0.5433 -0.6799
  395MOL0     C53217   9.335  11.137   3.946 -0.2890  0.1309  0.3463
  395MOL0     C53218   9.433  11.120   3.844 -0.1051 -0.0902 -0.1375
  395MOL0     C53219   9.559  11.050   3.879  0.3630 -0.1445  0.9661
  395MOL0     O53220   9.609  10.988   3.766  0.1147 -0.6842 -0.2053
  395MOL0     C53221   9.725  10.929   3.785 -0.0119  1.1116  0.1973
  395MOL0     C53222   9.850  10.977   3.756  0.9254  0.0069  1.1951
  395MOL0     C53223   9.960  10.902   3.798 -0.0993  0.0310 -0.2725
  395MOL0     C53224   9.946  10.774   3.852  0.0965  0.6955 -0.3806
  395MOL0     O53225  10.051  10.689   3.894 -0.1225 -0.1129  0.7806
  395MOL0     C53226  10.173  10.736   3.939 -0.2245 -0.2091  0.2679
  395MOL0     C53227  10.273  10.757   3.827  0.2726  0.6349 -0.8159
  395MOL0     C53228  10.343  10.898   3.840  0.2721 -0.0583  0.5133
  395MOL0     C53229  10.430  10.929   3.715  0.9660 -0.8214 -0.3453
  395MOL0     C53230  10.493  11.065   3.715 -0.0995  0.5327 -0.1958
  395MOL0     C53231  10.611  11.072   3.615 -0.2134 -0.0295 -0.2188
  395MOL0     C53232  10.570  11.043   3.469 -0.5265 -0.4270  1.2033
  395MOL0     C53233  10.492  11.162   3.414  0.0707  0.1330  0.2120
  395MOL0    Cl53234  10.433  11.116   3.252  0.0659  0.1100 -0.0280
  395MOL0     C53235   9.821  10.721   3.873  0.4158  0.6987 -0.6770
  395MOL0     C53236   9.708  10.800   3.847 -0.4998  0.0547 -0.4632
  395MOL0     O53237   9.607  11.063   3.989 -0.4893  0.1230  0.0521
  395MOL0     C53238   9.402  11.172   3.715 -0.0139 -0.7182 -0.9262
  395MOL0     C53239   9.268  11.222   3.689 -0.5797 -0.7381  0.5628
  395MOL0     N53240   8.449  11.430   4.103  0.0302  0.5390  0.2379
  395MOL0     N53241   8.446  11.451   4.226  0.1785 -0.1090 -0.0547
  395MOL0     C53242   9.448  11.050   4.395  0.3180 -0.0903 -0.0962
  395MOL0     C53243   9.575  11.005   4.420  1.0884  0.4165  0.6081
  395MOL0     C53244   9.987  10.919   4.405  0.0487 -0.4878  0.1146
  395MOL0     C53245  10.070  10.821   4.468  0.6851 -0.6760  0.5102
  395MOL0     C53246  10.190  10.781   4.405  0.0203  0.1764 -0.6462
  395MOL0     C53247  10.239  10.846   4.292  0.1578  0.0673 -0.2999
  395MOL0     O53248  10.361  10.813   4.238 -0.1445  0.8619 -0.0052
  395MOL0     C53249  10.436  10.696   4.281  0.3876 -0.1525 -0.0670
  395MOL0     C53250  10.530  10.661   4.159  0.3552  0.1121  0.0623
  395MOL0     C53251  10.601  10.540   4.184 -0.6929  0.1207 -0.5302
  395MOL0     C53252  10.680  10.494   4.067 -0.2938 -0.0816 -0.1409
  395MOL0     C53253  10.619  10.483   3.941 -0.1185  0.9285  0.0326
  395MOL0     C53254  10.570  10.468   3.831 -0.1446  0.1460 -0.1517
  395MOL0     C53255  10.161  10.941   4.231 -0.0161  0.0621 -0.6574
  395MOL0     C53256  10.029  10.964   4.279  0.6750  0.2141  0.4996
  395MOL0     C53257   9.941  11.043   4.189 -0.7638 -0.0317 -0.4872
  395MOL0     H53258   9.727  11.302   4.342 -1.0181  1.0052  0.3482
  395MOL0     H53259   9.507  11.371   4.308  0.6190  0.6253  1.6008
  395MOL0     H53260   9.108  11.236   4.340 -0.9844  3.3628  2.7530
  395MOL0     H53261   9.194  11.136   4.460  0.8091 -1.0042 -1.0515
  395MOL0     H53262   9.246  11.427   4.428  1.4932  0.1668  1.7704
  395MOL0     H53263   9.313  11.319   4.557  0.3178 -2.2775 -0.3348
  395MOL0     H53264   9.151  11.450   4.659  0.1350  2.4332 -1.1793
  395MOL0     H53265   9.093  11.280   4.648  0.6059 -0.6253 -0.5987
  395MOL0     H53266   8.954  11.358   4.445  0.2460  0.1239 -0.4081
  395MOL0     H53267   8.907  11.413   4.608  2.1386 -2.2419  1.5707
  395MOL0     H53268   8.982  11.641   4.552 -0.1914 -0.2472 -0.2564
  395MOL0     H53269   9.072  11.574   4.406  0.1482  1.1632 -1.7540
  395MOL0     H53270   8.865  11.672   4.330 -0.8771 -2.5198 -3.2890
  395MOL0     H53271   8.852  11.500   4.308 -2.8719 -2.8724  3.3238
  395MOL0     H53272   8.737  11.633   4.550  2.0793 -1.8070  0.6613
  395MOL0     H53273   8.709  11.473   4.502  0.1071  0.5817  2.1769
  395MOL0     H53274   8.501  11.579   4.457 -1.3781  0.7962 -1.1217
  395MOL0     H53275   8.576  11.722   4.370 -0.3538 -0.0505  0.0806
  395MOL0     H53276   8.690  11.647   4.127 -0.4840  0.7115  0.3189
  395MOL0     H53277   8.550  11.451   3.851 -1.6324  4.6324 -0.1353
  395MOL0     H53278   8.676  11.564   3.895  0.7237 -0.1794  0.6360
  395MOL0     H53279   8.786  11.351   4.017 -0.0883 -2.8703  0.2748
  395MOL0     H53280   8.672  11.251   3.932  2.7703 -1.2571 -0.6679
  395MOL0     H53281   8.851  11.431   3.767 -1.5879 -0.1372 -0.1707
  395MOL0     H53282   8.782  11.272   3.723  4.1678 -1.7135 -1.0924
  395MOL0     H53283   8.932  11.155   3.872  1.2208 -0.5276 -1.9714
  395MOL0     H53284   8.975  11.306   3.948 -0.2837  0.6803 -0.2574
  395MOL0     H53285   9.144  11.208   3.996  0.6814  0.1666  0.9876
  395MOL0     H53286   9.337  11.088   4.043  1.4802  0.8123  0.6777
  395MOL0     H53287   9.856  11.070   3.700 -0.1580  0.3741  1.6722
  395MOL0     H53288  10.059  10.939   3.772  0.1674 -0.7572 -0.4117
  395MOL0     H53289  10.152  10.827   3.996 -0.1723  0.0827 -0.1651
  395MOL0     H53290  10.224  10.659   3.998 -3.1752 -0.4252  2.7526
  395MOL0     H53291  10.337  10.668   3.828 -0.4963  0.0629 -1.5086
  395MOL0     H53292  10.223  10.754   3.730 -1.1046 -3.9749 -0.2032
  395MOL0     H53293  10.265  10.974   3.856 -1.2352 -1.2483 -0.8445
  395MOL0     H53294  10.401  10.909   3.932  2.1512  2.6900 -0.8509
  395MOL0     H53295  10.361  10.924   3.630  2.4149  0.9542 -1.7302
  395MOL0     H53296  10.504  10.849   3.715  2.7669  0.7678 -1.1834
  395MOL0     H53297  10.523  11.080   3.819  2.9120 -1.3583 -0.6675
  395MOL0     H53298  10.423  11.147   3.696 -3.5018 -1.5151  2.3812
  395MOL0     H53299  10.656  11.172   3.625 -0.1588 -0.0975  0.2027
  395MOL0     H53300  10.692  11.005   3.644  0.3899  1.0931  0.8139
  395MOL0     H53301  10.517  10.947   3.461 -2.0347  0.4687 -0.1536
  395MOL0     H53302  10.654  11.035   3.400 -1.7140 -0.8120 -0.2490
  395MOL0     H53303  10.414  11.194   3.483 -0.9013  1.2703 -1.3504
  395MOL0     H53304  10.558  11.250   3.407  0.9720 -0.5494 -0.1378
  395MOL0     H53305   9.808  10.622   3.915 -2.2722  0.7882 -1.0915
  395MOL0     H53306   9.608  10.780   3.882 -0.2192  0.1402  0.4077
  395MOL0     H53307   9.476  11.164   3.635  1.0900  3.1709 -0.4793
  395MOL0     H53308   9.240  11.235   3.585  0.5947  1.1919  0.4320
  395MOL0     H53309   9.360  10.987   4.391  1.3203 -1.5634  0.3442
  395MOL0     H53310   9.591  10.903   4.452 -2.7864  0.0295  1.8548
  395MOL0     H53311  10.040  10.772   4.560  1.1374 -1.1168  0.4263
  395MOL0     H53312  10.256  10.716   4.462  1.9418  1.0178 -1.8209
  395MOL0     H53313  10.374  10.610   4.310  0.2330  0.5195  1.7327
  395MOL0     H53314  10.501  10.714   4.367  2.1815 -1.7861 -1.0056
  395MOL0     H53315  10.595  10.743   4.128 -1.9606  0.7969 -3.6302
  395MOL0     H53316  10.468  10.638   4.072  0.1352 -0.5042  0.3742
  395MOL0     H53317  10.528  10.463   4.213 -1.0557  0.3515 -0.8183
  395MOL0     H53318  10.676  10.564   4.260  1.5541  0.1325 -2.6057
  395MOL0     H53319  10.755  10.572   4.051 -2.1227  1.9231  0.6919
  395MOL0     H53320  10.730  10.401   4.096 -2.2012 -1.1711 -0.1743
  395MOL0     H53321  10.543  10.459   3.728  0.2320  2.2015 -0.4679
  395MOL0     H53322  10.198  10.977   4.135  1.9008  1.7479  0.6526
  395MOL0     H53323   9.944  11.149   4.215 -0.4578 -0.0480 -0.4500
  395MOL0     H53324   9.980  11.039   4.086  0.1940  0.0326 -0.1333
  395MOL0     H53325   9.840  11.000   4.193 -0.5337 -0.6162 -0.9275
  396MOL0     O53326   3.969   6.074   5.513 -0.2298 -0.0315  0.0758
  396MOL0     C53327   3.956   6.135   5.617  0.8616 -0.2384 -0.2946
  396MOL0     O53328   4.047   6.219   5.662 -0.2958 -0.2434 -0.1188
  396MOL0     C53329   4.163   6.261   5.592  0.7344  1.0427 -0.4947
  396MOL0     C53330   4.254   6.165   5.544  0.3925  0.3565  0.4467
  396MOL0     C53331   4.371   6.202   5.482  0.5684  0.7936 -0.0518
  396MOL0     C53332   4.396   6.335   5.462 -0.3613 -0.8054  0.1601
  396MOL0     O53333   4.501   6.374   5.388  0.0428 -0.4020  0.2465
  396MOL0     C53334   4.628   6.307   5.424 -0.3381 -1.3435  0.0468
  396MOL0     C53335   4.738   6.372   5.340 -1.0095  0.3959 -0.2641
  396MOL0     C53336   4.869   6.312   5.381 -0.6697  0.4633 -0.8244
  396MOL0     C53337   4.969   6.367   5.296  0.4144 -0.3617 -0.2797
  396MOL0     C53338   5.112   6.323   5.322  0.5758  0.0389 -0.3886
  396MOL0     C53339   5.168   6.375   5.458 -0.2297 -0.1799  0.2662
  396MOL0     C53340   5.316   6.327   5.464  0.4471 -0.5990  0.4756
  396MOL0     C53341   5.366   6.354   5.613  0.5791 -0.8728 -0.4333
  396MOL0     N53342   5.512   6.350   5.612 -0.5822  0.0949 -0.2703
  396MOL0     C53343   5.600   6.426   5.539 -0.1261  0.4564 -0.4401
  396MOL0     C53344   5.717   6.369   5.568 -0.8778  0.0854 -0.8162
  396MOL0     C53345   5.841   6.433   5.519  0.3397  0.2287 -0.6498
  396MOL0     C53346   5.965   6.394   5.607  0.9505  0.3996 -0.9748
  396MOL0     C53347   6.100   6.452   5.556  0.3410 -0.0407 -0.5304
  396MOL0     C53348   6.223   6.402   5.629 -0.2988  0.2347  0.4116
  396MOL0     O53349   6.329   6.487   5.587 -0.8845  0.6291  0.7541
  396MOL0     C53350   6.458   6.463   5.629 -0.2804 -1.2842  0.2355
  396MOL0     C53351   6.504   6.359   5.712 -0.4331 -0.2178 -0.2365
  396MOL0     C53352   6.641   6.345   5.744 -0.2553 -0.1756  0.2420
  396MOL0     C53353   6.733   6.434   5.695  0.1176  0.3004  0.3158
  396MOL0     C53354   6.878   6.423   5.735  0.5525 -0.3605  0.9362
  396MOL0     O53355   6.899   6.315   5.805 -0.3066 -0.5956  0.2388
  396MOL0     C53356   7.019   6.287   5.864  0.2526 -0.2680 -0.1200
  396MOL0     C53357   7.028   6.158   5.913  0.0288 -0.2068 -0.0540
  396MOL0     C53358   7.139   6.111   5.976 -0.4090  0.5471 -0.3147
  396MOL0     C53359   7.250   6.191   6.000  0.4692 -1.0340 -0.5137
  396MOL0     O53360   7.361   6.144   6.072  0.3039 -0.1063 -0.0488
  396MOL0     C53361   7.482   6.216   6.073  0.3234  0.1947 -1.0324
  396MOL0     C53362   7.588   6.119   6.125 -0.4073  1.2485 -0.2998
  396MOL0     C53363   7.585   5.990   6.056  0.6458  0.2062 -0.3678
  396MOL0     C53364   7.697   5.891   6.086 -0.9674  0.2476  0.1222
  396MOL0     C53365   7.688   5.755   6.026 -0.9925  1.4152 -0.0979
  396MOL0     C53366   7.688   5.760   5.871  0.5251  0.6519 -0.0521
  396MOL0     C53367   7.711   5.622   5.790  0.2863 -0.5035 -0.0371
  396MOL0     C53368   7.834   5.547   5.829 -0.8152 -0.3040  0.8325
  396MOL0    Cl53369   7.975   5.648   5.862 -0.1228  0.1805 -0.2880
  396MOL0     C53370   7.242   6.325   5.954  0.1294 -0.4522 -0.1790
  396MOL0     C53371   7.129   6.377   5.884 -0.0999  0.0634  0.3399
  396MOL0     O53372   6.962   6.507   5.695 -1.2287  0.5516 -0.1721
  396MOL0     C53373   6.688   6.536   5.604  0.1297  0.1723  0.2701
  396MOL0     C53374   6.546   6.551   5.576 -0.3206 -0.6134  0.1886
  396MOL0     N53375   5.703   6.268   5.663  0.7871 -1.3529  0.5174
  396MOL0     N53376   5.578   6.263   5.693  0.2567  0.4443 -0.0169
  396MOL0     C53377   4.290   6.426   5.493 -0.5375 -0.0845  0.0905
  396MOL0     C53378   4.182   6.393   5.566  0.0688 -0.3449  0.2286
  396MOL0     C53379   3.838   6.091   5.702  0.4135  0.6097 -0.0646
  396MOL0     C53380   3.781   6.183   5.793  0.3324  0.3331  0.4038
  396MOL0     C53381   3.669   6.144   5.864  0.0276 -0.1215 -0.0673
  396MOL0     C53382   3.604   6.019   5.850 -0.5669  0.3050 -0.2525
  396MOL0     O53383   3.497   6.009   5.932 -0.1988 -0.4166 -0.9302
  396MOL0     C53384   3.449   5.880   5.964 -0.8409  0.1481  1.0890
  396MOL0     C53385   3.362   5.883   6.082  0.4164  0.5338 -0.1340
  396MOL0     C53386   3.288   5.750   6.101 -0.4803 -0.2306  0.5810
  396MOL0     C53387   3.350   5.673   6.224 -0.4128 -1.1890  0.2811
  396MOL0     C53388   3.377   5.533   6.192  0.4043  0.0340  0.2714
  396MOL0     C53389   3.411   5.423   6.168  0.7629 -0.2703  0.0999
  396MOL0     C53390   3.663   5.923   5.764  0.3674  0.3271 -0.4735
  396MOL0     C53391   3.787   5.957   5.698 -0.1135  1.1086  0.6884
  396MOL0     C53392   3.834   5.845   5.608 -0.1552  0.5111  0.4699
  396MOL0     H53393   4.230   6.061   5.563 -3.2563  0.6962 -1.3655
  396MOL0     H53394   4.433   6.119   5.450 -0.7517 -0.6907  1.0689
  396MOL0     H53395   4.653   6.331   5.528 -0.0553  3.2560 -0.8790
  396MOL0     H53396   4.626   6.198   5.415 -3.3783 -1.4117  0.3036
  396MOL0     H53397   4.738   6.481   5.351  0.7253  0.5793 -1.6622
  396MOL0     H53398   4.723   6.357   5.233  3.7534  0.9659 -1.2031
  396MOL0     H53399   4.867   6.206   5.353  0.8020  0.2550 -0.2175
  396MOL0     H53400   4.891   6.337   5.485  1.6088  3.2700 -1.8582
  396MOL0     H53401   4.950   6.343   5.191  1.4567 -0.4719 -0.4497
  396MOL0     H53402   4.962   6.474   5.316  0.9875 -0.4931  0.6725
  396MOL0     H53403   5.119   6.214   5.320  2.3709  0.1396 -1.3905
  396MOL0     H53404   5.173   6.367   5.243  0.3972  2.4083  0.6936
  396MOL0     H53405   5.167   6.484   5.458 -2.3601 -0.0618 -3.0716
  396MOL0     H53406   5.108   6.347   5.545  1.4071  0.2810  1.6043
  396MOL0     H53407   5.379   6.385   5.395 -1.9244  1.0254 -0.4849
  396MOL0     H53408   5.336   6.220   5.449  2.0128 -0.6127  2.2969
  396MOL0     H53409   5.340   6.453   5.651 -0.2649 -1.6024  0.9585
  396MOL0     H53410   5.332   6.276   5.682  0.1756 -0.2241  0.1092
  396MOL0     H53411   5.580   6.515   5.480 -0.1579  0.1187 -0.9528
  396MOL0     H53412   5.854   6.399   5.416 -4.3519 -1.4188 -0.9013
  396MOL0     H53413   5.825   6.541   5.523 -1.3125 -0.0330  2.2627
  396MOL0     H53414   5.952   6.426   5.711 -2.3105  0.5280 -1.3112
  396MOL0     H53415   5.967   6.285   5.618 -1.5646  0.5192  1.9086
  396MOL0     H53416   6.107   6.560   5.572  2.6735  0.5383 -4.3201
  396MOL0     H53417   6.101   6.440   5.447 -1.1659 -0.1405 -0.5610
  396MOL0     H53418   6.240   6.296   5.611 -3.9651 -0.4320  0.0962
  396MOL0     H53419   6.200   6.423   5.734 -0.8460  4.0289 -0.3046
  396MOL0     H53420   6.436   6.285   5.752 -0.0436 -0.2799  0.3241
  396MOL0     H53421   6.669   6.262   5.807  3.7393  1.1861  0.5472
  396MOL0     H53422   6.944   6.092   5.892  1.5687 -3.5345  3.1204
  396MOL0     H53423   7.140   6.008   6.010 -1.9404  1.0677  1.4723
  396MOL0     H53424   7.507   6.247   5.971 -1.7118  3.7600 -0.6084
  396MOL0     H53425   7.478   6.308   6.133  0.0985  0.9721 -2.1978
  396MOL0     H53426   7.686   6.166   6.113 -0.8429  1.5722 -3.4038
  396MOL0     H53427   7.570   6.108   6.232 -1.1868  0.3511 -0.5021
  396MOL0     H53428   7.499   5.935   6.095  2.4511 -2.4722  0.0939
  396MOL0     H53429   7.575   6.013   5.950  1.3425 -1.0739 -0.7280
  396MOL0     H53430   7.710   5.893   6.194 -1.0133 -0.1127  0.1351
  396MOL0     H53431   7.789   5.935   6.048 -0.3323 -1.7132 -0.7304
  396MOL0     H53432   7.596   5.700   6.051 -0.0352 -0.0551  0.2995
  396MOL0     H53433   7.772   5.703   6.073 -2.7628  0.6535  2.4733
  396MOL0     H53434   7.601   5.811   5.828 -0.1059 -1.0738 -0.9239
  396MOL0     H53435   7.773   5.821   5.839  2.3296 -1.6585  0.0834
  396MOL0     H53436   7.729   5.656   5.688  0.8209  2.0423  0.8324
  396MOL0     H53437   7.623   5.557   5.792 -0.0013 -0.1107  0.2458
  396MOL0     H53438   7.818   5.495   5.924 -0.7030 -2.6627 -0.3777
  396MOL0     H53439   7.864   5.474   5.754  0.6637  0.6463  0.4617
  396MOL0     H53440   7.315   6.404   5.970  0.3019 -0.3696 -1.3255
  396MOL0     H53441   7.125   6.481   5.854  0.5159 -0.5101 -1.8657
  396MOL0     H53442   6.758   6.602   5.555 -0.3644  2.4330  2.3973
  396MOL0     H53443   6.509   6.631   5.514  4.1812  0.2784 -1.7658
  396MOL0     H53444   4.299   6.527   5.454 -2.0666 -0.7757 -2.2579
  396MOL0     H53445   4.106   6.463   5.602 -0.8921 -0.9546 -0.5465
  396MOL0     H53446   3.817   6.285   5.806  0.1678  0.3338  0.8595
  396MOL0     H53447   3.619   6.218   5.927 -0.0116  0.0697 -0.3226
  396MOL0     H53448   3.531   5.811   5.989 -0.8872 -0.9066 -1.4036
  396MOL0     H53449   3.391   5.839   5.881 -0.9537  0.6561  0.9180
  396MOL0     H53450   3.286   5.960   6.067  2.1764  2.5292  0.6981
  396MOL0     H53451   3.417   5.916   6.170  0.3415 -1.4059  0.6950
  396MOL0     H53452   3.284   5.683   6.015 -3.1365  0.5800 -0.0144
  396MOL0     H53453   3.182   5.772   6.114 -0.3420  1.5370 -0.9672
  396MOL0     H53454   3.441   5.727   6.251 -0.4282 -0.6722 -0.6435
  396MOL0     H53455   3.290   5.680   6.315  1.2579  0.1179  1.3383
  396MOL0     H53456   3.425   5.323   6.132  1.5957  0.3520 -1.4536
  396MOL0     H53457   3.613   5.827   5.759  0.0485  0.2379  2.4989
  396MOL0     H53458   3.943   5.841   5.620 -0.1334  1.8845  0.8570
  396MOL0     H53459   3.795   5.744   5.621 -2.7040  1.4208  0.4077
  396MOL0     H53460   3.812   5.873   5.504 -1.3548 -1.3197  0.1699
  397MOL0     O53461   0.512  10.636   2.993  0.5576  0.2707 -0.2120
  397MOL0     C53462   0.414  10.702   2.975  0.0800 -0.5629  0.2905
  397MOL0     O53463   0.326  10.677   2.871 -0.3386 -0.3508  0.4047
  397MOL0     C53464   0.366  10.602   2.766 -0.4500  0.4217  0.0763
  397MOL0     C53465   0.411  10.657   2.648  1.5723 -0.9266  0.2411
  397MOL0     C53466   0.468  10.582   2.543 -0.5347  0.3397 -0.0156
  397MOL0     C53467   0.469  10.442   2.544 -0.5114 -0.6223  0.7802
  397MOL0     O53468   0.509  10.357   2.446  0.4217 -0.4655  0.4783
  397MOL0     C53469   0.588  10.408   2.338  0.7170 -0.2544 -0.0150
  397MOL0     C53470   0.589  10.293   2.233 -0.1836 -0.1844  0.2468
  397MOL0     C53471   0.695  10.316   2.124 -0.4102 -0.0991  0.2360
  397MOL0     C53472   0.719  10.193   2.030 -0.5736 -0.7640  0.1195
  397MOL0     C53473   0.858  10.180   1.966  0.0237  0.0975  0.0358
  397MOL0     C53474   0.910  10.311   1.898  0.3480  0.8361 -0.4746
  397MOL0     C53475   1.052  10.290   1.833  0.6512  0.4015 -0.1187
  397MOL0     C53476   1.086  10.388   1.735 -0.0206 -0.3341 -0.1725
  397MOL0     N53477   1.231  10.381   1.698  0.4210  0.0492  0.0626
  397MOL0     C53478   1.310  10.264   1.698  0.0408 -0.1164 -0.2855
  397MOL0     C53479   1.425  10.301   1.647 -0.3765 -0.0136 -0.0719
  397MOL0     C53480   1.542  10.216   1.604 -0.3103  0.3922  0.3712
  397MOL0     C53481   1.639  10.190   1.715  0.0927 -0.5251 -0.1865
  397MOL0     C53482   1.762  10.106   1.657  0.4885  0.2273  0.7806
  397MOL0     C53483   1.864  10.060   1.758 -0.5919  0.0096  0.5001
  397MOL0     O53484   1.926  10.173   1.826 -0.0006  0.4486 -0.3313
  397MOL0     C53485   2.059  10.187   1.849  0.1723 -0.3313  0.3359
  397MOL0     C53486   2.157  10.092   1.810  0.1806  0.1332  0.2793
  397MOL0     C53487   2.297  10.118   1.835 -0.2383 -0.3239 -0.7143
  397MOL0     C53488   2.335  10.236   1.893  0.2384 -0.0295  0.0193
  397MOL0     C53489   2.482  10.268   1.914  0.8119  0.0091 -0.1097
  397MOL0     O53490   2.511  10.402   1.939 -0.1763  0.2681 -0.0392
  397MOL0     C53491   2.642  10.427   1.978 -0.8367 -0.4070 -0.6363
  397MOL0     C53492   2.747  10.411   1.882 -0.7711  0.2795 -0.2555
  397MOL0     C53493   2.884  10.450   1.913  0.9489  0.2763 -0.0364
  397MOL0     C53494   2.914  10.509   2.038  0.1620 -0.5906  0.3635
  397MOL0     O53495   3.040  10.544   2.083  0.0068  0.1858  0.9234
  397MOL0     C53496   3.113  10.634   1.995  0.3199  0.0193  0.8789
  397MOL0     C53497   3.240  10.683   2.049 -0.1946 -0.3320 -0.2259
  397MOL0     C53498   3.367  10.595   2.017  0.0125  0.2705  0.1117
  397MOL0     C53499   3.390  10.498   2.141  0.5874  0.3004 -0.1189
  397MOL0     C53500   3.478  10.383   2.124 -0.1061 -0.1692  0.6900
  397MOL0     C53501   3.493  10.282   2.241 -1.0944 -0.8930 -1.1592
  397MOL0     C53502   3.368  10.205   2.258  0.1557 -0.0240  0.1387
  397MOL0     C53503   3.397  10.113   2.377  0.3212  0.1457 -0.2140
  397MOL0    Cl53504   3.242  10.055   2.465  0.1921 -0.3522 -0.1001
  397MOL0     C53505   2.806  10.528   2.127  0.0827 -0.1001  0.4362
  397MOL0     C53506   2.675  10.493   2.101  0.0796 -0.2429 -0.0088
  397MOL0     O53507   2.562  10.173   1.921 -0.0060 -0.2619 -0.5979
  397MOL0     C53508   2.239  10.329   1.922 -0.4000  0.0920 -0.0735
  397MOL0     C53509   2.100  10.302   1.900 -0.6985 -0.8207 -0.5833
  397MOL0     N53510   1.413  10.438   1.620 -0.0288 -0.2502  0.3811
  397MOL0     N53511   1.294  10.484   1.648 -0.5094  0.3304  0.2609
  397MOL0     C53512   0.413  10.382   2.660 -0.1809  0.2440 -0.4957
  397MOL0     C53513   0.373  10.462   2.770 -0.7815 -0.7068  0.1393
  397MOL0     C53514   0.384  10.802   3.086 -0.1121  0.4662 -0.1122
  397MOL0     C53515   0.254  10.855   3.088  0.0690 -0.3378 -0.6346
  397MOL0     C53516   0.210  10.951   3.179  0.3637 -0.2149  0.0993
  397MOL0     C53517   0.302  11.014   3.257 -0.0613 -0.6958 -0.7872
  397MOL0     O53518   0.260  11.102   3.351  0.8794 -0.9481 -0.7736
  397MOL0     C53519   0.332  11.223   3.365 -0.6966  0.7391 -0.5576
  397MOL0     C53520   0.247  11.342   3.379 -0.4841  0.4900  0.5559
  397MOL0     C53521   0.150  11.333   3.497  1.2304  0.3083  0.0989
  397MOL0     C53522   0.067  11.464   3.506 -0.0710  0.2502  0.2100
  397MOL0     C53523  -0.046  11.455   3.417  0.3197  1.1024 -0.1461
  397MOL0     C53524  -0.136  11.447   3.344  0.3223  0.8096  0.0470
  397MOL0     C53525   0.435  10.964   3.254  0.2305  0.3436  0.1190
  397MOL0     C53526   0.483  10.864   3.174 -0.0898 -0.0617  0.7010
  397MOL0     C53527   0.625  10.809   3.192 -0.2781  0.1195  0.2868
  397MOL0     H53528   0.428  10.764   2.651 -1.0816 -0.4660  1.6150
  397MOL0     H53529   0.499  10.639   2.456 -0.4495  0.5410  0.1451
  397MOL0     H53530   0.539  10.492   2.288  1.7704  1.2910  1.4517
  397MOL0     H53531   0.688  10.434   2.371  0.3190 -0.3681  1.3173
  397MOL0     H53532   0.485  10.293   2.200 -0.0485  0.0555 -0.1912
  397MOL0     H53533   0.600  10.196   2.283 -1.1222 -0.8094 -0.7093
  397MOL0     H53534   0.788  10.348   2.171 -1.1249  2.9847 -0.2422
  397MOL0     H53535   0.662  10.399   2.061  1.7210 -0.5590 -1.6063
  397MOL0     H53536   0.712  10.102   2.090 -2.5584 -0.6961  0.0479
  397MOL0     H53537   0.649  10.197   1.946 -0.4061 -0.6674 -0.0162
  397MOL0     H53538   0.933  10.152   2.041  1.4216  1.2862 -0.8437
  397MOL0     H53539   0.853  10.101   1.890  1.0830 -0.4505  0.5062
  397MOL0     H53540   0.840  10.339   1.819 -2.7975 -2.9726  0.6386
  397MOL0     H53541   0.913  10.389   1.976  0.8069 -0.6273  1.0367
  397MOL0     H53542   1.043  10.190   1.790 -1.6609 -0.0510  1.2047
  397MOL0     H53543   1.126  10.277   1.913 -1.4282  0.1911  1.8976
  397MOL0     H53544   1.026  10.379   1.644  2.3723 -0.2697 -1.8536
  397MOL0     H53545   1.078  10.484   1.786  2.7648 -1.8118  3.5842
  397MOL0     H53546   1.284  10.163   1.727  1.2908 -0.3064  0.2263
  397MOL0     H53547   1.512  10.120   1.561 -0.2655  1.2235 -1.6633
  397MOL0     H53548   1.593  10.267   1.521 -0.3209 -2.8247 -1.8105
  397MOL0     H53549   1.670  10.290   1.746  1.8647 -0.6402 -1.4384
  397MOL0     H53550   1.582  10.144   1.796 -2.2238  1.9400 -0.2673
  397MOL0     H53551   1.820  10.164   1.584 -1.6816 -0.7803 -1.9562
  397MOL0     H53552   1.723  10.013   1.614 -0.2331 -0.1691  2.2297
  397MOL0     H53553   1.941   9.994   1.717 -0.0383  1.4004 -0.7789
  397MOL0     H53554   1.812   9.999   1.833  0.0608  0.1172  1.0593
  397MOL0     H53555   2.143  10.001   1.754 -2.6712  0.6306  0.0358
  397MOL0     H53556   2.370  10.042   1.810 -0.6027 -0.5077 -1.2274
  397MOL0     H53557   2.729  10.377   1.781 -0.6440 -1.3790  0.2406
  397MOL0     H53558   2.954  10.438   1.831 -1.7558 -1.2903 -2.3036
  397MOL0     H53559   3.132  10.570   1.908 -0.2421  0.5216  0.3712
  397MOL0     H53560   3.056  10.717   1.952 -0.0158 -0.6501 -0.0038
  397MOL0     H53561   3.258  10.783   2.010  0.7842 -0.2183  0.4561
  397MOL0     H53562   3.227  10.700   2.156 -0.6008 -0.1004 -0.3118
  397MOL0     H53563   3.343  10.534   1.930 -1.8071 -0.8161  1.3052
  397MOL0     H53564   3.457  10.653   1.995 -0.5637  1.7635  1.4705
  397MOL0     H53565   3.294  10.472   2.187  0.9909 -1.6578 -0.2727
  397MOL0     H53566   3.437  10.572   2.206 -1.5117  2.0952 -0.5367
  397MOL0     H53567   3.578  10.424   2.103 -0.5991  0.1545 -1.2756
  397MOL0     H53568   3.441  10.335   2.033  1.2915  3.0711 -1.8106
  397MOL0     H53569   3.588  10.227   2.233 -0.7298 -0.4387 -0.2012
  397MOL0     H53570   3.504  10.346   2.330 -1.4105  0.4584 -2.0706
  397MOL0     H53571   3.334  10.149   2.171  0.5606  0.4173 -0.3044
  397MOL0     H53572   3.288  10.268   2.298 -0.1610 -1.8438  2.6150
  397MOL0     H53573   3.451  10.026   2.338 -1.2548 -0.2424 -1.6685
  397MOL0     H53574   3.475  10.160   2.438  0.2026  4.8326 -3.1523
  397MOL0     H53575   2.818  10.582   2.220  1.8610 -0.5096  0.4894
  397MOL0     H53576   2.592  10.512   2.169 -0.4928 -3.8246  0.5085
  397MOL0     H53577   2.277  10.423   1.959 -0.7252 -0.1991  1.0368
  397MOL0     H53578   2.025  10.380   1.906  0.9589  0.7342  1.2801
  397MOL0     H53579   0.432  10.277   2.680  1.9448  0.7306  0.3432
  397MOL0     H53580   0.333  10.413   2.859 -0.8874  2.3864  1.9693
  397MOL0     H53581   0.179  10.808   3.025 -0.2633  0.0986 -0.5736
  397MOL0     H53582   0.104  10.974   3.182  0.2998 -0.4288 -0.4784
  397MOL0     H53583   0.400  11.235   3.280  1.1357 -2.5863  0.2556
  397MOL0     H53584   0.391  11.213   3.456 -1.5195  0.5064 -0.0338
  397MOL0     H53585   0.189  11.351   3.286  0.7844  1.4488 -0.1758
  397MOL0     H53586   0.309  11.432   3.374 -0.3299  0.3115 -1.6941
  397MOL0     H53587   0.198  11.332   3.595  0.0099  0.3791  0.7176
  397MOL0     H53588   0.082  11.248   3.488  1.5472  0.1775 -1.2548
  397MOL0     H53589   0.036  11.489   3.608 -1.4761 -0.5087  0.0020
  397MOL0     H53590   0.133  11.544   3.472  0.6674 -1.3602 -2.5409
  397MOL0     H53591  -0.213  11.451   3.270  0.8772  0.9653 -0.5325
  397MOL0     H53592   0.506  11.010   3.323  2.0701 -3.3038  0.8826
  397MOL0     H53593   0.670  10.853   3.282 -0.1182 -1.4459  1.0192
  397MOL0     H53594   0.634  10.701   3.210  2.5347  0.4627  1.4512
  397MOL0     H53595   0.692  10.832   3.109  0.1442  0.5046  0.7283
  398MOL0     O53596   5.049   6.891   7.558  0.1459 -0.2818  0.2367
  398MOL0     C53597   5.133   6.982   7.557 -0.1404  0.2508 -0.7735
  398MOL0     O53598   5.149   7.083   7.461 -0.2588  0.3314 -0.2484
  398MOL0     C53599   5.058   7.081   7.358  0.3842  0.1412  0.0292
  398MOL0     C53600   4.920   7.105   7.381  0.2811  0.1805  0.1723
  398MOL0     C53601   4.829   7.083   7.274 -0.1014  0.0068 -0.0476
  398MOL0     C53602   4.879   7.052   7.150 -0.4217 -0.6216  0.8676
  398MOL0     O53603   4.792   7.032   7.045  0.0492 -0.0160  0.5079
  398MOL0     C53604   4.670   7.104   7.038 -0.0388 -0.2817 -0.6683
  398MOL0     C53605   4.629   7.120   6.894 -0.0919 -0.1867 -0.4654
  398MOL0     C53606   4.608   6.987   6.829 -0.1121 -0.0448  0.1618
  398MOL0     C53607   4.626   6.996   6.676  0.1789  0.0995 -0.0516
  398MOL0     C53608   4.564   6.877   6.604  0.2565 -0.3146 -0.0615
  398MOL0     C53609   4.586   6.881   6.453  0.1217  0.8542  0.9540
  398MOL0     C53610   4.538   7.009   6.371 -0.1855  0.3039  0.8930
  398MOL0     C53611   4.474   6.958   6.243 -0.8757 -1.4056 -0.2171
  398MOL0     N53612   4.569   6.892   6.150 -0.4617 -0.1017  0.0284
  398MOL0     C53613   4.704   6.913   6.137 -0.1778 -0.7393  0.1844
  398MOL0     C53614   4.742   6.847   6.025 -0.5324 -0.4821 -0.8683
  398MOL0     C53615   4.875   6.851   5.967 -0.0503 -0.1958 -0.6277
  398MOL0     C53616   4.865   6.930   5.839  0.0601  0.0376  0.1339
  398MOL0     C53617   4.841   7.080   5.866  0.2304  0.0422 -0.8950
  398MOL0     C53618   4.865   7.178   5.747  0.4361  0.3044  0.4708
  398MOL0     O53619   4.876   7.311   5.798 -0.1344 -0.4518 -0.2205
  398MOL0     C53620   4.986   7.367   5.854  0.7291 -0.3953  0.0631
  398MOL0     C53621   5.110   7.305   5.841  0.3755 -0.3545  0.4477
  398MOL0     C53622   5.213   7.370   5.907 -0.4779 -0.3909 -0.3687
  398MOL0     C53623   5.191   7.476   5.995  0.1268 -0.4858 -0.0072
  398MOL0     C53624   5.303   7.525   6.078  0.1361  0.2196 -0.3777
  398MOL0     O53625   5.423   7.463   6.062 -0.3392 -0.4059  0.1203
  398MOL0     C53626   5.519   7.491   6.146 -0.4562  0.6541  0.0819
  398MOL0     C53627   5.585   7.610   6.158  0.3320 -0.2699 -0.3547
  398MOL0     C53628   5.684   7.629   6.256  0.4139  0.4805  0.3701
  398MOL0     C53629   5.720   7.526   6.347  0.2693  0.7731  0.1120
  398MOL0     O53630   5.824   7.528   6.436 -0.6758  0.1485  0.0375
  398MOL0     C53631   5.883   7.653   6.476 -0.0177 -0.0133  0.2814
  398MOL0     C53632   5.985   7.633   6.593  1.3873  0.5342  0.1814
  398MOL0     C53633   6.046   7.765   6.616 -0.0379  0.6572  0.3193
  398MOL0     C53634   6.136   7.763   6.743  0.0225  1.0745  0.7709
  398MOL0     C53635   6.179   7.904   6.782 -0.0917 -0.0307  0.1473
  398MOL0     C53636   6.264   7.890   6.906 -0.1507  0.2168 -0.7389
  398MOL0     C53637   6.286   8.016   6.983 -1.0516 -0.1303 -0.6415
  398MOL0     C53638   6.358   8.112   6.897 -0.7715 -0.5574 -0.7669
  398MOL0    Cl53639   6.525   8.045   6.854 -0.0541  0.2520 -0.0539
  398MOL0     C53640   5.654   7.405   6.337  0.1967 -0.5339  0.2267
  398MOL0     C53641   5.557   7.385   6.233  0.5309 -0.6445 -0.1640
  398MOL0     O53642   5.284   7.618   6.149 -0.9744 -0.7940  0.5045
  398MOL0     C53643   5.060   7.533   6.009  0.6934  0.1689  0.3993
  398MOL0     C53644   4.959   7.474   5.935 -0.0766  0.6043  0.3923
  398MOL0     N53645   4.622   6.801   5.968  0.2689 -0.1802  0.4881
  398MOL0     N53646   4.520   6.834   6.039 -0.3237 -0.0924  0.3280
  398MOL0     C53647   5.020   7.032   7.135  0.3135  0.4373  0.3389
  398MOL0     C53648   5.107   7.057   7.235 -0.1582  0.7971 -0.4894
  398MOL0     C53649   5.223   6.987   7.677  0.0909 -0.4062 -0.5879
  398MOL0     C53650   5.333   7.077   7.676  0.2118 -0.0326 -0.5959
  398MOL0     C53651   5.429   7.079   7.779 -0.0589  0.5869 -0.1076
  398MOL0     C53652   5.428   6.989   7.885 -0.2726 -0.9066  0.1906
  398MOL0     O53653   5.529   7.005   7.980 -0.2050 -0.0336 -0.3663
  398MOL0     C53654   5.509   6.935   8.102  1.0177 -0.2385 -0.3847
  398MOL0     C53655   5.623   6.979   8.188 -0.7478  0.0311  0.2118
  398MOL0     C53656   5.760   6.938   8.136 -0.0358 -0.0533  0.0666
  398MOL0     C53657   5.868   6.937   8.244 -0.3581  0.1453  1.0557
  398MOL0     C53658   6.006   6.939   8.188 -0.6791 -0.0609  0.1325
  398MOL0     C53659   6.122   6.923   8.152  0.2656 -0.5274  0.0960
  398MOL0     C53660   5.322   6.907   7.883 -0.1497 -0.4216  0.5637
  398MOL0     C53661   5.210   6.910   7.794  0.8053  0.3127 -0.3787
  398MOL0     C53662   5.095   6.815   7.818 -0.2687  0.0842 -0.6835
  398MOL0     H53663   4.885   7.133   7.480  0.7947 -2.2517  1.1225
  398MOL0     H53664   4.723   7.100   7.287 -0.5726 -0.7572 -2.3835
  398MOL0     H53665   4.594   7.042   7.087 -1.9067  2.1015 -0.3747
  398MOL0     H53666   4.675   7.204   7.081  0.3653  0.0568 -1.4866
  398MOL0     H53667   4.710   7.172   6.842  2.1009 -1.1844  1.7600
  398MOL0     H53668   4.540   7.183   6.892 -0.7259 -0.9255  1.5873
  398MOL0     H53669   4.507   6.955   6.856 -0.0087 -0.8632 -0.3835
  398MOL0     H53670   4.688   6.920   6.864  4.3213  3.5707 -1.9593
  398MOL0     H53671   4.579   7.084   6.632  3.0658  0.8392 -1.9514
  398MOL0     H53672   4.732   7.010   6.652  1.0226 -2.0780  1.9401
  398MOL0     H53673   4.604   6.785   6.646 -0.2623 -1.0384 -1.1039
  398MOL0     H53674   4.457   6.890   6.621  0.2682  0.4224 -0.4754
  398MOL0     H53675   4.692   6.862   6.433 -0.4363 -1.8818  0.0400
  398MOL0     H53676   4.533   6.798   6.405  0.6824  1.7469 -1.3723
  398MOL0     H53677   4.621   7.077   6.352  1.2571 -1.0162  2.1530
  398MOL0     H53678   4.467   7.069   6.429 -2.2165 -0.0208 -1.1342
  398MOL0     H53679   4.390   6.894   6.273 -1.5200 -0.8085 -0.7229
  398MOL0     H53680   4.436   7.050   6.198  2.3078  1.6202  2.6802
  398MOL0     H53681   4.767   6.981   6.192 -1.3926  0.7912 -0.2453
  398MOL0     H53682   4.943   6.909   6.031  1.3500 -1.0501 -1.2839
  398MOL0     H53683   4.924   6.755   5.949  1.8187  0.3263  1.2326
  398MOL0     H53684   4.956   6.929   5.778 -1.3307 -1.3605 -2.0758
  398MOL0     H53685   4.787   6.880   5.781  0.4105 -0.5261  0.1468
  398MOL0     H53686   4.910   7.102   5.948 -0.8496  2.7031 -0.5762
  398MOL0     H53687   4.739   7.083   5.907 -0.0586 -2.7779 -1.1835
  398MOL0     H53688   4.770   7.175   5.693  0.1403 -0.0123  1.0043
  398MOL0     H53689   4.949   7.143   5.685 -0.2313  0.3949 -0.5175
  398MOL0     H53690   5.139   7.233   5.765 -0.7683 -0.6887  0.3012
  398MOL0     H53691   5.314   7.334   5.894  1.2850  3.5451  0.9761
  398MOL0     H53692   5.543   7.694   6.103  0.6100 -0.9293 -1.6215
  398MOL0     H53693   5.722   7.728   6.279 -0.8570  0.9579  0.4817
  398MOL0     H53694   5.929   7.695   6.386  0.0500 -2.6889 -1.0360
  398MOL0     H53695   5.809   7.728   6.505 -2.2057 -1.9124 -0.1104
  398MOL0     H53696   5.935   7.600   6.685  0.4293 -1.7017 -1.0690
  398MOL0     H53697   6.062   7.560   6.566 -0.7712 -1.0577 -2.1743
  398MOL0     H53698   6.099   7.801   6.527 -0.3206 -0.7770 -0.4553
  398MOL0     H53699   5.963   7.833   6.637 -1.5833 -0.8649 -0.6128
  398MOL0     H53700   6.230   7.711   6.722  0.0995  1.8906 -1.0539
  398MOL0     H53701   6.073   7.715   6.819 -0.5711 -1.6876 -1.2729
  398MOL0     H53702   6.093   7.967   6.807  0.2979  0.1722  1.0235
  398MOL0     H53703   6.228   7.947   6.693  2.2587 -1.0432  0.8859
  398MOL0     H53704   6.221   7.816   6.973  1.2163  1.0310  1.1531
  398MOL0     H53705   6.361   7.848   6.876  1.5597 -0.3190  4.4480
  398MOL0     H53706   6.337   7.987   7.076  0.3225  1.8907 -0.6977
  398MOL0     H53707   6.193   8.064   7.012 -0.9719  1.0050 -2.1526
  398MOL0     H53708   6.298   8.131   6.808 -2.6019  1.9914  0.8896
  398MOL0     H53709   6.382   8.210   6.939  3.4228 -1.9830  0.7350
  398MOL0     H53710   5.662   7.323   6.407 -2.1792  1.1803  2.7155
  398MOL0     H53711   5.495   7.296   6.227  0.2811 -0.4554 -0.4017
  398MOL0     H53712   5.036   7.619   6.071  0.6861 -1.2501  2.4424
  398MOL0     H53713   4.861   7.519   5.925 -0.7422 -0.2817  2.2604
  398MOL0     H53714   5.049   7.015   7.032 -2.3008 -3.4883  0.0533
  398MOL0     H53715   5.212   7.036   7.220 -0.8773 -2.6657 -1.8487
  398MOL0     H53716   5.362   7.144   7.596  3.6742 -2.1846 -1.3578
  398MOL0     H53717   5.512   7.148   7.769 -0.4883  1.2063  0.5320
  398MOL0     H53718   5.488   6.829   8.086 -2.6570  0.4493 -0.8985
  398MOL0     H53719   5.415   6.970   8.146  1.7336  1.2696  0.0406
  398MOL0     H53720   5.608   6.940   8.289 -0.9913  1.0226  0.5698
  398MOL0     H53721   5.616   7.085   8.213  2.2608 -0.3805  3.5524
  398MOL0     H53722   5.783   7.011   8.057 -2.3531 -0.2447 -0.8575
  398MOL0     H53723   5.753   6.842   8.085 -1.5370  0.1981 -0.2451
  398MOL0     H53724   5.866   7.034   8.295  1.6070  0.8672 -0.0997
  398MOL0     H53725   5.855   6.856   8.315 -1.9973  1.5519  2.4319
  398MOL0     H53726   6.227   6.913   8.135  0.0043 -0.6833 -1.5716
  398MOL0     H53727   5.311   6.835   7.964 -3.3654 -0.2423  0.4062
  398MOL0     H53728   5.090   6.722   7.760 -2.6060 -1.2667  1.4975
  398MOL0     H53729   5.100   6.782   7.922 -1.8243  0.1477 -0.5572
  398MOL0     H53730   5.000   6.868   7.804 -0.7711 -0.7456 -0.4543
  399MOL0     O53731   4.789   7.541   4.907  0.0452 -0.3488  0.0120
  399MOL0     C53732   4.809   7.605   5.010 -0.1396 -0.3530 -0.5556
  399MOL0     O53733   4.723   7.614   5.113  0.2352  0.6792 -0.1529
  399MOL0     C53734   4.587   7.583   5.101  0.1678  0.0672 -1.1501
  399MOL0     C53735   4.530   7.509   5.215 -0.4344 -0.8974  0.0422
  399MOL0     C53736   4.398   7.483   5.218  0.3555 -0.3531 -0.0642
  399MOL0     C53737   4.318   7.522   5.112  0.4546  0.1250  0.4081
  399MOL0     O53738   4.180   7.496   5.117  0.4192 -0.0455  0.2306
  399MOL0     C53739   4.091   7.522   5.007 -0.0540 -1.2542 -0.0628
  399MOL0     C53740   3.955   7.454   5.044  0.4095  0.6312  0.1765
  399MOL0     C53741   3.872   7.497   5.180 -0.0531 -0.3801 -0.2755
  399MOL0     C53742   3.804   7.635   5.152 -0.4795  0.8008 -0.6758
  399MOL0     C53743   3.731   7.678   5.283 -0.1558 -0.0259  0.5416
  399MOL0     C53744   3.702   7.827   5.266  0.7122 -0.7480  0.8705
  399MOL0     C53745   3.649   7.904   5.390 -0.0794  0.1316  0.3156
  399MOL0     C53746   3.741   7.880   5.507  0.3916 -0.0236  0.7223
  399MOL0     N53747   3.871   7.944   5.492 -1.1889 -0.0880  0.5778
  399MOL0     C53748   3.989   7.880   5.456  0.9254 -0.6613  0.2606
  399MOL0     C53749   4.069   7.989   5.436  0.1010 -0.5351  0.3117
  399MOL0     C53750   4.202   7.987   5.373 -0.9027  0.6391  0.4774
  399MOL0     C53751   4.197   8.021   5.225 -0.1996 -0.1193 -0.3969
  399MOL0     C53752   4.330   7.981   5.149  0.2968  0.4714  0.3909
  399MOL0     C53753   4.462   8.013   5.225  0.6191  0.1597  0.0957
  399MOL0     O53754   4.565   8.018   5.126 -0.4171 -0.3639 -0.3819
  399MOL0     C53755   4.691   8.015   5.166 -0.2292  0.1337  0.2320
  399MOL0     C53756   4.737   8.026   5.297  0.0824  0.6943  0.7097
  399MOL0     C53757   4.869   8.030   5.320 -0.0038 -0.3249  0.1530
  399MOL0     C53758   4.969   8.022   5.220 -0.7353  0.8411 -0.3374
  399MOL0     C53759   5.117   8.038   5.241  0.0212  0.5816 -0.4620
  399MOL0     O53760   5.159   8.001   5.365 -0.1530 -0.0550 -0.8131
  399MOL0     C53761   5.288   7.988   5.398 -0.7707 -0.7900  0.2750
  399MOL0     C53762   5.319   8.011   5.531 -0.3971  0.8125 -0.6512
  399MOL0     C53763   5.446   7.998   5.577  0.8084 -0.7489 -0.6829
  399MOL0     C53764   5.552   7.955   5.488  0.3588 -0.2995 -0.8195
  399MOL0     O53765   5.675   7.925   5.549 -0.5534 -0.4268 -0.1059
  399MOL0     C53766   5.780   7.974   5.461  0.4926 -0.1967 -0.0222
  399MOL0     C53767   5.852   7.868   5.385 -1.0287  0.9755  0.0111
  399MOL0     C53768   5.973   7.808   5.460 -0.0550 -0.5427 -0.0021
  399MOL0     C53769   6.040   7.701   5.369  0.3217 -0.3649 -0.1960
  399MOL0     C53770   6.148   7.623   5.447  0.5430  0.2656  0.1411
  399MOL0     C53771   6.252   7.709   5.525 -0.8592 -0.7056  0.2198
  399MOL0     C53772   6.381   7.629   5.568 -0.1459  0.2971  0.1887
  399MOL0     C53773   6.356   7.518   5.671  0.1770  0.2891 -0.1804
  399MOL0    Cl53774   6.282   7.576   5.824 -0.1584  0.0160  0.4346
  399MOL0     C53775   5.513   7.923   5.358  0.3148 -0.3196  0.4113
  399MOL0     C53776   5.387   7.939   5.313  0.0940  0.6395 -0.5308
  399MOL0     O53777   5.187   8.075   5.143 -0.0920 -0.1273 -0.3340
  399MOL0     C53778   4.925   8.009   5.088  0.1858 -0.6772 -0.0441
  399MOL0     C53779   4.785   8.008   5.062  0.4968  0.2434 -0.2819
  399MOL0     N53780   3.999   8.110   5.443 -0.4199  0.4370  0.0833
  399MOL0     N53781   3.878   8.076   5.476 -0.4326 -0.5938 -0.5049
  399MOL0     C53782   4.369   7.585   4.994  0.3048  0.6515  0.3298
  399MOL0     C53783   4.504   7.612   4.997  1.5607 -0.4730 -0.1217
  399MOL0     C53784   4.945   7.659   5.021  0.0742  0.0058 -0.5861
  399MOL0     C53785   5.025   7.616   5.127  0.1754 -0.0485 -0.0112
  399MOL0     C53786   5.158   7.648   5.145  0.9694  1.1948 -1.0131
  399MOL0     C53787   5.220   7.722   5.035  0.0043 -2.1033  0.1300
  399MOL0     O53788   5.351   7.742   5.038 -0.1657 -0.1156 -0.5481
  399MOL0     C53789   5.414   7.652   4.949 -0.4621 -0.4127 -0.1583
  399MOL0     C53790   5.562   7.627   4.981 -0.0811 -0.0654  0.0793
  399MOL0     C53791   5.589   7.569   5.122 -0.1935  0.5561 -0.9251
  399MOL0     C53792   5.733   7.575   5.173 -0.1509  0.0963  0.1132
  399MOL0     C53793   5.817   7.509   5.072 -0.1185 -0.4314  0.2454
  399MOL0     C53794   5.888   7.459   4.987 -0.0108  0.4674  0.3028
  399MOL0     C53795   5.141   7.773   4.930 -0.5013  0.1849  0.3245
  399MOL0     C53796   5.007   7.739   4.914 -0.2360 -0.6267 -0.7887
  399MOL0     C53797   4.930   7.801   4.804 -0.1853 -0.2901  0.4105
  399MOL0     H53798   4.604   7.481   5.289  1.6040 -0.2735 -1.6849
  399MOL0     H53799   4.357   7.432   5.306  1.8748 -2.4384 -0.4897
  399MOL0     H53800   4.080   7.631   5.000  1.0199 -1.0810  0.7283
  399MOL0     H53801   4.122   7.483   4.909  0.3969 -3.1407  0.7984
  399MOL0     H53802   3.979   7.347   5.047 -1.4331  0.2075  1.5597
  399MOL0     H53803   3.891   7.470   4.957 -0.0796  0.0363  0.4258
  399MOL0     H53804   3.944   7.501   5.263 -1.5817  0.6996  1.0514
  399MOL0     H53805   3.796   7.429   5.219 -1.1293  1.4039  0.8382
  399MOL0     H53806   3.886   7.704   5.133  0.7320  0.2998  2.1810
  399MOL0     H53807   3.738   7.635   5.065  0.6523  1.6374 -1.5498
  399MOL0     H53808   3.642   7.616   5.299 -1.8896  1.5321 -2.3027
  399MOL0     H53809   3.807   7.659   5.360  0.2469  1.0732  0.4281
  399MOL0     H53810   3.787   7.876   5.218  0.1623 -0.7771 -0.1757
  399MOL0     H53811   3.624   7.829   5.189  1.6944 -0.7476 -0.1411
  399MOL0     H53812   3.550   7.863   5.409 -0.2169  1.0750  1.7480
  399MOL0     H53813   3.640   8.009   5.360  0.5579 -0.4914 -2.3896
  399MOL0     H53814   3.693   7.929   5.592 -0.4650  0.4931 -0.0452
  399MOL0     H53815   3.753   7.774   5.532 -0.8140 -0.3018  0.1977
  399MOL0     H53816   4.006   7.773   5.453  1.1928 -0.6950 -4.5324
  399MOL0     H53817   4.262   8.058   5.432  0.9991 -1.2911  0.9887
  399MOL0     H53818   4.237   7.884   5.373 -1.8662  0.2398 -1.7362
  399MOL0     H53819   4.118   7.968   5.171 -1.0581 -0.3790  1.0768
  399MOL0     H53820   4.167   8.126   5.216 -1.4836 -0.3391  0.9098
  399MOL0     H53821   4.323   8.040   5.057  1.3439  0.6242  0.3986
  399MOL0     H53822   4.337   7.879   5.109  0.6230  0.9654 -0.8352
  399MOL0     H53823   4.487   7.939   5.302  2.5426 -0.8023 -1.3567
  399MOL0     H53824   4.453   8.109   5.277 -1.5418  1.3429 -2.2195
  399MOL0     H53825   4.674   8.031   5.385  0.5916 -2.6498  1.3728
  399MOL0     H53826   4.892   8.045   5.425 -1.6706 -0.7734  0.6135
  399MOL0     H53827   5.253   8.055   5.605  0.7554  2.8731 -0.7866
  399MOL0     H53828   5.461   8.032   5.679 -1.1296  1.7476 -1.1125
  399MOL0     H53829   5.733   8.044   5.392 -0.9189  1.5218  2.5539
  399MOL0     H53830   5.853   8.037   5.512 -0.5731 -0.6662  2.2056
  399MOL0     H53831   5.784   7.789   5.352  1.4238 -1.1713 -0.3088
  399MOL0     H53832   5.882   7.919   5.294 -2.7720 -1.3425 -1.9828
  399MOL0     H53833   6.051   7.875   5.497 -1.0996  1.6222 -1.5407
  399MOL0     H53834   5.925   7.752   5.542  0.6487 -0.8120  0.2368
  399MOL0     H53835   6.089   7.756   5.288  0.3127  1.8143  1.1932
  399MOL0     H53836   5.968   7.634   5.322 -1.1221  2.3345 -2.1185
  399MOL0     H53837   6.197   7.561   5.371 -1.8843 -0.7021 -0.7362
  399MOL0     H53838   6.092   7.559   5.515 -1.3105  0.1127 -1.4478
  399MOL0     H53839   6.278   7.792   5.458  0.1119  0.2341  1.7190
  399MOL0     H53840   6.221   7.759   5.617 -0.3310 -0.4486  0.2608
  399MOL0     H53841   6.437   7.714   5.608 -1.0534  0.8368  0.3366
  399MOL0     H53842   6.437   7.588   5.483  0.5274  1.2837  0.1462
  399MOL0     H53843   6.281   7.457   5.619  0.3157  1.1519 -1.4625
  399MOL0     H53844   6.447   7.461   5.692 -0.7262 -0.5635  1.6024
  399MOL0     H53845   5.585   7.894   5.283 -2.3403 -1.8187 -1.7677
  399MOL0     H53846   5.362   7.907   5.212 -0.8407 -2.4862  0.5921
  399MOL0     H53847   4.994   8.019   5.004  3.4275 -1.5664  2.2936
  399MOL0     H53848   4.753   7.999   4.959  0.3384 -0.2736 -0.1920
  399MOL0     H53849   4.307   7.612   4.910  2.8547 -0.5148 -2.0720
  399MOL0     H53850   4.559   7.671   4.924  1.5324 -2.5216 -1.9241
  399MOL0     H53851   4.979   7.552   5.202 -1.2432  2.0262  0.9771
  399MOL0     H53852   5.222   7.604   5.221 -1.7708 -0.9116  0.2810
  399MOL0     H53853   5.415   7.701   4.851  3.4650  0.1040 -0.0442
  399MOL0     H53854   5.359   7.558   4.952 -0.7139 -0.2393  0.7088
  399MOL0     H53855   5.615   7.721   4.964 -0.2157  0.2555  1.3346
  399MOL0     H53856   5.596   7.554   4.907 -1.6831 -3.2573  2.2683
  399MOL0     H53857   5.556   7.464   5.117  1.4143  0.1024 -3.8643
  399MOL0     H53858   5.518   7.615   5.191 -2.1600 -2.2054 -0.9292
  399MOL0     H53859   5.750   7.683   5.179 -1.8327  0.3206  2.5074
  399MOL0     H53860   5.741   7.526   5.271 -1.4909  0.7204  0.5628
  399MOL0     H53861   5.958   7.418   4.917  0.8522  2.9680 -0.3979
  399MOL0     H53862   5.179   7.836   4.850 -3.4424  2.3941  0.4912
  399MOL0     H53863   4.981   7.891   4.767  0.7854 -0.1743  1.9820
  399MOL0     H53864   4.927   7.732   4.719 -0.2558 -1.1740  1.1158
  399MOL0     H53865   4.828   7.833   4.829 -0.9468 -0.5979 -1.9810
  400MOL0     O53866   8.724   3.406   5.372  0.5010  0.3694  0.4697
  400MOL0     C53867   8.690   3.328   5.461  0.5844 -0.2821 -0.0011
  400MOL0     O53868   8.752   3.320   5.584 -0.2434  0.7028  0.3130
  400MOL0     C53869   8.845   3.415   5.611 -0.7979  0.5908 -0.0963
  400MOL0     C53870   8.805   3.550   5.627  0.2157 -0.4047 -0.0378
  400MOL0     C53871   8.901   3.651   5.651  0.4983 -0.4850  0.2762
  400MOL0     C53872   9.040   3.620   5.649  0.3716  0.6713 -0.0797
  400MOL0     O53873   9.122   3.725   5.666 -0.2402  0.4585  0.4227
  400MOL0     C53874   9.225   3.706   5.769 -0.0951 -0.2150  0.3418
  400MOL0     C53875   9.343   3.802   5.773 -0.8148  0.8535 -0.3551
  400MOL0     C53876   9.432   3.766   5.892 -0.7390  0.6027  0.2528
  400MOL0     C53877   9.535   3.865   5.928 -0.1825 -0.1289  0.3820
  400MOL0     C53878   9.597   3.852   6.067  0.2015 -1.0118 -0.0718
  400MOL0     C53879   9.732   3.929   6.058 -0.1436  0.4245  0.5168
  400MOL0     C53880   9.809   3.913   6.195 -0.4873 -0.2271 -0.4935
  400MOL0     C53881   9.949   3.967   6.193  0.3374 -0.0321 -0.5873
  400MOL0     N53882  10.029   3.912   6.088 -0.3155  0.7066 -0.2826
  400MOL0     C53883  10.104   3.790   6.100 -0.3882  0.5599 -0.0514
  400MOL0     C53884  10.181   3.792   5.990  0.2632  0.4217  0.4089
  400MOL0     C53885  10.290   3.692   5.956 -0.1808 -0.4270 -0.5156
  400MOL0     C53886  10.435   3.727   6.006 -0.3698 -0.0788  0.1152
  400MOL0     C53887  10.452   3.750   6.161  0.4657 -0.5932 -0.7769
  400MOL0     C53888  10.598   3.760   6.183 -0.9294 -0.2647 -0.0561
  400MOL0     O53889  10.655   3.626   6.162  0.1992 -0.0847  0.2720
  400MOL0     C53890  10.783   3.599   6.206  0.4566  0.7462  0.3937
  400MOL0     C53891  10.816   3.479   6.269 -0.5926  0.4460  0.4681
  400MOL0     C53892  10.939   3.457   6.324 -0.7847  1.0364 -0.3571
  400MOL0     C53893  11.039   3.543   6.305 -0.0827  0.7022 -0.9006
  400MOL0     C53894  11.175   3.528   6.368  0.6112  0.2277  0.5316
  400MOL0     O53895  11.264   3.621   6.341 -0.1679 -0.1594 -0.2063
  400MOL0     C53896  11.394   3.592   6.377  0.0228 -0.5781 -0.1796
  400MOL0     C53897  11.426   3.590   6.513 -0.1257 -0.0143  1.2412
  400MOL0     C53898  11.545   3.540   6.558 -0.0185  0.0787 -0.0202
  400MOL0     C53899  11.643   3.493   6.468  0.0529 -0.3228 -0.3237
  400MOL0     O53900  11.761   3.427   6.497 -0.1484  0.2108  0.2765
  400MOL0     C53901  11.858   3.504   6.573  0.1953  0.4806 -0.8172
  400MOL0     C53902  12.003   3.455   6.556  0.2697  0.6476 -0.4864
  400MOL0     C53903  12.049   3.485   6.411  0.6026  0.5646  0.3618
  400MOL0     C53904  12.183   3.425   6.369 -0.6985  0.0348  0.1054
  400MOL0     C53905  12.209   3.429   6.219  0.3008 -0.3955  0.3305
  400MOL0     C53906  12.355   3.438   6.174 -0.3776  1.2102  0.0519
  400MOL0     C53907  12.364   3.442   6.023 -0.0315 -0.5256  0.2084
  400MOL0     C53908  12.473   3.343   5.980  0.1428  0.1915 -0.2541
  400MOL0    Cl53909  12.635   3.431   6.006  0.5282  0.1164  0.0451
  400MOL0     C53910  11.615   3.490   6.337 -0.3710 -0.5791 -0.1830
  400MOL0     C53911  11.492   3.546   6.285  0.4601 -0.6319 -0.3127
  400MOL0     O53912  11.195   3.416   6.421  0.7071  0.1982 -0.0447
  400MOL0     C53913  11.012   3.661   6.230 -0.2021 -0.3514  0.1887
  400MOL0     C53914  10.887   3.687   6.184 -0.1411  0.7690 -0.0989
  400MOL0     N53915  10.158   3.915   5.918  1.2840 -0.0774 -0.1813
  400MOL0     N53916  10.058   3.978   5.975 -0.1548 -0.0084 -0.7076
  400MOL0     C53917   9.076   3.487   5.613 -0.4688 -0.4235 -0.0139
  400MOL0     C53918   8.979   3.389   5.605  0.2992  0.7966  0.8388
  400MOL0     C53919   8.568   3.252   5.437 -0.5980 -0.6598  0.2258
  400MOL0     C53920   8.464   3.328   5.382 -0.3692 -0.0649 -0.1134
  400MOL0     C53921   8.339   3.274   5.367 -0.1926 -0.2200 -0.4328
  400MOL0     C53922   8.317   3.142   5.409 -0.0233  0.2294 -0.4448
  400MOL0     O53923   8.190   3.076   5.401  0.0866 -0.0227 -0.5789
  400MOL0     C53924   8.074   3.165   5.410 -0.1538  0.1221 -0.0973
  400MOL0     C53925   7.961   3.085   5.468 -0.2657  0.0042 -1.3290
  400MOL0     C53926   7.830   3.160   5.464 -0.2630 -0.2570 -0.6537
  400MOL0     C53927   7.731   3.085   5.550  0.1951  0.6483 -0.2032
  400MOL0     C53928   7.612   3.164   5.560  0.8715  0.0297 -0.3378
  400MOL0     C53929   7.514   3.234   5.576 -0.2779  0.7828 -0.9731
  400MOL0     C53930   8.423   3.068   5.459 -0.2107  0.3810  0.6102
  400MOL0     C53931   8.555   3.119   5.472 -0.0768  0.3328  0.3075
  400MOL0     C53932   8.662   3.035   5.524 -0.3301 -0.0460 -0.2623
  400MOL0     H53933   8.701   3.578   5.614  0.2095 -1.5999 -3.7892
  400MOL0     H53934   8.865   3.753   5.648 -3.3126 -1.6719  0.5333
  400MOL0     H53935   9.169   3.709   5.863 -0.9603 -2.0729 -0.0496
  400MOL0     H53936   9.266   3.606   5.750  0.1443  0.0422 -0.5791
  400MOL0     H53937   9.297   3.901   5.789 -2.9466 -0.3537  1.7271
  400MOL0     H53938   9.403   3.808   5.683 -0.0634  2.1406  0.1933
  400MOL0     H53939   9.492   3.678   5.867 -1.3940  0.2937 -0.2694
  400MOL0     H53940   9.370   3.749   5.981 -3.3443 -2.9995 -1.9623
  400MOL0     H53941   9.619   3.852   5.859 -0.8611 -2.9594 -0.0169
  400MOL0     H53942   9.487   3.962   5.915 -2.0556 -0.7988  1.8784
  400MOL0     H53943   9.538   3.907   6.141  3.4847  3.2194 -0.2133
  400MOL0     H53944   9.610   3.748   6.098  0.9771 -0.7496  0.4997
  400MOL0     H53945   9.797   3.884   5.982  1.5231  2.0433  0.9039
  400MOL0     H53946   9.719   4.034   6.029 -1.9870  0.1689  0.2506
  400MOL0     H53947   9.827   3.806   6.201 -0.4913 -0.4063 -2.6789
  400MOL0     H53948   9.751   3.962   6.274 -1.0082 -1.6792  0.0576
  400MOL0     H53949   9.952   4.075   6.173  0.3252  1.3235  4.9178
  400MOL0     H53950   9.981   3.949   6.296 -2.0322  1.0889  0.4479
  400MOL0     H53951  10.099   3.717   6.181  1.7859 -0.5869 -0.8666
  400MOL0     H53952  10.272   3.593   5.999  0.8272  0.0468  1.0759
  400MOL0     H53953  10.293   3.673   5.848 -0.7660  0.4184 -0.6879
  400MOL0     H53954  10.506   3.658   5.960 -1.0764 -1.2293  0.7141
  400MOL0     H53955  10.457   3.823   5.958  0.1439 -0.0559  0.3993
  400MOL0     H53956  10.406   3.671   6.221 -1.3545  0.6127 -0.4891
  400MOL0     H53957  10.400   3.843   6.184  3.8161  1.2710 -0.0947
  400MOL0     H53958  10.628   3.809   6.276  0.5938  0.9355 -1.1314
  400MOL0     H53959  10.638   3.833   6.112 -0.1028 -0.6881 -0.0435
  400MOL0     H53960  10.738   3.406   6.288 -0.5704  0.5332  0.8961
  400MOL0     H53961  10.957   3.366   6.381 -3.8053  0.4830 -0.1178
  400MOL0     H53962  11.349   3.606   6.587 -0.5380 -0.2147  0.8601
  400MOL0     H53963  11.565   3.526   6.664 -0.4760 -2.2848 -0.1905
  400MOL0     H53964  11.860   3.604   6.529 -0.8042  0.3582 -1.1630
  400MOL0     H53965  11.823   3.503   6.677 -2.2695 -4.8714 -1.3652
  400MOL0     H53966  12.065   3.500   6.634  0.0601 -0.7354  0.5349
  400MOL0     H53967  11.994   3.346   6.567  3.0157  0.3488 -0.5261
  400MOL0     H53968  11.973   3.442   6.345 -0.8137  0.5527  1.9259
  400MOL0     H53969  12.038   3.593   6.399 -1.4561  0.5852  1.8916
  400MOL0     H53970  12.181   3.318   6.394 -1.6480 -0.2780 -1.2119
  400MOL0     H53971  12.263   3.472   6.427 -0.7828 -3.0552  3.1273
  400MOL0     H53972  12.146   3.498   6.162 -1.5913  0.0904  2.8045
  400MOL0     H53973  12.174   3.331   6.187  3.3358 -2.0570  1.6681
  400MOL0     H53974  12.395   3.535   6.207 -0.5367  1.3594 -0.1900
  400MOL0     H53975  12.415   3.358   6.218  0.1570  0.3116 -2.1629
  400MOL0     H53976  12.404   3.540   5.995  0.9228 -1.1618 -0.7138
  400MOL0     H53977  12.270   3.421   5.972 -0.7119 -0.5957  1.4589
  400MOL0     H53978  12.479   3.244   6.027  0.6960  1.1046  1.6735
  400MOL0     H53979  12.467   3.316   5.874 -0.2362  0.9570 -0.4387
  400MOL0     H53980  11.685   3.450   6.265 -2.5880 -1.1180 -2.1857
  400MOL0     H53981  11.469   3.558   6.180  0.1682  2.1757 -0.0101
  400MOL0     H53982  11.089   3.734   6.210 -1.1912  2.0977  4.2119
  400MOL0     H53983  10.862   3.777   6.128 -0.0094 -1.8261 -4.7846
  400MOL0     H53984   9.182   3.462   5.611 -0.3128  0.2037  0.1967
  400MOL0     H53985   9.005   3.284   5.597  1.2728  0.8471  2.7724
  400MOL0     H53986   8.475   3.425   5.333 -3.0058  0.2888 -0.1557
  400MOL0     H53987   8.265   3.340   5.321 -0.2446  0.7955  1.0599
  400MOL0     H53988   8.051   3.214   5.315 -1.8303  0.1826  0.3135
  400MOL0     H53989   8.105   3.243   5.480  1.5073 -1.1273  0.6212
  400MOL0     H53990   7.992   3.069   5.571 -2.7659  0.1022 -0.4872
  400MOL0     H53991   7.956   2.993   5.409 -1.7748  0.6490 -2.2812
  400MOL0     H53992   7.789   3.158   5.363 -1.6319 -1.9392 -0.1195
  400MOL0     H53993   7.833   3.264   5.496  0.2229 -0.1716 -0.9695
  400MOL0     H53994   7.695   2.992   5.504 -1.3597  0.7309  0.7682
  400MOL0     H53995   7.766   3.071   5.653 -1.0731  0.0731  0.1780
  400MOL0     H53996   7.430   3.299   5.592  0.7680  1.7842  0.8290
  400MOL0     H53997   8.404   2.967   5.496  2.7001  0.5624  3.0896
  400MOL0     H53998   8.633   2.930   5.530 -0.2620 -0.1531 -1.6597
  400MOL0     H53999   8.744   3.054   5.454 -0.9126  0.6266 -0.7845
  400MOL0     H54000   8.683   3.075   5.624  0.4078  0.1500 -0.4877
  401MOL0     O54001   9.543  10.006   5.699 -0.3666  0.5504  0.5481
  401MOL0     C54002   9.494   9.951   5.804 -0.2889  0.5144  0.7280
  401MOL0     O54003   9.570   9.901   5.903  0.5566 -0.1466 -0.6962
  401MOL0     C54004   9.708   9.904   5.889  0.4509 -0.1683 -0.1414
  401MOL0     C54005   9.763   9.784   5.834 -0.1269 -0.6094 -0.2908
  401MOL0     C54006   9.901   9.791   5.798 -0.1410  0.7855 -0.2666
  401MOL0     C54007   9.970   9.910   5.817  0.4330  0.6497 -0.0935
  401MOL0     O54008  10.103   9.904   5.779 -0.7457 -0.5427 -0.1451
  401MOL0     C54009  10.191  10.008   5.826 -0.0205  1.6086 -0.5395
  401MOL0     C54010  10.329   9.950   5.832 -0.2904  0.8316 -0.6358
  401MOL0     C54011  10.431  10.044   5.902  0.3773  0.1798  0.6583
  401MOL0     C54012  10.572  10.003   5.870 -1.0687 -0.2799  0.2031
  401MOL0     C54013  10.682  10.080   5.948 -0.3273 -0.0006 -0.8340
  401MOL0     C54014  10.826  10.033   5.916 -0.1546  1.0376  0.8601
  401MOL0     C54015  10.845   9.891   5.965  0.1356 -0.1927  0.4452
  401MOL0     C54016  10.992   9.847   5.997  0.5141  0.2065  0.2406
  401MOL0     N54017  11.073   9.841   5.881  0.0245 -0.3705  0.1633
  401MOL0     C54018  11.066   9.760   5.772 -0.7983  1.3761  0.0213
  401MOL0     C54019  11.181   9.766   5.709  0.2564 -0.0349 -0.1571
  401MOL0     C54020  11.237   9.678   5.604 -0.0302  0.2266  0.1080
  401MOL0     C54021  11.336   9.742   5.513  0.6986  0.3773 -0.7510
  401MOL0     C54022  11.367   9.652   5.394  0.4341  0.1512 -0.0570
  401MOL0     C54023  11.479   9.713   5.317  0.1549  0.6310  0.6039
  401MOL0     O54024  11.606   9.699   5.381  1.2091 -0.3357  0.5699
  401MOL0     C54025  11.703   9.773   5.322 -0.3356 -0.4336  0.8699
  401MOL0     C54026  11.786   9.711   5.230 -0.9185  0.2173  0.0910
  401MOL0     C54027  11.901   9.781   5.180  0.1610 -0.0234 -0.1908
  401MOL0     C54028  11.936   9.909   5.227  0.1910 -0.4580  0.1608
  401MOL0     C54029  12.054   9.979   5.177 -0.1402  0.1186 -0.9347
  401MOL0     O54030  12.138   9.919   5.083  0.8085  0.0911  0.5494
  401MOL0     C54031  12.257   9.977   5.067  0.6268 -0.0427 -0.1305
  401MOL0     C54032  12.364   9.921   5.132 -0.6133  0.6146 -0.4674
  401MOL0     C54033  12.496   9.970   5.134 -0.5121 -0.1564  0.8343
  401MOL0     C54034  12.510  10.094   5.065 -0.5028  0.6140  0.2945
  401MOL0     O54035  12.630  10.168   5.052 -0.5656 -0.6322 -0.2157
  401MOL0     C54036  12.754  10.105   5.102  0.3786 -0.4104  0.7460
  401MOL0     C54037  12.872  10.190   5.058  0.0390 -0.1752 -0.2256
  401MOL0     C54038  12.886  10.313   5.146 -0.1644 -0.0422  0.5873
  401MOL0     C54039  12.959  10.424   5.072 -0.1644  0.1163 -0.6928
  401MOL0     C54040  12.983  10.541   5.173  0.1846 -0.8178 -0.4370
  401MOL0     C54041  12.871  10.599   5.263 -0.5566  0.8366  0.3420
  401MOL0     C54042  12.916  10.723   5.340 -0.1502  0.1303 -0.4475
  401MOL0     C54043  12.809  10.810   5.402  0.9569  0.7854 -0.0616
  401MOL0    Cl54044  12.720  10.696   5.509 -0.3225  0.1987 -0.0822
  401MOL0     C54045  12.405  10.151   4.999  0.1927  0.1802  0.8187
  401MOL0     C54046  12.279  10.094   4.995 -1.0395  0.4936  0.1752
  401MOL0     O54047  12.081  10.091   5.229 -0.5627  0.4660 -1.3626
  401MOL0     C54048  11.846   9.962   5.322  0.4626  0.1120  0.5736
  401MOL0     C54049  11.730   9.899   5.366 -0.0627  0.3514 -0.4871
  401MOL0     N54050  11.255   9.863   5.767  0.3639  0.5872 -0.3748
  401MOL0     N54051  11.194   9.905   5.874 -0.2835 -0.1286 -0.5282
  401MOL0     C54052   9.919  10.030   5.873  0.1078  0.4837 -0.2836
  401MOL0     C54053   9.782  10.027   5.905  0.6394 -0.0389 -0.3294
  401MOL0     C54054   9.349   9.948   5.809  0.2824 -0.9211 -0.1212
  401MOL0     C54055   9.281   9.928   5.685 -0.3891 -0.1206 -0.3274
  401MOL0     C54056   9.147   9.889   5.689 -0.3556 -0.1587 -0.2937
  401MOL0     C54057   9.077   9.887   5.804 -0.8991 -0.0102 -0.0765
  401MOL0     O54058   8.942   9.862   5.787  0.3379 -0.4072 -0.0759
  401MOL0     C54059   8.855   9.842   5.898  0.0407 -0.2502 -1.2149
  401MOL0     C54060   8.714   9.822   5.858 -0.4677 -0.2750 -0.3111
  401MOL0     C54061   8.617   9.750   5.959  1.0975 -0.2901 -0.2187
  401MOL0     C54062   8.622   9.789   6.112  0.5509  0.5268 -1.0339
  401MOL0     C54063   8.584   9.930   6.139  0.0335  0.3402  0.0943
  401MOL0     C54064   8.557  10.048   6.150 -0.3636 -0.4171  0.4831
  401MOL0     C54065   9.146   9.912   5.924 -0.2749  0.3239 -0.1498
  401MOL0     C54066   9.282   9.941   5.931 -0.3899 -0.8776 -0.4770
  401MOL0     C54067   9.337   9.946   6.070 -0.8421 -0.2026 -0.6995
  401MOL0     H54068   9.699   9.701   5.808 -1.7227  0.2976  0.5840
  401MOL0     H54069   9.942   9.699   5.757  1.6820  0.9113  1.1791
  401MOL0     H54070  10.185  10.099   5.766  2.7781  2.9841  1.0581
  401MOL0     H54071  10.182  10.041   5.930  1.0105 -2.1711  0.8954
  401MOL0     H54072  10.362   9.937   5.728  2.9651  0.6966  0.3073
  401MOL0     H54073  10.336   9.855   5.885  0.0733  1.6828  0.9118
  401MOL0     H54074  10.404  10.051   6.008 -0.5983  1.8613  0.3359
  401MOL0     H54075  10.412  10.142   5.858 -1.4137 -0.9835 -1.3541
  401MOL0     H54076  10.593   9.898   5.891 -0.4312  0.2820  2.7811
  401MOL0     H54077  10.603  10.014   5.766  1.6367 -1.8000  0.7401
  401MOL0     H54078  10.676  10.186   5.920  2.1407  0.4201 -0.0311
  401MOL0     H54079  10.666  10.084   6.056 -1.7046 -3.5722 -0.7985
  401MOL0     H54080  10.846  10.028   5.809  1.7887  0.9456  1.1947
  401MOL0     H54081  10.898  10.098   5.966  1.4542  0.0364 -0.0714
  401MOL0     H54082  10.805   9.816   5.897 -2.0039  0.0896  1.3239
  401MOL0     H54083  10.784   9.877   6.054 -0.5293 -1.7645 -0.2254
  401MOL0     H54084  11.033   9.908   6.078  1.2755  0.7687 -0.5570
  401MOL0     H54085  10.986   9.743   6.031  0.6396  1.1078  3.3288
  401MOL0     H54086  10.984   9.690   5.761  0.1309  0.5435 -2.3724
  401MOL0     H54087  11.283   9.589   5.648 -1.0364 -0.3787 -0.0403
  401MOL0     H54088  11.158   9.654   5.533  1.3781  4.1593 -3.1693
  401MOL0     H54089  11.278   9.825   5.471 -0.8369 -0.3603 -0.1853
  401MOL0     H54090  11.414   9.795   5.568  1.0362  0.2971 -1.1530
  401MOL0     H54091  11.287   9.629   5.323 -0.6906 -4.1318  2.2330
  401MOL0     H54092  11.405   9.554   5.427  3.6120  0.9405 -0.9927
  401MOL0     H54093  11.458   9.819   5.300 -0.5103  0.2078 -1.4229
  401MOL0     H54094  11.478   9.672   5.216 -1.8425  1.3777  0.2795
  401MOL0     H54095  11.748   9.615   5.196 -1.0305  1.1315 -2.5891
  401MOL0     H54096  11.971   9.733   5.112  0.0822 -0.1864 -0.1580
  401MOL0     H54097  12.345   9.831   5.190 -0.1366 -1.4394 -3.2731
  401MOL0     H54098  12.582   9.929   5.185 -0.7373 -2.8034 -0.7146
  401MOL0     H54099  12.744  10.107   5.211  1.1186 -2.9988  0.9405
  401MOL0     H54100  12.764  10.000   5.072 -0.1178 -0.1928 -0.2521
  401MOL0     H54101  12.960  10.125   5.066 -0.5243 -0.7741  1.5158
  401MOL0     H54102  12.875  10.219   4.953 -1.6748 -0.9763 -0.5229
  401MOL0     H54103  12.786  10.348   5.172  0.3993  1.4014  0.8954
  401MOL0     H54104  12.932  10.292   5.243 -2.0771  0.8132  1.7431
  401MOL0     H54105  12.895  10.457   4.990  1.1060 -0.1352 -1.8126
  401MOL0     H54106  13.049  10.385   5.024 -0.8738 -1.5770 -0.7518
  401MOL0     H54107  13.015  10.621   5.105 -0.9811  0.1920  0.1577
  401MOL0     H54108  13.066  10.506   5.235  1.2562  0.1872 -1.2455
  401MOL0     H54109  12.795  10.637   5.194 -0.4225 -0.4087 -0.5295
  401MOL0     H54110  12.836  10.512   5.319  1.2526 -1.5733 -1.9928
  401MOL0     H54111  12.973  10.786   5.271  1.8696  0.0880  1.0671
  401MOL0     H54112  12.985  10.687   5.417  0.3727 -0.0759 -1.0057
  401MOL0     H54113  12.851  10.895   5.457 -0.0135 -0.3435  2.5941
  401MOL0     H54114  12.746  10.841   5.317  0.4950  1.7878  0.6250
  401MOL0     H54115  12.411  10.249   4.953 -0.7271  0.0581  0.4266
  401MOL0     H54116  12.195  10.133   4.938  0.7862  0.0421 -3.0616
  401MOL0     H54117  11.870  10.059   5.366  1.7319 -0.6350  1.5829
  401MOL0     H54118  11.670   9.943   5.445 -0.6446  0.3137 -0.9035
  401MOL0     H54119   9.976  10.120   5.891  2.1490 -0.1993 -2.7014
  401MOL0     H54120   9.738  10.112   5.956  1.8946  1.1612 -1.1917
  401MOL0     H54121   9.333   9.938   5.590  1.9813 -1.5840  0.7229
  401MOL0     H54122   9.092   9.867   5.598 -1.0305 -0.5244  0.1953
  401MOL0     H54123   8.865   9.930   5.962  0.0519 -1.9795  1.2987
  401MOL0     H54124   8.882   9.751   5.952 -0.9967 -0.9571 -1.8484
  401MOL0     H54125   8.715   9.775   5.759  0.7662  1.1520 -1.0419
  401MOL0     H54126   8.676   9.925   5.856  0.7799  0.2459  1.1549
  401MOL0     H54127   8.617   9.641   5.951 -3.0803 -0.2690 -4.1699
  401MOL0     H54128   8.521   9.775   5.913  1.0510 -1.6921 -0.9174
  401MOL0     H54129   8.544   9.729   6.159  1.2100  0.7759  0.4367
  401MOL0     H54130   8.715   9.764   6.164 -0.2877  1.8540  1.2544
  401MOL0     H54131   8.544  10.154   6.152  0.1004 -0.2565  4.5046
  401MOL0     H54132   9.087   9.900   6.015  0.9313 -0.6525  0.5305
  401MOL0     H54133   9.358   9.841   6.095 -0.8084  0.1188  0.7249
  401MOL0     H54134   9.428  10.005   6.082 -1.4627  0.4878  0.8176
  401MOL0     H54135   9.259   9.969   6.143  0.9002  1.0979  0.8429
  402MOL0     O54136   8.991   9.171   9.334 -1.4544 -0.4751  0.1686
  402MOL0     C54137   9.026   9.081   9.408 -0.4088  0.3971  0.3352
  402MOL0     O54138   9.158   9.060   9.449  0.5299  0.1494 -0.8278
  402MOL0     C54139   9.257   9.136   9.419 -0.3724 -0.1444 -0.0549
  402MOL0     C54140   9.265   9.226   9.303 -0.8290  0.3303  0.1461
  402MOL0     C54141   9.377   9.306   9.291 -0.0846  0.4390 -0.3064
  402MOL0     C54142   9.491   9.286   9.369 -0.0059 -0.5742  0.0475
  402MOL0     O54143   9.603   9.361   9.347  0.1431 -0.1548  0.2664
  402MOL0     C54144   9.619   9.463   9.245 -0.0596 -1.2752 -0.2675
  402MOL0     C54145   9.759   9.522   9.262  0.1763  0.1745  0.5948
  402MOL0     C54146   9.849   9.413   9.197 -0.3262  0.2986 -0.2775
  402MOL0     C54147  10.000   9.457   9.201  1.5961  0.0850 -0.1572
  402MOL0     C54148  10.076   9.343   9.129 -0.1755 -0.5775 -0.4708
  402MOL0     C54149  10.225   9.350   9.148 -0.6801  0.4844  0.2067
  402MOL0     C54150  10.298   9.461   9.066  0.3975  0.0538 -0.4854
  402MOL0     C54151  10.455   9.454   9.102 -0.5516 -0.7895 -0.3641
  402MOL0     N54152  10.506   9.558   9.191 -0.4798  0.4587 -1.2996
  402MOL0     C54153  10.528   9.692   9.177 -0.0694 -0.4363  0.8451
  402MOL0     C54154  10.594   9.745   9.278 -0.1698  0.4275  0.2916
  402MOL0     C54155  10.639   9.889   9.293  0.6061  0.0113  0.3319
  402MOL0     C54156  10.790   9.901   9.257 -0.1892 -0.2996 -0.4145
  402MOL0     C54157  10.883   9.811   9.336 -0.0135  0.0250  0.0961
  402MOL0     C54158  11.029   9.805   9.293  0.2436  0.1177 -0.0074
  402MOL0     O54159  11.040   9.769   9.154 -0.3793  0.4403 -0.2618
  402MOL0     C54160  11.170   9.776   9.100  0.5820 -0.7392  0.2208
  402MOL0     C54161  11.282   9.843   9.155 -0.2616  1.1104  0.5921
  402MOL0     C54162  11.407   9.825   9.101  0.0726 -0.0145  0.4437
  402MOL0     C54163  11.431   9.736   8.995  1.1405 -0.0676 -0.0410
  402MOL0     C54164  11.563   9.699   8.953 -0.0561 -0.6902  0.6404
  402MOL0     O54165  11.655   9.789   8.983 -0.2725  0.0340 -0.0336
  402MOL0     C54166  11.793   9.764   8.965 -0.4917  0.7488 -0.4470
  402MOL0     C54167  11.863   9.863   8.903  0.3715 -0.6904  0.4296
  402MOL0     C54168  12.001   9.852   8.866  0.7579  0.0439 -0.0367
  402MOL0     C54169  12.070   9.735   8.900 -0.1436 -0.6862 -0.5949
  402MOL0     O54170  12.207   9.726   8.873 -0.1718  0.1985  0.3846
  402MOL0     C54171  12.246   9.604   8.807 -0.2911  0.9021  0.1136
  402MOL0     C54172  12.388   9.609   8.759 -0.6042 -0.2427  0.3206
  402MOL0     C54173  12.435   9.491   8.680 -0.3145  0.3979  0.0197
  402MOL0     C54174  12.585   9.494   8.653 -0.8185  0.1190  0.1711
  402MOL0     C54175  12.623   9.359   8.588 -0.3007 -0.0727 -0.5678
  402MOL0     C54176  12.773   9.328   8.595 -0.8459 -0.2290 -0.7016
  402MOL0     C54177  12.823   9.205   8.517  0.1496 -0.5035 -0.3104
  402MOL0     C54178  12.773   9.071   8.568  0.2897  0.5675 -0.4253
  402MOL0    Cl54179  12.889   9.016   8.695  0.1082  0.4993 -0.1280
  402MOL0     C54180  12.000   9.635   8.969  1.1307  0.9100  0.1288
  402MOL0     C54181  11.865   9.652   9.002  0.0530 -0.4513 -0.2368
  402MOL0     O54182  11.582   9.600   8.877  0.3213  0.1319 -0.0125
  402MOL0     C54183  11.316   9.677   8.932 -0.2101 -0.3554  0.2560
  402MOL0     C54184  11.192   9.697   8.982  1.3708 -0.4004 -0.6980
  402MOL0     N54185  10.611   9.642   9.363 -0.8006  0.5085  0.5425
  402MOL0     N54186  10.559   9.533   9.315 -0.1921 -1.5214  0.5862
  402MOL0     C54187   9.487   9.197   9.473 -0.3829 -0.6786 -0.0787
  402MOL0     C54188   9.363   9.136   9.504  0.4657 -0.3335 -0.6215
  402MOL0     C54189   8.916   8.997   9.478 -0.7537 -0.2582 -0.3418
  402MOL0     C54190   8.960   8.925   9.594  0.1346  0.4575  0.9843
  402MOL0     C54191   8.877   8.859   9.670  0.7351 -0.0776 -0.1195
  402MOL0     C54192   8.743   8.853   9.643 -0.4875  0.2563  0.0421
  402MOL0     O54193   8.661   8.764   9.700 -0.0424 -0.5356 -0.1759
  402MOL0     C54194   8.523   8.751   9.695 -0.9059  0.1289 -0.4805
  402MOL0     C54195   8.467   8.639   9.779  0.6906 -0.4870 -0.3968
  402MOL0     C54196   8.311   8.631   9.769 -0.7119  0.3693  0.6646
  402MOL0     C54197   8.257   8.512   9.849  0.2341  0.6632 -0.6064
  402MOL0     C54198   8.287   8.515   9.993 -0.1319  0.1707 -0.7239
  402MOL0     C54199   8.306   8.514  10.113 -0.3495  0.1277 -0.0651
  402MOL0     C54200   8.702   8.920   9.536 -0.6033  0.9757  0.9209
  402MOL0     C54201   8.776   8.999   9.452 -0.5192  0.5744  0.8935
  402MOL0     C54202   8.703   9.075   9.337 -0.5911 -0.4003  0.2739
  402MOL0     H54203   9.186   9.239   9.230 -1.3557  1.3756  0.8840
  402MOL0     H54204   9.393   9.377   9.211 -1.4575 -0.9746 -1.9185
  402MOL0     H54205   9.604   9.411   9.150  2.8280 -5.0633  1.0694
  402MOL0     H54206   9.543   9.542   9.247  2.4984  1.5064 -2.8804
  402MOL0     H54207   9.781   9.539   9.368 -0.6063  1.1756  0.6100
  402MOL0     H54208   9.780   9.615   9.209  1.8103 -0.6351 -0.2479
  402MOL0     H54209   9.826   9.412   9.090  0.6348 -1.8294 -0.5046
  402MOL0     H54210   9.829   9.316   9.243 -0.1303  0.2498 -0.2950
  402MOL0     H54211  10.009   9.555   9.155 -0.6663 -0.0577 -1.0328
  402MOL0     H54212  10.041   9.455   9.303  3.7387 -0.6255 -0.9649
  402MOL0     H54213  10.046   9.250   9.178 -1.4602 -0.0020 -0.1202
  402MOL0     H54214  10.054   9.341   9.022 -1.2451  4.0596 -0.5698
  402MOL0     H54215  10.246   9.367   9.254  1.5902  2.4617 -0.4919
  402MOL0     H54216  10.262   9.253   9.113  1.5335  1.5567 -0.6215
  402MOL0     H54217  10.260   9.559   9.093  0.0448 -0.6566  1.8813
  402MOL0     H54218  10.284   9.433   8.962  3.1492  2.1072 -1.5344
  402MOL0     H54219  10.480   9.355   9.141  1.5380  0.0292  0.5472
  402MOL0     H54220  10.508   9.468   9.007 -0.7220 -1.1320 -0.5117
  402MOL0     H54221  10.517   9.758   9.091 -2.0902  2.1608  2.9407
  402MOL0     H54222  10.586   9.962   9.232 -2.8958 -0.4253  2.5730
  402MOL0     H54223  10.643   9.921   9.397 -1.6687  2.6456 -0.2688
  402MOL0     H54224  10.800   9.890   9.149  0.7665 -1.4016 -0.2373
  402MOL0     H54225  10.819  10.005   9.276 -0.5298  0.4507 -3.4335
  402MOL0     H54226  10.851   9.708   9.319 -0.0703  0.2661 -1.3776
  402MOL0     H54227  10.874   9.830   9.444 -0.0829 -0.8694  0.2553
  402MOL0     H54228  11.075   9.719   9.342 -1.2710 -1.3331 -1.0567
  402MOL0     H54229  11.078   9.900   9.316 -0.3061  0.1358  1.1643
  402MOL0     H54230  11.273   9.907   9.242 -0.9408  1.4530  0.2794
  402MOL0     H54231  11.492   9.878   9.144 -0.2918  1.0970 -0.1447
  402MOL0     H54232  11.808   9.953   8.877 -2.2318 -2.7124 -1.6463
  402MOL0     H54233  12.053   9.934   8.818  1.9271 -0.1144  0.9217
  402MOL0     H54234  12.232   9.521   8.877  1.5221 -0.4610 -1.0434
  402MOL0     H54235  12.194   9.575   8.715 -1.2085  1.2343  0.5080
  402MOL0     H54236  12.394   9.692   8.688 -1.2351 -1.5645 -1.3461
  402MOL0     H54237  12.445   9.616   8.851 -0.1648  1.1602 -0.0225
  402MOL0     H54238  12.419   9.398   8.736  3.3453 -0.8429 -0.7578
  402MOL0     H54239  12.386   9.500   8.583 -1.2508  1.0348  0.5371
  402MOL0     H54240  12.637   9.517   8.747  1.5111  2.1052 -1.5103
  402MOL0     H54241  12.611   9.579   8.590 -0.2697 -0.6306 -0.6192
  402MOL0     H54242  12.583   9.348   8.486  0.3526  1.2926 -0.9916
  402MOL0     H54243  12.582   9.281   8.652  0.4189 -0.2356 -0.2932
  402MOL0     H54244  12.828   9.418   8.564 -1.7023  0.8341  0.7083
  402MOL0     H54245  12.798   9.309   8.700  0.5643 -0.5390 -1.0747
  402MOL0     H54246  12.931   9.192   8.506  0.1679  0.5062 -1.6521
  402MOL0     H54247  12.783   9.206   8.415 -2.8575  0.8374  0.7749
  402MOL0     H54248  12.678   9.086   8.619  0.4303 -0.2008  0.0656
  402MOL0     H54249  12.762   8.997   8.488 -0.9598  0.4829 -0.1901
  402MOL0     H54250  12.050   9.547   9.007 -1.1832 -1.7423 -2.4994
  402MOL0     H54251  11.814   9.566   9.046  1.1661 -1.3946 -0.7319
  402MOL0     H54252  11.335   9.603   8.855  1.6438  1.9251 -1.6581
  402MOL0     H54253  11.102   9.652   8.942  1.1733 -0.2783 -0.3885
  402MOL0     H54254   9.574   9.173   9.534  0.5513  2.7538  0.1639
  402MOL0     H54255   9.352   9.075   9.593  3.4925  0.6506  0.5425
  402MOL0     H54256   9.063   8.922   9.626  0.7885  0.6429 -0.9592
  402MOL0     H54257   8.906   8.810   9.762 -0.6381 -1.6616 -0.4863
  402MOL0     H54258   8.486   8.737   9.594 -0.4597 -2.0380 -0.3975
  402MOL0     H54259   8.483   8.847   9.728 -0.8389 -0.2259  0.7173
  402MOL0     H54260   8.494   8.664   9.882 -0.4111  2.1420 -0.6594
  402MOL0     H54261   8.518   8.546   9.752  1.5789 -0.0116 -0.3993
  402MOL0     H54262   8.277   8.617   9.666 -0.9850  0.3274  0.7590
  402MOL0     H54263   8.265   8.725   9.798 -0.7790  0.7944 -0.7615
  402MOL0     H54264   8.152   8.497   9.822  0.9505 -2.0997 -2.3200
  402MOL0     H54265   8.313   8.430   9.803  0.9161  1.6434 -1.5796
  402MOL0     H54266   8.333   8.515  10.217 -1.5259  0.6643  0.2537
  402MOL0     H54267   8.607   8.885   9.496  0.9601 -0.9239 -1.4624
  402MOL0     H54268   8.593   9.071   9.339 -0.5667 -1.0760  0.5028
  402MOL0     H54269   8.738   9.179   9.335  0.5334 -0.7744 -0.9028
  402MOL0     H54270   8.745   9.047   9.240 -1.1613 -0.0425 -0.0888
  403MOL0     O54271   9.574  10.518   6.927 -0.2054 -0.2704 -0.2525
  403MOL0     C54272   9.528  10.613   6.991  0.1121 -0.3959  0.3744
  403MOL0     O54273   9.595  10.731   7.013  0.0651 -0.9371 -0.0262
  403MOL0     C54274   9.709  10.746   6.941 -0.0595 -0.3431 -0.9359
  403MOL0     C54275   9.834  10.731   7.008 -0.7500  0.1793  0.0551
  403MOL0     C54276   9.945  10.762   6.923 -0.7218  0.0213 -1.0520
  403MOL0     C54277   9.946  10.811   6.795 -0.9359  0.1978  0.9264
  403MOL0     O54278  10.056  10.867   6.726  0.6217  0.2166 -0.2504
  403MOL0     C54279  10.178  10.802   6.749  0.1712  0.0513 -0.5001
  403MOL0     C54280  10.304  10.871   6.692  0.0652  0.5937 -0.7036
  403MOL0     C54281  10.352  10.990   6.778 -0.9074  0.4678 -1.0107
  403MOL0     C54282  10.446  11.070   6.691 -0.2533  0.2151 -0.1309
  403MOL0     C54283  10.519  11.173   6.769 -0.4435  0.5095  0.5006
  403MOL0     C54284  10.626  11.238   6.694 -1.5772  0.0048  0.9044
  403MOL0     C54285  10.573  11.325   6.578 -0.3858 -0.1186  0.3998
  403MOL0     C54286  10.519  11.458   6.632 -0.1006 -0.2814  0.6069
  403MOL0     N54287  10.634  11.532   6.690 -0.3637  0.3179 -0.4077
  403MOL0     C54288  10.713  11.619   6.617  0.7385  0.1412 -0.6491
  403MOL0     C54289  10.797  11.677   6.706  0.0318 -0.9668  0.3848
  403MOL0     C54290  10.907  11.765   6.661  0.1236  0.2400 -0.0559
  403MOL0     C54291  11.028  11.677   6.620  0.1876 -0.7052 -0.0047
  403MOL0     C54292  11.143  11.776   6.576 -0.3285 -0.5002 -0.6292
  403MOL0     C54293  11.216  11.864   6.688  0.4905 -0.1195  0.1810
  403MOL0     O54294  11.298  11.958   6.621 -0.0451  0.5834  0.1264
  403MOL0     C54295  11.361  12.046   6.697 -0.2581 -0.0741 -0.3806
  403MOL0     C54296  11.506  12.041   6.696  0.6463  0.0803  0.5130
  403MOL0     C54297  11.588  12.111   6.784  0.0910 -0.5028  0.0743
  403MOL0     C54298  11.528  12.196   6.876  0.5998 -0.2854 -0.3207
  403MOL0     C54299  11.606  12.279   6.966 -0.0352  0.2743  0.7967
  403MOL0     O54300  11.742  12.262   6.956 -0.7085 -0.5697 -0.5360
  403MOL0     C54301  11.844  12.325   7.035  0.7575  0.7572  0.0179
  403MOL0     C54302  11.831  12.426   7.128  0.1161 -0.5188 -0.2981
  403MOL0     C54303  11.947  12.480   7.190 -0.7326  0.9391 -0.9895
  403MOL0     C54304  12.073  12.440   7.150  0.8201  1.0353  0.0582
  403MOL0     O54305  12.178  12.512   7.200  0.7385  0.0108  0.1687
  403MOL0     C54306  12.278  12.566   7.110  0.3382 -1.0425 -0.2222
  403MOL0     C54307  12.388  12.613   7.195  1.2686  0.1684 -0.2726
  403MOL0     C54308  12.495  12.711   7.127  0.0490  0.0755 -0.7727
  403MOL0     C54309  12.618  12.629   7.067  0.0474 -0.1901 -0.0358
  403MOL0     C54310  12.740  12.712   7.013  0.3935 -1.7457 -0.1156
  403MOL0     C54311  12.859  12.642   6.974 -0.0985  0.7596  0.5819
  403MOL0     C54312  12.929  12.574   7.104 -0.6992 -0.4069 -0.1137
  403MOL0     C54313  13.083  12.582   7.105  0.6102 -0.2529 -0.0205
  403MOL0    Cl54314  13.153  12.466   6.996 -0.5053 -0.3617 -0.1748
  403MOL0     C54315  12.088  12.331   7.061  0.3886 -0.2242 -0.3916
  403MOL0     C54316  11.973  12.273   7.005 -0.2380  0.6444  0.1036
  403MOL0     O54317  11.553  12.359   7.041 -0.3733 -0.0383  0.7328
  403MOL0     C54318  11.387  12.210   6.876  0.8677  0.1665 -0.0929
  403MOL0     C54319  11.301  12.141   6.788 -0.2268  0.8588  0.5695
  403MOL0     N54320  10.759  11.643   6.832  0.3281 -0.4682  0.0611
  403MOL0     N54321  10.651  11.574   6.819 -0.4881  0.5734  1.4516
  403MOL0     C54322   9.822  10.832   6.742 -0.3499 -0.7688  0.6681
  403MOL0     C54323   9.702  10.788   6.808  0.4710 -0.8957 -0.2274
  403MOL0     C54324   9.383  10.614   7.025  0.6898 -0.0042  0.8751
  403MOL0     C54325   9.316  10.731   7.027  0.2450  0.1019  0.6546
  403MOL0     C54326   9.183  10.749   7.069  0.1431  1.0194  0.1538
  403MOL0     C54327   9.114  10.633   7.105  0.3750 -0.5942  0.1089
  403MOL0     O54328   8.986  10.627   7.153 -0.3140 -1.0282 -0.5433
  403MOL0     C54329   8.925  10.756   7.174 -0.4905 -0.0606  0.3848
  403MOL0     C54330   8.799  10.743   7.255 -0.7156  0.2946 -0.4344
  403MOL0     C54331   8.693  10.688   7.169  0.6894 -0.2566  0.1561
  403MOL0     C54332   8.562  10.688   7.234 -0.7984 -0.7362 -0.8852
  403MOL0     C54333   8.468  10.623   7.149 -0.4349 -0.0630 -1.0764
  403MOL0     C54334   8.379  10.568   7.091  0.3355  0.8020  0.7565
  403MOL0     C54335   9.188  10.513   7.110  0.7434 -0.1410  0.9111
  403MOL0     C54336   9.311  10.495   7.058 -1.3846  0.6547  0.4167
  403MOL0     C54337   9.372  10.360   7.073 -0.3704  0.9848  0.2334
  403MOL0     H54338   9.848  10.701   7.111  2.4294 -0.9906 -0.5907
  403MOL0     H54339  10.037  10.751   6.979  0.4207  1.2596 -2.5989
  403MOL0     H54340  10.193  10.794   6.858 -0.9559 -0.7999 -0.3911
  403MOL0     H54341  10.170  10.696   6.723  2.5037 -0.0047 -1.2487
  403MOL0     H54342  10.286  10.898   6.588  0.0605 -3.6438 -2.0224
  403MOL0     H54343  10.390  10.803   6.695  0.6815  1.3122  2.9201
  403MOL0     H54344  10.409  10.945   6.860  1.2702  1.2295 -2.0258
  403MOL0     H54345  10.268  11.042   6.823 -1.2410 -0.8216 -0.0751
  403MOL0     H54346  10.519  10.999   6.653  1.6902  2.3696 -0.6491
  403MOL0     H54347  10.391  11.117   6.609  0.7510 -1.1348 -1.6292
  403MOL0     H54348  10.446  11.238   6.817 -0.0953  2.4416 -1.4095
  403MOL0     H54349  10.570  11.128   6.855 -4.3152  0.3007  2.9248
  403MOL0     H54350  10.697  11.293   6.757 -1.0641 -1.0405  1.2597
  403MOL0     H54351  10.683  11.157   6.648 -0.5298  1.9569 -1.4960
  403MOL0     H54352  10.504  11.269   6.514  0.2841  0.4384 -0.8424
  403MOL0     H54353  10.646  11.353   6.501 -0.5225  1.1403  0.6954
  403MOL0     H54354  10.472  11.522   6.557  1.0572  0.0346  0.1374
  403MOL0     H54355  10.448  11.444   6.715  1.6953 -0.0720  2.2579
  403MOL0     H54356  10.723  11.622   6.509 -0.3050 -2.3030 -0.8705
  403MOL0     H54357  10.876  11.836   6.584 -0.8213  3.3994  2.9651
  403MOL0     H54358  10.932  11.824   6.750  1.2298  0.7061 -0.6593
  403MOL0     H54359  11.061  11.621   6.707 -0.9959  2.3020  2.5906
  403MOL0     H54360  10.998  11.615   6.535 -0.6740  0.0517 -0.2706
  403MOL0     H54361  11.113  11.845   6.496 -0.6891 -0.0823 -0.1366
  403MOL0     H54362  11.219  11.705   6.542  0.9434  0.3025  0.4327
  403MOL0     H54363  11.283  11.798   6.744  1.3288 -2.1758 -2.9836
  403MOL0     H54364  11.141  11.912   6.752 -0.9820 -0.0534 -1.5270
  403MOL0     H54365  11.561  11.980   6.626  0.7794  2.0656 -1.2279
  403MOL0     H54366  11.696  12.104   6.781  0.1342  0.2457 -0.1443
  403MOL0     H54367  11.733  12.467   7.150 -0.1816 -2.3921  2.2388
  403MOL0     H54368  11.935  12.547   7.275 -3.5746 -0.9924  0.3014
  403MOL0     H54369  12.317  12.497   7.034  2.1731 -0.8417  0.4827
  403MOL0     H54370  12.249  12.659   7.060 -1.1668 -0.5284  1.5406
  403MOL0     H54371  12.356  12.662   7.288  0.5920  0.2571 -0.5434
  403MOL0     H54372  12.444  12.531   7.240  2.0824  1.2085  0.6740
  403MOL0     H54373  12.439  12.774   7.057 -1.0644 -1.3247 -1.1987
  403MOL0     H54374  12.537  12.783   7.198 -0.9043 -1.0196  0.9786
  403MOL0     H54375  12.583  12.578   6.976 -1.2706  1.9602 -0.8125
  403MOL0     H54376  12.649  12.553   7.139 -1.5691  0.0846  1.0093
  403MOL0     H54377  12.775  12.779   7.092  3.1971  3.0048 -4.7428
  403MOL0     H54378  12.705  12.777   6.932 -2.7616 -1.6484  1.1590
  403MOL0     H54379  12.850  12.569   6.893 -2.0841 -1.5925  2.7648
  403MOL0     H54380  12.935  12.714   6.943 -0.4167  1.2386  0.9088
  403MOL0     H54381  12.913  12.466   7.110 -0.3796 -0.4197  0.7385
  403MOL0     H54382  12.885  12.619   7.194  0.5464  1.5119 -0.4011
  403MOL0     H54383  13.113  12.686   7.086  0.8832 -0.0009  1.5964
  403MOL0     H54384  13.122  12.566   7.206 -1.8474  2.1720  1.4664
  403MOL0     H54385  12.184  12.300   7.023  1.2316 -0.5290  1.8339
  403MOL0     H54386  11.972  12.195   6.930 -1.4722 -0.1567  0.9242
  403MOL0     H54387  11.347  12.281   6.946 -3.1031 -0.2610 -1.6914
  403MOL0     H54388  11.193  12.132   6.787 -0.2018  0.5225  0.7638
  403MOL0     H54389   9.806  10.871   6.642 -2.7624  0.6610  1.5187
  403MOL0     H54390   9.607  10.806   6.759  0.1175  0.7608  0.9972
  403MOL0     H54391   9.369  10.819   6.992  0.5517 -0.4931 -0.4512
  403MOL0     H54392   9.146  10.851   7.079 -1.5875  0.5650 -1.2518
  403MOL0     H54393   8.903  10.810   7.081 -1.0029 -1.0717 -0.1023
  403MOL0     H54394   8.991  10.819   7.235 -2.7430  1.4575  1.3855
  403MOL0     H54395   8.766  10.839   7.296 -2.8954 -0.8536  0.6836
  403MOL0     H54396   8.824  10.676   7.337 -1.9469 -2.3071 -2.0674
  403MOL0     H54397   8.716  10.587   7.132 -0.1688  0.0870 -1.3894
  403MOL0     H54398   8.691  10.747   7.077  0.9362 -0.3636  0.0785
  403MOL0     H54399   8.564  10.636   7.330  1.4246 -1.8410 -1.4490
  403MOL0     H54400   8.543  10.795   7.244 -0.3432 -0.6317 -1.0845
  403MOL0     H54401   8.314  10.511   7.029  1.2252  0.8047 -0.2086
  403MOL0     H54402   9.128  10.435   7.156 -1.0371 -0.1604 -1.2710
  403MOL0     H54403   9.388  10.319   6.974 -1.8084  1.7599 -0.3456
  403MOL0     H54404   9.469  10.378   7.121  0.6595 -0.4753 -1.2169
  403MOL0     H54405   9.317  10.290   7.136  1.0662 -0.3230  0.1029
  404MOL0     O54406   2.732   7.920  10.793  0.5876  0.3145 -0.2001
  404MOL0     C54407   2.684   7.883  10.899 -0.3671 -0.6442 -0.4266
  404MOL0     O54408   2.753   7.881  11.020 -0.3099  0.7786  0.1268
  404MOL0     C54409   2.881   7.917  11.020  0.2970 -0.2119  0.5936
  404MOL0     C54410   2.990   7.834  11.003  0.2640 -0.6853 -0.6390
  404MOL0     C54411   3.118   7.896  11.001 -0.9392  0.4450 -0.3541
  404MOL0     C54412   3.140   8.038  11.007  0.2476  0.2323 -0.6322
  404MOL0     O54413   3.263   8.096  10.996  0.0128  0.2108 -0.0741
  404MOL0     C54414   3.387   8.013  11.011  0.5777 -0.2404 -0.1880
  404MOL0     C54415   3.509   8.096  11.038  0.1864  0.4446  0.6785
  404MOL0     C54416   3.623   7.996  11.043  0.6538 -0.3675 -0.5460
  404MOL0     C54417   3.763   8.071  11.028  0.0506 -0.2181  0.2783
  404MOL0     C54418   3.891   7.981  11.012  0.0792 -0.2308  0.0755
  404MOL0     C54419   4.027   8.048  10.964 -0.2459  0.1967 -0.8017
  404MOL0     C54420   4.016   8.129  10.829  0.4165 -0.4928 -0.5283
  404MOL0     C54421   3.946   8.049  10.721  0.0390  0.3548 -0.4157
  404MOL0     N54422   3.958   8.102  10.580  0.3945  0.2933 -0.9124
  404MOL0     C54423   3.914   8.223  10.541  0.0688 -0.1967  0.3152
  404MOL0     C54424   3.929   8.222  10.407  1.1801  0.0942 -0.2393
  404MOL0     C54425   3.894   8.339  10.317 -0.2332  0.0804 -0.4907
  404MOL0     C54426   3.755   8.391  10.323 -0.9195 -0.9002  0.4982
  404MOL0     C54427   3.733   8.488  10.202  0.3392  0.1935  0.0364
  404MOL0     C54428   3.601   8.553  10.191  0.4573  0.2924 -0.1573
  404MOL0     O54429   3.572   8.625  10.309 -0.0464  0.1215 -0.1093
  404MOL0     C54430   3.454   8.688  10.326  0.8803  0.1387 -0.9331
  404MOL0     C54431   3.444   8.779  10.432 -0.0151 -0.1327 -0.0630
  404MOL0     C54432   3.325   8.845  10.465 -0.1308  0.3727  0.3801
  404MOL0     C54433   3.206   8.829  10.385  0.4026  0.7163 -0.0926
  404MOL0     C54434   3.093   8.915  10.409 -0.0478  0.3253  0.0493
  404MOL0     O54435   3.007   8.925  10.299  0.8163  0.4145 -0.5160
  404MOL0     C54436   2.899   9.001  10.317  0.6942  0.1425 -0.3895
  404MOL0     C54437   2.912   9.136  10.322  0.2567 -0.6712 -1.0701
  404MOL0     C54438   2.799   9.217  10.321  0.2753  0.8099 -0.7330
  404MOL0     C54439   2.676   9.162  10.298  0.6446 -0.0171 -0.0478
  404MOL0     O54440   2.568   9.256  10.289  0.0938 -0.1903 -0.4613
  404MOL0     C54441   2.425   9.214  10.313 -0.1072 -0.1713  0.5206
  404MOL0     C54442   2.341   9.333  10.279  0.0648  0.0819  0.1327
  404MOL0     C54443   2.192   9.293  10.312 -0.0450  0.5533 -0.7612
  404MOL0     C54444   2.099   9.404  10.262 -0.4757 -0.2020  0.0019
  404MOL0     C54445   1.950   9.358  10.247  0.6411 -0.3072 -0.0780
  404MOL0     C54446   1.856   9.477  10.213 -0.3903 -0.3313  0.3294
  404MOL0     C54447   1.721   9.434  10.166 -0.5754  0.1701  0.3221
  404MOL0     C54448   1.620   9.548  10.150  0.1529  0.1279  0.2461
  404MOL0    Cl54449   1.644   9.646  10.009 -0.4215 -0.2524  0.0393
  404MOL0     C54450   2.659   9.025  10.304  0.0759 -0.1795  0.6406
  404MOL0     C54451   2.772   8.941  10.312  0.1151  0.0270 -0.4579
  404MOL0     O54452   3.091   8.982  10.514 -0.0242 -0.4361  0.0506
  404MOL0     C54453   3.213   8.735  10.273  0.4544  0.2109  0.0528
  404MOL0     C54454   3.335   8.668  10.250 -0.9171 -0.4034  0.7723
  404MOL0     N54455   3.966   8.101  10.366  0.1400  0.0541  0.0203
  404MOL0     N54456   3.982   8.027  10.467  0.2989  0.0603  0.1685
  404MOL0     C54457   3.026   8.106  11.024 -0.2801 -0.3226  0.5333
  404MOL0     C54458   2.897   8.056  11.035 -0.0265 -0.6813 -0.1584
  404MOL0     C54459   2.543   7.844  10.901 -0.1063 -0.3802  0.5311
  404MOL0     C54460   2.457   7.925  10.977 -0.1915  0.6140  0.2081
  404MOL0     C54461   2.314   7.921  10.977  0.6822 -1.0475  0.8758
  404MOL0     C54462   2.256   7.827  10.893 -0.5274 -0.0548 -0.5241
  404MOL0     O54463   2.116   7.834  10.874 -0.6333  0.1931  0.5084
  404MOL0     C54464   2.062   7.802  10.751  0.5726 -0.5647 -0.2244
  404MOL0     C54465   1.930   7.888  10.725 -0.4397 -0.0805 -0.7144
  404MOL0     C54466   1.827   7.906  10.838  0.3340 -0.3609  0.7784
  404MOL0     C54467   1.739   8.031  10.801  0.7478  0.2016 -0.1243
  404MOL0     C54468   1.609   8.034  10.870 -0.2208 -0.2582 -0.6544
  404MOL0     C54469   1.491   8.022  10.902 -0.7287  0.3150 -0.8533
  404MOL0     C54470   2.337   7.753  10.802  0.7299  0.0240  0.6172
  404MOL0     C54471   2.480   7.766  10.798  0.3044 -0.2018 -0.6319
  404MOL0     C54472   2.559   7.707  10.684  0.2134  0.4673 -0.5237
  404MOL0     H54473   2.978   7.728  10.983  0.0694 -0.6686 -0.6084
  404MOL0     H54474   3.192   7.826  10.965 -1.7016 -0.4695 -0.1747
  404MOL0     H54475   3.369   7.957  11.103 -0.3076  1.6988  0.8769
  404MOL0     H54476   3.403   7.947  10.925  0.3275  2.8597 -2.7786
  404MOL0     H54477   3.488   8.152  11.129 -2.0839  0.6231  0.1233
  404MOL0     H54478   3.526   8.168  10.957  0.6709  1.7120  1.8848
  404MOL0     H54479   3.614   7.948  10.945 -1.0249  1.1430 -1.1935
  404MOL0     H54480   3.609   7.929  11.129 -1.0208  0.6229  0.0116
  404MOL0     H54481   3.746   8.135  10.941 -0.2121 -1.7420 -0.8256
  404MOL0     H54482   3.777   8.137  11.115 -0.9554 -0.5720  0.7153
  404MOL0     H54483   3.906   7.916  11.099  1.1189 -2.3498 -1.6016
  404MOL0     H54484   3.867   7.912  10.931 -0.1251  1.0489 -0.9935
  404MOL0     H54485   4.053   8.116  11.046 -0.6122 -1.6771  0.9384
  404MOL0     H54486   4.094   7.962  10.959 -2.2756 -1.6232  1.0781
  404MOL0     H54487   4.112   8.161  10.789  0.6947 -2.7035 -1.7944
  404MOL0     H54488   3.962   8.220  10.857  2.4754  0.0208  2.2720
  404MOL0     H54489   3.975   7.944  10.725 -2.2401 -0.3447  3.7469
  404MOL0     H54490   3.839   8.042  10.743 -0.6704  2.4701 -2.6655
  404MOL0     H54491   3.869   8.307  10.594 -2.5574  0.3200 -2.4655
  404MOL0     H54492   3.963   8.422  10.333 -3.0011  2.7114 -1.3648
  404MOL0     H54493   3.915   8.299  10.217  0.7163 -0.2615 -0.1723
  404MOL0     H54494   3.694   8.301  10.308  1.9036 -2.3948 -3.6109
  404MOL0     H54495   3.743   8.444  10.418  1.3235  1.1801 -0.2840
  404MOL0     H54496   3.746   8.432  10.109  3.6412 -0.6255  0.8732
  404MOL0     H54497   3.808   8.567  10.197 -0.4358  0.9317 -0.2341
  404MOL0     H54498   3.527   8.476  10.170  0.5000 -0.4540  2.1006
  404MOL0     H54499   3.592   8.617  10.103  0.0821  1.9391  1.0350
  404MOL0     H54500   3.527   8.786  10.501 -1.7239 -2.0523  2.3846
  404MOL0     H54501   3.321   8.908  10.554 -2.5615 -1.9370  2.0714
  404MOL0     H54502   3.009   9.184  10.319 -0.9709  2.0990  0.3349
  404MOL0     H54503   2.803   9.325  10.332 -1.4553  0.7362  1.2518
  404MOL0     H54504   2.407   9.126  10.250  1.1225 -1.4296  1.8382
  404MOL0     H54505   2.409   9.184  10.417 -1.0616 -1.0987  0.1265
  404MOL0     H54506   2.368   9.419  10.341  1.1775 -1.8741  2.5673
  404MOL0     H54507   2.367   9.355  10.175  0.5575 -0.0500  0.2246
  404MOL0     H54508   2.161   9.199  10.267 -0.7956  1.1872 -1.6130
  404MOL0     H54509   2.177   9.283  10.420  0.3878  4.4366 -0.1856
  404MOL0     H54510   2.143   9.420  10.164 -0.8882 -0.3067 -0.2053
  404MOL0     H54511   2.110   9.492  10.326 -2.3980 -1.3430  2.0607
  404MOL0     H54512   1.911   9.310  10.337  2.1482 -0.2003  0.6638
  404MOL0     H54513   1.944   9.295  10.158 -0.2098 -0.3894  0.0308
  404MOL0     H54514   1.854   9.541  10.301  1.3060  0.6482 -0.2756
  404MOL0     H54515   1.911   9.539  10.141  1.7177  0.4006  2.4472
  404MOL0     H54516   1.683   9.365  10.243  1.3439  0.4943  1.6380
  404MOL0     H54517   1.719   9.376  10.073 -0.8556  1.6335 -0.6199
  404MOL0     H54518   1.517   9.510  10.141  0.3075 -0.0185 -1.0882
  404MOL0     H54519   1.625   9.603  10.245  0.1400  1.8577 -0.7208
  404MOL0     H54520   2.559   8.985  10.288  0.2295 -0.0186 -0.8132
  404MOL0     H54521   2.757   8.834  10.312  1.6340 -0.2198 -1.4492
  404MOL0     H54522   3.123   8.716  10.216  0.5790  1.9157 -0.7860
  404MOL0     H54523   3.344   8.602  10.164  2.2836 -0.6739  1.2004
  404MOL0     H54524   3.036   8.213  11.034  0.7892 -0.3536 -0.0639
  404MOL0     H54525   2.822   8.134  11.040  0.6565  0.0005 -0.3686
  404MOL0     H54526   2.498   7.995  11.049 -0.3264  1.4652 -0.5215
  404MOL0     H54527   2.238   7.977  11.030 -1.8342  0.1342 -3.4387
  404MOL0     H54528   2.030   7.697  10.748 -0.9615 -0.1685  1.1574
  404MOL0     H54529   2.123   7.820  10.662 -0.9934 -1.0385 -1.4491
  404MOL0     H54530   1.884   7.855  10.632  1.5720 -1.2729 -1.3496
  404MOL0     H54531   1.969   7.989  10.708  2.4066 -0.1229  3.8057
  404MOL0     H54532   1.871   7.906  10.938  0.5038  1.8541  0.7470
  404MOL0     H54533   1.762   7.818  10.836  0.9465 -0.8090 -0.2338
  404MOL0     H54534   1.793   8.119  10.837  1.7138 -0.8677  1.1531
  404MOL0     H54535   1.721   8.034  10.694 -2.1091 -4.3501 -0.0193
  404MOL0     H54536   1.397   8.019  10.953  0.3024 -2.4471  1.1240
  404MOL0     H54537   2.289   7.687  10.730 -0.6434 -2.5190  3.5934
  404MOL0     H54538   2.631   7.782  10.649  2.1124 -0.3117  1.4663
  404MOL0     H54539   2.618   7.622  10.719 -2.5990 -0.5603  2.2239
  404MOL0     H54540   2.493   7.662  10.610 -0.2619  1.1833 -0.5454
  405MOL0     O54541   1.904   4.184   0.393  0.5120 -0.1979 -0.2441
  405MOL0     C54542   1.825   4.257   0.331 -0.7563  0.0914  0.0403
  405MOL0     O54543   1.855   4.391   0.312  0.8765  0.3267  0.4613
  405MOL0     C54544   1.977   4.450   0.360  0.0116 -0.2959  0.1373
  405MOL0     C54545   1.971   4.561   0.451 -0.1517  0.7375  0.5738
  405MOL0     C54546   2.093   4.626   0.480  0.3666 -0.6209  1.2356
  405MOL0     C54547   2.223   4.589   0.440  0.1603  0.2755 -0.2922
  405MOL0     O54548   2.344   4.645   0.479  0.6273 -0.2656 -0.5139
  405MOL0     C54549   2.332   4.753   0.584 -0.8076 -0.8088 -0.2563
  405MOL0     C54550   2.464   4.826   0.596 -0.3780 -0.2088 -0.0150
  405MOL0     C54551   2.572   4.748   0.672 -0.0301  0.0704 -0.2289
  405MOL0     C54552   2.636   4.628   0.597  0.4757  0.0007  0.3654
  405MOL0     C54553   2.736   4.546   0.677  0.6363 -0.4835  0.0657
  405MOL0     C54554   2.881   4.528   0.621 -1.3570 -0.2348 -0.6222
  405MOL0     C54555   2.966   4.649   0.639  0.4192  0.2788  0.1943
  405MOL0     C54556   3.109   4.613   0.604  0.1657 -0.1421 -0.1657
  405MOL0     N54557   3.206   4.713   0.643 -0.0925 -0.7982  0.4078
  405MOL0     C54558   3.261   4.802   0.553  0.3140  0.1807  0.5956
  405MOL0     C54559   3.358   4.869   0.620 -0.0005 -0.4509  0.3464
  405MOL0     C54560   3.441   4.989   0.565  0.2090 -0.2956  0.2792
  405MOL0     C54561   3.594   4.984   0.604  0.1347  0.6363 -0.3530
  405MOL0     C54562   3.643   5.125   0.552  0.3748  0.1007  0.1650
  405MOL0     C54563   3.782   5.113   0.486  0.0838  0.2126 -0.3321
  405MOL0     O54564   3.876   5.028   0.567 -0.3524  0.1445  0.1531
  405MOL0     C54565   3.960   5.100   0.652  0.0728  0.6408  0.5925
  405MOL0     C54566   3.954   5.227   0.701  0.1312 -0.5664 -0.5463
  405MOL0     C54567   4.047   5.269   0.790  0.4267  0.8163 -0.1629
  405MOL0     C54568   4.145   5.184   0.845 -0.4575 -0.3979 -0.7929
  405MOL0     C54569   4.244   5.239   0.951 -0.4931 -0.0138  0.7312
  405MOL0     O54570   4.257   5.381   0.960  1.1730 -0.0232 -0.4541
  405MOL0     C54571   4.359   5.448   1.019 -0.2216 -0.2798 -0.0825
  405MOL0     C54572   4.458   5.389   1.102  0.1613 -0.4119  0.1214
  405MOL0     C54573   4.576   5.463   1.153  0.0553 -0.1695 -0.6572
  405MOL0     C54574   4.591   5.596   1.120 -0.0395  0.1306 -1.0534
  405MOL0     O54575   4.710   5.664   1.155 -0.4105  0.2087  0.7604
  405MOL0     C54576   4.691   5.798   1.205  0.4019 -0.7614  0.1526
  405MOL0     C54577   4.819   5.880   1.157 -1.5823  0.9402  1.0703
  405MOL0     C54578   4.828   6.001   1.241 -0.3925  0.5410 -0.8151
  405MOL0     C54579   4.968   6.070   1.225  0.6646 -0.0902  0.4077
  405MOL0     C54580   4.981   6.191   1.317 -0.4408 -0.6381  0.2769
  405MOL0     C54581   5.119   6.263   1.297 -0.3888 -0.0723 -0.1946
  405MOL0     C54582   5.219   6.164   1.360 -0.0963  1.0746  0.9149
  405MOL0     C54583   5.345   6.253   1.389 -0.1038  0.3844 -0.0771
  405MOL0    Cl54584   5.458   6.144   1.476 -0.1496  0.3440 -0.2761
  405MOL0     C54585   4.488   5.654   1.044 -0.8248  0.4545  0.2597
  405MOL0     C54586   4.374   5.586   1.000 -0.1864  0.6093  0.2837
  405MOL0     O54587   4.302   5.158   1.023  0.0055 -0.1381  1.0475
  405MOL0     C54588   4.141   5.052   0.805 -0.1733  0.0495 -0.1715
  405MOL0     C54589   4.046   5.006   0.716 -0.0665  0.7387  0.0166
  405MOL0     N54590   3.357   4.820   0.747  0.5089  0.1396  0.6518
  405MOL0     N54591   3.269   4.725   0.760 -0.5088 -0.1758  0.6018
  405MOL0     C54592   2.221   4.470   0.357  0.1255 -0.1617 -0.6140
  405MOL0     C54593   2.104   4.408   0.315  0.9765 -0.9763  0.4719
  405MOL0     C54594   1.701   4.211   0.265  0.0717  0.0882 -0.0034
  405MOL0     C54595   1.589   4.290   0.227  0.5583 -0.3428 -0.5755
  405MOL0     C54596   1.464   4.254   0.181 -0.2859  0.3559 -0.8078
  405MOL0     C54597   1.449   4.117   0.175 -0.3069 -0.0217 -0.1534
  405MOL0     O54598   1.324   4.083   0.134 -0.2303 -0.1048  0.2996
  405MOL0     C54599   1.290   3.942   0.113  0.0236 -0.8747  0.4239
  405MOL0     C54600   1.272   3.854   0.239 -0.8462  0.6506  0.1202
  405MOL0     C54601   1.287   3.695   0.213  0.7375 -0.1179 -0.0223
  405MOL0     C54602   1.426   3.660   0.153 -0.1410  0.3837 -0.4138
  405MOL0     C54603   1.426   3.523   0.098  0.0527 -0.6203 -0.3336
  405MOL0     C54604   1.435   3.408   0.063  0.5826 -0.4535  0.0835
  405MOL0     C54605   1.555   4.029   0.194 -0.1596 -0.7686 -0.0091
  405MOL0     C54606   1.679   4.069   0.241  0.3314 -0.2170  0.6870
  405MOL0     C54607   1.780   3.961   0.245  0.1526 -0.2064 -0.3254
  405MOL0     H54608   1.870   4.581   0.483 -1.0150 -0.8423 -1.0093
  405MOL0     H54609   2.085   4.710   0.548 -1.8600  0.7664 -0.6175
  405MOL0     H54610   2.261   4.825   0.543 -0.1091 -1.4614 -2.7993
  405MOL0     H54611   2.309   4.718   0.685  1.2621  0.1631  0.6235
  405MOL0     H54612   2.445   4.924   0.641  1.5073 -0.0621  0.5797
  405MOL0     H54613   2.493   4.846   0.492 -1.2616 -0.5109 -0.3259
  405MOL0     H54614   2.527   4.714   0.766 -2.8742 -0.5707 -1.7167
  405MOL0     H54615   2.655   4.814   0.699 -0.5508  0.6903 -0.1221
  405MOL0     H54616   2.561   4.554   0.567 -1.3442  1.3331  1.3826
  405MOL0     H54617   2.687   4.664   0.508 -0.1142  0.5441  0.2382
  405MOL0     H54618   2.736   4.576   0.782  2.6235 -0.9249  0.2315
  405MOL0     H54619   2.698   4.443   0.673 -0.3012 -0.1459 -0.0665
  405MOL0     H54620   2.922   4.440   0.671  0.5113  0.9404 -0.0159
  405MOL0     H54621   2.874   4.497   0.516 -0.9515 -1.5246 -0.2948
  405MOL0     H54622   2.956   4.676   0.744  3.8683  1.4992  0.3471
  405MOL0     H54623   2.924   4.733   0.582 -1.2695 -0.9640 -0.4643
  405MOL0     H54624   3.133   4.514   0.644 -2.6874 -0.1552  1.7609
  405MOL0     H54625   3.101   4.594   0.496  0.3117 -0.9973 -0.0304
  405MOL0     H54626   3.220   4.814   0.454 -1.3031  0.2732  1.2456
  405MOL0     H54627   3.421   4.983   0.458 -0.8871 -2.3511  0.5320
  405MOL0     H54628   3.395   5.081   0.601  0.5164  0.8333 -2.0423
  405MOL0     H54629   3.606   4.965   0.711  1.3613  2.0818 -0.2121
  405MOL0     H54630   3.639   4.903   0.547 -4.0397 -0.2060 -2.9119
  405MOL0     H54631   3.648   5.200   0.632 -1.4731  1.1091 -0.6164
  405MOL0     H54632   3.579   5.179   0.482  0.0872 -0.0192  0.3326
  405MOL0     H54633   3.831   5.208   0.460  1.4523  0.3862  2.4693
  405MOL0     H54634   3.776   5.051   0.397 -1.6205 -2.0280  1.2429
  405MOL0     H54635   3.892   5.302   0.652 -0.7912  0.7856  2.4331
  405MOL0     H54636   4.049   5.375   0.809 -0.6007  1.0996 -1.5083
  405MOL0     H54637   4.463   5.284   1.129  2.7861 -0.7620 -1.3443
  405MOL0     H54638   4.645   5.414   1.221 -1.7417  0.3300  1.6623
  405MOL0     H54639   4.608   5.850   1.158  0.5955  0.8168  1.4846
  405MOL0     H54640   4.682   5.806   1.314 -1.2498  1.1552 -0.0804
  405MOL0     H54641   4.912   5.824   1.155 -0.8390  2.1295 -0.6683
  405MOL0     H54642   4.801   5.913   1.054 -3.2120  2.5082  1.7911
  405MOL0     H54643   4.746   6.070   1.217 -1.6413  0.2434  2.2147
  405MOL0     H54644   4.811   5.973   1.345  0.9334 -0.7954 -0.9313
  405MOL0     H54645   4.988   6.084   1.118  0.9186 -3.4157 -0.0978
  405MOL0     H54646   5.048   5.998   1.246  1.7216  0.6783 -0.8287
  405MOL0     H54647   4.966   6.163   1.422  0.5530 -1.7536  0.1520
  405MOL0     H54648   4.903   6.260   1.283 -0.4390  0.8187  2.9771
  405MOL0     H54649   5.148   6.291   1.196 -2.5039  1.4621 -0.4544
  405MOL0     H54650   5.106   6.355   1.356 -1.6424 -0.8125  0.7594
  405MOL0     H54651   5.252   6.093   1.283 -0.6638  2.3826 -0.6043
  405MOL0     H54652   5.184   6.120   1.454  0.3818  0.5470  0.8511
  405MOL0     H54653   5.402   6.289   1.304  1.5978 -0.7189  0.5521
  405MOL0     H54654   5.318   6.338   1.453  1.4981  0.2014  0.9102
  405MOL0     H54655   4.483   5.759   1.017 -0.3909  0.8745  1.7457
  405MOL0     H54656   4.296   5.642   0.948 -0.7318 -0.0345  0.3829
  405MOL0     H54657   4.210   4.974   0.837  1.2974  0.8091 -1.3964
  405MOL0     H54658   4.045   4.901   0.692 -0.7934  0.7970 -0.2322
  405MOL0     H54659   2.311   4.430   0.311  1.3521 -0.5573  1.9486
  405MOL0     H54660   2.108   4.321   0.250 -5.2967 -0.4825 -1.2371
  405MOL0     H54661   1.590   4.399   0.235  1.8347 -0.0127 -3.8755
  405MOL0     H54662   1.385   4.328   0.169  0.6038  1.3957 -0.4722
  405MOL0     H54663   1.349   3.899   0.032 -1.1629  0.5720 -1.2773
  405MOL0     H54664   1.191   3.937   0.067  0.4267  0.5924 -0.6727
  405MOL0     H54665   1.179   3.865   0.295 -1.0012 -0.5500  0.1417
  405MOL0     H54666   1.350   3.885   0.309  1.9470  0.9155 -2.8668
  405MOL0     H54667   1.216   3.655   0.139  1.2839 -2.1677  0.4873
  405MOL0     H54668   1.274   3.640   0.307  1.2396 -1.6850 -0.8387
  405MOL0     H54669   1.470   3.733   0.083  2.1677 -0.3642  0.1645
  405MOL0     H54670   1.497   3.644   0.234 -1.1102 -2.1316  0.0097
  405MOL0     H54671   1.468   3.310   0.037  1.3563 -0.4682  1.0736
  405MOL0     H54672   1.538   3.922   0.183 -1.0103 -0.9500  2.4116
  405MOL0     H54673   1.870   3.988   0.190  0.6898 -1.4685 -0.1010
  405MOL0     H54674   1.800   3.931   0.349  1.3910 -0.2623 -0.5681
  405MOL0     H54675   1.746   3.869   0.197 -1.2150 -0.8410  1.7367
  406MOL0     O54676   7.736   4.447   9.707  0.2094  0.1415  0.8335
  406MOL0     C54677   7.803   4.455   9.610  0.0702  0.5096 -0.6348
  406MOL0     O54678   7.769   4.533   9.495  0.0600 -0.1137 -0.5207
  406MOL0     C54679   7.656   4.611   9.504 -0.2772  0.4988  0.2905
  406MOL0     C54680   7.674   4.754   9.508 -0.6916 -0.4280  0.0689
  406MOL0     C54681   7.559   4.830   9.525  0.6606 -0.0173  0.6996
  406MOL0     C54682   7.435   4.783   9.536 -0.1947  0.1085  0.0235
  406MOL0     O54683   7.328   4.878   9.536  0.0304 -0.0324 -0.0904
  406MOL0     C54684   7.190   4.842   9.510 -0.3564 -0.4292 -0.1761
  406MOL0     C54685   7.162   4.880   9.360  0.8878  2.0265 -0.1088
  406MOL0     C54686   7.147   5.029   9.351 -0.3186  0.0853 -0.3773
  406MOL0     C54687   7.114   5.073   9.209  0.2836 -0.5887 -0.4814
  406MOL0     C54688   7.154   5.219   9.186 -0.0570 -0.3806 -0.5625
  406MOL0     C54689   7.099   5.279   9.049  0.5531  0.5607  0.2693
  406MOL0     C54690   7.090   5.433   9.045 -0.3689 -0.1076  0.1618
  406MOL0     C54691   7.240   5.489   9.041 -0.3607  0.5835  0.5851
  406MOL0     N54692   7.317   5.468   8.915  0.2324 -0.0936 -0.5188
  406MOL0     C54693   7.414   5.372   8.889  0.4750  0.2753 -0.6703
  406MOL0     C54694   7.480   5.416   8.788 -0.4637 -0.1404  0.4196
  406MOL0     C54695   7.596   5.350   8.729  0.0496  0.4212 -0.0601
  406MOL0     C54696   7.720   5.317   8.814 -0.5075 -0.6955 -0.8938
  406MOL0     C54697   7.814   5.441   8.846  0.3403  0.3550  0.2766
  406MOL0     C54698   7.944   5.404   8.885 -0.3116 -0.0980 -0.0300
  406MOL0     O54699   8.039   5.410   8.777 -0.6598  0.3209 -0.1122
  406MOL0     C54700   8.175   5.402   8.818  0.1187  0.7399  0.0668
  406MOL0     C54701   8.213   5.351   8.945 -0.0530 -0.5723  0.5614
  406MOL0     C54702   8.351   5.336   8.972 -0.5833 -0.6501  0.4652
  406MOL0     C54703   8.446   5.373   8.878 -0.7823  0.4325  0.0076
  406MOL0     C54704   8.597   5.345   8.891 -0.0505 -0.8867  0.0041
  406MOL0     O54705   8.635   5.317   9.017 -0.4166  0.8102  0.4746
  406MOL0     C54706   8.755   5.260   9.048  0.0877  0.8055 -0.1066
  406MOL0     C54707   8.751   5.150   9.136  0.4783 -0.7312  0.5747
  406MOL0     C54708   8.853   5.086   9.184 -0.2093  0.6462  0.3417
  406MOL0     C54709   8.983   5.112   9.137 -0.4018 -0.2657  0.6478
  406MOL0     O54710   9.081   5.037   9.204  0.0467  0.5460 -0.3283
  406MOL0     C54711   9.217   5.056   9.168  0.1794  0.0803  0.2097
  406MOL0     C54712   9.280   5.126   9.290  0.3622  0.3651  0.2170
  406MOL0     C54713   9.416   5.190   9.248  0.0525  0.1608  0.1415
  406MOL0     C54714   9.504   5.073   9.193 -1.4088 -0.1349  0.3949
  406MOL0     C54715   9.649   5.126   9.170 -0.1788  0.7371 -0.1050
  406MOL0     C54716   9.662   5.234   9.060  0.8558  0.2686  0.3949
  406MOL0     C54717   9.809   5.281   9.051 -0.5867  0.0095 -0.2189
  406MOL0     C54718   9.841   5.398   8.951 -0.2349  0.7715  0.4292
  406MOL0    Cl54719   9.746   5.537   8.999 -0.3818 -0.1287 -0.4525
  406MOL0     C54720   9.001   5.222   9.040 -0.9868  0.3592 -0.5692
  406MOL0     C54721   8.886   5.293   9.009  0.4606 -0.5542 -0.3565
  406MOL0     O54722   8.666   5.350   8.791  0.0916  0.9090  0.0330
  406MOL0     C54723   8.398   5.423   8.750  0.2222 -0.0663  0.5152
  406MOL0     C54724   8.267   5.436   8.715  0.8268  0.4725 -0.5977
  406MOL0     N54725   7.427   5.534   8.742 -0.2672  0.1159  0.3562
  406MOL0     N54726   7.333   5.563   8.820  0.7968 -0.1360 -0.0764
  406MOL0     C54727   7.421   4.641   9.548  0.6301 -1.0160  0.2798
  406MOL0     C54728   7.529   4.556   9.522 -0.0800 -0.5503 -0.2633
  406MOL0     C54729   7.913   4.358   9.612 -0.0216  0.5863 -0.2600
  406MOL0     C54730   7.974   4.328   9.733  0.2065 -0.0715 -0.3399
  406MOL0     C54731   8.092   4.254   9.729  0.4342  0.2286  0.1790
  406MOL0     C54732   8.137   4.188   9.614  0.5769  0.5853 -0.7191
  406MOL0     O54733   8.239   4.093   9.632 -0.2070 -0.3255  0.0904
  406MOL0     C54734   8.272   4.013   9.517  0.0100 -0.2639  0.0672
  406MOL0     C54735   8.367   3.904   9.550  0.8247 -0.1796  0.2061
  406MOL0     C54736   8.302   3.798   9.650 -0.3278  0.5001  0.8299
  406MOL0     C54737   8.401   3.707   9.719 -1.2563 -0.3479  0.0033
  406MOL0     C54738   8.475   3.775   9.830 -0.3077  0.5220  0.1007
  406MOL0     C54739   8.543   3.808   9.921  0.5866 -0.1423  0.3834
  406MOL0     C54740   8.074   4.211   9.494 -0.2668  0.4840  0.5438
  406MOL0     C54741   7.962   4.289   9.499  0.5480  0.2294  1.3080
  406MOL0     C54742   7.872   4.306   9.367  0.1910 -0.4661 -0.0306
  406MOL0     H54743   7.768   4.808   9.501 -1.3262  0.7758  0.5698
  406MOL0     H54744   7.578   4.936   9.514  0.3729  0.1280  1.5228
  406MOL0     H54745   7.174   4.734   9.518 -1.0695 -0.3099  0.0971
  406MOL0     H54746   7.128   4.888   9.587  2.4454  1.1738  1.2759
  406MOL0     H54747   7.066   4.833   9.336  0.9886  2.1019 -0.6707
  406MOL0     H54748   7.239   4.853   9.287 -0.9418 -0.6221 -1.2084
  406MOL0     H54749   7.243   5.071   9.383  0.4468 -2.1878  0.5224
  406MOL0     H54750   7.065   5.062   9.415 -1.3332  0.6636 -1.9064
  406MOL0     H54751   7.172   5.011   9.140  2.1959 -0.5087  0.9748
  406MOL0     H54752   7.008   5.054   9.189  0.2112 -0.0393 -0.6178
  406MOL0     H54753   7.127   5.293   9.262  2.4125  2.0410 -1.8733
  406MOL0     H54754   7.262   5.217   9.171 -0.2536 -0.0412 -2.2666
  406MOL0     H54755   7.164   5.233   8.974  0.7287  1.4540 -0.1328
  406MOL0     H54756   6.994   5.248   9.038  0.0014  1.1578  3.0544
  406MOL0     H54757   7.036   5.467   9.135 -1.2173 -5.9961  2.3444
  406MOL0     H54758   7.030   5.460   8.959  0.8360 -1.0232 -1.0060
  406MOL0     H54759   7.220   5.597   9.039 -2.1777  0.2843 -0.1028
  406MOL0     H54760   7.288   5.446   9.129  0.5775 -0.9204 -0.6138
  406MOL0     H54761   7.435   5.281   8.943 -0.6658  1.1660  1.3710
  406MOL0     H54762   7.569   5.257   8.679  0.0737  0.0857  0.5366
  406MOL0     H54763   7.625   5.411   8.643 -0.4346  1.5188  0.5338
  406MOL0     H54764   7.688   5.274   8.909 -0.2493  0.9969 -0.0020
  406MOL0     H54765   7.777   5.233   8.772  2.4183  1.0228 -0.7007
  406MOL0     H54766   7.771   5.489   8.934 -1.6155 -1.8028  0.6029
  406MOL0     H54767   7.807   5.513   8.764  0.0657  0.1861  0.1494
  406MOL0     H54768   7.947   5.308   8.937  1.5584 -0.4620 -0.7309
  406MOL0     H54769   7.976   5.481   8.956  1.4396 -0.0320 -0.8630
  406MOL0     H54770   8.139   5.316   9.016 -2.0659  0.0311 -1.1416
  406MOL0     H54771   8.380   5.287   9.064  0.6847 -3.7737 -1.4751
  406MOL0     H54772   8.651   5.114   9.159  0.5094 -1.9572 -0.9840
  406MOL0     H54773   8.850   5.001   9.251  3.3275 -1.5139 -1.8922
  406MOL0     H54774   9.271   4.961   9.158  1.1808  0.3838  2.2092
  406MOL0     H54775   9.238   5.109   9.075 -0.5966 -2.2938 -1.4092
  406MOL0     H54776   9.213   5.209   9.317 -2.0908 -1.1317 -0.9222
  406MOL0     H54777   9.285   5.062   9.378  0.3019  1.0581  0.7398
  406MOL0     H54778   9.403   5.265   9.169  1.7125  0.5714  0.2243
  406MOL0     H54779   9.471   5.234   9.332 -0.3299  1.0163 -0.0402
  406MOL0     H54780   9.467   5.045   9.093 -0.9261  0.7274 -0.0318
  406MOL0     H54781   9.498   4.980   9.251  0.0968  2.1304  4.5982
  406MOL0     H54782   9.712   5.038   9.153  0.3181  1.3256 -1.4406
  406MOL0     H54783   9.694   5.176   9.256  1.4988 -1.0031  0.1080
  406MOL0     H54784   9.642   5.188   8.963 -1.1261  0.3374  0.7449
  406MOL0     H54785   9.592   5.318   9.069 -0.3728 -0.6919  0.0277
  406MOL0     H54786   9.872   5.195   9.030 -1.0282 -0.9764  2.1785
  406MOL0     H54787   9.847   5.320   9.146  2.8494  1.1070 -1.8640
  406MOL0     H54788   9.946   5.427   8.945  0.7240 -2.2966  0.6651
  406MOL0     H54789   9.814   5.371   8.849  2.4417 -0.5976 -0.0257
  406MOL0     H54790   9.099   5.248   9.000  0.7209  0.6270  3.3335
  406MOL0     H54791   8.896   5.370   8.934  2.6394 -0.6160 -0.1934
  406MOL0     H54792   8.484   5.462   8.696  1.2255 -3.2713 -0.4338
  406MOL0     H54793   8.238   5.468   8.616 -0.3430 -0.6148 -0.6206
  406MOL0     H54794   7.324   4.601   9.575 -1.5947  0.9505 -3.9123
  406MOL0     H54795   7.507   4.450   9.520 -1.0767 -0.3947  1.0250
  406MOL0     H54796   7.942   4.379   9.823  3.6569 -0.5196  1.3007
  406MOL0     H54797   8.143   4.218   9.817 -1.1745 -1.4198  0.4918
  406MOL0     H54798   8.327   4.071   9.443  0.8145 -0.7801  0.2574
  406MOL0     H54799   8.183   3.972   9.467 -0.8080  1.0330  0.4189
  406MOL0     H54800   8.453   3.957   9.592  2.8959 -1.7902 -1.8396
  406MOL0     H54801   8.400   3.863   9.455  2.2551  0.2076  0.5064
  406MOL0     H54802   8.238   3.744   9.580  0.2486 -0.1089  0.7688
  406MOL0     H54803   8.240   3.849   9.725 -1.1209 -3.0500  2.8183
  406MOL0     H54804   8.348   3.622   9.763 -0.8138 -1.0015 -0.7047
  406MOL0     H54805   8.465   3.671   9.637 -3.1681  0.8377 -2.1249
  406MOL0     H54806   8.599   3.861   9.996 -1.9920  3.1679  0.2458
  406MOL0     H54807   8.093   4.161   9.400  0.7687  0.5931  0.6875
  406MOL0     H54808   7.765   4.312   9.388  0.4025  1.8212  0.6150
  406MOL0     H54809   7.897   4.402   9.321  0.1796 -1.2028 -1.6407
  406MOL0     H54810   7.883   4.218   9.302  1.3747  0.1208 -0.6658
  407MOL0     O54811   8.391   3.256   7.790  0.0814 -0.0122 -0.3582
  407MOL0     C54812   8.405   3.181   7.693  1.3261 -0.2367  0.2907
  407MOL0     O54813   8.298   3.116   7.630  0.5946 -0.8333 -0.0706
  407MOL0     C54814   8.180   3.192   7.628 -0.0935 -1.1934  0.1724
  407MOL0     C54815   8.173   3.317   7.569 -0.4815 -0.6908  0.0775
  407MOL0     C54816   8.049   3.381   7.549 -0.2634 -0.2633 -0.6898
  407MOL0     C54817   7.924   3.323   7.589  0.0589  1.1872 -0.9940
  407MOL0     O54818   7.808   3.390   7.601  0.0566 -0.2423 -0.0099
  407MOL0     C54819   7.731   3.383   7.482 -0.5875 -0.1445  0.1379
  407MOL0     C54820   7.594   3.451   7.499 -0.1903  0.4320  0.5083
  407MOL0     C54821   7.558   3.553   7.391 -0.4584 -0.3252 -0.3180
  407MOL0     C54822   7.576   3.496   7.254  0.4839  0.9232 -1.1557
  407MOL0     C54823   7.525   3.585   7.144  0.3030 -0.0328  0.2476
  407MOL0     C54824   7.607   3.711   7.130  0.7471 -0.4409  0.4290
  407MOL0     C54825   7.573   3.777   6.997 -0.0660  0.7590  0.0983
  407MOL0     C54826   7.699   3.818   6.927 -0.2017 -0.0826 -0.3609
  407MOL0     N54827   7.778   3.705   6.894 -0.6430 -0.6318  0.2583
  407MOL0     C54828   7.751   3.611   6.797  0.3556 -0.3213  0.4036
  407MOL0     C54829   7.844   3.517   6.815 -0.4352  0.3461  0.3932
  407MOL0     C54830   7.863   3.390   6.736  0.5530 -0.6724 -0.4856
  407MOL0     C54831   7.930   3.281   6.824  0.0041 -0.7703 -0.1851
  407MOL0     C54832   7.917   3.151   6.743  0.0990  0.4778 -0.2143
  407MOL0     C54833   7.782   3.092   6.768  0.1347  0.2732  0.4616
  407MOL0     O54834   7.771   2.961   6.700  0.5517  0.3851 -0.2125
  407MOL0     C54835   7.661   2.873   6.702 -0.5273  0.3427 -0.1760
  407MOL0     C54836   7.526   2.919   6.725  0.1929  0.2785 -0.8339
  407MOL0     C54837   7.423   2.826   6.711  0.3306  0.2741  0.8847
  407MOL0     C54838   7.453   2.690   6.686  0.0639  0.3874  0.0967
  407MOL0     C54839   7.350   2.596   6.679  0.8923  0.1286 -0.4226
  407MOL0     O54840   7.221   2.646   6.669  0.3258 -0.1717 -0.2272
  407MOL0     C54841   7.124   2.552   6.652  0.3837 -0.2497 -0.7241
  407MOL0     C54842   7.095   2.473   6.538  0.7930 -1.1670  0.0614
  407MOL0     C54843   6.991   2.388   6.525 -0.1257  0.8113  1.3481
  407MOL0     C54844   6.906   2.371   6.631 -0.1147  0.0125 -0.7963
  407MOL0     O54845   6.805   2.277   6.637  0.2422 -0.1438 -0.5020
  407MOL0     C54846   6.686   2.311   6.578 -0.1402  0.7040 -0.8181
  407MOL0     C54847   6.586   2.220   6.640  0.4550  1.1183 -0.0839
  407MOL0     C54848   6.466   2.208   6.551  0.1540  0.8041 -0.7202
  407MOL0     C54849   6.353   2.118   6.601 -0.3509  0.6539 -0.0801
  407MOL0     C54850   6.242   2.082   6.497  0.0829  0.2326 -0.0544
  407MOL0     C54851   6.120   2.012   6.561  0.0411 -0.9231  0.2579
  407MOL0     C54852   6.026   1.961   6.443  0.2790 -0.7305 -0.0224
  407MOL0     C54853   5.886   1.936   6.495  0.1277  0.3220 -0.1921
  407MOL0    Cl54854   5.892   1.804   6.613 -0.2829 -0.2135  0.2003
  407MOL0     C54855   6.930   2.444   6.749 -0.8259  0.0553 -0.2464
  407MOL0     C54856   7.031   2.540   6.760  0.2396 -0.0731 -0.4600
  407MOL0     O54857   7.382   2.474   6.685 -0.5294 -0.6984  0.6230
  407MOL0     C54858   7.588   2.652   6.672  0.6008 -0.1029 -0.3048
  407MOL0     C54859   7.694   2.740   6.679  0.4055 -0.3813 -0.5105
  407MOL0     N54860   7.937   3.559   6.906  0.0487  0.0613  0.5016
  407MOL0     N54861   7.897   3.670   6.953 -0.1833  0.5792 -0.4062
  407MOL0     C54862   7.936   3.195   7.650  0.7931  0.3697  0.3612
  407MOL0     C54863   8.057   3.129   7.658 -0.9693 -0.0298 -0.4182
  407MOL0     C54864   8.540   3.129   7.661 -0.2734  0.1808  0.0390
  407MOL0     C54865   8.549   2.995   7.617  0.2800 -0.8539 -0.5015
  407MOL0     C54866   8.665   2.947   7.555 -0.8643 -0.7184  0.5845
  407MOL0     C54867   8.783   3.027   7.547 -1.0534  0.4903  0.0981
  407MOL0     O54868   8.912   2.982   7.493  0.2281 -0.6630  0.3219
  407MOL0     C54869   8.909   2.887   7.379 -0.3286  0.6696 -0.5318
  407MOL0     C54870   9.022   2.940   7.289  0.1953 -0.3012  0.1174
  407MOL0     C54871   9.169   2.892   7.330  0.1754 -0.3242  0.0744
  407MOL0     C54872   9.264   2.966   7.239  0.5981 -1.2381 -0.0564
  407MOL0     C54873   9.402   2.923   7.266  0.5425  0.4786  0.6638
  407MOL0     C54874   9.517   2.900   7.299 -0.2605  0.5594  0.8997
  407MOL0     C54875   8.779   3.150   7.609  0.0171 -0.0173 -0.6589
  407MOL0     C54876   8.660   3.204   7.665 -0.1833 -0.5594 -1.1819
  407MOL0     C54877   8.668   3.344   7.718  0.2898  0.2824 -0.2516
  407MOL0     H54878   8.270   3.356   7.539 -0.0284  0.5908  2.9110
  407MOL0     H54879   8.044   3.481   7.508 -0.3696  0.5709  1.2390
  407MOL0     H54880   7.786   3.449   7.415  0.1661  2.5962  3.1552
  407MOL0     H54881   7.724   3.279   7.449  1.1874 -1.1223  2.5837
  407MOL0     H54882   7.574   3.500   7.595  1.4784 -0.1076  1.1638
  407MOL0     H54883   7.515   3.375   7.493  0.1116  0.1628 -0.2500
  407MOL0     H54884   7.616   3.645   7.401  0.6541 -0.8555 -1.5196
  407MOL0     H54885   7.455   3.583   7.411 -1.0047  1.0282 -4.2708
  407MOL0     H54886   7.678   3.464   7.229  0.1126 -1.8592  0.4226
  407MOL0     H54887   7.521   3.402   7.263  0.4001  0.8223 -2.5213
  407MOL0     H54888   7.539   3.511   7.066  2.4696  0.9348 -0.3580
  407MOL0     H54889   7.418   3.606   7.155  0.1874 -0.7301  0.4736
  407MOL0     H54890   7.585   3.776   7.216  1.0849  1.1420 -0.6260
  407MOL0     H54891   7.711   3.683   7.146  1.0877 -0.7825 -2.0328
  407MOL0     H54892   7.511   3.863   7.025  0.0344 -0.0003  3.0250
  407MOL0     H54893   7.511   3.709   6.937  0.8537  0.1819 -0.2172
  407MOL0     H54894   7.667   3.870   6.837  0.8647  1.0145 -0.1340
  407MOL0     H54895   7.759   3.890   6.986 -1.8142  2.6349 -1.8272
  407MOL0     H54896   7.669   3.609   6.726 -0.1130 -1.0386  0.9599
  407MOL0     H54897   7.763   3.360   6.702  0.1740  0.5435 -0.4773
  407MOL0     H54898   7.934   3.413   6.656  1.3439  0.7648  0.6029
  407MOL0     H54899   8.034   3.308   6.842 -0.5894  0.7673  1.2014
  407MOL0     H54900   7.874   3.269   6.918 -2.5665  0.3395 -1.4846
  407MOL0     H54901   7.992   3.083   6.784  0.9248  1.2684 -0.3882
  407MOL0     H54902   7.933   3.174   6.638 -0.8758  0.4185 -0.3809
  407MOL0     H54903   7.708   3.159   6.724  1.2545  0.0234 -1.9842
  407MOL0     H54904   7.768   3.070   6.875  1.5880 -1.5640  0.3392
  407MOL0     H54905   7.490   3.017   6.754  0.5716  0.2749 -0.3266
  407MOL0     H54906   7.321   2.861   6.724  1.1694  2.3003  2.6710
  407MOL0     H54907   7.152   2.488   6.447  1.8795 -3.0792  0.3619
  407MOL0     H54908   6.978   2.326   6.437  0.0169  0.6543  1.4360
  407MOL0     H54909   6.659   2.414   6.604 -0.6969  0.2142  0.6236
  407MOL0     H54910   6.688   2.309   6.468  1.1699  1.7353 -0.8333
  407MOL0     H54911   6.625   2.121   6.665 -0.2368  0.5188 -1.2819
  407MOL0     H54912   6.564   2.258   6.740 -0.3035 -2.4201  1.2378
  407MOL0     H54913   6.418   2.306   6.554  0.3092  0.8776  2.3256
  407MOL0     H54914   6.505   2.178   6.453 -0.7184 -1.1505 -0.5159
  407MOL0     H54915   6.310   2.156   6.694  2.4448  1.4283  1.0114
  407MOL0     H54916   6.401   2.023   6.628 -1.2657  1.0496  3.4934
  407MOL0     H54917   6.278   2.019   6.415  0.7164  1.9804 -1.1743
  407MOL0     H54918   6.198   2.176   6.464 -0.3121 -0.1025 -0.5022
  407MOL0     H54919   6.149   1.931   6.629  0.4530 -1.5899 -0.6801
  407MOL0     H54920   6.079   2.094   6.620 -1.0397 -0.7427 -0.7084
  407MOL0     H54921   6.058   1.871   6.389 -0.9806 -1.5963  0.6296
  407MOL0     H54922   6.012   2.035   6.363  0.8551  0.1060  0.6358
  407MOL0     H54923   5.847   2.026   6.544  0.0225  0.5616 -0.7104
  407MOL0     H54924   5.825   1.911   6.407 -1.4260 -1.6851  1.3597
  407MOL0     H54925   6.848   2.422   6.816 -1.3439 -0.6431 -1.0977
  407MOL0     H54926   7.039   2.591   6.855 -1.8956  2.3236 -1.4654
  407MOL0     H54927   7.615   2.550   6.646 -0.6373 -0.7024  0.6380
  407MOL0     H54928   7.798   2.708   6.680  1.4239  2.4027 -2.7252
  407MOL0     H54929   7.849   3.138   7.682 -1.5833  1.4476 -3.5783
  407MOL0     H54930   8.067   3.034   7.710  0.6186 -0.3783 -1.2827
  407MOL0     H54931   8.468   2.923   7.624 -1.9770  1.7017  1.6253
  407MOL0     H54932   8.658   2.846   7.515 -2.0700 -1.1919  1.9019
  407MOL0     H54933   8.807   2.885   7.340 -0.0770 -0.4253 -1.1690
  407MOL0     H54934   8.939   2.789   7.417  0.5304  1.5876  1.3095
  407MOL0     H54935   9.031   3.048   7.305 -0.8186 -0.3494  1.1592
  407MOL0     H54936   8.999   2.908   7.187 -2.0961 -0.7931  0.7156
  407MOL0     H54937   9.171   2.784   7.310  0.9152  0.3338 -4.4679
  407MOL0     H54938   9.179   2.910   7.437 -1.8754  0.1644  0.2365
  407MOL0     H54939   9.238   2.942   7.136 -0.6345 -0.6736  0.1058
  407MOL0     H54940   9.245   3.074   7.237 -0.5068 -1.4077  0.5165
  407MOL0     H54941   9.614   2.882   7.341  0.3351 -0.3345 -0.7608
  407MOL0     H54942   8.875   3.200   7.616  1.2614 -2.5275  3.0193
  407MOL0     H54943   8.588   3.410   7.682  0.0951 -0.1595 -0.6311
  407MOL0     H54944   8.653   3.334   7.826 -1.0115  0.4829 -0.3911
  407MOL0     H54945   8.767   3.388   7.706  1.3807 -1.5756  1.4370
  408MOL0     O54946   7.590   0.532   0.823 -0.5639 -0.2041 -0.1736
  408MOL0     C54947   7.569   0.462   0.720 -0.4584 -1.1086 -0.7785
  408MOL0     O54948   7.669   0.415   0.637 -0.5824  0.1664 -0.9633
  408MOL0     C54949   7.799   0.437   0.673 -0.5168  0.5114  0.0877
  408MOL0     C54950   7.860   0.555   0.727  0.2800  0.6925 -0.5789
  408MOL0     C54951   8.001   0.563   0.726  0.4298 -0.3188  0.7012
  408MOL0     C54952   8.085   0.460   0.677 -0.8954  0.5727 -0.3134
  408MOL0     O54953   8.223   0.484   0.677  0.1699  0.5584  0.3449
  408MOL0     C54954   8.309   0.380   0.643 -0.3097  0.6962  0.5405
  408MOL0     C54955   8.448   0.435   0.640 -0.0167  0.1489 -0.1834
  408MOL0     C54956   8.507   0.463   0.778 -0.8994  0.0290  0.4238
  408MOL0     C54957   8.567   0.344   0.835  0.3761  0.9358  0.2506
  408MOL0     C54958   8.647   0.379   0.963  0.0515  0.3059 -0.2375
  408MOL0     C54959   8.548   0.412   1.078 -0.5930  0.1313  0.8572
  408MOL0     C54960   8.627   0.489   1.185 -0.0134 -0.0470  0.1427
  408MOL0     C54961   8.542   0.512   1.305 -0.1388  0.0649  0.4461
  408MOL0     N54962   8.620   0.566   1.414 -0.1040 -0.4346 -0.0231
  408MOL0     C54963   8.749   0.601   1.408 -0.2877  0.3668  0.6733
  408MOL0     C54964   8.790   0.606   1.537  0.0947 -0.2201 -0.9814
  408MOL0     C54965   8.923   0.655   1.594 -0.0105  0.4290  0.1124
  408MOL0     C54966   9.049   0.661   1.500  0.4765 -0.4159 -0.3548
  408MOL0     C54967   9.048   0.790   1.409 -0.2887  0.1249  0.3851
  408MOL0     C54968   9.187   0.795   1.352 -0.9880  0.4385  0.4876
  408MOL0     O54969   9.305   0.820   1.434  0.6591  0.1715 -0.2753
  408MOL0     C54970   9.329   0.950   1.475 -0.8721 -0.5035  0.1701
  408MOL0     C54971   9.254   1.065   1.427 -0.0549  0.8773  0.0363
  408MOL0     C54972   9.291   1.190   1.471 -0.8159 -0.5202 -0.3011
  408MOL0     C54973   9.401   1.216   1.556 -0.4394 -0.6341  0.6912
  408MOL0     C54974   9.446   1.354   1.584  0.3518  0.0041 -0.1007
  408MOL0     O54975   9.573   1.362   1.638 -0.2180  0.1155 -0.4065
  408MOL0     C54976   9.643   1.486   1.643  0.3704 -0.3698 -0.9605
  408MOL0     C54977   9.582   1.607   1.664  0.3308 -0.2263 -0.3991
  408MOL0     C54978   9.662   1.720   1.680  0.3698  0.3846  0.2226
  408MOL0     C54979   9.798   1.714   1.662 -0.0360 -0.9839  0.6382
  408MOL0     O54980   9.860   1.829   1.707 -0.0190  0.0545 -0.9961
  408MOL0     C54981   9.992   1.824   1.759 -0.1666  0.8884 -0.3389
  408MOL0     C54982  10.033   1.968   1.781  0.8141  0.0487 -0.3939
  408MOL0     C54983  10.171   1.976   1.842  0.0256 -0.5012  0.3723
  408MOL0     C54984  10.207   2.126   1.873  0.1219  0.9852 -0.2196
  408MOL0     C54985  10.339   2.134   1.953  0.0856 -0.3704  0.7236
  408MOL0     C54986  10.380   2.281   1.976 -0.0446  0.8363  0.4991
  408MOL0     C54987  10.509   2.290   2.060  0.2209  0.5745 -0.3561
  408MOL0     C54988  10.580   2.420   2.046 -0.4034 -0.4145  0.8819
  408MOL0    Cl54989  10.660   2.439   1.885  0.5995  0.0022 -0.0796
  408MOL0     C54990   9.859   1.592   1.631 -0.1589  0.8201 -0.2707
  408MOL0     C54991   9.778   1.476   1.636  0.2107  0.0282 -0.6688
  408MOL0     O54992   9.367   1.449   1.545  0.1708 -0.0740 -0.2029
  408MOL0     C54993   9.471   1.101   1.598  0.4213 -0.6696 -0.6184
  408MOL0     C54994   9.441   0.975   1.554  0.6165 -0.5781 -0.0560
  408MOL0     N54995   8.684   0.572   1.615 -1.1357  0.6617 -0.3298
  408MOL0     N54996   8.591   0.543   1.544  0.8291  0.7991 -0.0902
  408MOL0     C54997   8.020   0.350   0.633 -0.4643  0.8416  1.1127
  408MOL0     C54998   7.884   0.341   0.623 -0.3738 -0.4070 -0.2574
  408MOL0     C54999   7.430   0.422   0.680 -0.1121 -0.0921  0.2315
  408MOL0     C55000   7.410   0.348   0.559 -0.5535 -0.5846  0.6456
  408MOL0     C55001   7.289   0.294   0.516 -0.4370 -0.0568 -0.0090
  408MOL0     C55002   7.171   0.314   0.592 -0.1449  0.8945  0.6925
  408MOL0     O55003   7.047   0.271   0.569 -0.2938  0.6774  0.1416
  408MOL0     C55004   7.003   0.216   0.440  0.0789 -0.3090 -0.3983
  408MOL0     C55005   7.022   0.305   0.316 -0.5762 -0.5910  0.4808
  408MOL0     C55006   6.954   0.450   0.319 -0.6080 -0.1305 -0.1290
  408MOL0     C55007   6.806   0.455   0.276  0.1498 -0.0624  0.3673
  408MOL0     C55008   6.725   0.367   0.360  1.2917  0.3105  0.3661
  408MOL0     C55009   6.647   0.286   0.413  0.1662 -0.5594  0.7920
  408MOL0     C55010   7.188   0.375   0.717 -1.0680  0.1970  0.4230
  408MOL0     C55011   7.307   0.434   0.757 -0.4932  0.2044 -0.2375
  408MOL0     C55012   7.315   0.512   0.892  0.5043 -0.2003  0.3505
  408MOL0     H55013   7.798   0.637   0.760 -0.0163 -0.2960  1.5235
  408MOL0     H55014   8.054   0.649   0.767  0.3239 -0.3712  0.9500
  408MOL0     H55015   8.297   0.297   0.713  1.0443  0.8793  1.0052
  408MOL0     H55016   8.279   0.354   0.541 -2.5265 -0.0446  1.3122
  408MOL0     H55017   8.441   0.529   0.585  3.9535  0.3418 -0.7009
  408MOL0     H55018   8.512   0.369   0.580 -1.0445  0.8677 -2.1546
  408MOL0     H55019   8.434   0.512   0.844 -0.5201 -0.6043  1.3375
  408MOL0     H55020   8.593   0.528   0.761  0.8332 -1.0690  3.8873
  408MOL0     H55021   8.494   0.268   0.863  2.1347 -0.5337  1.0689
  408MOL0     H55022   8.630   0.314   0.752 -0.8677 -1.9534  0.2315
  408MOL0     H55023   8.703   0.293   1.000  1.7999  2.5954  2.9011
  408MOL0     H55024   8.719   0.456   0.936 -0.3050  0.8466  0.3416
  408MOL0     H55025   8.463   0.467   1.037 -1.5905 -2.6759 -1.1315
  408MOL0     H55026   8.501   0.322   1.118  1.6863 -0.9985  1.1521
  408MOL0     H55027   8.641   0.590   1.145 -0.1925 -0.2521 -0.4543
  408MOL0     H55028   8.716   0.432   1.212 -0.3288  0.2627  1.9731
  408MOL0     H55029   8.454   0.570   1.277 -0.5584 -1.0516 -0.5956
  408MOL0     H55030   8.506   0.414   1.336  0.4605 -0.6118 -0.9304
  408MOL0     H55031   8.806   0.623   1.318 -0.1402  0.9499  0.9010
  408MOL0     H55032   8.912   0.760   1.624  1.3101  0.9727 -1.1801
  408MOL0     H55033   8.951   0.591   1.678  0.1926 -1.0498 -1.0343
  408MOL0     H55034   9.138   0.674   1.563  1.2386 -0.7521 -1.3346
  408MOL0     H55035   9.044   0.567   1.444  2.1904 -1.1560  0.6371
  408MOL0     H55036   9.023   0.875   1.473  1.0999  0.5913  0.3331
  408MOL0     H55037   8.977   0.774   1.327  0.2391 -2.5137  0.3545
  408MOL0     H55038   9.179   0.861   1.265 -0.8190  2.4615  1.9559
  408MOL0     H55039   9.197   0.691   1.318  1.0529  0.1563  1.7874
  408MOL0     H55040   9.169   1.054   1.361  0.4313 -0.7118 -0.3634
  408MOL0     H55041   9.235   1.274   1.430 -0.9085 -0.5817 -0.2999
  408MOL0     H55042   9.474   1.600   1.677 -0.0804  0.6716 -2.7201
  408MOL0     H55043   9.619   1.818   1.700 -0.4585  0.2372 -0.7425
  408MOL0     H55044   9.990   1.773   1.856 -3.7403 -1.0408 -1.2477
  408MOL0     H55045  10.066   1.785   1.688  0.9088  2.4218 -0.1107
  408MOL0     H55046  10.016   2.025   1.690 -2.4757 -1.0461 -0.6051
  408MOL0     H55047   9.969   2.018   1.855  2.2768  0.3362  0.7217
  408MOL0     H55048  10.165   1.918   1.934  0.7763 -1.2105 -0.0156
  408MOL0     H55049  10.247   1.930   1.778  0.5082 -0.6390  1.0447
  408MOL0     H55050  10.121   2.174   1.921 -0.6375  0.0514 -0.6049
  408MOL0     H55051  10.218   2.173   1.775  1.7176 -0.3490 -0.7162
  408MOL0     H55052  10.420   2.077   1.906 -0.8192 -2.0658  1.1494
  408MOL0     H55053  10.330   2.090   2.053 -0.9195 -0.1658  0.7302
  408MOL0     H55054  10.403   2.329   1.880  2.7770 -1.2729 -0.0208
  408MOL0     H55055  10.292   2.328   2.021 -1.9301 -0.2313 -1.8195
  408MOL0     H55056  10.576   2.207   2.035  0.3935  0.5776  0.0945
  408MOL0     H55057  10.472   2.276   2.162  0.1767 -0.7883 -0.5305
  408MOL0     H55058  10.511   2.503   2.063  0.0275  0.4391 -1.1984
  408MOL0     H55059  10.652   2.439   2.125  1.0132  1.9825 -0.8372
  408MOL0     H55060   9.966   1.577   1.624 -0.2317  0.5679 -0.9472
  408MOL0     H55061   9.819   1.378   1.618 -0.4167  0.0561 -2.4426
  408MOL0     H55062   9.559   1.116   1.660 -0.6745  0.8849  0.6561
  408MOL0     H55063   9.511   0.893   1.570  1.9508  0.3868 -0.8574
  408MOL0     H55064   8.077   0.270   0.586 -0.4128  1.1697  0.6098
  408MOL0     H55065   7.844   0.257   0.567  0.8705 -1.2222  0.0446
  408MOL0     H55066   7.497   0.325   0.497 -1.7156 -0.0838 -1.2763
  408MOL0     H55067   7.286   0.232   0.427  4.2225  0.2493 -0.6069
  408MOL0     H55068   6.896   0.197   0.453 -0.2061 -0.3017 -2.4914
  408MOL0     H55069   7.049   0.121   0.413 -1.4249 -0.5546 -2.3165
  408MOL0     H55070   6.980   0.247   0.234  0.2078 -0.2993 -0.1316
  408MOL0     H55071   7.128   0.320   0.294 -0.6103  1.1402  1.3145
  408MOL0     H55072   7.004   0.518   0.249 -0.3619 -0.3535 -0.1699
  408MOL0     H55073   6.967   0.475   0.425  1.1381  0.1899 -0.3761
  408MOL0     H55074   6.759   0.553   0.270 -2.4569 -1.2722 -0.4976
  408MOL0     H55075   6.812   0.419   0.173  2.0119 -1.4341  0.9037
  408MOL0     H55076   6.588   0.213   0.464  3.1011 -3.0519  0.8472
  408MOL0     H55077   7.106   0.411   0.778 -0.1944  3.5223 -0.1675
  408MOL0     H55078   7.405   0.488   0.949  0.5661  2.3347  1.4472
  408MOL0     H55079   7.327   0.618   0.867 -1.1896 -0.7186 -3.1822
  408MOL0     H55080   7.228   0.501   0.958  0.7303 -3.1080  0.3107
  409MOL0     O55081   4.970   1.777   0.757  0.4736 -0.1997 -0.0325
  409MOL0     C55082   4.940   1.815   0.871 -0.4836 -0.0546  0.5722
  409MOL0     O55083   4.992   1.774   0.989 -0.1094 -0.8457 -0.1404
  409MOL0     C55084   5.090   1.685   0.997 -0.5878 -0.0203 -0.4519
  409MOL0     C55085   5.097   1.603   1.107 -0.1471  0.4976 -0.1451
  409MOL0     C55086   5.206   1.517   1.127  0.5999  0.9347  0.2457
  409MOL0     C55087   5.319   1.513   1.046  0.0369  0.1494 -0.6763
  409MOL0     O55088   5.425   1.431   1.075 -0.3125  0.7400  0.0539
  409MOL0     C55089   5.559   1.472   1.040  0.4745  0.4205 -0.3217
  409MOL0     C55090   5.652   1.380   1.113 -0.4684  0.5677  0.2678
  409MOL0     C55091   5.798   1.417   1.084 -0.0915  0.4813  0.4250
  409MOL0     C55092   5.906   1.323   1.134 -0.2193  0.1928 -0.1379
  409MOL0     C55093   6.048   1.387   1.111  0.5991  0.3102 -0.5317
  409MOL0     C55094   6.158   1.312   1.188 -0.2060 -0.2674  0.5119
  409MOL0     C55095   6.292   1.380   1.186 -0.4634 -0.5751  1.1243
  409MOL0     C55096   6.394   1.298   1.264  0.1642  0.0909  0.1076
  409MOL0     N55097   6.529   1.342   1.240 -0.6387  0.1865  0.3170
  409MOL0     C55098   6.573   1.476   1.235  0.9044 -0.2774 -0.0250
  409MOL0     C55099   6.700   1.473   1.207 -0.1393 -0.4014  0.6629
  409MOL0     C55100   6.789   1.595   1.203  0.5373  0.9433 -0.0332
  409MOL0     C55101   6.910   1.576   1.106 -0.6571  0.5672 -0.1177
  409MOL0     C55102   6.871   1.585   0.950 -0.7478 -0.2280  0.3056
  409MOL0     C55103   6.995   1.550   0.867 -1.1756  0.1637 -0.3160
  409MOL0     O55104   7.041   1.672   0.805 -0.1570  0.1660 -0.0404
  409MOL0     C55105   7.163   1.738   0.825 -0.5201  0.2815  0.0246
  409MOL0     C55106   7.192   1.848   0.747 -1.5598 -0.1344 -0.0409
  409MOL0     C55107   7.322   1.916   0.761  0.4134 -0.1588  0.3237
  409MOL0     C55108   7.421   1.861   0.839 -0.5585 -0.9541 -0.1719
  409MOL0     C55109   7.557   1.923   0.845 -0.3306  0.3385  0.1071
  409MOL0     O55110   7.581   2.049   0.791 -0.1363 -0.1198  0.8220
  409MOL0     C55111   7.693   2.126   0.819 -0.7106 -0.5408  0.1960
  409MOL0     C55112   7.820   2.076   0.832  0.2145  0.7157  0.3836
  409MOL0     C55113   7.927   2.159   0.868 -0.2017 -0.1748 -0.0886
  409MOL0     C55114   7.915   2.295   0.889  0.5174  0.8757 -0.6974
  409MOL0     O55115   8.023   2.362   0.940  0.2073  0.8946 -0.2642
  409MOL0     C55116   7.994   2.483   1.015 -0.4565 -0.3037  0.1635
  409MOL0     C55117   8.114   2.545   1.075  0.1610 -0.2058 -0.1031
  409MOL0     C55118   8.218   2.441   1.144  0.5848 -0.4847  0.3942
  409MOL0     C55119   8.337   2.491   1.229 -0.4912  0.3501 -1.0747
  409MOL0     C55120   8.441   2.564   1.149  0.5652  0.1653 -0.2027
  409MOL0     C55121   8.508   2.677   1.229 -0.0785 -0.4576  0.6150
  409MOL0     C55122   8.582   2.785   1.147 -0.1640 -0.1281  0.4500
  409MOL0     C55123   8.717   2.730   1.091 -0.1177  0.3487 -0.1171
  409MOL0    Cl55124   8.842   2.720   1.220 -0.2463  0.3611 -0.2840
  409MOL0     C55125   7.787   2.343   0.858  0.8732 -0.4862  0.2870
  409MOL0     C55126   7.678   2.262   0.826  0.3411 -0.0560  0.7222
  409MOL0     O55127   7.633   1.856   0.907 -0.1515 -0.2228  0.1343
  409MOL0     C55128   7.388   1.750   0.911 -1.2461 -0.0710 -1.2432
  409MOL0     C55129   7.259   1.692   0.910 -0.1678 -0.3351 -0.0310
  409MOL0     N55130   6.744   1.339   1.205  0.6035  0.3310  0.1748
  409MOL0     N55131   6.633   1.264   1.218 -0.0118  0.8456  0.1209
  409MOL0     C55132   5.313   1.598   0.933  0.6130  0.1405  0.5913
  409MOL0     C55133   5.196   1.677   0.909 -0.4530 -0.9541 -0.5087
  409MOL0     C55134   4.838   1.924   0.877 -0.0816 -0.3840 -0.0054
  409MOL0     C55135   4.807   1.971   1.004  0.7453 -0.5255 -0.0886
  409MOL0     C55136   4.705   2.065   1.024 -0.6397  0.1233 -0.3960
  409MOL0     C55137   4.627   2.114   0.919  0.3888 -0.6143  0.4391
  409MOL0     O55138   4.526   2.208   0.936 -0.6244 -0.1666  0.4278
  409MOL0     C55139   4.501   2.253   1.071 -0.5677 -0.2309 -0.1164
  409MOL0     C55140   4.371   2.333   1.072  0.0431  0.2923 -0.2432
  409MOL0     C55141   4.354   2.450   0.972  0.0369 -1.0697 -0.3220
  409MOL0     C55142   4.379   2.584   1.045  0.3246  0.5313  0.4105
  409MOL0     C55143   4.274   2.616   1.134 -0.5084 -0.5285 -1.0238
  409MOL0     C55144   4.196   2.649   1.224  0.0959  0.1293  0.1207
  409MOL0     C55145   4.665   2.075   0.794 -0.4470 -1.2053  0.0393
  409MOL0     C55146   4.770   1.981   0.774  0.7295  0.4881  0.2996
  409MOL0     C55147   4.780   1.946   0.628 -0.4176 -0.2313 -0.7378
  409MOL0     H55148   5.018   1.613   1.181 -0.1198 -2.4779  0.4178
  409MOL0     H55149   5.198   1.451   1.213  0.6613  2.1379  1.2020
  409MOL0     H55150   5.571   1.456   0.933  0.8252  0.7176 -0.3282
  409MOL0     H55151   5.568   1.579   1.059  0.0901  0.3615  0.2292
  409MOL0     H55152   5.642   1.274   1.088  1.6964  0.3951 -0.0518
  409MOL0     H55153   5.632   1.375   1.220  0.5836 -0.0615  0.4463
  409MOL0     H55154   5.817   1.503   1.149  0.9521 -1.2143  2.4814
  409MOL0     H55155   5.809   1.434   0.976  1.5502 -1.0084  0.3228
  409MOL0     H55156   5.880   1.302   1.238 -0.2803 -0.2318 -0.2342
  409MOL0     H55157   5.915   1.231   1.075 -0.3851 -0.9996  1.6166
  409MOL0     H55158   6.067   1.386   1.003 -0.1396 -1.0313 -0.6664
  409MOL0     H55159   6.049   1.492   1.145  1.0273  1.0576 -2.7106
  409MOL0     H55160   6.129   1.298   1.292 -1.8609 -2.0274 -0.1241
  409MOL0     H55161   6.170   1.212   1.147  0.7393 -0.1889  0.5623
  409MOL0     H55162   6.292   1.483   1.223  0.8775  1.7529 -4.4233
  409MOL0     H55163   6.327   1.390   1.083  1.2149  2.6562  1.8786
  409MOL0     H55164   6.380   1.290   1.373  1.3933 -1.0519  0.2127
  409MOL0     H55165   6.379   1.196   1.227 -0.2548  0.4691 -0.7796
  409MOL0     H55166   6.511   1.566   1.238 -0.3730 -1.1349  0.3950
  409MOL0     H55167   6.738   1.683   1.163 -0.0572 -0.0547 -1.5618
  409MOL0     H55168   6.823   1.624   1.303  1.3669 -2.8432  0.9631
  409MOL0     H55169   6.991   1.648   1.126  1.9469 -1.7831 -1.5302
  409MOL0     H55170   6.957   1.485   1.143  1.1623  1.5510  0.1174
  409MOL0     H55171   6.829   1.682   0.921 -2.5767 -1.5749 -1.9386
  409MOL0     H55172   6.792   1.509   0.945 -2.5121  1.5291  0.1856
  409MOL0     H55173   6.963   1.488   0.782 -0.3438 -1.0895  0.2649
  409MOL0     H55174   7.066   1.491   0.925 -1.2783 -2.0916 -2.2811
  409MOL0     H55175   7.127   1.885   0.668 -1.0843 -0.2580 -0.4926
  409MOL0     H55176   7.345   2.003   0.700  2.6404 -3.1065 -3.5419
  409MOL0     H55177   7.849   1.971   0.824  0.8423  0.9908 -1.2389
  409MOL0     H55178   8.021   2.105   0.873 -0.1681 -0.1671 -0.5714
  409MOL0     H55179   7.947   2.559   0.952  2.4856  0.8656 -0.8097
  409MOL0     H55180   7.925   2.464   1.097  0.3886  1.3391  1.3161
  409MOL0     H55181   8.162   2.598   0.992  1.7788 -0.6300  0.5239
  409MOL0     H55182   8.089   2.623   1.147 -0.5640  1.0177 -1.6292
  409MOL0     H55183   8.155   2.372   1.202 -1.0349  1.0245  0.5300
  409MOL0     H55184   8.264   2.385   1.062 -0.9446 -2.8983  1.0630
  409MOL0     H55185   8.385   2.413   1.288 -0.1187  0.9524 -0.5669
  409MOL0     H55186   8.306   2.555   1.312  1.5054 -2.2794  1.9498
  409MOL0     H55187   8.394   2.610   1.062  1.0507 -0.8816 -1.0425
  409MOL0     H55188   8.517   2.489   1.126  2.3328  1.8155 -0.0330
  409MOL0     H55189   8.426   2.738   1.267 -0.8101 -1.0108 -0.0364
  409MOL0     H55190   8.571   2.643   1.312  2.2652  2.2697  0.0980
  409MOL0     H55191   8.605   2.869   1.213  0.0896  0.4822 -0.3932
  409MOL0     H55192   8.523   2.823   1.063 -1.3588 -0.6310  1.0525
  409MOL0     H55193   8.700   2.634   1.041  0.0251  0.2275  0.0670
  409MOL0     H55194   8.739   2.809   1.019 -1.1727  1.2745  0.5276
  409MOL0     H55195   7.769   2.450   0.856 -0.4160 -0.6806  0.6948
  409MOL0     H55196   7.583   2.312   0.805 -0.5006 -0.1933  3.7919
  409MOL0     H55197   7.446   1.695   0.984 -1.9035 -0.4425 -0.9853
  409MOL0     H55198   7.243   1.599   0.963 -0.5800  2.0826  4.6658
  409MOL0     H55199   5.393   1.597   0.860  1.6927 -1.3602  1.7361
  409MOL0     H55200   5.185   1.754   0.833 -6.1191 -1.1517 -0.2944
  409MOL0     H55201   4.849   1.927   1.094 -3.2728  1.0927  2.9011
  409MOL0     H55202   4.667   2.086   1.124 -2.0141  0.1402 -0.9008
  409MOL0     H55203   4.586   2.314   1.104  0.0599 -0.0896 -1.8616
  409MOL0     H55204   4.487   2.176   1.147  0.4336 -0.8225 -0.5111
  409MOL0     H55205   4.356   2.363   1.176  1.4628  0.9982 -0.2218
  409MOL0     H55206   4.297   2.256   1.046 -0.2621 -0.2001  1.8695
  409MOL0     H55207   4.259   2.452   0.917  1.9535  1.6137 -3.9126
  409MOL0     H55208   4.421   2.442   0.887 -1.3274 -2.4262 -1.3389
  409MOL0     H55209   4.468   2.585   1.108 -1.0304 -0.4277  2.4607
  409MOL0     H55210   4.395   2.669   0.979  0.4803  0.4776  0.3785
  409MOL0     H55211   4.120   2.683   1.291 -0.3969 -0.7681  0.0185
  409MOL0     H55212   4.632   2.128   0.705  1.3643 -1.3012 -0.7248
  409MOL0     H55213   4.785   1.839   0.606  2.5408 -0.4229  0.3722
  409MOL0     H55214   4.691   1.983   0.577 -0.2817  3.3834  1.3018
  409MOL0     H55215   4.863   1.995   0.576  0.0696  0.4156  0.5865
  410MOL0     O55216   1.512   5.227   7.424 -0.9702  0.6295  0.0423
  410MOL0     C55217   1.539   5.223   7.305  0.1671 -0.4836 -0.0178
  410MOL0     O55218   1.655   5.272   7.246  0.0028 -0.8583 -0.0087
  410MOL0     C55219   1.748   5.337   7.327 -0.2978 -0.3117  0.4479
  410MOL0     C55220   1.779   5.316   7.460 -0.1778 -0.2522  0.6083
  410MOL0     C55221   1.881   5.394   7.515  0.0388  0.0408 -0.7325
  410MOL0     C55222   1.954   5.490   7.449  0.0349 -0.1378  1.1505
  410MOL0     O55223   2.052   5.549   7.524 -0.4370  0.4108 -0.1565
  410MOL0     C55224   2.129   5.650   7.462 -0.6081 -0.2833  0.3530
  410MOL0     C55225   2.238   5.700   7.557 -0.3906  0.2995  0.2659
  410MOL0     C55226   2.322   5.821   7.495  0.6744  0.2523 -0.0803
  410MOL0     C55227   2.432   5.769   7.408 -0.4204  0.6187 -1.1570
  410MOL0     C55228   2.487   5.882   7.322  0.0805  0.1628 -0.8214
  410MOL0     C55229   2.619   5.846   7.245 -0.2945 -0.3954 -0.1979
  410MOL0     C55230   2.580   5.797   7.097  0.4149 -0.6241 -0.4287
  410MOL0     C55231   2.710   5.762   7.014 -0.0215  0.3577  1.1629
  410MOL0     N55232   2.669   5.755   6.873  0.5070  0.5053  0.7444
  410MOL0     C55233   2.583   5.665   6.820 -0.1220  0.4557 -0.2945
  410MOL0     C55234   2.534   5.725   6.709 -0.5330  0.1755 -0.4844
  410MOL0     C55235   2.439   5.664   6.610  0.1668 -0.4997  0.5080
  410MOL0     C55236   2.296   5.704   6.652  1.5262 -0.2522  0.8083
  410MOL0     C55237   2.204   5.625   6.553 -0.1427  0.5469  0.5618
  410MOL0     C55238   2.079   5.708   6.523 -0.4106  0.1634  0.2560
  410MOL0     O55239   2.000   5.632   6.436  0.2308  0.4808  0.9870
  410MOL0     C55240   1.865   5.650   6.453 -0.1567 -0.6765 -0.1456
  410MOL0     C55241   1.804   5.773   6.490  0.7992  0.5054  0.5203
  410MOL0     C55242   1.659   5.777   6.497  0.0906  0.0032 -1.0599
  410MOL0     C55243   1.581   5.665   6.483 -0.6222  0.8474 -0.7969
  410MOL0     C55244   1.438   5.659   6.512 -0.3363  0.5170  0.2770
  410MOL0     O55245   1.362   5.552   6.470 -0.6104  0.3905  0.5830
  410MOL0     C55246   1.226   5.566   6.477  0.2661 -0.0645 -0.3838
  410MOL0     C55247   1.163   5.587   6.601  0.3454 -0.5520  0.8270
  410MOL0     C55248   1.023   5.577   6.599 -0.5316  1.0009 -0.0755
  410MOL0     C55249   0.944   5.543   6.487 -0.5557  0.3464  0.7595
  410MOL0     O55250   0.811   5.512   6.499  0.4077 -0.8509 -0.1565
  410MOL0     C55251   0.732   5.549   6.383 -0.6312 -0.0638 -0.3128
  410MOL0     C55252   0.590   5.554   6.426  0.4346  0.5411 -0.8079
  410MOL0     C55253   0.517   5.671   6.354  0.8420 -0.9477 -0.7429
  410MOL0     C55254   0.370   5.682   6.411 -0.7624 -0.1212 -0.7288
  410MOL0     C55255   0.293   5.794   6.353  0.5907 -0.4358  0.2062
  410MOL0     C55256   0.142   5.786   6.382  0.1721  0.1364 -0.2026
  410MOL0     C55257   0.076   5.890   6.299 -0.9615  0.1518 -0.3262
  410MOL0     C55258  -0.070   5.909   6.331  0.2496  0.3808  0.4855
  410MOL0    Cl55259  -0.155   5.760   6.316 -0.2221 -0.2639 -0.0167
  410MOL0     C55260   1.015   5.523   6.369 -0.1934  0.1934  0.4006
  410MOL0     C55261   1.150   5.534   6.366 -0.2595  0.4323 -0.3472
  410MOL0     O55262   1.394   5.757   6.570 -0.2666 -0.8919 -1.0587
  410MOL0     C55263   1.645   5.547   6.429 -0.0045 -1.0120 -0.1692
  410MOL0     C55264   1.786   5.536   6.420 -0.6016 -0.0684  0.0443
  410MOL0     N55265   2.586   5.853   6.695  0.0865  0.3509 -0.0499
  410MOL0     N55266   2.661   5.867   6.793 -0.0955  0.1531 -0.7389
  410MOL0     C55267   1.909   5.520   7.311 -0.1079 -0.4298 -0.4756
  410MOL0     C55268   1.808   5.450   7.260  0.7767  0.0265  0.4714
  410MOL0     C55269   1.446   5.133   7.223 -0.5480 -0.1264  0.2470
  410MOL0     C55270   1.464   4.992   7.236 -0.8966  0.4065  0.4236
  410MOL0     C55271   1.389   4.902   7.159  0.6815  0.3779  0.0501
  410MOL0     C55272   1.288   4.955   7.077 -0.6432 -0.3049  0.6812
  410MOL0     O55273   1.206   4.878   6.994  0.0961  0.0409 -0.2853
  410MOL0     C55274   1.173   4.740   7.020 -0.2372 -0.3555 -0.5025
  410MOL0     C55275   1.115   4.676   6.894  0.1503 -0.1469 -0.3692
  410MOL0     C55276   1.028   4.775   6.820  0.0778 -0.7849 -0.4568
  410MOL0     C55277   0.927   4.685   6.749  0.1663 -0.1767  1.4225
  410MOL0     C55278   0.835   4.769   6.672  0.4386  0.6137  0.3171
  410MOL0     C55279   0.756   4.846   6.621 -0.4907 -0.2219 -0.3915
  410MOL0     C55280   1.273   5.095   7.070 -0.0367  0.6995 -0.3666
  410MOL0     C55281   1.351   5.185   7.145 -1.2794 -0.1881  0.7874
  410MOL0     C55282   1.340   5.336   7.127  0.0941 -0.3857 -0.1675
  410MOL0     H55283   1.725   5.239   7.514 -0.4034 -0.4588  0.0950
  410MOL0     H55284   1.909   5.373   7.619 -0.5918  1.2882 -0.2989
  410MOL0     H55285   2.166   5.606   7.369  0.7855  2.2171 -0.3780
  410MOL0     H55286   2.065   5.736   7.439 -0.9475 -0.0712  1.9284
  410MOL0     H55287   2.316   5.627   7.581 -0.1039  0.0150 -1.3794
  410MOL0     H55288   2.197   5.742   7.649  3.2435  2.8545  0.9231
  410MOL0     H55289   2.376   5.870   7.577  1.9900 -3.6190  1.5880
  410MOL0     H55290   2.257   5.882   7.432 -1.0933 -3.1769 -1.8774
  410MOL0     H55291   2.511   5.735   7.475 -0.6570  3.4186  0.6836
  410MOL0     H55292   2.399   5.683   7.349 -1.8994  0.0173  0.4506
  410MOL0     H55293   2.404   5.907   7.254 -0.5205 -2.4454 -1.1633
  410MOL0     H55294   2.506   5.970   7.384 -0.3412 -1.1184  1.1938
  410MOL0     H55295   2.686   5.932   7.238 -1.6542  0.6283 -1.6969
  410MOL0     H55296   2.681   5.782   7.308  0.3226  0.8941  0.5514
  410MOL0     H55297   2.523   5.876   7.047 -0.2942 -1.9753 -1.8473
  410MOL0     H55298   2.520   5.706   7.099  1.5566 -1.4632 -2.0241
  410MOL0     H55299   2.786   5.839   7.032  0.2790  0.7073 -1.2160
  410MOL0     H55300   2.754   5.670   7.053 -1.8861 -1.2000 -0.2891
  410MOL0     H55301   2.574   5.561   6.849  2.3313 -0.1469 -1.4000
  410MOL0     H55302   2.456   5.708   6.511  1.9720 -0.1862  0.9225
  410MOL0     H55303   2.455   5.556   6.621  2.8278 -0.0288  2.2652
  410MOL0     H55304   2.267   5.673   6.753 -0.3878 -0.5782  0.2088
  410MOL0     H55305   2.285   5.813   6.656 -0.9795 -0.4552  1.0693
  410MOL0     H55306   2.164   5.535   6.601  0.1316 -0.0428 -0.2825
  410MOL0     H55307   2.249   5.605   6.455  0.3833  0.5215  0.8106
  410MOL0     H55308   2.095   5.809   6.484 -0.6168 -0.1070 -0.5363
  410MOL0     H55309   2.034   5.716   6.623 -2.7828  2.0286 -0.8500
  410MOL0     H55310   1.862   5.863   6.502  1.4783 -0.1243  2.2951
  410MOL0     H55311   1.602   5.869   6.507 -3.1223 -1.9758  0.6236
  410MOL0     H55312   1.214   5.610   6.695 -0.5140 -1.2704  1.4855
  410MOL0     H55313   0.976   5.592   6.695 -0.8992 -0.0513 -0.0864
  410MOL0     H55314   0.764   5.650   6.356 -4.1435  2.0596  2.5224
  410MOL0     H55315   0.751   5.477   6.303  1.2015  0.1470 -0.1166
  410MOL0     H55316   0.541   5.456   6.414  0.5053  0.7650 -3.4738
  410MOL0     H55317   0.600   5.581   6.531  1.0592 -0.2790 -0.6414
  410MOL0     H55318   0.562   5.769   6.375  0.8313 -1.1757  0.4522
  410MOL0     H55319   0.515   5.654   6.246  1.2162  0.1430 -0.9324
  410MOL0     H55320   0.389   5.703   6.517  1.9880 -1.5108 -0.8650
  410MOL0     H55321   0.312   5.589   6.403 -0.2165 -0.4455 -0.9424
  410MOL0     H55322   0.300   5.779   6.245  2.1260  0.8338  0.1037
  410MOL0     H55323   0.328   5.894   6.380  0.4124 -0.1885 -0.4592
  410MOL0     H55324   0.098   5.687   6.375  0.3841  0.0542 -0.3850
  410MOL0     H55325   0.133   5.814   6.487  0.1475  2.4060 -0.7354
  410MOL0     H55326   0.094   5.871   6.193 -1.4368 -2.8250  0.0348
  410MOL0     H55327   0.116   5.988   6.328  1.3570 -0.6611 -0.6063
  410MOL0     H55328  -0.089   5.939   6.434  1.4645 -3.2305  1.9054
  410MOL0     H55329  -0.124   5.987   6.275 -2.5009 -2.0535 -0.4984
  410MOL0     H55330   0.966   5.503   6.275 -0.0980  0.3191  0.3245
  410MOL0     H55331   1.202   5.514   6.273 -1.2004  1.6996 -1.1644
  410MOL0     H55332   1.589   5.455   6.419 -2.1785  0.1364  0.8249
  410MOL0     H55333   1.830   5.447   6.375 -0.1548  0.1985 -0.0515
  410MOL0     H55334   1.956   5.607   7.266  0.3670 -0.8214 -0.7353
  410MOL0     H55335   1.771   5.483   7.164  0.2252 -0.1899  0.6081
  410MOL0     H55336   1.529   4.952   7.312 -2.7573 -0.5828  1.5793
  410MOL0     H55337   1.410   4.796   7.164  1.0757  0.4244 -0.5480
  410MOL0     H55338   1.101   4.730   7.103 -0.4762  0.2456 -0.6303
  410MOL0     H55339   1.265   4.694   7.057  0.9750  1.3434 -1.2760
  410MOL0     H55340   1.052   4.591   6.924  1.1969 -1.2106 -1.0966
  410MOL0     H55341   1.192   4.639   6.827  0.6209 -2.4088  1.3016
  410MOL0     H55342   1.092   4.825   6.747 -1.0777 -0.0982 -1.0344
  410MOL0     H55343   0.972   4.849   6.879 -1.4698 -1.3276 -1.2122
  410MOL0     H55344   0.988   4.622   6.684  0.5252  0.0632  1.5285
  410MOL0     H55345   0.857   4.627   6.810 -0.2462 -2.6757 -1.2132
  410MOL0     H55346   0.679   4.902   6.573 -1.1908 -0.9955 -0.2108
  410MOL0     H55347   1.200   5.127   6.996 -3.1992 -4.7202 -0.1045
  410MOL0     H55348   1.275   5.365   7.210 -1.0457 -0.9312 -0.8337
  410MOL0     H55349   1.439   5.382   7.125 -0.3746  0.6522 -2.0025
  410MOL0     H55350   1.299   5.365   7.029 -0.1905 -2.8046 -0.8163
  411MOL0     O55351   3.570   2.282   6.905  0.7991 -0.0388  0.0666
  411MOL0     C55352   3.598   2.402   6.924  0.3366  0.0628 -0.1257
  411MOL0     O55353   3.728   2.440   6.925  0.9923 -0.6534 -0.0335
  411MOL0     C55354   3.831   2.347   6.929 -0.1341  0.7521 -0.2223
  411MOL0     C55355   3.849   2.253   7.035 -0.0949  0.7606  1.0655
  411MOL0     C55356   3.961   2.164   7.036  0.0696  0.1577 -0.5540
  411MOL0     C55357   4.045   2.153   6.930  0.3525 -0.1826 -0.0143
  411MOL0     O55358   4.157   2.066   6.929  0.1187 -0.1528  0.1593
  411MOL0     C55359   4.288   2.129   6.959 -0.1426  0.0074  0.0914
  411MOL0     C55360   4.398   2.015   6.975 -0.5550 -0.4752 -0.0838
  411MOL0     C55361   4.544   2.067   6.967  1.1196  0.0585 -0.4958
  411MOL0     C55362   4.606   2.027   6.840  0.6060  0.8102 -0.6124
  411MOL0     C55363   4.755   2.050   6.817  0.2960 -0.6264  0.2209
  411MOL0     C55364   4.779   2.182   6.735  0.1213 -0.4963  0.4850
  411MOL0     C55365   4.918   2.199   6.670  0.1205 -0.1446 -0.2661
  411MOL0     C55366   4.935   2.352   6.633  0.0788  0.6164 -0.2061
  411MOL0     N55367   5.053   2.385   6.548  0.4323 -0.9170 -0.0161
  411MOL0     C55368   5.182   2.411   6.587 -0.2431  0.3412  0.7144
  411MOL0     C55369   5.247   2.435   6.469 -0.0426 -0.5487 -0.1683
  411MOL0     C55370   5.396   2.467   6.429 -0.3322 -0.3023 -1.1212
  411MOL0     C55371   5.409   2.611   6.371  1.0186 -0.0783  0.1915
  411MOL0     C55372   5.555   2.637   6.341 -0.0061  0.0628  0.6141
  411MOL0     C55373   5.570   2.758   6.246 -0.3572 -0.7463  0.3458
  411MOL0     O55374   5.686   2.747   6.165  0.8225 -0.2538 -0.5960
  411MOL0     C55375   5.820   2.766   6.202 -0.0860  0.1484  0.4278
  411MOL0     C55376   5.916   2.737   6.104 -0.5345 -0.2323 -0.3754
  411MOL0     C55377   6.051   2.773   6.130  0.3900 -0.1860 -0.2785
  411MOL0     C55378   6.091   2.832   6.249 -0.0844  0.9450  0.3971
  411MOL0     C55379   6.231   2.871   6.265 -0.1396  0.2792 -0.6050
  411MOL0     O55380   6.268   2.933   6.377 -0.1199  0.0982  0.2029
  411MOL0     C55381   6.397   2.972   6.397 -0.0167  0.1414  0.8445
  411MOL0     C55382   6.460   3.064   6.308  0.1434  1.0174 -0.1091
  411MOL0     C55383   6.585   3.121   6.328  0.3560  0.4989 -0.0725
  411MOL0     C55384   6.656   3.090   6.442 -0.7863  0.0385  0.7560
  411MOL0     O55385   6.784   3.150   6.441  0.0708  0.2008  0.0670
  411MOL0     C55386   6.891   3.069   6.487 -0.2225 -0.1285 -0.6042
  411MOL0     C55387   6.898   2.935   6.418  0.6266  0.0410  0.8052
  411MOL0     C55388   7.035   2.869   6.420  0.3556 -0.1542 -0.0818
  411MOL0     C55389   7.125   2.945   6.320  0.6192  0.2645 -0.3355
  411MOL0     C55390   7.238   2.851   6.262  0.4934  0.3051 -0.6167
  411MOL0     C55391   7.353   2.852   6.357 -0.1074 -0.5139  0.1359
  411MOL0     C55392   7.481   2.768   6.322  0.9797  0.0528  0.3522
  411MOL0     C55393   7.450   2.640   6.254 -0.0031  0.2423 -0.8042
  411MOL0    Cl55394   7.604   2.559   6.230 -0.4000 -0.2009  0.3417
  411MOL0     C55395   6.604   2.994   6.530 -0.2420  1.5080 -0.2295
  411MOL0     C55396   6.483   2.925   6.506 -0.0850 -0.0618  0.3454
  411MOL0     O55397   6.310   2.837   6.176  0.1989  0.2092 -0.5538
  411MOL0     C55398   5.997   2.865   6.340  0.2696  0.4878 -0.5644
  411MOL0     C55399   5.860   2.828   6.324  0.4118 -0.6046  1.4530
  411MOL0     N55400   5.164   2.427   6.361 -0.2454  0.4085  0.0642
  411MOL0     N55401   5.052   2.385   6.416 -0.3332 -0.2735  0.3263
  411MOL0     C55402   4.031   2.245   6.833 -0.2243  0.9627 -0.1913
  411MOL0     C55403   3.924   2.338   6.827 -0.3819  0.4190 -0.4148
  411MOL0     C55404   3.492   2.497   6.918  0.0333 -0.4445 -1.1770
  411MOL0     C55405   3.498   2.598   6.820  0.8459  0.3003 -0.1729
  411MOL0     C55406   3.391   2.688   6.792  0.6758 -0.2217  0.5546
  411MOL0     C55407   3.270   2.671   6.872 -0.2997  0.3513  0.7347
  411MOL0     O55408   3.152   2.736   6.870 -0.5225  0.6143 -0.2407
  411MOL0     C55409   3.140   2.839   6.772  0.0017  0.4918 -0.3936
  411MOL0     C55410   3.123   2.785   6.630 -0.3158 -0.4498 -0.2793
  411MOL0     C55411   3.000   2.705   6.591 -0.2373 -0.7371 -0.5375
  411MOL0     C55412   2.867   2.768   6.634 -0.0124  0.0734 -0.4455
  411MOL0     C55413   2.772   2.658   6.615  0.0564  0.0638 -0.3143
  411MOL0     C55414   2.699   2.565   6.586 -0.0140 -0.6642  0.8650
  411MOL0     C55415   3.261   2.565   6.956  0.3484 -0.4700 -0.6791
  411MOL0     C55416   3.370   2.480   6.990  0.2378  0.4823  0.4931
  411MOL0     C55417   3.354   2.376   7.097  0.3299 -0.2544 -0.0384
  411MOL0     H55418   3.777   2.259   7.116  1.9467  1.3382  2.9482
  411MOL0     H55419   3.962   2.110   7.130 -3.4191  0.6688 -0.1082
  411MOL0     H55420   4.319   2.198   6.880 -0.2455 -0.1771 -0.1123
  411MOL0     H55421   4.285   2.173   7.059 -0.5355 -2.7803  1.4117
  411MOL0     H55422   4.378   1.936   6.903  0.0082 -0.2877 -0.4557
  411MOL0     H55423   4.377   1.962   7.068 -1.2506  1.0628  0.6829
  411MOL0     H55424   4.607   2.035   7.050  1.2753  0.6605 -0.3826
  411MOL0     H55425   4.531   2.175   6.968 -1.5405 -0.0940 -3.1560
  411MOL0     H55426   4.593   1.919   6.828 -4.7025  0.9878  0.8822
  411MOL0     H55427   4.547   2.082   6.766 -0.3163  0.4031 -0.1963
  411MOL0     H55428   4.814   2.053   6.910  0.5307  3.7804  0.1356
  411MOL0     H55429   4.790   1.964   6.759  1.6726 -1.0408  1.5785
  411MOL0     H55430   4.703   2.202   6.660 -0.1889  2.4580  1.4614
  411MOL0     H55431   4.780   2.263   6.809  1.6118  2.5592 -2.6070
  411MOL0     H55432   4.930   2.138   6.580 -0.0347  0.8471 -0.9718
  411MOL0     H55433   4.998   2.166   6.738 -1.9840 -1.4718  1.6963
  411MOL0     H55434   4.844   2.391   6.586 -0.4621 -0.9260 -0.5175
  411MOL0     H55435   4.952   2.406   6.726  1.4791 -1.5051  0.8662
  411MOL0     H55436   5.220   2.410   6.689  0.1440  1.2361  0.5887
  411MOL0     H55437   5.466   2.451   6.512 -2.4202  2.0300  1.2957
  411MOL0     H55438   5.427   2.393   6.354  2.5441 -0.7121  0.3214
  411MOL0     H55439   5.346   2.615   6.282 -0.6507 -2.1827  1.1841
  411MOL0     H55440   5.372   2.675   6.451 -0.6725 -0.5116 -0.2065
  411MOL0     H55441   5.600   2.556   6.283  1.4008 -0.1568  1.9407
  411MOL0     H55442   5.608   2.642   6.436 -2.7167 -2.1513  2.4039
  411MOL0     H55443   5.570   2.853   6.300  2.9258 -0.7336  0.5210
  411MOL0     H55444   5.482   2.765   6.182 -1.0662  1.4567  1.4605
  411MOL0     H55445   5.879   2.700   6.009 -2.1264 -2.4356  1.0305
  411MOL0     H55446   6.125   2.764   6.052 -0.7653 -0.9267 -1.3372
  411MOL0     H55447   6.408   3.107   6.222 -2.9383 -0.5615  0.8167
  411MOL0     H55448   6.622   3.177   6.243  0.4565 -1.9762 -1.7617
  411MOL0     H55449   6.983   3.127   6.470 -0.3767  0.3562  0.1677
  411MOL0     H55450   6.881   3.063   6.596 -0.9119  0.2335 -0.6402
  411MOL0     H55451   6.838   2.861   6.471 -2.1904  2.3835  1.1419
  411MOL0     H55452   6.868   2.951   6.314  1.3167 -0.0238  0.5904
  411MOL0     H55453   7.076   2.864   6.521  4.4030 -1.3474 -1.6045
  411MOL0     H55454   7.019   2.765   6.391 -0.3679  0.5604 -2.5983
  411MOL0     H55455   7.170   3.034   6.365 -0.3553  0.7248 -0.2514
  411MOL0     H55456   7.063   2.980   6.238 -0.9332  0.1900  0.7696
  411MOL0     H55457   7.279   2.888   6.168  1.8736 -2.0274 -1.0245
  411MOL0     H55458   7.192   2.752   6.253 -0.3377  0.5105  0.9621
  411MOL0     H55459   7.382   2.956   6.370 -1.6168  0.3149 -2.3585
  411MOL0     H55460   7.323   2.812   6.454  0.0240 -1.4574 -0.1974
  411MOL0     H55461   7.536   2.746   6.414 -0.7593  2.7387  2.1522
  411MOL0     H55462   7.548   2.825   6.256  2.2285  1.5229  2.7531
  411MOL0     H55463   7.386   2.578   6.317 -0.7890 -0.0741 -1.8671
  411MOL0     H55464   7.396   2.666   6.162 -1.8591 -2.8036 -0.6865
  411MOL0     H55465   6.672   2.954   6.604 -0.1454 -0.6156 -1.3815
  411MOL0     H55466   6.451   2.859   6.586 -1.9005  1.0446  0.5723
  411MOL0     H55467   6.030   2.917   6.429 -1.1749  1.3204 -0.4786
  411MOL0     H55468   5.783   2.859   6.394 -2.3141 -1.6277 -0.9057
  411MOL0     H55469   4.113   2.244   6.761  0.5620 -1.3649  0.6446
  411MOL0     H55470   3.925   2.410   6.746 -0.7230 -1.3245 -2.0381
  411MOL0     H55471   3.584   2.603   6.754  1.2461  0.3941  0.3463
  411MOL0     H55472   3.394   2.758   6.710  3.0057  0.4532  1.1522
  411MOL0     H55473   3.226   2.907   6.775  0.1819  0.2495  0.1177
  411MOL0     H55474   3.045   2.892   6.789 -0.6506  0.2016 -2.7713
  411MOL0     H55475   3.209   2.722   6.609  1.9151  2.0692  0.6708
  411MOL0     H55476   3.141   2.870   6.563  0.5150  0.0898  0.5951
  411MOL0     H55477   3.014   2.601   6.621 -2.6090 -0.6995  0.8807
  411MOL0     H55478   2.998   2.699   6.481 -1.2994  1.7671 -0.7346
  411MOL0     H55479   2.871   2.796   6.739  2.4060 -2.2653  0.1987
  411MOL0     H55480   2.837   2.856   6.576 -2.0586  0.2828  0.8493
  411MOL0     H55481   2.630   2.489   6.554 -2.5302  2.3021 -1.3864
  411MOL0     H55482   3.167   2.542   7.006 -1.2636  3.3736 -1.6438
  411MOL0     H55483   3.375   2.273   7.068  2.2427 -0.2948  1.2571
  411MOL0     H55484   3.421   2.392   7.182  0.3918 -0.7683  0.0146
  411MOL0     H55485   3.251   2.384   7.133 -0.2183 -1.1548 -1.3291
  412MOL0     O55486   1.861   6.651   4.412 -0.8848 -0.5334  0.0059
  412MOL0     C55487   1.835   6.555   4.487 -0.2600 -0.2805  0.2157
  412MOL0     O55488   1.926   6.464   4.535 -0.2872 -0.5594 -0.3631
  412MOL0     C55489   2.062   6.467   4.520 -0.6866  0.6923 -0.8318
  412MOL0     C55490   2.114   6.341   4.507 -0.8943  0.1984  0.5680
  412MOL0     C55491   2.254   6.339   4.463  0.6055 -0.3974  0.8653
  412MOL0     C55492   2.332   6.455   4.464 -0.1789 -0.5493 -0.3720
  412MOL0     O55493   2.469   6.460   4.443 -0.1979  0.3956  0.4744
  412MOL0     C55494   2.539   6.340   4.408 -0.4389 -0.3525 -1.4358
  412MOL0     C55495   2.676   6.378   4.346  0.7531  0.2837 -0.0384
  412MOL0     C55496   2.763   6.252   4.341 -0.8728 -0.0521  0.3071
  412MOL0     C55497   2.911   6.276   4.299  0.2396  0.1844 -0.5501
  412MOL0     C55498   3.008   6.162   4.360  0.1956  0.0838 -0.4355
  412MOL0     C55499   3.151   6.217   4.366  0.4679  0.1047 -0.2782
  412MOL0     C55500   3.165   6.323   4.480 -0.4435 -0.0989 -0.2094
  412MOL0     C55501   3.312   6.358   4.506  0.4621  0.0386 -0.9232
  412MOL0     N55502   3.372   6.407   4.383 -0.1049  1.0810  0.0118
  412MOL0     C55503   3.436   6.327   4.286 -0.0549  0.4694  0.5121
  412MOL0     C55504   3.464   6.408   4.192  0.4633 -0.1600  0.1260
  412MOL0     C55505   3.540   6.387   4.066 -0.0019  0.5671  0.4869
  412MOL0     C55506   3.699   6.375   4.077  0.7683  0.1402  0.6397
  412MOL0     C55507   3.774   6.502   4.135  0.5717  0.5383  1.3494
  412MOL0     C55508   3.934   6.487   4.135  0.7615 -0.0853 -0.2091
  412MOL0     O55509   3.983   6.515   3.999 -0.1953  0.1504  0.6316
  412MOL0     C55510   4.084   6.601   3.989  0.3359 -0.6568 -0.2907
  412MOL0     C55511   4.061   6.737   3.995  0.2926  1.1770 -0.8393
  412MOL0     C55512   4.175   6.820   3.991 -0.2903  0.4679  0.5012
  412MOL0     C55513   4.310   6.784   3.981  0.6413 -0.0296 -0.5515
  412MOL0     C55514   4.415   6.874   3.950 -0.2431 -1.0751 -0.4386
  412MOL0     O55515   4.536   6.818   3.932 -0.3624 -0.0068  0.6025
  412MOL0     C55516   4.652   6.888   3.912 -0.2279 -0.2269  0.9045
  412MOL0     C55517   4.728   6.856   3.801  0.3706 -0.0189  0.4522
  412MOL0     C55518   4.856   6.911   3.785 -0.4479  1.0282 -0.5949
  412MOL0     C55519   4.913   7.000   3.873 -0.5194 -0.1210 -0.3738
  412MOL0     O55520   5.050   7.016   3.856 -0.1040 -0.3481  0.6284
  412MOL0     C55521   5.126   7.071   3.961  0.1106  0.8204  0.6859
  412MOL0     C55522   5.265   7.038   3.910 -0.4901  0.5602 -0.3347
  412MOL0     C55523   5.365   7.104   4.001  0.8254  1.1476  0.7568
  412MOL0     C55524   5.499   7.042   3.972 -0.4224  0.3534  0.5155
  412MOL0     C55525   5.610   7.110   4.055 -0.1276 -0.1970  0.4453
  412MOL0     C55526   5.745   7.063   4.013  0.2935 -0.2111  0.2493
  412MOL0     C55527   5.854   7.159   4.042 -0.3604  0.2030 -0.1964
  412MOL0     C55528   5.979   7.108   3.974 -0.1078 -0.1017  0.0396
  412MOL0    Cl55529   6.029   6.945   4.015  0.2115 -0.1900 -0.3649
  412MOL0     C55530   4.835   7.048   3.977  0.8015 -0.1754 -0.8545
  412MOL0     C55531   4.699   7.001   3.997  0.0513 -0.0579 -0.1174
  412MOL0     O55532   4.387   6.998   3.950  0.3942 -0.0850 -0.3295
  412MOL0     C55533   4.328   6.640   3.971  0.5618 -0.1236 -0.3018
  412MOL0     C55534   4.214   6.552   3.975  0.2833  0.0679  0.0649
  412MOL0     N55535   3.408   6.526   4.213  0.2908 -0.3269 -0.3375
  412MOL0     N55536   3.351   6.532   4.331 -0.3729 -0.2199  0.2424
  412MOL0     C55537   2.274   6.583   4.490 -0.5451 -0.2587  0.9685
  412MOL0     C55538   2.141   6.586   4.520  0.2019  0.7864  0.1282
  412MOL0     C55539   1.697   6.559   4.552  0.6205 -0.7291  0.3319
  412MOL0     C55540   1.678   6.493   4.676  0.0154  0.2578 -0.3674
  412MOL0     C55541   1.558   6.498   4.750  0.5195  0.1059  0.4327
  412MOL0     C55542   1.447   6.556   4.692 -0.5091 -0.5197 -0.1744
  412MOL0     O55543   1.326   6.554   4.748  0.1297  0.4051  0.5854
  412MOL0     C55544   1.306   6.485   4.870  0.8181  0.1025 -0.1310
  412MOL0     C55545   1.156   6.487   4.888 -0.7859 -0.0807  0.3104
  412MOL0     C55546   1.117   6.623   4.939 -0.1154  0.2933  0.2416
  412MOL0     C55547   0.986   6.609   5.023 -0.1584 -0.1448 -0.2685
  412MOL0     C55548   0.877   6.583   4.929 -0.0111 -0.0016 -0.3577
  412MOL0     C55549   0.785   6.547   4.859  1.2203 -0.3659 -1.3332
  412MOL0     C55550   1.460   6.632   4.567  1.4342  0.4242 -0.2679
  412MOL0     C55551   1.582   6.637   4.499 -0.5589 -0.1601 -0.8141
  412MOL0     C55552   1.567   6.695   4.359  0.3790  0.1441 -0.0436
  412MOL0     H55553   2.055   6.252   4.526 -2.0768  1.1323  1.3660
  412MOL0     H55554   2.296   6.242   4.439  0.4350  0.0297 -1.3660
  412MOL0     H55555   2.565   6.279   4.495  0.9388  1.8836 -0.1718
  412MOL0     H55556   2.493   6.287   4.324 -1.7208 -2.4191  0.4543
  412MOL0     H55557   2.712   6.454   4.416 -1.1682  2.1170 -0.9305
  412MOL0     H55558   2.661   6.424   4.248  0.5560  1.2199  0.4273
  412MOL0     H55559   2.721   6.182   4.269  0.5422  0.2824 -0.8887
  412MOL0     H55560   2.770   6.208   4.441 -1.0116 -3.1859 -0.9687
  412MOL0     H55561   2.911   6.283   4.190  1.5810 -2.4814 -0.7997
  412MOL0     H55562   2.951   6.368   4.342 -1.1383 -0.6446  2.8449
  412MOL0     H55563   2.966   6.127   4.455 -2.1459 -1.6041 -1.9626
  412MOL0     H55564   2.997   6.077   4.292  1.9867 -0.5084 -0.0340
  412MOL0     H55565   3.200   6.121   4.387 -0.3889 -0.2355  0.1836
  412MOL0     H55566   3.168   6.252   4.264 -0.7949  0.8436 -0.2542
  412MOL0     H55567   3.127   6.281   4.574 -1.3697 -0.7518 -0.8464
  412MOL0     H55568   3.113   6.416   4.454 -0.9349 -0.1938  0.4049
  412MOL0     H55569   3.311   6.445   4.572 -1.3081  0.8967 -2.0100
  412MOL0     H55570   3.361   6.282   4.567  0.3437  1.4638  1.0351
  412MOL0     H55571   3.470   6.224   4.297  0.2216  0.7590  3.0413
  412MOL0     H55572   3.495   6.299   4.017  0.9427  2.2608 -3.8416
  412MOL0     H55573   3.522   6.467   3.994  0.9694 -0.8496 -1.4046
  412MOL0     H55574   3.724   6.284   4.133 -1.8943 -0.0215  1.7083
  412MOL0     H55575   3.734   6.350   3.976 -0.1846 -0.2015  0.3800
  412MOL0     H55576   3.724   6.522   4.231 -3.2824  0.0198 -0.3715
  412MOL0     H55577   3.762   6.590   4.071  1.7024 -0.1401  0.1512
  412MOL0     H55578   3.958   6.382   4.156  2.1275 -0.5085 -3.2838
  412MOL0     H55579   3.973   6.551   4.215  1.1473 -0.9942  0.3409
  412MOL0     H55580   3.959   6.773   3.981 -0.2966 -0.0305  0.1820
  412MOL0     H55581   4.156   6.926   3.986  1.2364  0.9170  2.8369
  412MOL0     H55582   4.699   6.784   3.725 -1.0737  1.2450 -0.2644
  412MOL0     H55583   4.923   6.872   3.709  1.7468 -1.6576  2.4217
  412MOL0     H55584   5.107   7.178   3.979 -0.9791  0.9327 -0.9059
  412MOL0     H55585   5.097   7.021   4.054 -0.5427  1.5478  0.8941
  412MOL0     H55586   5.279   6.930   3.923  0.4748  0.8695  1.6271
  412MOL0     H55587   5.283   7.071   3.808 -1.6439  1.1432 -0.3683
  412MOL0     H55588   5.368   7.212   3.984 -2.3590  1.0595 -1.2196
  412MOL0     H55589   5.342   7.081   4.105  4.2976 -1.5321  1.1278
  412MOL0     H55590   5.503   7.046   3.863 -2.0304  0.4636  0.4363
  412MOL0     H55591   5.507   6.934   3.992  0.3717  0.4154  0.5729
  412MOL0     H55592   5.596   7.078   4.159  1.3699  0.1952  0.7910
  412MOL0     H55593   5.608   7.218   4.042  1.1298 -0.2702 -0.5801
  412MOL0     H55594   5.760   6.963   4.055 -0.0509  0.4399  1.9859
  412MOL0     H55595   5.737   7.043   3.905  0.3875 -0.2009  0.2395
  412MOL0     H55596   5.877   7.175   4.148  0.7942 -1.5071 -0.1496
  412MOL0     H55597   5.831   7.253   3.991  1.3356  0.9120  0.2957
  412MOL0     H55598   5.961   7.113   3.867 -1.1307  0.1108  0.2154
  412MOL0     H55599   6.059   7.178   4.003 -0.0068 -0.8879  1.8224
  412MOL0     H55600   4.888   7.114   4.046 -0.1554 -0.9883  0.6951
  412MOL0     H55601   4.641   7.034   4.083  0.6800 -1.2908  0.8231
  412MOL0     H55602   4.421   6.588   3.952 -0.0787 -0.6906 -2.1904
  412MOL0     H55603   4.235   6.449   3.949  1.2338  0.0588  0.7900
  412MOL0     H55604   2.332   6.675   4.484 -0.9187 -0.0838 -0.3072
  412MOL0     H55605   2.085   6.679   4.521  0.0860  0.7402 -1.2853
  412MOL0     H55606   1.760   6.434   4.715  1.9210  1.3597 -2.4742
  412MOL0     H55607   1.547   6.434   4.837  0.7146 -0.3969  0.0952
  412MOL0     H55608   1.342   6.520   4.968  0.5619 -1.8967  0.7298
  412MOL0     H55609   1.343   6.382   4.862 -3.0435 -1.5054  0.3903
  412MOL0     H55610   1.114   6.405   4.946  3.2247 -2.3631  0.3731
  412MOL0     H55611   1.104   6.481   4.792  0.5730  0.6262 -0.5056
  412MOL0     H55612   1.107   6.705   4.867 -1.3669 -1.7700 -2.0553
  412MOL0     H55613   1.180   6.658   5.021  0.8795  1.3165 -0.9322
  412MOL0     H55614   1.007   6.532   5.098  2.5994  0.6399 -0.1267
  412MOL0     H55615   0.970   6.702   5.078 -0.5208 -2.1180  3.2651
  412MOL0     H55616   0.715   6.508   4.789 -2.7541  1.6268  1.1653
  412MOL0     H55617   1.370   6.674   4.524  1.2164 -1.1686 -1.4359
  412MOL0     H55618   1.606   6.626   4.284 -0.7385 -1.6395  0.9621
  412MOL0     H55619   1.462   6.719   4.338 -0.4703 -1.2929  2.1545
  412MOL0     H55620   1.618   6.791   4.350 -0.3723  0.9333  2.8966
  413MOL0     O55621   2.419   0.037   9.593  0.4713 -0.4024  0.4946
  413MOL0     C55622   2.344   0.039   9.500 -0.3937 -0.0369  0.6420
  413MOL0     O55623   2.377   0.003   9.370  0.2955 -0.1912  0.0742
  413MOL0     C55624   2.503  -0.033   9.343 -0.2319 -0.1932  0.5787
  413MOL0     C55625   2.530  -0.159   9.279 -0.2272  0.2515  0.1071
  413MOL0     C55626   2.663  -0.186   9.250 -0.8541 -0.0463 -0.2205
  413MOL0     C55627   2.768  -0.092   9.264 -0.7503 -0.6366  0.2407
  413MOL0     O55628   2.898  -0.121   9.236  0.5791 -1.2452  0.1566
  413MOL0     C55629   2.917  -0.209   9.123  0.8463 -0.2301 -0.1900
  413MOL0     C55630   3.059  -0.222   9.077  0.0748 -0.4587 -0.2122
  413MOL0     C55631   3.149  -0.317   9.157 -0.4341 -0.6197 -0.0238
  413MOL0     C55632   3.175  -0.260   9.298 -0.2457 -0.3898  0.2811
  413MOL0     C55633   3.248  -0.361   9.393  0.4411 -1.6763  0.6498
  413MOL0     C55634   3.389  -0.401   9.353  0.2380 -0.5836  0.3078
  413MOL0     C55635   3.489  -0.284   9.343 -0.5447 -0.1500 -0.2959
  413MOL0     C55636   3.481  -0.178   9.459  0.3280  0.4912  0.2294
  413MOL0     N55637   3.515  -0.240   9.592 -0.3234 -0.1374 -0.0850
  413MOL0     C55638   3.614  -0.335   9.619  0.2172  0.7037  0.2570
  413MOL0     C55639   3.592  -0.369   9.747 -0.2879  0.6729 -0.3911
  413MOL0     C55640   3.660  -0.476   9.832  0.2528  0.5993  1.2698
  413MOL0     C55641   3.811  -0.467   9.844  0.5507 -1.0815 -0.1010
  413MOL0     C55642   3.847  -0.333   9.896  0.6033 -0.6249  0.0264
  413MOL0     C55643   3.983  -0.327   9.942  0.1047  0.7172 -0.6267
  413MOL0     O55644   4.070  -0.338   9.826 -0.2226  0.6316  0.3711
  413MOL0     C55645   4.207  -0.317   9.846  0.0598 -1.0340  0.7877
  413MOL0     C55646   4.280  -0.285   9.729 -0.6515  0.9393 -0.7630
  413MOL0     C55647   4.416  -0.269   9.721 -0.4864  0.3798 -0.7309
  413MOL0     C55648   4.484  -0.282   9.840 -0.0590 -0.0034 -0.4224
  413MOL0     C55649   4.631  -0.264   9.855 -0.7331  0.3339 -0.3016
  413MOL0     O55650   4.685  -0.208   9.740 -0.2708 -0.4746  0.8256
  413MOL0     C55651   4.821  -0.200   9.734 -0.6908 -1.0403 -0.5442
  413MOL0     C55652   4.882  -0.075   9.749  0.1517 -0.0390  0.3394
  413MOL0     C55653   5.028  -0.071   9.736 -0.2925 -0.6147 -0.1581
  413MOL0     C55654   5.107  -0.179   9.696 -0.8007 -0.3529 -0.3954
  413MOL0     O55655   5.237  -0.180   9.684 -0.3072  0.3259  0.5614
  413MOL0     C55656   5.303  -0.058   9.677 -0.1529 -0.3382  0.2200
  413MOL0     C55657   5.452  -0.055   9.675  0.2043 -0.1117 -0.5207
  413MOL0     C55658   5.537  -0.111   9.791  0.7822 -0.1554  0.3650
  413MOL0     C55659   5.684  -0.080   9.773  0.8842 -0.7701 -0.0075
  413MOL0     C55660   5.771  -0.150   9.876  0.3711  1.4363  0.0124
  413MOL0     C55661   5.922  -0.164   9.841 -0.0796  0.0370  0.3652
  413MOL0     C55662   5.993  -0.242   9.955  0.1613  0.4944 -0.5568
  413MOL0     C55663   6.130  -0.269   9.926 -0.2457 -0.7882  0.2192
  413MOL0    Cl55664   6.220  -0.123   9.968  0.1388  0.1453 -0.0825
  413MOL0     C55665   5.037  -0.303   9.673 -1.0920 -0.2398 -1.3556
  413MOL0     C55666   4.896  -0.308   9.689  0.8938 -0.1199  1.2093
  413MOL0     O55667   4.687  -0.277   9.962 -0.5093  0.0492  0.3944
  413MOL0     C55668   4.413  -0.316   9.962 -0.2491  0.5830  0.2212
  413MOL0     C55669   4.275  -0.333   9.967 -0.2791  0.5028 -0.5506
  413MOL0     N55670   3.496  -0.283   9.795  0.6735  0.5782 -0.0187
  413MOL0     N55671   3.445  -0.212   9.706 -0.4478  0.1914 -0.5000
  413MOL0     C55672   2.737   0.034   9.320  0.5225  0.5192  0.2352
  413MOL0     C55673   2.603   0.055   9.368 -0.3724  0.3133  0.8568
  413MOL0     C55674   2.206   0.074   9.515 -0.1514 -0.9514 -0.4339
  413MOL0     C55675   2.116  -0.004   9.437  0.5836  0.7232 -0.1320
  413MOL0     C55676   1.972   0.021   9.448 -0.7037 -0.7674  0.2155
  413MOL0     C55677   1.920   0.119   9.532 -0.3143 -0.0320 -0.3976
  413MOL0     O55678   1.787   0.145   9.541 -0.1601 -0.0877  0.3216
  413MOL0     C55679   1.737   0.259   9.606 -0.1822 -0.2205  0.8414
  413MOL0     C55680   1.585   0.274   9.593  0.0490  0.8193  0.0242
  413MOL0     C55681   1.550   0.424   9.588  0.5529 -0.4853 -0.6058
  413MOL0     C55682   1.392   0.442   9.616  0.5239  0.2069  0.2907
  413MOL0     C55683   1.309   0.395   9.504  0.3792 -0.2645  0.2011
  413MOL0     C55684   1.231   0.372   9.413 -0.5226 -0.3143 -0.3396
  413MOL0     C55685   2.015   0.202   9.603 -0.5011 -0.0443  0.4945
  413MOL0     C55686   2.153   0.178   9.594 -0.4005 -0.7987 -0.0085
  413MOL0     C55687   2.250   0.265   9.665 -1.2927 -0.1277  0.2997
  413MOL0     H55688   2.451  -0.231   9.262 -2.7551  3.2522 -2.0914
  413MOL0     H55689   2.688  -0.285   9.214  2.5093  0.5941  0.0153
  413MOL0     H55690   2.886  -0.309   9.155 -3.5013 -0.5111 -4.1451
  413MOL0     H55691   2.859  -0.172   9.038  0.8197  3.0375  1.0803
  413MOL0     H55692   3.098  -0.122   9.057 -1.0987 -0.1601 -1.1270
  413MOL0     H55693   3.062  -0.269   8.979  4.0603  0.4410 -0.6839
  413MOL0     H55694   3.244  -0.345   9.111 -0.3905 -1.5610  0.6271
  413MOL0     H55695   3.089  -0.408   9.165 -1.5123  0.1726  1.1984
  413MOL0     H55696   3.216  -0.158   9.300 -0.5778 -0.2627  2.0359
  413MOL0     H55697   3.088  -0.236   9.360  0.7810  0.7029  1.3565
  413MOL0     H55698   3.249  -0.313   9.491 -2.1857  0.6010 -0.3028
  413MOL0     H55699   3.183  -0.447   9.415 -1.1154 -0.3371  1.5149
  413MOL0     H55700   3.412  -0.469   9.436 -2.8096  0.6471  2.3132
  413MOL0     H55701   3.385  -0.445   9.253 -2.6190 -0.0955  0.1225
  413MOL0     H55702   3.482  -0.232   9.248 -4.1579  0.1422  0.0130
  413MOL0     H55703   3.588  -0.329   9.357 -0.6168  0.2305  1.8503
  413MOL0     H55704   3.552  -0.096   9.451  2.0032 -0.8386  0.7935
  413MOL0     H55705   3.377  -0.143   9.465 -0.0569 -0.3975 -0.8453
  413MOL0     H55706   3.682  -0.377   9.545  1.3794  1.5348  0.8192
  413MOL0     H55707   3.618  -0.474   9.933 -0.7263 -3.2406  1.0809
  413MOL0     H55708   3.638  -0.575   9.791  0.1924 -0.0035  2.7041
  413MOL0     H55709   3.839  -0.543   9.917 -2.5362 -2.4482 -0.1858
  413MOL0     H55710   3.854  -0.481   9.744  2.3912  1.0430  0.3071
  413MOL0     H55711   3.784  -0.309   9.983 -0.7943 -2.2083 -0.4950
  413MOL0     H55712   3.835  -0.250   9.826 -2.0298 -1.5930 -0.7970
  413MOL0     H55713   4.001  -0.416  10.004 -0.6075  0.6549 -0.5011
  413MOL0     H55714   3.994  -0.234   9.999  1.1889  2.5616 -3.6328
  413MOL0     H55715   4.228  -0.288   9.634  1.1693  1.6977 -1.8312
  413MOL0     H55716   4.462  -0.266   9.623 -2.5204  0.0550 -1.7444
  413MOL0     H55717   4.826   0.016   9.770 -0.9482 -0.6971  0.3668
  413MOL0     H55718   5.067   0.028   9.757  1.0333 -0.3529 -3.3382
  413MOL0     H55719   5.260  -0.010   9.588 -0.7640  0.5698  0.9854
  413MOL0     H55720   5.275   0.001   9.764 -2.7041 -0.0033 -0.7128
  413MOL0     H55721   5.482  -0.098   9.579  1.0623  1.4137 -0.9735
  413MOL0     H55722   5.487   0.049   9.667  1.2002 -0.2596  1.4011
  413MOL0     H55723   5.502  -0.061   9.882 -0.7325 -1.5006  0.5640
  413MOL0     H55724   5.527  -0.220   9.791 -1.4763 -0.0314 -1.3596
  413MOL0     H55725   5.700   0.028   9.783 -2.8826 -0.2823  2.7895
  413MOL0     H55726   5.716  -0.113   9.673 -0.4217  1.7747 -1.3629
  413MOL0     H55727   5.726  -0.249   9.880  0.0695  1.4754 -1.7189
  413MOL0     H55728   5.758  -0.107   9.976  2.2153  2.0901  0.0071
  413MOL0     H55729   5.941  -0.199   9.740 -0.9388  0.9877 -0.1378
  413MOL0     H55730   5.963  -0.063   9.834  0.1979 -0.1260 -0.3794
  413MOL0     H55731   5.953  -0.344   9.954  1.3250  0.0184 -0.1808
  413MOL0     H55732   5.976  -0.202  10.055  0.8290  0.7366 -0.5375
  413MOL0     H55733   6.175  -0.348   9.987 -1.9284  0.8032  3.8147
  413MOL0     H55734   6.143  -0.285   9.818  0.0273 -1.0166  0.2870
  413MOL0     H55735   5.096  -0.390   9.647 -1.1013 -0.3452 -1.0355
  413MOL0     H55736   4.835  -0.396   9.670  0.7880  0.4452 -1.3742
  413MOL0     H55737   4.458  -0.322  10.061 -1.3413  2.4500  0.8747
  413MOL0     H55738   4.214  -0.372  10.048 -0.6767  0.0516 -1.0649
  413MOL0     H55739   2.816   0.106   9.341  1.3187  0.4998 -2.3593
  413MOL0     H55740   2.592   0.146   9.426  1.6438 -0.0067  1.8344
  413MOL0     H55741   2.136  -0.091   9.375  0.6334  1.7404 -1.5849
  413MOL0     H55742   1.897  -0.039   9.398  0.2585 -1.6779 -0.1644
  413MOL0     H55743   1.794   0.339   9.558  1.5943 -2.2909 -0.7659
  413MOL0     H55744   1.760   0.252   9.713  1.0866  0.4705  0.6438
  413MOL0     H55745   1.540   0.233   9.683 -0.2255  2.8159  0.8492
  413MOL0     H55746   1.549   0.219   9.505  0.5207  2.8850 -1.5477
  413MOL0     H55747   1.562   0.477   9.493 -3.3377  0.5848 -0.6427
  413MOL0     H55748   1.609   0.485   9.657 -0.9292  2.4882 -1.8159
  413MOL0     H55749   1.360   0.385   9.704 -1.2700 -1.7153 -1.5041
  413MOL0     H55750   1.360   0.546   9.627  1.8511  0.5116  1.6121
  413MOL0     H55751   1.170   0.357   9.326 -0.0415  3.9535 -1.6440
  413MOL0     H55752   1.975   0.267   9.680  0.9730  0.7448  0.6363
  413MOL0     H55753   2.200   0.358   9.694 -0.7384  0.5304 -0.8036
  413MOL0     H55754   2.293   0.208   9.749 -0.5941 -1.7489 -1.0878
  413MOL0     H55755   2.333   0.293   9.599  0.7688 -2.3150  1.7574
  414MOL0     O55756   2.510   1.617   3.852 -0.0024 -0.3149 -0.1572
  414MOL0     C55757   2.480   1.515   3.799  1.0637  0.3713 -0.3240
  414MOL0     O55758   2.561   1.425   3.734 -0.1759  0.1855  0.1926
  414MOL0     C55759   2.696   1.452   3.723  0.4302  0.6040 -0.9090
  414MOL0     C55760   2.754   1.580   3.714  0.4974  0.1994 -0.8483
  414MOL0     C55761   2.883   1.598   3.689  0.2057  0.9664  0.5165
  414MOL0     C55762   2.966   1.494   3.673  0.1471 -0.4001  0.6341
  414MOL0     O55763   3.098   1.526   3.654 -0.6226 -0.5016 -0.7773
  414MOL0     C55764   3.201   1.425   3.671 -0.7828 -0.4302 -0.0823
  414MOL0     C55765   3.243   1.360   3.537 -0.3849 -0.1954 -0.1689
  414MOL0     C55766   3.331   1.247   3.557 -0.0637  0.2964 -0.7972
  414MOL0     C55767   3.474   1.300   3.582  0.4287 -0.3123 -0.0664
  414MOL0     C55768   3.571   1.220   3.654  0.0505  0.0381 -0.0819
  414MOL0     C55769   3.705   1.306   3.650 -0.4315  0.4905  0.1579
  414MOL0     C55770   3.828   1.230   3.705  0.3269  0.3195  0.1101
  414MOL0     C55771   3.857   1.098   3.634  0.3146 -0.7584  0.2486
  414MOL0     N55772   3.991   1.044   3.660  0.0390 -0.1351  0.5733
  414MOL0     C55773   4.040   0.992   3.782  0.3581 -0.5824 -0.6383
  414MOL0     C55774   4.170   0.968   3.752  0.3100 -0.8180 -0.3968
  414MOL0     C55775   4.264   0.897   3.845  0.5049 -0.6835 -0.2658
  414MOL0     C55776   4.261   0.965   3.980  0.2666  0.4877  0.8445
  414MOL0     C55777   4.352   0.898   4.085 -0.4522  0.2012  0.4334
  414MOL0     C55778   4.494   0.918   4.063  0.3050 -0.0333 -0.3834
  414MOL0     O55779   4.574   0.862   4.160  0.6688 -0.0728  0.3041
  414MOL0     C55780   4.707   0.879   4.163 -0.4112  0.9242 -0.5947
  414MOL0     C55781   4.777   0.819   4.270  0.0742  0.1300 -0.1748
  414MOL0     C55782   4.914   0.834   4.285 -0.4852  0.3969  0.4874
  414MOL0     C55783   4.994   0.898   4.193 -0.6179 -0.2171 -0.3352
  414MOL0     C55784   5.139   0.917   4.215 -0.6323  0.2792 -0.6891
  414MOL0     O55785   5.187   0.873   4.337  0.5661 -0.8278  0.0295
  414MOL0     C55786   5.318   0.862   4.373  0.6181  0.2446  0.3164
  414MOL0     C55787   5.418   0.823   4.280 -0.2821  0.0280  0.4392
  414MOL0     C55788   5.549   0.806   4.330  0.3910  0.0564  0.4781
  414MOL0     C55789   5.584   0.854   4.459 -0.3801  0.0050 -0.1001
  414MOL0     O55790   5.726   0.865   4.478 -0.3290  0.0707  0.3572
  414MOL0     C55791   5.771   0.953   4.584  0.7774  0.0181 -0.1215
  414MOL0     C55792   5.924   0.969   4.582 -0.3687 -0.2838  0.2420
  414MOL0     C55793   5.990   0.835   4.628 -0.2869  0.6908 -0.0903
  414MOL0     C55794   6.145   0.841   4.659  0.5345 -0.3269  0.2961
  414MOL0     C55795   6.213   0.702   4.634 -0.1122 -0.3754  0.0160
  414MOL0     C55796   6.365   0.710   4.641  0.4651 -0.4441  0.3410
  414MOL0     C55797   6.421   0.573   4.606 -0.1450  1.0504 -0.2878
  414MOL0     C55798   6.550   0.531   4.691  0.2471 -0.0445  0.1912
  414MOL0    Cl55799   6.664   0.664   4.691  0.1091 -0.2417  0.0830
  414MOL0     C55800   5.486   0.897   4.550  0.7542  0.2121 -0.1480
  414MOL0     C55801   5.350   0.892   4.506 -0.3688 -0.6816 -0.4771
  414MOL0     O55802   5.211   0.954   4.119  0.0133 -0.2793 -1.0668
  414MOL0     C55803   4.926   0.950   4.079 -1.3753 -0.2193 -0.1883
  414MOL0     C55804   4.784   0.946   4.068  0.5436  0.4106  0.0393
  414MOL0     N55805   4.190   0.992   3.623  0.2694 -0.3302  0.1842
  414MOL0     N55806   4.088   1.045   3.568  0.4228 -0.1280  0.5510
  414MOL0     C55807   2.914   1.365   3.669 -0.6920 -0.1294 -0.3097
  414MOL0     C55808   2.780   1.344   3.694 -0.3991 -0.3141 -1.3598
  414MOL0     C55809   2.334   1.473   3.809  0.0524  0.2273  0.4604
  414MOL0     C55810   2.300   1.382   3.706  0.1644  0.0580 -0.1451
  414MOL0     C55811   2.163   1.346   3.681 -0.1159 -0.4337 -1.2483
  414MOL0     C55812   2.065   1.398   3.760  0.3958 -0.7844 -0.0282
  414MOL0     O55813   1.933   1.367   3.734  0.1057 -0.1005 -0.6887
  414MOL0     C55814   1.848   1.303   3.840 -0.8276  0.2854 -0.6817
  414MOL0     C55815   1.711   1.332   3.799 -0.1556  0.8581  0.1314
  414MOL0     C55816   1.604   1.265   3.882  0.6070 -0.0407 -0.5779
  414MOL0     C55817   1.606   1.321   4.032 -0.1487  0.4233  0.2485
  414MOL0     C55818   1.473   1.311   4.098  0.1469  0.0201 -0.0836
  414MOL0     C55819   1.361   1.313   4.146 -0.0977 -0.0538 -0.0257
  414MOL0     C55820   2.095   1.496   3.853  0.2442  0.6374 -0.2921
  414MOL0     C55821   2.229   1.541   3.878  1.0286  0.0069 -0.1026
  414MOL0     C55822   2.238   1.646   3.982  0.2149 -0.0622  0.0354
  414MOL0     H55823   2.701   1.673   3.732  2.0222  0.8335  0.7033
  414MOL0     H55824   2.920   1.700   3.677  0.0870  0.7668 -2.1453
  414MOL0     H55825   3.292   1.471   3.713 -1.4460  1.8513 -0.9763
  414MOL0     H55826   3.170   1.348   3.742 -0.9087 -0.4393 -0.1480
  414MOL0     H55827   3.284   1.430   3.463 -1.5922  0.6055 -0.0938
  414MOL0     H55828   3.153   1.313   3.497 -1.0420 -1.0486  2.1414
  414MOL0     H55829   3.338   1.187   3.466  1.7154 -0.8459  0.0504
  414MOL0     H55830   3.295   1.178   3.635 -1.2671  0.4303 -1.2033
  414MOL0     H55831   3.514   1.318   3.482 -0.8718 -0.1023 -0.5610
  414MOL0     H55832   3.468   1.393   3.639  2.2219  0.1210 -0.5056
  414MOL0     H55833   3.552   1.203   3.760  0.4587  3.8563  0.7538
  414MOL0     H55834   3.581   1.126   3.599  0.7748  0.2755 -0.3727
  414MOL0     H55835   3.720   1.331   3.545  1.3163 -1.5281 -0.1487
  414MOL0     H55836   3.683   1.391   3.715 -0.4844  0.3528  0.3244
  414MOL0     H55837   3.815   1.206   3.812  2.7108  0.2541  0.4353
  414MOL0     H55838   3.919   1.287   3.687  1.0605 -1.0270 -0.5851
  414MOL0     H55839   3.786   1.017   3.651 -0.5382 -0.1158 -0.2059
  414MOL0     H55840   3.854   1.120   3.527  0.1861  0.9105  0.5795
  414MOL0     H55841   3.980   0.968   3.869 -0.2387 -1.8274 -1.3668
  414MOL0     H55842   4.219   0.797   3.852  0.7846 -0.8998 -1.3716
  414MOL0     H55843   4.366   0.889   3.807  0.1927 -0.0528 -1.3094
  414MOL0     H55844   4.296   1.067   3.964  3.6973 -0.8544 -1.2358
  414MOL0     H55845   4.160   0.969   4.022 -1.0389  1.2957 -2.1056
  414MOL0     H55846   4.325   0.793   4.092  0.0596  0.1100  1.2017
  414MOL0     H55847   4.320   0.941   4.181 -0.5860 -2.0941  1.4820
  414MOL0     H55848   4.499   1.027   4.066  0.9896 -0.0508 -0.6759
  414MOL0     H55849   4.514   0.872   3.966  2.1145 -2.5894  1.1002
  414MOL0     H55850   4.722   0.751   4.335  1.2203 -1.4475 -0.7988
  414MOL0     H55851   4.969   0.796   4.370  1.0980  4.0245  1.2827
  414MOL0     H55852   5.384   0.799   4.180 -0.6541  1.4310  0.2139
  414MOL0     H55853   5.622   0.765   4.261  2.1804 -1.5074  3.1154
  414MOL0     H55854   5.731   1.054   4.566 -2.0992 -0.3846  3.0239
  414MOL0     H55855   5.741   0.920   4.683  0.5155  2.3504  0.6363
  414MOL0     H55856   5.960   0.972   4.478  0.4705  0.4414  0.5396
  414MOL0     H55857   5.960   1.051   4.644 -0.8916 -0.8879  1.3736
  414MOL0     H55858   5.949   0.785   4.716 -0.5592  1.3367  0.1506
  414MOL0     H55859   5.976   0.761   4.549 -1.5015  0.9173 -0.1083
  414MOL0     H55860   6.157   0.883   4.760 -0.5135  0.4114  0.1364
  414MOL0     H55861   6.191   0.919   4.597  0.4166 -0.5132 -0.0260
  414MOL0     H55862   6.186   0.665   4.534 -1.2426  1.6927 -0.4933
  414MOL0     H55863   6.180   0.627   4.707 -2.2495 -1.4887 -1.9242
  414MOL0     H55864   6.397   0.790   4.574 -1.7935  0.2236  0.0074
  414MOL0     H55865   6.388   0.732   4.746  0.2006  0.5668  0.1993
  414MOL0     H55866   6.450   0.576   4.501  1.9829  1.3214  0.2448
  414MOL0     H55867   6.352   0.488   4.608  0.7176  0.3361  1.2193
  414MOL0     H55868   6.538   0.514   4.798  0.3759 -0.0157  0.2111
  414MOL0     H55869   6.614   0.453   4.647  0.3509 -0.6043  1.3230
  414MOL0     H55870   5.505   0.931   4.651  2.0516 -1.0154  0.0589
  414MOL0     H55871   5.269   0.932   4.567  0.8465 -0.1665  0.8412
  414MOL0     H55872   4.983   1.006   4.005  0.0188 -0.4326  0.6900
  414MOL0     H55873   4.733   0.992   3.984 -0.4836 -1.1318 -0.2169
  414MOL0     H55874   2.982   1.280   3.664 -1.1795 -0.5198 -0.3958
  414MOL0     H55875   2.732   1.247   3.687 -0.9336  0.0025 -2.3397
  414MOL0     H55876   2.371   1.338   3.637  0.5591  1.8121 -0.8942
  414MOL0     H55877   2.133   1.270   3.610  0.5710 -1.0197 -0.9221
  414MOL0     H55878   1.875   1.336   3.940  1.0160  0.9234 -1.3361
  414MOL0     H55879   1.877   1.198   3.834  1.5869  0.8080  0.7036
  414MOL0     H55880   1.680   1.294   3.701 -1.6006  1.2421  0.4166
  414MOL0     H55881   1.694   1.440   3.804 -0.4536  0.7464  2.9342
  414MOL0     H55882   1.622   1.157   3.884 -1.3427 -0.4124 -0.9692
  414MOL0     H55883   1.503   1.287   3.845 -0.7788 -0.7856  2.4321
  414MOL0     H55884   1.691   1.275   4.084  0.7541  2.3174  0.5397
  414MOL0     H55885   1.621   1.429   4.036 -0.7417  0.4723  2.2282
  414MOL0     H55886   1.264   1.311   4.191  0.6317 -2.6310  1.6391
  414MOL0     H55887   2.009   1.539   3.902 -0.4962 -0.1543 -0.8644
  414MOL0     H55888   2.139   1.673   4.021 -1.6539 -3.0941 -2.1672
  414MOL0     H55889   2.302   1.608   4.062  0.1059 -1.5987 -0.5775
  414MOL0     H55890   2.291   1.734   3.942  0.8349 -0.9076 -1.0707
  415MOL0     O55891   1.942   7.366  10.632  0.3485  0.4563  0.0483
  415MOL0     C55892   2.007   7.378  10.736 -0.7639 -0.7645 -0.8813
  415MOL0     O55893   2.147   7.361  10.756 -0.4410  0.0407 -0.2370
  415MOL0     C55894   2.234   7.316  10.655  0.0210  0.6110  0.8089
  415MOL0     C55895   2.355   7.249  10.695  0.3364  0.2354  0.3995
  415MOL0     C55896   2.441   7.209  10.594 -0.5928 -0.6251  0.0761
  415MOL0     C55897   2.408   7.217  10.454 -0.3789  0.9651  0.0108
  415MOL0     O55898   2.490   7.170  10.352  0.4373  0.2794  0.4042
  415MOL0     C55899   2.546   7.042  10.384 -0.3405 -0.0094 -0.6736
  415MOL0     C55900   2.675   7.002  10.304  0.1550  0.4342  0.0507
  415MOL0     C55901   2.700   6.845  10.326 -0.0413  0.1459 -0.0083
  415MOL0     C55902   2.817   6.809  10.232  0.0586 -0.0534 -0.6271
  415MOL0     C55903   2.865   6.672  10.246 -0.2499 -0.0619 -0.1525
  415MOL0     C55904   2.986   6.655  10.150  0.7103 -0.3403 -0.1136
  415MOL0     C55905   3.042   6.518  10.151 -0.0204 -0.2540  0.6577
  415MOL0     C55906   3.188   6.504  10.097 -0.2151 -0.3946  0.7198
  415MOL0     N55907   3.187   6.525   9.949  0.0189 -0.2717  0.5770
  415MOL0     C55908   3.160   6.418   9.864 -0.5902 -0.4344 -0.7595
  415MOL0     C55909   3.176   6.469   9.741 -0.8517  0.2128  0.4856
  415MOL0     C55910   3.150   6.376   9.617  0.4800 -0.4916 -0.1217
  415MOL0     C55911   3.027   6.438   9.559  0.1973  0.1913 -0.0605
  415MOL0     C55912   3.001   6.341   9.439  0.0931  0.5956 -0.7580
  415MOL0     C55913   3.033   6.392   9.306 -0.1104 -0.0053 -0.3648
  415MOL0     O55914   3.171   6.392   9.274  0.7594  0.4966 -0.1562
  415MOL0     C55915   3.243   6.273   9.283  0.9782  0.0535  0.4315
  415MOL0     C55916   3.367   6.284   9.337 -0.4991 -0.0867 -0.0716
  415MOL0     C55917   3.455   6.177   9.319  0.2255 -0.6650 -0.0151
  415MOL0     C55918   3.412   6.061   9.261  0.4237  0.7395  0.0771
  415MOL0     C55919   3.501   5.950   9.258 -0.8779  0.6019 -0.3408
  415MOL0     O55920   3.619   5.951   9.327  0.3826  0.5748  0.0574
  415MOL0     C55921   3.693   5.834   9.335 -0.5064 -0.2002  0.2561
  415MOL0     C55922   3.648   5.741   9.424 -0.0660  0.2551  0.5783
  415MOL0     C55923   3.722   5.629   9.458  0.9617 -0.1164 -0.1767
  415MOL0     C55924   3.830   5.586   9.381 -0.4275 -0.0133 -0.4129
  415MOL0     O55925   3.905   5.470   9.396 -0.1870 -0.5911  0.7081
  415MOL0     C55926   3.897   5.396   9.512  0.5536  0.4329 -0.0789
  415MOL0     C55927   3.985   5.448   9.617 -0.0014 -0.0429  0.2041
  415MOL0     C55928   3.989   5.368   9.745  0.0777  0.5393 -1.0198
  415MOL0     C55929   4.084   5.430   9.848 -0.1064 -0.0485  0.5731
  415MOL0     C55930   4.063   5.352   9.977  0.8899 -0.0693 -0.1860
  415MOL0     C55931   4.134   5.408  10.111  1.0923 -0.0549  0.4304
  415MOL0     C55932   4.064   5.529  10.164  0.0768  0.1944 -0.0346
  415MOL0     C55933   4.158   5.639  10.173  0.4188 -0.5428 -0.4228
  415MOL0    Cl55934   4.278   5.625  10.310 -0.1594 -0.6348 -0.0063
  415MOL0     C55935   3.876   5.680   9.281 -0.7192  0.3156  0.0307
  415MOL0     C55936   3.806   5.805   9.265 -0.4328 -0.2178 -0.5657
  415MOL0     O55937   3.457   5.846   9.203  0.3062 -0.6789  0.3912
  415MOL0     C55938   3.277   6.051   9.214 -0.1046  0.3416  0.4155
  415MOL0     C55939   3.186   6.152   9.229 -0.4095  0.1110  0.0249
  415MOL0     N55940   3.210   6.601   9.746 -0.4924  0.0629 -0.1294
  415MOL0     N55941   3.234   6.635   9.872 -0.6748  0.7794 -0.1477
  415MOL0     C55942   2.293   7.291  10.425  0.4402 -0.6875  0.2302
  415MOL0     C55943   2.206   7.338  10.523 -0.1377  0.2898  0.5161
  415MOL0     C55944   1.935   7.418  10.863  0.3547  0.7118  0.8153
  415MOL0     C55945   1.993   7.361  10.975  0.4419  1.5108 -0.8217
  415MOL0     C55946   1.930   7.373  11.091 -0.0407  0.1324 -1.1261
  415MOL0     C55947   1.802   7.429  11.101  0.3850 -0.2757  0.4215
  415MOL0     O55948   1.722   7.433  11.213 -0.9338  0.5521 -0.0409
  415MOL0     C55949   1.749   7.338  11.318  0.2755 -0.0344 -0.8284
  415MOL0     C55950   1.695   7.198  11.296 -0.5240  0.1503  0.7548
  415MOL0     C55951   1.545   7.182  11.263 -0.6102  0.3340  0.2091
  415MOL0     C55952   1.507   7.157  11.118  0.7872 -0.6398  0.2768
  415MOL0     C55953   1.366   7.115  11.124  0.0809 -0.6484  0.2479
  415MOL0     C55954   1.242   7.094  11.127 -1.0048  0.0351 -0.9562
  415MOL0     C55955   1.752   7.486  10.987 -0.5473 -0.1102 -0.2433
  415MOL0     C55956   1.813   7.487  10.863  0.5138 -0.1725  0.0678
  415MOL0     C55957   1.745   7.557  10.747  0.3251 -0.2153 -0.1249
  415MOL0     H55958   2.380   7.237  10.800 -1.6195  2.2535  1.1925
  415MOL0     H55959   2.535   7.166  10.627  1.3121  1.4743 -2.1659
  415MOL0     H55960   2.588   7.050  10.485  0.2872 -2.3098 -0.6995
  415MOL0     H55961   2.474   6.963  10.362 -0.0713 -0.7091  0.7924
  415MOL0     H55962   2.763   7.051  10.346  0.1338  0.6466 -0.1514
  415MOL0     H55963   2.659   7.031  10.199  2.4394 -2.3189 -1.1940
  415MOL0     H55964   2.619   6.777  10.300  2.6924 -4.1772  1.6453
  415MOL0     H55965   2.725   6.827  10.431  1.3783  1.3158 -0.1128
  415MOL0     H55966   2.790   6.836  10.130  1.6500 -0.0999 -1.0940
  415MOL0     H55967   2.904   6.869  10.261  0.5663 -1.5758  1.1946
  415MOL0     H55968   2.903   6.654  10.347  0.6868  0.7935 -0.3342
  415MOL0     H55969   2.793   6.592  10.226  0.6770 -1.5371  1.9624
  415MOL0     H55970   2.960   6.682  10.047  3.4220  0.8927 -0.5654
  415MOL0     H55971   3.064   6.729  10.173  1.6320 -0.4250 -2.6458
  415MOL0     H55972   2.975   6.459  10.087 -1.3604  1.5368  0.3115
  415MOL0     H55973   3.049   6.475  10.251 -0.9737 -0.7500  0.5252
  415MOL0     H55974   3.252   6.578  10.144 -0.6046  0.3842  0.0436
  415MOL0     H55975   3.220   6.403  10.124  0.3155  0.2009  2.4365
  415MOL0     H55976   3.123   6.318   9.886 -1.4829  0.5812  3.0349
  415MOL0     H55977   3.233   6.388   9.546  0.8813  0.8111  0.5370
  415MOL0     H55978   3.141   6.271   9.649  1.0884 -0.3801  0.4415
  415MOL0     H55979   2.937   6.431   9.622 -0.0909  2.4576 -0.1507
  415MOL0     H55980   3.033   6.543   9.529 -1.3920  0.2958 -0.0930
  415MOL0     H55981   2.895   6.317   9.453  0.6554 -2.4677 -1.0709
  415MOL0     H55982   3.045   6.242   9.453 -0.9813  0.2416  0.3075
  415MOL0     H55983   2.991   6.492   9.287 -2.0981 -0.2283  2.2838
  415MOL0     H55984   2.979   6.332   9.232  1.3564 -0.8756 -0.7542
  415MOL0     H55985   3.402   6.381   9.371  1.6783 -0.0756 -2.0427
  415MOL0     H55986   3.555   6.191   9.358 -0.0647  0.1429  0.4795
  415MOL0     H55987   3.557   5.759   9.481  0.6116 -0.3915  1.9235
  415MOL0     H55988   3.685   5.566   9.538 -1.6739  0.7065 -0.6430
  415MOL0     H55989   3.791   5.397   9.541 -0.9110  4.2678 -4.2881
  415MOL0     H55990   3.929   5.294   9.491 -0.8341  0.2319 -1.3549
  415MOL0     H55991   4.088   5.452   9.581  0.7105 -0.7093  2.0696
  415MOL0     H55992   3.938   5.545   9.637  0.8272  0.7076 -1.2960
  415MOL0     H55993   3.886   5.380   9.780 -0.7917 -1.1620 -2.7924
  415MOL0     H55994   4.006   5.261   9.729 -1.3837  0.5345 -2.8573
  415MOL0     H55995   4.061   5.535   9.871 -0.8504 -0.6093  2.6062
  415MOL0     H55996   4.181   5.419   9.799 -1.4608 -0.3471 -2.2345
  415MOL0     H55997   4.115   5.257   9.961  1.8690  0.8414 -3.0545
  415MOL0     H55998   3.958   5.324   9.989  1.1743 -2.0193 -1.7220
  415MOL0     H55999   4.109   5.331  10.185  1.2387  1.9334  2.6641
  415MOL0     H56000   4.242   5.429  10.108  0.6939  2.0935 -0.3949
  415MOL0     H56001   4.025   5.507  10.264 -0.9467  2.1944  0.0618
  415MOL0     H56002   3.996   5.564  10.086  0.3731  0.5172 -0.1489
  415MOL0     H56003   4.207   5.641  10.075 -0.2779  1.6177 -0.7776
  415MOL0     H56004   4.105   5.734  10.182  1.2910 -0.0094 -0.8064
  415MOL0     H56005   3.959   5.643   9.223  0.4914  2.1158  0.5263
  415MOL0     H56006   3.845   5.873   9.190  0.3175  0.7835  0.6831
  415MOL0     H56007   3.235   5.971   9.156  1.4053  1.4141 -2.3581
  415MOL0     H56008   3.082   6.140   9.199 -0.1007 -0.4677 -0.8624
  415MOL0     H56009   2.262   7.308  10.323 -0.0320  0.1957  0.5083
  415MOL0     H56010   2.112   7.376  10.485 -0.4651 -2.6344 -2.0132
  415MOL0     H56011   2.083   7.302  10.968  0.3232  0.9627  1.4115
  415MOL0     H56012   1.975   7.320  11.174 -0.4914  1.9863  0.3561
  415MOL0     H56013   1.699   7.377  11.407 -1.9944 -2.9163 -0.7089
  415MOL0     H56014   1.853   7.342  11.351  0.3863  5.1593 -1.0195
  415MOL0     H56015   1.709   7.159  11.397  1.1949 -0.0099  0.4858
  415MOL0     H56016   1.751   7.154  11.213 -1.6377  1.3760 -0.7153
  415MOL0     H56017   1.493   7.275  11.286  0.0581  0.6765  0.3721
  415MOL0     H56018   1.504   7.103  11.327 -4.1992  2.5888  0.9972
  415MOL0     H56019   1.514   7.251  11.063  2.6680 -0.6926  0.3423
  415MOL0     H56020   1.571   7.078  11.076  0.1100 -0.3876 -1.2913
  415MOL0     H56021   1.136   7.081  11.121 -0.9957 -0.4085 -0.3041
  415MOL0     H56022   1.660   7.542  11.002 -1.3242 -1.1559 -0.9819
  415MOL0     H56023   1.660   7.618  10.779 -0.0032 -0.6123 -0.2391
  415MOL0     H56024   1.818   7.624  10.700 -0.3067  0.6937  0.1645
  415MOL0     H56025   1.728   7.479  10.672  2.0447  1.8430 -2.8548
  416MOL0     O56026   2.812   0.040  10.614  0.0913  0.6206 -0.4661
  416MOL0     C56027   2.820  -0.081  10.587 -0.3737 -0.1221  0.5532
  416MOL0     O56028   2.934  -0.152  10.594 -0.3560  0.0421  0.1707
  416MOL0     C56029   3.056  -0.084  10.590  0.8812  0.2644  0.9438
  416MOL0     C56030   3.092   0.000  10.480  0.7294  0.8672  0.2190
  416MOL0     C56031   3.235   0.033  10.468 -0.0869 -0.7766  0.2494
  416MOL0     C56032   3.323   0.005  10.575  0.7841 -0.2685  0.6409
  416MOL0     O56033   3.451   0.042  10.552 -0.4234  0.7406  0.6681
  416MOL0     C56034   3.554  -0.044  10.611 -0.7458 -0.1716  0.7609
  416MOL0     C56035   3.693  -0.021  10.552 -0.0482 -0.5083  0.5736
  416MOL0     C56036   3.748   0.118  10.584  0.2755  1.3455 -0.2253
  416MOL0     C56037   3.883   0.140  10.512 -0.1388  0.3894 -0.2602
  416MOL0     C56038   3.936   0.274  10.543 -0.1889  0.4876 -0.5494
  416MOL0     C56039   4.074   0.296  10.477  0.4475  0.8128  0.5142
  416MOL0     C56040   4.121   0.440  10.513 -0.8779 -0.0571 -0.4091
  416MOL0     C56041   4.261   0.459  10.448  0.7909  0.8900 -0.3373
  416MOL0     N56042   4.349   0.539  10.536  0.0112  0.2816 -0.1043
  416MOL0     C56043   4.443   0.495  10.632 -0.1239 -0.1383 -0.2865
  416MOL0     C56044   4.482   0.602  10.708  0.6099 -0.4274 -0.4967
  416MOL0     C56045   4.573   0.611  10.825 -0.2134  0.3096  0.7785
  416MOL0     C56046   4.720   0.611  10.786 -0.4463  0.2933  0.1085
  416MOL0     C56047   4.805   0.586  10.909  0.3563 -0.3417 -0.3527
  416MOL0     C56048   4.950   0.600  10.900  0.9490  0.4154 -0.6461
  416MOL0     O56049   5.000   0.512  10.804  0.0945 -0.2886  0.5364
  416MOL0     C56050   5.130   0.474  10.803  0.6520 -0.5826  0.3080
  416MOL0     C56051   5.227   0.535  10.880  0.0648 -0.4481  0.3111
  416MOL0     C56052   5.365   0.503  10.863  0.0473  0.8207 -0.1264
  416MOL0     C56053   5.409   0.410  10.762  0.1840  0.2979 -0.1935
  416MOL0     C56054   5.554   0.374  10.753 -0.3255 -0.8716  0.2770
  416MOL0     O56055   5.633   0.445  10.837 -0.0829 -0.3137  0.5423
  416MOL0     C56056   5.765   0.445  10.833  0.9875 -0.5368 -0.8856
  416MOL0     C56057   5.808   0.551  10.913  0.8678 -0.6622 -0.2992
  416MOL0     C56058   5.942   0.570  10.938 -0.1782 -0.0861  0.5869
  416MOL0     C56059   6.032   0.470  10.882 -0.6112  0.5143 -0.1744
  416MOL0     O56060   6.168   0.479  10.895 -1.0730  0.3796  0.1362
  416MOL0     C56061   6.228   0.590  10.968 -0.1878  0.0267  1.2596
  416MOL0     C56062   6.374   0.554  10.974  0.1604 -0.7367  0.5657
  416MOL0     C56063   6.458   0.661  11.038 -0.2686  0.2320 -0.2791
  416MOL0     C56064   6.601   0.599  11.043 -0.3636 -0.0762 -1.0150
  416MOL0     C56065   6.700   0.712  11.070 -0.9728 -0.1339  0.2366
  416MOL0     C56066   6.742   0.725  11.222  0.1705 -0.5836 -0.0409
  416MOL0     C56067   6.874   0.808  11.214  0.1544  0.1151 -0.8637
  416MOL0     C56068   6.942   0.811  11.352  0.0256  0.4481 -0.3731
  416MOL0    Cl56069   7.124   0.834  11.337  0.3308 -0.0920  0.3130
  416MOL0     C56070   5.984   0.370  10.797 -0.2050  0.6003 -0.7537
  416MOL0     C56071   5.850   0.350  10.775  0.5430  0.3290 -0.9148
  416MOL0     O56072   5.587   0.298  10.666 -0.4320 -0.2347 -0.0841
  416MOL0     C56073   5.308   0.355  10.680  0.2975  0.9521  0.0997
  416MOL0     C56074   5.168   0.393  10.701 -0.4828  0.2680  0.7926
  416MOL0     N56075   4.402   0.706  10.651 -1.0129  0.2276 -0.0644
  416MOL0     N56076   4.323   0.667  10.556  0.1505  0.5066 -0.2504
  416MOL0     C56077   3.278  -0.070  10.680  0.0732 -0.8278 -0.3206
  416MOL0     C56078   3.152  -0.119  10.681  1.0006 -0.0018  0.4624
  416MOL0     C56079   2.689  -0.151  10.540  0.1591 -0.6107 -0.1066
  416MOL0     C56080   2.568  -0.087  10.533 -0.1029 -0.7915  0.3494
  416MOL0     C56081   2.455  -0.142  10.479  0.4477 -0.4493 -0.3787
  416MOL0     C56082   2.461  -0.268  10.425  0.0168  0.0916  0.2178
  416MOL0     O56083   2.361  -0.325  10.353  0.3346 -1.3183  0.7737
  416MOL0     C56084   2.313  -0.256  10.243  0.5120  0.2376  0.3851
  416MOL0     C56085   2.191  -0.152  10.268  0.1791 -0.1437 -0.4911
  416MOL0     C56086   2.119  -0.133  10.136  0.0976  0.2098  0.7324
  416MOL0     C56087   1.998  -0.046  10.124 -0.2711  0.0317 -0.3972
  416MOL0     C56088   1.935  -0.048   9.991  0.4713 -0.0950  0.4013
  416MOL0     C56089   1.864  -0.044   9.893 -0.1860 -0.3254 -0.2480
  416MOL0     C56090   2.581  -0.338  10.438 -0.4756  0.0599  0.3670
  416MOL0     C56091   2.687  -0.289  10.511 -0.5456 -0.1822  0.2426
  416MOL0     C56092   2.797  -0.396  10.531  0.3496 -0.9970  0.0591
  416MOL0     H56093   3.019   0.018  10.402 -0.4173 -0.5360  0.9215
  416MOL0     H56094   3.263   0.087  10.379  1.7528 -0.6653  0.8715
  416MOL0     H56095   3.557  -0.030  10.720 -0.3936  1.9608  0.5158
  416MOL0     H56096   3.520  -0.146  10.588 -1.9674  0.6034 -1.0785
  416MOL0     H56097   3.685  -0.035  10.443  2.4472  1.2505  0.1028
  416MOL0     H56098   3.759  -0.097  10.594  1.0846  0.8738  1.3594
  416MOL0     H56099   3.758   0.122  10.693 -1.0600 -3.7219  0.3393
  416MOL0     H56100   3.675   0.196  10.564  1.0019  1.4768 -2.6074
  416MOL0     H56101   3.959   0.066  10.542  0.2828  0.2224 -1.6463
  416MOL0     H56102   3.875   0.135  10.403 -0.3042  0.0289 -0.2343
  416MOL0     H56103   3.862   0.341  10.499 -1.6631 -1.4085 -1.0974
  416MOL0     H56104   3.941   0.302  10.649  1.8504  0.7016 -0.6686
  416MOL0     H56105   4.143   0.224  10.522 -0.9641  0.0222  1.4886
  416MOL0     H56106   4.056   0.271  10.371 -0.5589  1.9631  0.3950
  416MOL0     H56107   4.140   0.458  10.619 -2.7496 -0.0592 -0.0377
  416MOL0     H56108   4.047   0.514  10.481  0.1351  0.5633 -1.4015
  416MOL0     H56109   4.308   0.361  10.440  0.6511  0.8933 -1.2929
  416MOL0     H56110   4.250   0.513  10.353 -1.2437 -1.0229 -1.2723
  416MOL0     H56111   4.478   0.395  10.653  0.5571 -0.1199 -1.2740
  416MOL0     H56112   4.546   0.700  10.882 -0.1984  0.7546  0.0951
  416MOL0     H56113   4.543   0.525  10.886  1.8201 -0.5820  0.5861
  416MOL0     H56114   4.732   0.543  10.702 -0.4420 -1.0698  1.1851
  416MOL0     H56115   4.749   0.709  10.747  1.0714  0.4848  1.5825
  416MOL0     H56116   4.784   0.488  10.953  0.2456  0.1035  0.6129
  416MOL0     H56117   4.767   0.658  10.982 -1.0640  1.4916 -2.7797
  416MOL0     H56118   4.985   0.583  11.002 -0.4310  2.5313  0.2569
  416MOL0     H56119   4.968   0.704  10.871  0.4255  0.6229 -0.2420
  416MOL0     H56120   5.194   0.621  10.938 -0.0849  0.4613 -1.0785
  416MOL0     H56121   5.443   0.540  10.928  1.2142 -3.0578  0.9601
  416MOL0     H56122   5.732   0.613  10.960 -0.5106 -1.4363 -1.4491
  416MOL0     H56123   5.974   0.655  10.996  1.1265  1.5721 -2.3468
  416MOL0     H56124   6.208   0.684  10.916 -1.4603 -1.1648 -0.5152
  416MOL0     H56125   6.190   0.604  11.070 -0.6535  1.2634  0.9279
  416MOL0     H56126   6.386   0.469  11.042 -0.1254  0.1191  1.7071
  416MOL0     H56127   6.419   0.523  10.879 -0.0543  1.0077 -0.1412
  416MOL0     H56128   6.463   0.753  10.979  2.3748  1.2553  1.3759
  416MOL0     H56129   6.421   0.684  11.139 -1.6428 -0.0619 -0.6890
  416MOL0     H56130   6.620   0.547  10.949 -1.2551 -1.6704 -0.3472
  416MOL0     H56131   6.609   0.516  11.113 -1.9832 -0.9840 -1.8457
  416MOL0     H56132   6.666   0.809  11.033 -1.2790  0.9783  3.1397
  416MOL0     H56133   6.790   0.683  11.014 -1.5033  1.1155 -1.3302
  416MOL0     H56134   6.663   0.762  11.288  0.2798  0.5887 -0.5409
  416MOL0     H56135   6.769   0.625  11.257 -0.2412  0.1587  2.5692
  416MOL0     H56136   6.844   0.912  11.196 -1.7655 -0.4154 -0.9643
  416MOL0     H56137   6.949   0.775  11.142  1.4648  1.0411  0.0388
  416MOL0     H56138   6.882   0.877  11.415 -1.0641 -0.2151 -0.6756
  416MOL0     H56139   6.940   0.713  11.401  0.9248  0.0001 -1.2056
  416MOL0     H56140   6.061   0.302  10.762  1.7272  2.3497 -0.1467
  416MOL0     H56141   5.828   0.255  10.727  1.9050 -0.1943 -0.5421
  416MOL0     H56142   5.325   0.273  10.611 -1.7587 -0.3450  1.0464
  416MOL0     H56143   5.094   0.340  10.640  1.7592 -2.7816  0.4782
  416MOL0     H56144   3.340  -0.084  10.768  1.4613 -3.6801 -1.6428
  416MOL0     H56145   3.104  -0.176  10.759  0.6348  1.3266  1.2508
  416MOL0     H56146   2.561   0.010  10.581 -1.1063 -0.5880 -0.1844
  416MOL0     H56147   2.361  -0.089  10.477  1.4414  1.4465  0.5171
  416MOL0     H56148   2.284  -0.332  10.170  3.1806  0.5352 -1.1200
  416MOL0     H56149   2.388  -0.201  10.185 -1.9335  2.0805 -1.2425
  416MOL0     H56150   2.234  -0.059  10.304 -0.3450 -0.1142  0.0641
  416MOL0     H56151   2.114  -0.195  10.332 -1.0267  0.8265 -1.2508
  416MOL0     H56152   2.096  -0.231  10.093  0.3505 -0.1311  1.3545
  416MOL0     H56153   2.198  -0.086  10.077  0.3597 -1.1130 -0.0041
  416MOL0     H56154   1.931  -0.081  10.203  0.3938  2.1127  1.1730
  416MOL0     H56155   2.030   0.056  10.148 -0.0203  0.1772 -1.3055
  416MOL0     H56156   1.794  -0.066   9.814 -1.6717 -2.3849  1.5032
  416MOL0     H56157   2.578  -0.441  10.406  1.6771 -0.7077  2.4301
  416MOL0     H56158   2.764  -0.490  10.487 -1.6561 -0.6857  0.8104
  416MOL0     H56159   2.897  -0.364  10.499  0.3701 -0.5286  0.5712
  416MOL0     H56160   2.810  -0.405  10.639  0.3167  0.2700  0.1844
  417MOL0     O56161   8.916   1.026   3.341  0.5169  0.5811 -0.2146
  417MOL0     C56162   8.827   0.943   3.360 -0.1438 -0.7880  0.4745
  417MOL0     O56163   8.841   0.818   3.407 -0.0796 -0.5558 -0.3039
  417MOL0     C56164   8.960   0.763   3.456 -0.4050 -0.0321  0.7635
  417MOL0     C56165   8.969   0.628   3.451  0.6165 -0.4471 -0.2943
  417MOL0     C56166   9.078   0.552   3.494  0.2034  1.1711  0.2543
  417MOL0     C56167   9.199   0.613   3.535  0.0887 -0.1017 -0.4051
  417MOL0     O56168   9.313   0.553   3.581  0.3973 -0.2427 -0.2474
  417MOL0     C56169   9.328   0.414   3.604 -0.2170 -0.2950 -0.5574
  417MOL0     C56170   9.469   0.391   3.678 -0.5679 -0.8085  0.3173
  417MOL0     C56171   9.593   0.437   3.596 -0.1898 -0.5271 -1.0014
  417MOL0     C56172   9.730   0.448   3.671 -0.5815 -0.4623 -0.3845
  417MOL0     C56173   9.828   0.527   3.580 -0.2188  0.1221  0.2085
  417MOL0     C56174   9.960   0.540   3.656  0.5757  0.4726 -0.2703
  417MOL0     C56175   9.961   0.645   3.769 -0.3245  0.0007  0.0610
  417MOL0     C56176  10.105   0.640   3.842 -0.5478  0.5326  0.8003
  417MOL0     N56177  10.210   0.702   3.749 -0.0483 -0.6999 -0.3598
  417MOL0     C56178  10.340   0.656   3.757  0.9003  0.2070 -0.1070
  417MOL0     C56179  10.404   0.725   3.661  0.5575  0.3893  0.2294
  417MOL0     C56180  10.544   0.711   3.609  0.4042  0.2853 -0.0580
  417MOL0     C56181  10.556   0.770   3.469  0.1242 -0.6074 -0.2057
  417MOL0     C56182  10.702   0.756   3.428 -0.4492 -0.3521  0.3244
  417MOL0     C56183  10.799   0.859   3.503 -0.0811  0.3505  0.2523
  417MOL0     O56184  10.882   0.782   3.589 -0.6405  0.5062  0.1541
  417MOL0     C56185  11.004   0.762   3.537 -0.2556 -0.0047 -0.7075
  417MOL0     C56186  11.095   0.863   3.498  0.6982  1.0078  0.4268
  417MOL0     C56187  11.218   0.833   3.440  0.4605 -0.4466 -0.0468
  417MOL0     C56188  11.254   0.706   3.404  0.4327  0.6563  0.0418
  417MOL0     C56189  11.385   0.671   3.340  1.2591 -0.3755  0.0495
  417MOL0     O56190  11.480   0.771   3.308 -0.1093  0.0164  0.1251
  417MOL0     C56191  11.592   0.731   3.241 -0.0125 -0.4899  0.3101
  417MOL0     C56192  11.588   0.704   3.104 -0.2173  0.2768  1.0663
  417MOL0     C56193  11.699   0.646   3.054 -0.2013  0.4087  0.5341
  417MOL0     C56194  11.820   0.628   3.122 -0.2661  0.3503 -0.1485
  417MOL0     O56195  11.926   0.575   3.049  0.6971 -0.1399 -0.0646
  417MOL0     C56196  12.050   0.569   3.111 -0.6809  0.1762  0.5766
  417MOL0     C56197  12.113   0.714   3.111 -1.0896  0.7424 -0.1140
  417MOL0     C56198  12.242   0.713   3.198 -0.1557  0.1165  0.2383
  417MOL0     C56199  12.214   0.696   3.348 -0.3550 -0.0296 -0.0215
  417MOL0     C56200  12.343   0.681   3.423 -0.4181 -0.5702 -0.8665
  417MOL0     C56201  12.318   0.697   3.568  0.4076  0.4689 -0.2100
  417MOL0     C56202  12.425   0.628   3.656 -0.1547 -0.0402 -0.6892
  417MOL0     C56203  12.393   0.648   3.808 -0.1703  0.3332 -0.3069
  417MOL0    Cl56204  12.545   0.597   3.891 -0.0780 -0.3494  0.4388
  417MOL0     C56205  11.824   0.669   3.250 -0.2508 -0.4996  0.0859
  417MOL0     C56206  11.710   0.715   3.314  0.2920 -0.2783  0.0182
  417MOL0     O56207  11.402   0.550   3.324 -0.0711 -0.5723  0.3692
  417MOL0     C56208  11.165   0.604   3.446 -0.4150 -0.0767 -0.4654
  417MOL0     C56209  11.042   0.628   3.511  0.0757  0.9143 -0.3742
  417MOL0     N56210  10.318   0.831   3.610  0.3147 -0.0490 -0.0869
  417MOL0     N56211  10.198   0.809   3.664 -0.0201  0.1626  0.2493
  417MOL0     C56212   9.189   0.755   3.542 -0.1761 -0.3738 -0.6137
  417MOL0     C56213   9.076   0.828   3.506 -0.0362  0.5911  0.2585
  417MOL0     C56214   8.684   0.966   3.309 -0.5547  0.6673 -0.1730
  417MOL0     C56215   8.590   0.862   3.331 -0.1335  0.0809 -0.9154
  417MOL0     C56216   8.459   0.870   3.289  0.0306 -0.1691 -0.2066
  417MOL0     C56217   8.416   0.976   3.218  0.1781 -0.1842 -0.3555
  417MOL0     O56218   8.286   0.971   3.176 -0.2633  0.2258 -0.5094
  417MOL0     C56219   8.223   1.089   3.119 -0.4319  0.7487 -0.3265
  417MOL0     C56220   8.073   1.047   3.109  0.2656  0.1454  0.6664
  417MOL0     C56221   7.988   1.081   3.230  0.5718  0.2277 -0.2595
  417MOL0     C56222   7.856   1.016   3.198  0.0354  0.0987  0.3351
  417MOL0     C56223   7.751   1.057   3.299 -0.1929  0.0281  0.4606
  417MOL0     C56224   7.660   1.059   3.376  0.4425 -0.5855  0.0681
  417MOL0     C56225   8.503   1.087   3.193  0.1062  0.0502 -0.0366
  417MOL0     C56226   8.644   1.081   3.241  0.8278  0.0667  0.1187
  417MOL0     C56227   8.727   1.202   3.207 -0.2758 -0.3486 -0.5049
  417MOL0     H56228   8.888   0.567   3.410 -1.3820 -0.1049  2.7845
  417MOL0     H56229   9.076   0.443   3.486 -2.3103  1.1989 -0.2916
  417MOL0     H56230   9.248   0.368   3.663  2.5167 -3.1644  1.2265
  417MOL0     H56231   9.327   0.357   3.510  4.6878  0.4399 -1.3279
  417MOL0     H56232   9.491   0.284   3.690  2.0206 -0.4367 -0.4641
  417MOL0     H56233   9.463   0.446   3.772 -1.4571  2.3324 -1.4378
  417MOL0     H56234   9.585   0.533   3.545  0.7570 -0.7322 -1.5694
  417MOL0     H56235   9.614   0.359   3.521 -1.9208 -0.9877 -1.0456
  417MOL0     H56236   9.710   0.504   3.763 -2.8417  1.6497 -2.0213
  417MOL0     H56237   9.780   0.354   3.697 -0.4701  0.0162  1.2598
  417MOL0     H56238   9.843   0.456   3.498  1.0002  1.6808 -0.9907
  417MOL0     H56239   9.792   0.619   3.532  0.8525 -0.7377 -2.4420
  417MOL0     H56240  10.000   0.447   3.699 -1.3542  0.8937  2.7843
  417MOL0     H56241  10.035   0.560   3.579 -2.1931  0.2623 -3.1955
  417MOL0     H56242   9.881   0.630   3.843  0.5369  0.9834  1.2311
  417MOL0     H56243   9.939   0.737   3.715 -1.3682 -1.1408 -1.5445
  417MOL0     H56244  10.103   0.702   3.933 -0.8525  0.6659  0.7043
  417MOL0     H56245  10.139   0.540   3.870 -3.7219 -0.9380 -0.2436
  417MOL0     H56246  10.374   0.568   3.812 -0.8351 -1.2460 -1.2364
  417MOL0     H56247  10.606   0.769   3.679 -0.2689  1.6768 -0.5665
  417MOL0     H56248  10.581   0.609   3.617 -0.1376  0.0667 -0.2522
  417MOL0     H56249  10.493   0.732   3.388  0.3184 -0.8496 -0.2426
  417MOL0     H56250  10.548   0.878   3.476  3.2159 -0.3125  0.1345
  417MOL0     H56251  10.713   0.775   3.320 -0.4132 -0.3856  0.3221
  417MOL0     H56252  10.735   0.652   3.434 -3.7381 -1.8045 -2.7537
  417MOL0     H56253  10.738   0.929   3.561  0.1929 -0.7991  2.0113
  417MOL0     H56254  10.862   0.908   3.429  0.3771  0.1136  0.4844
  417MOL0     H56255  11.068   0.966   3.518  1.6004  1.5609 -1.0331
  417MOL0     H56256  11.280   0.919   3.419  0.4596 -0.2563  0.6931
  417MOL0     H56257  11.500   0.713   3.042 -1.0977  0.1894  2.2676
  417MOL0     H56258  11.693   0.609   2.952 -3.4534 -0.0029  0.7668
  417MOL0     H56259  12.046   0.522   3.210 -1.8768  1.0166  0.9594
  417MOL0     H56260  12.124   0.507   3.061 -1.0387  0.7103 -0.6429
  417MOL0     H56261  12.140   0.726   3.006  2.9861 -1.2203  0.4679
  417MOL0     H56262  12.045   0.791   3.147 -1.6846  0.2882 -0.2609
  417MOL0     H56263  12.313   0.644   3.153  1.4856  1.5312  0.5772
  417MOL0     H56264  12.276   0.816   3.184 -1.5178  0.6124  0.3351
  417MOL0     H56265  12.149   0.609   3.364  1.4300 -1.3328  0.3879
  417MOL0     H56266  12.154   0.778   3.389 -1.2214 -0.4266 -0.4568
  417MOL0     H56267  12.411   0.762   3.395  0.0341 -0.3003  0.8765
  417MOL0     H56268  12.381   0.580   3.401  1.7951 -0.8406  3.2268
  417MOL0     H56269  12.312   0.803   3.592  3.1559  1.1188 -1.9417
  417MOL0     H56270  12.224   0.650   3.600  0.0987  0.4800 -1.0755
  417MOL0     H56271  12.522   0.678   3.650 -0.8688  1.3277 -1.3227
  417MOL0     H56272  12.408   0.522   3.634 -2.3429  0.5734 -2.3833
  417MOL0     H56273  12.365   0.750   3.837 -0.2405 -0.7190  3.8986
  417MOL0     H56274  12.304   0.586   3.821 -0.6084  0.6984 -1.4073
  417MOL0     H56275  11.907   0.653   3.319 -1.3636 -0.2905  1.5307
  417MOL0     H56276  11.708   0.728   3.421  1.9764  0.6552 -0.0330
  417MOL0     H56277  11.179   0.498   3.429 -1.9241 -0.4015  0.1340
  417MOL0     H56278  10.972   0.551   3.542 -0.0867  0.8086 -0.9898
  417MOL0     H56279   9.283   0.801   3.573  2.0444 -4.8115  0.0952
  417MOL0     H56280   9.076   0.936   3.505 -1.1492  0.6024  0.1944
  417MOL0     H56281   8.625   0.773   3.382 -0.4778  1.5710  2.1437
  417MOL0     H56282   8.405   0.779   3.315 -0.1614 -0.0526 -0.1963
  417MOL0     H56283   8.268   1.104   3.020 -2.0895  2.2274 -0.9146
  417MOL0     H56284   8.241   1.181   3.176  0.8694  0.9919 -1.1064
  417MOL0     H56285   8.065   0.942   3.079  1.3537  0.2069  0.0960
  417MOL0     H56286   8.033   1.106   3.025  1.5232  0.3401  0.1864
  417MOL0     H56287   7.975   1.188   3.248  2.3796  0.6409 -1.1725
  417MOL0     H56288   8.040   1.040   3.317  0.3439  0.0581 -0.2029
  417MOL0     H56289   7.820   1.045   3.098 -2.2526 -1.7785  0.5214
  417MOL0     H56290   7.870   0.908   3.200  2.3306  0.3685  1.6246
  417MOL0     H56291   7.591   1.059   3.458 -1.3773  0.1556 -1.4049
  417MOL0     H56292   8.469   1.170   3.132 -0.1183 -0.8991 -1.2464
  417MOL0     H56293   8.763   1.249   3.299  1.4693  1.3911 -1.9773
  417MOL0     H56294   8.807   1.173   3.138 -1.3190 -1.6198 -1.2318
  417MOL0     H56295   8.666   1.281   3.161 -0.8820 -0.1858  0.5528
  418MOL0     O56296   0.663   6.820   8.551 -0.2274 -0.3844  0.0050
  418MOL0     C56297   0.662   6.932   8.602 -0.4780  0.0596  0.2262
  418MOL0     O56298   0.765   6.991   8.671 -0.8778  0.8471  0.0001
  418MOL0     C56299   0.891   6.935   8.658  0.2068 -0.5183 -0.2192
  418MOL0     C56300   0.942   6.860   8.768  0.3295 -0.5150 -0.4206
  418MOL0     C56301   1.076   6.817   8.767 -0.2864 -0.1278  0.0086
  418MOL0     C56302   1.155   6.832   8.651  0.4108  0.1852  0.5409
  418MOL0     O56303   1.284   6.787   8.622  0.4886  0.1654 -0.1700
  418MOL0     C56304   1.362   6.748   8.737  0.3870 -0.6203 -0.4377
  418MOL0     C56305   1.517   6.734   8.728 -0.0926 -0.7136 -0.1275
  418MOL0     C56306   1.590   6.656   8.835 -0.3095 -0.1554  0.0321
  418MOL0     C56307   1.606   6.711   8.976  0.0402 -0.4821  0.6457
  418MOL0     C56308   1.650   6.611   9.084 -0.2060  0.7412 -0.4163
  418MOL0     C56309   1.779   6.533   9.056  0.7591 -0.4576  0.4149
  418MOL0     C56310   1.834   6.465   9.174 -0.4203 -0.0077  0.3634
  418MOL0     C56311   1.777   6.323   9.195 -0.3736  0.0876  0.0139
  418MOL0     N56312   1.860   6.239   9.292 -0.9877  0.3997  0.8578
  418MOL0     C56313   1.842   6.229   9.426  0.3376 -0.1882  0.2009
  418MOL0     C56314   1.925   6.135   9.467 -1.0520  0.6289  0.7460
  418MOL0     C56315   1.937   6.076   9.616 -0.0742 -0.4541  0.0104
  418MOL0     C56316   2.041   5.960   9.635 -0.7975  0.3795  0.8818
  418MOL0     C56317   2.193   6.012   9.625 -0.0399  0.0925 -0.2217
  418MOL0     C56318   2.236   6.115   9.732  0.2780  0.1126 -0.1548
  418MOL0     O56319   2.226   6.052   9.857  0.0120  0.0583 -0.6269
  418MOL0     C56320   2.334   5.988   9.910  0.2369 -0.0385  0.6607
  418MOL0     C56321   2.462   6.045   9.919 -0.0649  0.6331  0.1112
  418MOL0     C56322   2.577   5.969   9.944  0.1997 -0.0514 -0.0127
  418MOL0     C56323   2.564   5.827   9.970 -0.0203 -0.4124  0.0434
  418MOL0     C56324   2.686   5.751  10.006 -0.8932  0.8572  0.1457
  418MOL0     O56325   2.793   5.828  10.033  0.5482 -0.5108  0.3231
  418MOL0     C56326   2.920   5.783  10.063 -0.0393  0.3219  0.0529
  418MOL0     C56327   2.978   5.820  10.185 -0.3383 -0.5142  0.1794
  418MOL0     C56328   3.112   5.780  10.210  0.2484 -0.7525  0.3366
  418MOL0     C56329   3.181   5.699  10.126  0.4694 -0.6354 -0.0511
  418MOL0     O56330   3.303   5.657  10.160  0.2237  0.7069 -0.1048
  418MOL0     C56331   3.385   5.565  10.087  0.2758 -1.3110  0.7172
  418MOL0     C56332   3.520   5.579  10.151 -0.0238  0.2777  0.4571
  418MOL0     C56333   3.514   5.528  10.295  0.2083  0.3849 -0.1942
  418MOL0     C56334   3.547   5.633  10.396 -0.4312  1.2032  0.1785
  418MOL0     C56335   3.620   5.576  10.521  0.8548  0.6035  0.7001
  418MOL0     C56336   3.765   5.524  10.507 -0.0217  0.2824 -0.5155
  418MOL0     C56337   3.810   5.473  10.645 -0.8054 -0.3451  0.6361
  418MOL0     C56338   3.968   5.467  10.635  0.8686 -0.1085  0.0883
  418MOL0    Cl56339   4.026   5.361  10.512  0.4535  0.1036  0.1875
  418MOL0     C56340   3.124   5.655  10.004 -0.1152 -0.5347  0.3170
  418MOL0     C56341   2.997   5.699   9.967 -0.3924 -0.0881 -0.2692
  418MOL0     O56342   2.687   5.629   9.988 -0.2275  0.4606  0.4823
  418MOL0     C56343   2.441   5.766   9.961  0.0645  0.0645 -0.1894
  418MOL0     C56344   2.328   5.846   9.922 -0.2058 -0.0053 -0.3651
  418MOL0     N56345   1.984   6.078   9.360 -0.5366  0.6278  0.8718
  418MOL0     N56346   1.949   6.141   9.249 -0.8420 -0.0021 -0.0485
  418MOL0     C56347   1.100   6.902   8.538 -0.1441  0.7552  0.2907
  418MOL0     C56348   0.973   6.955   8.545 -0.0484  0.8632 -0.1751
  418MOL0     C56349   0.529   6.999   8.589 -0.2862  0.1749 -0.7933
  418MOL0     C56350   0.437   6.957   8.496  0.5998 -0.1355  0.1093
  418MOL0     C56351   0.313   7.015   8.485 -0.4115  0.6218  0.5686
  418MOL0     C56352   0.281   7.128   8.553 -0.1607  0.4775 -0.0509
  418MOL0     O56353   0.162   7.192   8.564 -0.5274 -0.7400 -0.1014
  418MOL0     C56354   0.058   7.150   8.475 -0.2720  0.0053  0.2370
  418MOL0     C56355  -0.061   7.243   8.512  0.2457 -0.0872  0.7872
  418MOL0     C56356  -0.181   7.219   8.425  0.1626 -1.4224 -0.3513
  418MOL0     C56357  -0.259   7.092   8.442 -0.4412 -0.5260 -0.7514
  418MOL0     C56358  -0.371   7.077   8.345  0.1166 -0.2361 -0.9396
  418MOL0     C56359  -0.476   7.060   8.286 -0.3303 -0.0961 -0.3717
  418MOL0     C56360   0.371   7.175   8.649 -0.0397  0.0150  0.2138
  418MOL0     C56361   0.496   7.113   8.667 -0.3429  0.2048  0.1678
  418MOL0     C56362   0.578   7.165   8.777  0.4203  0.0169 -0.1538
  418MOL0     H56363   0.882   6.841   8.856  1.8137  1.7951  1.2135
  418MOL0     H56364   1.103   6.753   8.850 -2.8823  0.4321  1.3790
  418MOL0     H56365   1.344   6.825   8.812 -1.9048 -1.9496  0.4810
  418MOL0     H56366   1.313   6.662   8.783 -0.8360  0.1247 -0.2986
  418MOL0     H56367   1.550   6.837   8.740  2.7167 -1.3390 -1.6459
  418MOL0     H56368   1.546   6.696   8.630  2.5343  2.3737 -0.7093
  418MOL0     H56369   1.688   6.635   8.791  0.5470  0.3420  1.6413
  418MOL0     H56370   1.535   6.562   8.828  3.3321 -2.3463 -3.1665
  418MOL0     H56371   1.682   6.789   8.978 -0.8862  0.4269  2.2072
  418MOL0     H56372   1.515   6.763   9.007 -1.0133 -2.3052  0.7555
  418MOL0     H56373   1.659   6.663   9.180 -0.5633 -1.5859  0.9840
  418MOL0     H56374   1.566   6.541   9.080  0.6534 -0.2926 -0.9275
  418MOL0     H56375   1.773   6.474   8.964 -4.9465  2.3460 -1.5071
  418MOL0     H56376   1.850   6.607   9.020 -1.0068  0.5697 -1.1091
  418MOL0     H56377   1.829   6.528   9.264 -3.6080 -0.5180  0.6585
  418MOL0     H56378   1.941   6.455   9.155 -0.3076  2.6038 -0.9345
  418MOL0     H56379   1.672   6.330   9.226 -1.6009  3.6512 -3.8512
  418MOL0     H56380   1.780   6.278   9.096  0.1675  2.2580 -1.0237
  418MOL0     H56381   1.780   6.289   9.492 -0.0668 -1.5784  1.1227
  418MOL0     H56382   1.961   6.165   9.675 -0.8376 -0.2571  0.0361
  418MOL0     H56383   1.846   6.032   9.659  0.8843 -2.6573 -0.1037
  418MOL0     H56384   2.027   5.900   9.726  0.3333  1.1237  1.5671
  418MOL0     H56385   2.012   5.888   9.558 -0.2004  0.4315  0.5986
  418MOL0     H56386   2.222   6.047   9.526  1.9460  2.9398  1.2058
  418MOL0     H56387   2.261   5.929   9.644 -0.9467 -0.6089  0.0588
  418MOL0     H56388   2.165   6.198   9.734  1.7207  1.3897 -0.3093
  418MOL0     H56389   2.336   6.152   9.708  0.9601 -1.3687  0.3127
  418MOL0     H56390   2.470   6.152   9.904 -1.4742  0.5501 -1.6086
  418MOL0     H56391   2.670   6.020   9.968 -0.2042 -0.6431  3.2623
  418MOL0     H56392   2.923   5.890  10.247 -1.7777 -0.1474 -1.4210
  418MOL0     H56393   3.150   5.797  10.310 -2.1249  0.5140  1.0817
  418MOL0     H56394   3.355   5.460  10.093  0.1537 -1.2539  1.1254
  418MOL0     H56395   3.400   5.589   9.981  1.0429 -2.0997  0.6347
  418MOL0     H56396   3.599   5.527  10.097 -0.6408 -1.9348  1.5796
  418MOL0     H56397   3.544   5.686  10.154  0.4552  0.1571  1.1992
  418MOL0     H56398   3.417   5.480  10.312  0.7733 -1.5423 -1.9246
  418MOL0     H56399   3.584   5.445  10.311  0.1663  0.5436  0.8394
  418MOL0     H56400   3.449   5.671  10.426 -0.5777  0.0550  1.2068
  418MOL0     H56401   3.610   5.709  10.347  3.0962 -1.1274  0.6800
  418MOL0     H56402   3.554   5.499  10.563 -1.0251  1.5391 -0.4069
  418MOL0     H56403   3.633   5.658  10.593  1.0761  0.5838  0.6818
  418MOL0     H56404   3.782   5.447  10.431  1.2130 -1.4602  1.4082
  418MOL0     H56405   3.820   5.612  10.471 -2.6829  0.7333 -3.9324
  418MOL0     H56406   3.772   5.374  10.669  0.0767 -1.2448 -1.4492
  418MOL0     H56407   3.788   5.548  10.722  0.3649  1.3621 -0.6110
  418MOL0     H56408   4.010   5.567  10.625  1.8880 -0.4612  0.6617
  418MOL0     H56409   4.000   5.430  10.733 -2.7030 -0.0447  1.4044
  418MOL0     H56410   3.184   5.605   9.928  0.6149  1.3478 -0.4035
  418MOL0     H56411   2.955   5.667   9.872 -1.2947 -0.2473  0.1705
  418MOL0     H56412   2.430   5.660   9.981  0.5763  0.5353  3.2847
  418MOL0     H56413   2.238   5.791   9.899  0.8860 -1.7284 -0.6690
  418MOL0     H56414   1.163   6.921   8.451 -2.4564  0.9585 -1.4485
  418MOL0     H56415   0.940   7.002   8.453  1.3320  0.8471 -0.7063
  418MOL0     H56416   0.456   6.870   8.433 -0.6815 -1.0765  0.9704
  418MOL0     H56417   0.244   6.987   8.406 -0.9955  2.8080  0.2367
  418MOL0     H56418   0.035   7.044   8.494  0.6822 -0.3118 -0.3213
  418MOL0     H56419   0.076   7.160   8.368 -2.2957  1.5954 -0.0182
  418MOL0     H56420  -0.022   7.345   8.513  1.4527 -0.5365  1.3517
  418MOL0     H56421  -0.082   7.218   8.617  2.4127 -0.3049  1.2097
  418MOL0     H56422  -0.176   7.241   8.318 -3.3656 -1.2058 -0.5920
  418MOL0     H56423  -0.248   7.298   8.461 -0.0953 -2.8715  2.6785
  418MOL0     H56424  -0.194   7.010   8.409 -1.6940 -1.4787 -0.9405
  418MOL0     H56425  -0.291   7.079   8.546  1.5343 -1.6522 -0.2360
  418MOL0     H56426  -0.569   7.041   8.237 -1.1348 -0.8203  1.3341
  418MOL0     H56427   0.340   7.260   8.709 -0.3217 -0.6603  1.0495
  418MOL0     H56428   0.683   7.182   8.752  0.7359 -0.1397  1.0256
  418MOL0     H56429   0.531   7.257   8.814 -1.7842 -1.7273  1.6299
  418MOL0     H56430   0.566   7.096   8.861 -1.1566 -1.1672 -1.2753
  419MOL0     O56431   0.417   3.982   0.090  0.0202 -0.3906  0.3904
  419MOL0     C56432   0.443   4.097   0.104  0.4181 -0.1498 -0.7509
  419MOL0     O56433   0.537   4.141   0.191  0.3571 -0.1708  0.4465
  419MOL0     C56434   0.614   4.056   0.268  0.0569  0.2237  0.0269
  419MOL0     C56435   0.688   3.961   0.195 -0.7711 -0.2599  1.0413
  419MOL0     C56436   0.772   3.866   0.254  0.2900 -0.6400  0.5832
  419MOL0     C56437   0.793   3.873   0.390  0.5310  0.1679  0.9432
  419MOL0     O56438   0.893   3.798   0.453  0.2415  0.8025  0.2451
  419MOL0     C56439   0.923   3.820   0.591 -0.3512 -0.6114  0.4210
  419MOL0     C56440   1.015   3.703   0.635  0.4337 -0.7264  0.4738
  419MOL0     C56441   1.168   3.745   0.623 -0.8559  0.8980 -0.3150
  419MOL0     C56442   1.251   3.628   0.681 -0.6880 -0.2080  0.2604
  419MOL0     C56443   1.246   3.611   0.830  0.5756  0.5590  0.5573
  419MOL0     C56444   1.356   3.506   0.864  0.0437  0.3373 -0.7705
  419MOL0     C56445   1.505   3.556   0.881 -0.0518  0.0885 -0.0423
  419MOL0     C56446   1.520   3.656   0.998  0.8306  0.0937  0.5887
  419MOL0     N56447   1.652   3.707   1.006  0.0039  0.2696  0.1329
  419MOL0     C56448   1.761   3.647   1.057  0.2687 -0.0337  0.2826
  419MOL0     C56449   1.851   3.745   1.069 -0.4987  0.1935  0.0304
  419MOL0     C56450   1.985   3.711   1.127 -0.5022 -0.4464  0.1385
  419MOL0     C56451   2.067   3.639   1.017 -0.6228  0.4353 -0.4810
  419MOL0     C56452   2.210   3.612   1.067 -0.0547 -0.6873 -0.5744
  419MOL0     C56453   2.309   3.570   0.959 -0.2058 -0.2022  0.5549
  419MOL0     O56454   2.410   3.506   1.042  0.5847  0.1442 -0.1958
  419MOL0     C56455   2.534   3.468   0.994  1.2558 -0.6373  0.1862
  419MOL0     C56456   2.614   3.388   1.076  0.5515 -0.8813  0.8916
  419MOL0     C56457   2.749   3.348   1.039  0.3698  0.4431  0.0769
  419MOL0     C56458   2.786   3.382   0.907 -0.2044  0.1129  0.1234
  419MOL0     C56459   2.926   3.340   0.858  0.0215 -0.1176  0.1506
  419MOL0     O56460   2.960   3.408   0.739 -0.0902 -0.5550 -0.8634
  419MOL0     C56461   3.087   3.396   0.682 -0.0131 -0.7738  0.2281
  419MOL0     C56462   3.088   3.439   0.551 -1.0413 -0.6903 -0.6564
  419MOL0     C56463   3.213   3.435   0.482 -0.0940 -0.1389  0.3117
  419MOL0     C56464   3.335   3.390   0.550  1.1803  0.4922 -0.1081
  419MOL0     O56465   3.460   3.384   0.492 -0.2519  0.7460  0.0117
  419MOL0     C56466   3.472   3.452   0.366 -0.2604 -0.5727 -0.1767
  419MOL0     C56467   3.601   3.424   0.295 -0.6988  0.0926 -0.4094
  419MOL0     C56468   3.718   3.487   0.372 -0.2088  0.2522  0.6014
  419MOL0     C56469   3.856   3.493   0.303  0.0519 -0.0854 -0.1821
  419MOL0     C56470   3.922   3.354   0.290 -1.0365 -0.9971  0.2528
  419MOL0     C56471   4.047   3.384   0.198 -0.5483 -0.0308  0.0106
  419MOL0     C56472   4.124   3.251   0.170  0.2647 -0.5453  0.5139
  419MOL0     C56473   4.269   3.282   0.143  0.7237 -0.5202  0.6860
  419MOL0    Cl56474   4.279   3.392   0.005 -0.1035  0.6101 -0.3972
  419MOL0     C56475   3.328   3.363   0.680  0.3572 -0.0654 -0.3868
  419MOL0     C56476   3.206   3.368   0.751 -1.3062  0.2883 -0.5981
  419MOL0     O56477   2.998   3.262   0.913  0.3162  0.0901  0.0879
  419MOL0     C56478   2.704   3.461   0.825 -0.9110 -0.1198 -0.1022
  419MOL0     C56479   2.582   3.502   0.872  0.1209 -0.4478  0.4225
  419MOL0     N56480   1.803   3.864   1.022 -0.0006  0.3195 -0.6494
  419MOL0     N56481   1.691   3.836   0.980  0.9596 -0.2072  0.5578
  419MOL0     C56482   0.718   3.967   0.465 -0.4971 -0.6943  0.2146
  419MOL0     C56483   0.631   4.065   0.403 -0.1486 -0.4650  0.0150
  419MOL0     C56484   0.379   4.196   0.016 -0.1456 -0.0406 -0.0739
  419MOL0     C56485   0.439   4.321  -0.002 -0.0300  0.3229 -0.1420
  419MOL0     C56486   0.373   4.421  -0.070 -0.5951 -0.2475 -0.4034
  419MOL0     C56487   0.256   4.395  -0.146  0.0310  0.3446 -0.5845
  419MOL0     O56488   0.192   4.491  -0.218 -0.0497  0.8469 -0.0403
  419MOL0     C56489   0.197   4.627  -0.174  0.1416 -0.6912 -0.1763
  419MOL0     C56490   0.106   4.712  -0.261  0.2662 -0.3554 -0.3028
  419MOL0     C56491   0.136   4.860  -0.243  0.2716 -0.5827 -0.5636
  419MOL0     C56492   0.216   4.915  -0.360 -0.3003  0.3727 -0.7574
  419MOL0     C56493   0.207   5.060  -0.347 -0.0941 -0.5298 -0.0940
  419MOL0     C56494   0.198   5.180  -0.337  0.1042 -0.3535  0.1846
  419MOL0     C56495   0.202   4.267  -0.135 -0.2117 -0.3289 -0.2592
  419MOL0     C56496   0.260   4.168  -0.049 -0.0666  0.3065  0.6773
  419MOL0     C56497   0.180   4.034  -0.048  0.1101 -0.3820  0.4229
  419MOL0     H56498   0.669   3.962   0.089 -2.1072  0.9316  1.2543
  419MOL0     H56499   0.828   3.803   0.185 -2.5607  0.7506 -3.3662
  419MOL0     H56500   0.968   3.918   0.607  0.2749 -0.4764 -1.8330
  419MOL0     H56501   0.831   3.812   0.650 -0.0132  1.7807  1.3983
  419MOL0     H56502   1.007   3.614   0.573  0.4646 -2.2535  2.5777
  419MOL0     H56503   0.991   3.676   0.738  2.7043  1.9528  1.8455
  419MOL0     H56504   1.195   3.827   0.690  1.1995 -0.4069  0.5581
  419MOL0     H56505   1.197   3.768   0.520  2.5114 -1.5086 -0.0469
  419MOL0     H56506   1.216   3.535   0.635  0.2010  0.3147 -1.5964
  419MOL0     H56507   1.352   3.652   0.645 -1.0023  1.3250  0.3289
  419MOL0     H56508   1.260   3.708   0.879 -0.6247  0.9621  0.1404
  419MOL0     H56509   1.148   3.568   0.852  1.9023 -2.4501  1.0731
  419MOL0     H56510   1.335   3.468   0.964  0.2392  1.1292 -0.4225
  419MOL0     H56511   1.363   3.427   0.789  0.2805  0.0350 -0.4323
  419MOL0     H56512   1.526   3.602   0.785  1.7422  0.6867  0.6094
  419MOL0     H56513   1.564   3.465   0.895 -0.5683 -0.4275 -1.0955
  419MOL0     H56514   1.459   3.744   0.975 -0.5945 -0.4797  1.9824
  419MOL0     H56515   1.496   3.603   1.091  0.2343 -2.0148 -0.6862
  419MOL0     H56516   1.776   3.544   1.087  0.1269  0.1657  1.0544
  419MOL0     H56517   2.035   3.808   1.140 -0.9102  0.5492 -4.0941
  419MOL0     H56518   1.969   3.650   1.216 -2.8897  1.0981  0.8786
  419MOL0     H56519   2.019   3.544   0.991  1.7294 -0.9859  0.0743
  419MOL0     H56520   2.076   3.697   0.925 -3.1265  0.2397 -0.9269
  419MOL0     H56521   2.194   3.532   1.140  0.3096  0.0811  0.3689
  419MOL0     H56522   2.245   3.707   1.109  0.5142 -0.9820 -0.3675
  419MOL0     H56523   2.338   3.658   0.900 -3.6436  0.9972  0.4304
  419MOL0     H56524   2.258   3.497   0.896  0.0599  0.2014 -0.1440
  419MOL0     H56525   2.577   3.384   1.178 -3.3889 -1.0696 -0.3615
  419MOL0     H56526   2.810   3.283   1.101  0.3838 -0.2018 -0.5982
  419MOL0     H56527   2.999   3.483   0.506  0.0767  1.5314 -0.8489
  419MOL0     H56528   3.213   3.463   0.377 -1.5083 -0.0818  0.3086
  419MOL0     H56529   3.402   3.407   0.295  0.4416 -0.1236 -1.1778
  419MOL0     H56530   3.464   3.560   0.383 -0.6341 -0.8954  1.9528
  419MOL0     H56531   3.612   3.316   0.296 -0.7727  0.0862 -0.0541
  419MOL0     H56532   3.604   3.474   0.198 -1.2480  0.6858 -0.1313
  419MOL0     H56533   3.693   3.590   0.396 -2.3667 -0.2778  0.7868
  419MOL0     H56534   3.738   3.439   0.468 -1.4167 -0.0325  0.7205
  419MOL0     H56535   3.930   3.558   0.351  2.6780 -2.2424 -1.0434
  419MOL0     H56536   3.837   3.534   0.203  0.1538 -3.0702 -1.5128
  419MOL0     H56537   3.853   3.277   0.254 -0.3110 -2.0185  1.0144
  419MOL0     H56538   3.946   3.325   0.392 -1.2789  1.0444  0.9495
  419MOL0     H56539   4.014   3.427   0.103  0.0623  1.6154  0.5093
  419MOL0     H56540   4.108   3.452   0.259 -1.6109 -1.5770  2.9818
  419MOL0     H56541   4.069   3.194   0.095 -1.2780 -1.4331  2.2561
  419MOL0     H56542   4.114   3.173   0.246 -1.9413 -0.8501 -0.0392
  419MOL0     H56543   4.317   3.332   0.228  2.0781 -0.7310  0.0613
  419MOL0     H56544   4.328   3.196   0.111  3.0787  0.2343  2.7134
  419MOL0     H56545   3.416   3.344   0.741  1.5456  0.7389 -1.7646
  419MOL0     H56546   3.202   3.349   0.858  1.7499  0.3163 -0.3929
  419MOL0     H56547   2.743   3.494   0.729 -0.9511  1.5024  0.3978
  419MOL0     H56548   2.527   3.565   0.802  0.4840 -2.7660 -2.1462
  419MOL0     H56549   0.748   3.984   0.568 -0.3963 -1.0456  0.2469
  419MOL0     H56550   0.578   4.147   0.449 -0.1281 -1.2154  1.4134
  419MOL0     H56551   0.535   4.343   0.044 -0.1162  0.4583 -0.0243
  419MOL0     H56552   0.424   4.515  -0.055  0.9633 -1.2305  0.7168
  419MOL0     H56553   0.300   4.664  -0.178 -0.6155  1.5940 -0.1184
  419MOL0     H56554   0.153   4.650  -0.076 -0.7403  4.5229 -1.5068
  419MOL0     H56555   0.003   4.693  -0.231 -0.3281  2.1370 -0.5441
  419MOL0     H56556   0.126   4.692  -0.367 -0.7129  0.8435 -0.7385
  419MOL0     H56557   0.198   4.882  -0.156  2.0969  0.5876 -2.0620
  419MOL0     H56558   0.039   4.910  -0.239 -0.2562 -1.6799  2.5388
  419MOL0     H56559   0.321   4.887  -0.350  0.2603  0.6501 -4.4687
  419MOL0     H56560   0.183   4.866  -0.452 -0.9036 -0.9166  0.1269
  419MOL0     H56561   0.192   5.286  -0.332 -0.2741 -0.4397  3.9769
  419MOL0     H56562   0.109   4.246  -0.186  0.2010 -0.2602 -1.0685
  419MOL0     H56563   0.099   4.042  -0.121 -0.8550 -2.6677  1.1475
  419MOL0     H56564   0.239   3.951  -0.089  1.1017 -0.3860  1.7971
  419MOL0     H56565   0.137   4.016   0.051  2.5608  1.1649  1.8664
  420MOL0     O56566   9.284   7.102   2.497  0.5886 -0.8109  0.2583
  420MOL0     C56567   9.231   6.997   2.483  0.0972  0.4396 -0.1352
  420MOL0     O56568   9.293   6.890   2.427  0.2522 -0.4251 -0.2277
  420MOL0     C56569   9.426   6.906   2.397 -0.1362  0.9778  0.2989
  420MOL0     C56570   9.517   6.806   2.446 -0.0375 -0.2151  0.8105
  420MOL0     C56571   9.651   6.814   2.402  0.2558 -0.2971 -0.7444
  420MOL0     C56572   9.698   6.916   2.322 -0.6051 -1.1053 -0.2419
  420MOL0     O56573   9.831   6.939   2.283 -0.5397  0.5750 -0.2248
  420MOL0     C56574   9.933   6.854   2.348  0.7106  0.1251  0.6507
  420MOL0     C56575  10.062   6.888   2.277  0.1509  0.4003  1.0079
  420MOL0     C56576  10.177   6.800   2.323  0.2511 -1.0343  0.9517
  420MOL0     C56577  10.163   6.658   2.275 -0.2367 -1.0665 -0.5299
  420MOL0     C56578  10.297   6.593   2.301  0.5944  0.8260  0.6124
  420MOL0     C56579  10.294   6.443   2.257  0.5249  0.9134 -0.5327
  420MOL0     C56580  10.363   6.330   2.334 -0.1547  0.1186  0.1768
  420MOL0     C56581  10.519   6.359   2.347  0.1989  0.5385  0.4436
  420MOL0     N56582  10.596   6.250   2.417  0.4927 -0.6235 -0.6437
  420MOL0     C56583  10.574   6.213   2.542  0.0143  0.5085 -1.4349
  420MOL0     C56584  10.655   6.105   2.568 -0.1893 -0.1271  0.1627
  420MOL0     C56585  10.664   6.022   2.693  0.8294  0.2379 -0.4128
  420MOL0     C56586  10.805   6.039   2.761  0.3817 -0.5651  0.1218
  420MOL0     C56587  10.819   6.171   2.846 -0.1037  0.1892  0.4131
  420MOL0     C56588  10.963   6.206   2.876 -0.5805  0.3051  0.6373
  420MOL0     O56589  10.963   6.326   2.965  0.7625  0.8375 -0.1942
  420MOL0     C56590  11.063   6.363   3.052 -0.2068  0.4876  0.0279
  420MOL0     C56591  11.028   6.464   3.143 -1.1385 -0.4552 -0.0565
  420MOL0     C56592  11.129   6.515   3.232  0.5928  0.1332 -0.1448
  420MOL0     C56593  11.259   6.459   3.230  0.8159  0.3202 -0.7842
  420MOL0     C56594  11.361   6.495   3.325  0.2041  0.0543 -0.1801
  420MOL0     O56595  11.470   6.412   3.331 -0.4464 -0.3530 -0.2022
  420MOL0     C56596  11.576   6.442   3.411 -0.4288  0.1383 -0.1425
  420MOL0     C56597  11.656   6.556   3.376 -0.3056  0.7150  0.4044
  420MOL0     C56598  11.745   6.608   3.471 -0.3045  0.6979  0.0608
  420MOL0     C56599  11.772   6.541   3.591  0.3285 -1.3088  1.5481
  420MOL0     O56600  11.867   6.601   3.665 -0.5867 -0.0382  0.2191
  420MOL0     C56601  11.947   6.509   3.745  0.5124 -0.0217  0.9089
  420MOL0     C56602  12.080   6.578   3.793  0.2767 -0.0703 -0.1309
  420MOL0     C56603  12.053   6.650   3.923  0.4958 -0.2242  0.2016
  420MOL0     C56604  12.150   6.759   3.950  0.7754 -0.2204  0.3716
  420MOL0     C56605  12.127   6.847   4.073 -0.4030  0.4204 -0.3542
  420MOL0     C56606  12.018   6.949   4.036  0.5415 -0.3083  0.4011
  420MOL0     C56607  12.025   7.055   4.146  0.1233 -0.6324 -0.5994
  420MOL0     C56608  11.943   7.175   4.107  0.6976  0.3558  0.2258
  420MOL0    Cl56609  11.768   7.118   4.125 -0.1882  0.2531  0.2244
  420MOL0     C56610  11.701   6.422   3.618  0.0755 -0.3052  0.2164
  420MOL0     C56611  11.601   6.382   3.535  0.3732  0.2053  0.5757
  420MOL0     O56612  11.345   6.606   3.381  1.0834  0.0350 -0.0279
  420MOL0     C56613  11.283   6.364   3.133  0.3803  0.4446 -0.9720
  420MOL0     C56614  11.191   6.307   3.048  1.0476  0.3587 -0.7800
  420MOL0     N56615  10.715   6.067   2.445 -0.1174 -0.6390  0.7751
  420MOL0     N56616  10.669   6.154   2.354  0.0360  1.2023 -0.6182
  420MOL0     C56617   9.611   7.005   2.274 -0.2744 -0.0650 -0.3604
  420MOL0     C56618   9.474   7.006   2.316  0.6574  0.5043 -0.1529
  420MOL0     C56619   9.086   6.980   2.512 -0.8321 -0.4272 -0.6776
  420MOL0     C56620   9.005   7.091   2.503  0.6452  0.2160 -0.5187
  420MOL0     C56621   8.864   7.082   2.535  0.1651 -0.6224 -1.1237
  420MOL0     C56622   8.810   6.967   2.566  0.6674  0.2465 -0.2490
  420MOL0     O56623   8.675   6.971   2.588  0.4742 -0.3941  0.1956
  420MOL0     C56624   8.612   6.861   2.659  0.0658 -0.3799  0.4728
  420MOL0     C56625   8.464   6.896   2.686  0.3130 -0.4420  1.1393
  420MOL0     C56626   8.429   7.035   2.739  0.1307  0.2451 -1.1098
  420MOL0     C56627   8.284   7.061   2.757  0.0961  0.1905  0.1575
  420MOL0     C56628   8.226   6.995   2.876  0.1457  0.7580  0.0980
  420MOL0     C56629   8.156   6.936   2.957 -0.7514  0.5753 -0.0877
  420MOL0     C56630   8.893   6.854   2.568  0.4429  0.6405  0.0327
  420MOL0     C56631   9.030   6.857   2.545 -0.7397 -0.0171 -0.4041
  420MOL0     C56632   9.098   6.739   2.604 -0.5561  0.8385  0.3360
  420MOL0     H56633   9.505   6.720   2.511 -0.1861  0.0844  1.1847
  420MOL0     H56634   9.724   6.739   2.430  0.8557  1.2239  2.0555
  420MOL0     H56635   9.930   6.882   2.454  0.7631 -1.3399  1.0554
  420MOL0     H56636   9.907   6.748   2.348 -0.7698  0.4585  1.2844
  420MOL0     H56637  10.089   6.994   2.281  1.5374  0.3220 -2.4089
  420MOL0     H56638  10.046   6.865   2.171 -1.8638 -0.0353  1.3677
  420MOL0     H56639  10.188   6.790   2.432  1.5460 -0.5673  0.8782
  420MOL0     H56640  10.262   6.856   2.284 -1.1504 -1.1470 -2.5552
  420MOL0     H56641  10.081   6.609   2.329  0.5558 -2.0328 -0.1774
  420MOL0     H56642  10.138   6.652   2.169 -0.6301 -1.2479 -0.4270
  420MOL0     H56643  10.368   6.643   2.235 -1.4983  1.3555 -1.3740
  420MOL0     H56644  10.330   6.594   2.405  0.9994 -1.1284  0.5357
  420MOL0     H56645  10.194   6.407   2.284  2.2268 -2.1293  2.5421
  420MOL0     H56646  10.308   6.430   2.149 -0.8102 -1.1571 -0.5189
  420MOL0     H56647  10.342   6.232   2.290  2.5099  0.1994 -1.5077
  420MOL0     H56648  10.327   6.321   2.437  1.5450  0.0162  0.7955
  420MOL0     H56649  10.548   6.372   2.242  1.8616  2.9346  1.1094
  420MOL0     H56650  10.528   6.455   2.400  0.7543  0.3076  0.7773
  420MOL0     H56651  10.508   6.261   2.614 -1.1449 -0.6394 -1.6833
  420MOL0     H56652  10.576   6.044   2.755 -1.0212 -1.9158 -2.1182
  420MOL0     H56653  10.660   5.918   2.661 -0.6347  0.3311 -0.5759
  420MOL0     H56654  10.833   5.957   2.827  0.3283  0.6306  1.7097
  420MOL0     H56655  10.883   6.037   2.685  0.1317  0.8168 -0.2059
  420MOL0     H56656  10.772   6.155   2.943 -0.8237  1.5598  0.3141
  420MOL0     H56657  10.775   6.256   2.793  1.1312  0.6792  0.1257
  420MOL0     H56658  11.025   6.226   2.788  0.4481 -2.7596  0.5664
  420MOL0     H56659  10.998   6.123   2.937 -1.7951  0.2743  1.3438
  420MOL0     H56660  10.926   6.501   3.146 -0.3264  2.0065 -0.2068
  420MOL0     H56661  11.102   6.602   3.292 -2.3132  0.4530 -1.7215
  420MOL0     H56662  11.628   6.609   3.285 -1.9427  0.9387  1.0049
  420MOL0     H56663  11.798   6.701   3.454  1.5750  0.2830  2.9387
  420MOL0     H56664  11.880   6.467   3.821 -1.8804 -2.0898 -2.1162
  420MOL0     H56665  11.976   6.426   3.681 -1.5216  0.2477 -0.4510
  420MOL0     H56666  12.161   6.508   3.816 -0.1662 -0.1793  1.1947
  420MOL0     H56667  12.114   6.641   3.711 -1.7904 -1.0977 -1.8552
  420MOL0     H56668  11.951   6.690   3.922  1.4710  2.4771  0.3208
  420MOL0     H56669  12.072   6.584   4.008 -0.9726  2.1041  2.4788
  420MOL0     H56670  12.159   6.825   3.863 -1.9663  1.0294  0.9271
  420MOL0     H56671  12.252   6.720   3.960  1.9587  2.0971 -1.4632
  420MOL0     H56672  12.222   6.896   4.097 -0.9473  2.3608 -1.9496
  420MOL0     H56673  12.093   6.783   4.155 -1.1509 -1.1216 -1.8047
  420MOL0     H56674  12.036   6.997   3.940 -0.0378 -1.8349 -0.5070
  420MOL0     H56675  11.924   6.895   4.026  0.7316 -1.1040  2.4023
  420MOL0     H56676  12.126   7.096   4.143  0.2614 -1.0181 -2.7505
  420MOL0     H56677  12.003   7.012   4.244 -0.6331  0.8675 -0.0957
  420MOL0     H56678  11.966   7.255   4.177  1.3271  0.1966  0.2053
  420MOL0     H56679  11.949   7.204   4.001  0.3702 -0.1329  0.0683
  420MOL0     H56680  11.722   6.373   3.712  2.4328 -0.1932 -0.1838
  420MOL0     H56681  11.535   6.302   3.569  0.5388 -0.8271 -1.3539
  420MOL0     H56682  11.383   6.322   3.123 -0.3841 -2.6902  2.4113
  420MOL0     H56683  11.216   6.223   2.983  1.9584  0.9939 -1.2723
  420MOL0     H56684   9.654   7.091   2.223 -0.4385  0.2351 -0.0010
  420MOL0     H56685   9.413   7.085   2.273 -0.6093 -0.0351  0.6195
  420MOL0     H56686   9.056   7.183   2.474  0.6532 -0.0643 -1.4352
  420MOL0     H56687   8.804   7.173   2.537  0.5072 -0.3475 -2.7211
  420MOL0     H56688   8.662   6.842   2.755 -2.0265 -5.5560  0.8341
  420MOL0     H56689   8.617   6.764   2.609 -1.9845 -0.3742  0.1938
  420MOL0     H56690   8.415   6.820   2.748  2.6895  1.5399  5.9643
  420MOL0     H56691   8.410   6.892   2.591 -0.0100 -0.3331  1.3180
  420MOL0     H56692   8.472   7.118   2.683 -2.0427  0.8320 -2.0091
  420MOL0     H56693   8.485   7.035   2.833  3.6171  0.4571 -3.0307
  420MOL0     H56694   8.274   7.170   2.765 -0.0098  0.3006 -1.2614
  420MOL0     H56695   8.234   7.026   2.667  0.9863 -1.9531  0.4308
  420MOL0     H56696   8.086   6.904   3.032 -0.7389 -3.3754 -1.5577
  420MOL0     H56697   8.848   6.757   2.587  2.5606 -0.1553  1.2854
  420MOL0     H56698   9.090   6.648   2.545 -0.5110  1.2477 -0.3088
  420MOL0     H56699   9.206   6.753   2.611 -0.4640  0.3687 -0.0818
  420MOL0     H56700   9.063   6.710   2.704  0.7593 -3.8693 -0.3385
  421MOL0     O56701   1.168  11.005   5.271  0.0378 -0.2240 -0.2943
  421MOL0     C56702   1.049  11.049   5.272 -0.0348 -0.9213 -0.7020
  421MOL0     O56703   1.017  11.160   5.214  0.5876 -0.1981  0.1045
  421MOL0     C56704   1.121  11.249   5.179 -0.1020  0.0413 -0.1952
  421MOL0     C56705   1.204  11.237   5.067 -0.7533 -0.0486 -0.0615
  421MOL0     C56706   1.310  11.327   5.050  0.0751  0.1016  1.0000
  421MOL0     C56707   1.346  11.423   5.149  0.1755  0.3164 -0.2622
  421MOL0     O56708   1.440  11.522   5.134  0.8885  0.6796 -0.2473
  421MOL0     C56709   1.577  11.486   5.111 -0.2326  0.4203  0.4677
  421MOL0     C56710   1.621  11.523   4.969  0.9734  0.0521 -0.0721
  421MOL0     C56711   1.772  11.480   4.965  1.0058  0.6962 -0.5154
  421MOL0     C56712   1.828  11.522   4.838 -0.3600  0.1250  0.2176
  421MOL0     C56713   1.976  11.494   4.847  0.0318 -0.3286  0.1924
  421MOL0     C56714   2.064  11.596   4.910  0.1147 -0.0674 -0.1951
  421MOL0     C56715   2.208  11.552   4.922 -0.4753  0.3945 -1.1842
  421MOL0     C56716   2.283  11.595   4.797  0.1641 -0.8237  0.5797
  421MOL0     N56717   2.426  11.576   4.802 -0.0448  0.4016 -0.3549
  421MOL0     C56718   2.505  11.611   4.909 -0.1056  1.0943  0.1328
  421MOL0     C56719   2.631  11.617   4.860  0.5984  0.3472 -0.1277
  421MOL0     C56720   2.765  11.645   4.930  0.5176 -0.7873 -0.8550
  421MOL0     C56721   2.875  11.561   4.865  0.1310 -0.2220  0.8773
  421MOL0     C56722   3.002  11.549   4.951 -0.6820  0.4522 -0.5110
  421MOL0     C56723   3.109  11.476   4.876 -0.0573  0.4807  0.5700
  421MOL0     O56724   3.227  11.452   4.953  0.2989  0.1083 -0.3886
  421MOL0     C56725   3.354  11.434   4.903  0.3243 -0.0865 -0.8390
  421MOL0     C56726   3.390  11.459   4.773  0.4790 -0.4825  0.4699
  421MOL0     C56727   3.523  11.462   4.729  0.4653 -0.3961  0.6006
  421MOL0     C56728   3.619  11.450   4.823 -0.3343 -0.3285  0.4298
  421MOL0     C56729   3.761  11.433   4.779  0.3874  0.4909  0.8384
  421MOL0     O56730   3.838  11.491   4.873 -0.6801  0.1276  0.1844
  421MOL0     C56731   3.969  11.502   4.843 -0.7682 -0.1521  0.4753
  421MOL0     C56732   4.068  11.442   4.927  0.3530 -0.1688 -0.2040
  421MOL0     C56733   4.205  11.460   4.899 -0.5318  0.3688 -0.0938
  421MOL0     C56734   4.249  11.523   4.791  0.1154  0.3260  0.0601
  421MOL0     O56735   4.379  11.553   4.743  0.0645 -0.1532 -0.0446
  421MOL0     C56736   4.502  11.536   4.824  0.0295  0.9728 -0.3198
  421MOL0     C56737   4.512  11.631   4.940 -0.9671  0.2343 -0.1701
  421MOL0     C56738   4.451  11.772   4.915 -0.1238  0.7672 -0.0436
  421MOL0     C56739   4.527  11.843   4.804 -0.3002  0.2359 -0.3060
  421MOL0     C56740   4.486  11.988   4.796  0.1817 -0.3325  0.0788
  421MOL0     C56741   4.564  12.053   4.675  0.6202 -0.4222  0.4481
  421MOL0     C56742   4.495  12.177   4.622  1.1582  0.2418 -0.2221
  421MOL0     C56743   4.389  12.135   4.515  0.0312 -0.5100 -0.1890
  421MOL0    Cl56744   4.263  12.254   4.519  0.3627 -0.4174 -0.1149
  421MOL0     C56745   4.150  11.579   4.710 -0.2875  0.3420 -0.2621
  421MOL0     C56746   4.010  11.579   4.735 -1.1356 -0.7505  0.3714
  421MOL0     O56747   3.801  11.382   4.670  0.7964 -0.2096 -0.4163
  421MOL0     C56748   3.589  11.411   4.953  0.3952 -0.4798  0.3462
  421MOL0     C56749   3.457  11.410   4.997  0.1921 -0.0859  0.4726
  421MOL0     N56750   2.633  11.582   4.725  1.3208 -0.2734  0.0222
  421MOL0     N56751   2.508  11.555   4.695  0.5897 -0.0112  0.0202
  421MOL0     C56752   1.261  11.434   5.262  0.3058  0.0906 -0.4055
  421MOL0     C56753   1.150  11.349   5.272 -0.2001  0.7006  0.4911
  421MOL0     C56754   0.943  10.974   5.339  0.6018  0.6051  0.5007
  421MOL0     C56755   0.810  11.016   5.325  0.7940 -0.4120  0.1197
  421MOL0     C56756   0.704  10.942   5.382 -0.8798  0.6550 -0.1297
  421MOL0     C56757   0.727  10.817   5.458  0.1106  0.2904  0.5528
  421MOL0     O56758   0.623  10.749   5.515  0.1895  0.0852  0.9709
  421MOL0     C56759   0.639  10.633   5.597 -0.2979 -0.6342 -0.1000
  421MOL0     C56760   0.675  10.503   5.521  0.2806 -0.1096 -0.5281
  421MOL0     C56761   0.553  10.469   5.428  0.8914  0.5654 -0.0015
  421MOL0     C56762   0.416  10.467   5.495 -0.3075 -0.8182  0.3671
  421MOL0     C56763   0.401  10.366   5.596 -0.6046 -0.0443  0.9155
  421MOL0     C56764   0.375  10.285   5.680 -0.1601 -0.2456  0.4809
  421MOL0     C56765   0.864  10.785   5.474  1.1604  0.2085 -0.4032
  421MOL0     C56766   0.970  10.855   5.418 -0.0513 -0.6043 -0.4668
  421MOL0     C56767   1.115  10.812   5.442 -0.0319  0.2123  0.7431
  421MOL0     H56768   1.183  11.163   4.991 -0.2293 -1.0123  0.7101
  421MOL0     H56769   1.379  11.339   4.966 -0.0407  2.6914  1.1822
  421MOL0     H56770   1.639  11.535   5.187 -1.2401  1.8579  0.3986
  421MOL0     H56771   1.596  11.379   5.119  0.8236  0.6987  2.3594
  421MOL0     H56772   1.604  11.630   4.954 -1.5423 -0.1239  1.1153
  421MOL0     H56773   1.560  11.468   4.897  0.1824  2.7128 -1.5958
  421MOL0     H56774   1.779  11.373   4.984  0.1468  0.5819 -0.7664
  421MOL0     H56775   1.819  11.532   5.049  0.1621  0.0724  0.3724
  421MOL0     H56776   1.779  11.462   4.761  0.8759 -1.3081  0.4929
  421MOL0     H56777   1.811  11.629   4.829  0.9717  0.4389  1.0336
  421MOL0     H56778   1.997  11.400   4.899  3.2421  0.2999  0.2414
  421MOL0     H56779   2.002  11.485   4.741 -1.7603 -1.7232 -0.1901
  421MOL0     H56780   2.055  11.691   4.858  0.2482 -0.4399 -0.9072
  421MOL0     H56781   2.029  11.598   5.014 -0.4125 -0.1624 -0.3674
  421MOL0     H56782   2.219  11.444   4.935  2.4839  0.4113 -2.7028
  421MOL0     H56783   2.249  11.600   5.012 -1.7038  0.9468 -0.8947
  421MOL0     H56784   2.233  11.540   4.717  2.5603 -0.4320 -1.2720
  421MOL0     H56785   2.263  11.700   4.774 -0.1538 -0.9683  0.1847
  421MOL0     H56786   2.475  11.632   5.011  0.0124 -0.0726  0.4239
  421MOL0     H56787   2.795  11.749   4.915  0.6939 -0.5556  0.8580
  421MOL0     H56788   2.759  11.612   5.034 -0.0499 -1.8160 -1.2016
  421MOL0     H56789   2.826  11.464   4.852 -0.3260  0.1066  0.0456
  421MOL0     H56790   2.895  11.592   4.762  2.3161  0.1510  1.3585
  421MOL0     H56791   2.968  11.496   5.041  0.6273  0.1244 -0.1953
  421MOL0     H56792   3.028  11.651   4.979  0.1678  0.6082 -1.8071
  421MOL0     H56793   3.135  11.518   4.778  0.2557 -1.0629 -0.0355
  421MOL0     H56794   3.063  11.380   4.850  1.2110 -0.3840  1.4340
  421MOL0     H56795   3.321  11.482   4.693  0.7541 -0.3804  0.2572
  421MOL0     H56796   3.555  11.467   4.626  3.2161 -2.0019  1.2600
  421MOL0     H56797   4.030  11.415   5.025 -0.1966  2.1797  0.3031
  421MOL0     H56798   4.276  11.416   4.968 -1.5734 -1.7067 -0.2425
  421MOL0     H56799   4.517  11.433   4.855 -3.7306  0.1631 -0.7078
  421MOL0     H56800   4.581  11.570   4.756  3.8216 -1.8658  2.2573
  421MOL0     H56801   4.473  11.596   5.036  1.5322  1.0525  1.2219
  421MOL0     H56802   4.617  11.652   4.963 -0.1567 -2.8795 -0.5806
  421MOL0     H56803   4.349  11.760   4.877 -0.1196  1.4897 -0.2913
  421MOL0     H56804   4.440  11.837   5.002 -2.0546  0.7239 -0.2133
  421MOL0     H56805   4.514  11.788   4.710 -0.8192  0.7162 -0.5217
  421MOL0     H56806   4.631  11.848   4.836 -0.4033 -0.3520  0.1406
  421MOL0     H56807   4.503  12.040   4.891  0.3623 -1.6204  0.7705
  421MOL0     H56808   4.383  11.993   4.758  0.6362  0.0366 -1.1523
  421MOL0     H56809   4.659  12.079   4.722 -0.3421  0.4091  1.9908
  421MOL0     H56810   4.583  11.985   4.592  2.1159  2.7107 -1.9989
  421MOL0     H56811   4.556  12.250   4.568  1.4719  1.6249  1.8610
  421MOL0     H56812   4.446  12.227   4.707 -1.6291  0.5517 -1.8771
  421MOL0     H56813   4.428  12.150   4.414  0.7557  2.2422  0.4148
  421MOL0     H56814   4.338  12.040   4.534 -0.6696  0.2041  1.7850
  421MOL0     H56815   4.188  11.624   4.619 -0.7405 -0.6587 -0.9646
  421MOL0     H56816   3.934  11.640   4.688 -0.2919 -1.5117 -2.1605
  421MOL0     H56817   3.660  11.391   5.033 -1.6908 -0.4486  2.2950
  421MOL0     H56818   3.426  11.387   5.099 -1.0134  1.0998  0.4077
  421MOL0     H56819   1.275  11.502   5.346 -1.6848  2.7226 -2.0247
  421MOL0     H56820   1.088  11.368   5.360 -2.0306 -0.3597 -0.5092
  421MOL0     H56821   0.776  11.104   5.271  1.6961 -0.8563 -1.2244
  421MOL0     H56822   0.598  10.966   5.380 -1.1376 -0.4766 -0.3512
  421MOL0     H56823   0.544  10.624   5.651 -0.2504  1.2308  0.3281
  421MOL0     H56824   0.713  10.646   5.676 -1.5772 -2.5072  1.5266
  421MOL0     H56825   0.679  10.421   5.593  1.2988 -0.8579 -1.4010
  421MOL0     H56826   0.772  10.507   5.471  0.1989  1.4800 -0.5958
  421MOL0     H56827   0.581  10.378   5.374 -1.2365  1.4316 -2.7719
  421MOL0     H56828   0.546  10.553   5.358 -1.6230  0.5344  0.1510
  421MOL0     H56829   0.392  10.569   5.528 -2.9932 -2.2905  3.5982
  421MOL0     H56830   0.342  10.431   5.423 -3.0356  1.2066  1.9388
  421MOL0     H56831   0.359  10.205   5.749  0.2776 -0.1470  0.6996
  421MOL0     H56832   0.900  10.701   5.533  1.0053  1.1171  1.0055
  421MOL0     H56833   1.126  10.721   5.501 -0.5182 -1.0356 -1.0354
  421MOL0     H56834   1.151  10.783   5.343  2.1353 -0.5944  1.7133
  421MOL0     H56835   1.178  10.891   5.484  0.8568 -0.4731  0.7178
  422MOL0     O56836   6.110  10.126   9.109 -0.2557  0.2231 -0.6350
  422MOL0     C56837   6.070  10.045   9.028  0.8821  0.3483  1.1347
  422MOL0     O56838   6.147   9.980   8.933 -0.5446  0.4056 -0.2116
  422MOL0     C56839   6.291   9.978   8.935  0.3643  0.5030 -0.4138
  422MOL0     C56840   6.370   9.968   9.052 -1.5384 -0.1536 -0.4650
  422MOL0     C56841   6.509   9.962   9.040 -0.7356  1.0677  0.3709
  422MOL0     C56842   6.572   9.944   8.912  0.1222  0.7045 -0.4927
  422MOL0     O56843   6.709   9.928   8.898 -0.8549  0.4276  0.1543
  422MOL0     C56844   6.763   9.994   8.783 -0.1094 -0.0391  0.3917
  422MOL0     C56845   6.910  10.027   8.802 -0.7530 -1.1089  0.1940
  422MOL0     C56846   6.934  10.175   8.847  0.0453  1.2864  0.0006
  422MOL0     C56847   7.081  10.217   8.882 -0.2030  0.3892  0.4172
  422MOL0     C56848   7.182  10.189   8.767 -0.2290  0.2263 -0.2189
  422MOL0     C56849   7.314  10.254   8.806  0.2115  0.1475  0.0102
  422MOL0     C56850   7.423  10.223   8.696 -0.2316 -0.1986 -0.4862
  422MOL0     C56851   7.569  10.228   8.747 -0.4251  0.3284  0.8310
  422MOL0     N56852   7.674  10.266   8.653 -0.1531 -0.4493  0.5423
  422MOL0     C56853   7.677  10.255   8.519 -0.5545 -0.4701  0.0331
  422MOL0     C56854   7.803  10.305   8.488 -0.9472  0.3950 -0.2745
  422MOL0     C56855   7.848  10.322   8.341  0.1258  0.2061 -0.0479
  422MOL0     C56856   7.988  10.256   8.325  0.5524 -0.2771  0.0346
  422MOL0     C56857   8.020  10.240   8.174 -0.6230 -0.5063  0.8093
  422MOL0     C56858   8.154  10.156   8.157 -0.3136  0.1764  0.1597
  422MOL0     O56859   8.163  10.136   8.017  0.0996  0.0584 -0.1787
  422MOL0     C56860   8.275  10.064   7.979 -0.6754  0.6973  0.7419
  422MOL0     C56861   8.294  10.065   7.838 -0.4145 -0.1736  0.6482
  422MOL0     C56862   8.408  10.001   7.782  0.4015 -0.4260 -0.1860
  422MOL0     C56863   8.507   9.963   7.870  0.0821  0.1302  0.1607
  422MOL0     C56864   8.629   9.895   7.822  0.4684  0.6373  1.1134
  422MOL0     O56865   8.630   9.880   7.686 -0.2067 -0.2769 -0.0441
  422MOL0     C56866   8.732   9.811   7.625 -0.5313 -0.2157 -0.4292
  422MOL0     C56867   8.764   9.682   7.677  0.3983 -0.5961  0.9392
  422MOL0     C56868   8.881   9.616   7.642 -0.6217  0.2706  0.1985
  422MOL0     C56869   8.973   9.676   7.553 -0.4683  0.2244  0.0564
  422MOL0     O56870   9.086   9.619   7.516 -0.0008  0.3338  0.4780
  422MOL0     C56871   9.153   9.520   7.602  0.0980 -0.0101 -0.3622
  422MOL0     C56872   9.290   9.474   7.544 -0.2186 -0.4632  0.2687
  422MOL0     C56873   9.409   9.559   7.586 -0.0293  0.5252 -0.8278
  422MOL0     C56874   9.541   9.472   7.577 -0.0601  0.0649 -0.0895
  422MOL0     C56875   9.655   9.563   7.634  0.0173  0.3106 -0.5581
  422MOL0     C56876   9.789   9.508   7.623  0.0140  0.3490 -1.5865
  422MOL0     C56877   9.795   9.372   7.716 -0.8165  0.0023  0.7616
  422MOL0     C56878   9.943   9.342   7.755 -0.5203  0.5013  0.4540
  422MOL0    Cl56879   9.945   9.205   7.876  0.0805 -0.2967 -0.0605
  422MOL0     C56880   8.924   9.795   7.485 -0.0900  0.5340 -0.8398
  422MOL0     C56881   8.806   9.864   7.523 -0.5831  0.3878  0.2806
  422MOL0     O56882   8.722   9.875   7.895 -0.6575  0.1792 -0.0990
  422MOL0     C56883   8.479   9.965   8.009 -0.4910  0.7442  0.2382
  422MOL0     C56884   8.366  10.005   8.064  0.4159 -0.1705  0.2430
  422MOL0     N56885   7.873  10.331   8.599  0.0512  0.0090 -0.9385
  422MOL0     N56886   7.795  10.304   8.697  0.4192 -0.4903 -0.2728
  422MOL0     C56887   6.492   9.938   8.802 -0.2240  0.1527 -0.5719
  422MOL0     C56888   6.353   9.957   8.811 -0.4512 -0.5879 -0.4070
  422MOL0     C56889   5.923  10.015   9.021 -0.8936  0.1819  0.2956
  422MOL0     C56890   5.877   9.964   8.902  0.4451 -0.1970  0.7491
  422MOL0     C56891   5.736   9.944   8.889  0.5597  0.8547 -0.1766
  422MOL0     C56892   5.642   9.965   8.988  0.7034 -0.8118  0.1198
  422MOL0     O56893   5.502   9.922   8.968 -0.7183 -0.0907  0.3101
  422MOL0     C56894   5.410  10.009   9.027 -0.2868 -0.3059 -0.6555
  422MOL0     C56895   5.283   9.984   8.950  0.4096 -0.4849 -0.2520
  422MOL0     C56896   5.167  10.022   9.049  0.7713 -0.3159  0.2416
  422MOL0     C56897   5.031   9.999   8.981 -0.6933 -0.1315 -0.2953
  422MOL0     C56898   5.022   9.863   8.932  0.2030  0.2912 -0.0694
  422MOL0     C56899   5.002   9.746   8.902 -0.0652 -0.7196  0.2011
  422MOL0     C56900   5.690  10.014   9.115  0.2359  0.0446  0.5925
  422MOL0     C56901   5.829  10.039   9.131  0.0571  0.0011  0.4160
  422MOL0     C56902   5.884  10.077   9.266  0.6847  0.2161 -0.1801
  422MOL0     H56903   6.328   9.974   9.152  1.1409  2.7372  0.6608
  422MOL0     H56904   6.575   9.965   9.126  1.0493 -1.4672 -0.7905
  422MOL0     H56905   6.759   9.926   8.698  0.9439  0.4798 -0.0878
  422MOL0     H56906   6.711  10.083   8.747  3.1171  1.9266  0.1994
  422MOL0     H56907   6.961  10.011   8.706 -1.3297  0.2170 -0.3609
  422MOL0     H56908   6.940   9.962   8.884 -3.1148 -0.7626  1.4227
  422MOL0     H56909   6.876  10.188   8.938  0.3931 -0.0433  0.4365
  422MOL0     H56910   6.887  10.240   8.772  0.1806  0.3503 -0.9215
  422MOL0     H56911   7.095  10.322   8.909  1.0907  0.9337 -1.9851
  422MOL0     H56912   7.106  10.167   8.975 -2.5357  1.1861  1.5437
  422MOL0     H56913   7.198  10.083   8.747 -0.0657 -0.0406  1.2341
  422MOL0     H56914   7.146  10.238   8.676 -1.5327  0.1477  0.2193
  422MOL0     H56915   7.296  10.362   8.812 -1.6512 -0.2188  3.2326
  422MOL0     H56916   7.347  10.223   8.905  1.2021  0.1486 -0.3052
  422MOL0     H56917   7.404  10.303   8.625  0.3718  1.6649  1.3391
  422MOL0     H56918   7.405  10.131   8.640 -0.5916  0.6204 -1.7394
  422MOL0     H56919   7.581  10.286   8.839  0.1412 -1.1340  1.7188
  422MOL0     H56920   7.588  10.124   8.778  1.2677  0.2025 -0.4577
  422MOL0     H56921   7.597  10.230   8.450 -0.9945  1.9919 -0.4176
  422MOL0     H56922   7.773  10.279   8.274 -3.3638 -0.3743  3.8287
  422MOL0     H56923   7.848  10.431   8.326  1.5536  0.7242  2.9264
  422MOL0     H56924   8.060  10.322   8.375  0.2035  2.6191 -2.9222
  422MOL0     H56925   7.982  10.157   8.370 -1.8630 -0.3782 -0.4253
  422MOL0     H56926   8.019  10.338   8.126 -1.8688 -0.4960  0.8440
  422MOL0     H56927   7.939  10.180   8.132 -1.8576 -0.1296  2.5245
  422MOL0     H56928   8.143  10.062   8.211  2.6080 -0.4865 -0.2299
  422MOL0     H56929   8.241  10.206   8.202 -2.2284  4.4428 -0.3577
  422MOL0     H56930   8.226  10.118   7.772 -2.6812 -2.3677  1.0664
  422MOL0     H56931   8.403  10.002   7.674  0.0441  1.2113 -0.1838
  422MOL0     H56932   8.709   9.628   7.753  2.6834 -1.7655  1.8591
  422MOL0     H56933   8.901   9.520   7.690  0.4339  2.0150  3.6387
  422MOL0     H56934   9.164   9.566   7.701  0.8564 -0.4212 -0.2529
  422MOL0     H56935   9.092   9.432   7.622  0.7706 -0.7331 -1.4402
  422MOL0     H56936   9.306   9.378   7.593 -0.4340  0.2752  1.8844
  422MOL0     H56937   9.293   9.470   7.435  3.1823  2.0191  0.0939
  422MOL0     H56938   9.418   9.650   7.526 -1.2396  2.9097  2.3618
  422MOL0     H56939   9.403   9.589   7.691  0.4464 -2.5700  0.2022
  422MOL0     H56940   9.567   9.437   7.477  2.9512  0.7679  0.3604
  422MOL0     H56941   9.525   9.380   7.635 -0.5070 -2.3488 -3.7156
  422MOL0     H56942   9.621   9.586   7.736  2.5172 -0.2178  0.4807
  422MOL0     H56943   9.659   9.658   7.580  2.8472  0.2048 -0.7161
  422MOL0     H56944   9.808   9.479   7.520 -0.3152 -0.5477 -1.4073
  422MOL0     H56945   9.859   9.578   7.670 -0.6063 -0.3944  0.5566
  422MOL0     H56946   9.761   9.280   7.667 -3.2701  0.6951  1.0691
  422MOL0     H56947   9.736   9.379   7.807 -4.2183  0.4702 -1.3153
  422MOL0     H56948  10.001   9.313   7.667 -2.1595  0.9880 -0.8381
  422MOL0     H56949   9.996   9.432   7.789 -0.7981  1.1397 -0.7347
  422MOL0     H56950   8.992   9.844   7.416  0.2553  1.8410  0.3791
  422MOL0     H56951   8.785   9.962   7.480  3.4891  0.6542 -1.5595
  422MOL0     H56952   8.556   9.928   8.076 -0.4167  0.3363 -0.0683
  422MOL0     H56953   8.361  10.006   8.173  0.0019  1.3017  0.2317
  422MOL0     H56954   6.534   9.905   8.707  0.2490 -1.3053  0.1246
  422MOL0     H56955   6.302   9.971   8.717 -0.0126 -0.3413 -0.6115
  422MOL0     H56956   5.934   9.935   8.814 -1.2439  1.8041 -1.1054
  422MOL0     H56957   5.686   9.908   8.800  0.4103 -0.3694  0.3736
  422MOL0     H56958   5.445  10.112   9.023  3.2388 -1.3948 -2.0143
  422MOL0     H56959   5.396   9.979   9.132 -1.5011  2.6446  0.1217
  422MOL0     H56960   5.275   9.878   8.926 -0.2126 -0.3184 -0.8254
  422MOL0     H56961   5.284  10.044   8.858 -2.4949  0.1761  0.0410
  422MOL0     H56962   5.175  10.126   9.082 -2.9150 -0.9812  4.1507
  422MOL0     H56963   5.168   9.971   9.145 -1.3848  2.3799  1.8688
  422MOL0     H56964   4.945  10.011   9.046 -2.8214 -1.5267 -2.6724
  422MOL0     H56965   5.037  10.069   8.897  1.7812  0.6429  0.4250
  422MOL0     H56966   5.000   9.640   8.890  1.0109 -0.8308  0.9166
  422MOL0     H56967   5.623  10.015   9.201  0.1897 -0.7423  0.5752
  422MOL0     H56968   5.897  10.186   9.275 -1.7362  0.4700  1.2352
  422MOL0     H56969   5.800  10.053   9.332  1.1746  0.5356  0.5645
  422MOL0     H56970   5.968  10.014   9.295  0.4826 -0.5081 -1.1137
  423MOL0     O56971   7.057   4.091   2.860 -0.3422  0.3242 -0.1361
  423MOL0     C56972   7.051   4.028   2.747 -0.0506  0.1877 -0.5210
  423MOL0     O56973   7.155   3.977   2.669  0.7316  0.6310 -0.5464
  423MOL0     C56974   7.285   3.960   2.707 -0.6243 -0.2480  1.1655
  423MOL0     C56975   7.364   3.877   2.630 -0.3622 -0.4980  0.6974
  423MOL0     C56976   7.497   3.850   2.661 -0.5026  0.3740  0.3556
  423MOL0     C56977   7.559   3.915   2.773 -0.4511 -0.2069  0.3873
  423MOL0     O56978   7.692   3.893   2.818  0.9731  0.3714  0.3032
  423MOL0     C56979   7.790   3.851   2.721 -0.5926  0.5758  0.6245
  423MOL0     C56980   7.914   3.812   2.801 -0.1804 -0.0539  0.2142
  423MOL0     C56981   7.963   3.925   2.895 -0.2531  0.2285  1.0174
  423MOL0     C56982   8.081   3.896   2.978 -0.4008  0.0066  0.0159
  423MOL0     C56983   8.129   4.026   3.054  0.2981  0.0112  0.0599
  423MOL0     C56984   8.275   4.064   3.042  0.3874  0.4101 -0.0039
  423MOL0     C56985   8.359   3.948   3.098  0.3731 -0.0956 -0.7265
  423MOL0     C56986   8.503   3.994   3.119 -1.0630 -0.1881  0.2646
  423MOL0     N56987   8.554   4.046   2.993 -0.4303 -0.8117  0.4269
  423MOL0     C56988   8.612   4.166   2.964  0.3900  0.2795 -1.0822
  423MOL0     C56989   8.646   4.165   2.833 -0.0364 -0.0147 -0.2203
  423MOL0     C56990   8.703   4.277   2.760 -0.5368  0.6554  0.4625
  423MOL0     C56991   8.819   4.362   2.835 -0.1396  1.1634  0.0166
  423MOL0     C56992   8.870   4.480   2.735  0.1972  0.0866 -0.5708
  423MOL0     C56993   8.978   4.563   2.811  0.7091 -0.4842 -0.5714
  423MOL0     O56994   9.071   4.635   2.726 -0.1098  0.2570 -0.4580
  423MOL0     C56995   9.190   4.675   2.787  0.6293 -0.5615  0.9113
  423MOL0     C56996   9.202   4.730   2.914 -0.1046 -0.2138 -0.8112
  423MOL0     C56997   9.331   4.772   2.957 -0.4544 -0.6626  0.4539
  423MOL0     C56998   9.446   4.755   2.873  0.5065 -0.2028  0.3099
  423MOL0     C56999   9.584   4.784   2.910  0.1950  0.3690  0.3211
  423MOL0     O57000   9.599   4.781   3.042  0.1142  0.4087 -1.1777
  423MOL0     C57001   9.724   4.810   3.087 -0.0562 -0.0658  0.8387
  423MOL0     C57002   9.804   4.699   3.112  0.1251  0.1343 -1.0341
  423MOL0     C57003   9.930   4.715   3.166 -0.7976  0.6182  0.0155
  423MOL0     C57004   9.967   4.840   3.207 -0.5503  0.0505  0.2228
  423MOL0     O57005  10.095   4.865   3.260  0.5923  0.7794 -0.5001
  423MOL0     C57006  10.203   4.813   3.178 -0.5877 -0.4654  1.4778
  423MOL0     C57007  10.344   4.864   3.226  0.3180 -0.4120  0.4635
  423MOL0     C57008  10.454   4.832   3.121  0.9430  0.1421 -0.4110
  423MOL0     C57009  10.590   4.889   3.173  0.5830  0.3329  0.4980
  423MOL0     C57010  10.704   4.870   3.067  0.3070 -0.1234 -0.7074
  423MOL0     C57011  10.677   4.963   2.947 -0.7234  1.2109 -0.4453
  423MOL0     C57012  10.798   4.958   2.856  0.5402  0.2745  0.5830
  423MOL0     C57013  10.840   4.827   2.793  0.0423 -0.6821  0.0348
  423MOL0    Cl57014  10.740   4.788   2.654  0.0230  0.1825  0.2630
  423MOL0     C57015   9.886   4.950   3.197  0.0962  0.4450  0.3570
  423MOL0     C57016   9.761   4.934   3.133  0.2564  1.0860  0.4194
  423MOL0     O57017   9.672   4.815   2.828 -0.3035 -0.4305  0.6292
  423MOL0     C57018   9.427   4.698   2.744  0.2525 -0.0694 -0.8524
  423MOL0     C57019   9.305   4.663   2.704 -0.6252  0.6764  0.1679
  423MOL0     N57020   8.613   4.041   2.791 -0.3169 -0.0771  0.7313
  423MOL0     N57021   8.571   3.970   2.884  0.0949  0.8067 -0.5233
  423MOL0     C57022   7.480   4.002   2.848  0.0951 -0.1363 -0.9466
  423MOL0     C57023   7.344   4.018   2.822 -0.1660  0.3872 -0.2324
  423MOL0     C57024   6.914   4.015   2.697  0.4776 -0.5856 -0.2826
  423MOL0     C57025   6.807   4.004   2.792 -1.1711  0.4508 -0.3241
  423MOL0     C57026   6.676   3.987   2.756  0.4739 -0.2465  0.1374
  423MOL0     C57027   6.645   3.989   2.623 -0.1547  0.0951  0.2090
  423MOL0     O57028   6.519   3.965   2.583 -0.1844 -0.5270  0.1642
  423MOL0     C57029   6.431   3.894   2.671 -0.1369 -0.1374  0.4150
  423MOL0     C57030   6.298   3.867   2.602 -0.0919  0.3996  0.1669
  423MOL0     C57031   6.218   3.999   2.579 -1.2586  0.4438  0.4462
  423MOL0     C57032   6.102   3.958   2.484  0.3999 -0.2734 -0.0794
  423MOL0     C57033   6.000   3.880   2.559 -0.4612 -0.4759 -0.0402
  423MOL0     C57034   5.933   3.826   2.637 -0.3665  0.2490 -0.8158
  423MOL0     C57035   6.738   4.016   2.529 -0.7051 -1.2478  0.7082
  423MOL0     C57036   6.876   4.025   2.566 -0.0160 -0.0402 -0.4171
  423MOL0     C57037   6.974   4.036   2.453 -0.4924 -1.1298  0.2785
  423MOL0     H57038   7.324   3.830   2.541 -0.6419  1.8656 -0.5059
  423MOL0     H57039   7.565   3.780   2.613  0.3482 -0.2549  2.3691
  423MOL0     H57040   7.759   3.759   2.670  2.1252 -0.6166  0.9633
  423MOL0     H57041   7.813   3.931   2.650  1.1637  0.9717  1.5904
  423MOL0     H57042   7.981   3.781   2.720  0.7153 -0.1461  0.9649
  423MOL0     H57043   7.904   3.719   2.859 -1.2025  0.3171  0.6433
  423MOL0     H57044   7.881   3.963   2.957 -1.2644  0.8370 -0.6154
  423MOL0     H57045   7.988   4.003   2.822  0.5345 -0.2592  0.7522
  423MOL0     H57046   8.059   3.820   3.053  1.6123 -0.8646 -0.2158
  423MOL0     H57047   8.157   3.856   2.911 -1.1927 -2.6703  0.6016
  423MOL0     H57048   8.082   4.120   3.022  0.5903 -0.2143 -1.0728
  423MOL0     H57049   8.103   4.005   3.158  2.5343  0.9058  0.8603
  423MOL0     H57050   8.289   4.083   2.935  0.8999  1.0220  0.1647
  423MOL0     H57051   8.287   4.160   3.094 -0.1367  1.0170 -0.9685
  423MOL0     H57052   8.357   3.872   3.020  0.5831  1.7701 -2.6464
  423MOL0     H57053   8.323   3.925   3.199  4.2427  1.0393  1.0779
  423MOL0     H57054   8.514   4.075   3.192  1.8432 -1.7137  1.6449
  423MOL0     H57055   8.567   3.911   3.148  2.1339  1.0655 -2.6151
  423MOL0     H57056   8.624   4.248   3.034  3.8061  0.8894 -2.1830
  423MOL0     H57057   8.757   4.244   2.670  0.4683  1.2710  0.8134
  423MOL0     H57058   8.619   4.344   2.737 -2.1743  0.0508  4.0705
  423MOL0     H57059   8.768   4.401   2.923  1.3557  3.3727 -0.0043
  423MOL0     H57060   8.900   4.294   2.862  0.8797  2.2387 -0.2125
  423MOL0     H57061   8.789   4.550   2.715 -0.8701 -1.1344 -0.5893
  423MOL0     H57062   8.918   4.444   2.644  1.8620  0.0295  0.2828
  423MOL0     H57063   9.047   4.497   2.865  1.5303 -0.0947 -1.1355
  423MOL0     H57064   8.925   4.634   2.876  1.4257  1.9720 -2.5500
  423MOL0     H57065   9.120   4.729   2.984  1.2654 -2.9507  0.9207
  423MOL0     H57066   9.323   4.821   3.053 -1.1887 -6.1392  3.6186
  423MOL0     H57067   9.779   4.596   3.091  5.3361 -1.3530 -1.2189
  423MOL0     H57068   9.995   4.629   3.184  2.1398  2.5497 -0.6174
  423MOL0     H57069  10.187   4.705   3.185  0.9288 -1.0146 -1.5964
  423MOL0     H57070  10.197   4.844   3.073 -0.3271  1.5507  2.0160
  423MOL0     H57071  10.333   4.973   3.230 -4.4804 -0.5189 -2.0966
  423MOL0     H57072  10.369   4.829   3.327  1.9620  2.4220  1.1498
  423MOL0     H57073  10.457   4.724   3.105 -0.8559 -0.2006  1.2041
  423MOL0     H57074  10.432   4.873   3.022 -1.2956  1.0832  0.4001
  423MOL0     H57075  10.615   4.836   3.266  1.7280 -2.2858 -1.1955
  423MOL0     H57076  10.571   4.995   3.192  0.4624  0.5681 -0.8359
  423MOL0     H57077  10.716   4.763   3.050 -1.9985 -0.7149  0.9125
  423MOL0     H57078  10.792   4.904   3.122 -0.1581  1.0453 -0.6510
  423MOL0     H57079  10.588   4.935   2.890 -0.1914  0.3985 -0.9100
  423MOL0     H57080  10.658   5.062   2.987 -3.6242  1.2245 -1.6373
  423MOL0     H57081  10.885   5.001   2.905 -0.5315  1.6172  1.3991
  423MOL0     H57082  10.779   5.027   2.773  2.8408  1.0270  0.6296
  423MOL0     H57083  10.941   4.837   2.753 -0.2719  0.4058 -0.5225
  423MOL0     H57084  10.834   4.752   2.873  0.6595 -0.6543  0.1129
  423MOL0     H57085   9.925   5.048   3.224  1.1791 -0.1082  0.8818
  423MOL0     H57086   9.703   5.025   3.118  1.8370  2.0517 -0.0519
  423MOL0     H57087   9.513   4.681   2.680  1.9309  1.1700  0.9681
  423MOL0     H57088   9.280   4.606   2.615 -1.0166  0.3011  0.5117
  423MOL0     H57089   7.520   4.046   2.938  3.0121 -1.2506 -1.5943
  423MOL0     H57090   7.287   4.090   2.881  0.4562  0.3070  0.4782
  423MOL0     H57091   6.826   4.010   2.899 -1.1134 -0.0187 -0.3045
  423MOL0     H57092   6.605   3.966   2.835  0.4978 -1.9837 -0.2558
  423MOL0     H57093   6.405   3.958   2.756  2.2103  0.1701  0.9691
  423MOL0     H57094   6.473   3.796   2.694 -1.3683 -1.2167 -1.5927
  423MOL0     H57095   6.234   3.808   2.668  0.8686 -0.1677  0.6292
  423MOL0     H57096   6.308   3.808   2.510 -2.2984 -0.9407  0.7111
  423MOL0     H57097   6.278   4.080   2.535 -1.4879  2.1996  3.1475
  423MOL0     H57098   6.179   4.041   2.672 -0.0033  2.7327  0.0326
  423MOL0     H57099   6.045   4.050   2.463  1.5010  0.3918 -0.2693
  423MOL0     H57100   6.137   3.922   2.386  0.8013  2.7721 -1.1822
  423MOL0     H57101   5.864   3.774   2.701 -1.3509  0.2758 -1.8287
  423MOL0     H57102   6.718   4.026   2.423 -1.5665  1.3857  1.0671
  423MOL0     H57103   6.997   3.937   2.411  0.8073  0.2023 -2.4634
  423MOL0     H57104   6.932   4.096   2.371  2.3946 -0.2855 -0.7071
  423MOL0     H57105   7.063   4.093   2.481 -1.7610  1.1773 -0.0894
  424MOL0     O57106   2.596  10.165   4.409  0.8699  0.0713 -0.0671
  424MOL0     C57107   2.530  10.224   4.497 -0.7565  0.0456 -0.0639
  424MOL0     O57108   2.571  10.250   4.626 -0.4002 -0.0531 -0.3659
  424MOL0     C57109   2.702  10.233   4.652  0.2001  0.2023  0.5180
  424MOL0     C57110   2.807  10.290   4.571  0.9010 -0.1607 -0.4513
  424MOL0     C57111   2.933  10.251   4.596 -0.1809 -1.2947 -0.1572
  424MOL0     C57112   2.973  10.166   4.706 -0.3963  0.0079  0.2147
  424MOL0     O57113   3.101  10.123   4.733  0.7916 -0.1472 -0.3350
  424MOL0     C57114   3.202  10.165   4.643  0.4157 -0.7138  0.0715
  424MOL0     C57115   3.330  10.113   4.688 -0.2699  0.6286 -0.9927
  424MOL0     C57116   3.441  10.212   4.648  0.1689  0.5041 -0.0925
  424MOL0     C57117   3.575  10.151   4.666  0.0185  0.4879  0.1782
  424MOL0     C57118   3.620  10.037   4.573  0.2608 -0.6969 -0.1144
  424MOL0     C57119   3.741   9.978   4.638 -0.2066  0.2675 -0.3317
  424MOL0     C57120   3.859  10.069   4.675  0.0399 -0.4733  0.1175
  424MOL0     C57121   3.904  10.154   4.553 -0.1710 -0.0755 -0.7253
  424MOL0     N57122   4.027  10.217   4.589 -0.8455  0.8908  0.2030
  424MOL0     C57123   4.055  10.343   4.609  0.0362 -0.6670 -0.1643
  424MOL0     C57124   4.184  10.362   4.590 -0.5566  0.3486  0.2031
  424MOL0     C57125   4.253  10.500   4.576  0.1986  0.0530 -0.3137
  424MOL0     C57126   4.404  10.481   4.578  0.2650 -0.0356 -0.4418
  424MOL0     C57127   4.482  10.616   4.578  0.1964  0.1163 -0.3456
  424MOL0     C57128   4.629  10.592   4.574  0.8483 -0.4630  0.1828
  424MOL0     O57129   4.687  10.726   4.560 -0.2321 -0.4046 -0.8641
  424MOL0     C57130   4.823  10.724   4.532 -0.1075  0.8015 -0.5824
  424MOL0     C57131   4.913  10.705   4.635  0.4453  0.6425  0.7543
  424MOL0     C57132   5.046  10.729   4.616 -0.2501  0.0888 -0.1683
  424MOL0     C57133   5.102  10.756   4.487  0.2680 -0.0414  0.1284
  424MOL0     C57134   5.249  10.761   4.462 -0.1111  0.1243  0.2416
  424MOL0     O57135   5.340  10.747   4.570 -0.0782  0.0068 -0.0382
  424MOL0     C57136   5.483  10.748   4.566 -0.8180 -0.3558 -0.1489
  424MOL0     C57137   5.559  10.752   4.450  0.3115 -0.3030 -0.5107
  424MOL0     C57138   5.699  10.743   4.456  0.7810 -0.3779 -0.5336
  424MOL0     C57139   5.762  10.742   4.582  0.7222 -0.1704  0.6740
  424MOL0     O57140   5.904  10.738   4.574  0.0433 -0.3725  0.5696
  424MOL0     C57141   5.970  10.752   4.699 -0.7083  0.0914 -0.4197
  424MOL0     C57142   6.114  10.769   4.661 -0.3879  0.6328  0.0777
  424MOL0     C57143   6.203  10.847   4.758  0.3052 -0.2989 -0.4050
  424MOL0     C57144   6.348  10.847   4.717  0.0026  0.5027 -0.5896
  424MOL0     C57145   6.442  10.929   4.808  0.8417 -0.5612 -0.9328
  424MOL0     C57146   6.587  10.911   4.780  0.7864  0.2754 -0.5564
  424MOL0     C57147   6.691  10.986   4.865 -0.2993 -0.5101  0.0522
  424MOL0     C57148   6.796  11.037   4.765 -0.1455 -0.4045 -0.5521
  424MOL0    Cl57149   6.914  11.140   4.848 -0.5169 -0.0863 -0.6067
  424MOL0     C57150   5.680  10.728   4.703 -0.0716  0.5926  1.1947
  424MOL0     C57151   5.545  10.724   4.691  0.5343 -0.7933  0.7521
  424MOL0     O57152   5.287  10.777   4.347 -0.5783 -0.4495  0.6573
  424MOL0     C57153   5.006  10.758   4.386  0.1632 -0.5681 -0.0946
  424MOL0     C57154   4.870  10.749   4.407 -0.6372 -0.0624 -0.9541
  424MOL0     N57155   4.240  10.235   4.557  0.3380 -0.5257  0.1807
  424MOL0     N57156   4.143  10.148   4.553 -0.2878 -0.2709  0.1673
  424MOL0     C57157   2.866  10.118   4.788  0.3817 -0.4431  0.3592
  424MOL0     C57158   2.735  10.149   4.756  0.3496  0.0236  0.2519
  424MOL0     C57159   2.391  10.263   4.465 -0.7736  0.3841  0.0101
  424MOL0     C57160   2.301  10.263   4.575 -0.7285 -0.7100  0.4796
  424MOL0     C57161   2.164  10.296   4.549 -0.1245  0.4544  0.4765
  424MOL0     C57162   2.115  10.318   4.418 -0.9726 -0.4829 -1.0195
  424MOL0     O57163   1.984  10.329   4.405  0.8168 -0.1733 -0.6141
  424MOL0     C57164   1.915  10.368   4.291  0.0219  0.1152 -0.1838
  424MOL0     C57165   1.891  10.260   4.188  0.0241  0.5949 -0.9587
  424MOL0     C57166   1.805  10.299   4.066 -0.4855  0.3157 -0.9483
  424MOL0     C57167   1.673  10.375   4.096  0.0682  0.0515  0.0071
  424MOL0     C57168   1.703  10.518   4.103  0.2410  0.2506 -0.5335
  424MOL0     C57169   1.732  10.636   4.110  0.3515 -1.0352  0.6740
  424MOL0     C57170   2.212  10.322   4.317  0.0333 -1.1746  0.0098
  424MOL0     C57171   2.349  10.294   4.334 -0.5628 -0.0834  0.0311
  424MOL0     C57172   2.439  10.303   4.210 -0.4077 -0.4763 -0.0531
  424MOL0     H57173   2.784  10.354   4.487  1.3053 -0.8725 -1.1180
  424MOL0     H57174   2.998  10.276   4.513 -0.2196  0.7280  0.3666
  424MOL0     H57175   3.181  10.152   4.536  1.5091  1.9063 -0.5481
  424MOL0     H57176   3.213  10.274   4.654  0.3234 -0.7505  0.5202
  424MOL0     H57177   3.355  10.012   4.655 -1.5464 -0.5987  1.5055
  424MOL0     H57178   3.320  10.115   4.797 -1.5116  0.5313 -1.0929
  424MOL0     H57179   3.424  10.303   4.705 -3.8781 -0.8250  1.2084
  424MOL0     H57180   3.430  10.242   4.543  0.2547 -0.2336 -0.3188
  424MOL0     H57181   3.645  10.235   4.662 -0.9738  1.2983 -0.5567
  424MOL0     H57182   3.575  10.117   4.770 -2.0304  0.1486  0.1142
  424MOL0     H57183   3.540   9.963   4.561 -0.9650  0.4099  0.8506
  424MOL0     H57184   3.634  10.087   4.477 -0.4113  2.0244  1.1166
  424MOL0     H57185   3.723   9.919   4.728  1.1784  2.9990  1.9230
  424MOL0     H57186   3.780   9.899   4.573 -2.4557 -1.5964  0.4694
  424MOL0     H57187   3.941  10.010   4.718 -0.6137 -0.3167  1.6457
  424MOL0     H57188   3.834  10.145   4.750 -0.0344 -0.9260  0.5582
  424MOL0     H57189   3.926  10.085   4.471 -2.5936  1.2257 -2.6056
  424MOL0     H57190   3.829  10.224   4.515 -0.4275 -0.5396 -1.0820
  424MOL0     H57191   3.981  10.422   4.622 -0.3688 -1.1968  0.9083
  424MOL0     H57192   4.213  10.537   4.481  0.4997  0.7397 -0.1720
  424MOL0     H57193   4.215  10.569   4.651 -0.2720 -0.9239  0.3727
  424MOL0     H57194   4.442  10.421   4.662  0.8093 -0.2714 -0.8513
  424MOL0     H57195   4.429  10.425   4.488 -2.2627 -1.3397 -0.4435
  424MOL0     H57196   4.450  10.676   4.663 -1.0196 -0.3421 -0.4438
  424MOL0     H57197   4.446  10.660   4.484 -1.3865 -2.5501 -1.1417
  424MOL0     H57198   4.658  10.531   4.487 -2.3815 -2.9113  0.6370
  424MOL0     H57199   4.673  10.543   4.661  2.5676  1.2853  0.3811
  424MOL0     H57200   4.865  10.679   4.729  1.0486 -0.4219  0.7774
  424MOL0     H57201   5.113  10.709   4.699  0.4426 -0.1879 -0.7764
  424MOL0     H57202   5.526  10.759   4.347  1.3393  1.7098 -0.7471
  424MOL0     H57203   5.758  10.739   4.366 -0.6801 -1.8819 -1.4997
  424MOL0     H57204   5.940  10.840   4.757  1.6587 -0.2070  1.4017
  424MOL0     H57205   5.964  10.660   4.757  3.4217 -0.3289 -0.3937
  424MOL0     H57206   6.164  10.674   4.642  0.5716  1.5401 -2.4516
  424MOL0     H57207   6.114  10.830   4.570  0.3749 -1.6742 -1.5544
  424MOL0     H57208   6.172  10.952   4.764  1.6712  0.5729 -4.6650
  424MOL0     H57209   6.190  10.793   4.852 -2.7761  1.1847  0.1520
  424MOL0     H57210   6.363  10.895   4.620 -0.8134  0.6985 -0.6271
  424MOL0     H57211   6.386  10.745   4.710 -1.1645  0.0425 -0.3655
  424MOL0     H57212   6.421  10.896   4.910  0.2628  2.0791 -0.1198
  424MOL0     H57213   6.413  11.035   4.804  3.6007  0.3257 -0.0097
  424MOL0     H57214   6.618  10.807   4.785  1.9198  0.6213  0.0796
  424MOL0     H57215   6.599  10.934   4.674  0.0274  1.1962 -0.4642
  424MOL0     H57216   6.734  10.925   4.945  2.9299  0.2541 -0.9476
  424MOL0     H57217   6.642  11.067   4.919 -1.3636 -1.4214  0.5059
  424MOL0     H57218   6.857  10.958   4.721 -1.2453 -1.2716 -0.5648
  424MOL0     H57219   6.741  11.097   4.692 -1.1709  2.2129  2.1656
  424MOL0     H57220   5.731  10.719   4.798 -1.0209  1.5789  1.8245
  424MOL0     H57221   5.483  10.716   4.780  0.1280 -0.2280  0.5281
  424MOL0     H57222   5.043  10.776   4.285 -1.8529  0.4758 -0.7084
  424MOL0     H57223   4.800  10.772   4.328 -0.6272 -0.3272 -1.0408
  424MOL0     H57224   2.894  10.064   4.877  1.7201 -0.5465 -0.0978
  424MOL0     H57225   2.653  10.111   4.815  0.6983  0.6911  1.1797
  424MOL0     H57226   2.329  10.235   4.676  1.0678  0.5983  0.3937
  424MOL0     H57227   2.094  10.295   4.632  1.7005  2.2798  2.1537
  424MOL0     H57228   1.963  10.458   4.252  0.2854  0.6287  1.2627
  424MOL0     H57229   1.821  10.397   4.338  0.5046 -1.1926  1.7312
  424MOL0     H57230   1.828  10.185   4.237 -0.7782  2.7747  1.5891
  424MOL0     H57231   1.988  10.216   4.162 -0.2162 -0.3894 -0.2312
  424MOL0     H57232   1.779  10.205   4.016 -1.3810  1.3050 -2.4032
  424MOL0     H57233   1.876  10.352   4.003  0.6742  1.2324  1.0193
  424MOL0     H57234   1.597  10.368   4.017 -0.4297 -0.1614  0.4952
  424MOL0     H57235   1.640  10.341   4.195  2.8964 -2.6685  0.1664
  424MOL0     H57236   1.743  10.741   4.127 -3.0845 -0.3232 -0.5860
  424MOL0     H57237   2.181  10.340   4.215 -0.8650  0.4217  0.5360
  424MOL0     H57238   2.489  10.206   4.200 -0.6369 -0.6407  0.3530
  424MOL0     H57239   2.394  10.328   4.113  2.5233 -0.9043 -1.6338
  424MOL0     H57240   2.519  10.376   4.225 -1.5175  0.5804  0.9590
  425MOL0     O57241   2.672   8.815  11.273 -0.5799 -0.6436 -0.0455
  425MOL0     C57242   2.593   8.719  11.273 -0.2342  0.5932 -0.0951
  425MOL0     O57243   2.601   8.614  11.371 -0.3833 -0.1575  0.1442
  425MOL0     C57244   2.715   8.626  11.453  0.9246 -1.2443  0.2909
  425MOL0     C57245   2.713   8.698  11.581 -0.3442 -0.2680 -0.1520
  425MOL0     C57246   2.821   8.688  11.670  0.2090  0.2427  1.1790
  425MOL0     C57247   2.933   8.602  11.643  0.8294 -0.8080 -0.0572
  425MOL0     O57248   3.043   8.612  11.729 -0.7357  0.3002 -0.1131
  425MOL0     C57249   3.134   8.493  11.735  0.2950 -0.4062 -0.4475
  425MOL0     C57250   3.271   8.525  11.669  0.4553  0.9470  0.8965
  425MOL0     C57251   3.349   8.653  11.723 -0.1241  0.9529  0.6278
  425MOL0     C57252   3.355   8.771  11.622  1.3738  0.2439  0.4799
  425MOL0     C57253   3.420   8.898  11.675  0.0484 -0.2450 -0.6053
  425MOL0     C57254   3.569   8.881  11.688  0.3748 -0.1174  0.3043
  425MOL0     C57255   3.634   9.021  11.706  0.3802 -0.0318 -0.5207
  425MOL0     C57256   3.788   9.015  11.700  0.1952 -0.3560  0.0603
  425MOL0     N57257   3.853   9.136  11.674  0.6768  0.3118 -0.6516
  425MOL0     C57258   3.791   9.260  11.643 -0.2400  1.3354  0.0734
  425MOL0     C57259   3.896   9.343  11.606 -0.1552 -0.2759 -0.3514
  425MOL0     C57260   3.890   9.480  11.544 -0.2064 -0.3149 -0.1346
  425MOL0     C57261   3.869   9.588  11.648  0.3659  0.0983 -0.2094
  425MOL0     C57262   3.989   9.624  11.740  0.5436  0.0373  0.1423
  425MOL0     C57263   4.092   9.706  11.656 -0.2565 -0.1778 -0.9473
  425MOL0     O57264   4.184   9.771  11.741 -0.5982  0.4440 -0.1621
  425MOL0     C57265   4.302   9.699  11.769  0.4565 -1.1318 -0.3095
  425MOL0     C57266   4.405   9.775  11.815  0.3562  0.3059  0.2818
  425MOL0     C57267   4.537   9.722  11.840 -0.9389  0.7403  0.1012
  425MOL0     C57268   4.548   9.581  11.826  0.1947 -0.3535 -0.1596
  425MOL0     C57269   4.690   9.535  11.829 -0.2110  0.8015  0.9662
  425MOL0     O57270   4.783   9.605  11.892  0.4246  0.3880  0.3830
  425MOL0     C57271   4.917   9.565  11.885  0.3151  0.3282  0.0793
  425MOL0     C57272   4.976   9.524  11.765 -0.7385 -0.5418 -0.1593
  425MOL0     C57273   5.104   9.462  11.775  0.5243 -0.2578 -0.8412
  425MOL0     C57274   5.175   9.444  11.888  0.3304 -0.2467 -1.1056
  425MOL0     O57275   5.301   9.381  11.882  0.4000  0.3101 -0.5527
  425MOL0     C57276   5.396   9.415  11.989  0.6966 -0.2766  1.0288
  425MOL0     C57277   5.534   9.364  11.951  0.1589 -0.2118  0.7033
  425MOL0     C57278   5.630   9.387  12.078  0.5592 -0.4865  0.5138
  425MOL0     C57279   5.763   9.347  12.030  0.2674  0.2412 -0.6875
  425MOL0     C57280   5.856   9.336  12.150  0.0920  0.4422  0.0320
  425MOL0     C57281   6.001   9.308  12.091  0.3040  0.3023  0.6132
  425MOL0     C57282   6.101   9.431  12.092  0.1919 -0.3566 -0.0361
  425MOL0     C57283   6.239   9.404  12.052  0.3025 -0.1359  0.5145
  425MOL0    Cl57284   6.318   9.278  12.161  0.3764  0.0215  0.3953
  425MOL0     C57285   5.116   9.494  12.002  0.2782  0.3820 -0.5553
  425MOL0     C57286   4.992   9.547  12.000  0.4864  0.6835  0.0656
  425MOL0     O57287   4.701   9.418  11.784 -0.2989 -0.1017  0.8422
  425MOL0     C57288   4.442   9.505  11.783 -0.6658  1.1551 -0.9633
  425MOL0     C57289   4.321   9.564  11.751  0.0678  0.5899 -0.3012
  425MOL0     N57290   4.015   9.276  11.635 -0.0943 -0.7018 -0.2249
  425MOL0     N57291   3.981   9.158  11.674 -0.7202  0.5927 -0.0493
  425MOL0     C57292   2.930   8.524  11.527  0.6850  0.5434  0.4425
  425MOL0     C57293   2.823   8.535  11.435 -0.7385 -0.0358 -0.1975
  425MOL0     C57294   2.489   8.708  11.173 -0.3161  0.1286  0.0221
  425MOL0     C57295   2.399   8.606  11.195  0.3537 -0.7266  0.0427
  425MOL0     C57296   2.285   8.580  11.109 -0.1349 -0.1273  0.6636
  425MOL0     C57297   2.263   8.663  11.002  0.3589 -0.0371  0.2598
  425MOL0     O57298   2.149   8.639  10.929  0.3503 -0.6794  0.2879
  425MOL0     C57299   2.113   8.718  10.818  1.1745 -0.3567 -0.3384
  425MOL0     C57300   1.954   8.734  10.786  0.5227 -0.6759 -0.3784
  425MOL0     C57301   1.886   8.805  10.906  0.1687 -0.8146  0.5191
  425MOL0     C57302   1.728   8.825  10.904 -0.4406  0.2892  0.4507
  425MOL0     C57303   1.689   8.876  10.772 -0.6823 -0.1111  0.0607
  425MOL0     C57304   1.671   8.931  10.674  0.7146 -0.2700 -0.3200
  425MOL0     C57305   2.366   8.751  10.968  0.1527  0.0658  0.3004
  425MOL0     C57306   2.470   8.776  11.048 -0.2174 -0.7382 -0.2899
  425MOL0     C57307   2.568   8.883  11.006  0.0826  0.0095 -0.3602
  425MOL0     H57308   2.628   8.758  11.610  2.6121  4.1683  0.3087
  425MOL0     H57309   2.819   8.741  11.765  0.4755 -0.3468  1.5139
  425MOL0     H57310   3.143   8.463  11.839 -2.0837  0.2476  0.0088
  425MOL0     H57311   3.087   8.403  11.694 -0.0804 -0.4313  0.0209
  425MOL0     H57312   3.251   8.540  11.563 -2.7267  0.1176  1.2865
  425MOL0     H57313   3.332   8.437  11.689 -2.4006 -0.8902  2.1127
  425MOL0     H57314   3.452   8.619  11.739 -0.6116 -1.3541 -0.7085
  425MOL0     H57315   3.309   8.673  11.823 -2.0869 -0.6559  0.2260
  425MOL0     H57316   3.390   8.739  11.524 -0.2502 -0.3940  0.0617
  425MOL0     H57317   3.248   8.791  11.605  0.4766 -1.9907  2.8248
  425MOL0     H57318   3.401   8.972  11.598 -0.4672 -1.7318 -1.9629
  425MOL0     H57319   3.389   8.934  11.774  2.0273  0.2073 -0.0939
  425MOL0     H57320   3.579   8.812  11.772  2.7407 -0.7571 -0.4225
  425MOL0     H57321   3.612   8.834  11.599 -0.2312  2.7966 -1.6716
  425MOL0     H57322   3.610   9.064  11.804 -0.0198  1.2373 -1.1581
  425MOL0     H57323   3.588   9.081  11.627  2.0416 -0.2371 -1.6837
  425MOL0     H57324   3.829   8.969  11.790 -1.0854 -3.1470 -0.6837
  425MOL0     H57325   3.820   8.941  11.626 -0.5702 -1.1881  0.5415
  425MOL0     H57326   3.688   9.294  11.636  0.2116  2.5538 -1.1826
  425MOL0     H57327   3.991   9.490  11.503  0.6799 -0.6444  1.8098
  425MOL0     H57328   3.807   9.485  11.474 -0.3258 -0.0645  0.0247
  425MOL0     H57329   3.840   9.686  11.610  1.7661  1.1927  1.3827
  425MOL0     H57330   3.785   9.560  11.712 -0.7878  1.4907 -1.0572
  425MOL0     H57331   4.027   9.529  11.779  0.4468 -0.0832 -0.0575
  425MOL0     H57332   3.954   9.693  11.818  1.0974 -0.0787  0.5016
  425MOL0     H57333   4.042   9.790  11.607  2.6627  1.9802 -0.5166
  425MOL0     H57334   4.137   9.645  11.577  0.3282  0.2844 -0.9758
  425MOL0     H57335   4.401   9.883  11.803 -0.8177  0.2035 -0.3998
  425MOL0     H57336   4.627   9.781  11.854 -2.0179  2.5923 -0.3853
  425MOL0     H57337   4.918   9.546  11.676  0.8942  1.4998 -0.8069
  425MOL0     H57338   5.139   9.426  11.679  0.5333 -0.9949 -0.5615
  425MOL0     H57339   5.394   9.525  11.997 -3.1663 -0.0553 -0.7506
  425MOL0     H57340   5.353   9.365  12.076  0.4236 -3.1425 -0.6499
  425MOL0     H57341   5.523   9.259  11.924  1.0091  0.0538 -0.8001
  425MOL0     H57342   5.572   9.418  11.864  0.6606 -1.3963  0.1547
  425MOL0     H57343   5.636   9.491  12.114 -0.8441 -0.1069 -0.2759
  425MOL0     H57344   5.588   9.322  12.155  0.6690 -0.7510  0.3505
  425MOL0     H57345   5.801   9.417  11.955 -0.9821  1.6550 -0.0376
  425MOL0     H57346   5.754   9.245  11.991 -1.0095 -0.1496  0.5460
  425MOL0     H57347   5.831   9.250  12.213 -0.1408  0.5833  0.1317
  425MOL0     H57348   5.845   9.426  12.211 -0.3037  1.5766 -1.6636
  425MOL0     H57349   6.040   9.233  12.160  0.5276  2.1617  2.5877
  425MOL0     H57350   5.987   9.275  11.987 -1.4038  0.1950  0.8500
  425MOL0     H57351   6.107   9.471  12.194 -1.8681 -2.3426  0.9540
  425MOL0     H57352   6.056   9.511  12.032  0.6802 -1.3160 -1.7316
  425MOL0     H57353   6.238   9.380  11.945  0.6336  2.4981 -0.1421
  425MOL0     H57354   6.300   9.493  12.070  3.1060 -1.1062 -2.8537
  425MOL0     H57355   5.172   9.497  12.095 -1.3585 -1.0742  0.5380
  425MOL0     H57356   4.932   9.574  12.086 -3.8114  0.4873 -2.6135
  425MOL0     H57357   4.461   9.399  11.768  0.9351  1.3618 -0.5551
  425MOL0     H57358   4.246   9.495  11.714 -0.7330  0.8147  0.8555
  425MOL0     H57359   3.012   8.458  11.500 -1.2741 -1.6513 -0.5812
  425MOL0     H57360   2.806   8.465  11.354 -1.1965 -2.7782  2.1073
  425MOL0     H57361   2.393   8.552  11.289 -1.6545 -1.7199 -0.6034
  425MOL0     H57362   2.204   8.511  11.129 -0.2342  0.1573  1.2732
  425MOL0     H57363   2.164   8.686  10.727 -0.1154 -2.3164 -0.4373
  425MOL0     H57364   2.148   8.821  10.831 -0.2629  0.0520  0.5545
  425MOL0     H57365   1.921   8.630  10.777  2.3763 -1.3020 -0.3824
  425MOL0     H57366   1.929   8.786  10.693 -2.5427 -1.4031 -0.0736
  425MOL0     H57367   1.921   8.907  10.926 -2.6420  0.4762 -0.4628
  425MOL0     H57368   1.907   8.747  10.996 -0.5659 -1.0213  0.5672
  425MOL0     H57369   1.682   8.729  10.930 -1.9697  0.8358 -0.1614
  425MOL0     H57370   1.700   8.894  10.984 -2.2524  1.2412 -0.9362
  425MOL0     H57371   1.652   8.975  10.578 -1.2059 -1.6525 -0.6260
  425MOL0     H57372   2.349   8.802  10.874  0.9158 -1.4387 -0.6917
  425MOL0     H57373   2.556   8.895  10.898 -2.3328  1.7054  0.0054
  425MOL0     H57374   2.532   8.974  11.055 -2.1709 -0.2917 -1.3111
  425MOL0     H57375   2.672   8.864  11.031 -0.5097 -0.2579  2.1763
  426MOL0     O57376   4.244  10.087   5.758  0.3795 -0.0742  0.4218
  426MOL0     C57377   4.172  10.074   5.855  0.0622 -0.5162  0.6743
  426MOL0     O57378   4.220  10.011   5.966  0.6925  0.7691 -0.5437
  426MOL0     C57379   4.349   9.981   5.971  0.2398  0.2056  0.5503
  426MOL0     C57380   4.388   9.848   5.959 -0.6595  1.0001 -0.1823
  426MOL0     C57381   4.530   9.811   5.949  0.5961 -0.5595 -0.5298
  426MOL0     C57382   4.620   9.911   5.979 -0.7467 -0.3774 -0.0530
  426MOL0     O57383   4.745   9.867   5.997  0.7584 -0.3249 -0.0521
  426MOL0     C57384   4.835   9.950   6.073  0.8671 -0.5024  0.0979
  426MOL0     C57385   4.946   9.857   6.118  0.5092  0.4588  0.3162
  426MOL0     C57386   5.045   9.930   6.207 -0.2864 -0.3864 -0.0529
  426MOL0     C57387   5.119   9.822   6.299  0.1362 -0.5097 -0.0710
  426MOL0     C57388   5.252   9.876   6.356 -1.0046 -0.4985  0.6501
  426MOL0     C57389   5.321   9.768   6.448  0.5439  0.3269  0.1984
  426MOL0     C57390   5.444   9.843   6.501 -0.4116 -0.2045 -0.3428
  426MOL0     C57391   5.545   9.749   6.569 -0.3538  0.5687 -0.7393
  426MOL0     N57392   5.660   9.827   6.611 -0.1854  0.4745  0.1111
  426MOL0     C57393   5.672   9.889   6.737 -0.0567 -0.2365  0.0200
  426MOL0     C57394   5.798   9.938   6.749  0.6261  0.4633  0.5324
  426MOL0     C57395   5.847  10.012   6.873  0.0783  0.4829  0.1765
  426MOL0     C57396   5.988  10.063   6.852  0.9526  0.5710 -0.1071
  426MOL0     C57397   6.090   9.951   6.837  0.0849  0.7763 -0.2640
  426MOL0     C57398   6.233  10.008   6.860  0.2904  0.1510  0.2341
  426MOL0     O57399   6.328   9.898   6.875  0.0024  0.0619 -0.4297
  426MOL0     C57400   6.457   9.930   6.917  0.6873  0.2937 -0.6132
  426MOL0     C57401   6.533   9.833   6.985 -0.7158 -0.4487 -0.6988
  426MOL0     C57402   6.665   9.853   7.034  0.4950  0.4614 -0.1546
  426MOL0     C57403   6.723   9.984   7.018  0.3583  0.3885 -0.3443
  426MOL0     C57404   6.852  10.001   7.069  0.5162 -0.3626 -0.0589
  426MOL0     O57405   6.893  10.129   7.068  0.5818 -0.2331 -0.5692
  426MOL0     C57406   7.027  10.147   7.069  0.6912  1.1059  0.6758
  426MOL0     C57407   7.119  10.112   7.169 -0.1605  0.0618  0.1541
  426MOL0     C57408   7.250  10.147   7.152 -0.1990  0.1821  0.3980
  426MOL0     C57409   7.293  10.225   7.044 -0.4321  0.4279  0.2379
  426MOL0     O57410   7.429  10.266   7.017  0.4574  0.3336  0.3199
  426MOL0     C57411   7.531  10.230   7.107 -0.3458  0.1407  0.3037
  426MOL0     C57412   7.666  10.275   7.042 -0.6191 -0.3005  0.8796
  426MOL0     C57413   7.786  10.207   7.101 -0.7084  0.6094  0.1430
  426MOL0     C57414   7.918  10.261   7.041  0.6323  0.0441 -0.5430
  426MOL0     C57415   8.042  10.181   7.069  0.8639  0.4392 -0.0482
  426MOL0     C57416   8.166  10.254   7.004 -0.6369  0.8360  0.1218
  426MOL0     C57417   8.285  10.153   7.016  0.6591 -1.4120  0.2458
  426MOL0     C57418   8.419  10.228   7.011 -0.3826 -0.0718 -0.3748
  426MOL0    Cl57419   8.443  10.327   6.872 -0.2088  0.0803  0.2034
  426MOL0     C57420   7.202  10.276   6.956 -0.2136  0.1291 -0.3426
  426MOL0     C57421   7.068  10.228   6.963  0.1322  0.3284  0.2603
  426MOL0     O57422   6.907   9.906   7.120 -0.1399 -0.1005  0.2084
  426MOL0     C57423   6.652  10.079   6.936 -0.6567 -0.5526  0.3437
  426MOL0     C57424   6.522  10.048   6.888 -0.1751  0.4940 -0.7246
  426MOL0     N57425   5.860   9.891   6.628 -0.3813 -0.3120 -0.6096
  426MOL0     N57426   5.779   9.825   6.551  0.2916 -0.6093  0.1735
  426MOL0     C57427   4.578  10.049   5.995  0.3662 -0.1701 -0.4088
  426MOL0     C57428   4.444  10.083   5.981 -0.3372  0.1945  0.5234
  426MOL0     C57429   4.031  10.123   5.845 -0.3963  0.8772 -0.3732
  426MOL0     C57430   3.998  10.218   5.744 -0.4979  0.3254  0.3726
  426MOL0     C57431   3.869  10.278   5.732  0.1249 -0.1149  0.1292
  426MOL0     C57432   3.773  10.237   5.820 -0.5069  0.2832  0.3134
  426MOL0     O57433   3.642  10.277   5.808 -0.4891  0.4639 -0.5081
  426MOL0     C57434   3.604  10.394   5.742 -1.0383  0.3337 -0.5584
  426MOL0     C57435   3.464  10.439   5.794 -0.1876  0.5033  0.5247
  426MOL0     C57436   3.400  10.550   5.716  0.5147 -0.3199 -0.2560
  426MOL0     C57437   3.486  10.672   5.699 -0.6331  0.0826 -0.6949
  426MOL0     C57438   3.392  10.783   5.671  0.0542  0.1261  0.1845
  426MOL0     C57439   3.322  10.882   5.663 -0.0572 -0.1073  0.0180
  426MOL0     C57440   3.806  10.150   5.924  0.4644 -0.5959  0.3429
  426MOL0     C57441   3.929  10.088   5.945 -0.3541  0.2466  0.1187
  426MOL0     C57442   3.959  10.009   6.070  0.0191 -0.7144  0.1651
  426MOL0     H57443   4.309   9.775   5.952 -0.2421  0.6199 -1.0694
  426MOL0     H57444   4.560   9.707   5.951  0.4608 -0.6309 -1.8400
  426MOL0     H57445   4.872  10.026   6.003  1.7064 -0.7026  0.3072
  426MOL0     H57446   4.800   9.994   6.166  3.6860 -1.2964  1.6617
  426MOL0     H57447   4.996   9.815   6.031  1.1233 -0.3665  1.0450
  426MOL0     H57448   4.897   9.774   6.170  0.0213 -1.4280 -2.8854
  426MOL0     H57449   5.001  10.010   6.267 -1.1651 -2.0514  1.6178
  426MOL0     H57450   5.121   9.976   6.144 -1.0369  1.1286  0.1169
  426MOL0     H57451   5.054   9.797   6.383 -0.3387 -0.0438 -0.2928
  426MOL0     H57452   5.135   9.740   6.229 -0.7288  2.6256 -4.3838
  426MOL0     H57453   5.315   9.904   6.271  0.4146  1.1699  2.1644
  426MOL0     H57454   5.231   9.974   6.402 -0.1366  0.6706 -1.3261
  426MOL0     H57455   5.262   9.745   6.537 -1.6169  2.6620 -0.5100
  426MOL0     H57456   5.336   9.675   6.392 -1.9753  0.1176 -0.2426
  426MOL0     H57457   5.422   9.929   6.565 -0.0287 -0.0994 -0.3509
  426MOL0     H57458   5.499   9.888   6.418 -0.6549  1.1716  0.2127
  426MOL0     H57459   5.505   9.696   6.656 -2.2489  0.3842 -1.6705
  426MOL0     H57460   5.589   9.680   6.496  1.2999  1.8626 -1.0261
  426MOL0     H57461   5.594   9.899   6.811  2.7409  2.8461  2.9113
  426MOL0     H57462   5.786  10.101   6.888  1.8112  1.7312  0.0844
  426MOL0     H57463   5.848   9.945   6.960  1.2139  2.6958  1.9912
  426MOL0     H57464   5.994  10.111   6.753 -1.1277 -1.1938 -1.1561
  426MOL0     H57465   6.009  10.134   6.933 -0.7257  2.2981 -1.0926
  426MOL0     H57466   6.081   9.897   6.742 -2.0949 -0.5918  0.6423
  426MOL0     H57467   6.067   9.880   6.917  0.9427  0.7559 -0.0233
  426MOL0     H57468   6.229  10.069   6.951  3.2031  0.4213  0.2587
  426MOL0     H57469   6.257  10.076   6.779  0.7963  2.0606  1.9080
  426MOL0     H57470   6.479   9.739   6.992 -2.6362  0.5867 -0.9351
  426MOL0     H57471   6.711   9.764   7.077 -1.0873 -0.1640  0.3171
  426MOL0     H57472   7.092  10.066   7.264  5.0950  0.5169  2.2115
  426MOL0     H57473   7.322  10.116   7.227  0.9361  2.3821  0.2953
  426MOL0     H57474   7.525  10.288   7.199  0.3702  1.0811 -0.2235
  426MOL0     H57475   7.532  10.123   7.131 -0.1245  0.1344  0.2746
  426MOL0     H57476   7.668  10.249   6.936  2.2262 -1.2021  1.0697
  426MOL0     H57477   7.685  10.381   7.060  1.0794 -0.5583  0.7761
  426MOL0     H57478   7.791  10.223   7.209 -1.8079  0.9621  0.1522
  426MOL0     H57479   7.775  10.101   7.077 -3.6989  1.1178 -1.1454
  426MOL0     H57480   7.925  10.362   7.081 -0.4156  0.1513 -0.6128
  426MOL0     H57481   7.902  10.261   6.933 -1.6142 -1.8899 -0.2895
  426MOL0     H57482   8.024  10.082   7.025  1.0463 -0.3684  1.6081
  426MOL0     H57483   8.059  10.159   7.175 -2.4886  1.3351  0.8057
  426MOL0     H57484   8.153  10.295   6.903 -1.6672 -2.3575 -1.1505
  426MOL0     H57485   8.193  10.324   7.084 -0.5162 -1.3470  2.1167
  426MOL0     H57486   8.279  10.074   6.941 -1.7723 -3.4145  2.3348
  426MOL0     H57487   8.283  10.111   7.117 -2.7129  0.4524  1.1272
  426MOL0     H57488   8.419  10.293   7.099 -0.6039  1.6451 -1.5774
  426MOL0     H57489   8.492  10.149   7.024 -0.0119  0.5139  1.2855
  426MOL0     H57490   7.223  10.334   6.867 -3.3000 -0.2022 -1.4288
  426MOL0     H57491   6.995  10.261   6.890  1.0776 -2.2291 -2.0380
  426MOL0     H57492   6.705  10.170   6.912  1.5784 -1.6536  0.8149
  426MOL0     H57493   6.481  10.131   6.831  1.0984  3.0754  1.8999
  426MOL0     H57494   4.638  10.136   6.022 -2.1087  1.7203 -0.5871
  426MOL0     H57495   4.416  10.186   5.996 -0.8385  0.1189  0.1327
  426MOL0     H57496   4.069  10.241   5.666 -0.6235 -1.0985 -0.1941
  426MOL0     H57497   3.856  10.354   5.656  0.5595  3.3135  3.2096
  426MOL0     H57498   3.595  10.364   5.637 -1.3715 -0.8366 -0.2091
  426MOL0     H57499   3.674  10.476   5.762  1.5006 -1.3257 -2.0616
  426MOL0     H57500   3.477  10.486   5.891  0.2407  5.4526 -1.6383
  426MOL0     H57501   3.394  10.356   5.808 -0.6465  0.5490 -1.2430
  426MOL0     H57502   3.319  10.592   5.776 -0.8002  1.2727 -2.9494
  426MOL0     H57503   3.356  10.518   5.621 -0.7790  1.3609 -0.2589
  426MOL0     H57504   3.545  10.689   5.790 -2.5006  1.5065  0.3207
  426MOL0     H57505   3.544  10.652   5.608 -1.4176 -2.8898 -0.6279
  426MOL0     H57506   3.271  10.972   5.637  0.7850  0.1814 -0.6698
  426MOL0     H57507   3.723  10.123   5.989  0.6710 -2.9317 -0.2806
  426MOL0     H57508   4.043  10.044   6.131  1.3469 -4.2495  0.5619
  426MOL0     H57509   3.865   9.996   6.126 -0.3588  0.3460 -0.1886
  426MOL0     H57510   3.990   9.912   6.031  0.3594 -0.8039  0.6471
  427MOL0     O57511   1.716   9.318   0.502  0.3283 -0.5121 -0.7279
  427MOL0     C57512   1.722   9.236   0.416  0.0169  0.9130  0.0071
  427MOL0     O57513   1.838   9.159   0.393  0.1164 -0.3597 -0.4652
  427MOL0     C57514   1.955   9.194   0.463  0.2616 -0.3611  0.1730
  427MOL0     C57515   2.040   9.297   0.417 -0.4114  0.2578  0.0243
  427MOL0     C57516   2.156   9.326   0.483  0.3688 -0.9625 -0.0192
  427MOL0     C57517   2.197   9.257   0.599 -0.2420  0.1536 -0.2076
  427MOL0     O57518   2.315   9.301   0.662 -0.2368 -0.1822  0.1032
  427MOL0     C57519   2.305   9.271   0.797 -0.7258 -0.7551 -0.5895
  427MOL0     C57520   2.420   9.341   0.877 -0.8896 -0.5281 -0.1616
  427MOL0     C57521   2.556   9.284   0.827  0.3648  0.2703  0.2562
  427MOL0     C57522   2.640   9.399   0.773 -0.5880 -0.9336  0.4553
  427MOL0     C57523   2.778   9.334   0.741  0.7208 -0.9893 -0.1149
  427MOL0     C57524   2.861   9.436   0.676 -0.0235 -0.5242 -0.4217
  427MOL0     C57525   3.004   9.380   0.641 -0.0671 -0.4938 -0.2485
  427MOL0     C57526   3.104   9.373   0.763 -0.2755 -0.5319  0.6821
  427MOL0     N57527   3.143   9.508   0.808  0.1367  0.2300 -0.3522
  427MOL0     C57528   3.267   9.559   0.804  0.3241 -0.0454  0.6478
  427MOL0     C57529   3.258   9.662   0.889  0.5761  0.9605  0.9534
  427MOL0     C57530   3.365   9.760   0.921 -1.3817 -0.8234  0.6101
  427MOL0     C57531   3.471   9.702   1.016  0.7553  0.5631  0.2185
  427MOL0     C57532   3.568   9.805   1.070  0.1835 -0.7098  0.0367
  427MOL0     C57533   3.683   9.731   1.133 -0.5061 -0.1582  0.4815
  427MOL0     O57534   3.756   9.817   1.224  0.0931 -0.3974  0.1520
  427MOL0     C57535   3.879   9.772   1.281  0.6896  0.2872 -0.7922
  427MOL0     C57536   3.987   9.859   1.298 -0.0887  0.0268 -0.1383
  427MOL0     C57537   4.112   9.817   1.339 -1.2395 -0.5023 -1.5474
  427MOL0     C57538   4.133   9.678   1.360 -0.1477  0.9298 -0.2354
  427MOL0     C57539   4.273   9.643   1.394  0.0878  0.0269  0.6137
  427MOL0     O57540   4.363   9.748   1.403  0.3843 -0.2165 -0.7707
  427MOL0     C57541   4.498   9.726   1.412  0.1713  0.6478  0.4050
  427MOL0     C57542   4.585   9.765   1.309 -0.1140  0.2410 -0.5870
  427MOL0     C57543   4.724   9.752   1.331 -0.2422  0.1351 -1.0557
  427MOL0     C57544   4.777   9.713   1.453 -0.3767 -0.4572 -0.7030
  427MOL0     O57545   4.915   9.710   1.466 -0.1242 -1.0345 -0.7329
  427MOL0     C57546   4.973   9.604   1.544 -0.6921  0.1146  0.2047
  427MOL0     C57547   5.123   9.621   1.513  0.3236  0.4140 -0.6283
  427MOL0     C57548   5.199   9.520   1.592  0.0137  0.8624  0.4127
  427MOL0     C57549   5.341   9.536   1.555  0.1935  1.2208  1.0687
  427MOL0     C57550   5.422   9.471   1.667 -0.9185  0.0572  0.5595
  427MOL0     C57551   5.569   9.504   1.652  0.3235  0.3180 -0.4953
  427MOL0     C57552   5.652   9.406   1.739  0.3583  0.1422  0.5352
  427MOL0     C57553   5.803   9.439   1.723 -0.0592 -0.7251 -0.2478
  427MOL0    Cl57554   5.833   9.605   1.789 -0.0803  0.0130 -0.4455
  427MOL0     C57555   4.689   9.659   1.551  0.8606  0.6144  0.8550
  427MOL0     C57556   4.555   9.673   1.530 -0.8044  0.3495  0.0866
  427MOL0     O57557   4.301   9.522   1.404 -0.1376  0.2566  0.3612
  427MOL0     C57558   4.026   9.578   1.346  0.6365 -0.4522  0.9664
  427MOL0     C57559   3.897   9.632   1.310  0.3538 -0.0812 -0.2365
  427MOL0     N57560   3.128   9.680   0.929 -0.6444  0.1439  0.6600
  427MOL0     N57561   3.056   9.581   0.890  0.0226  0.1614 -0.2556
  427MOL0     C57562   2.118   9.144   0.634 -0.2050 -0.3768 -0.7673
  427MOL0     C57563   1.996   9.113   0.571 -0.9192  0.3858 -0.0037
  427MOL0     C57564   1.604   9.199   0.330  0.0615 -0.3142 -0.1706
  427MOL0     C57565   1.625   9.087   0.244  0.5922 -0.5361 -0.3572
  427MOL0     C57566   1.526   9.040   0.155  0.1506 -0.4828 -0.5529
  427MOL0     C57567   1.403   9.104   0.144 -0.3042 -0.5681  0.1367
  427MOL0     O57568   1.309   9.057   0.065  0.5988 -0.9682  0.0869
  427MOL0     C57569   1.200   9.142   0.025  0.1061 -0.4151  0.1542
  427MOL0     C57570   1.130   9.080  -0.093  0.4355 -0.1244  0.7323
  427MOL0     C57571   0.993   9.147  -0.143 -0.0818  0.1714  0.8349
  427MOL0     C57572   0.956   9.065  -0.278  0.4928 -0.0861  0.3702
  427MOL0     C57573   0.909   8.928  -0.269  0.1670  0.4879  0.8621
  427MOL0     C57574   0.865   8.817  -0.237 -0.9248 -0.0102  0.6920
  427MOL0     C57575   1.385   9.217   0.225  0.2395 -0.3528  0.7644
  427MOL0     C57576   1.481   9.264   0.326 -0.2137 -0.1774  0.4538
  427MOL0     C57577   1.434   9.373   0.415  0.0203 -0.4934  0.4031
  427MOL0     H57578   2.017   9.355   0.328 -2.0852 -0.8184 -0.2831
  427MOL0     H57579   2.236   9.393   0.452 -0.1202  0.0218  0.8046
  427MOL0     H57580   2.215   9.307   0.849  0.7402 -0.5555  2.0093
  427MOL0     H57581   2.320   9.164   0.815 -3.1150 -0.8065  1.6712
  427MOL0     H57582   2.412   9.317   0.984  1.3277  0.1448  0.2103
  427MOL0     H57583   2.414   9.450   0.871 -0.1733 -0.5212 -0.9343
  427MOL0     H57584   2.543   9.213   0.745  0.7043  0.1815  0.2758
  427MOL0     H57585   2.601   9.244   0.918 -0.4742  1.3848  1.1759
  427MOL0     H57586   2.590   9.440   0.685 -3.5768  0.0816  2.4901
  427MOL0     H57587   2.651   9.482   0.843 -3.0390 -0.7489  0.7212
  427MOL0     H57588   2.821   9.314   0.840 -2.6151  2.1341  2.2084
  427MOL0     H57589   2.775   9.243   0.680  0.1359 -0.1405 -1.3921
  427MOL0     H57590   2.816   9.452   0.577 -0.4128 -1.2261 -0.3620
  427MOL0     H57591   2.867   9.527   0.737 -1.3456 -1.0677  0.5531
  427MOL0     H57592   3.045   9.451   0.569  3.2216 -1.0353  0.9170
  427MOL0     H57593   2.994   9.281   0.596 -0.9725 -0.2197 -0.6795
  427MOL0     H57594   3.067   9.317   0.850  1.5824  1.1297  2.6467
  427MOL0     H57595   3.196   9.324   0.732  0.7340  0.6592  1.6797
  427MOL0     H57596   3.351   9.515   0.751  0.0775 -0.1562  0.3500
  427MOL0     H57597   3.413   9.798   0.831  0.7997 -2.9473  0.7690
  427MOL0     H57598   3.318   9.845   0.971 -0.6526  0.1122 -0.2483
  427MOL0     H57599   3.432   9.666   1.112 -0.8890  2.6703  0.3966
  427MOL0     H57600   3.532   9.628   0.963  1.1691  1.4828 -0.5969
  427MOL0     H57601   3.531   9.873   1.148  0.8455 -1.9249  1.4438
  427MOL0     H57602   3.610   9.860   0.984 -0.5623  1.9254  1.2512
  427MOL0     H57603   3.747   9.686   1.057 -1.0163  1.3954 -0.9421
  427MOL0     H57604   3.637   9.657   1.200 -2.1022  3.0739  3.2659
  427MOL0     H57605   3.967   9.964   1.282  2.6642  0.6096 -0.2778
  427MOL0     H57606   4.190   9.891   1.359  1.5303 -3.8331  1.4997
  427MOL0     H57607   4.548   9.806   1.216 -0.9591  0.2246 -0.2691
  427MOL0     H57608   4.791   9.781   1.251 -1.4235  2.3754 -1.3276
  427MOL0     H57609   4.968   9.607   1.654  2.0860 -0.7869  0.4269
  427MOL0     H57610   4.922   9.516   1.505 -3.3564  2.2369 -1.4343
  427MOL0     H57611   5.140   9.598   1.408  0.0844  0.6312 -0.7134
  427MOL0     H57612   5.155   9.723   1.536 -0.1392 -0.2664  4.1349
  427MOL0     H57613   5.176   9.551   1.694 -3.4188  1.8741 -0.5485
  427MOL0     H57614   5.166   9.418   1.569  1.8841  1.1284 -4.6180
  427MOL0     H57615   5.366   9.642   1.553  0.7358  1.1539  2.4762
  427MOL0     H57616   5.370   9.502   1.455  0.3288  1.2457  1.0987
  427MOL0     H57617   5.413   9.363   1.654 -1.7583  0.1574  0.2378
  427MOL0     H57618   5.375   9.492   1.764  0.4109 -0.2423  1.2990
  427MOL0     H57619   5.601   9.506   1.547 -1.4688 -0.4160 -1.0855
  427MOL0     H57620   5.589   9.606   1.685  0.0184  0.4226 -0.6341
  427MOL0     H57621   5.615   9.304   1.720 -0.3671  0.1004  2.0556
  427MOL0     H57622   5.618   9.428   1.840  0.8879  1.7891  0.3799
  427MOL0     H57623   5.848   9.360   1.783  3.0192  2.5854  2.2537
  427MOL0     H57624   5.846   9.435   1.622  1.0740 -0.0964  0.1850
  427MOL0     H57625   4.723   9.621   1.647 -2.5140 -1.8015  1.2699
  427MOL0     H57626   4.485   9.650   1.610 -0.1154  1.2150  0.9838
  427MOL0     H57627   4.052   9.473   1.350  0.8050 -0.8018 -3.4716
  427MOL0     H57628   3.805   9.576   1.320  0.0763  0.0870 -1.5918
  427MOL0     H57629   2.144   9.086   0.722  2.9534  0.6334 -0.9205
  427MOL0     H57630   1.928   9.037   0.607 -1.5190  1.6643  1.7162
  427MOL0     H57631   1.713   9.025   0.251  1.2052  0.3299 -0.2228
  427MOL0     H57632   1.539   8.960   0.082 -2.7973  0.9096 -2.8302
  427MOL0     H57633   1.240   9.239  -0.007  1.3212 -0.7403  0.5992
  427MOL0     H57634   1.121   9.160   0.098  0.3601  0.5079  0.2107
  427MOL0     H57635   1.105   8.978  -0.061 -1.8437 -0.5190 -1.8376
  427MOL0     H57636   1.197   9.061  -0.177 -0.8550  0.2789 -0.4373
  427MOL0     H57637   1.014   9.250  -0.173 -0.9923  0.5354  1.3927
  427MOL0     H57638   0.914   9.147  -0.068  1.1567 -0.3150  2.2009
  427MOL0     H57639   0.876   9.129  -0.317  1.1285  0.1643 -0.5573
  427MOL0     H57640   1.041   9.071  -0.346  0.6706 -0.6011  0.5424
  427MOL0     H57641   0.826   8.718  -0.230  1.4245 -0.8795  2.9361
  427MOL0     H57642   1.286   9.259   0.211 -0.1889 -0.9409  1.9654
  427MOL0     H57643   1.332   9.403   0.392  0.0961 -0.1787  0.4673
  427MOL0     H57644   1.441   9.345   0.520 -1.6312  2.1828  1.3391
  427MOL0     H57645   1.499   9.459   0.393  0.1790 -0.7428 -0.1361
  428MOL0     O57646   0.539   1.984   3.078  0.0737  0.0568  0.5983
  428MOL0     C57647   0.470   1.986   2.972  0.2564 -0.0958  0.1235
  428MOL0     O57648   0.521   2.012   2.851 -0.3694  0.3466 -0.4060
  428MOL0     C57649   0.660   2.012   2.837  0.5629  0.2085 -0.3878
  428MOL0     C57650   0.721   2.138   2.851 -1.0647 -0.6344  0.1201
  428MOL0     C57651   0.857   2.142   2.850  0.5025  0.5405 -0.1371
  428MOL0     C57652   0.931   2.029   2.830 -0.3258  0.1166 -0.0846
  428MOL0     O57653   1.070   2.026   2.824  0.5008  0.6273  0.6011
  428MOL0     C57654   1.157   2.140   2.835  0.5311 -0.2357 -0.0007
  428MOL0     C57655   1.199   2.186   2.965  0.1952  0.1570 -0.4537
  428MOL0     C57656   1.291   2.305   2.961 -0.9360  0.6043  0.1705
  428MOL0     C57657   1.437   2.272   2.975  0.4549 -0.4227 -0.4577
  428MOL0     C57658   1.527   2.389   2.977  0.1111 -0.4027 -0.2833
  428MOL0     C57659   1.674   2.344   2.982 -0.4657  0.3701 -0.0121
  428MOL0     C57660   1.755   2.429   2.886 -0.0332  0.0387  0.4112
  428MOL0     C57661   1.905   2.378   2.881 -0.2776  0.1550  0.2850
  428MOL0     N57662   1.980   2.426   3.000 -0.1957  0.2532 -0.5240
  428MOL0     C57663   1.962   2.393   3.133 -0.0992 -0.2667  0.5104
  428MOL0     C57664   2.085   2.412   3.193  0.3290 -0.6272 -0.3310
  428MOL0     C57665   2.116   2.369   3.334 -0.1791  0.3127  0.8148
  428MOL0     C57666   2.274   2.377   3.380  0.5909  0.0529  0.3324
  428MOL0     C57667   2.349   2.249   3.334  0.1125 -0.1405  0.1970
  428MOL0     C57668   2.496   2.268   3.282  0.2983  0.1546 -0.2489
  428MOL0     O57669   2.565   2.305   3.405 -0.2209  0.1553 -0.2715
  428MOL0     C57670   2.700   2.281   3.427 -0.2841  0.1982  0.9678
  428MOL0     C57671   2.753   2.311   3.549 -0.2031 -0.1693 -0.6606
  428MOL0     C57672   2.886   2.282   3.576  0.5673  0.1336  0.7478
  428MOL0     C57673   2.972   2.240   3.473  0.3397 -0.0097  0.5738
  428MOL0     C57674   3.118   2.214   3.491 -0.2688 -0.7473 -0.5582
  428MOL0     O57675   3.166   2.242   3.618 -0.1300  0.6898  0.0252
  428MOL0     C57676   3.291   2.199   3.652 -0.2109 -0.2131  0.0890
  428MOL0     C57677   3.358   2.080   3.608  0.0128 -0.1783 -0.1049
  428MOL0     C57678   3.486   2.050   3.644 -0.1031 -0.0539 -0.5011
  428MOL0     C57679   3.555   2.144   3.726  0.1769 -0.2658 -0.7334
  428MOL0     O57680   3.685   2.108   3.767  0.1521  0.5791 -0.7720
  428MOL0     C57681   3.792   2.171   3.704  0.0166 -0.2745 -0.1526
  428MOL0     C57682   3.924   2.100   3.728  0.7492  0.4321  0.0299
  428MOL0     C57683   4.042   2.177   3.663 -0.3045 -0.1742 -0.6107
  428MOL0     C57684   4.067   2.155   3.514 -0.3116  0.2923 -0.1786
  428MOL0     C57685   4.200   2.215   3.476  0.8868 -0.3672 -0.5463
  428MOL0     C57686   4.224   2.194   3.317  0.1102 -0.0224 -0.8386
  428MOL0     C57687   4.157   2.299   3.224  0.6679 -0.0427  0.1328
  428MOL0     C57688   4.213   2.297   3.081 -0.0119  0.1698 -0.1785
  428MOL0    Cl57689   4.383   2.360   3.082 -0.7507  0.0506 -0.5331
  428MOL0     C57690   3.494   2.266   3.763  0.8960 -0.4841 -0.5226
  428MOL0     C57691   3.355   2.290   3.738 -0.4667  0.1455  0.4005
  428MOL0     O57692   3.182   2.177   3.397 -0.7467 -0.6388 -0.0389
  428MOL0     C57693   2.919   2.223   3.342 -0.1907 -1.0961  0.2217
  428MOL0     C57694   2.787   2.243   3.324  0.8176  0.2985 -0.0191
  428MOL0     N57695   2.170   2.470   3.101 -0.5468 -0.3935 -0.3659
  428MOL0     N57696   2.106   2.475   2.987  0.5343  0.0267  0.4143
  428MOL0     C57697   0.868   1.903   2.820 -0.3971 -2.0783 -0.1345
  428MOL0     C57698   0.734   1.891   2.833  0.3170  0.0555 -0.6851
  428MOL0     C57699   0.326   1.967   2.988  0.7612 -1.2166  0.1027
  428MOL0     C57700   0.272   1.969   3.119  0.1836  0.5966  0.1600
  428MOL0     C57701   0.137   1.950   3.142  0.1998  0.5195  0.2900
  428MOL0     C57702   0.049   1.930   3.033 -0.1019  0.1154  0.2591
  428MOL0     O57703  -0.089   1.902   3.045 -0.3824  0.6092 -0.0828
  428MOL0     C57704  -0.159   1.938   3.167 -0.6712  0.9099  0.5093
  428MOL0     C57705  -0.302   1.972   3.136  0.3850 -0.9640 -0.2406
  428MOL0     C57706  -0.383   1.839   3.101 -0.1015 -0.2596  0.5710
  428MOL0     C57707  -0.526   1.859   3.084  0.0683  0.3894  0.0465
  428MOL0     C57708  -0.583   1.883   3.218  0.4710  0.2421 -0.1045
  428MOL0     C57709  -0.645   1.891   3.319  0.3436  0.4494  0.2583
  428MOL0     C57710   0.092   1.934   2.908 -0.0853  0.1065  0.1958
  428MOL0     C57711   0.232   1.952   2.881  0.2393 -0.3975  0.7303
  428MOL0     C57712   0.283   1.958   2.736  0.4431 -0.5699 -1.0196
  428MOL0     H57713   0.667   2.227   2.881  1.9499  1.6065 -0.6405
  428MOL0     H57714   0.908   2.237   2.860  1.3478  0.4399 -2.8332
  428MOL0     H57715   1.249   2.112   2.782 -1.1705 -2.5651 -1.9490
  428MOL0     H57716   1.105   2.222   2.784 -0.3002  0.7741  2.3496
  428MOL0     H57717   1.243   2.101   3.018 -0.2471  0.4446  0.3971
  428MOL0     H57718   1.109   2.216   3.019  0.6106  0.4219  0.1052
  428MOL0     H57719   1.267   2.374   3.042  1.3793  0.9376  0.6384
  428MOL0     H57720   1.276   2.370   2.874 -0.1570  1.5328  0.7122
  428MOL0     H57721   1.460   2.215   3.065  0.2463  1.3062  0.7449
  428MOL0     H57722   1.470   2.223   2.883  2.1529 -3.5222  1.6315
  428MOL0     H57723   1.501   2.448   2.888 -2.1657  1.9423  1.7541
  428MOL0     H57724   1.500   2.451   3.063  0.7284 -0.3454 -0.1270
  428MOL0     H57725   1.708   2.349   3.085  0.9646 -2.6030 -0.2395
  428MOL0     H57726   1.689   2.238   2.957  2.0387  0.6076  0.2646
  428MOL0     H57727   1.752   2.537   2.906 -0.3286  1.0338 -3.9897
  428MOL0     H57728   1.711   2.417   2.787 -1.1706  2.2754  0.5583
  428MOL0     H57729   1.911   2.270   2.870  0.7796  0.2579 -0.3120
  428MOL0     H57730   1.955   2.425   2.796  1.0396  1.9444  1.9405
  428MOL0     H57731   1.878   2.353   3.188  0.2749 -1.7006  0.0600
  428MOL0     H57732   2.059   2.427   3.407 -0.2627 -0.4835  1.3930
  428MOL0     H57733   2.090   2.263   3.345 -1.8438  0.7840  1.6341
  428MOL0     H57734   2.322   2.466   3.339  1.8106  2.0746  5.3916
  428MOL0     H57735   2.272   2.393   3.488  2.0172 -1.4821  0.6257
  428MOL0     H57736   2.283   2.197   3.263  0.5243 -1.6209  0.8539
  428MOL0     H57737   2.352   2.179   3.418  4.2490  0.0209  0.4127
  428MOL0     H57738   2.502   2.336   3.196 -1.9143  0.4940 -0.1845
  428MOL0     H57739   2.546   2.176   3.250  1.9322  0.8692  0.1619
  428MOL0     H57740   2.690   2.344   3.631 -1.7547 -1.1628 -1.4047
  428MOL0     H57741   2.922   2.282   3.679 -0.0150  0.3495  0.9530
  428MOL0     H57742   3.304   2.004   3.552  1.2237 -1.4639  0.4087
  428MOL0     H57743   3.528   1.950   3.637  2.9295  0.6318  3.8384
  428MOL0     H57744   3.773   2.161   3.597  0.4912 -0.1827 -0.2478
  428MOL0     H57745   3.802   2.279   3.722  1.7548 -0.0781 -1.9584
  428MOL0     H57746   3.937   2.096   3.837 -2.3304 -2.7927  0.4704
  428MOL0     H57747   3.922   1.995   3.699  0.6770  0.6657 -0.8403
  428MOL0     H57748   4.017   2.282   3.682 -4.1178 -0.4895 -2.7824
  428MOL0     H57749   4.131   2.156   3.722 -1.2765 -2.3413  0.1827
  428MOL0     H57750   3.989   2.198   3.451  0.2314  0.0596 -1.0246
  428MOL0     H57751   4.069   2.046   3.507 -2.3982  0.3194 -3.1690
  428MOL0     H57752   4.277   2.155   3.525 -0.6326 -3.1239 -1.3255
  428MOL0     H57753   4.208   2.318   3.510 -0.1965 -1.1748  2.4976
  428MOL0     H57754   4.328   2.197   3.283  0.6091  1.4393  0.6616
  428MOL0     H57755   4.197   2.091   3.293  0.8229 -0.2957 -0.4776
  428MOL0     H57756   4.166   2.401   3.263  0.1362  0.2660 -0.5452
  428MOL0     H57757   4.051   2.279   3.207  0.4018  2.0222 -0.9136
  428MOL0     H57758   4.204   2.197   3.038  0.6704 -0.0708  0.2147
  428MOL0     H57759   4.156   2.361   3.014  0.8121  0.5988 -0.4796
  428MOL0     H57760   3.552   2.341   3.816 -1.6616  1.6232 -0.4828
  428MOL0     H57761   3.312   2.384   3.771  2.2876  1.7715 -0.3184
  428MOL0     H57762   2.969   2.203   3.248  0.5849  2.0047 -0.1379
  428MOL0     H57763   2.749   2.233   3.223  1.4010  2.4546 -0.5029
  428MOL0     H57764   0.928   1.814   2.803  1.2609 -1.2198  0.9956
  428MOL0     H57765   0.690   1.792   2.827  0.9436 -0.2182 -0.8915
  428MOL0     H57766   0.339   1.978   3.204  0.5812 -5.3285  0.9162
  428MOL0     H57767   0.105   1.950   3.246  0.8796 -1.7246  0.5448
  428MOL0     H57768  -0.108   2.031   3.195  3.0445 -0.1850 -1.9447
  428MOL0     H57769  -0.160   1.857   3.240 -2.7650 -1.2068 -1.6824
  428MOL0     H57770  -0.311   2.045   3.055  1.6314 -0.1841  0.2845
  428MOL0     H57771  -0.331   2.022   3.229  5.5075  1.3371  0.5063
  428MOL0     H57772  -0.368   1.770   3.185 -1.7650 -1.2991  0.0465
  428MOL0     H57773  -0.336   1.799   3.011 -1.3994 -0.1456 -0.1672
  428MOL0     H57774  -0.564   1.930   3.009 -3.7323 -1.7489 -0.3475
  428MOL0     H57775  -0.565   1.763   3.051  1.7686 -0.2728 -0.0880
  428MOL0     H57776  -0.685   1.914   3.416 -0.1147  2.1197 -0.2942
  428MOL0     H57777   0.025   1.919   2.824  2.4970  1.8680 -2.3930
  428MOL0     H57778   0.349   1.871   2.726  1.3671 -0.0777  0.4083
  428MOL0     H57779   0.201   1.957   2.664  0.4337  3.5696 -1.3049
  428MOL0     H57780   0.333   2.052   2.712 -2.6758  1.1624 -1.2268
  429MOL0     O57781   3.632   7.359   6.526  0.1098 -0.6292  0.1434
  429MOL0     C57782   3.593   7.412   6.629 -0.9400 -0.1621  0.4856
  429MOL0     O57783   3.655   7.504   6.700  0.2871 -0.2565 -0.2768
  429MOL0     C57784   3.778   7.557   6.667 -0.0445 -0.3557  0.2907
  429MOL0     C57785   3.795   7.695   6.640  0.0842  0.2415  0.1530
  429MOL0     C57786   3.924   7.749   6.614  0.1160  0.1421 -0.2279
  429MOL0     C57787   4.041   7.673   6.632  0.1599  0.4844 -0.1024
  429MOL0     O57788   4.161   7.732   6.617 -0.0292 -0.4974 -0.2730
  429MOL0     C57789   4.283   7.654   6.639 -0.7731 -0.4085  0.2297
  429MOL0     C57790   4.397   7.754   6.671 -0.3336 -0.2894 -0.5003
  429MOL0     C57791   4.511   7.680   6.754 -0.6926 -0.5595 -0.5876
  429MOL0     C57792   4.630   7.775   6.762 -1.0212  0.9221  0.7178
  429MOL0     C57793   4.761   7.715   6.830 -0.2983 -0.4537 -0.2818
  429MOL0     C57794   4.815   7.584   6.772  0.2073  0.6916  0.0477
  429MOL0     C57795   4.957   7.549   6.826  0.2666 -0.6725 -0.1375
  429MOL0     C57796   5.004   7.410   6.793 -0.6978 -0.3923  0.6390
  429MOL0     N57797   5.123   7.368   6.862 -0.5671 -0.0650  0.8265
  429MOL0     C57798   5.219   7.452   6.904  0.4743  0.2023  0.0413
  429MOL0     C57799   5.320   7.386   6.949 -0.3584  0.1805 -0.2050
  429MOL0     C57800   5.455   7.420   7.010  0.0943 -0.3743  0.9849
  429MOL0     C57801   5.575   7.327   6.946  0.4651  0.1447  0.3335
  429MOL0     C57802   5.702   7.355   7.022  0.0929  0.8735  0.4995
  429MOL0     C57803   5.708   7.316   7.175  0.5700 -0.5920  0.1177
  429MOL0     O57804   5.708   7.174   7.185  0.6777  0.0291 -0.3952
  429MOL0     C57805   5.807   7.102   7.122 -1.1348 -0.2337  0.2051
  429MOL0     C57806   5.766   6.990   7.048 -0.2585  0.2852 -0.2199
  429MOL0     C57807   5.870   6.906   6.984 -0.2757 -0.4315 -0.7090
  429MOL0     C57808   6.003   6.932   7.008 -0.4903 -0.8911 -0.2937
  429MOL0     C57809   6.101   6.837   6.954 -0.5586  0.7540  0.4798
  429MOL0     O57810   6.231   6.854   6.985 -0.1003 -0.1092  0.1132
  429MOL0     C57811   6.324   6.758   6.945 -0.1619 -0.2461  0.5889
  429MOL0     C57812   6.345   6.634   7.015  0.2528 -0.3398  0.2524
  429MOL0     C57813   6.456   6.551   6.981 -0.3078  0.1592 -0.7651
  429MOL0     C57814   6.533   6.578   6.870 -0.2360 -0.0721 -1.1514
  429MOL0     O57815   6.632   6.486   6.838 -0.0539  0.1412  0.1163
  429MOL0     C57816   6.736   6.522   6.751  0.4323 -0.3826  0.0175
  429MOL0     C57817   6.845   6.414   6.747  0.3443  0.0379  0.2347
  429MOL0     C57818   6.964   6.472   6.669  0.4746  0.2198  0.2662
  429MOL0     C57819   7.069   6.560   6.751 -0.4649 -0.3084 -0.1545
  429MOL0     C57820   7.212   6.503   6.738  0.1417 -0.0697  0.1785
  429MOL0     C57821   7.315   6.563   6.816  0.4213 -0.6966 -0.4947
  429MOL0     C57822   7.451   6.505   6.808 -0.5530  0.6635 -0.2018
  429MOL0     C57823   7.543   6.590   6.898 -0.2440  1.0513  0.0434
  429MOL0    Cl57824   7.504   6.555   7.066  0.4278  0.0409  0.1591
  429MOL0     C57825   6.504   6.698   6.787 -0.1937 -0.7094  0.6873
  429MOL0     C57826   6.401   6.787   6.830 -0.4247 -1.0503 -0.3721
  429MOL0     O57827   6.063   6.742   6.881  0.0987  0.9368  0.1853
  429MOL0     C57828   6.041   7.047   7.084 -0.1623 -0.2741  0.6751
  429MOL0     C57829   5.944   7.134   7.134  0.4352  0.2599  0.4984
  429MOL0     N57830   5.283   7.248   6.949  0.2537  0.3027  0.1923
  429MOL0     N57831   5.171   7.239   6.885 -0.0559  0.5399 -0.1385
  429MOL0     C57832   4.025   7.538   6.672  0.6739  1.0397 -0.0998
  429MOL0     C57833   3.900   7.478   6.674  0.4129 -0.3755 -0.2370
  429MOL0     C57834   3.458   7.387   6.686  0.4307  0.5114 -0.2966
  429MOL0     C57835   3.353   7.387   6.594  0.8046 -1.3681  0.1929
  429MOL0     C57836   3.221   7.357   6.626 -0.2607 -0.0608 -0.3437
  429MOL0     C57837   3.182   7.321   6.758  0.7051  0.3399 -0.7066
  429MOL0     O57838   3.053   7.269   6.772 -0.7687  0.0524 -0.6670
  429MOL0     C57839   3.076   7.126   6.771 -0.2417 -0.3569  0.3002
  429MOL0     C57840   3.058   7.076   6.912  0.1039  0.7245 -0.4810
  429MOL0     C57841   2.906   7.070   6.933 -0.1269  0.4484  1.0260
  429MOL0     C57842   2.877   7.028   7.079  0.0027 -0.1121  0.0382
  429MOL0     C57843   2.859   6.884   7.076  0.1881 -0.5108  0.2153
  429MOL0     C57844   2.858   6.767   7.057 -0.7406  0.8528  0.1058
  429MOL0     C57845   3.280   7.331   6.853 -0.5790  0.3678  0.3869
  429MOL0     C57846   3.414   7.358   6.817 -0.1791 -0.5842  0.2741
  429MOL0     C57847   3.516   7.323   6.916  0.1987 -0.3441  0.2674
  429MOL0     H57848   3.710   7.763   6.636 -0.4975 -0.5256 -1.3955
  429MOL0     H57849   3.917   7.851   6.577 -3.0315  0.0268 -0.2751
  429MOL0     H57850   4.280   7.583   6.722  0.0407 -0.9519 -0.1896
  429MOL0     H57851   4.308   7.597   6.549 -1.2093  0.7829 -0.6651
  429MOL0     H57852   4.355   7.836   6.730  2.1318  0.7573 -0.0555
  429MOL0     H57853   4.434   7.791   6.575 -2.3720  1.6016 -0.6468
  429MOL0     H57854   4.545   7.594   6.696  0.2641 -1.1591  0.8197
  429MOL0     H57855   4.476   7.651   6.853  0.7316  0.7760  0.3511
  429MOL0     H57856   4.647   7.805   6.658 -2.6768  1.6809  0.6320
  429MOL0     H57857   4.606   7.865   6.819  2.8229  2.3292  0.3850
  429MOL0     H57858   4.836   7.791   6.805  2.5393 -2.6611  0.8863
  429MOL0     H57859   4.750   7.703   6.938 -0.9696  1.6556 -0.0743
  429MOL0     H57860   4.749   7.501   6.797  0.1559  0.8153  0.3387
  429MOL0     H57861   4.826   7.583   6.663  4.1201 -3.9734  0.1654
  429MOL0     H57862   4.965   7.572   6.933  1.9688  1.1233 -0.5768
  429MOL0     H57863   5.028   7.620   6.782 -1.7798 -0.6401 -3.8411
  429MOL0     H57864   4.927   7.342   6.832  1.7337 -1.2178  4.4686
  429MOL0     H57865   5.011   7.394   6.685  1.5163  0.8164  0.5527
  429MOL0     H57866   5.222   7.560   6.889 -2.0532  1.1918  4.5895
  429MOL0     H57867   5.469   7.525   6.981 -1.2389 -0.6505 -0.8060
  429MOL0     H57868   5.460   7.413   7.119  2.1427 -0.9097  0.8956
  429MOL0     H57869   5.544   7.222   6.945 -0.2806  0.3489 -0.8836
  429MOL0     H57870   5.584   7.362   6.843 -2.2146 -0.1756 -0.0928
  429MOL0     H57871   5.731   7.461   7.015  5.2943 -0.2421  0.7067
  429MOL0     H57872   5.783   7.299   6.973 -1.6588 -1.4404  0.0775
  429MOL0     H57873   5.635   7.352   7.249  1.3643  0.3601  0.4642
  429MOL0     H57874   5.805   7.348   7.214 -0.6461  1.2246  1.8915
  429MOL0     H57875   5.661   6.963   7.047 -0.8431  2.3491  0.3551
  429MOL0     H57876   5.846   6.821   6.922  3.0435 -0.7930 -1.7018
  429MOL0     H57877   6.278   6.612   7.097 -0.2015 -2.9081 -0.7315
  429MOL0     H57878   6.473   6.463   7.042 -4.0731 -0.4901 -0.4258
  429MOL0     H57879   6.705   6.551   6.650 -0.1866  0.3783  0.4147
  429MOL0     H57880   6.791   6.610   6.783  0.3916  0.3162 -1.7007
  429MOL0     H57881   6.870   6.397   6.852 -1.6403 -2.1821  0.4230
  429MOL0     H57882   6.807   6.324   6.698  2.8043 -1.6625  1.2905
  429MOL0     H57883   7.018   6.383   6.636  0.7043 -0.2861  1.9240
  429MOL0     H57884   6.929   6.528   6.581  2.0170 -0.7134 -1.0025
  429MOL0     H57885   7.041   6.558   6.857 -0.2979  1.4450 -0.0549
  429MOL0     H57886   7.061   6.662   6.712  4.6630  0.2904 -0.3728
  429MOL0     H57887   7.235   6.514   6.631  0.1140  1.2060  0.2891
  429MOL0     H57888   7.200   6.397   6.762 -3.7023  0.6085  1.9975
  429MOL0     H57889   7.317   6.671   6.794  0.7304  0.0083  2.5457
  429MOL0     H57890   7.284   6.552   6.920 -1.0564  1.1892 -0.6694
  429MOL0     H57891   7.482   6.532   6.706 -0.7237 -1.1128 -0.7600
  429MOL0     H57892   7.456   6.396   6.818 -2.8355  0.4918 -0.4191
  429MOL0     H57893   7.643   6.551   6.876 -0.3903 -0.0791  1.2641
  429MOL0     H57894   7.537   6.694   6.866  1.2611  0.3831 -2.7073
  429MOL0     H57895   6.556   6.722   6.695  0.3668 -0.0438  1.1674
  429MOL0     H57896   6.401   6.884   6.780 -1.7013 -0.9431 -0.1797
  429MOL0     H57897   6.146   7.070   7.102 -0.2434  0.0922  0.6867
  429MOL0     H57898   5.983   7.218   7.190  3.9703 -0.5987 -0.4740
  429MOL0     H57899   4.108   7.472   6.695  0.0412 -0.0999 -1.0279
  429MOL0     H57900   3.893   7.375   6.706 -0.3003  0.0398  1.0364
  429MOL0     H57901   3.376   7.417   6.492  3.8115 -1.6817  0.6990
  429MOL0     H57902   3.145   7.366   6.549 -0.2954 -0.1490 -0.3196
  429MOL0     H57903   3.176   7.098   6.736  1.4043  3.2317  1.6439
  429MOL0     H57904   3.006   7.073   6.705  1.1543 -1.5570 -0.2796
  429MOL0     H57905   3.123   7.136   6.977 -0.3987 -0.3688  1.1141
  429MOL0     H57906   3.085   6.970   6.923 -1.3864  0.1080 -2.2625
  429MOL0     H57907   2.862   7.002   6.859  0.5707  2.4317 -1.3354
  429MOL0     H57908   2.861   7.170   6.929 -1.1139  0.0551  1.8293
  429MOL0     H57909   2.953   7.070   7.146  0.0401 -0.1907  0.0447
  429MOL0     H57910   2.781   7.065   7.116  0.3615  1.5095 -0.5611
  429MOL0     H57911   2.863   6.661   7.042  3.1922  0.5364  2.3200
  429MOL0     H57912   3.259   7.303   6.956  0.7580  0.1540  0.6200
  429MOL0     H57913   3.591   7.254   6.876  1.2347  0.6169  0.4989
  429MOL0     H57914   3.569   7.414   6.947 -0.1413 -0.5168  1.3816
  429MOL0     H57915   3.477   7.273   7.005  0.8782 -0.4478  0.5059
  430MOL0     O57916   1.203   2.671   5.687  0.4174  0.0137 -0.4247
  430MOL0     C57917   1.099   2.733   5.705 -0.1151 -0.0679 -0.9223
  430MOL0     O57918   1.094   2.852   5.768  0.0111 -0.1662 -0.2931
  430MOL0     C57919   1.204   2.900   5.829 -0.3988 -0.5067 -0.0306
  430MOL0     C57920   1.281   3.002   5.769 -0.8232  0.7186 -0.8214
  430MOL0     C57921   1.400   3.029   5.837  0.4409  0.5008  0.6258
  430MOL0     C57922   1.444   2.958   5.950  0.0267 -1.1609 -0.1096
  430MOL0     O57923   1.561   3.000   6.013  0.4058 -0.0474 -0.0400
  430MOL0     C57924   1.641   2.919   6.107  0.4260  0.3764  0.0215
  430MOL0     C57925   1.702   2.804   6.031  0.1670 -0.1714 -0.4004
  430MOL0     C57926   1.838   2.848   5.960  0.6465 -0.0375 -0.0859
  430MOL0     C57927   1.913   2.733   5.910 -0.8392 -1.3237 -0.7859
  430MOL0     C57928   2.039   2.776   5.837 -0.1494 -0.4679 -0.5490
  430MOL0     C57929   2.134   2.661   5.801 -0.3281 -0.4233 -0.1246
  430MOL0     C57930   2.285   2.703   5.767  0.5548  0.5799 -0.7833
  430MOL0     C57931   2.357   2.712   5.897 -0.1460  0.0997  0.0802
  430MOL0     N57932   2.499   2.752   5.863  0.2098  0.1386 -0.8997
  430MOL0     C57933   2.605   2.674   5.814  0.5359 -0.1380 -0.0773
  430MOL0     C57934   2.711   2.756   5.816  0.3250  0.3056  1.1995
  430MOL0     C57935   2.839   2.708   5.759  0.0881 -0.4751  0.1789
  430MOL0     C57936   2.936   2.664   5.873  0.7311 -0.0163  0.2675
  430MOL0     C57937   2.963   2.776   5.972  0.3569  0.0111  0.4700
  430MOL0     C57938   3.066   2.736   6.087  0.1473 -0.5212 -0.6293
  430MOL0     O57939   3.194   2.740   6.026 -0.3811 -0.4706 -0.3179
  430MOL0     C57940   3.304   2.712   6.100 -0.6242 -0.0050 -0.1878
  430MOL0     C57941   3.424   2.701   6.034  0.1410 -0.1901 -0.2489
  430MOL0     C57942   3.542   2.673   6.092 -0.4299  0.4609  0.2338
  430MOL0     C57943   3.546   2.655   6.231 -0.2986  1.0036  0.1627
  430MOL0     C57944   3.676   2.620   6.290  1.2587 -0.6968 -0.1686
  430MOL0     O57945   3.789   2.594   6.214 -0.9049 -0.3027 -0.8567
  430MOL0     C57946   3.885   2.529   6.281 -0.0784 -0.4703 -0.4519
  430MOL0     C57947   3.885   2.390   6.317 -0.6191  0.9598 -0.3435
  430MOL0     C57948   3.992   2.344   6.401 -0.2490  0.0326 -0.4380
  430MOL0     C57949   4.102   2.416   6.433 -0.1146  0.2807 -0.4209
  430MOL0     O57950   4.193   2.341   6.508 -0.0045 -0.4003  0.3515
  430MOL0     C57951   4.332   2.368   6.485  0.8072  0.6489 -0.0046
  430MOL0     C57952   4.414   2.257   6.549  0.0478  0.5869 -0.2571
  430MOL0     C57953   4.382   2.116   6.499 -0.8790  0.0560  0.0251
  430MOL0     C57954   4.285   2.047   6.594 -0.0484  1.0699 -0.7401
  430MOL0     C57955   4.269   1.899   6.573 -0.0569  0.5143 -0.2770
  430MOL0     C57956   4.172   1.841   6.679 -0.6421  0.3592  0.0404
  430MOL0     C57957   4.150   1.690   6.655 -0.4649 -0.5165 -0.0845
  430MOL0     C57958   4.030   1.641   6.738 -0.6841  0.7613  0.2887
  430MOL0    Cl57959   4.071   1.653   6.907 -0.2689  0.3611 -0.6953
  430MOL0     C57960   4.113   2.544   6.387  0.0675 -0.8335 -0.1873
  430MOL0     C57961   4.002   2.596   6.311 -0.4614 -0.5911 -1.0407
  430MOL0     O57962   3.669   2.611   6.418  0.1931 -0.6555  0.2991
  430MOL0     C57963   3.426   2.668   6.301  0.5213  0.9576  0.9185
  430MOL0     C57964   3.305   2.683   6.238 -0.0375  0.1782  0.5170
  430MOL0     N57965   2.674   2.879   5.862 -0.1466  0.4004  1.1616
  430MOL0     N57966   2.552   2.869   5.902  0.4406 -0.1499  0.0357
  430MOL0     C57967   1.370   2.857   5.997 -0.7937 -0.0754  0.5179
  430MOL0     C57968   1.248   2.829   5.938 -0.2262  0.3996 -0.0291
  430MOL0     C57969   0.964   2.690   5.654 -1.6904 -1.0301 -0.6014
  430MOL0     C57970   0.950   2.640   5.522  0.3553  0.2235 -0.4179
  430MOL0     C57971   0.831   2.610   5.468  0.0262 -0.4718  0.2588
  430MOL0     C57972   0.717   2.603   5.540  0.1266 -0.7573 -0.3725
  430MOL0     O57973   0.600   2.543   5.503 -0.3054  0.4685  0.7636
  430MOL0     C57974   0.578   2.527   5.367  0.5734  0.2144  0.3325
  430MOL0     C57975   0.434   2.467   5.355 -0.5741 -0.2673 -0.2503
  430MOL0     C57976   0.320   2.576   5.369 -0.1223  0.6412 -0.0472
  430MOL0     C57977   0.188   2.499   5.377 -0.2029  0.0350 -0.9035
  430MOL0     C57978   0.071   2.574   5.411  0.7290 -0.0358  0.3276
  430MOL0     C57979  -0.025   2.645   5.440 -1.1854 -0.0094 -0.4479
  430MOL0     C57980   0.728   2.642   5.674 -0.1775  0.2128 -0.1235
  430MOL0     C57981   0.845   2.690   5.737  0.0505 -0.2160 -0.8972
  430MOL0     C57982   0.830   2.732   5.884  0.2196 -0.5329  0.1520
  430MOL0     H57983   1.233   3.051   5.684 -2.1697 -0.7203 -0.9330
  430MOL0     H57984   1.463   3.103   5.788 -0.3373  0.0841 -1.1046
  430MOL0     H57985   1.722   2.974   6.155 -0.3196  2.2357 -0.7485
  430MOL0     H57986   1.582   2.891   6.194 -3.4368  2.7002 -1.5732
  430MOL0     H57987   1.635   2.767   5.952  0.6200  1.9421 -1.8795
  430MOL0     H57988   1.715   2.728   6.108 -0.6717  0.5588  0.4971
  430MOL0     H57989   1.895   2.911   6.029 -0.0906 -0.7696  1.2240
  430MOL0     H57990   1.808   2.914   5.877  3.7241  0.3255 -1.0126
  430MOL0     H57991   1.943   2.671   5.995 -2.5233  2.9824  3.3644
  430MOL0     H57992   1.852   2.671   5.843 -1.5234 -1.5269  0.0156
  430MOL0     H57993   2.005   2.826   5.746 -2.8941 -3.0172 -1.1085
  430MOL0     H57994   2.091   2.853   5.895 -0.3903  0.1189 -1.1005
  430MOL0     H57995   2.128   2.577   5.871  1.6439  1.0095  1.9064
  430MOL0     H57996   2.098   2.620   5.706  3.0448  0.0933 -1.7593
  430MOL0     H57997   2.286   2.797   5.711 -2.2682  1.4713  0.4259
  430MOL0     H57998   2.327   2.629   5.698 -0.5315 -0.4505 -0.3741
  430MOL0     H57999   2.316   2.784   5.969 -0.3444  1.3926 -1.2785
  430MOL0     H58000   2.362   2.613   5.942  1.8408 -0.5369 -1.3872
  430MOL0     H58001   2.590   2.577   5.768  0.2296  0.5005 -1.3711
  430MOL0     H58002   2.815   2.629   5.688 -0.8539  0.8740 -1.0823
  430MOL0     H58003   2.873   2.798   5.708 -1.7912  0.1733 -0.0247
  430MOL0     H58004   2.899   2.573   5.921 -0.2480 -0.7518 -1.7770
  430MOL0     H58005   3.032   2.638   5.829  0.6872 -1.2783  0.8729
  430MOL0     H58006   2.871   2.805   6.022 -0.0321 -3.0007  1.6747
  430MOL0     H58007   2.994   2.867   5.920 -2.8404  1.1934  0.4147
  430MOL0     H58008   3.034   2.642   6.133 -0.7501  0.0918  0.0176
  430MOL0     H58009   3.058   2.814   6.163  2.7599 -1.5516  0.8398
  430MOL0     H58010   3.412   2.709   5.927  2.1456  1.4372 -0.4014
  430MOL0     H58011   3.620   2.659   6.017 -1.5171 -1.7455 -0.5754
  430MOL0     H58012   3.812   2.325   6.271 -1.1836  1.3295  0.0262
  430MOL0     H58013   3.997   2.240   6.432  3.0920  0.1492 -0.2077
  430MOL0     H58014   4.370   2.350   6.384 -3.5411 -2.7910 -1.3562
  430MOL0     H58015   4.354   2.474   6.503 -2.2386  1.8288 -2.4378
  430MOL0     H58016   4.520   2.267   6.524 -0.2886 -2.8650 -4.1189
  430MOL0     H58017   4.394   2.260   6.657  0.1098  0.5861 -0.2455
  430MOL0     H58018   4.339   2.136   6.400 -2.5678  2.5530  1.1527
  430MOL0     H58019   4.468   2.049   6.496 -1.4836 -0.8631  1.7492
  430MOL0     H58020   4.189   2.098   6.577  0.5452  1.9247 -1.7000
  430MOL0     H58021   4.318   2.065   6.696 -0.7529 -0.2564 -0.2605
  430MOL0     H58022   4.370   1.866   6.597 -0.6546  0.4087  2.3914
  430MOL0     H58023   4.238   1.864   6.474  0.8926 -5.6672  1.2204
  430MOL0     H58024   4.225   1.851   6.774 -2.2337  2.9701  0.7712
  430MOL0     H58025   4.083   1.901   6.700  1.9269  3.4786  3.5114
  430MOL0     H58026   4.239   1.629   6.668  0.2341  0.0801 -1.7532
  430MOL0     H58027   4.119   1.677   6.550 -0.5471  0.3503 -0.1785
  430MOL0     H58028   3.944   1.701   6.706  0.5997  1.4913 -1.9639
  430MOL0     H58029   4.001   1.539   6.709 -0.3950  0.8227 -0.2196
  430MOL0     H58030   4.195   2.611   6.411 -0.8772  0.8460 -1.4471
  430MOL0     H58031   4.000   2.703   6.293 -2.9064  0.6617  4.5158
  430MOL0     H58032   3.417   2.653   6.408  0.3991 -0.6689  0.7075
  430MOL0     H58033   3.215   2.681   6.298 -0.1217  1.6349  0.4701
  430MOL0     H58034   1.406   2.829   6.096 -2.1656  0.4451  1.1854
  430MOL0     H58035   1.185   2.759   5.991  0.9007 -2.7067 -2.4320
  430MOL0     H58036   1.034   2.609   5.460 -0.2350  0.4695 -1.3525
  430MOL0     H58037   0.833   2.575   5.365 -1.3261 -1.7826  0.6409
  430MOL0     H58038   0.656   2.455   5.339  0.1351  0.0276 -0.4673
  430MOL0     H58039   0.592   2.620   5.311  1.5715 -0.2236 -0.1796
  430MOL0     H58040   0.419   2.384   5.426 -2.6557 -1.8775 -2.4074
  430MOL0     H58041   0.424   2.419   5.257  1.9714 -0.3892 -0.5187
  430MOL0     H58042   0.310   2.644   5.284 -1.7893  0.8978  0.3276
  430MOL0     H58043   0.338   2.625   5.465 -1.0012  0.2518  0.3236
  430MOL0     H58044   0.161   2.440   5.289 -0.2237 -0.7728 -0.3707
  430MOL0     H58045   0.203   2.425   5.456  4.2331 -0.3519 -1.8087
  430MOL0     H58046  -0.107   2.710   5.458  0.0771  1.5933 -0.2595
  430MOL0     H58047   0.638   2.620   5.730 -0.4228  0.6406 -0.3462
  430MOL0     H58048   0.743   2.684   5.930  0.6010  0.9860  2.6830
  430MOL0     H58049   0.918   2.704   5.944 -1.0770 -1.6061  1.6155
  430MOL0     H58050   0.823   2.841   5.890  2.2255 -0.3248 -0.3519
  431MOL0     O58051   8.817   9.774   9.900  0.7988 -0.5137 -0.6553
  431MOL0     C58052   8.798   9.798   9.782 -0.6466  0.3049 -0.6215
  431MOL0     O58053   8.685   9.779   9.710  0.4690  0.5348 -0.6750
  431MOL0     C58054   8.568   9.726   9.759  0.6165 -0.1546  0.4940
  431MOL0     C58055   8.453   9.778   9.695 -0.0759 -0.0551 -0.1930
  431MOL0     C58056   8.324   9.732   9.729  0.7583  0.2896  1.1361
  431MOL0     C58057   8.304   9.647   9.840  0.4289  0.1463  0.1894
  431MOL0     O58058   8.173   9.601   9.865 -0.2098  0.1770 -0.9498
  431MOL0     C58059   8.145   9.506   9.973 -0.7005 -0.9263  0.4560
  431MOL0     C58060   8.017   9.430   9.939 -0.0276  0.7407  0.1142
  431MOL0     C58061   7.891   9.526   9.929  0.3124 -0.9641 -0.3946
  431MOL0     C58062   7.769   9.448   9.886  0.1336  0.1240  0.0870
  431MOL0     C58063   7.659   9.527   9.813 -0.6055 -0.3649 -0.3703
  431MOL0     C58064   7.569   9.630   9.874 -0.3863 -0.6912  0.1051
  431MOL0     C58065   7.507   9.587  10.012  0.4670  0.3413  0.0416
  431MOL0     C58066   7.388   9.678  10.033 -0.5325  0.1802  0.0169
  431MOL0     N58067   7.430   9.821  10.044 -0.6988  0.5531 -0.2395
  431MOL0     C58068   7.495   9.878  10.159 -0.3274 -0.3359 -0.0206
  431MOL0     C58069   7.519  10.004  10.120 -0.3298 -0.3978 -0.0988
  431MOL0     C58070   7.575  10.112  10.214  0.2696 -0.6209  0.0070
  431MOL0     C58071   7.660  10.212  10.141 -0.2122 -0.9433 -0.2916
  431MOL0     C58072   7.673  10.350  10.199 -0.5686  0.5057  0.0211
  431MOL0     C58073   7.768  10.434  10.116 -0.2785 -0.1577  0.0039
  431MOL0     O58074   7.895  10.373  10.092  0.7063 -0.5491 -0.7912
  431MOL0     C58075   7.995  10.453  10.030  0.2357 -0.0625  0.2455
  431MOL0     C58076   8.108  10.393   9.979  0.2464 -0.1275  0.1894
  431MOL0     C58077   8.209  10.474   9.930 -0.2811  1.0202 -0.5248
  431MOL0     C58078   8.212  10.607   9.910  0.5812 -0.5406 -1.0631
  431MOL0     C58079   8.326  10.676   9.857 -0.2545  0.1046 -0.0435
  431MOL0     O58080   8.443  10.613   9.816 -0.5905  0.5926  0.5017
  431MOL0     C58081   8.560  10.682   9.763 -0.3504  0.6229 -0.1767
  431MOL0     C58082   8.621  10.791   9.820  0.4365  0.1139 -1.0638
  431MOL0     C58083   8.724  10.866   9.761 -0.4910  0.1699  0.6241
  431MOL0     C58084   8.760  10.828   9.625  0.1084  0.4365 -0.5310
  431MOL0     O58085   8.855  10.914   9.559  0.1955  0.3536  0.4474
  431MOL0     C58086   8.913  10.857   9.437  0.3493 -0.6741 -0.8189
  431MOL0     C58087   9.055  10.910   9.410  0.2181 -0.4234  0.6956
  431MOL0     C58088   9.051  11.057   9.362  1.0760  0.2433 -0.0637
  431MOL0     C58089   9.190  11.117   9.340 -0.5284 -0.4238  0.2074
  431MOL0     C58090   9.231  11.099   9.200 -0.1304  0.0416 -0.2116
  431MOL0     C58091   9.361  11.180   9.179  0.1986 -0.1323 -0.4883
  431MOL0     C58092   9.397  11.162   9.031  0.3749 -0.4692 -0.5890
  431MOL0     C58093   9.502  11.276   8.994 -0.5565 -0.7642 -0.3657
  431MOL0    Cl58094   9.660  11.225   9.070  0.2845 -0.0725  0.0216
  431MOL0     C58095   8.698  10.721   9.558  0.7551  0.4439 -0.1077
  431MOL0     C58096   8.607  10.645   9.636 -0.4379  0.2036  0.5554
  431MOL0     O58097   8.318  10.796   9.870 -0.2800  0.4710  0.4057
  431MOL0     C58098   8.086  10.668   9.947 -0.3868  0.8300 -0.7655
  431MOL0     C58099   7.983  10.591  10.008  0.3420 -0.7857  0.1402
  431MOL0     N58100   7.466  10.025   9.990  0.3172  0.5095  0.2111
  431MOL0     N58101   7.417   9.914   9.948 -0.1182 -0.0041  0.4482
  431MOL0     C58102   8.417   9.606   9.905  1.2824  0.8061  0.9300
  431MOL0     C58103   8.545   9.635   9.860 -0.1193 -0.1785 -0.2537
  431MOL0     C58104   8.911   9.860   9.699 -0.2132 -0.4337 -0.1294
  431MOL0     C58105   8.877   9.918   9.579  0.0892  0.2557  0.3108
  431MOL0     C58106   8.967   9.975   9.495  0.4262  0.4089  0.1600
  431MOL0     C58107   9.104   9.985   9.522 -0.2521 -0.5764  0.3775
  431MOL0     O58108   9.191  10.033   9.425 -0.4953 -0.6227 -0.3560
  431MOL0     C58109   9.311  10.087   9.476  0.0991 -0.3203  0.1016
  431MOL0     C58110   9.362  10.196   9.384 -0.1975  0.2645 -0.4186
  431MOL0     C58111   9.508  10.242   9.424  0.1417  0.3278 -0.4720
  431MOL0     C58112   9.611  10.142   9.368 -0.1813  0.5369 -0.6439
  431MOL0     C58113   9.753  10.187   9.396  0.4622 -0.1692  0.0014
  431MOL0     C58114   9.862  10.229   9.436 -0.2175  0.2938 -0.0016
  431MOL0     C58115   9.143   9.921   9.646  0.3312 -0.4594  0.6619
  431MOL0     C58116   9.050   9.868   9.738  0.4798  0.5706 -0.5397
  431MOL0     C58117   9.101   9.824   9.874 -0.3139  0.1889  0.6715
  431MOL0     H58118   8.458   9.854   9.618 -2.2758  0.3324 -0.0069
  431MOL0     H58119   8.242   9.767   9.667  1.2495 -2.9003 -1.5870
  431MOL0     H58120   8.217   9.426   9.990 -0.7697 -0.9306  0.7281
  431MOL0     H58121   8.132   9.555  10.070  1.9210  1.3711 -0.2063
  431MOL0     H58122   8.018   9.349  10.012  1.3674  1.5910  1.0854
  431MOL0     H58123   8.035   9.379   9.844  2.5104 -2.1112  1.9496
  431MOL0     H58124   7.912   9.604   9.856  0.2961 -1.3078 -0.7700
  431MOL0     H58125   7.882   9.576  10.026 -0.2580 -1.0486 -0.3978
  431MOL0     H58126   7.804   9.365   9.823  1.8352 -0.7506  2.0804
  431MOL0     H58127   7.726   9.391   9.969  1.4266  0.7080  1.1888
  431MOL0     H58128   7.713   9.577   9.732 -0.2019 -0.3322 -0.0842
  431MOL0     H58129   7.595   9.453   9.764  1.7535 -2.3732 -0.6171
  431MOL0     H58130   7.631   9.712   9.910  1.8569 -3.0178  1.8577
  431MOL0     H58131   7.498   9.664   9.798  1.2271  0.1282 -1.0801
  431MOL0     H58132   7.578   9.582  10.096  0.4144  1.6531  0.1813
  431MOL0     H58133   7.460   9.489   9.999 -0.4558  0.9068 -1.0383
  431MOL0     H58134   7.316   9.666   9.952  0.5570 -1.9732 -0.6883
  431MOL0     H58135   7.330   9.641  10.118 -0.4334  0.6326  0.2858
  431MOL0     H58136   7.521   9.821  10.248  0.5635 -0.3629 -0.2855
  431MOL0     H58137   7.486  10.161  10.256 -0.5899 -0.0139 -2.3298
  431MOL0     H58138   7.644  10.077  10.291  2.1470  1.6185 -0.5606
  431MOL0     H58139   7.759  10.168  10.127  0.0764 -0.0572 -1.1564
  431MOL0     H58140   7.628  10.230  10.038 -1.8686  0.8793  0.4772
  431MOL0     H58141   7.705  10.341  10.303 -0.7380 -2.3887 -0.1183
  431MOL0     H58142   7.573  10.393  10.191 -1.2156 -1.0942 -0.8256
  431MOL0     H58143   7.784  10.531  10.163  0.1893 -0.2651  0.0656
  431MOL0     H58144   7.736  10.461  10.015  2.8513 -1.6742 -1.5008
  431MOL0     H58145   8.114  10.285   9.985 -0.2257 -0.0981  1.8037
  431MOL0     H58146   8.297  10.416   9.907 -1.4644 -1.4652  0.8652
  431MOL0     H58147   8.585  10.832   9.913  0.7953 -3.0906  0.6111
  431MOL0     H58148   8.770  10.948   9.815  1.2225 -0.0685 -0.4138
  431MOL0     H58149   8.926  10.749   9.427 -0.8383 -0.7073 -2.4913
  431MOL0     H58150   8.844  10.887   9.358  3.0244  2.7327 -2.0787
  431MOL0     H58151   9.112  10.904   9.504  1.0257 -1.1205  0.1753
  431MOL0     H58152   9.104  10.853   9.331 -2.9633 -2.0559 -0.2416
  431MOL0     H58153   8.989  11.061   9.271 -0.0424  2.2171  0.7132
  431MOL0     H58154   8.987  11.117   9.427 -1.4097 -1.2969 -0.9323
  431MOL0     H58155   9.252  11.073   9.418 -2.9369 -1.0572  1.8537
  431MOL0     H58156   9.184  11.224   9.359  0.1463 -0.5929  1.4611
  431MOL0     H58157   9.161  11.139   9.126 -0.9428 -1.5842 -0.3474
  431MOL0     H58158   9.244  10.996   9.168  1.6156 -0.1148  0.8695
  431MOL0     H58159   9.340  11.284   9.207 -2.1406 -0.7704  0.3246
  431MOL0     H58160   9.445  11.153   9.243  2.3481  1.7596 -2.3013
  431MOL0     H58161   9.311  11.179   8.965  0.9213  2.7021 -0.6325
  431MOL0     H58162   9.438  11.062   9.014 -0.0536 -1.2864  2.6395
  431MOL0     H58163   9.517  11.296   8.887  1.5334  2.4187  0.3803
  431MOL0     H58164   9.469  11.370   9.039 -1.8070 -2.3636  2.2872
  431MOL0     H58165   8.717  10.684   9.458  2.1662 -0.7099  0.5510
  431MOL0     H58166   8.557  10.565   9.582 -2.8563  1.6290  0.5678
  431MOL0     H58167   8.068  10.775   9.937 -1.6833  1.0260  2.5735
  431MOL0     H58168   7.896  10.647  10.039 -0.9479 -2.7408  0.2189
  431MOL0     H58169   8.404   9.528   9.979 -1.5128  1.9991  1.8091
  431MOL0     H58170   8.633   9.614   9.920 -0.3535 -2.4761 -0.6100
  431MOL0     H58171   8.775   9.920   9.541  0.1511  0.9563  0.1561
  431MOL0     H58172   8.940  10.006   9.394  0.9242  0.1574 -0.0534
  431MOL0     H58173   9.395  10.017   9.483 -0.6131 -1.4056 -1.4712
  431MOL0     H58174   9.294  10.124   9.578 -2.6353 -0.3872 -0.2519
  431MOL0     H58175   9.293  10.281   9.390 -0.3005  0.5084 -3.4329
  431MOL0     H58176   9.362  10.154   9.283  0.0533  0.8869 -0.6820
  431MOL0     H58177   9.521  10.246   9.532  3.6269 -1.7760 -0.6738
  431MOL0     H58178   9.527  10.347   9.400  1.6004  0.7633  2.2011
  431MOL0     H58179   9.595  10.041   9.408 -2.7958  1.3884  0.7517
  431MOL0     H58180   9.597  10.129   9.261  2.0547 -1.7915 -0.7366
  431MOL0     H58181   9.956  10.248   9.482  0.6726 -2.0299 -0.7097
  431MOL0     H58182   9.247   9.911   9.675  1.8654  2.6644 -2.8433
  431MOL0     H58183   9.210   9.819   9.880 -0.2761 -1.5549 -0.7846
  431MOL0     H58184   9.069   9.882   9.961  1.1438 -0.6375  1.8051
  431MOL0     H58185   9.066   9.721   9.881 -1.8129  0.5521 -0.9706
  432MOL0     O58186   3.615   1.880   4.436  0.1067  0.4212  0.1946
  432MOL0     C58187   3.650   1.896   4.322  0.0632  0.1437  0.9036
  432MOL0     O58188   3.733   1.811   4.245 -0.3426 -0.4621 -0.1447
  432MOL0     C58189   3.774   1.695   4.301 -0.3338 -0.0124 -0.2908
  432MOL0     C58190   3.704   1.575   4.261 -0.4265 -0.5601 -0.0989
  432MOL0     C58191   3.758   1.446   4.301 -0.6114 -0.5349 -0.2901
  432MOL0     C58192   3.871   1.444   4.395  0.2773 -0.4014  0.1982
  432MOL0     O58193   3.930   1.325   4.443 -0.1931 -0.2530  0.0706
  432MOL0     C58194   3.874   1.296   4.574 -0.1838 -0.1597  0.0657
  432MOL0     C58195   3.923   1.175   4.648 -0.1840  0.8712  0.5567
  432MOL0     C58196   3.988   1.199   4.785  0.2494  0.4026 -0.2785
  432MOL0     C58197   4.123   1.269   4.779  0.6493 -0.0592  0.3121
  432MOL0     C58198   4.178   1.287   4.923 -0.5952 -0.4343 -0.3365
  432MOL0     C58199   4.316   1.343   4.903  0.2551 -0.2540  0.4024
  432MOL0     C58200   4.427   1.254   4.857 -0.3251  0.0269 -0.4177
  432MOL0     C58201   4.563   1.327   4.841  0.4315  0.3779 -0.2505
  432MOL0     N58202   4.665   1.233   4.783  0.0763 -0.2838 -0.0086
  432MOL0     C58203   4.731   1.136   4.860  0.0152  0.0332  0.2907
  432MOL0     C58204   4.802   1.062   4.771 -0.1694  0.0288 -0.6769
  432MOL0     C58205   4.895   0.947   4.806  0.8338 -0.0421 -0.1506
  432MOL0     C58206   5.043   0.981   4.777 -0.0556  0.5892 -0.7909
  432MOL0     C58207   5.138   0.860   4.803  0.1598  0.4866  0.3529
  432MOL0     C58208   5.108   0.785   4.926  0.0024  0.2721  0.0409
  432MOL0     O58209   5.212   0.692   4.946 -0.3606  0.4486  0.1980
  432MOL0     C58210   5.340   0.726   4.994 -0.8666  0.0482  0.2229
  432MOL0     C58211   5.430   0.624   5.006  0.6191  0.7336  0.0482
  432MOL0     C58212   5.566   0.636   5.034 -0.1249  0.3984  0.0723
  432MOL0     C58213   5.612   0.770   5.045  0.6168  0.5027  0.4863
  432MOL0     C58214   5.750   0.790   5.070 -0.9162 -0.5362  0.4053
  432MOL0     O58215   5.832   0.675   5.063  0.0543  0.2695 -0.5912
  432MOL0     C58216   5.971   0.679   5.065 -0.0920  0.0236 -0.3917
  432MOL0     C58217   6.032   0.560   5.103  0.3047 -0.0300 -0.5706
  432MOL0     C58218   6.170   0.551   5.119  0.1578 -0.6683  1.0880
  432MOL0     C58219   6.255   0.653   5.087  0.1592 -0.4417 -0.1259
  432MOL0     O58220   6.389   0.632   5.096 -0.4758 -0.6445  0.3421
  432MOL0     C58221   6.482   0.739   5.058 -0.0925 -0.0279 -0.8713
  432MOL0     C58222   6.629   0.680   5.070  1.1708  0.6008 -0.3033
  432MOL0     C58223   6.671   0.667   5.214 -0.3190  0.5384 -0.1442
  432MOL0     C58224   6.819   0.613   5.212  0.5438  0.4196  0.3968
  432MOL0     C58225   6.884   0.607   5.350 -0.7266 -0.4193 -0.9919
  432MOL0     C58226   7.032   0.556   5.346  0.9959  1.0776  0.3381
  432MOL0     C58227   7.081   0.528   5.489 -0.4919 -0.5149 -0.6991
  432MOL0     C58228   7.236   0.517   5.514 -0.2434  0.0077  0.5172
  432MOL0    Cl58229   7.271   0.493   5.694  0.6093 -0.5480  0.3770
  432MOL0     C58230   6.194   0.774   5.040 -0.2575  0.6658 -0.5370
  432MOL0     C58231   6.055   0.785   5.037 -0.1135  0.1006 -0.0855
  432MOL0     O58232   5.797   0.903   5.081  0.2284 -0.2599  0.0869
  432MOL0     C58233   5.519   0.876   5.045 -0.1390 -0.4246  0.4541
  432MOL0     C58234   5.386   0.854   5.026 -0.5893 -0.2924 -0.0473
  432MOL0     N58235   4.763   1.101   4.644 -0.1829  0.3132  0.2667
  432MOL0     N58236   4.695   1.212   4.646  0.1730  0.4302  0.8561
  432MOL0     C58237   3.924   1.569   4.441 -0.4812  0.7078  0.0923
  432MOL0     C58238   3.883   1.686   4.386  0.8127 -0.5409  0.7635
  432MOL0     C58239   3.618   2.028   4.262  0.1118 -0.9389  0.2725
  432MOL0     C58240   3.676   2.063   4.136  0.0286 -0.2930 -0.6476
  432MOL0     C58241   3.644   2.181   4.065  0.2005  0.2542 -0.1948
  432MOL0     C58242   3.567   2.276   4.123 -0.0200 -0.8077  0.5117
  432MOL0     O58243   3.552   2.395   4.050  0.2621 -0.0293  0.1005
  432MOL0     C58244   3.455   2.488   4.101 -0.1204  0.0552 -0.0770
  432MOL0     C58245   3.425   2.606   4.009 -0.2566 -0.0086 -0.8267
  432MOL0     C58246   3.555   2.674   3.956  0.0270 -0.5243 -0.5638
  432MOL0     C58247   3.519   2.807   3.868 -0.3707 -0.1864 -0.3919
  432MOL0     C58248   3.429   2.798   3.753 -0.5765  1.2429 -0.5842
  432MOL0     C58249   3.346   2.773   3.662  0.1113  0.8610 -0.4982
  432MOL0     C58250   3.507   2.245   4.253 -0.4067  0.0208  0.6560
  432MOL0     C58251   3.519   2.116   4.314 -1.0254 -0.6830  0.3212
  432MOL0     C58252   3.427   2.082   4.424 -0.9133 -1.1721 -0.8890
  432MOL0     H58253   3.616   1.580   4.198 -0.3317 -0.8309 -0.2531
  432MOL0     H58254   3.695   1.366   4.265 -2.1139  1.2001 -1.7519
  432MOL0     H58255   3.883   1.385   4.637 -0.7652  0.3023 -0.4835
  432MOL0     H58256   3.765   1.287   4.560 -0.3363  1.4879 -0.0183
  432MOL0     H58257   4.000   1.143   4.578 -0.4242 -0.1201  0.7291
  432MOL0     H58258   3.842   1.102   4.658  0.3216  0.1172 -0.6660
  432MOL0     H58259   4.020   1.102   4.824 -0.1244  0.1067 -0.7002
  432MOL0     H58260   3.930   1.253   4.860  3.5405 -0.0272  2.8227
  432MOL0     H58261   4.186   1.205   4.716  0.9836 -1.1809  1.7340
  432MOL0     H58262   4.107   1.364   4.727 -1.2336  0.3723  1.5566
  432MOL0     H58263   4.118   1.358   4.981  0.5232 -0.7692  1.3220
  432MOL0     H58264   4.184   1.192   4.979 -0.6942 -1.0436 -1.3418
  432MOL0     H58265   4.302   1.428   4.835  1.3362  0.7681  1.3952
  432MOL0     H58266   4.358   1.380   4.997  4.4338 -1.5422 -0.7458
  432MOL0     H58267   4.412   1.223   4.754 -0.0393  0.0077 -0.4550
  432MOL0     H58268   4.430   1.166   4.922 -1.0970  1.1598  1.2063
  432MOL0     H58269   4.562   1.416   4.777  2.0128 -0.8135 -2.0338
  432MOL0     H58270   4.590   1.355   4.943 -0.5802 -1.0298  0.4320
  432MOL0     H58271   4.734   1.130   4.968 -0.5303 -1.2162  0.2563
  432MOL0     H58272   4.884   0.931   4.914 -0.6551  2.0005  0.0562
  432MOL0     H58273   4.870   0.858   4.748 -0.5802  1.2241 -1.5831
  432MOL0     H58274   5.047   1.006   4.670 -3.3337  2.3367 -0.6528
  432MOL0     H58275   5.084   1.060   4.840 -2.0071  2.0627 -1.2453
  432MOL0     H58276   5.241   0.895   4.800  0.2497  0.2144  0.3225
  432MOL0     H58277   5.128   0.793   4.717  0.1277  1.3556 -0.3345
  432MOL0     H58278   5.013   0.733   4.918 -1.2074  2.0520  1.9695
  432MOL0     H58279   5.102   0.830   5.026  0.8258 -0.0067  0.2245
  432MOL0     H58280   5.378   0.530   4.992  0.2215  1.0181 -0.4261
  432MOL0     H58281   5.635   0.552   5.040 -0.9515 -0.5094 -2.0457
  432MOL0     H58282   5.969   0.474   5.123  0.4941 -0.0627 -0.1059
  432MOL0     H58283   6.218   0.457   5.144 -1.3261 -1.8208 -0.2216
  432MOL0     H58284   6.456   0.787   4.963 -4.2861  5.4924  2.4813
  432MOL0     H58285   6.478   0.824   5.126 -0.0829 -0.2914 -0.5397
  432MOL0     H58286   6.622   0.580   5.026  0.1695  0.7244 -0.4655
  432MOL0     H58287   6.699   0.747   5.019  2.8381 -0.2074  0.8345
  432MOL0     H58288   6.663   0.758   5.274 -0.9345  0.3524  0.0610
  432MOL0     H58289   6.602   0.598   5.262 -1.1808  0.2170 -1.7706
  432MOL0     H58290   6.876   0.683   5.151 -1.2846  1.5481 -0.1202
  432MOL0     H58291   6.819   0.514   5.165  1.8163 -0.0203  1.2827
  432MOL0     H58292   6.817   0.547   5.411 -0.0689  1.2663  1.5642
  432MOL0     H58293   6.877   0.706   5.396  0.7001  0.9884 -3.5740
  432MOL0     H58294   7.028   0.463   5.290  0.1453  0.6658  1.0683
  432MOL0     H58295   7.087   0.630   5.287 -1.8036  1.6462 -1.7392
  432MOL0     H58296   7.039   0.435   5.528  1.7206 -0.5357  2.0636
  432MOL0     H58297   7.041   0.605   5.555 -0.1181 -2.3239  1.8203
  432MOL0     H58298   7.269   0.431   5.456 -2.1620 -0.5765  0.1990
  432MOL0     H58299   7.290   0.606   5.480 -0.6557  0.9043  2.0971
  432MOL0     H58300   6.257   0.856   5.004 -1.0409  0.6136 -2.1149
  432MOL0     H58301   6.014   0.874   4.990  0.1200 -0.0572 -0.6016
  432MOL0     H58302   5.550   0.978   5.064 -0.6128 -0.0953 -0.4458
  432MOL0     H58303   5.310   0.932   5.029 -3.5002 -2.9287  1.4439
  432MOL0     H58304   4.009   1.565   4.509  0.8821 -1.6395 -1.5755
  432MOL0     H58305   3.939   1.776   4.408 -1.6720  1.1508  0.6765
  432MOL0     H58306   3.749   1.996   4.092 -0.4249 -2.5868  1.8264
  432MOL0     H58307   3.694   2.218   3.976 -0.5593 -2.4303 -1.8676
  432MOL0     H58308   3.492   2.524   4.198 -1.1598 -1.2825  0.8618
  432MOL0     H58309   3.361   2.439   4.129 -0.0392  0.6855  1.3899
  432MOL0     H58310   3.373   2.676   4.075 -1.6700 -2.1628  0.4522
  432MOL0     H58311   3.367   2.569   3.925  1.0240 -2.0844 -0.8651
  432MOL0     H58312   3.610   2.610   3.886  0.1569 -1.9589  0.8201
  432MOL0     H58313   3.625   2.701   4.035 -1.8706  3.4770 -0.0020
  432MOL0     H58314   3.479   2.876   3.943  0.4121 -0.5745  0.4088
  432MOL0     H58315   3.607   2.860   3.830 -1.6807 -0.3398 -4.0602
  432MOL0     H58316   3.278   2.748   3.583 -0.5607 -1.2908  0.6707
  432MOL0     H58317   3.447   2.322   4.300  0.0522 -1.1430  3.3395
  432MOL0     H58318   3.477   2.086   4.521 -0.2079 -0.7426 -1.2596
  432MOL0     H58319   3.343   2.152   4.426  3.1078  4.3732 -2.4029
  432MOL0     H58320   3.385   1.982   4.414  0.9146 -2.1599  0.6568
  433MOL0     O58321   4.464   8.993   6.829 -1.4825  0.2522 -0.4855
  433MOL0     C58322   4.490   9.108   6.794  1.0977  0.5645  0.9192
  433MOL0     O58323   4.598   9.144   6.718  0.1222  0.1723  0.1526
  433MOL0     C58324   4.712   9.069   6.689 -0.2871  0.7624 -0.1636
  433MOL0     C58325   4.811   9.127   6.613 -1.0041  0.0913  1.4451
  433MOL0     C58326   4.927   9.060   6.581  0.0275  0.5683  0.6760
  433MOL0     C58327   4.956   8.931   6.622 -0.6307  0.2872 -0.2693
  433MOL0     O58328   5.071   8.875   6.573  0.5614 -0.2067 -0.5476
  433MOL0     C58329   5.112   8.739   6.609 -0.5522 -0.1625  0.6175
  433MOL0     C58330   5.242   8.713   6.539 -0.1746  0.6146 -0.5843
  433MOL0     C58331   5.356   8.766   6.636  0.4019 -0.0078  0.1886
  433MOL0     C58332   5.488   8.728   6.574  0.3095 -0.3974  0.4535
  433MOL0     C58333   5.597   8.814   6.632  0.6948 -0.7737  0.7714
  433MOL0     C58334   5.729   8.781   6.557  0.1615 -0.0003 -0.0444
  433MOL0     C58335   5.842   8.854   6.619 -0.6007  0.4825  0.6388
  433MOL0     C58336   5.859   8.820   6.762  0.2094  0.1389 -0.8786
  433MOL0     N58337   5.991   8.879   6.802  0.3148  0.0885  0.5542
  433MOL0     C58338   6.107   8.907   6.730  0.0303  0.9245 -0.5435
  433MOL0     C58339   6.200   8.942   6.818 -0.1711  0.5963 -0.5321
  433MOL0     C58340   6.339   8.974   6.786 -0.6067 -0.3656  0.5050
  433MOL0     C58341   6.442   8.862   6.752 -0.4720 -0.6704  0.7749
  433MOL0     C58342   6.577   8.923   6.717 -0.8042 -0.2895  0.3187
  433MOL0     C58343   6.683   8.806   6.706 -0.2421  1.0122  0.0403
  433MOL0     O58344   6.819   8.852   6.691 -0.3645  1.1197 -0.2363
  433MOL0     C58345   6.881   8.799   6.581 -0.0903  0.3345  0.5398
  433MOL0     C58346   7.025   8.792   6.590  0.0956 -0.1633  0.3838
  433MOL0     C58347   7.094   8.751   6.479  0.4015  0.5358 -0.7704
  433MOL0     C58348   7.036   8.730   6.355 -0.3317 -0.2127 -0.0438
  433MOL0     C58349   7.112   8.693   6.235  0.0830  0.7316  0.1307
  433MOL0     O58350   7.247   8.717   6.236 -0.2028  0.0092  0.1845
  433MOL0     C58351   7.317   8.741   6.110 -0.2840 -0.3002 -0.3787
  433MOL0     C58352   7.454   8.743   6.127  0.4075  0.3560 -0.0785
  433MOL0     C58353   7.545   8.764   6.023  0.6593  0.5307 -0.2064
  433MOL0     C58354   7.486   8.791   5.895  0.0987  0.2582  0.2869
  433MOL0     O58355   7.561   8.824   5.780 -0.3391 -0.4514 -0.6096
  433MOL0     C58356   7.691   8.762   5.772 -1.1467  0.4855  0.5148
  433MOL0     C58357   7.740   8.783   5.631  0.0947 -0.1835  0.5712
  433MOL0     C58358   7.898   8.779   5.613  1.4064  0.3059 -0.1448
  433MOL0     C58359   7.933   8.810   5.470  0.4189 -0.5701 -0.1845
  433MOL0     C58360   8.086   8.837   5.455 -0.5133  0.2674 -0.2811
  433MOL0     C58361   8.117   8.911   5.320 -0.1633 -0.1215 -0.4701
  433MOL0     C58362   8.264   8.902   5.288 -0.3535  0.4097  0.1833
  433MOL0     C58363   8.292   8.981   5.152 -0.5058  0.0351  1.0005
  433MOL0    Cl58364   8.226   8.880   5.023 -0.1604  0.3603  0.4220
  433MOL0     C58365   7.350   8.808   5.884 -0.0756  0.6058  0.5377
  433MOL0     C58366   7.267   8.770   5.986 -0.6445  0.0227 -0.4341
  433MOL0     O58367   7.050   8.646   6.135 -0.9160 -0.3301 -0.0308
  433MOL0     C58368   6.895   8.738   6.344  0.3241  0.0726  0.0607
  433MOL0     C58369   6.819   8.774   6.456 -0.0585 -0.0989 -0.0717
  433MOL0     N58370   6.136   8.946   6.943 -0.0272 -0.1952  0.3511
  433MOL0     N58371   6.016   8.901   6.932 -0.4886 -0.0025 -0.4621
  433MOL0     C58372   4.861   8.873   6.708  0.1551 -0.0593 -0.5058
  433MOL0     C58373   4.732   8.932   6.725 -0.1581  0.8631  0.0483
  433MOL0     C58374   4.389   9.209   6.832  0.2026 -0.4245  0.6158
  433MOL0     C58375   4.287   9.176   6.923  0.4809 -0.1568  0.2317
  433MOL0     C58376   4.176   9.257   6.948  0.7276  0.8695  0.6780
  433MOL0     C58377   4.173   9.380   6.887 -0.0771  0.0274  0.0910
  433MOL0     O58378   4.069   9.456   6.923  0.2411  0.3111  0.6933
  433MOL0     C58379   4.057   9.597   6.890  0.8024 -1.0294 -0.2031
  433MOL0     C58380   3.916   9.633   6.946  0.1136 -0.2327  0.1861
  433MOL0     C58381   3.919   9.667   7.095  0.0299 -0.2111  0.7381
  433MOL0     C58382   3.907   9.540   7.170 -0.6406 -0.4579  0.5959
  433MOL0     C58383   3.770   9.480   7.154 -0.6817  0.2736 -0.2880
  433MOL0     C58384   3.660   9.424   7.153 -0.0623 -0.7412  0.1412
  433MOL0     C58385   4.276   9.428   6.810  0.1178 -0.1310  0.4365
  433MOL0     C58386   4.384   9.341   6.781  1.2218 -0.2973  0.6050
  433MOL0     C58387   4.487   9.400   6.702 -0.8215 -0.0478 -0.4638
  433MOL0     H58388   4.788   9.230   6.588 -1.6400 -0.7674 -2.1354
  433MOL0     H58389   5.001   9.110   6.519  0.6312 -0.2822  0.6832
  433MOL0     H58390   5.125   8.713   6.714  0.6804 -2.1617  0.0374
  433MOL0     H58391   5.028   8.683   6.568 -0.3019 -1.1262  1.3771
  433MOL0     H58392   5.252   8.752   6.438  1.1742 -0.1743 -0.7800
  433MOL0     H58393   5.255   8.605   6.522 -0.2124  0.5090  0.0086
  433MOL0     H58394   5.347   8.739   6.741 -4.0333  4.8186  1.4910
  433MOL0     H58395   5.337   8.873   6.638  1.1515  0.1240  0.6265
  433MOL0     H58396   5.510   8.622   6.587  1.2786 -0.1017  1.3170
  433MOL0     H58397   5.493   8.755   6.468 -1.2538  0.7343  0.6141
  433MOL0     H58398   5.571   8.919   6.618 -0.3184 -0.4762  3.8960
  433MOL0     H58399   5.607   8.805   6.741  1.4307 -0.7228  0.7106
  433MOL0     H58400   5.752   8.675   6.567 -0.0603  0.0990  1.7833
  433MOL0     H58401   5.715   8.792   6.449  0.2343 -0.3870 -0.0941
  433MOL0     H58402   5.824   8.962   6.623 -0.8802  0.6228 -2.3992
  433MOL0     H58403   5.927   8.826   6.557 -0.6682  0.0241  0.7532
  433MOL0     H58404   5.779   8.862   6.824 -0.1283 -1.4334 -0.2022
  433MOL0     H58405   5.852   8.712   6.778 -3.2129  0.4171  0.3307
  433MOL0     H58406   6.123   8.890   6.624 -0.4514  1.7093 -0.7523
  433MOL0     H58407   6.332   9.044   6.703 -1.7596  0.2752  1.1120
  433MOL0     H58408   6.373   9.018   6.881  1.6961 -0.1264 -0.3747
  433MOL0     H58409   6.460   8.810   6.846  2.1399 -2.7490 -0.7297
  433MOL0     H58410   6.413   8.792   6.673  2.4090 -1.7818  0.5860
  433MOL0     H58411   6.611   8.994   6.794  2.2779 -2.5767  1.2629
  433MOL0     H58412   6.571   8.982   6.625  0.4254  1.1148  1.0866
  433MOL0     H58413   6.655   8.738   6.625  3.6689  1.2490 -1.6995
  433MOL0     H58414   6.674   8.747   6.798 -1.3095  1.0164 -0.0442
  433MOL0     H58415   7.071   8.822   6.683  2.5032  1.7697 -1.3120
  433MOL0     H58416   7.200   8.740   6.501  0.4577 -3.1192 -2.1356
  433MOL0     H58417   7.493   8.727   6.227  0.7859  1.4373 -0.0302
  433MOL0     H58418   7.651   8.770   6.043  0.4847  1.5692  0.5373
  433MOL0     H58419   7.761   8.809   5.842  0.9459 -1.3079 -0.2412
  433MOL0     H58420   7.701   8.655   5.793  4.0607  0.7242  0.3643
  433MOL0     H58421   7.700   8.701   5.572 -0.9963  0.7821 -0.0814
  433MOL0     H58422   7.691   8.873   5.592 -1.5069 -2.1788 -2.3667
  433MOL0     H58423   7.944   8.861   5.669  0.9936  1.0372 -0.8440
  433MOL0     H58424   7.943   8.682   5.637  0.5322 -0.2455 -0.6799
  433MOL0     H58425   7.887   8.903   5.434  0.2644 -0.2338  0.8573
  433MOL0     H58426   7.899   8.727   5.407 -3.2131  1.6777 -1.5396
  433MOL0     H58427   8.139   8.742   5.445  0.0647  0.8155 -3.2187
  433MOL0     H58428   8.130   8.899   5.533  2.9542 -0.7716 -1.2254
  433MOL0     H58429   8.056   8.863   5.243  0.3170  0.6989 -1.3868
  433MOL0     H58430   8.089   9.016   5.332 -1.8588 -0.7143  1.1070
  433MOL0     H58431   8.292   8.796   5.279 -1.4410 -0.0346  1.6917
  433MOL0     H58432   8.337   8.942   5.359  1.4367 -1.7363 -0.3286
  433MOL0     H58433   8.251   9.082   5.162 -0.2744  0.4182 -1.3800
  433MOL0     H58434   8.398   8.999   5.131 -0.5267 -0.3050  0.5975
  433MOL0     H58435   7.304   8.833   5.789  0.1260  0.3006  0.3567
  433MOL0     H58436   7.160   8.775   5.971 -0.6753  0.9418  0.0243
  433MOL0     H58437   6.855   8.737   6.244  2.4484  2.1907 -0.9163
  433MOL0     H58438   6.714   8.783   6.430 -0.3415 -1.6100  0.4617
  433MOL0     H58439   4.869   8.768   6.733  1.2737 -0.2823 -1.6711
  433MOL0     H58440   4.656   8.865   6.766 -0.4127 -0.4327 -2.3512
  433MOL0     H58441   4.291   9.078   6.969 -0.4992 -0.4505 -0.2649
  433MOL0     H58442   4.084   9.230   6.999 -1.4892 -0.2565 -3.5422
  433MOL0     H58443   4.062   9.620   6.783  1.3958 -1.9585 -0.3845
  433MOL0     H58444   4.136   9.653   6.941  0.3677  0.7853 -1.4447
  433MOL0     H58445   3.839   9.563   6.913 -0.2967  0.4562 -0.3568
  433MOL0     H58446   3.893   9.727   6.896 -1.9342 -2.1513 -2.8481
  433MOL0     H58447   3.839   9.739   7.117  0.3166  0.7765 -1.2655
  433MOL0     H58448   4.011   9.723   7.117 -0.3579  0.3445  0.9890
  433MOL0     H58449   3.989   9.470   7.153  0.4671  0.0281  3.3159
  433MOL0     H58450   3.908   9.564   7.277  0.0317  0.7806  0.3267
  433MOL0     H58451   3.556   9.399   7.149 -0.1983 -0.1509 -0.1566
  433MOL0     H58452   4.284   9.527   6.768 -2.6930 -1.3613 -3.5855
  433MOL0     H58453   4.480   9.509   6.694 -0.8917  0.0475  0.7436
  433MOL0     H58454   4.581   9.383   6.756 -0.6629  0.0272 -0.7143
  433MOL0     H58455   4.484   9.351   6.604 -0.2185  0.0206 -0.5196
  434MOL0     O58456  10.065   3.049  10.458 -0.2430 -0.2139 -0.2310
  434MOL0     C58457  10.035   3.098  10.351 -0.9332  0.3708  0.0519
  434MOL0     O58458  10.117   3.106  10.243  0.0496 -0.0116 -0.4045
  434MOL0     C58459  10.247   3.075  10.262 -0.2121 -0.0199 -0.4673
  434MOL0     C58460  10.326   3.002  10.169 -0.3218  0.2090  0.6456
  434MOL0     C58461  10.463   2.991  10.170  0.2335  0.0170 -0.0703
  434MOL0     C58462  10.540   3.072  10.260 -0.3259  0.8410  0.3222
  434MOL0     O58463  10.676   3.058  10.257 -0.4931 -0.0308  0.0003
  434MOL0     C58464  10.754   3.149  10.332  0.8780 -0.3183 -0.1437
  434MOL0     C58465  10.900   3.142  10.287 -0.1023  0.7774 -0.1012
  434MOL0     C58466  10.957   3.003  10.306 -0.1802 -0.0899 -0.4870
  434MOL0     C58467  11.101   3.012  10.260 -1.1048 -0.3320  0.5270
  434MOL0     C58468  11.191   2.901  10.321 -0.8429 -0.1130  0.1455
  434MOL0     C58469  11.320   2.862  10.245  0.5269 -0.3606 -0.6944
  434MOL0     C58470  11.414   2.767  10.311 -0.4366 -0.0759 -0.0195
  434MOL0     C58471  11.545   2.757  10.234 -0.9430  0.4560  0.0138
  434MOL0     N58472  11.661   2.697  10.306  0.1658 -0.3130 -0.5657
  434MOL0     C58473  11.743   2.594  10.266  1.2876  0.4771  0.9018
  434MOL0     C58474  11.835   2.584  10.366  0.0962 -0.8322 -0.7002
  434MOL0     C58475  11.939   2.476  10.404 -0.3953 -0.2925 -0.0938
  434MOL0     C58476  11.917   2.336  10.357 -0.7484 -0.4454 -0.0276
  434MOL0     C58477  11.806   2.263  10.437 -0.0312  0.3709  0.1381
  434MOL0     C58478  11.812   2.106  10.438 -0.0493 -0.1190  0.5668
  434MOL0     O58479  11.798   2.059  10.311  0.2366  0.0777  0.1417
  434MOL0     C58480  11.862   1.941  10.270  0.4038  0.3061  0.4770
  434MOL0     C58481  12.004   1.916  10.285  0.3743  0.2956 -0.6058
  434MOL0     C58482  12.047   1.791  10.242 -0.1195  0.4721 -0.2599
  434MOL0     C58483  11.962   1.700  10.188  0.1409  0.9232 -0.3242
  434MOL0     C58484  12.021   1.570  10.161  0.6518 -0.4546  0.5286
  434MOL0     O58485  11.941   1.491  10.084 -0.3395 -0.8952 -0.1256
  434MOL0     C58486  11.973   1.358  10.063 -0.5920  0.0132  0.8227
  434MOL0     C58487  12.009   1.278  10.169 -0.3231 -0.2161  0.0747
  434MOL0     C58488  12.063   1.148  10.150  0.4993  0.7160  0.8962
  434MOL0     C58489  12.081   1.097  10.022  1.2601 -0.4875 -0.8605
  434MOL0     O58490  12.122   0.969   9.995 -0.3897 -0.2482 -0.5069
  434MOL0     C58491  12.215   0.953   9.882 -0.3201  0.0933  0.0571
  434MOL0     C58492  12.266   0.814   9.895 -0.3923  0.5129 -0.1427
  434MOL0     C58493  12.361   0.771   9.779  0.2814 -0.2368 -0.5810
  434MOL0     C58494  12.292   0.751   9.641  0.1415  0.4279  0.1390
  434MOL0     C58495  12.232   0.610   9.621 -0.2307  0.1720  0.2090
  434MOL0     C58496  12.162   0.607   9.483  0.0873  0.3217 -0.3219
  434MOL0     C58497  12.257   0.614   9.358  0.8394 -0.3343 -0.0911
  434MOL0     C58498  12.185   0.537   9.249  0.2646 -0.2004  0.3382
  434MOL0    Cl58499  12.023   0.620   9.224  0.1216 -0.0590  0.1963
  434MOL0     C58500  12.038   1.180   9.908  0.4876  0.4056 -0.1352
  434MOL0     C58501  11.988   1.308   9.935 -0.0504  0.4961  0.4375
  434MOL0     O58502  12.136   1.551  10.196 -0.7842 -0.1273 -0.6737
  434MOL0     C58503  11.830   1.737  10.156  0.2187 -0.0256  0.0599
  434MOL0     C58504  11.777   1.854  10.204  0.0072  1.1061  0.2770
  434MOL0     N58505  11.803   2.681  10.463  0.2895  0.1595  0.3461
  434MOL0     N58506  11.713   2.757  10.411 -0.0301  0.6749 -0.6820
  434MOL0     C58507  10.466   3.146  10.356 -0.7007 -0.3688  0.2204
  434MOL0     C58508  10.326   3.152  10.351  0.4644 -0.0384 -0.2623
  434MOL0     C58509   9.894   3.133  10.331  0.1544 -0.7680 -0.2431
  434MOL0     C58510   9.834   3.129  10.203  0.3879  0.5199  0.0793
  434MOL0     C58511   9.695   3.146  10.183 -0.0873  0.3491 -0.5145
  434MOL0     C58512   9.610   3.183  10.287  0.3892  0.2770 -0.0676
  434MOL0     O58513   9.473   3.193  10.268 -0.1132 -0.7491 -0.5341
  434MOL0     C58514   9.390   3.231  10.378  0.9182  0.4610  0.1004
  434MOL0     C58515   9.263   3.302  10.328 -0.0171  0.9798  0.0471
  434MOL0     C58516   9.185   3.216  10.238  0.6549 -0.3670  0.0871
  434MOL0     C58517   9.060   3.282  10.173  0.4454  0.1863 -0.3754
  434MOL0     C58518   8.975   3.179  10.110  0.1624 -0.8330 -0.8288
  434MOL0     C58519   8.895   3.100  10.075 -0.1764  0.0996  0.5214
  434MOL0     C58520   9.669   3.192  10.414  0.2381  0.5181  0.2867
  434MOL0     C58521   9.809   3.175  10.436 -0.2324  0.1763 -0.5251
  434MOL0     C58522   9.850   3.188  10.582 -0.5300 -0.3958  0.3831
  434MOL0     H58523  10.279   2.941  10.092  0.4414  1.2841 -0.7124
  434MOL0     H58524  10.520   2.918  10.114 -0.8316 -1.6182  0.8942
  434MOL0     H58525  10.714   3.249  10.311 -0.8589 -0.6005  1.5162
  434MOL0     H58526  10.746   3.137  10.440  0.4361  2.5513  0.2304
  434MOL0     H58527  10.961   3.216  10.341  0.3775  0.3578 -0.0663
  434MOL0     H58528  10.897   3.171  10.182  0.3555  1.6843  0.1261
  434MOL0     H58529  10.897   2.931  10.250 -1.4672  0.8675 -0.3640
  434MOL0     H58530  10.963   2.976  10.411  0.7493 -2.8200 -1.1462
  434MOL0     H58531  11.109   3.003  10.151  1.7950 -3.9219  0.8441
  434MOL0     H58532  11.149   3.107  10.286  2.2709 -1.7083 -0.1053
  434MOL0     H58533  11.214   2.931  10.423  0.4527  0.3522 -0.2662
  434MOL0     H58534  11.133   2.809  10.335 -2.1930  0.5171 -0.9998
  434MOL0     H58535  11.286   2.815  10.153  1.2152 -3.6033  0.5622
  434MOL0     H58536  11.378   2.949  10.213 -0.6741  1.4977  1.8166
  434MOL0     H58537  11.373   2.667  10.328 -0.6716 -0.0156 -0.2285
  434MOL0     H58538  11.448   2.816  10.403  0.6261 -1.6648  0.4704
  434MOL0     H58539  11.529   2.702  10.141 -1.0592  2.4757 -1.2312
  434MOL0     H58540  11.577   2.857  10.202  1.8958  0.1228  1.4779
  434MOL0     H58541  11.741   2.526  10.182  0.9325 -0.3724  1.5805
  434MOL0     H58542  12.040   2.503  10.374  0.6164  0.0893  3.2270
  434MOL0     H58543  11.939   2.478  10.514 -0.3560  2.0328 -0.0877
  434MOL0     H58544  11.901   2.323  10.249 -4.3575 -3.3073  0.6553
  434MOL0     H58545  12.007   2.281  10.388 -0.3795 -0.5238 -1.1972
  434MOL0     H58546  11.715   2.290  10.383  1.6681 -0.4175 -3.4298
  434MOL0     H58547  11.817   2.300  10.539  1.2702  2.3215 -0.6521
  434MOL0     H58548  11.719   2.075  10.487 -1.2716  0.9840 -0.9348
  434MOL0     H58549  11.910   2.081  10.480 -0.0468 -0.3754  0.4074
  434MOL0     H58550  12.068   1.998  10.315  1.2719  0.8228 -3.5789
  434MOL0     H58551  12.152   1.763  10.243 -0.2503 -0.0831 -1.1960
  434MOL0     H58552  11.989   1.321  10.266 -1.3028  0.2262 -0.3063
  434MOL0     H58553  12.095   1.084  10.232  0.9076 -1.5513 -0.9247
  434MOL0     H58554  12.153   0.967   9.793 -1.8362  0.1448  1.0797
  434MOL0     H58555  12.302   1.017   9.899  0.4845 -1.0445  0.3039
  434MOL0     H58556  12.305   0.798   9.995 -0.5472 -2.5769 -0.4887
  434MOL0     H58557  12.185   0.741   9.890  0.8216 -0.9037  0.3387
  434MOL0     H58558  12.430   0.855   9.766 -0.0816 -0.0035 -1.0613
  434MOL0     H58559  12.406   0.675   9.801  0.8573  0.5444  1.9150
  434MOL0     H58560  12.374   0.765   9.571 -0.2955  2.8362  0.0082
  434MOL0     H58561  12.211   0.824   9.626 -1.6352 -1.0546  1.8535
  434MOL0     H58562  12.156   0.595   9.699 -0.8201 -1.5536 -0.6421
  434MOL0     H58563  12.308   0.533   9.636  3.5948  3.7298  0.9860
  434MOL0     H58564  12.111   0.510   9.480  1.0724 -0.2130 -0.1802
  434MOL0     H58565  12.095   0.693   9.484  1.5923  1.5331  0.0355
  434MOL0     H58566  12.358   0.574   9.373  0.0863 -2.1915  0.3843
  434MOL0     H58567  12.269   0.716   9.321 -1.9697  0.3896  0.7530
  434MOL0     H58568  12.243   0.531   9.156 -3.0621 -0.0126 -1.9496
  434MOL0     H58569  12.182   0.433   9.282 -0.0282 -0.6960 -1.1596
  434MOL0     H58570  12.049   1.146   9.805  1.6016 -0.8519  0.3679
  434MOL0     H58571  11.964   1.373   9.851 -0.0621 -0.2756 -0.1763
  434MOL0     H58572  11.765   1.665  10.107  0.1036  0.0880  0.0474
  434MOL0     H58573  11.672   1.872  10.182  0.2637  1.2027 -0.9435
  434MOL0     H58574  10.511   3.207  10.434 -1.0566 -0.9680  0.9074
  434MOL0     H58575  10.279   3.235  10.403  0.9289  1.1917 -1.7312
  434MOL0     H58576   9.884   3.108  10.109 -2.3805  1.7740 -1.8344
  434MOL0     H58577   9.660   3.123  10.083  1.7069 -1.8367 -0.7117
  434MOL0     H58578   9.444   3.301  10.442  1.1706 -0.7682  1.2836
  434MOL0     H58579   9.376   3.148  10.448  1.7030 -1.7756 -2.2627
  434MOL0     H58580   9.296   3.395  10.282 -1.1195  1.0671 -0.5997
  434MOL0     H58581   9.206   3.330  10.417  2.3020  2.5411  1.1380
  434MOL0     H58582   9.143   3.131  10.292 -0.8036 -0.7111 -1.5124
  434MOL0     H58583   9.255   3.176  10.164  3.6074  0.5707  2.1952
  434MOL0     H58584   9.010   3.323  10.261  2.3964 -0.2407  1.0057
  434MOL0     H58585   9.093   3.365  10.110  1.2184  1.0723  1.1259
  434MOL0     H58586   8.826   3.020  10.058  1.1549 -0.8712 -0.5062
  434MOL0     H58587   9.614   3.205  10.507  0.8073 -1.9066  1.0333
  434MOL0     H58588   9.880   3.087  10.611 -0.0987 -0.6915 -1.0205
  434MOL0     H58589   9.935   3.254  10.600  0.0754 -0.8538 -0.7628
  434MOL0     H58590   9.768   3.222  10.646  0.0119 -0.0819  0.9212
  435MOL0     O58591   8.931   9.352   8.609  0.1931 -0.7281 -0.4241
  435MOL0     C58592   8.876   9.305   8.709 -0.6014  0.6515 -0.0050
  435MOL0     O58593   8.940   9.219   8.789  0.3507  0.0380 -0.5633
  435MOL0     C58594   9.075   9.198   8.796 -0.1497  0.2711 -0.1420
  435MOL0     C58595   9.131   9.195   8.929  0.9124  0.3545  1.6575
  435MOL0     C58596   9.269   9.202   8.944 -0.0585 -0.3522 -1.0850
  435MOL0     C58597   9.351   9.182   8.840 -0.5546 -0.0218  0.2331
  435MOL0     O58598   9.492   9.162   8.849  0.3477 -0.6410 -0.2950
  435MOL0     C58599   9.552   9.154   8.977  0.0739 -0.0435  0.3873
  435MOL0     C58600   9.695   9.107   8.960  0.2579  0.8285 -0.9585
  435MOL0     C58601   9.769   9.162   8.831 -0.6417  0.2615 -0.0043
  435MOL0     C58602   9.923   9.136   8.815 -0.4404  0.3605  1.3198
  435MOL0     C58603   9.991   9.207   8.692  0.8500  0.7892  0.6677
  435MOL0     C58604  10.010   9.130   8.562  0.8612  0.6036 -0.0732
  435MOL0     C58605  10.028   9.217   8.431  0.2410  0.8383 -0.0713
  435MOL0     C58606  10.038   9.132   8.304 -0.0667  0.3279  0.3407
  435MOL0     N58607  10.176   9.069   8.287  0.1682 -0.2021  0.3445
  435MOL0     C58608  10.293   9.136   8.258  0.8358 -0.3617 -0.7285
  435MOL0     C58609  10.402   9.056   8.283  0.3580 -0.5120 -0.2549
  435MOL0     C58610  10.547   9.105   8.282  0.4397 -0.7733 -0.1520
  435MOL0     C58611  10.651   9.034   8.182  0.1879 -0.8531 -0.1985
  435MOL0     C58612  10.791   9.069   8.228  0.4087 -0.1347 -0.0453
  435MOL0     C58613  10.898   9.001   8.151 -0.7973 -0.3736  0.4424
  435MOL0     O58614  10.910   9.058   8.012 -0.2130 -0.0891 -0.4371
  435MOL0     C58615  11.025   9.126   7.984  0.2238 -0.5841  0.0964
  435MOL0     C58616  11.150   9.114   8.048  0.4093 -0.4296 -0.6360
  435MOL0     C58617  11.256   9.191   8.012 -0.2403 -0.0762  0.3891
  435MOL0     C58618  11.248   9.283   7.906 -0.2033 -0.0443  0.5727
  435MOL0     C58619  11.372   9.330   7.843 -0.5764  0.3202  0.4830
  435MOL0     O58620  11.352   9.414   7.733  0.6544  0.1711  0.5022
  435MOL0     C58621  11.463   9.449   7.668  0.4097 -1.4412 -0.2145
  435MOL0     C58622  11.550   9.559   7.703 -0.2439  0.1081  0.4314
  435MOL0     C58623  11.664   9.589   7.624  0.3614  0.8884  0.1239
  435MOL0     C58624  11.693   9.507   7.513 -0.7128 -0.2592  0.0733
  435MOL0     O58625  11.812   9.539   7.447  0.0090 -0.0345  0.4665
  435MOL0     C58626  11.908   9.431   7.433 -0.7581 -0.2620 -0.3046
  435MOL0     C58627  12.042   9.467   7.376 -0.0726 -0.2145  0.5740
  435MOL0     C58628  12.104   9.588   7.438  0.0617 -0.5831 -0.7277
  435MOL0     C58629  12.243   9.628   7.382  0.2040 -0.0035  0.7970
  435MOL0     C58630  12.290   9.756   7.451  0.6852 -0.3626 -0.2969
  435MOL0     C58631  12.427   9.790   7.395  0.1000  0.0105  0.3045
  435MOL0     C58632  12.453   9.944   7.424 -0.6368  0.5348  0.2126
  435MOL0     C58633  12.599   9.980   7.388 -0.2888  0.4117 -0.3869
  435MOL0    Cl58634  12.720   9.906   7.493  0.1486 -0.1177  0.1528
  435MOL0     C58635  11.611   9.407   7.479  0.2036  0.5817 -1.1385
  435MOL0     C58636  11.497   9.377   7.558 -0.0103 -0.5348  0.0873
  435MOL0     O58637  11.481   9.282   7.881  0.3465 -0.1150 -0.5315
  435MOL0     C58638  11.115   9.306   7.859 -0.5121  0.1243  0.2564
  435MOL0     C58639  11.009   9.230   7.896 -0.1836 -0.4257  0.7501
  435MOL0     N58640  10.345   8.937   8.333 -0.1577  0.0794 -0.1253
  435MOL0     N58641  10.217   8.950   8.333  0.5655  0.7463  0.1603
  435MOL0     C58642   9.299   9.174   8.708  0.4063  0.3549 -1.4251
  435MOL0     C58643   9.162   9.185   8.683  0.1944 -0.2748 -0.4620
  435MOL0     C58644   8.739   9.352   8.742  0.1972  0.4635 -0.3780
  435MOL0     C58645   8.663   9.399   8.633  0.2735 -0.3384  0.7304
  435MOL0     C58646   8.526   9.435   8.654  0.2027 -0.7457  0.4138
  435MOL0     C58647   8.471   9.423   8.787 -0.0148 -0.0447  0.1134
  435MOL0     O58648   8.341   9.446   8.826  0.5200 -0.1514 -0.0574
  435MOL0     C58649   8.245   9.505   8.738  0.3107 -0.3074  0.0530
  435MOL0     C58650   8.106   9.478   8.799  0.7575  0.4741  0.8635
  435MOL0     C58651   7.984   9.533   8.725  0.6408  0.9878 -0.3943
  435MOL0     C58652   7.951   9.674   8.750  0.0924 -0.7419 -0.3204
  435MOL0     C58653   7.807   9.697   8.730 -1.4067  0.1176  0.4017
  435MOL0     C58654   7.689   9.705   8.709  0.1720  0.1161  1.0209
  435MOL0     C58655   8.553   9.380   8.890  0.0675 -0.6083 -0.1747
  435MOL0     C58656   8.691   9.344   8.874  0.0619 -0.4604  0.5861
  435MOL0     C58657   8.761   9.287   8.993 -0.2822 -0.3044 -0.1659
  435MOL0     H58658   9.068   9.198   9.017  1.0805 -2.2603  1.9413
  435MOL0     H58659   9.305   9.200   9.046  0.3241 -0.8262 -1.2295
  435MOL0     H58660   9.555   9.250   9.031 -0.2708 -1.4434  3.0796
  435MOL0     H58661   9.492   9.083   9.034 -2.7701  1.8903  0.0531
  435MOL0     H58662   9.703   8.998   8.959  0.3367  0.6931  2.2635
  435MOL0     H58663   9.738   9.149   9.052 -0.5774 -2.2433  1.0065
  435MOL0     H58664   9.758   9.271   8.829 -2.4181  0.0941 -1.2118
  435MOL0     H58665   9.726   9.132   8.735 -2.1255  1.4793  0.2409
  435MOL0     H58666   9.972   9.178   8.903  0.7951 -0.3617  1.0016
  435MOL0     H58667   9.939   9.028   8.811 -1.1910  0.2732 -0.2177
  435MOL0     H58668   9.916   9.285   8.669  2.0476  2.0129  0.7922
  435MOL0     H58669  10.084   9.254   8.724  1.3414 -0.0324  0.4635
  435MOL0     H58670  10.094   9.061   8.579  1.1348  0.9102 -0.1733
  435MOL0     H58671   9.923   9.066   8.544  1.4970  0.3766 -2.7598
  435MOL0     H58672  10.116   9.280   8.447 -0.0618  1.0351  0.9110
  435MOL0     H58673   9.946   9.288   8.420 -1.8450 -1.5864 -1.4081
  435MOL0     H58674   9.967   9.050   8.295  1.2082 -0.8847  0.8590
  435MOL0     H58675  10.035   9.197   8.216  2.3500  0.8269  0.5392
  435MOL0     H58676  10.289   9.242   8.236  1.2774  0.1354  1.3690
  435MOL0     H58677  10.550   9.214   8.289 -0.1961 -0.8618  2.6835
  435MOL0     H58678  10.585   9.073   8.380  1.4549 -0.7746 -0.5309
  435MOL0     H58679  10.636   8.926   8.183 -3.5101 -0.4859 -1.2600
  435MOL0     H58680  10.637   9.066   8.078  0.3651 -0.3271 -0.0652
  435MOL0     H58681  10.808   9.045   8.333  0.4631  0.9274  0.1924
  435MOL0     H58682  10.805   9.175   8.208 -5.0517  0.6766 -1.3613
  435MOL0     H58683  10.874   8.894   8.155 -2.7777 -0.0256 -0.4454
  435MOL0     H58684  10.991   9.019   8.204 -0.5188  1.6214 -0.5955
  435MOL0     H58685  11.170   9.027   8.110 -1.2550 -0.7624 -0.5221
  435MOL0     H58686  11.345   9.168   8.070  0.0706 -2.2377 -0.8104
  435MOL0     H58687  11.528   9.609   7.797  1.9483  0.6223  0.7262
  435MOL0     H58688  11.732   9.668   7.655  1.7385 -0.6167  1.1189
  435MOL0     H58689  11.924   9.388   7.532  3.5917 -1.5261 -1.3302
  435MOL0     H58690  11.865   9.348   7.376  1.3663 -1.0565 -0.8582
  435MOL0     H58691  12.108   9.380   7.383 -1.2540 -1.0668  1.5197
  435MOL0     H58692  12.029   9.488   7.269 -1.2016 -2.6404  0.1541
  435MOL0     H58693  12.040   9.671   7.404  2.3962  1.4691 -0.3775
  435MOL0     H58694  12.108   9.585   7.547  0.9429 -0.6540 -0.7552
  435MOL0     H58695  12.247   9.642   7.273  1.0418  0.1276  0.8316
  435MOL0     H58696  12.314   9.547   7.402  0.5515 -0.3182 -1.4006
  435MOL0     H58697  12.280   9.744   7.560 -1.4144 -1.2497 -0.5323
  435MOL0     H58698  12.218   9.836   7.433 -0.2033 -1.5980 -2.5887
  435MOL0     H58699  12.497   9.727   7.450  0.2348  2.0106  2.5802
  435MOL0     H58700  12.433   9.767   7.288 -1.7436  1.2605 -0.1219
  435MOL0     H58701  12.425   9.970   7.526 -2.3748  0.7573 -0.2844
  435MOL0     H58702  12.387  10.011   7.368 -0.2871  1.6902  1.1577
  435MOL0     H58703  12.611   9.955   7.282 -0.6453  1.7268 -0.7675
  435MOL0     H58704  12.614  10.089   7.386  1.6086  0.1858 -2.6251
  435MOL0     H58705  11.629   9.339   7.396  1.9429 -0.8525  0.3307
  435MOL0     H58706  11.438   9.295   7.519 -0.5061 -0.2373  0.1982
  435MOL0     H58707  11.095   9.384   7.786 -0.3391 -0.9003 -0.9328
  435MOL0     H58708  10.907   9.256   7.866 -0.5497  0.7370  2.8283
  435MOL0     H58709   9.367   9.160   8.624  1.7164  0.2838 -0.3860
  435MOL0     H58710   9.131   9.188   8.579  1.9806 -2.1996 -1.1149
  435MOL0     H58711   8.696   9.418   8.531 -1.4190  1.6956  0.5088
  435MOL0     H58712   8.460   9.466   8.574  0.3940 -2.0950 -0.3185
  435MOL0     H58713   8.251   9.455   8.641  0.6995 -0.7702  0.3123
  435MOL0     H58714   8.262   9.613   8.738 -3.4044  0.4191 -0.7443
  435MOL0     H58715   8.103   9.521   8.900  3.8644  0.2832  1.1298
  435MOL0     H58716   8.097   9.370   8.809 -0.6822  0.6106  1.3613
  435MOL0     H58717   7.901   9.481   8.773  2.4824 -1.2245  0.5864
  435MOL0     H58718   7.981   9.505   8.619  0.8616 -2.4810  0.4109
  435MOL0     H58719   7.973   9.696   8.854  1.8271  0.9766 -0.9908
  435MOL0     H58720   8.013   9.736   8.685 -0.0121  0.6851  0.9142
  435MOL0     H58721   7.593   9.719   8.665  0.8355  3.4261  0.3536
  435MOL0     H58722   8.508   9.379   8.988  0.0674 -0.2419 -0.1692
  435MOL0     H58723   8.772   9.178   8.990  1.6521 -0.2457  1.9138
  435MOL0     H58724   8.865   9.323   8.988 -0.1906 -0.5571 -0.0732
  435MOL0     H58725   8.705   9.309   9.084  1.4601 -1.5329  1.2883
  436MOL0     O58726   0.027  10.724   6.673  0.5182 -0.2437  0.3642
  436MOL0     C58727  -0.053  10.668   6.747  0.5048 -0.2153  0.4492
  436MOL0     O58728  -0.056  10.537   6.773  0.0890 -0.7353  0.9249
  436MOL0     C58729   0.010  10.453   6.688  0.5946 -0.4125 -0.0935
  436MOL0     C58730   0.004  10.479   6.555 -0.1732  0.0645  0.7076
  436MOL0     C58731   0.058  10.385   6.467 -0.4408 -0.7644 -0.2310
  436MOL0     C58732   0.119  10.271   6.515  0.1883  0.3955  0.2919
  436MOL0     O58733   0.162  10.182   6.426 -0.3009  0.0832 -0.7029
  436MOL0     C58734   0.266  10.091   6.464  0.0775 -0.5025 -0.2426
  436MOL0     C58735   0.333  10.027   6.339 -0.2394  0.0249  0.4284
  436MOL0     C58736   0.401  10.139   6.257  0.1547 -1.0423  0.1823
  436MOL0     C58737   0.475  10.081   6.143 -0.0459  0.0961  0.0977
  436MOL0     C58738   0.568  10.182   6.074 -0.7341  0.0939 -0.7466
  436MOL0     C58739   0.608  10.132   5.937  0.3791  0.4044  0.6648
  436MOL0     C58740   0.727  10.200   5.876 -0.2914 -0.5205  0.3044
  436MOL0     C58741   0.745  10.132   5.727 -0.1348 -1.0616 -1.0443
  436MOL0     N58742   0.862  10.180   5.651  0.5463  0.8260 -0.4219
  436MOL0     C58743   0.870  10.221   5.519  0.4431  0.4927 -0.3796
  436MOL0     C58744   1.000  10.239   5.495 -0.3070 -0.1600 -0.3712
  436MOL0     C58745   1.067  10.282   5.366  0.3844  0.3453 -0.1294
  436MOL0     C58746   1.145  10.411   5.382 -0.4364 -0.1976  0.2100
  436MOL0     C58747   1.218  10.471   5.255  0.2797  0.3820 -0.5229
  436MOL0     C58748   1.108  10.508   5.152  0.8449 -0.8912 -0.6269
  436MOL0     O58749   1.171  10.530   5.028  0.1734  0.1926 -0.3063
  436MOL0     C58750   1.250  10.632   5.009 -0.5395  0.5229 -0.2411
  436MOL0     C58751   1.238  10.752   5.075 -0.7395 -0.1813 -0.0386
  436MOL0     C58752   1.343  10.838   5.064  0.1197 -0.8442 -0.7582
  436MOL0     C58753   1.458  10.810   4.988  0.3033  0.8088  1.0373
  436MOL0     C58754   1.572  10.898   4.990  0.0822  0.6183  0.0049
  436MOL0     O58755   1.572  10.991   5.083 -0.3834 -0.3782  0.6573
  436MOL0     C58756   1.686  11.063   5.108  0.0521 -0.7389  0.7406
  436MOL0     C58757   1.682  11.133   5.228 -0.2652  0.0938  0.5211
  436MOL0     C58758   1.789  11.220   5.269  0.2312  1.0236 -1.3282
  436MOL0     C58759   1.904  11.232   5.185 -0.2199 -0.3907 -0.4964
  436MOL0     O58760   2.018  11.315   5.212  0.3312  0.0314 -0.4894
  436MOL0     C58761   2.011  11.415   5.316 -0.5919  0.4145 -0.3692
  436MOL0     C58762   2.138  11.402   5.401  0.7074  0.7301 -0.1145
  436MOL0     C58763   2.272  11.402   5.324  0.0702 -0.1092  1.1910
  436MOL0     C58764   2.387  11.373   5.419 -0.6910  0.4417 -1.2485
  436MOL0     C58765   2.516  11.411   5.359  0.0425 -0.6953 -0.1495
  436MOL0     C58766   2.631  11.350   5.439 -0.5232  0.4062 -0.3154
  436MOL0     C58767   2.760  11.402   5.382  0.3814  0.8274  0.0870
  436MOL0     C58768   2.877  11.315   5.429  0.0444  0.1465 -0.7930
  436MOL0    Cl58769   3.029  11.376   5.378  0.0772 -0.2011  0.1675
  436MOL0     C58770   1.909  11.160   5.071  0.4403  0.2971 -0.4682
  436MOL0     C58771   1.801  11.077   5.036  0.1235  0.2602 -0.0639
  436MOL0     O58772   1.649  10.872   4.903 -0.5607 -0.4644  0.0823
  436MOL0     C58773   1.461  10.684   4.918 -0.3505 -1.2049 -0.0368
  436MOL0     C58774   1.364  10.596   4.933 -0.0175 -0.2348  0.5948
  436MOL0     N58775   1.071  10.220   5.615 -0.2552 -0.1596  0.4772
  436MOL0     N58776   0.988  10.175   5.702 -0.3726 -0.3318  0.2414
  436MOL0     C58777   0.120  10.241   6.655  0.3633 -0.3140  0.1193
  436MOL0     C58778   0.060  10.330   6.739 -0.5993 -0.0786 -0.1892
  436MOL0     C58779  -0.131  10.746   6.848  0.0868  0.7719  0.3235
  436MOL0     C58780  -0.261  10.706   6.882 -0.5359  0.4009 -0.0261
  436MOL0     C58781  -0.338  10.775   6.973 -0.0412  0.1982  0.6081
  436MOL0     C58782  -0.295  10.894   7.026 -0.5913 -0.5071 -0.7837
  436MOL0     O58783  -0.367  10.975   7.113  0.5040  0.5638  0.4968
  436MOL0     C58784  -0.510  10.942   7.127 -0.1249 -0.0154  0.0122
  436MOL0     C58785  -0.588  11.044   7.212 -0.2179  0.0873 -0.4468
  436MOL0     C58786  -0.599  11.175   7.129 -0.6353  0.2147  1.0824
  436MOL0     C58787  -0.743  11.231   7.130 -0.9320 -0.2648 -0.0462
  436MOL0     C58788  -0.789  11.300   7.257 -0.1067  0.3984  0.1456
  436MOL0     C58789  -0.830  11.348   7.359 -0.6278 -0.0562 -0.2163
  436MOL0     C58790  -0.169  10.939   6.988  0.1837  0.9534 -0.2695
  436MOL0     C58791  -0.079  10.863   6.911  0.2627 -0.1377  0.0234
  436MOL0     C58792   0.056  10.919   6.885  1.0234 -0.1818 -0.1783
  436MOL0     H58793  -0.036  10.568   6.509  1.6372  1.0956  1.0383
  436MOL0     H58794   0.049  10.407   6.361  1.2406 -0.3618 -0.3204
  436MOL0     H58795   0.333  10.154   6.522 -1.6486  2.2287 -1.0409
  436MOL0     H58796   0.224  10.014   6.529  2.3526  0.5883  2.7512
  436MOL0     H58797   0.260   9.975   6.277  0.5709  0.1899 -0.6926
  436MOL0     H58798   0.419   9.964   6.364 -1.4913 -2.2559 -0.7057
  436MOL0     H58799   0.475  10.191   6.319 -1.6209  1.7949  0.0817
  436MOL0     H58800   0.323  10.205   6.219  0.0981 -2.0682 -1.5956
  436MOL0     H58801   0.543   9.997   6.163 -1.1963 -1.3854 -1.9142
  436MOL0     H58802   0.403  10.042   6.070  0.8613  0.0438 -0.7946
  436MOL0     H58803   0.513  10.277   6.072 -4.0752 -1.6850 -1.6726
  436MOL0     H58804   0.658  10.195   6.136  0.7296 -0.5473 -2.6549
  436MOL0     H58805   0.635  10.027   5.947  1.4838  0.4027 -1.5421
  436MOL0     H58806   0.522  10.153   5.872  0.3650  2.4239  1.2482
  436MOL0     H58807   0.819  10.184   5.933  0.9022 -1.5541 -1.8172
  436MOL0     H58808   0.712  10.309   5.875  2.8473  0.1425  3.9377
  436MOL0     H58809   0.754  10.024   5.742 -0.5713 -1.0957 -1.0059
  436MOL0     H58810   0.660  10.150   5.661 -0.8881 -0.3836  0.0766
  436MOL0     H58811   0.782  10.244   5.459 -0.9467 -5.4631 -1.3363
  436MOL0     H58812   1.139  10.202   5.348 -1.5905 -2.2508  2.5830
  436MOL0     H58813   0.990  10.289   5.288 -1.7517 -1.0937  1.7099
  436MOL0     H58814   1.072  10.483   5.419  0.8243  0.0587  2.3613
  436MOL0     H58815   1.217  10.401   5.464 -1.4943 -0.9655  1.0773
  436MOL0     H58816   1.285  10.398   5.209  0.9271  0.0895  0.8437
  436MOL0     H58817   1.280  10.553   5.291  1.3300 -1.6518  2.7121
  436MOL0     H58818   1.045  10.589   5.191  0.9288 -1.0223 -0.2145
  436MOL0     H58819   1.029  10.435   5.135  1.0385 -1.0930 -0.6565
  436MOL0     H58820   1.147  10.774   5.129 -0.4520  2.1533 -0.4195
  436MOL0     H58821   1.332  10.936   5.109  1.3972 -0.9935 -0.0767
  436MOL0     H58822   1.602  11.108   5.297 -0.7563  0.4272  0.0816
  436MOL0     H58823   1.774  11.275   5.361  0.9289 -2.6211  1.1707
  436MOL0     H58824   2.021  11.514   5.271 -2.1369  0.5239 -0.5134
  436MOL0     H58825   1.917  11.414   5.372 -0.3132 -2.9066  0.2321
  436MOL0     H58826   2.134  11.486   5.472 -3.8872  0.9314 -0.3516
  436MOL0     H58827   2.124  11.304   5.447 -4.9141  0.4461 -1.7933
  436MOL0     H58828   2.261  11.327   5.245  2.4814  0.1230  0.5637
  436MOL0     H58829   2.295  11.496   5.274  1.3408 -0.4835  1.0350
  436MOL0     H58830   2.396  11.265   5.432  0.6577  0.4531 -1.9060
  436MOL0     H58831   2.374  11.423   5.515  2.0306 -0.2721 -0.4062
  436MOL0     H58832   2.524  11.520   5.357  1.8150 -0.7993 -1.6983
  436MOL0     H58833   2.522  11.376   5.256  0.6090 -1.1965  0.0451
  436MOL0     H58834   2.624  11.381   5.544  2.2816  0.1536  0.0096
  436MOL0     H58835   2.629  11.241   5.439  0.6933  0.3758  0.3146
  436MOL0     H58836   2.785  11.507   5.398 -1.3663  1.3868 -0.5973
  436MOL0     H58837   2.754  11.386   5.274 -1.8812  0.6685  0.1867
  436MOL0     H58838   2.873  11.314   5.538 -0.1390 -3.5286 -0.7199
  436MOL0     H58839   2.861  11.210   5.406  2.2106 -0.6713  0.9922
  436MOL0     H58840   1.985  11.161   4.994  0.8516 -0.3989 -0.0873
  436MOL0     H58841   1.797  11.032   4.938 -2.8050  1.8500 -0.7809
  436MOL0     H58842   1.550  10.649   4.866  0.0970 -2.1764  1.3254
  436MOL0     H58843   1.377  10.490   4.914  3.9935  0.1638  0.3599
  436MOL0     H58844   0.153  10.143   6.688 -0.1228 -0.4790  0.1396
  436MOL0     H58845   0.039  10.312   6.844 -0.8338 -2.4882 -0.5999
  436MOL0     H58846  -0.301  10.613   6.842  1.0693 -1.1984  1.8444
  436MOL0     H58847  -0.438  10.739   6.993  0.4763 -1.6252  0.1222
  436MOL0     H58848  -0.512  10.852   7.188  0.3052  1.0814  1.7188
  436MOL0     H58849  -0.567  10.927   7.035  0.7650 -0.4194 -0.4752
  436MOL0     H58850  -0.538  11.059   7.308 -1.0017 -0.8401  0.1217
  436MOL0     H58851  -0.689  11.008   7.234  0.7134 -1.3318  1.8872
  436MOL0     H58852  -0.570  11.163   7.024  3.2359  0.1871  2.0080
  436MOL0     H58853  -0.526  11.248   7.167 -0.6504  0.2010  1.1362
  436MOL0     H58854  -0.763  11.308   7.055 -1.9852 -1.4115 -1.0079
  436MOL0     H58855  -0.802  11.144   7.098 -0.5879  0.2578 -2.2423
  436MOL0     H58856  -0.846  11.392   7.456 -0.0529 -2.7109  1.1708
  436MOL0     H58857  -0.137  11.030   7.037  3.8383 -1.6918  2.9333
  436MOL0     H58858   0.090  10.957   6.982 -2.1303  0.6931  0.7049
  436MOL0     H58859   0.122  10.836   6.858  1.6009 -0.9133  3.1204
  436MOL0     H58860   0.064  10.994   6.805  0.4830  0.4316  0.3316
  437MOL0     O58861  10.861   7.184   8.820 -0.5820  0.5448  0.1989
  437MOL0     C58862  10.771   7.257   8.840 -0.1842  0.7055 -0.1597
  437MOL0     O58863  10.765   7.385   8.805  0.0875  0.7785  0.1359
  437MOL0     C58864  10.872   7.449   8.754 -0.2331  0.2390  0.2554
  437MOL0     C58865  11.001   7.431   8.810  0.2493 -0.1021 -0.1946
  437MOL0     C58866  11.106   7.494   8.748  0.2225 -0.1255 -0.0336
  437MOL0     C58867  11.091   7.569   8.630  0.1445  0.5856  0.0509
  437MOL0     O58868  11.210   7.617   8.576  0.3573 -0.4640  0.7979
  437MOL0     C58869  11.195   7.660   8.447 -0.1552 -0.5944  0.7335
  437MOL0     C58870  11.336   7.666   8.397  0.2482  0.1877  0.4414
  437MOL0     C58871  11.403   7.532   8.380  0.6993 -0.0526  0.5319
  437MOL0     C58872  11.538   7.548   8.302 -0.5933  0.1278  0.5776
  437MOL0     C58873  11.613   7.407   8.290 -0.1127  0.2495  0.4396
  437MOL0     C58874  11.751   7.435   8.227  0.2879 -0.9584  0.0446
  437MOL0     C58875  11.850   7.320   8.206  0.2942 -0.3459  0.3201
  437MOL0     C58876  11.921   7.270   8.335 -0.1215  0.2374 -0.2431
  437MOL0     N58877  12.018   7.364   8.377 -1.0289 -0.2682 -0.1513
  437MOL0     C58878  11.990   7.463   8.468  0.1279  1.0582 -0.3601
  437MOL0     C58879  12.114   7.512   8.500  0.7141  0.5346 -0.1530
  437MOL0     C58880  12.160   7.617   8.594  0.4059 -0.2391 -0.3094
  437MOL0     C58881  12.226   7.563   8.717  0.2229  0.1048  0.4457
  437MOL0     C58882  12.138   7.574   8.844  0.2697  0.3263  0.9292
  437MOL0     C58883  12.027   7.462   8.836 -1.0845  0.5241 -1.0167
  437MOL0     O58884  11.985   7.421   8.965  0.5206 -0.6068  0.1652
  437MOL0     C58885  12.059   7.327   9.037  0.3652  0.1240 -0.6336
  437MOL0     C58886  12.019   7.315   9.178 -0.4897  0.4096  0.2970
  437MOL0     C58887  12.091   7.236   9.267 -0.8353 -0.5230  0.8663
  437MOL0     C58888  12.217   7.174   9.225 -0.2953 -0.3098  0.3956
  437MOL0     C58889  12.307   7.094   9.309 -0.8305 -0.3813  0.3591
  437MOL0     O58890  12.429   7.057   9.257 -0.1961  0.0261 -0.1565
  437MOL0     C58891  12.532   7.006   9.336  0.6726  0.1465 -0.5911
  437MOL0     C58892  12.513   6.908   9.439  0.6462 -0.3881  1.0112
  437MOL0     C58893  12.619   6.858   9.511 -0.1922 -0.3560  0.8253
  437MOL0     C58894  12.748   6.909   9.498 -1.1072 -0.5434 -0.2180
  437MOL0     O58895  12.849   6.844   9.562  0.1303 -0.3520 -0.2508
  437MOL0     C58896  12.961   6.919   9.607  0.9355 -0.1510  0.7058
  437MOL0     C58897  13.025   6.847   9.721  0.6269 -0.7377  0.2117
  437MOL0     C58898  13.138   6.935   9.801  0.4447  0.8299  0.8570
  437MOL0     C58899  13.255   6.977   9.712 -0.0109  0.2697 -0.5050
  437MOL0     C58900  13.357   7.071   9.789  0.7122 -0.7689  0.1599
  437MOL0     C58901  13.447   7.147   9.687 -0.8665  0.0627 -0.3545
  437MOL0     C58902  13.542   7.059   9.608  0.6261  0.4205 -0.2777
  437MOL0     C58903  13.651   7.145   9.533 -0.6004 -0.1318  0.8863
  437MOL0    Cl58904  13.731   7.049   9.396 -0.1386  0.0602  0.0879
  437MOL0     C58905  12.767   7.001   9.396  0.1346 -0.1521 -0.4006
  437MOL0     C58906  12.662   7.053   9.318  0.0894  0.6971  0.4054
  437MOL0     O58907  12.271   7.077   9.424 -0.0661 -0.0713  0.0620
  437MOL0     C58908  12.252   7.189   9.088  0.4671  0.0991  0.3815
  437MOL0     C58909  12.180   7.268   9.004  0.2457  0.5945 -0.1878
  437MOL0     N58910  12.206   7.426   8.433  0.2471  0.0330  0.0015
  437MOL0     N58911  12.147   7.337   8.368  0.0420  0.1973  1.0720
  437MOL0     C58912  10.959   7.599   8.586 -0.2975  0.0938  0.1575
  437MOL0     C58913  10.854   7.529   8.648  0.8171  0.0255 -0.1243
  437MOL0     C58914  10.659   7.200   8.919  0.4362 -0.1354  0.7006
  437MOL0     C58915  10.615   7.266   9.032  0.8602 -0.9485 -0.7031
  437MOL0     C58916  10.495   7.229   9.093 -0.2105  0.3854  0.2388
  437MOL0     C58917  10.427   7.113   9.056 -0.2473 -0.6223 -0.4348
  437MOL0     O58918  10.321   7.054   9.123  0.6489  0.2017  0.2585
  437MOL0     C58919  10.236   7.143   9.196 -0.9629 -0.9200 -0.6157
  437MOL0     C58920  10.149   7.056   9.289 -0.5760  0.2422  0.0590
  437MOL0     C58921  10.210   6.933   9.354  0.3390  0.0306  0.1757
  437MOL0     C58922  10.121   6.807   9.329 -0.4539  0.5772 -0.0439
  437MOL0     C58923  10.176   6.689   9.394  0.5002  0.2643  0.5539
  437MOL0     C58924  10.207   6.577   9.440  0.1214  0.5284  0.1498
  437MOL0     C58925  10.481   7.043   8.945  0.5812  0.1732  0.7091
  437MOL0     C58926  10.592   7.083   8.876 -0.5772  0.1931  0.4076
  437MOL0     C58927  10.650   6.996   8.766 -0.0504  0.5475 -0.0573
  437MOL0     H58928  11.027   7.367   8.893  1.5396 -0.1354 -0.6096
  437MOL0     H58929  11.203   7.473   8.791 -1.0325  0.6293  3.5060
  437MOL0     H58930  11.138   7.590   8.385 -0.4153  1.5457 -1.6233
  437MOL0     H58931  11.147   7.758   8.445 -0.7843 -0.8389 -2.9275
  437MOL0     H58932  11.399   7.726   8.463 -0.5856  0.4715  0.9856
  437MOL0     H58933  11.324   7.712   8.298  0.3336  1.8141  1.1569
  437MOL0     H58934  11.333   7.466   8.328  1.0574 -0.3988  0.4857
  437MOL0     H58935  11.422   7.475   8.472  0.0101 -2.0859 -0.5124
  437MOL0     H58936  11.518   7.582   8.200  2.4150  2.4569  0.6567
  437MOL0     H58937  11.605   7.620   8.350  1.1467 -2.1029  1.6869
  437MOL0     H58938  11.625   7.350   8.383 -0.9677 -3.4087 -1.5133
  437MOL0     H58939  11.555   7.348   8.220  1.5331 -3.1228  1.6806
  437MOL0     H58940  11.716   7.465   8.127  0.2964 -3.0704 -0.6420
  437MOL0     H58941  11.790   7.524   8.276 -0.5291  1.6510 -3.5864
  437MOL0     H58942  11.928   7.352   8.136 -1.4328  0.8552 -1.1421
  437MOL0     H58943  11.806   7.233   8.155  0.7167  0.9441 -2.4234
  437MOL0     H58944  11.838   7.247   8.403  0.0813  0.8433  0.2188
  437MOL0     H58945  11.964   7.173   8.311 -0.9829 -0.3039  0.3222
  437MOL0     H58946  11.897   7.496   8.513 -0.5621 -0.1774 -0.8458
  437MOL0     H58947  12.233   7.679   8.541 -0.1059 -0.5970 -1.4455
  437MOL0     H58948  12.077   7.683   8.620  0.1244  0.0611 -1.8647
  437MOL0     H58949  12.258   7.461   8.694  3.9121  1.7297 -2.8226
  437MOL0     H58950  12.315   7.624   8.732  0.4771  0.9749 -3.6066
  437MOL0     H58951  12.086   7.668   8.858 -2.6989 -1.0333 -0.1654
  437MOL0     H58952  12.213   7.559   8.923  4.0236 -1.5922 -2.5686
  437MOL0     H58953  12.067   7.376   8.782 -1.2564 -0.3193  0.1705
  437MOL0     H58954  11.943   7.496   8.775 -1.0141  1.2009 -0.7462
  437MOL0     H58955  11.929   7.366   9.212 -0.4480  1.7912 -1.4713
  437MOL0     H58956  12.068   7.229   9.373  1.3990 -2.4336  1.3370
  437MOL0     H58957  12.415   6.868   9.462 -0.0987  0.5729 -0.3609
  437MOL0     H58958  12.602   6.775   9.578 -0.6010  0.6623  2.0389
  437MOL0     H58959  13.033   6.945   9.528 -1.7178  2.4601 -1.0532
  437MOL0     H58960  12.929   7.019   9.635  0.1924  0.1755 -1.1354
  437MOL0     H58961  12.952   6.814   9.795  0.2468 -0.6691 -0.1264
  437MOL0     H58962  13.070   6.757   9.678 -1.1711 -1.6067  0.0666
  437MOL0     H58963  13.095   7.022   9.853  2.1726  2.1650  0.1619
  437MOL0     H58964  13.170   6.869   9.882 -0.9538 -0.8254  0.1271
  437MOL0     H58965  13.217   7.021   9.619  2.6576 -0.7241 -2.2116
  437MOL0     H58966  13.312   6.895   9.667  1.8155  1.4921 -0.5528
  437MOL0     H58967  13.412   7.000   9.852 -1.0177 -0.3310  2.2841
  437MOL0     H58968  13.313   7.146   9.854  0.3237 -0.5905 -0.3074
  437MOL0     H58969  13.399   7.215   9.615  1.4422  1.9870 -0.2217
  437MOL0     H58970  13.512   7.217   9.740 -0.5052 -1.3726  1.1640
  437MOL0     H58971  13.476   7.010   9.536 -1.0965  1.9599  0.1720
  437MOL0     H58972  13.591   6.982   9.668  1.7335 -0.6537 -2.4700
  437MOL0     H58973  13.599   7.234   9.498 -0.8398  0.5953  2.9759
  437MOL0     H58974  13.723   7.177   9.609  0.1631 -1.4318  0.7444
  437MOL0     H58975  12.870   7.036   9.387  0.2880  0.1760  1.9562
  437MOL0     H58976  12.676   7.119   9.233 -0.6864 -0.8669 -0.9856
  437MOL0     H58977  12.337   7.131   9.055 -0.0003 -0.5244  0.2617
  437MOL0     H58978  12.212   7.274   8.900  1.0528 -0.4757 -0.0245
  437MOL0     H58979  10.939   7.665   8.502 -0.9525 -0.0006  0.2284
  437MOL0     H58980  10.756   7.542   8.604  1.9940  0.6870 -2.7662
  437MOL0     H58981  10.663   7.355   9.072  0.0579 -1.3380  1.2202
  437MOL0     H58982  10.456   7.287   9.176 -3.1477 -0.2843 -0.5423
  437MOL0     H58983  10.172   7.203   9.131 -0.4394 -1.8936 -2.0658
  437MOL0     H58984  10.279   7.228   9.251 -2.7842  1.1129 -2.1747
  437MOL0     H58985  10.071   7.018   9.222 -0.2024  0.2555 -0.3813
  437MOL0     H58986  10.103   7.125   9.361  2.1915  1.4146  0.8341
  437MOL0     H58987  10.221   6.942   9.463 -2.7516 -0.1614  0.5983
  437MOL0     H58988  10.299   6.893   9.305 -1.4245 -3.1990 -0.6982
  437MOL0     H58989  10.017   6.829   9.358 -0.7413  1.8801 -1.9027
  437MOL0     H58990  10.107   6.784   9.223  1.9618  0.9292 -0.4824
  437MOL0     H58991  10.232   6.479   9.475 -1.8315 -0.3047 -0.6325
  437MOL0     H58992  10.423   6.955   8.918  1.5701 -0.9096  1.9718
  437MOL0     H58993  10.721   6.937   8.825 -0.5472 -0.3227 -0.3145
  437MOL0     H58994  10.570   6.936   8.721  0.5703  0.9453 -1.7539
  437MOL0     H58995  10.703   7.046   8.684 -1.1265 -0.4985 -1.4472
  438MOL0     O58996   5.760   2.303   3.150  0.0697  0.0086 -0.2811
  438MOL0     C58997   5.719   2.412   3.184 -0.2162 -0.4552  1.1297
  438MOL0     O58998   5.805   2.531   3.197  0.2149  0.0273  0.7311
  438MOL0     C58999   5.937   2.528   3.164  0.4632 -0.3165 -1.0255
  438MOL0     C59000   6.014   2.618   3.243  0.0661  0.1305 -0.1560
  438MOL0     C59001   6.153   2.628   3.219  0.6812  0.3970  0.4362
  438MOL0     C59002   6.201   2.572   3.103 -0.8147  0.0473  0.6792
  438MOL0     O59003   6.336   2.587   3.077 -0.0376  0.1742  0.7016
  438MOL0     C59004   6.371   2.667   2.965  0.1401  0.0469  0.3525
  438MOL0     C59005   6.401   2.581   2.837  0.1724  0.2451 -0.6258
  438MOL0     C59006   6.482   2.463   2.870 -0.4845 -0.0279  0.3112
  438MOL0     C59007   6.515   2.369   2.748  1.2383 -0.2549  0.1741
  438MOL0     C59008   6.570   2.238   2.803 -0.5516 -0.0421  0.0718
  438MOL0     C59009   6.616   2.140   2.702  0.3975 -0.4223 -0.4039
  438MOL0     C59010   6.694   2.187   2.587 -0.2255 -0.5959  0.7800
  438MOL0     C59011   6.821   2.249   2.636 -0.8696 -0.2015  0.5667
  438MOL0     N59012   6.921   2.245   2.529 -0.2689 -0.0187 -0.3461
  438MOL0     C59013   7.049   2.198   2.525  0.0040 -0.6618  0.1494
  438MOL0     C59014   7.100   2.220   2.402 -0.0271 -0.1473  0.3358
  438MOL0     C59015   7.247   2.186   2.364 -0.2055 -0.1754  0.2300
  438MOL0     C59016   7.284   2.276   2.243  0.4744  0.4714  0.4415
  438MOL0     C59017   7.347   2.410   2.291 -0.2031  0.0362  0.2011
  438MOL0     C59018   7.442   2.472   2.184  0.3404 -0.2927 -0.4722
  438MOL0     O59019   7.550   2.388   2.151  0.8050  0.3400  0.2197
  438MOL0     C59020   7.674   2.399   2.193 -0.9809 -0.4462  0.2758
  438MOL0     C59021   7.763   2.291   2.173 -0.8546 -0.4608 -0.1674
  438MOL0     C59022   7.903   2.298   2.207  0.0875  0.2383 -0.7801
  438MOL0     C59023   7.959   2.420   2.260 -0.2381  0.0725  0.1857
  438MOL0     C59024   8.103   2.440   2.278  0.0665 -0.1825  0.0336
  438MOL0     O59025   8.152   2.561   2.336  0.3673 -1.1007  0.9936
  438MOL0     C59026   8.286   2.578   2.367  1.0150 -0.0568  0.2583
  438MOL0     C59027   8.391   2.482   2.382 -0.2182 -0.6587 -0.3049
  438MOL0     C59028   8.518   2.525   2.410  0.8137 -0.0643 -0.5054
  438MOL0     C59029   8.556   2.660   2.412 -1.1922  0.4138  0.8059
  438MOL0     O59030   8.685   2.706   2.420  0.1542 -0.2654  0.0754
  438MOL0     C59031   8.790   2.616   2.461 -1.2885  0.0165 -0.4392
  438MOL0     C59032   8.919   2.693   2.456  0.8408 -0.1605 -0.5389
  438MOL0     C59033   9.038   2.599   2.495  0.3468  0.4611  0.0336
  438MOL0     C59034   9.169   2.677   2.497 -0.2298 -0.3355 -0.3426
  438MOL0     C59035   9.281   2.580   2.525 -0.2467 -0.6053 -0.0656
  438MOL0     C59036   9.404   2.652   2.569  1.0848  0.3310 -0.5019
  438MOL0     C59037   9.502   2.542   2.615  0.0871 -0.6068  1.3843
  438MOL0     C59038   9.615   2.589   2.701  0.2248 -0.6219  0.2934
  438MOL0    Cl59039   9.723   2.706   2.624  0.1722 -0.5909  0.3861
  438MOL0     C59040   8.462   2.753   2.375 -0.4514 -0.6018 -0.3633
  438MOL0     C59041   8.332   2.711   2.363  0.4891  0.4109 -0.3108
  438MOL0     O59042   8.175   2.348   2.240 -0.1226 -0.0739  0.0833
  438MOL0     C59043   7.868   2.519   2.297  0.8325 -1.0017  0.4748
  438MOL0     C59044   7.732   2.512   2.257  0.0047  0.1693  0.4743
  438MOL0     N59045   7.003   2.281   2.327  0.4803 -0.1142  0.8754
  438MOL0     N59046   6.901   2.295   2.402 -0.4651  0.3579 -0.4296
  438MOL0     C59047   6.120   2.487   3.025 -0.8317  0.9039 -0.3034
  438MOL0     C59048   5.993   2.456   3.058 -0.0200 -0.2280  0.3818
  438MOL0     C59049   5.591   2.426   3.250  0.5332  0.3667 -0.9587
  438MOL0     C59050   5.490   2.347   3.193 -0.3300 -0.1172 -0.6082
  438MOL0     C59051   5.366   2.351   3.241  0.3322 -0.0905 -0.6432
  438MOL0     C59052   5.324   2.432   3.346  0.8833  0.8300 -0.1754
  438MOL0     O59053   5.189   2.435   3.390 -0.3790  0.2333  0.6822
  438MOL0     C59054   5.097   2.337   3.346 -0.7834 -0.1154  0.4009
  438MOL0     C59055   4.968   2.354   3.417  0.2491 -0.2839 -0.1244
  438MOL0     C59056   4.980   2.311   3.566  1.0406  0.1724  0.7938
  438MOL0     C59057   4.837   2.287   3.625 -0.7176  0.6307  0.4866
  438MOL0     C59058   4.728   2.383   3.587 -0.0395 -0.5213 -0.6444
  438MOL0     C59059   4.644   2.451   3.531 -0.5698 -0.6020  0.1599
  438MOL0     C59060   5.419   2.511   3.412  0.3674  0.4675  0.4353
  438MOL0     C59061   5.553   2.507   3.366 -0.0310 -0.3812  0.5031
  438MOL0     C59062   5.644   2.602   3.433 -0.6545  0.5361  0.2994
  438MOL0     H59063   5.973   2.664   3.333 -0.2278  0.6883 -0.5676
  438MOL0     H59064   6.226   2.680   3.280  1.4232 -0.0257 -0.0651
  438MOL0     H59065   6.299   2.747   2.949  1.3253  1.7712  2.9123
  438MOL0     H59066   6.468   2.706   2.999  0.5904  2.9081 -3.5313
  438MOL0     H59067   6.436   2.646   2.756 -0.4447  0.4487 -0.7296
  438MOL0     H59068   6.304   2.543   2.805 -0.1527 -1.3219  1.9659
  438MOL0     H59069   6.430   2.392   2.934 -0.8932  0.0874  0.1077
  438MOL0     H59070   6.571   2.504   2.919 -0.4575  0.3470 -0.0380
  438MOL0     H59071   6.424   2.359   2.688  2.1396  2.5707 -1.8987
  438MOL0     H59072   6.583   2.423   2.681 -0.0226 -0.5517 -1.4165
  438MOL0     H59073   6.657   2.262   2.864  1.6961 -1.1639 -2.4520
  438MOL0     H59074   6.490   2.184   2.855 -0.3561  2.2784  2.9924
  438MOL0     H59075   6.664   2.057   2.753 -0.3681 -0.2390  0.6627
  438MOL0     H59076   6.523   2.101   2.659 -0.2896  1.7308 -0.9952
  438MOL0     H59077   6.651   2.269   2.527  2.4419  1.3198  1.2827
  438MOL0     H59078   6.713   2.099   2.525  1.3619 -0.9120  1.6577
  438MOL0     H59079   6.804   2.350   2.674 -1.0544 -0.4185  1.0776
  438MOL0     H59080   6.877   2.190   2.709 -1.9168 -0.8702  0.8660
  438MOL0     H59081   7.101   2.154   2.610  1.0675  3.3126  1.8218
  438MOL0     H59082   7.313   2.204   2.449 -3.5971  0.6731  2.9195
  438MOL0     H59083   7.256   2.078   2.348  2.2124  0.1613 -1.1105
  438MOL0     H59084   7.355   2.222   2.180 -1.4949 -0.3281 -1.2006
  438MOL0     H59085   7.193   2.283   2.183  0.0063  2.0084  1.2616
  438MOL0     H59086   7.405   2.384   2.380  0.8074 -2.6486 -1.1222
  438MOL0     H59087   7.264   2.480   2.304 -1.5496 -0.9759 -2.2727
  438MOL0     H59088   7.474   2.568   2.225 -2.3086 -0.1969  1.6682
  438MOL0     H59089   7.384   2.489   2.093 -0.9438 -0.5150  0.2879
  438MOL0     H59090   7.735   2.202   2.119 -1.3030 -1.2066  1.2361
  438MOL0     H59091   7.965   2.209   2.197  0.4873  0.3746  0.3704
  438MOL0     H59092   8.373   2.376   2.393 -1.5994 -0.3022  1.3297
  438MOL0     H59093   8.596   2.451   2.424 -0.3530 -1.5611 -1.5027
  438MOL0     H59094   8.766   2.577   2.561  1.1365 -1.4451 -0.3525
  438MOL0     H59095   8.801   2.537   2.386  0.8558  1.3332 -1.6254
  438MOL0     H59096   8.930   2.745   2.360 -1.2045  1.3653 -0.0233
  438MOL0     H59097   8.911   2.771   2.533 -1.0687  0.0334 -0.8952
  438MOL0     H59098   9.014   2.549   2.590 -0.5787  3.5960  1.6007
  438MOL0     H59099   9.039   2.523   2.417 -3.0610  0.0297  0.2565
  438MOL0     H59100   9.175   2.753   2.576  2.0592 -1.5404  0.7070
  438MOL0     H59101   9.187   2.729   2.403 -0.8203  2.8607  1.1603
  438MOL0     H59102   9.310   2.524   2.436 -0.5511 -0.9088  0.0262
  438MOL0     H59103   9.253   2.511   2.605  0.3551  1.7519  2.3343
  438MOL0     H59104   9.447   2.705   2.483  2.6643  1.8468  1.1319
  438MOL0     H59105   9.389   2.721   2.653 -0.8464  0.1787 -0.6728
  438MOL0     H59106   9.536   2.494   2.523 -1.2731 -0.4009  0.7544
  438MOL0     H59107   9.462   2.463   2.679  2.3832 -1.2281  2.1474
  438MOL0     H59108   9.576   2.630   2.795 -1.2730 -0.6669 -0.2755
  438MOL0     H59109   9.658   2.492   2.727 -1.1995 -1.6008 -0.8371
  438MOL0     H59110   8.498   2.853   2.357  0.8384 -1.1309 -0.8734
  438MOL0     H59111   8.252   2.780   2.338  2.3673  2.9004  0.2539
  438MOL0     H59112   7.909   2.612   2.335  0.1296 -0.3881 -0.2227
  438MOL0     H59113   7.666   2.594   2.285 -2.4762 -1.4350 -0.3908
  438MOL0     H59114   6.146   2.445   2.929 -0.4016  0.1718  0.1159
  438MOL0     H59115   5.926   2.396   2.998 -0.2343  0.4389 -0.0570
  438MOL0     H59116   5.516   2.287   3.106 -2.2163 -3.5807  1.0203
  438MOL0     H59117   5.289   2.290   3.196 -1.0338  0.3260  1.0433
  438MOL0     H59118   5.140   2.237   3.362  2.1632  0.8379 -0.8610
  438MOL0     H59119   5.073   2.345   3.240  1.0115 -0.7188 -0.0916
  438MOL0     H59120   4.890   2.294   3.369 -0.1378  1.0992 -1.2884
  438MOL0     H59121   4.922   2.453   3.421 -0.8961 -0.8204  0.3309
  438MOL0     H59122   5.026   2.397   3.614  2.3595 -0.6274  1.0208
  438MOL0     H59123   5.034   2.216   3.575  0.3941 -0.1238  1.6806
  438MOL0     H59124   4.797   2.189   3.600 -4.0086  1.8495  0.4660
  438MOL0     H59125   4.849   2.283   3.734  1.4793 -2.1548  0.2715
  438MOL0     H59126   4.579   2.523   3.485 -1.2482  0.4354  2.6100
  438MOL0     H59127   5.374   2.557   3.499 -0.8773 -2.7714  1.6582
  438MOL0     H59128   5.728   2.538   3.464 -1.2208 -1.3357 -1.7270
  438MOL0     H59129   5.670   2.689   3.373 -0.4795  1.4587  1.6722
  438MOL0     H59130   5.592   2.646   3.518 -0.9082  0.7467  0.0377
  439MOL0     O59131   9.560   7.687   5.579 -0.9993 -0.3705 -0.0467
  439MOL0     C59132   9.485   7.782   5.563  0.5101  0.5213  0.6476
  439MOL0     O59133   9.510   7.893   5.489  0.6424  0.4846 -0.1276
  439MOL0     C59134   9.618   7.921   5.414 -0.6466  0.1056  0.6154
  439MOL0     C59135   9.746   7.866   5.440 -0.5275 -0.4789  0.1515
  439MOL0     C59136   9.852   7.892   5.353 -0.5505  0.0873 -0.0719
  439MOL0     C59137   9.833   7.968   5.234  0.5068  0.7013 -0.1632
  439MOL0     O59138   9.925   8.006   5.142  0.6328  0.9027  0.0610
  439MOL0     C59139  10.038   7.913   5.125 -0.6097  0.1555  0.0043
  439MOL0     C59140  10.128   7.991   5.035 -0.3047  0.1721 -0.4746
  439MOL0     C59141  10.266   7.920   5.028  0.4813 -0.0032  0.6576
  439MOL0     C59142  10.341   7.971   4.909  0.0331  0.5108  0.4190
  439MOL0     C59143  10.484   7.898   4.903  0.0404  0.4217 -0.0156
  439MOL0     C59144  10.540   7.925   4.761 -0.1801  0.2205 -0.2456
  439MOL0     C59145  10.695   7.895   4.758  0.7712 -0.5021  0.4955
  439MOL0     C59146  10.781   8.003   4.823  0.3890 -0.4578 -0.0902
  439MOL0     N59147  10.921   7.952   4.842  0.3804 -0.4092  0.8658
  439MOL0     C59148  10.970   7.872   4.944  0.2122 -0.1885  1.0216
  439MOL0     C59149  11.099   7.884   4.943 -0.4570  0.1156 -0.0563
  439MOL0     C59150  11.185   7.836   5.058 -0.4467  0.3210  0.3108
  439MOL0     C59151  11.310   7.781   4.986  0.1334  0.5861 -0.0190
  439MOL0     C59152  11.413   7.706   5.068 -0.7901 -1.0524  0.1772
  439MOL0     C59153  11.536   7.694   4.987 -0.4330 -0.2211 -0.0380
  439MOL0     O59154  11.641   7.641   5.065 -0.4915 -0.5720  0.4095
  439MOL0     C59155  11.765   7.623   5.000  0.4057  0.3364 -0.6425
  439MOL0     C59156  11.784   7.653   4.861 -0.5136  0.1842 -0.8046
  439MOL0     C59157  11.916   7.632   4.801  0.2294  0.3071  0.3968
  439MOL0     C59158  12.025   7.587   4.884  0.3906 -0.3490  0.0072
  439MOL0     C59159  12.160   7.558   4.827  0.7792 -0.0002  0.6203
  439MOL0     O59160  12.240   7.486   4.905  0.1241 -0.3049  0.5820
  439MOL0     C59161  12.374   7.480   4.866 -0.2068 -0.2019 -0.2855
  439MOL0     C59162  12.482   7.551   4.929  1.1076  0.0037  0.1794
  439MOL0     C59163  12.609   7.534   4.886 -0.9111 -0.9791 -0.1553
  439MOL0     C59164  12.647   7.450   4.782 -0.1380 -0.0243  0.1855
  439MOL0     O59165  12.773   7.439   4.736  0.5367  0.0498 -0.2154
  439MOL0     C59166  12.874   7.529   4.788  1.1614  0.2552 -0.3312
  439MOL0     C59167  12.986   7.531   4.686  0.1468 -0.9782  0.3082
  439MOL0     C59168  13.124   7.557   4.743  0.0380  0.1955 -0.1011
  439MOL0     C59169  13.237   7.504   4.652  0.2065  1.1057  0.1250
  439MOL0     C59170  13.376   7.545   4.687  0.2066 -0.4890  0.2177
  439MOL0     C59171  13.477   7.472   4.602  0.3439  0.4173  0.3688
  439MOL0     C59172  13.606   7.472   4.681 -0.4848 -0.2321 -0.0726
  439MOL0     C59173  13.718   7.393   4.610 -0.3253 -0.0731  0.2437
  439MOL0    Cl59174  13.871   7.429   4.679 -0.6324 -0.0655  0.0878
  439MOL0     C59175  12.544   7.377   4.720  0.2304  0.2587 -0.5133
  439MOL0     C59176  12.412   7.388   4.764  0.2335 -0.5533 -0.5199
  439MOL0     O59177  12.191   7.604   4.719 -0.7707  0.5563  0.2441
  439MOL0     C59178  12.003   7.566   5.026  0.7489 -0.3567  0.2773
  439MOL0     C59179  11.871   7.580   5.075  0.7304 -0.0265 -1.1464
  439MOL0     N59180  11.135   7.969   4.837 -0.1142 -0.2052  0.6371
  439MOL0     N59181  11.024   8.002   4.777  0.1089 -0.3924 -0.2346
  439MOL0     C59182   9.710   8.028   5.213  0.2925  0.1598 -0.0378
  439MOL0     C59183   9.601   7.997   5.305 -0.1674 -0.7307 -0.3704
  439MOL0     C59184   9.350   7.774   5.627  0.0737 -0.0495  0.4578
  439MOL0     C59185   9.286   7.900   5.657 -0.1517 -0.6319  0.0179
  439MOL0     C59186   9.171   7.903   5.736  0.3528 -0.0980  0.3615
  439MOL0     C59187   9.107   7.783   5.777  0.4506  0.6471  0.3387
  439MOL0     O59188   9.001   7.786   5.860 -0.7005  0.2043 -0.9426
  439MOL0     C59189   8.872   7.769   5.799  0.5750  0.3104 -0.4534
  439MOL0     C59190   8.794   7.901   5.783 -0.0129  0.6270  0.1862
  439MOL0     C59191   8.749   7.939   5.922 -0.0606  0.2995 -0.1210
  439MOL0     C59192   8.662   8.064   5.911  0.2273 -0.1998 -0.0511
  439MOL0     C59193   8.585   8.081   6.033  0.8849  1.1627  0.0269
  439MOL0     C59194   8.514   8.100   6.129  0.4214 -1.0066 -0.9860
  439MOL0     C59195   9.171   7.657   5.753 -0.0880 -0.0900 -0.1712
  439MOL0     C59196   9.292   7.655   5.676  0.0889  0.3813 -0.7121
  439MOL0     C59197   9.352   7.510   5.655  0.0350 -0.2046 -0.5466
  439MOL0     H59198   9.767   7.832   5.541 -0.2059  0.5489  0.4404
  439MOL0     H59199   9.953   7.855   5.365  0.2186  2.4407  1.3653
  439MOL0     H59200  10.090   7.888   5.218 -1.0792 -1.3872 -0.1124
  439MOL0     H59201  10.001   7.818   5.085 -1.4265  0.5561 -0.2064
  439MOL0     H59202  10.134   8.094   5.072  0.0488 -0.3198  0.8918
  439MOL0     H59203  10.083   7.994   4.936 -2.3696  3.7391  0.3857
  439MOL0     H59204  10.244   7.813   5.030 -3.4940  0.6659  1.6084
  439MOL0     H59205  10.319   7.946   5.121  0.8512  1.3405  0.0909
  439MOL0     H59206  10.282   7.947   4.820  0.5429  0.0482  0.2056
  439MOL0     H59207  10.346   8.080   4.913 -0.3401  0.7281 -2.7579
  439MOL0     H59208  10.549   7.944   4.978  0.7893  0.9890 -0.9747
  439MOL0     H59209  10.490   7.791   4.924 -0.1042  0.7763  2.0201
  439MOL0     H59210  10.489   7.859   4.690 -1.1927 -0.0459  0.7077
  439MOL0     H59211  10.524   8.029   4.731  0.4597  0.0646 -1.1866
  439MOL0     H59212  10.728   7.887   4.654 -3.4559 -0.6685 -1.0225
  439MOL0     H59213  10.721   7.805   4.814 -1.2172 -0.8388  0.9343
  439MOL0     H59214  10.772   8.092   4.759 -0.7649 -0.2938  0.2772
  439MOL0     H59215  10.742   8.036   4.919 -1.0108 -0.9444 -0.4605
  439MOL0     H59216  10.915   7.813   5.016 -3.6106 -1.1830 -2.3611
  439MOL0     H59217  11.218   7.916   5.125  2.6094  0.3254 -1.0153
  439MOL0     H59218  11.141   7.754   5.114  0.1012 -1.2252 -1.3988
  439MOL0     H59219  11.283   7.711   4.907  3.4298 -1.0293  0.1097
  439MOL0     H59220  11.355   7.863   4.929 -0.0602  1.0652  0.4996
  439MOL0     H59221  11.367   7.611   5.098 -3.0531 -0.2031 -0.3494
  439MOL0     H59222  11.444   7.766   5.154  0.6053 -0.9260 -0.3892
  439MOL0     H59223  11.566   7.788   4.941  2.1948 -1.5720 -1.3461
  439MOL0     H59224  11.510   7.617   4.913 -0.9899 -1.5083  1.4290
  439MOL0     H59225  11.709   7.699   4.798 -3.5657 -2.2609  0.7576
  439MOL0     H59226  11.927   7.632   4.693  1.4778 -4.2078  0.3563
  439MOL0     H59227  12.450   7.622   5.006 -3.0865 -1.8040  0.3792
  439MOL0     H59228  12.689   7.587   4.937  1.8178 -2.9294 -2.1146
  439MOL0     H59229  12.836   7.628   4.812  1.4544 -0.3012  2.8991
  439MOL0     H59230  12.900   7.486   4.885  1.5833  1.9680  0.3362
  439MOL0     H59231  12.994   7.441   4.625 -0.6357 -0.7709 -0.1165
  439MOL0     H59232  12.950   7.615   4.625  0.1942  0.6860  2.4587
  439MOL0     H59233  13.137   7.664   4.762 -1.3687 -0.1490  3.4231
  439MOL0     H59234  13.130   7.510   4.841 -1.0031  0.6731  0.2055
  439MOL0     H59235  13.218   7.537   4.549  1.6511  1.7390  0.0338
  439MOL0     H59236  13.225   7.396   4.661 -0.1336  1.0107 -1.2258
  439MOL0     H59237  13.399   7.529   4.793  0.8434 -0.4235  0.0984
  439MOL0     H59238  13.380   7.653   4.670 -0.2186 -0.7361 -1.6735
  439MOL0     H59239  13.447   7.368   4.585  3.1934 -1.0696  3.2925
  439MOL0     H59240  13.494   7.518   4.504 -2.4136 -0.4634 -0.6285
  439MOL0     H59241  13.592   7.433   4.782 -0.6532  0.8532  0.3419
  439MOL0     H59242  13.651   7.571   4.692 -0.6275 -0.1410 -0.3143
  439MOL0     H59243  13.706   7.284   4.619  0.0142  0.0331  2.4010
  439MOL0     H59244  13.724   7.417   4.504 -2.1150  3.7332  0.8344
  439MOL0     H59245  12.563   7.303   4.643  0.0031 -2.1793  1.6507
  439MOL0     H59246  12.333   7.329   4.719  0.4584 -0.1829 -1.4359
  439MOL0     H59247  12.081   7.526   5.090  0.5228  1.5849  1.8862
  439MOL0     H59248  11.849   7.567   5.180  1.6786  0.1517 -0.9201
  439MOL0     H59249   9.701   8.100   5.132 -1.4043 -0.4591 -0.4406
  439MOL0     H59250   9.500   8.035   5.288 -0.4436 -1.0435  0.5201
  439MOL0     H59251   9.334   7.995   5.636  0.1180 -0.6613  0.4940
  439MOL0     H59252   9.123   7.998   5.757 -2.1263 -1.1497 -0.1885
  439MOL0     H59253   8.808   7.696   5.851  0.2525  1.0393  0.1975
  439MOL0     H59254   8.883   7.716   5.705  1.1054  1.4191 -1.0287
  439MOL0     H59255   8.718   7.882   5.707 -1.1619  2.0922  0.9299
  439MOL0     H59256   8.858   7.980   5.743 -0.6189  1.3249  0.5737
  439MOL0     H59257   8.839   7.959   5.981  1.1179 -1.7698 -1.0909
  439MOL0     H59258   8.699   7.849   5.960  1.0689 -1.3474 -2.3045
  439MOL0     H59259   8.720   8.154   5.893 -2.0029  1.0892 -1.2520
  439MOL0     H59260   8.594   8.069   5.825 -0.6198  0.7143  0.6579
  439MOL0     H59261   8.457   8.128   6.215  1.4422  1.7777 -1.1301
  439MOL0     H59262   9.128   7.571   5.803 -0.5815  1.7824  2.8583
  439MOL0     H59263   9.273   7.440   5.685 -0.0297  0.6189  1.3401
  439MOL0     H59264   9.383   7.495   5.551 -0.4288  2.3412 -1.1115
  439MOL0     H59265   9.433   7.491   5.726  0.8334  1.6232 -0.9169
  440MOL0     O59266   6.008   8.507  10.560  0.4309  0.5221 -0.7225
  440MOL0     C59267   5.936   8.568  10.638  0.3840 -0.5590 -0.1390
  440MOL0     O59268   5.970   8.669  10.717 -0.5453 -0.5338 -0.6852
  440MOL0     C59269   6.098   8.725  10.701 -0.2016  0.7383 -0.5378
  440MOL0     C59270   6.202   8.694  10.787 -0.1112  0.9026  0.2495
  440MOL0     C59271   6.327   8.752  10.777  1.1181 -0.3736  0.3002
  440MOL0     C59272   6.351   8.858  10.685  0.4665  0.8505  0.1399
  440MOL0     O59273   6.474   8.920  10.685 -0.1477 -0.0417 -0.2429
  440MOL0     C59274   6.535   8.953  10.553  0.2311  0.6218  0.1522
  440MOL0     C59275   6.679   8.992  10.567  0.7068 -0.4950 -0.0966
  440MOL0     C59276   6.740   9.052  10.439  0.6260  0.2256 -0.3283
  440MOL0     C59277   6.778   8.937  10.348  0.6737  0.9096  1.0386
  440MOL0     C59278   6.825   9.000  10.217 -0.0460 -0.5209 -0.4317
  440MOL0     C59279   6.876   8.902  10.113  0.0719 -0.7157 -0.0713
  440MOL0     C59280   6.993   8.804  10.159 -0.1242 -0.8651  1.2667
  440MOL0     C59281   7.044   8.725  10.041 -0.0475 -0.2152 -0.0025
  440MOL0     N59282   7.160   8.643  10.058  0.4032 -0.1748 -0.4791
  440MOL0     C59283   7.242   8.633  10.171  0.1222 -0.1720  0.5125
  440MOL0     C59284   7.360   8.583  10.125  0.1505  1.0900 -0.0326
  440MOL0     C59285   7.491   8.548  10.196 -1.0290  0.2929  0.1348
  440MOL0     C59286   7.509   8.397  10.231 -0.3056 -0.6852  1.0394
  440MOL0     C59287   7.493   8.317  10.105  0.2909 -0.1920 -0.6732
  440MOL0     C59288   7.525   8.172  10.132  0.1104 -0.1754  0.0632
  440MOL0     O59289   7.484   8.085  10.029 -0.1943 -0.0952  0.1256
  440MOL0     C59290   7.347   8.061  10.012 -0.4961  0.6626 -0.4697
  440MOL0     C59291   7.314   7.983   9.899  0.3468  0.5206  0.0186
  440MOL0     C59292   7.182   7.948   9.868  0.3605  0.7344  0.4395
  440MOL0     C59293   7.078   8.006   9.938  0.4791  0.4945 -0.5637
  440MOL0     C59294   6.936   7.983   9.909  0.0496 -0.4993  0.3119
  440MOL0     O59295   6.843   8.088   9.934  0.0478 -0.0069  0.6013
  440MOL0     C59296   6.712   8.051   9.917  0.1722  0.1941 -0.0745
  440MOL0     C59297   6.656   8.032   9.790  1.5184 -0.1393 -0.4063
  440MOL0     C59298   6.518   7.991   9.780 -0.1927 -0.6313 -0.0385
  440MOL0     C59299   6.438   7.957   9.887 -0.5641  0.3467  0.2169
  440MOL0     O59300   6.313   7.925   9.855 -0.3537 -0.5082  0.4452
  440MOL0     C59301   6.211   7.946   9.954 -1.0343 -0.2574  0.0212
  440MOL0     C59302   6.079   7.972   9.900 -0.6634  0.1410 -0.5814
  440MOL0     C59303   5.965   7.883   9.930  0.3123 -0.0177 -0.5736
  440MOL0     C59304   5.846   7.910   9.843  0.1249  0.3009  0.1129
  440MOL0     C59305   5.725   7.823   9.872 -0.7511  0.5550 -0.2841
  440MOL0     C59306   5.611   7.882   9.792 -0.0610 -0.5055 -0.0726
  440MOL0     C59307   5.487   7.799   9.816  1.4095 -0.4912  0.1340
  440MOL0     C59308   5.373   7.839   9.721  0.5866 -0.5719 -0.1574
  440MOL0    Cl59309   5.219   7.761   9.750  0.0648 -0.3361 -0.0051
  440MOL0     C59310   6.495   7.971  10.014  0.2178 -0.1799  0.8125
  440MOL0     C59311   6.630   8.014  10.031  0.0586 -0.3638 -0.0850
  440MOL0     O59312   6.909   7.874   9.868 -0.0862  0.2783 -0.0899
  440MOL0     C59313   7.107   8.093  10.049  0.2287  0.9717 -0.2369
  440MOL0     C59314   7.242   8.120  10.082 -0.1115  0.0400  0.3043
  440MOL0     N59315   7.350   8.560   9.986  0.3583 -0.5114  0.2519
  440MOL0     N59316   7.230   8.597   9.948  0.6156  0.3953  0.0152
  440MOL0     C59317   6.246   8.889  10.598  0.5892 -0.2541 -0.1839
  440MOL0     C59318   6.119   8.828  10.604  1.0383  0.3760 -0.3620
  440MOL0     C59319   5.790   8.539  10.607  0.0959 -0.5658  0.3345
  440MOL0     C59320   5.715   8.653  10.583  0.5143 -0.0623  0.2356
  440MOL0     C59321   5.583   8.642  10.542  0.2780 -0.2287  0.0661
  440MOL0     C59322   5.509   8.518  10.522 -0.2203 -0.8709 -0.0705
  440MOL0     O59323   5.385   8.498  10.470 -0.5504 -0.2273 -0.1515
  440MOL0     C59324   5.323   8.613  10.415  0.4107 -0.5548  0.2223
  440MOL0     C59325   5.176   8.588  10.402  0.9146  0.6224  0.3716
  440MOL0     C59326   5.105   8.696  10.315  0.1997  0.8931 -0.0206
  440MOL0     C59327   5.115   8.657  10.164  0.0843 -1.7200 -0.6861
  440MOL0     C59328   5.009   8.737  10.100  0.3638 -0.3075  0.0030
  440MOL0     C59329   4.935   8.808  10.031  0.0692 -0.5228 -0.3439
  440MOL0     C59330   5.591   8.407  10.534  0.0383  0.3299 -0.3662
  440MOL0     C59331   5.724   8.409  10.575  0.7254 -0.1711 -1.0790
  440MOL0     C59332   5.804   8.274  10.573 -1.0179  0.1953 -0.2305
  440MOL0     H59333   6.198   8.622  10.867  1.7065  1.3125  0.7707
  440MOL0     H59334   6.404   8.735  10.851 -1.2698  1.6496  3.5305
  440MOL0     H59335   6.526   8.870  10.482 -1.2254  1.1968 -0.3805
  440MOL0     H59336   6.480   9.039  10.515  1.6741  2.0853  1.2574
  440MOL0     H59337   6.742   8.908  10.596  1.8139 -1.2667 -4.1406
  440MOL0     H59338   6.688   9.066  10.647  0.8920 -1.1802  0.5285
  440MOL0     H59339   6.829   9.108  10.468  0.0822  1.6000 -1.2473
  440MOL0     H59340   6.673   9.118  10.383  1.8060  1.5765 -0.2138
  440MOL0     H59341   6.864   8.888  10.395 -0.0780 -0.3010  1.1865
  440MOL0     H59342   6.701   8.863  10.323 -0.5105  2.2009  0.6761
  440MOL0     H59343   6.733   9.042  10.175 -2.8065 -3.6654  1.8781
  440MOL0     H59344   6.893   9.084  10.234  3.2631 -2.5736 -2.4275
  440MOL0     H59345   6.787   8.843  10.089  0.0949 -0.4100 -0.9445
  440MOL0     H59346   6.900   8.969  10.030  0.8952  3.1377  2.9612
  440MOL0     H59347   6.963   8.724  10.227 -1.8971 -1.4988 -0.1732
  440MOL0     H59348   7.071   8.864  10.206 -1.7911  1.9049  0.7056
  440MOL0     H59349   6.958   8.665  10.011  0.3873 -0.2573 -1.2252
  440MOL0     H59350   7.062   8.799   9.963  0.0100 -1.4252 -1.1752
  440MOL0     H59351   7.216   8.649  10.275 -2.4128  0.5181 -0.1493
  440MOL0     H59352   7.569   8.575  10.125 -0.5228 -0.1536  0.5096
  440MOL0     H59353   7.488   8.604  10.290 -3.3282  0.3821  0.0766
  440MOL0     H59354   7.603   8.372  10.282 -2.3201 -1.0520  4.9388
  440MOL0     H59355   7.425   8.370  10.295 -0.1704 -0.2009  1.4299
  440MOL0     H59356   7.562   8.356  10.029  0.8584 -0.9154 -0.5381
  440MOL0     H59357   7.391   8.329  10.067  0.6354 -1.6699 -2.1973
  440MOL0     H59358   7.475   8.140  10.223  2.1781  3.8442  2.9550
  440MOL0     H59359   7.633   8.157  10.141  0.5501  0.8146 -2.5020
  440MOL0     H59360   7.381   7.943   9.824 -0.6825 -0.4343 -0.4055
  440MOL0     H59361   7.173   7.878   9.786  0.6535 -0.7169  1.5981
  440MOL0     H59362   6.708   8.069   9.702  3.5618 -0.6971  0.5190
  440MOL0     H59363   6.469   8.000   9.683  1.5838  1.2039 -0.8442
  440MOL0     H59364   6.201   7.853  10.011 -2.8712 -2.9540 -4.1375
  440MOL0     H59365   6.244   8.033  10.012  0.1719  0.6940 -1.9639
  440MOL0     H59366   6.054   8.071   9.939 -2.5382 -0.3823 -0.3668
  440MOL0     H59367   6.086   7.990   9.793  2.5078  3.0048 -0.0678
  440MOL0     H59368   6.000   7.782   9.908 -2.8124 -1.4313  0.3211
  440MOL0     H59369   5.929   7.885  10.034  1.0714  1.6709 -0.3026
  440MOL0     H59370   5.876   7.886   9.741  0.4952  0.3704  0.2018
  440MOL0     H59371   5.812   8.014   9.850 -1.2581 -0.0764 -0.6269
  440MOL0     H59372   5.701   7.827   9.979  2.8549 -1.3402  0.7334
  440MOL0     H59373   5.742   7.722   9.833 -2.4146  0.6277 -1.3248
  440MOL0     H59374   5.604   7.988   9.819  2.6805 -0.3112  0.1022
  440MOL0     H59375   5.642   7.882   9.687  0.8744  0.1588  0.1908
  440MOL0     H59376   5.461   7.817   9.921 -0.5815  2.3796 -0.7348
  440MOL0     H59377   5.506   7.692   9.799 -0.7636 -1.1014  1.1914
  440MOL0     H59378   5.344   7.939   9.753 -0.6067 -1.3740  1.4399
  440MOL0     H59379   5.403   7.820   9.618  0.3646 -3.4215  0.2103
  440MOL0     H59380   6.436   7.946  10.102 -1.3415 -0.7211 -0.3282
  440MOL0     H59381   6.674   8.024  10.130 -1.6366  2.2951  0.5261
  440MOL0     H59382   7.029   8.149  10.100  0.9967  1.1252  0.8082
  440MOL0     H59383   7.267   8.187  10.163  0.1251  1.2129 -0.7038
  440MOL0     H59384   6.264   8.970  10.527 -1.3468 -1.4790 -2.2103
  440MOL0     H59385   6.042   8.848  10.530 -2.7530 -0.7205  2.8920
  440MOL0     H59386   5.758   8.752  10.600  0.1553  0.5480 -2.0413
  440MOL0     H59387   5.535   8.736  10.514 -2.7293 -1.8084 -0.5028
  440MOL0     H59388   5.374   8.639  10.322 -3.0247 -2.5644 -2.4921
  440MOL0     H59389   5.318   8.697  10.484 -0.2118  0.0234 -0.5076
  440MOL0     H59390   5.136   8.600  10.503 -0.5036  0.6094 -0.1697
  440MOL0     H59391   5.157   8.484  10.373  2.1867 -0.0931  1.9208
  440MOL0     H59392   5.159   8.791  10.325  1.7388  0.5554 -3.4609
  440MOL0     H59393   4.999   8.698  10.340 -0.3592 -0.6538 -1.9635
  440MOL0     H59394   5.209   8.687  10.116  0.9550 -1.0367  1.3147
  440MOL0     H59395   5.089   8.552  10.150 -0.1996 -1.6429 -0.7434
  440MOL0     H59396   4.865   8.868   9.976  1.4291  0.7958 -0.6951
  440MOL0     H59397   5.551   8.309  10.511  1.3290 -0.5813  1.0397
  440MOL0     H59398   5.901   8.288  10.526 -0.6449  0.1108  0.5048
  440MOL0     H59399   5.822   8.243  10.677 -4.2481  1.8969  1.0212
  440MOL0     H59400   5.755   8.201  10.509  2.1726 -0.3986 -2.1971
  441MOL0     O59401  10.408  10.266   7.106 -0.1726 -0.4361  0.2862
  441MOL0     C59402  10.421  10.365   7.035  0.1805 -0.1709  0.2393
  441MOL0     O59403  10.314  10.449   7.016  0.1476 -0.6450  0.3389
  441MOL0     C59404  10.197  10.425   7.087  0.0401 -0.3437  0.1566
  441MOL0     C59405  10.169  10.528   7.177  0.0819  0.4038  0.1668
  441MOL0     C59406  10.042  10.531   7.241 -0.5257  1.3080  0.0338
  441MOL0     C59407   9.944  10.427   7.221 -0.5430  0.0083  0.2392
  441MOL0     O59408   9.818  10.411   7.287 -0.0358  0.7946  0.7757
  441MOL0     C59409   9.755  10.522   7.350  0.2221 -0.6227 -0.0134
  441MOL0     C59410   9.623  10.477   7.423 -0.1345 -0.0128 -0.2058
  441MOL0     C59411   9.500  10.578   7.404 -0.3332 -0.2745  0.3361
  441MOL0     C59412   9.414  10.556   7.528 -0.0654  0.1716 -0.8129
  441MOL0     C59413   9.283  10.635   7.514  0.2261  0.6425  1.6406
  441MOL0     C59414   9.195  10.601   7.635 -0.0884  0.1957 -0.5530
  441MOL0     C59415   9.054  10.672   7.616 -0.4612  0.3613 -1.2170
  441MOL0     C59416   8.970  10.681   7.743  0.0938 -0.2915  0.3486
  441MOL0     N59417   8.858  10.779   7.729  1.4947 -0.2428 -0.3544
  441MOL0     C59418   8.860  10.906   7.780  0.0497 -0.5719  0.4975
  441MOL0     C59419   8.737  10.951   7.754 -0.3937  0.1206  0.4894
  441MOL0     C59420   8.693  11.083   7.787 -0.3916 -0.3001 -0.0184
  441MOL0     C59421   8.633  11.098   7.925  0.5271  0.2369  0.7506
  441MOL0     C59422   8.543  11.223   7.924  0.3644  0.4873 -0.5225
  441MOL0     C59423   8.494  11.253   8.068  0.4818  0.0094 -0.4669
  441MOL0     O59424   8.596  11.266   8.168  0.2396 -0.6518 -0.3886
  441MOL0     C59425   8.681  11.373   8.160  0.0160 -0.2848 -0.2993
  441MOL0     C59426   8.786  11.363   8.240 -0.5421  0.7148 -0.3453
  441MOL0     C59427   8.893  11.458   8.232  0.4520 -0.5702  0.0777
  441MOL0     C59428   8.883  11.568   8.149 -1.0856  0.2349  0.6231
  441MOL0     C59429   8.985  11.673   8.142 -0.1423  0.9526  0.1008
  441MOL0     O59430   8.983  11.757   8.034 -0.1747  0.3793  0.4839
  441MOL0     C59431   9.088  11.838   8.032  0.2417  0.1347  0.0943
  441MOL0     C59432   9.219  11.805   8.007  0.7196  0.1685  0.2216
  441MOL0     C59433   9.320  11.903   7.992 -0.6057 -0.5243  0.4882
  441MOL0     C59434   9.292  12.038   7.987  0.2061 -0.0425 -0.4678
  441MOL0     O59435   9.375  12.137   7.961 -0.6606 -0.4125  0.2250
  441MOL0     C59436   9.511  12.112   7.980 -1.1552 -0.4826  0.1124
  441MOL0     C59437   9.570  12.254   7.965 -0.1154 -0.2074  0.4754
  441MOL0     C59438   9.727  12.252   7.970 -0.0570 -0.6430  0.1921
  441MOL0     C59439   9.798  12.329   8.080  0.2786 -0.2549 -0.4591
  441MOL0     C59440   9.814  12.234   8.196  0.1086 -0.0370 -0.2408
  441MOL0     C59441   9.886  12.298   8.314  0.4443  0.6464  0.7557
  441MOL0     C59442   9.882  12.214   8.439  1.1129 -0.2852  0.5743
  441MOL0     C59443  10.003  12.220   8.527  0.2432  0.1441 -0.0790
  441MOL0    Cl59444  10.146  12.164   8.447  0.3646  0.1116  0.3381
  441MOL0     C59445   9.159  12.077   8.014  0.0843  0.0697  0.3185
  441MOL0     C59446   9.063  11.980   8.039 -0.2746 -0.0159  1.0706
  441MOL0     O59447   9.068  11.668   8.231 -0.5047 -0.5087 -0.2342
  441MOL0     C59448   8.780  11.577   8.054  0.0797  1.0146  0.0578
  441MOL0     C59449   8.677  11.478   8.065 -0.4559 -0.4487 -0.6305
  441MOL0     N59450   8.655  10.852   7.706 -0.4009 -0.1363  0.1593
  441MOL0     N59451   8.730  10.749   7.684  0.5587  0.1892  0.0267
  441MOL0     C59452   9.988  10.320   7.142 -0.6178 -0.1332  0.0852
  441MOL0     C59453  10.112  10.319   7.075 -0.4549  0.2569 -0.8316
  441MOL0     C59454  10.539  10.390   6.950  0.4757 -0.1123 -0.0764
  441MOL0     C59455  10.582  10.276   6.882  0.3370 -0.0171  0.2689
  441MOL0     C59456  10.696  10.281   6.799 -0.3952  0.2546 -0.1245
  441MOL0     C59457  10.757  10.405   6.780  0.2676 -0.2336 -0.2631
  441MOL0     O59458  10.869  10.424   6.710 -0.0219 -0.3918 -0.1320
  441MOL0     C59459  10.948  10.308   6.673  0.2444 -0.2303 -0.3350
  441MOL0     C59460  10.899  10.256   6.529 -0.9019  1.0273  0.6699
  441MOL0     C59461  10.904  10.381   6.443 -0.0977  0.5671  0.3674
  441MOL0     C59462  10.889  10.349   6.293  0.5465  0.7852 -0.4222
  441MOL0     C59463  10.999  10.271   6.248 -0.9307 -0.5173 -0.7967
  441MOL0     C59464  11.079  10.211   6.186  0.2336 -1.0165 -0.0094
  441MOL0     C59465  10.710  10.519   6.841 -0.9372 -0.0816 -0.5760
  441MOL0     C59466  10.599  10.514   6.927 -0.3717 -0.1276  0.5883
  441MOL0     C59467  10.561  10.637   7.001  0.2968 -0.5221 -0.7143
  441MOL0     H59468  10.231  10.617   7.189 -0.5491  0.5038  3.9973
  441MOL0     H59469  10.030  10.613   7.311 -0.8012  0.8803  0.4889
  441MOL0     H59470   9.813  10.575   7.426  0.3526 -0.6041 -0.1257
  441MOL0     H59471   9.720  10.598   7.278 -1.4336  0.3002  1.6704
  441MOL0     H59472   9.642  10.481   7.531  0.2217  2.5480 -0.2821
  441MOL0     H59473   9.585  10.377   7.400 -0.9001 -0.1498  1.5022
  441MOL0     H59474   9.444  10.554   7.313  0.7701 -0.4549 -0.3094
  441MOL0     H59475   9.536  10.682   7.408  0.4550 -0.5413  0.2832
  441MOL0     H59476   9.378  10.453   7.534 -2.6709  1.0525  3.1707
  441MOL0     H59477   9.462  10.587   7.621  0.3783 -0.6050 -0.7791
  441MOL0     H59478   9.306  10.742   7.506  0.3668  0.4702 -0.9615
  441MOL0     H59479   9.233  10.615   7.419  2.1236  0.9722  0.5028
  441MOL0     H59480   9.166  10.495   7.628 -3.6168  1.1245 -1.8812
  441MOL0     H59481   9.247  10.613   7.731 -0.4940  0.1431 -0.3215
  441MOL0     H59482   8.996  10.624   7.536  2.0288 -1.4919 -2.0508
  441MOL0     H59483   9.067  10.779   7.597  0.4619  1.1304  2.9080
  441MOL0     H59484   8.928  10.586   7.779  0.8244 -0.5432  0.5506
  441MOL0     H59485   9.036  10.722   7.820  0.5584 -2.6987  1.3157
  441MOL0     H59486   8.949  10.962   7.808  0.5524 -0.4389 -1.2277
  441MOL0     H59487   8.771  11.157   7.767 -1.2230  0.1869 -1.6126
  441MOL0     H59488   8.609  11.105   7.721 -0.4392 -1.5924 -0.4118
  441MOL0     H59489   8.573  11.009   7.946 -0.4242  0.8623  0.7812
  441MOL0     H59490   8.711  11.107   8.001  1.2311 -2.1952  0.3762
  441MOL0     H59491   8.450  11.210   7.868 -0.4558  1.0389  0.6773
  441MOL0     H59492   8.597  11.303   7.872 -0.0894  1.7823  0.9269
  441MOL0     H59493   8.425  11.172   8.096 -0.8838  0.3755 -2.5541
  441MOL0     H59494   8.422  11.335   8.069 -1.9625 -1.9357  1.9090
  441MOL0     H59495   8.802  11.278   8.306  0.1720  2.6051  2.0726
  441MOL0     H59496   8.983  11.450   8.292 -0.3088  0.9063  1.5365
  441MOL0     H59497   9.254  11.703   8.000 -0.3943 -0.1458 -1.1101
  441MOL0     H59498   9.420  11.862   7.986 -0.2567 -0.0698  2.4379
  441MOL0     H59499   9.535  12.087   8.083  2.4867  1.6809 -0.0376
  441MOL0     H59500   9.561  12.038   7.916  0.4143  0.1288  0.5901
  441MOL0     H59501   9.541  12.296   7.868  1.8754  0.8227  0.2727
  441MOL0     H59502   9.542  12.325   8.042 -0.2075  0.4870 -0.1909
  441MOL0     H59503   9.772  12.152   7.963  0.7815 -0.2294 -0.5553
  441MOL0     H59504   9.755  12.303   7.877 -1.8072 -0.7989 -0.4572
  441MOL0     H59505   9.739  12.419   8.101  0.4630  0.3622 -2.4381
  441MOL0     H59506   9.888  12.375   8.039  1.4115 -1.5127  0.5097
  441MOL0     H59507   9.888  12.158   8.168  1.8225  0.7291  1.9519
  441MOL0     H59508   9.720  12.184   8.220  1.2830 -2.0871  0.3428
  441MOL0     H59509   9.992  12.294   8.287 -0.0469 -0.5445 -1.1163
  441MOL0     H59510   9.846  12.396   8.341 -0.9737 -0.2643  2.1141
  441MOL0     H59511   9.880  12.113   8.397 -2.0042 -1.3963  2.9607
  441MOL0     H59512   9.789  12.229   8.495  1.2805  0.4338  0.6730
  441MOL0     H59513  10.022  12.324   8.557  1.0953 -0.2373  0.7209
  441MOL0     H59514   9.990  12.162   8.619  0.7281 -0.8255 -0.6096
  441MOL0     H59515   9.133  12.182   8.014  0.4991  0.2479  3.1271
  441MOL0     H59516   8.962  12.013   8.059  0.4244  2.1405  1.3110
  441MOL0     H59517   8.778  11.659   7.982 -1.8047  0.4965 -0.5325
  441MOL0     H59518   8.590  11.493   8.003 -2.3836 -0.2188  1.9577
  441MOL0     H59519   9.915  10.241   7.136  0.2515 -0.8715 -1.1171
  441MOL0     H59520  10.137  10.234   7.012 -2.1299 -0.2756 -0.8320
  441MOL0     H59521  10.547  10.174   6.896 -0.2719 -0.1308 -1.7813
  441MOL0     H59522  10.726  10.182   6.766 -2.3539 -0.5052  0.2009
  441MOL0     H59523  10.945  10.229   6.749  2.1565 -2.1739 -2.1314
  441MOL0     H59524  11.053  10.338   6.668 -0.1219  0.9536 -1.5708
  441MOL0     H59525  10.796  10.224   6.551 -0.1953  1.0374  4.7727
  441MOL0     H59526  10.966  10.175   6.501 -1.1663  1.0397 -0.0046
  441MOL0     H59527  10.992  10.440   6.470 -0.2685  1.2386 -0.4704
  441MOL0     H59528  10.815  10.440   6.467 -2.3275 -2.4754  0.1812
  441MOL0     H59529  10.799  10.292   6.267  0.7701 -1.3438  2.8641
  441MOL0     H59530  10.872  10.443   6.238  1.0896  2.0952  1.5524
  441MOL0     H59531  11.137  10.151   6.119  1.6414  0.9083 -0.5820
  441MOL0     H59532  10.764  10.613   6.834 -0.4915 -0.0783  1.9161
  441MOL0     H59533  10.618  10.629   7.094 -1.5770 -1.9490  0.3766
  441MOL0     H59534  10.597  10.727   6.950 -1.8077 -0.1815 -1.6790
  441MOL0     H59535  10.455  10.650   7.023  0.3180 -2.7134  0.9857
  442MOL0     O59536   7.433   1.171   0.711  0.0422 -0.1594  0.4981
  442MOL0     C59537   7.318   1.148   0.746  0.0600  0.1464  0.3672
  442MOL0     O59538   7.282   1.060   0.850  0.0985 -0.1148 -0.1348
  442MOL0     C59539   7.374   0.988   0.921 -0.3073 -0.7293  0.4675
  442MOL0     C59540   7.465   0.900   0.871  0.3569  0.4326 -0.0232
  442MOL0     C59541   7.560   0.842   0.956  0.1211  0.7304  0.2214
  442MOL0     C59542   7.560   0.857   1.089 -0.5904 -0.3540 -0.2688
  442MOL0     O59543   7.656   0.806   1.175  0.2975  0.2550 -0.7604
  442MOL0     C59544   7.755   0.718   1.132  0.4755 -0.1258  0.2235
  442MOL0     C59545   7.872   0.718   1.222  0.9031 -0.1371  0.1690
  442MOL0     C59546   7.955   0.593   1.203  0.1288 -0.3954  0.4795
  442MOL0     C59547   8.042   0.598   1.076  0.4133 -0.4034  0.0324
  442MOL0     C59548   8.160   0.490   1.071  0.4948  0.4658 -0.0898
  442MOL0     C59549   8.098   0.350   1.071 -0.7187 -1.0110 -0.5088
  442MOL0     C59550   8.203   0.265   0.995 -0.1534 -0.0712  0.5309
  442MOL0     C59551   8.125   0.149   0.947 -0.2146 -0.4979 -0.0565
  442MOL0     N59552   8.214   0.060   0.880 -0.0189  0.6869 -0.2463
  442MOL0     C59553   8.309  -0.015   0.942 -1.3655  0.6486  0.3741
  442MOL0     C59554   8.380  -0.087   0.844  0.8799 -0.0955 -0.7463
  442MOL0     C59555   8.497  -0.176   0.861 -0.2726 -0.2182  0.5134
  442MOL0     C59556   8.632  -0.106   0.845 -0.0924 -0.4962  0.2062
  442MOL0     C59557   8.669  -0.084   0.690  0.6550  0.1465 -0.1385
  442MOL0     C59558   8.756   0.041   0.670 -1.0170  0.6104 -0.0733
  442MOL0     O59559   8.881   0.037   0.739 -0.3845 -0.6035  0.8667
  442MOL0     C59560   8.978   0.128   0.703 -0.2232  0.1679 -0.1588
  442MOL0     C59561   9.107   0.108   0.751  0.2319 -0.1676  0.5005
  442MOL0     C59562   9.215   0.195   0.712  0.6832  0.2407 -0.0141
  442MOL0     C59563   9.182   0.299   0.623  0.0527  0.0965 -0.3493
  442MOL0     C59564   9.288   0.394   0.599 -0.5540 -0.6079  0.6356
  442MOL0     O59565   9.409   0.380   0.663 -0.5040 -0.2807  0.4311
  442MOL0     C59566   9.514   0.477   0.637  0.8205 -0.6412 -0.6581
  442MOL0     C59567   9.504   0.621   0.626 -0.5462  0.1655  0.6314
  442MOL0     C59568   9.616   0.700   0.638 -0.3757 -0.2375  1.1364
  442MOL0     C59569   9.746   0.648   0.644 -0.6864 -0.7525 -0.6874
  442MOL0     O59570   9.846   0.745   0.640 -0.4101  0.3834  0.0046
  442MOL0     C59571   9.971   0.694   0.594 -0.2265 -0.6443 -0.5873
  442MOL0     C59572  10.050   0.815   0.591  0.4727 -0.0316 -0.7341
  442MOL0     C59573  10.179   0.788   0.524 -0.6275 -0.5601 -0.0632
  442MOL0     C59574  10.273   0.909   0.527  0.5547  0.5727  0.6018
  442MOL0     C59575  10.417   0.893   0.463 -0.2118 -0.7102 -0.7636
  442MOL0     C59576  10.498   1.017   0.497  0.7785 -0.4892  0.0142
  442MOL0     C59577  10.626   1.028   0.419 -0.8685 -0.1085  1.0637
  442MOL0     C59578  10.606   1.043   0.271  0.3563  0.3391  0.8347
  442MOL0    Cl59579  10.520   1.189   0.220 -0.0604 -0.1815 -0.3858
  442MOL0     C59580   9.760   0.508   0.653  0.1620 -0.9239  0.9459
  442MOL0     C59581   9.644   0.423   0.642 -0.6915 -0.5199  0.2559
  442MOL0     O59582   9.256   0.493   0.533 -0.0959 -0.1364 -0.5537
  442MOL0     C59583   9.057   0.315   0.569 -0.1041  0.8436  0.2041
  442MOL0     C59584   8.956   0.219   0.608  0.1054 -0.2298  0.3864
  442MOL0     N59585   8.318  -0.049   0.724 -0.0719  0.2944  0.2944
  442MOL0     N59586   8.207   0.017   0.753 -0.9562 -0.0522  0.8619
  442MOL0     C59587   7.468   0.951   1.136  0.5540  0.3834 -0.6655
  442MOL0     C59588   7.374   1.016   1.056 -0.5793  0.1824 -0.6032
  442MOL0     C59589   7.212   1.230   0.671 -0.4566  0.0840 -0.1611
  442MOL0     C59590   7.082   1.180   0.671  0.0582  0.1185  0.2860
  442MOL0     C59591   6.975   1.249   0.604  0.0909 -0.3672  0.2293
  442MOL0     C59592   7.006   1.362   0.527 -0.2499 -0.4269 -0.0098
  442MOL0     O59593   6.897   1.418   0.467  0.5575 -0.1811  0.2580
  442MOL0     C59594   6.913   1.542   0.396 -0.8879  0.0314 -0.2064
  442MOL0     C59595   6.874   1.657   0.479  0.0660  0.7418  0.3231
  442MOL0     C59596   6.731   1.666   0.522 -0.4574 -0.1232  0.6146
  442MOL0     C59597   6.672   1.807   0.541  0.4621  0.4357  0.3973
  442MOL0     C59598   6.723   1.877   0.657  0.2770  0.3334 -0.2583
  442MOL0     C59599   6.744   1.928   0.761 -0.5644  0.5037  0.7547
  442MOL0     C59600   7.137   1.415   0.533  0.4973 -0.4757 -0.4673
  442MOL0     C59601   7.240   1.358   0.614  0.9982  0.0765  0.2187
  442MOL0     C59602   7.371   1.422   0.590 -0.9411 -0.0973  0.4214
  442MOL0     H59603   7.479   0.868   0.768  0.0837  0.6574 -0.1325
  442MOL0     H59604   7.625   0.769   0.908 -1.8159  0.0117 -1.5151
  442MOL0     H59605   7.705   0.621   1.123  0.4262 -0.1156  0.3911
  442MOL0     H59606   7.792   0.749   1.034 -0.2055 -1.9952 -0.6724
  442MOL0     H59607   7.831   0.735   1.322 -0.2499 -0.0833 -0.3086
  442MOL0     H59608   7.923   0.814   1.202  1.3850 -0.5717 -0.7756
  442MOL0     H59609   7.892   0.504   1.192 -3.3950  1.4946  2.9630
  442MOL0     H59610   8.013   0.575   1.294 -0.0108 -1.2573  0.4059
  442MOL0     H59611   7.973   0.591   0.992  1.2307  1.2689 -0.8423
  442MOL0     H59612   8.090   0.697   1.081  0.3432 -0.3970  0.8221
  442MOL0     H59613   8.217   0.501   0.979 -0.3263 -0.8735 -0.7860
  442MOL0     H59614   8.228   0.508   1.156 -1.4941 -0.4198  1.7885
  442MOL0     H59615   8.070   0.313   1.170  0.2482 -0.2220  0.0788
  442MOL0     H59616   8.007   0.359   1.011  0.5383 -2.1235 -2.7139
  442MOL0     H59617   8.285   0.237   1.062  2.4866  1.0349 -1.9944
  442MOL0     H59618   8.246   0.306   0.903  0.4336  0.3310  0.9748
  442MOL0     H59619   8.081   0.094   1.031  1.3872  0.6665  1.6311
  442MOL0     H59620   8.045   0.177   0.878  1.0050  1.9651 -0.5939
  442MOL0     H59621   8.340  -0.002   1.046 -1.6045  1.2394  0.3788
  442MOL0     H59622   8.498  -0.213   0.964  0.3824  2.4242  1.5348
  442MOL0     H59623   8.497  -0.260   0.791  2.2693 -0.2723  0.4981
  442MOL0     H59624   8.629  -0.007   0.892 -2.7203 -0.7787  0.7840
  442MOL0     H59625   8.708  -0.174   0.884  0.2423 -1.9107 -2.6368
  442MOL0     H59626   8.582  -0.059   0.628  3.4960 -0.3607 -4.8358
  442MOL0     H59627   8.721  -0.172   0.653  0.2874  0.0649 -0.4577
  442MOL0     H59628   8.697   0.127   0.702 -1.8034  1.4305 -3.3982
  442MOL0     H59629   8.765   0.049   0.561 -1.1978 -2.0049 -0.3351
  442MOL0     H59630   9.131   0.024   0.817  1.7241 -0.0721  0.1273
  442MOL0     H59631   9.311   0.180   0.759  0.1948 -0.0660  0.9139
  442MOL0     H59632   9.405   0.664   0.619  0.5882  2.6829 -3.6002
  442MOL0     H59633   9.594   0.806   0.628 -0.7013 -0.4290 -0.6807
  442MOL0     H59634  10.023   0.629   0.665 -0.4663 -1.3546 -1.0429
  442MOL0     H59635   9.971   0.644   0.496  1.4646 -0.7511 -0.5665
  442MOL0     H59636  10.004   0.884   0.519  1.6448  0.1529 -1.3319
  442MOL0     H59637  10.051   0.869   0.686 -2.3513  0.1784 -0.7264
  442MOL0     H59638  10.215   0.706   0.587 -0.0945  0.0698  0.4640
  442MOL0     H59639  10.175   0.746   0.423  0.4133  0.1000 -0.4017
  442MOL0     H59640  10.278   0.942   0.631 -1.6393  2.3472  0.2303
  442MOL0     H59641  10.222   0.979   0.459  0.2082 -1.3830 -1.2580
  442MOL0     H59642  10.397   0.879   0.356 -0.2877 -3.5642 -0.4346
  442MOL0     H59643  10.466   0.805   0.505  1.9192  0.6967 -0.1627
  442MOL0     H59644  10.441   1.109   0.484 -1.2023 -1.5263  0.8379
  442MOL0     H59645  10.518   1.004   0.604  0.6877 -0.8973 -0.0145
  442MOL0     H59646  10.684   0.940   0.447 -0.6570 -0.0539  0.7982
  442MOL0     H59647  10.685   1.114   0.453 -2.6375  0.3838  3.1486
  442MOL0     H59648  10.704   1.033   0.223 -0.0032  0.9940 -0.0661
  442MOL0     H59649  10.548   0.955   0.238  0.2766  0.7461 -0.1569
  442MOL0     H59650   9.857   0.459   0.653  0.6265 -0.1577 -1.6488
  442MOL0     H59651   9.649   0.315   0.643  1.3444 -0.4647  0.3108
  442MOL0     H59652   9.036   0.395   0.499 -1.9205  1.3656  1.2686
  442MOL0     H59653   8.858   0.235   0.563  0.0760  1.0890  0.8876
  442MOL0     H59654   7.454   0.968   1.242  0.0992 -2.2212 -0.2462
  442MOL0     H59655   7.302   1.092   1.086  0.1334  0.9613 -0.8255
  442MOL0     H59656   7.062   1.087   0.722  4.0293 -1.1419 -0.0706
  442MOL0     H59657   6.874   1.212   0.616  0.0549 -1.3185 -2.2852
  442MOL0     H59658   6.848   1.546   0.309 -0.9431  5.0901 -0.2010
  442MOL0     H59659   7.015   1.561   0.362 -0.0777  0.7614  2.3723
  442MOL0     H59660   6.899   1.753   0.432 -1.1388 -0.8579 -4.0587
  442MOL0     H59661   6.932   1.651   0.572 -1.7634  0.4555  1.4878
  442MOL0     H59662   6.720   1.610   0.616 -1.1234  0.1901  0.7328
  442MOL0     H59663   6.666   1.615   0.450 -1.8882  1.3825  0.7556
  442MOL0     H59664   6.694   1.872   0.456 -2.4982  2.2289  0.8709
  442MOL0     H59665   6.566   1.802   0.566  0.1533 -0.5345 -0.9714
  442MOL0     H59666   6.761   1.974   0.856 -2.7208  0.0392  1.4246
  442MOL0     H59667   7.168   1.509   0.488  0.5709 -1.2331 -2.0574
  442MOL0     H59668   7.434   1.356   0.531 -0.5468  0.9153 -0.3240
  442MOL0     H59669   7.361   1.518   0.537 -1.3278 -0.5633 -0.3686
  442MOL0     H59670   7.419   1.433   0.688  0.9315  1.1784 -0.5634
  443MOL0     O59671   4.030   2.492   5.237 -0.0166  0.1748  0.7548
  443MOL0     C59672   4.009   2.373   5.274  0.3744  0.0935 -0.1092
  443MOL0     O59673   4.070   2.306   5.376 -0.1672  0.3012  0.3512
  443MOL0     C59674   4.158   2.371   5.462 -0.3117  0.2021 -0.5477
  443MOL0     C59675   4.120   2.468   5.557 -0.9549 -0.2370 -0.2158
  443MOL0     C59676   4.217   2.540   5.626 -0.5273  0.6990  0.1963
  443MOL0     C59677   4.353   2.502   5.604 -0.1795 -0.2443 -0.0832
  443MOL0     O59678   4.432   2.589   5.666  0.4273  0.5408  0.4408
  443MOL0     C59679   4.545   2.529   5.735 -0.7561  0.6253 -0.3693
  443MOL0     C59680   4.646   2.640   5.765 -0.3932  1.1628  0.8945
  443MOL0     C59681   4.786   2.571   5.773  0.5724  0.1676  0.9299
  443MOL0     C59682   4.895   2.659   5.837 -0.6555 -0.1386  0.2370
  443MOL0     C59683   5.039   2.601   5.806  0.2661 -0.1307 -0.2367
  443MOL0     C59684   5.137   2.600   5.919  0.0615 -0.7446 -0.4597
  443MOL0     C59685   5.238   2.493   5.888  0.9464  0.0368  0.5514
  443MOL0     C59686   5.352   2.510   5.992 -0.3667 -0.4655  0.3343
  443MOL0     N59687   5.470   2.441   5.952 -0.4555  1.0618  0.8091
  443MOL0     C59688   5.538   2.438   5.828  0.3555  0.2194  0.5848
  443MOL0     C59689   5.666   2.387   5.849 -0.2761 -0.3542 -0.1061
  443MOL0     C59690   5.775   2.399   5.748 -0.0378  0.1761 -0.2212
  443MOL0     C59691   5.879   2.292   5.782 -0.2120 -0.1935  0.1283
  443MOL0     C59692   5.990   2.301   5.681 -0.1101 -0.5335 -0.0681
  443MOL0     C59693   6.090   2.186   5.695  0.6633  0.6322 -0.1700
  443MOL0     O59694   6.188   2.201   5.593 -0.4116  0.0229  0.2401
  443MOL0     C59695   6.299   2.121   5.613  0.6335  0.5793 -0.4231
  443MOL0     C59696   6.421   2.162   5.562 -0.4364  0.3857 -0.0391
  443MOL0     C59697   6.542   2.105   5.598 -0.4004 -1.0904  0.2014
  443MOL0     C59698   6.557   1.983   5.663  0.2396  0.3610 -0.0462
  443MOL0     C59699   6.678   1.911   5.704 -0.2812  0.6128 -0.3852
  443MOL0     O59700   6.802   1.970   5.670  0.7223  0.0950  0.0785
  443MOL0     C59701   6.927   1.914   5.690  0.0158 -0.9518 -0.3718
  443MOL0     C59702   7.021   1.966   5.602 -0.5444 -0.2325  1.0794
  443MOL0     C59703   7.153   1.924   5.614  0.2634 -0.0449 -0.0713
  443MOL0     C59704   7.199   1.833   5.712  0.1084  0.2766  0.6705
  443MOL0     O59705   7.333   1.795   5.719 -0.1490 -0.3682 -0.0596
  443MOL0     C59706   7.386   1.694   5.809 -0.1797  0.9675 -0.7507
  443MOL0     C59707   7.409   1.751   5.950  0.3925 -0.1470  0.2715
  443MOL0     C59708   7.480   1.895   5.963 -0.1317 -0.2555 -0.0099
  443MOL0     C59709   7.604   1.908   5.860 -0.0328 -0.3526 -0.3059
  443MOL0     C59710   7.717   1.807   5.898  0.9086 -0.6890  0.0839
  443MOL0     C59711   7.796   1.758   5.778  0.1230 -0.0157 -0.0306
  443MOL0     C59712   7.898   1.662   5.810 -0.3775 -0.1145 -0.6705
  443MOL0     C59713   8.009   1.738   5.880  0.0744 -0.6931  0.2603
  443MOL0    Cl59714   8.132   1.614   5.893  0.5671 -0.2961 -0.3978
  443MOL0     C59715   7.102   1.779   5.803  0.2729 -0.1720 -0.4789
  443MOL0     C59716   6.973   1.828   5.787 -0.2688 -0.4993 -0.6373
  443MOL0     O59717   6.663   1.804   5.766 -0.3046  0.0438  0.2437
  443MOL0     C59718   6.431   1.935   5.712  0.6363  0.2065  0.3827
  443MOL0     C59719   6.312   2.003   5.692 -0.3924 -0.4490  0.4513
  443MOL0     N59720   5.668   2.359   5.988 -0.2021 -0.0243  0.6822
  443MOL0     N59721   5.553   2.382   6.039 -0.4270 -0.3992  0.1063
  443MOL0     C59722   4.392   2.398   5.517  0.4606 -0.5858  0.4303
  443MOL0     C59723   4.296   2.337   5.443  0.4026  0.1158 -0.7237
  443MOL0     C59724   3.905   2.299   5.197 -0.3634  0.3694  0.2509
  443MOL0     C59725   3.942   2.265   5.062 -0.4521 -0.1130 -1.0903
  443MOL0     C59726   3.846   2.199   4.980 -0.0402  0.0492  0.3255
  443MOL0     C59727   3.720   2.163   5.032 -1.2956  0.3397  0.0526
  443MOL0     O59728   3.614   2.106   4.968 -0.4597 -0.0332 -0.2228
  443MOL0     C59729   3.632   2.066   4.833  0.4122 -1.1442  0.5264
  443MOL0     C59730   3.513   1.991   4.797  0.6077  0.3235  0.0135
  443MOL0     C59731   3.374   2.067   4.806 -0.0474  1.1732  0.2619
  443MOL0     C59732   3.260   1.955   4.814 -1.0292 -0.5024  0.4421
  443MOL0     C59733   3.212   1.922   4.675 -0.1763  0.4934 -0.5410
  443MOL0     C59734   3.159   1.881   4.574  0.3316 -0.3511  0.5736
  443MOL0     C59735   3.686   2.205   5.153 -0.9386  0.1777 -0.4147
  443MOL0     C59736   3.772   2.269   5.247 -0.6007 -0.3887 -0.6177
  443MOL0     C59737   3.727   2.308   5.379 -0.4377 -0.7145 -0.4807
  443MOL0     H59738   4.013   2.484   5.557 -1.2459 -1.9985 -0.6761
  443MOL0     H59739   4.192   2.633   5.675 -1.4457  0.6675 -0.1886
  443MOL0     H59740   4.518   2.477   5.827 -0.3203 -1.2425 -1.2524
  443MOL0     H59741   4.588   2.449   5.675  1.3256  1.2914  0.1579
  443MOL0     H59742   4.620   2.686   5.861 -0.0497  2.0486  0.5817
  443MOL0     H59743   4.651   2.711   5.682  2.0995 -0.3947 -0.4206
  443MOL0     H59744   4.816   2.541   5.672  0.3987 -2.2671  1.5380
  443MOL0     H59745   4.773   2.482   5.835  1.3275 -0.1058  0.7195
  443MOL0     H59746   4.890   2.757   5.787 -1.0211 -0.2697  0.0054
  443MOL0     H59747   4.883   2.679   5.943  0.0679  0.7415  0.1702
  443MOL0     H59748   5.035   2.497   5.771  2.9651  0.4362 -2.5919
  443MOL0     H59749   5.074   2.672   5.731 -1.1376  0.3226 -0.4934
  443MOL0     H59750   5.180   2.700   5.928  0.3301 -0.9195  0.2082
  443MOL0     H59751   5.081   2.581   6.011 -1.3713  0.0212 -1.1308
  443MOL0     H59752   5.271   2.510   5.785 -1.1518 -4.1867 -1.0498
  443MOL0     H59753   5.198   2.392   5.885  1.2456 -0.0610 -1.6901
  443MOL0     H59754   5.387   2.613   5.998  1.7758 -1.1287  0.1580
  443MOL0     H59755   5.308   2.499   6.091  0.8750 -0.6445  0.8922
  443MOL0     H59756   5.486   2.472   5.739 -0.7010 -1.7150  0.3929
  443MOL0     H59757   5.740   2.392   5.645  2.0511 -1.0837 -0.8965
  443MOL0     H59758   5.821   2.495   5.771  0.7514 -0.4947  1.1639
  443MOL0     H59759   5.906   2.312   5.886 -1.7819 -2.4943  1.0396
  443MOL0     H59760   5.834   2.193   5.778 -1.0802  0.1822  0.3328
  443MOL0     H59761   6.037   2.401   5.682  1.8626 -1.3549 -2.0331
  443MOL0     H59762   5.948   2.289   5.581 -3.6860  1.6439  0.9982
  443MOL0     H59763   6.049   2.087   5.673  4.4554 -1.3768  0.9737
  443MOL0     H59764   6.130   2.187   5.796 -0.2030 -1.0692  0.2360
  443MOL0     H59765   6.430   2.248   5.496 -0.8298  0.0623 -0.5205
  443MOL0     H59766   6.627   2.160   5.559 -1.5128 -0.4243 -1.3752
  443MOL0     H59767   6.998   2.048   5.534 -0.7507 -0.8796  0.3601
  443MOL0     H59768   7.229   1.962   5.548 -1.9945  2.5196 -1.3885
  443MOL0     H59769   7.330   1.600   5.818  2.0123 -0.2540  1.1288
  443MOL0     H59770   7.479   1.649   5.773 -1.0904 -2.6288  0.9322
  443MOL0     H59771   7.310   1.761   5.995  0.6667  1.7984  0.5498
  443MOL0     H59772   7.473   1.688   6.013  0.8523  0.1863  0.1451
  443MOL0     H59773   7.408   1.973   5.937  0.5754  0.0800 -1.0371
  443MOL0     H59774   7.508   1.902   6.068 -0.6785  2.4419  0.0237
  443MOL0     H59775   7.639   2.011   5.876  2.5577 -0.9960 -1.3232
  443MOL0     H59776   7.571   1.907   5.756 -1.1256  0.9125  0.0105
  443MOL0     H59777   7.667   1.718   5.937 -1.6332 -0.8506 -3.0830
  443MOL0     H59778   7.780   1.850   5.976 -0.8663  2.8209 -0.2378
  443MOL0     H59779   7.725   1.703   5.716 -0.0849 -1.6763  1.5991
  443MOL0     H59780   7.831   1.847   5.725 -2.1837  0.0152 -1.6510
  443MOL0     H59781   7.933   1.610   5.721 -0.0550 -2.7695  0.8999
  443MOL0     H59782   7.869   1.588   5.885 -0.6036 -0.2151 -0.8572
  443MOL0     H59783   8.045   1.821   5.818  5.3137 -2.3574  0.6249
  443MOL0     H59784   7.983   1.773   5.980  0.8463 -1.2659  0.6767
  443MOL0     H59785   7.124   1.697   5.872 -1.4600 -2.9029 -2.9151
  443MOL0     H59786   6.910   1.807   5.874 -1.8132 -0.0516 -1.5977
  443MOL0     H59787   6.431   1.853   5.784  0.8163  1.8559  2.3578
  443MOL0     H59788   6.226   1.948   5.731 -3.5556  2.8685 -1.2894
  443MOL0     H59789   4.494   2.382   5.484 -0.2888 -2.5903 -1.1831
  443MOL0     H59790   4.313   2.260   5.368  1.0628  0.0642 -0.5248
  443MOL0     H59791   4.043   2.290   5.030 -0.3530 -0.2201 -0.8589
  443MOL0     H59792   3.868   2.169   4.878 -1.0879  1.7940 -0.4545
  443MOL0     H59793   3.718   1.999   4.818  0.7277 -1.1835  2.3183
  443MOL0     H59794   3.649   2.151   4.767 -0.1806 -2.7591 -1.8634
  443MOL0     H59795   3.513   1.906   4.865 -2.2931 -0.7861 -1.2165
  443MOL0     H59796   3.531   1.956   4.695  2.2019  0.2995  0.2686
  443MOL0     H59797   3.360   2.142   4.727  2.9627  2.1045  0.5034
  443MOL0     H59798   3.366   2.122   4.900 -0.5952 -0.4272  1.1913
  443MOL0     H59799   3.301   1.866   4.863  0.3953  0.3854  0.9213
  443MOL0     H59800   3.174   1.990   4.873 -0.9531 -1.3750  1.1097
  443MOL0     H59801   3.116   1.854   4.479 -1.3518  1.4719  0.7434
  443MOL0     H59802   3.585   2.182   5.188 -1.0985  2.8066  1.0500
  443MOL0     H59803   3.730   2.417   5.387 -1.1823 -0.7767  0.9679
  443MOL0     H59804   3.627   2.267   5.396  0.1813 -3.4364 -2.6455
  443MOL0     H59805   3.803   2.265   5.446  1.9319 -1.4419 -3.4269
  444MOL0     O59806   2.272   0.050   4.376  0.5372 -0.1337 -0.6547
  444MOL0     C59807   2.179   0.131   4.365  0.1898 -0.1320 -0.0599
  444MOL0     O59808   2.189   0.255   4.301 -0.0228 -0.8271  0.2019
  444MOL0     C59809   2.305   0.318   4.314  0.3072 -0.5143 -0.3582
  444MOL0     C59810   2.314   0.430   4.403 -0.3767  0.5691 -0.4000
  444MOL0     C59811   2.431   0.509   4.406 -0.0202 -0.9024  0.7796
  444MOL0     C59812   2.532   0.476   4.317 -0.5405  0.0750  0.2660
  444MOL0     O59813   2.651   0.541   4.306 -0.0032 -0.4299 -0.5677
  444MOL0     C59814   2.624   0.685   4.284  0.3658  0.0886 -0.2990
  444MOL0     C59815   2.749   0.757   4.254  0.1787 -0.2012 -0.3291
  444MOL0     C59816   2.869   0.726   4.346 -0.1561  0.1525 -0.0075
  444MOL0     C59817   2.991   0.793   4.301  0.0706  0.2407 -0.8284
  444MOL0     C59818   3.109   0.761   4.386 -0.4504 -0.4083 -0.0618
  444MOL0     C59819   3.237   0.828   4.330  0.2277  0.5900 -0.6763
  444MOL0     C59820   3.357   0.783   4.423  0.6040 -0.4442  0.0294
  444MOL0     C59821   3.485   0.861   4.381  0.4955  0.3717 -0.6962
  444MOL0     N59822   3.485   0.985   4.454 -0.2241 -0.4417 -0.5356
  444MOL0     C59823   3.463   1.111   4.412 -0.1046  0.0694  0.0019
  444MOL0     C59824   3.495   1.195   4.518 -0.4192  0.4760  1.2397
  444MOL0     C59825   3.489   1.340   4.521 -0.4206 -0.7494 -0.1141
  444MOL0     C59826   3.388   1.395   4.611  0.3479 -0.6272 -0.1692
  444MOL0     C59827   3.370   1.546   4.597 -0.0549  0.0126  1.0161
  444MOL0     C59828   3.489   1.630   4.635 -0.7264 -0.6529  0.6316
  444MOL0     O59829   3.563   1.578   4.755 -0.3067  0.0972  0.5111
  444MOL0     C59830   3.699   1.610   4.774 -0.2219  0.3395 -0.2002
  444MOL0     C59831   3.771   1.527   4.862  0.5146 -0.6735 -0.7044
  444MOL0     C59832   3.898   1.557   4.891 -0.2859 -0.0002 -0.2826
  444MOL0     C59833   3.962   1.666   4.833  0.3279 -0.2331  0.1006
  444MOL0     C59834   4.103   1.687   4.845  0.7549  0.2638 -0.5051
  444MOL0     O59835   4.164   1.759   4.742 -0.1026 -0.2123 -0.4551
  444MOL0     C59836   4.299   1.751   4.730  0.2918 -0.4037 -0.0868
  444MOL0     C59837   4.347   1.661   4.635 -0.6294  0.4122 -0.3536
  444MOL0     C59838   4.484   1.651   4.611 -0.9841 -0.3144  0.7145
  444MOL0     C59839   4.583   1.736   4.678 -0.2777  0.6306 -0.1265
  444MOL0     O59840   4.720   1.726   4.650 -0.2700  0.1099  0.4031
  444MOL0     C59841   4.765   1.611   4.568 -0.2236 -0.1014 -0.2383
  444MOL0     C59842   4.907   1.583   4.602  0.2932  0.4502  0.2280
  444MOL0     C59843   4.925   1.514   4.743 -0.5347 -0.3065 -0.9110
  444MOL0     C59844   5.060   1.446   4.755 -0.0485 -0.2050  0.6955
  444MOL0     C59845   5.175   1.535   4.769 -0.4803 -0.3585  0.3294
  444MOL0     C59846   5.296   1.459   4.814 -0.1374  0.5157  0.0418
  444MOL0     C59847   5.336   1.368   4.695  0.3368  0.0393 -0.0972
  444MOL0     C59848   5.450   1.278   4.739  0.0030 -0.2173  0.3961
  444MOL0    Cl59849   5.409   1.136   4.835  0.6919 -0.3542 -0.1979
  444MOL0     C59850   4.529   1.824   4.771 -0.4485 -0.0475  0.3818
  444MOL0     C59851   4.393   1.833   4.803 -0.3483  0.1483 -0.9109
  444MOL0     O59852   4.163   1.627   4.940  0.2608 -0.3950  0.2696
  444MOL0     C59853   3.887   1.742   4.741  0.0196 -0.1991  0.4802
  444MOL0     C59854   3.756   1.718   4.714  0.1267 -0.1145  0.9042
  444MOL0     N59855   3.556   1.109   4.609 -0.1284  0.0044  0.2455
  444MOL0     N59856   3.535   0.983   4.579 -0.0330 -0.2238  0.4310
  444MOL0     C59857   2.527   0.362   4.230  0.0465 -0.4008 -0.1084
  444MOL0     C59858   2.409   0.291   4.237 -0.3919  0.0330  0.2837
  444MOL0     C59859   2.048   0.078   4.414  0.2656  0.4476 -0.1614
  444MOL0     C59860   2.049  -0.012   4.518  0.0404  0.2672  0.2235
  444MOL0     C59861   1.931  -0.054   4.583 -0.6716  0.9195 -0.1218
  444MOL0     C59862   1.811  -0.011   4.535 -0.5598  1.0980  0.3637
  444MOL0     O59863   1.693  -0.050   4.584 -0.1953  0.0542 -0.2290
  444MOL0     C59864   1.681  -0.122   4.705 -0.1610  0.6069 -0.6603
  444MOL0     C59865   1.534  -0.126   4.750  0.4741 -0.6321 -0.4608
  444MOL0     C59866   1.455  -0.231   4.673 -0.0414 -0.2217  0.8101
  444MOL0     C59867   1.309  -0.239   4.725  0.0557 -0.7537  0.3034
  444MOL0     C59868   1.227  -0.120   4.685 -0.8627  1.0345  0.3015
  444MOL0     C59869   1.163  -0.024   4.651  0.4574 -0.2645 -0.3472
  444MOL0     C59870   1.807   0.082   4.426 -0.0303 -0.2041  0.5733
  444MOL0     C59871   1.925   0.120   4.361 -0.2185 -0.2453  0.3489
  444MOL0     C59872   1.904   0.209   4.246 -0.2011  0.1761  0.5961
  444MOL0     H59873   2.229   0.454   4.467  0.5530  0.7723  0.7775
  444MOL0     H59874   2.441   0.601   4.462  3.5200 -1.9227  2.0824
  444MOL0     H59875   2.569   0.695   4.190  2.2535  0.6673 -1.4038
  444MOL0     H59876   2.570   0.741   4.361  1.5670  0.2321  0.4665
  444MOL0     H59877   2.731   0.865   4.256  0.3647 -0.1620  1.7548
  444MOL0     H59878   2.782   0.720   4.157 -2.2774 -1.7722 -0.6477
  444MOL0     H59879   2.886   0.618   4.348 -1.8486 -0.1388  1.0173
  444MOL0     H59880   2.845   0.774   4.441  2.7464  2.4846 -0.3235
  444MOL0     H59881   3.021   0.773   4.198  4.5841 -1.3687  0.5799
  444MOL0     H59882   2.979   0.901   4.313 -2.9361 -0.1876  1.2045
  444MOL0     H59883   3.095   0.798   4.488 -0.6535 -1.6250  0.3655
  444MOL0     H59884   3.122   0.653   4.398 -0.3957 -0.5799 -1.5702
  444MOL0     H59885   3.255   0.795   4.227  0.6722  2.3409 -1.2075
  444MOL0     H59886   3.230   0.937   4.335  0.4627  0.5471  1.1423
  444MOL0     H59887   3.371   0.675   4.413 -3.2294 -1.0175 -0.6956
  444MOL0     H59888   3.334   0.792   4.529 -0.3933  0.1894 -0.2298
  444MOL0     H59889   3.576   0.807   4.409  0.9556  1.2148 -0.5325
  444MOL0     H59890   3.486   0.872   4.272  1.5010  1.3661 -0.5968
  444MOL0     H59891   3.429   1.137   4.312  1.0575 -4.2511 -1.7669
  444MOL0     H59892   3.586   1.371   4.560 -0.6568  2.1281 -1.5001
  444MOL0     H59893   3.484   1.383   4.420  1.1089  0.0724  0.1372
  444MOL0     H59894   3.294   1.348   4.582 -1.2423  1.5267  1.1307
  444MOL0     H59895   3.402   1.375   4.718  1.9030 -0.3720 -0.2894
  444MOL0     H59896   3.296   1.566   4.676  1.1333  0.0223  2.1677
  444MOL0     H59897   3.337   1.572   4.496  0.2550 -3.5574 -0.1459
  444MOL0     H59898   3.444   1.728   4.653  0.6584  1.3450 -4.8183
  444MOL0     H59899   3.554   1.640   4.547 -1.8022  2.8026  0.0470
  444MOL0     H59900   3.723   1.442   4.909  1.2873 -0.8097 -0.1400
  444MOL0     H59901   3.940   1.494   4.968  1.1205 -0.3867 -1.3321
  444MOL0     H59902   4.284   1.606   4.565  1.3699  1.5504 -3.2144
  444MOL0     H59903   4.524   1.588   4.532  0.9464  0.2589  1.1774
  444MOL0     H59904   4.710   1.518   4.589 -1.3710  1.0688  2.5478
  444MOL0     H59905   4.750   1.635   4.463  0.5141  0.3663 -0.2395
  444MOL0     H59906   4.940   1.509   4.529  0.9969 -0.6353  1.5944
  444MOL0     H59907   4.968   1.673   4.605  1.1792 -0.1441  3.1616
  444MOL0     H59908   4.916   1.586   4.825 -1.4487  0.2817 -1.5107
  444MOL0     H59909   4.844   1.445   4.768 -2.3352  1.7976 -0.5961
  444MOL0     H59910   5.061   1.381   4.666 -3.3873 -0.0096  0.3792
  444MOL0     H59911   5.043   1.387   4.845  0.1900 -0.4403  0.5886
  444MOL0     H59912   5.149   1.596   4.856 -0.2812 -0.4838  0.4759
  444MOL0     H59913   5.194   1.589   4.676  1.4688 -0.1798  0.7993
  444MOL0     H59914   5.382   1.525   4.834 -0.7710  1.4827 -0.3430
  444MOL0     H59915   5.278   1.396   4.902 -0.2761 -0.0771 -0.4094
  444MOL0     H59916   5.363   1.437   4.615 -2.1078 -0.6609 -1.6450
  444MOL0     H59917   5.254   1.304   4.660  0.5333  0.3450 -1.1299
  444MOL0     H59918   5.492   1.232   4.649  0.8732 -2.0687  1.6749
  444MOL0     H59919   5.528   1.338   4.785  0.4980 -0.2772 -0.3440
  444MOL0     H59920   4.593   1.900   4.815  0.1792 -0.4873  0.2369
  444MOL0     H59921   4.364   1.903   4.881  0.1610  2.6812 -2.8842
  444MOL0     H59922   3.927   1.827   4.685 -1.6485 -0.0190 -0.4876
  444MOL0     H59923   3.696   1.784   4.652  1.9469  0.4946 -0.3097
  444MOL0     H59924   2.613   0.353   4.165 -0.4792  0.6358 -0.9770
  444MOL0     H59925   2.393   0.216   4.160  1.4499 -1.0985  0.9340
  444MOL0     H59926   2.144  -0.045   4.558  0.4839  1.4422  0.1865
  444MOL0     H59927   1.944  -0.119   4.668 -0.0676 -0.6561 -1.3687
  444MOL0     H59928   1.739  -0.082   4.788 -0.7615 -0.4637  0.3120
  444MOL0     H59929   1.713  -0.225   4.685 -1.4201  0.4385 -1.9471
  444MOL0     H59930   1.488  -0.028   4.732  1.6624  0.3190  1.3287
  444MOL0     H59931   1.525  -0.126   4.859 -2.3569  2.1072 -0.5318
  444MOL0     H59932   1.503  -0.329   4.681  1.6516  0.6296  1.7965
  444MOL0     H59933   1.469  -0.204   4.568  0.6046 -2.0109  0.4009
  444MOL0     H59934   1.275  -0.328   4.671  1.7375 -1.2771  0.0490
  444MOL0     H59935   1.310  -0.254   4.833 -1.4875 -1.1490  0.2825
  444MOL0     H59936   1.092   0.051   4.622  0.7834 -0.0440 -0.5856
  444MOL0     H59937   1.705   0.110   4.402  0.1834 -0.8048 -1.2112
  444MOL0     H59938   1.942   0.310   4.260 -2.0975  1.2049 -1.0268
  444MOL0     H59939   1.942   0.169   4.151 -0.5147  1.5975 -0.1553
  444MOL0     H59940   1.798   0.228   4.225  0.2698  3.2117  0.4666
  445MOL0     O59941   0.289   0.540   3.735  0.0087  0.3931  0.2565
  445MOL0     C59942   0.247   0.426   3.760 -0.4778 -0.4417 -0.1185
  445MOL0     O59943   0.318   0.315   3.726 -0.1169  0.4246  0.4050
  445MOL0     C59944   0.401   0.316   3.620  0.0034 -0.1564 -0.2878
  445MOL0     C59945   0.387   0.389   3.504 -0.2499  0.4891 -0.0592
  445MOL0     C59946   0.473   0.373   3.396 -0.5607  0.6393 -0.4307
  445MOL0     C59947   0.582   0.290   3.404  0.1421 -0.3878  1.6158
  445MOL0     O59948   0.669   0.263   3.301  0.3634 -0.1395  0.1631
  445MOL0     C59949   0.600   0.238   3.168 -0.6247 -0.1809 -0.8456
  445MOL0     C59950   0.656   0.110   3.115 -0.3380  0.0797  0.1027
  445MOL0     C59951   0.810   0.113   3.089  0.2533 -0.5066  0.6503
  445MOL0     C59952   0.851  -0.007   3.012 -0.4457 -0.0929  0.9746
  445MOL0     C59953   1.004  -0.010   3.001  0.0614 -0.3113  0.3729
  445MOL0     C59954   1.054  -0.154   2.962  0.1798 -0.3703 -0.3667
  445MOL0     C59955   1.050  -0.238   3.087  0.6214 -0.0011 -0.3585
  445MOL0     C59956   1.077  -0.388   3.067  0.4807  0.0414 -0.3906
  445MOL0     N59957   1.221  -0.418   3.069  0.7079 -0.9552  0.2238
  445MOL0     C59958   1.299  -0.447   3.184 -0.2517  0.1216 -0.5072
  445MOL0     C59959   1.428  -0.435   3.144  0.1096 -0.3722 -0.3676
  445MOL0     C59960   1.558  -0.470   3.217  0.5421 -0.4447  0.0606
  445MOL0     C59961   1.572  -0.383   3.347 -0.3754 -0.0049 -1.1613
  445MOL0     C59962   1.581  -0.236   3.308 -0.2005  0.7701  0.8602
  445MOL0     C59963   1.443  -0.163   3.323 -0.2176  0.3395  0.1711
  445MOL0     O59964   1.383  -0.203   3.441 -0.2852 -0.1328  0.3330
  445MOL0     C59965   1.249  -0.196   3.459  0.6750  0.2320  0.1568
  445MOL0     C59966   1.172  -0.089   3.411  0.6902 -1.1460 -0.2364
  445MOL0     C59967   1.034  -0.083   3.421 -0.1454 -0.7390  0.1843
  445MOL0     C59968   0.966  -0.179   3.498 -0.8215  0.1021 -0.5911
  445MOL0     C59969   0.813  -0.177   3.524 -0.2421 -0.2001  0.1201
  445MOL0     O59970   0.759  -0.239   3.628  0.3205  0.0690 -0.2608
  445MOL0     C59971   0.622  -0.230   3.645  0.5272 -0.1947 -0.1888
  445MOL0     C59972   0.585  -0.136   3.739 -0.8896  0.7943 -0.1749
  445MOL0     C59973   0.458  -0.131   3.792 -0.1572  0.2586 -0.2648
  445MOL0     C59974   0.353  -0.208   3.741 -0.2103 -0.1757  0.0236
  445MOL0     O59975   0.221  -0.186   3.788 -0.3830 -0.4045  0.1222
  445MOL0     C59976   0.129  -0.291   3.768  0.4023 -0.7584  0.7795
  445MOL0     C59977   0.001  -0.260   3.840  0.4372 -1.4188 -0.3826
  445MOL0     C59978  -0.088  -0.153   3.776 -0.1968  0.1445  0.5216
  445MOL0     C59979  -0.226  -0.154   3.834  0.4622  0.4410 -0.5870
  445MOL0     C59980  -0.337  -0.082   3.751 -0.3410 -0.0393  0.3856
  445MOL0     C59981  -0.304   0.068   3.746 -0.2225 -0.3122  0.1117
  445MOL0     C59982  -0.418   0.141   3.668 -0.3957 -0.7343  0.2981
  445MOL0     C59983  -0.370   0.281   3.641 -0.4171  0.9449  0.5594
  445MOL0    Cl59984  -0.499   0.369   3.556 -0.2635  0.0098 -0.0528
  445MOL0     C59985   0.382  -0.290   3.638 -0.6188  0.5613  0.4685
  445MOL0     C59986   0.516  -0.309   3.600 -0.3418 -0.4924  0.4298
  445MOL0     O59987   0.754  -0.107   3.445 -0.2317 -0.2233 -0.4374
  445MOL0     C59988   1.045  -0.282   3.553  0.5788  0.4188 -0.4592
  445MOL0     C59989   1.183  -0.295   3.534 -0.3891 -0.6504 -0.1571
  445MOL0     N59990   1.428  -0.416   3.002  0.0903  0.5822 -0.2624
  445MOL0     N59991   1.309  -0.413   2.956  0.5156 -0.2385  0.3616
  445MOL0     C59992   0.594   0.210   3.517  0.3447 -0.3612  1.6178
  445MOL0     C59993   0.496   0.223   3.621 -0.3694  0.0152 -0.3218
  445MOL0     C59994   0.113   0.418   3.824  0.2881 -0.4513 -0.1702
  445MOL0     C59995   0.021   0.521   3.794 -0.1885 -0.8847 -0.0872
  445MOL0     C59996  -0.101   0.524   3.856  0.0599  0.4932 -0.2281
  445MOL0     C59997  -0.145   0.421   3.942  0.8161  0.4037  0.0144
  445MOL0     O59998  -0.268   0.422   3.992 -0.0388 -0.2418 -0.3925
  445MOL0     C59999  -0.360   0.537   3.987 -0.7971  0.3164  0.7371
  445MOL0     C60000  -0.493   0.514   4.054  0.0351  0.0794  0.5419
  445MOL0     C60001  -0.546   0.372   4.035  0.3986  0.5887  0.2807
  445MOL0     C60002  -0.667   0.377   3.937 -1.0129 -0.2703  0.0115
  445MOL0     C60003  -0.787   0.405   4.019  0.6081 -0.1680  0.7882
  445MOL0     C60004  -0.895   0.427   4.054  0.2060  0.2732  0.3849
  445MOL0     C60005  -0.059   0.314   3.963 -0.1092  0.4542 -0.3538
  445MOL0     C60006   0.073   0.309   3.913 -0.1521  0.2058 -0.4413
  445MOL0     C60007   0.165   0.201   3.956  0.7473  0.4502 -0.0346
  445MOL0     H60008   0.307   0.463   3.507  0.6017  1.4214  0.3335
  445MOL0     H60009   0.449   0.430   3.307 -0.9646  0.2438 -0.5787
  445MOL0     H60010   0.491   0.242   3.181 -0.4076  3.7151  1.4026
  445MOL0     H60011   0.624   0.318   3.097  0.6179 -0.5110 -0.8223
  445MOL0     H60012   0.616   0.097   3.014  0.2414 -2.6587  0.1450
  445MOL0     H60013   0.622   0.025   3.175 -0.1165 -0.8456 -1.0536
  445MOL0     H60014   0.850   0.120   3.191  0.0271  1.0037  0.6637
  445MOL0     H60015   0.837   0.207   3.039 -1.5039  1.4582  3.0751
  445MOL0     H60016   0.808  -0.097   3.057  1.2474 -2.4419 -1.7764
  445MOL0     H60017   0.811  -0.008   2.911 -1.8947 -1.4164  1.5296
  445MOL0     H60018   1.045   0.066   2.934 -0.4999  2.5508  3.0620
  445MOL0     H60019   1.047   0.012   3.099  1.2627  0.3935 -0.2934
  445MOL0     H60020   0.997  -0.190   2.876  1.3495 -0.2711 -1.2006
  445MOL0     H60021   1.158  -0.152   2.928 -0.1407 -1.0556 -1.4396
  445MOL0     H60022   0.951  -0.230   3.132  0.7445  1.7275 -0.3387
  445MOL0     H60023   1.121  -0.188   3.152 -0.7905  2.1590 -0.3631
  445MOL0     H60024   1.026  -0.445   3.146  0.4683 -0.8992 -1.0618
  445MOL0     H60025   1.041  -0.417   2.968  0.5886  0.9966 -0.7276
  445MOL0     H60026   1.264  -0.468   3.284  0.9342 -3.8716 -0.7628
  445MOL0     H60027   1.556  -0.575   3.249  0.5001 -0.4028  0.1940
  445MOL0     H60028   1.639  -0.456   3.145  2.2620  2.9845  2.3861
  445MOL0     H60029   1.496  -0.414   3.419  1.6598 -1.5302  0.4325
  445MOL0     H60030   1.667  -0.406   3.395  0.5931 -1.0174 -3.3875
  445MOL0     H60031   1.632  -0.217   3.213 -1.8575 -1.9940 -0.7082
  445MOL0     H60032   1.649  -0.184   3.376  2.2618 -1.7090  0.4337
  445MOL0     H60033   1.376  -0.184   3.240  0.7380  2.1126 -1.1009
  445MOL0     H60034   1.450  -0.054   3.326  2.8073  0.2112  1.0818
  445MOL0     H60035   1.211  -0.001   3.360 -2.8349 -0.3691 -1.8553
  445MOL0     H60036   0.974  -0.004   3.376 -1.1169 -0.9929  0.9979
  445MOL0     H60037   0.647  -0.058   3.781 -1.5359  0.6608  1.0815
  445MOL0     H60038   0.422  -0.054   3.859 -2.4868 -0.1214 -0.9768
  445MOL0     H60039   0.101  -0.302   3.663 -1.9057  0.0280  1.2665
  445MOL0     H60040   0.167  -0.388   3.802 -0.4682 -0.8348  1.5510
  445MOL0     H60041  -0.049  -0.357   3.850 -2.3457 -0.2125 -1.4563
  445MOL0     H60042   0.019  -0.231   3.944 -0.4269 -0.4088 -0.5044
  445MOL0     H60043  -0.034  -0.059   3.796  1.9334 -0.3732 -2.2584
  445MOL0     H60044  -0.105  -0.167   3.669  0.0861 -0.0109  0.4971
  445MOL0     H60045  -0.213  -0.112   3.934  2.2748  2.2194 -1.5044
  445MOL0     H60046  -0.246  -0.261   3.833  0.3451  0.4619 -0.4980
  445MOL0     H60047  -0.433  -0.099   3.800 -0.3882 -0.9871 -0.0192
  445MOL0     H60048  -0.334  -0.121   3.649 -0.5522  1.3701 -0.1856
  445MOL0     H60049  -0.319   0.105   3.848 -2.3683 -0.3612 -0.1407
  445MOL0     H60050  -0.203   0.086   3.710 -0.8414  2.2546 -0.4729
  445MOL0     H60051  -0.518   0.149   3.710 -1.0495 -0.4382 -1.2372
  445MOL0     H60052  -0.429   0.093   3.570 -1.2045 -1.7245  0.8553
  445MOL0     H60053  -0.332   0.335   3.728 -2.4841  0.0502  2.1085
  445MOL0     H60054  -0.292   0.273   3.565 -1.2657 -0.0109 -0.2500
  445MOL0     H60055   0.312  -0.345   3.576 -1.1652 -0.6286  2.0621
  445MOL0     H60056   0.542  -0.392   3.534  0.4646 -0.6488  0.9350
  445MOL0     H60057   0.993  -0.352   3.618  0.0264 -0.9424 -2.2768
  445MOL0     H60058   1.235  -0.375   3.586 -1.3955  0.5250  2.9278
  445MOL0     H60059   0.670   0.133   3.516  0.8658  0.1540  0.8253
  445MOL0     H60060   0.498   0.144   3.696 -0.0980  0.1339 -0.2041
  445MOL0     H60061   0.046   0.600   3.723 -1.1586 -0.4017  0.0973
  445MOL0     H60062  -0.156   0.611   3.821  1.0417  0.9554 -0.6788
  445MOL0     H60063  -0.384   0.558   3.882 -0.9739 -0.4037  0.6274
  445MOL0     H60064  -0.311   0.623   4.034 -0.9397  1.7941 -1.6244
  445MOL0     H60065  -0.566   0.589   4.023 -0.2903 -0.3699  0.2123
  445MOL0     H60066  -0.488   0.528   4.163 -1.1926  0.2056  0.6029
  445MOL0     H60067  -0.562   0.324   4.132  1.9767 -0.1545  0.2073
  445MOL0     H60068  -0.474   0.308   3.984  1.4583  1.5132  0.5727
  445MOL0     H60069  -0.649   0.449   3.856  0.9276  1.6602  2.0211
  445MOL0     H60070  -0.697   0.280   3.896 -1.9209 -0.7629  1.7397
  445MOL0     H60071  -0.993   0.459   4.080  0.1805  0.5600 -0.0676
  445MOL0     H60072  -0.089   0.239   4.036 -0.0419 -1.6130 -2.3159
  445MOL0     H60073   0.263   0.240   3.983  0.9778  0.8986 -1.4359
  445MOL0     H60074   0.130   0.142   4.041  2.6251 -1.0171 -0.2408
  445MOL0     H60075   0.183   0.134   3.872  0.5173 -1.1090  1.1259
  446MOL0     O60076   7.117   1.419   7.859  0.2741  0.4889  0.1812
  446MOL0     C60077   7.097   1.302   7.829  0.4090 -0.5895 -0.3995
  446MOL0     O60078   7.193   1.209   7.816 -0.3614  1.0090 -0.6136
  446MOL0     C60079   7.322   1.254   7.835 -0.4528  0.0946 -0.0454
  446MOL0     C60080   7.386   1.342   7.748  0.4006 -0.6450 -0.1634
  446MOL0     C60081   7.519   1.386   7.766  0.4651 -0.5073  1.0716
  446MOL0     C60082   7.589   1.335   7.872 -0.3973 -0.1677  0.3645
  446MOL0     O60083   7.716   1.366   7.896  0.3852  1.0216 -0.1131
  446MOL0     C60084   7.761   1.403   8.023 -0.5676 -0.4156 -1.0413
  446MOL0     C60085   7.917   1.410   8.002 -0.8621  0.2815  0.1398
  446MOL0     C60086   7.972   1.482   7.879  0.2719  0.4067 -0.2583
  446MOL0     C60087   7.994   1.386   7.756  0.9722  0.3574  0.1387
  446MOL0     C60088   8.128   1.321   7.751 -0.3229 -0.4485  0.6179
  446MOL0     C60089   8.222   1.429   7.698  0.0080  0.0030 -0.2494
  446MOL0     C60090   8.368   1.383   7.676  0.8055  0.0271 -0.5786
  446MOL0     C60091   8.450   1.495   7.602  0.8759  0.1517 -0.4698
  446MOL0     N60092   8.587   1.450   7.594  0.6203 -0.3769  0.2565
  446MOL0     C60093   8.684   1.513   7.661 -0.2900  0.2809  0.3010
  446MOL0     C60094   8.798   1.448   7.622  0.2790  0.7563  0.4046
  446MOL0     C60095   8.935   1.479   7.669  0.8111 -0.7735 -0.4492
  446MOL0     C60096   8.974   1.385   7.786 -0.4334  0.1244  0.0186
  446MOL0     C60097   9.111   1.429   7.848  0.3252 -0.4548  0.0780
  446MOL0     C60098   9.228   1.389   7.759  0.4680 -0.8349 -0.0073
  446MOL0     O60099   9.339   1.443   7.826 -0.4214  0.8357  0.5512
  446MOL0     C60100   9.461   1.390   7.797 -0.4292 -0.4350 -0.2481
  446MOL0     C60101   9.493   1.261   7.754 -0.0263  0.0566  0.9872
  446MOL0     C60102   9.621   1.214   7.729 -0.1817 -0.2802  0.1433
  446MOL0     C60103   9.729   1.300   7.748  0.4244 -0.1762 -0.3954
  446MOL0     C60104   9.859   1.245   7.727  0.0432 -0.1121  0.5274
  446MOL0     O60105   9.869   1.125   7.665 -0.4775  0.1324 -0.2211
  446MOL0     C60106   9.996   1.082   7.629  0.2004 -0.3768  0.5050
  446MOL0     C60107  10.055   0.987   7.712 -0.5499 -0.2006  0.2652
  446MOL0     C60108  10.181   0.926   7.687 -0.2893 -0.4058  0.0373
  446MOL0     C60109  10.250   0.973   7.577 -1.0349  0.3895  0.1722
  446MOL0     O60110  10.385   0.936   7.552  0.0371 -0.2089 -0.6789
  446MOL0     C60111  10.463   1.040   7.484 -0.4898 -0.2133  0.0320
  446MOL0     C60112  10.614   1.032   7.534  0.6160 -0.4445  0.0279
  446MOL0     C60113  10.700   1.095   7.416 -0.3805  0.2914 -0.6248
  446MOL0     C60114  10.851   1.077   7.421  0.1964 -0.5615  1.1085
  446MOL0     C60115  10.914   1.164   7.305 -0.7013  0.2758  0.9148
  446MOL0     C60116  11.041   1.088   7.257 -0.1324  0.3678 -0.3557
  446MOL0     C60117  11.117   1.174   7.151  0.1919 -0.0113  0.9342
  446MOL0     C60118  11.044   1.158   7.018 -0.3333  0.3021  0.1999
  446MOL0    Cl60119  11.037   0.985   6.958  0.4312 -0.4526 -0.1355
  446MOL0     C60120  10.194   1.075   7.488 -0.5680 -0.0568 -0.6155
  446MOL0     C60121  10.068   1.120   7.510  0.1142  0.2287 -0.5000
  446MOL0     O60122   9.948   1.326   7.743 -0.2681 -0.3578  1.4521
  446MOL0     C60123   9.703   1.431   7.788  0.3624  0.2058  0.8471
  446MOL0     C60124   9.571   1.474   7.815 -0.4621  0.2706 -0.2506
  446MOL0     N60125   8.756   1.348   7.541 -0.4419  0.9338  0.5485
  446MOL0     N60126   8.636   1.355   7.513 -0.2253 -0.0002 -0.3974
  446MOL0     C60127   7.527   1.235   7.951 -0.5905 -0.3473  0.1856
  446MOL0     C60128   7.394   1.207   7.938  0.1601  0.4068  0.1564
  446MOL0     C60129   6.959   1.277   7.782  0.5865  0.6128 -0.1640
  446MOL0     C60130   6.889   1.370   7.708 -1.1751 -0.0149  0.6896
  446MOL0     C60131   6.774   1.345   7.647  0.0841  0.8302 -0.3805
  446MOL0     C60132   6.696   1.231   7.666 -0.4478 -0.3317 -1.1285
  446MOL0     O60133   6.575   1.212   7.605 -0.1318 -0.0171 -0.4114
  446MOL0     C60134   6.493   1.103   7.631 -0.4428  0.6926  0.4871
  446MOL0     C60135   6.392   1.104   7.527 -0.2557 -0.0392 -0.1830
  446MOL0     C60136   6.298   1.227   7.543  0.2884  0.0467 -0.0999
  446MOL0     C60137   6.186   1.229   7.446 -0.0417 -0.6282  0.2255
  446MOL0     C60138   6.106   1.102   7.455 -0.3891 -1.3101 -0.0221
  446MOL0     C60139   6.036   1.001   7.464  0.4590 -0.1136 -0.0784
  446MOL0     C60140   6.765   1.131   7.748  0.2244  0.3072  0.8098
  446MOL0     C60141   6.889   1.155   7.807 -0.3513 -0.4231  0.0873
  446MOL0     C60142   6.949   1.042   7.887  0.2530 -0.1086  0.2972
  446MOL0     H60143   7.329   1.387   7.666  0.1704  0.1570  0.4164
  446MOL0     H60144   7.569   1.452   7.695  2.6176 -1.9581  1.1692
  446MOL0     H60145   7.712   1.500   8.039  0.1391  0.1223 -2.0158
  446MOL0     H60146   7.735   1.332   8.101 -1.2920  0.9491  0.0082
  446MOL0     H60147   7.968   1.313   8.002  0.7543  1.0653  2.1049
  446MOL0     H60148   7.956   1.462   8.090 -0.4848 -1.7536  1.2551
  446MOL0     H60149   8.064   1.539   7.897 -0.4176  0.7088  2.8994
  446MOL0     H60150   7.902   1.554   7.836 -0.4767 -0.9952 -1.4868
  446MOL0     H60151   7.920   1.309   7.779  0.3647  0.7355 -0.5239
  446MOL0     H60152   7.968   1.440   7.664 -2.0041  0.7936  1.1337
  446MOL0     H60153   8.154   1.281   7.849 -1.5058 -0.1171  1.0862
  446MOL0     H60154   8.122   1.241   7.676  1.0877  0.8587 -0.9534
  446MOL0     H60155   8.185   1.465   7.601  1.3740  0.1144 -0.7586
  446MOL0     H60156   8.224   1.524   7.752 -2.5986  0.9876 -1.7206
  446MOL0     H60157   8.361   1.298   7.607 -3.0759  0.7275 -1.3004
  446MOL0     H60158   8.406   1.368   7.777 -1.7699  2.6035  0.9411
  446MOL0     H60159   8.406   1.504   7.502 -1.1526 -0.7248  0.2953
  446MOL0     H60160   8.441   1.585   7.663 -2.2206 -2.1239  2.8639
  446MOL0     H60161   8.678   1.599   7.726  1.5222  1.5317 -1.0686
  446MOL0     H60162   9.008   1.471   7.587 -0.2221 -1.3266 -1.3445
  446MOL0     H60163   8.931   1.586   7.692 -3.4618 -0.8186 -0.2167
  446MOL0     H60164   8.894   1.396   7.861 -0.3168  0.5914  0.0787
  446MOL0     H60165   8.975   1.283   7.749  1.1958  0.8964 -2.2322
  446MOL0     H60166   9.121   1.392   7.951 -0.2922  2.0334  1.1141
  446MOL0     H60167   9.113   1.537   7.865  2.4242 -0.3412 -0.6264
  446MOL0     H60168   9.224   1.418   7.653 -0.2626 -0.5113  0.1073
  446MOL0     H60169   9.229   1.280   7.760  1.9399 -0.8519  1.5012
  446MOL0     H60170   9.421   1.181   7.738 -0.9070  0.4453  2.7541
  446MOL0     H60171   9.645   1.113   7.696  3.5364  0.8350 -1.0256
  446MOL0     H60172  10.007   0.955   7.804 -0.5554  0.4078  0.4848
  446MOL0     H60173  10.220   0.844   7.747 -0.5966  1.0147  2.3021
  446MOL0     H60174  10.455   1.033   7.375 -0.7750  0.4162  0.0106
  446MOL0     H60175  10.428   1.140   7.512 -0.9160  0.4171 -2.5430
  446MOL0     H60176  10.625   1.084   7.629 -1.8875  1.4669 -0.5932
  446MOL0     H60177  10.638   0.928   7.556  1.9418  0.0490  1.0213
  446MOL0     H60178  10.667   1.055   7.320 -1.6369  0.6846 -0.3730
  446MOL0     H60179  10.690   1.204   7.423  0.3910  0.4249 -1.4536
  446MOL0     H60180  10.880   0.972   7.414 -1.7334 -1.1322  1.1635
  446MOL0     H60181  10.902   1.115   7.510  1.0631  0.0427  0.3655
  446MOL0     H60182  10.943   1.259   7.352 -1.8943  0.9192  0.3800
  446MOL0     H60183  10.842   1.173   7.223  0.2523 -1.4629 -0.1725
  446MOL0     H60184  11.109   1.069   7.341 -1.1236  0.5072  0.4953
  446MOL0     H60185  11.003   0.996   7.210 -1.5889  1.4257 -1.3320
  446MOL0     H60186  11.223   1.154   7.135  0.2108  2.1468 -2.7534
  446MOL0     H60187  11.112   1.283   7.166 -0.6328 -0.2552  2.7854
  446MOL0     H60188  10.944   1.201   7.025 -1.0222 -1.3860  1.6145
  446MOL0     H60189  11.109   1.201   6.941 -1.2504 -1.1231 -1.4368
  446MOL0     H60190  10.235   1.119   7.398 -1.5514 -0.3407 -1.2024
  446MOL0     H60191  10.027   1.188   7.436  2.4880  0.3128 -1.8283
  446MOL0     H60192   9.791   1.493   7.803  1.9382 -1.5542 -0.5117
  446MOL0     H60193   9.567   1.577   7.849 -1.2238  1.7805 -4.3151
  446MOL0     H60194   7.592   1.203   8.032  0.2276  1.2562  0.2140
  446MOL0     H60195   7.340   1.139   8.003  0.4581  1.6129  1.7411
  446MOL0     H60196   6.938   1.463   7.684 -3.9894  1.3583 -0.1706
  446MOL0     H60197   6.728   1.420   7.584 -1.0974 -0.7062 -1.4171
  446MOL0     H60198   6.463   1.102   7.736  6.4697 -1.2799  2.9739
  446MOL0     H60199   6.544   1.009   7.608 -1.1966  0.2787  0.4547
  446MOL0     H60200   6.337   1.010   7.531 -0.6793  0.2372  1.4329
  446MOL0     H60201   6.441   1.110   7.430 -1.8800  2.3419 -0.9514
  446MOL0     H60202   6.351   1.321   7.526 -2.4268  1.4161 -1.6523
  446MOL0     H60203   6.265   1.230   7.648  1.1972 -0.1951  0.2022
  446MOL0     H60204   6.119   1.310   7.476 -0.1644  0.2184 -2.1102
  446MOL0     H60205   6.213   1.260   7.345 -0.0128  1.4042  0.8003
  446MOL0     H60206   5.980   0.910   7.475  0.2274  0.1261  0.8309
  446MOL0     H60207   6.717   1.036   7.771  0.2408  0.3661  1.0942
  446MOL0     H60208   7.007   0.982   7.816  0.4904  0.9554 -0.4402
  446MOL0     H60209   7.015   1.072   7.968  1.9770 -2.0190 -0.3144
  446MOL0     H60210   6.879   0.974   7.935 -1.0035  1.9826  1.5682
  447MOL0     O60211   0.465   3.738   8.871 -0.1113 -0.2781  0.0054
  447MOL0     C60212   0.387   3.692   8.955 -0.1042 -0.4554  0.0595
  447MOL0     O60213   0.415   3.610   9.060  0.7273  0.0443 -0.0336
  447MOL0     C60214   0.545   3.567   9.066  0.0214  0.0198  0.6397
  447MOL0     C60215   0.655   3.650   9.072 -0.4424 -0.6929 -0.0583
  447MOL0     C60216   0.783   3.596   9.080  0.5892  0.0926  0.2019
  447MOL0     C60217   0.806   3.464   9.101 -0.3825 -0.1550  0.3360
  447MOL0     O60218   0.929   3.406   9.132 -0.3318 -0.1799  0.5257
  447MOL0     C60219   1.027   3.490   9.199  0.1116 -0.2440 -1.1398
  447MOL0     C60220   1.118   3.391   9.277 -0.2023 -0.6280  0.3930
  447MOL0     C60221   1.231   3.470   9.339  0.0549  0.3789  0.2282
  447MOL0     C60222   1.327   3.390   9.424  0.5070  0.3909  0.0713
  447MOL0     C60223   1.370   3.475   9.547  0.2159 -0.5610  0.2246
  447MOL0     C60224   1.508   3.555   9.526  0.1790  0.0970 -0.1374
  447MOL0     C60225   1.581   3.574   9.659  0.0729  1.0751 -0.2568
  447MOL0     C60226   1.718   3.628   9.625  0.5594 -0.0160 -0.3800
  447MOL0     N60227   1.815   3.578   9.728 -0.7367  0.4468  0.1923
  447MOL0     C60228   1.832   3.614   9.858 -0.2644  0.2059  0.3108
  447MOL0     C60229   1.946   3.565   9.896 -1.3431  0.3862 -0.2109
  447MOL0     C60230   2.011   3.584  10.034 -0.0960  0.4480  0.2365
  447MOL0     C60231   2.160   3.610  10.021  0.0660 -1.1021 -0.4106
  447MOL0     C60232   2.191   3.745   9.948  0.0423  0.1459 -0.2700
  447MOL0     C60233   2.347   3.754   9.934 -0.5492  0.0647  0.1062
  447MOL0     O60234   2.411   3.725  10.059 -0.0949  0.4294  0.0747
  447MOL0     C60235   2.541   3.746  10.078  0.3406  0.5275  0.4285
  447MOL0     C60236   2.586   3.725  10.207  0.2582 -0.2607 -0.5170
  447MOL0     C60237   2.713   3.744  10.243 -0.3726 -0.6748  0.3318
  447MOL0     C60238   2.809   3.773  10.141 -0.2081 -0.4992  0.2425
  447MOL0     C60239   2.960   3.766  10.176  1.1903 -0.1594  0.2396
  447MOL0     O60240   3.045   3.785  10.067  0.4113 -0.0621 -0.8857
  447MOL0     C60241   3.176   3.779  10.088 -0.8571  0.0518  0.3226
  447MOL0     C60242   3.244   3.901  10.070 -0.2693  0.1931  0.2108
  447MOL0     C60243   3.385   3.884  10.076  0.6746 -0.0207 -0.5352
  447MOL0     C60244   3.448   3.764  10.109 -0.4224 -0.6964 -0.0305
  447MOL0     O60245   3.584   3.760  10.114  0.6312  0.0592  0.1265
  447MOL0     C60246   3.635   3.776  10.249  0.4346 -0.0718 -0.0097
  447MOL0     C60247   3.785   3.802  10.258 -0.1646  0.3518  0.8439
  447MOL0     C60248   3.797   3.949  10.224 -0.7112  0.3946 -0.0030
  447MOL0     C60249   3.941   4.000  10.253  0.3823 -0.6742 -0.4518
  447MOL0     C60250   3.955   4.141  10.207 -0.7018 -0.2931 -0.2879
  447MOL0     C60251   4.090   4.193  10.256 -0.1207 -0.0463  0.4133
  447MOL0     C60252   4.120   4.336  10.208  0.9835  0.1934 -0.4202
  447MOL0     C60253   4.158   4.360  10.065 -0.4998  0.3111 -0.6219
  447MOL0    Cl60254   4.305   4.262  10.039 -0.1119  0.3664 -0.3259
  447MOL0     C60255   3.381   3.646  10.123  0.9524  0.1062 -0.1836
  447MOL0     C60256   3.239   3.662  10.123  0.4996  0.5035  0.6733
  447MOL0     O60257   2.985   3.717  10.286  0.5080 -0.1202  0.9102
  447MOL0     C60258   2.764   3.786  10.005  1.0751 -0.0174 -0.0725
  447MOL0     C60259   2.633   3.764   9.970  0.5567  0.2828  0.1495
  447MOL0     N60260   2.007   3.497   9.786 -0.0576 -0.6784 -0.6217
  447MOL0     N60261   1.923   3.507   9.691  0.1354  0.0525 -0.5039
  447MOL0     C60262   0.695   3.376   9.094  0.8975 -0.1081  0.5306
  447MOL0     C60263   0.565   3.426   9.085  0.1073 -0.2518  0.1116
  447MOL0     C60264   0.247   3.729   8.938  0.4850 -0.0589 -1.0916
  447MOL0     C60265   0.157   3.623   8.921 -0.1561 -0.7372 -0.4734
  447MOL0     C60266   0.027   3.646   8.902  0.2229  0.3858  0.0689
  447MOL0     C60267  -0.028   3.771   8.917 -0.2456  0.0547 -0.5611
  447MOL0     O60268  -0.167   3.786   8.904  0.5909 -0.1609 -0.8158
  447MOL0     C60269  -0.208   3.926   8.932  1.0436 -0.1231  0.5656
  447MOL0     C60270  -0.360   3.928   8.938 -0.2413  0.6470 -0.0853
  447MOL0     C60271  -0.442   3.891   8.813 -0.4729 -0.0681 -1.4069
  447MOL0     C60272  -0.588   3.928   8.844  0.6114 -0.5480  0.1657
  447MOL0     C60273  -0.667   3.843   8.756 -0.6146 -0.3462  0.1002
  447MOL0     C60274  -0.736   3.778   8.688 -0.7305  0.1587  0.4873
  447MOL0     C60275   0.060   3.878   8.936 -0.2752  0.3555  0.3839
  447MOL0     C60276   0.200   3.860   8.952  0.3079 -0.2559  0.1340
  447MOL0     C60277   0.286   3.984   9.000  0.3488 -1.1135  0.8628
  447MOL0     H60278   0.640   3.758   9.069  0.1073 -0.4809  2.2795
  447MOL0     H60279   0.873   3.657   9.086  1.2779 -0.9965  1.4327
  447MOL0     H60280   1.080   3.541   9.118 -1.0819 -3.6385 -4.3275
  447MOL0     H60281   0.985   3.558   9.274  1.2605  0.2682 -0.9278
  447MOL0     H60282   1.157   3.312   9.212 -0.0920 -1.4283  1.4046
  447MOL0     H60283   1.061   3.351   9.361  0.6056  1.4027  1.9968
  447MOL0     H60284   1.191   3.552   9.401  1.1791  3.0863 -2.3587
  447MOL0     H60285   1.281   3.525   9.258 -3.3975  0.1358 -2.3133
  447MOL0     H60286   1.279   3.300   9.463  1.2900  0.3447  0.9615
  447MOL0     H60287   1.416   3.349   9.375 -0.0074 -1.4466  0.6255
  447MOL0     H60288   1.302   3.559   9.565  1.2723  0.5526 -0.7557
  447MOL0     H60289   1.369   3.406   9.631 -1.2398  1.9149  2.3852
  447MOL0     H60290   1.562   3.507   9.444 -2.6712  0.7912 -2.5994
  447MOL0     H60291   1.482   3.651   9.480  1.4173  1.1649  1.2885
  447MOL0     H60292   1.589   3.478   9.711 -0.4972  1.5716  0.7733
  447MOL0     H60293   1.521   3.635   9.728  1.5434 -0.4835  2.5810
  447MOL0     H60294   1.746   3.605   9.521 -1.0274  2.5695 -1.4801
  447MOL0     H60295   1.708   3.736   9.633 -1.1132 -0.1660 -0.0082
  447MOL0     H60296   1.757   3.671   9.913 -0.4120  3.2840 -2.7491
  447MOL0     H60297   1.959   3.659  10.095  1.1739  0.7309  1.0030
  447MOL0     H60298   2.016   3.489  10.088  0.5979  0.8116  0.8435
  447MOL0     H60299   2.201   3.608  10.122  0.0634  1.8384 -0.2606
  447MOL0     H60300   2.202   3.526   9.966  1.2180  0.5628 -2.2259
  447MOL0     H60301   2.154   3.830  10.006 -0.7747  0.4309 -1.1799
  447MOL0     H60302   2.144   3.747   9.849  0.4845  0.2425 -0.4794
  447MOL0     H60303   2.376   3.857   9.911 -0.0562 -0.4317 -1.6427
  447MOL0     H60304   2.386   3.681   9.863  1.1882 -1.7600  2.7415
  447MOL0     H60305   2.515   3.700  10.286  0.0909 -0.2242 -0.6552
  447MOL0     H60306   2.730   3.721  10.348 -0.0893  2.8453  1.1947
  447MOL0     H60307   3.195   3.984  10.018  0.7170  0.0831 -0.9389
  447MOL0     H60308   3.436   3.974  10.045 -0.8066  1.3098  0.6586
  447MOL0     H60309   3.583   3.860  10.296  0.8583  1.4656 -2.1099
  447MOL0     H60310   3.632   3.678  10.298  1.4239 -0.6955 -1.1222
  447MOL0     H60311   3.821   3.779  10.359  1.9355 -0.9852 -0.1152
  447MOL0     H60312   3.836   3.737  10.186  1.3719  1.3310  0.9922
  447MOL0     H60313   3.772   3.972  10.120 -1.6485  0.7745  0.2905
  447MOL0     H60314   3.732   4.014  10.284 -1.9375 -0.0081 -0.8647
  447MOL0     H60315   4.016   3.952  10.190  2.1322  0.6320  0.5402
  447MOL0     H60316   3.971   3.993  10.358  3.4125  1.9097 -0.9910
  447MOL0     H60317   3.870   4.197  10.247 -2.3037 -1.4464 -1.8516
  447MOL0     H60318   3.962   4.149  10.098 -1.9577 -1.7895 -0.5258
  447MOL0     H60319   4.093   4.199  10.365 -0.5440  2.1348  0.3519
  447MOL0     H60320   4.164   4.124  10.215 -1.6911 -0.4213 -2.0420
  447MOL0     H60321   4.203   4.368  10.271  0.1387  1.2060  0.2026
  447MOL0     H60322   4.036   4.400  10.238  2.4806  1.5461  1.0335
  447MOL0     H60323   4.082   4.333   9.990 -0.0686  0.1602 -1.0128
  447MOL0     H60324   4.176   4.467  10.059 -1.5904  0.6059  0.8243
  447MOL0     H60325   3.434   3.555  10.147 -0.3009 -0.2927  1.2097
  447MOL0     H60326   3.181   3.571  10.135  0.8026 -0.3031 -2.9195
  447MOL0     H60327   2.842   3.782   9.931  1.3164 -1.3312  0.2358
  447MOL0     H60328   2.601   3.759   9.867  0.0994  3.8453 -0.0279
  447MOL0     H60329   0.700   3.268   9.098 -0.2626 -0.2899 -1.6118
  447MOL0     H60330   0.475   3.365   9.084  0.5107 -0.8722 -1.3397
  447MOL0     H60331   0.185   3.519   8.936 -1.2725 -1.0287 -0.3343
  447MOL0     H60332  -0.045   3.568   8.880  1.6063 -1.1285  0.8051
  447MOL0     H60333  -0.167   3.991   8.854  1.5658  0.7264  1.5266
  447MOL0     H60334  -0.167   3.967   9.024  0.1149 -0.1907  1.0192
  447MOL0     H60335  -0.385   4.032   8.962 -2.2732  0.1947 -0.0412
  447MOL0     H60336  -0.382   3.870   9.028 -1.3423  0.4415 -0.4673
  447MOL0     H60337  -0.427   3.783   8.813  0.1091  0.0113 -1.3825
  447MOL0     H60338  -0.405   3.940   8.723 -1.1881 -0.7102 -2.0587
  447MOL0     H60339  -0.609   3.902   8.948  0.0656  2.5770  0.9392
  447MOL0     H60340  -0.610   4.034   8.839 -1.4883 -0.8653  1.5122
  447MOL0     H60341  -0.809   3.730   8.626  0.8208  0.5665 -1.8098
  447MOL0     H60342   0.023   3.979   8.948 -0.2879  0.1737  2.0677
  447MOL0     H60343   0.368   4.000   8.929  0.5166 -3.5423  0.4390
  447MOL0     H60344   0.223   4.073   9.000  1.3739 -0.2870 -1.3930
  447MOL0     H60345   0.333   3.961   9.095 -2.2348 -2.7416  1.8380
  448MOL0     O60346   0.510   8.643   6.001  0.5276  0.1477  0.3914
  448MOL0     C60347   0.416   8.612   5.931 -0.0537  0.0555  0.7361
  448MOL0     O60348   0.418   8.588   5.797  0.0014  0.3308  0.1185
  448MOL0     C60349   0.541   8.601   5.734 -0.2214  0.0527 -0.0428
  448MOL0     C60350   0.665   8.529   5.758  0.1583  0.1519  0.1483
  448MOL0     C60351   0.783   8.547   5.679  0.2054 -0.1092 -0.1585
  448MOL0     C60352   0.781   8.629   5.566 -0.1419  0.4064 -0.3204
  448MOL0     O60353   0.884   8.642   5.474 -0.2163  0.2897  0.0384
  448MOL0     C60354   1.002   8.566   5.508  0.1593  0.2795  0.9351
  448MOL0     C60355   1.114   8.598   5.412  0.4390 -0.7564  0.5225
  448MOL0     C60356   1.252   8.538   5.461  0.0515 -0.2597  0.2275
  448MOL0     C60357   1.367   8.617   5.394  0.0413  0.0087  0.2709
  448MOL0     C60358   1.500   8.568   5.444  0.8547  0.5021 -0.1376
  448MOL0     C60359   1.621   8.628   5.389  0.1581  0.5394 -0.7345
  448MOL0     C60360   1.743   8.557   5.438  0.0373  0.2171  0.0123
  448MOL0     C60361   1.761   8.420   5.378  0.4312  0.3856 -0.5660
  448MOL0     N60362   1.777   8.419   5.229 -0.5522  0.1704 -0.7637
  448MOL0     C60363   1.676   8.419   5.140  0.0438 -0.0728 -0.0242
  448MOL0     C60364   1.746   8.404   5.019  0.8444  0.3424  0.0096
  448MOL0     C60365   1.701   8.411   4.882 -0.3612  0.4657 -0.3409
  448MOL0     C60366   1.548   8.438   4.874  0.8087  0.3964 -0.4197
  448MOL0     C60367   1.476   8.302   4.869 -0.1217 -0.5174 -0.5189
  448MOL0     C60368   1.329   8.305   4.896  0.4992 -0.9390 -0.0575
  448MOL0     O60369   1.312   8.294   5.037 -0.1713  0.0557 -0.3796
  448MOL0     C60370   1.186   8.311   5.088 -0.0086 -0.7465  0.2129
  448MOL0     C60371   1.072   8.356   5.021 -0.2906 -0.1752  0.4151
  448MOL0     C60372   0.954   8.377   5.094  0.1763  0.6194 -0.6300
  448MOL0     C60373   0.935   8.319   5.221 -0.0639  0.1467  1.2560
  448MOL0     C60374   0.801   8.325   5.285  0.7256  0.2574 -0.2425
  448MOL0     O60375   0.700   8.378   5.210  0.1256 -0.1011  0.4077
  448MOL0     C60376   0.570   8.373   5.261  0.3131 -0.1158 -0.1588
  448MOL0     C60377   0.468   8.342   5.170 -0.1266 -0.1965  0.6580
  448MOL0     C60378   0.336   8.326   5.219 -0.2536 -0.1018 -0.4391
  448MOL0     C60379   0.299   8.362   5.348 -0.4267 -0.4662 -0.3541
  448MOL0     O60380   0.169   8.340   5.386 -0.5598 -0.5237 -0.4424
  448MOL0     C60381   0.137   8.369   5.523  0.4505 -0.3280 -0.2619
  448MOL0     C60382  -0.007   8.334   5.523 -0.6041  0.1774 -0.3037
  448MOL0     C60383  -0.077   8.389   5.650  0.0106 -0.0400  0.2571
  448MOL0     C60384  -0.220   8.326   5.662 -0.3108  0.3819 -0.2733
  448MOL0     C60385  -0.299   8.376   5.786 -0.1677  0.4851  0.1100
  448MOL0     C60386  -0.441   8.316   5.778  0.0010  0.0995  0.3918
  448MOL0     C60387  -0.535   8.375   5.890  0.3705 -0.1982 -0.1359
  448MOL0     C60388  -0.669   8.301   5.897 -0.6858  0.2983 -0.3499
  448MOL0    Cl60389  -0.786   8.357   5.767  0.0244  0.6498 -0.0696
  448MOL0     C60390   0.395   8.417   5.432 -0.5501  0.2684  0.4743
  448MOL0     C60391   0.531   8.418   5.390 -0.3203  0.9608  0.3875
  448MOL0     O60392   0.788   8.259   5.388  0.3819  0.7079  0.2462
  448MOL0     C60393   1.056   8.263   5.278  0.4723 -0.3682  0.1007
  448MOL0     C60394   1.176   8.270   5.220 -0.4030 -0.4801 -0.6175
  448MOL0     N60395   1.874   8.398   5.041  0.7948  0.5588  0.0408
  448MOL0     N60396   1.899   8.410   5.167  0.2626 -0.0600  0.3117
  448MOL0     C60397   0.666   8.706   5.545 -0.9273  0.5156 -0.0732
  448MOL0     C60398   0.555   8.692   5.627  0.3767  0.0060 -0.2222
  448MOL0     C60399   0.285   8.602   5.994  0.1173 -0.6637 -0.3184
  448MOL0     C60400   0.181   8.526   5.941 -0.0350  0.5536 -0.5647
  448MOL0     C60401   0.056   8.518   5.992  0.5227 -0.3620 -0.0722
  448MOL0     C60402   0.023   8.584   6.114  0.0293 -0.1958 -0.4733
  448MOL0     O60403  -0.106   8.572   6.166  0.6614 -0.2263  0.4562
  448MOL0     C60404  -0.148   8.638   6.287  0.3602 -0.2255  0.6508
  448MOL0     C60405  -0.279   8.577   6.349 -0.9522 -0.3314  0.0860
  448MOL0     C60406  -0.307   8.642   6.492 -0.7487  1.6444  0.0382
  448MOL0     C60407  -0.254   8.567   6.622 -0.2905  0.1818 -1.1715
  448MOL0     C60408  -0.108   8.566   6.622  0.6721 -0.0003  0.0695
  448MOL0     C60409   0.016   8.556   6.609 -0.3529  0.2915  0.6194
  448MOL0     C60410   0.118   8.663   6.172 -0.4899 -0.4311 -0.3619
  448MOL0     C60411   0.247   8.676   6.107 -0.3879  0.3595 -0.4011
  448MOL0     C60412   0.340   8.765   6.181 -0.8004 -0.4483 -0.0094
  448MOL0     H60413   0.681   8.464   5.843  0.8855  0.0445 -0.0691
  448MOL0     H60414   0.858   8.479   5.718 -2.1960 -2.9637 -0.1549
  448MOL0     H60415   1.024   8.576   5.614 -0.0921 -0.2711  1.0443
  448MOL0     H60416   0.984   8.459   5.490  0.5471  0.3214  0.2887
  448MOL0     H60417   1.118   8.707   5.415 -1.2264 -0.6506  3.7212
  448MOL0     H60418   1.097   8.568   5.308 -1.9422 -0.0160  0.6408
  448MOL0     H60419   1.261   8.430   5.443 -1.0040 -1.0311  3.6402
  448MOL0     H60420   1.260   8.559   5.568  2.3458  0.7746 -0.0918
  448MOL0     H60421   1.366   8.600   5.286 -3.1100 -1.0182  0.3750
  448MOL0     H60422   1.364   8.724   5.420 -2.6965  0.2605 -0.8570
  448MOL0     H60423   1.496   8.584   5.552 -1.5845  0.2216 -0.1422
  448MOL0     H60424   1.493   8.459   5.434 -3.2815  0.4603  1.2441
  448MOL0     H60425   1.611   8.615   5.281  0.1630 -0.2986 -0.6365
  448MOL0     H60426   1.626   8.731   5.426  0.6584  0.4841 -0.6478
  448MOL0     H60427   1.744   8.557   5.547 -2.4209  0.9999  0.0823
  448MOL0     H60428   1.825   8.617   5.397  1.8116 -2.1993 -0.1746
  448MOL0     H60429   1.855   8.378   5.416 -0.4068 -2.6900 -1.5947
  448MOL0     H60430   1.683   8.352   5.413 -0.4864  1.3744 -0.6695
  448MOL0     H60431   1.570   8.423   5.162  0.1883 -3.2246  1.8628
  448MOL0     H60432   1.739   8.502   4.835 -0.7777  0.6265 -0.3728
  448MOL0     H60433   1.732   8.324   4.825 -1.5413  0.4208 -0.9579
  448MOL0     H60434   1.509   8.483   4.965 -0.9591 -1.6893 -0.0644
  448MOL0     H60435   1.519   8.500   4.789  1.8594 -1.1501 -1.9851
  448MOL0     H60436   1.521   8.236   4.944  0.3052  0.0742 -0.2431
  448MOL0     H60437   1.489   8.253   4.772 -0.4561 -2.5051  0.4047
  448MOL0     H60438   1.275   8.224   4.847  1.2315 -1.0116 -0.7588
  448MOL0     H60439   1.293   8.401   4.856 -0.4555 -1.9293 -1.6706
  448MOL0     H60440   1.089   8.388   4.919 -0.6389  1.7959  0.9433
  448MOL0     H60441   0.870   8.427   5.048  1.5189  3.7689  0.1055
  448MOL0     H60442   0.479   8.315   5.066 -1.4533  2.4540 -0.2760
  448MOL0     H60443   0.263   8.287   5.149 -2.4526  0.0443  1.6153
  448MOL0     H60444   0.187   8.306   5.598  0.6010 -0.3323 -0.3648
  448MOL0     H60445   0.153   8.476   5.534 -1.1812  0.3585 -3.5320
  448MOL0     H60446  -0.058   8.387   5.441  0.0581  1.3194  0.0027
  448MOL0     H60447  -0.027   8.228   5.503  1.1612  0.3315 -3.6721
  448MOL0     H60448  -0.016   8.362   5.737  0.9567  1.6153  0.1369
  448MOL0     H60449  -0.081   8.498   5.647 -0.7072 -0.0289  1.2183
  448MOL0     H60450  -0.212   8.217   5.667  0.6109  0.4408 -0.3053
  448MOL0     H60451  -0.276   8.355   5.573  0.0601 -1.3023 -1.0920
  448MOL0     H60452  -0.305   8.485   5.788 -1.5809  0.4268  1.4922
  448MOL0     H60453  -0.247   8.350   5.879 -1.0397 -0.2865  0.4054
  448MOL0     H60454  -0.478   8.342   5.679 -1.4329  0.9822  1.1241
  448MOL0     H60455  -0.433   8.208   5.793  0.5471 -0.0601 -0.9521
  448MOL0     H60456  -0.547   8.484   5.883  0.6175 -0.1159  0.6658
  448MOL0     H60457  -0.482   8.355   5.983 -0.0312 -3.4257 -0.4896
  448MOL0     H60458  -0.643   8.196   5.883 -0.1958  0.0747  1.8218
  448MOL0     H60459  -0.708   8.316   5.998  0.2061  1.4338 -0.1495
  448MOL0     H60460   0.368   8.456   5.530 -1.7818  1.4295 -0.2816
  448MOL0     H60461   0.613   8.436   5.459  1.5759  0.2580 -1.5518
  448MOL0     H60462   1.041   8.226   5.379  0.4852  1.1930  0.7089
  448MOL0     H60463   1.262   8.248   5.282 -1.9957  0.1837  1.9664
  448MOL0     H60464   0.664   8.762   5.452  1.1419 -1.4958 -1.4378
  448MOL0     H60465   0.475   8.764   5.616  1.3068  1.1455  0.2789
  448MOL0     H60466   0.197   8.478   5.844 -2.1861 -1.5159  0.0260
  448MOL0     H60467  -0.023   8.465   5.939 -0.6315  0.6448  0.5848
  448MOL0     H60468  -0.166   8.745   6.273  1.0491  0.1746  2.5386
  448MOL0     H60469  -0.071   8.635   6.364 -0.5463  1.5828  1.7063
  448MOL0     H60470  -0.278   8.468   6.351 -0.7235 -0.3294  0.1171
  448MOL0     H60471  -0.366   8.601   6.288 -0.3640 -2.5562 -1.7687
  448MOL0     H60472  -0.416   8.639   6.500 -0.6403 -1.0466  2.0813
  448MOL0     H60473  -0.257   8.739   6.494  2.5439  0.0943 -1.3583
  448MOL0     H60474  -0.286   8.617   6.714 -0.6929 -2.6686  0.3775
  448MOL0     H60475  -0.291   8.465   6.635  0.8626 -0.0940  0.3174
  448MOL0     H60476   0.117   8.553   6.573 -0.2665 -1.1737  0.9591
  448MOL0     H60477   0.095   8.718   6.263  1.0527 -3.4003  2.0020
  448MOL0     H60478   0.424   8.703   6.215 -1.4220 -0.2363  2.0836
  448MOL0     H60479   0.377   8.839   6.110  0.7187 -0.6828  0.4932
  448MOL0     H60480   0.301   8.811   6.273  0.5633 -0.8394  0.8013
  449MOL0     O60481  10.701   8.285   3.299  0.3382  0.1284 -0.4143
  449MOL0     C60482  10.594   8.230   3.334 -0.5422 -0.3365  0.2335
  449MOL0     O60483  10.584   8.097   3.369  0.6176 -0.0255  0.2462
  449MOL0     C60484  10.690   8.010   3.351 -0.6776  0.1257  0.6201
  449MOL0     C60485  10.741   7.990   3.216  0.1461  0.6805 -0.4622
  449MOL0     C60486  10.839   7.896   3.193 -0.4246  0.2195 -0.5983
  449MOL0     C60487  10.891   7.828   3.307 -0.1757  0.0070 -0.3900
  449MOL0     O60488  11.009   7.757   3.280 -0.0584  0.2957 -0.6156
  449MOL0     C60489  11.114   7.762   3.377  0.1692 -0.4868  0.0034
  449MOL0     C60490  11.253   7.735   3.323  0.4372  0.0167  0.1228
  449MOL0     C60491  11.351   7.762   3.429 -0.1523  0.0218  0.3288
  449MOL0     C60492  11.495   7.731   3.384 -0.4123  1.1273  1.0587
  449MOL0     C60493  11.588   7.785   3.488  0.0464  0.6280  0.1649
  449MOL0     C60494  11.738   7.764   3.437  0.6877  0.1258  0.2237
  449MOL0     C60495  11.842   7.844   3.507 -0.1769  0.0494  0.4331
  449MOL0     C60496  11.981   7.825   3.433 -0.5011 -0.1556 -0.4293
  449MOL0     N60497  12.096   7.893   3.494  0.3344 -0.3029 -0.1658
  449MOL0     C60498  12.179   7.855   3.604  0.7897  0.6971  0.1890
  449MOL0     C60499  12.258   7.961   3.619 -0.1922  0.4296  0.8344
  449MOL0     C60500  12.366   7.948   3.728  0.7560  0.1120 -0.1363
  449MOL0     C60501  12.509   7.958   3.677 -0.3439  0.8444  0.3137
  449MOL0     C60502  12.606   8.030   3.772  0.0537 -1.1410 -0.4088
  449MOL0     C60503  12.749   7.983   3.730 -0.2139 -0.3095  0.0122
  449MOL0     O60504  12.793   7.875   3.817  0.3479 -0.1231 -0.4361
  449MOL0     C60505  12.925   7.850   3.823 -0.1900  0.0278  0.3548
  449MOL0     C60506  13.026   7.892   3.737 -0.3833  0.3963  0.2541
  449MOL0     C60507  13.164   7.852   3.764 -0.3274  0.0126 -0.7607
  449MOL0     C60508  13.194   7.763   3.873  0.5395 -0.2515 -0.9378
  449MOL0     C60509  13.335   7.728   3.896 -0.3131  0.3390  0.0195
  449MOL0     O60510  13.432   7.807   3.847  0.3765  0.6329  0.4383
  449MOL0     C60511  13.562   7.801   3.883 -0.1737 -0.2356 -0.1772
  449MOL0     C60512  13.652   7.852   3.786 -0.2483 -0.8799 -0.4585
  449MOL0     C60513  13.789   7.864   3.816  0.2060 -0.7933  0.1076
  449MOL0     C60514  13.841   7.818   3.938 -0.0397 -0.4182 -0.9457
  449MOL0     O60515  13.971   7.827   3.963  0.1893  0.6491 -0.1853
  449MOL0     C60516  14.031   7.808   4.090  0.8136 -0.5598 -0.7861
  449MOL0     C60517  14.158   7.892   4.118 -0.4035 -1.0020  0.5211
  449MOL0     C60518  14.261   7.792   4.168  0.8283  0.1703  0.0003
  449MOL0     C60519  14.381   7.862   4.236  0.4095 -0.2267  0.5017
  449MOL0     C60520  14.470   7.771   4.317 -0.0202  0.4048 -0.0129
  449MOL0     C60521  14.577   7.842   4.402  0.9490  0.4296 -0.7373
  449MOL0     C60522  14.689   7.913   4.321  0.0581  0.0752 -0.2024
  449MOL0     C60523  14.781   7.981   4.425 -0.1170 -0.4878 -0.1044
  449MOL0    Cl60524  14.902   7.859   4.487  0.1226 -0.0700 -0.0085
  449MOL0     C60525  13.752   7.764   4.035 -0.3047  0.2236 -0.7370
  449MOL0     C60526  13.614   7.749   3.999 -0.1232 -1.1132 -0.6949
  449MOL0     O60527  13.358   7.616   3.944  0.4898 -0.5959  0.5413
  449MOL0     C60528  13.085   7.716   3.953  0.3830 -1.0045  0.1284
  449MOL0     C60529  12.955   7.763   3.922 -0.5412  0.5677 -0.4792
  449MOL0     N60530  12.231   8.061   3.528 -0.7256  0.2764  0.5178
  449MOL0     N60531  12.131   8.012   3.450 -0.1867  0.3912  0.1466
  449MOL0     C60532  10.838   7.838   3.433 -0.1408 -1.0698 -0.1363
  449MOL0     C60533  10.735   7.934   3.457  0.0618 -0.2221  1.2962
  449MOL0     C60534  10.470   8.317   3.355 -0.8948  0.4805  0.5350
  449MOL0     C60535  10.349   8.265   3.311 -0.1026  0.1350 -0.0232
  449MOL0     C60536  10.231   8.347   3.298  0.4174  0.1748 -0.8816
  449MOL0     C60537  10.234   8.479   3.350  0.7127  0.0942  0.3795
  449MOL0     O60538  10.118   8.549   3.329 -0.0450 -0.1676  0.1051
  449MOL0     C60539  10.097   8.648   3.426 -0.0444  0.2767  0.5014
  449MOL0     C60540   9.962   8.719   3.402 -0.3527  0.6402  0.8289
  449MOL0     C60541   9.854   8.640   3.479  0.1931  0.9671  0.4573
  449MOL0     C60542   9.720   8.724   3.490  0.5987 -0.3461  0.4321
  449MOL0     C60543   9.643   8.726   3.369  0.5034 -0.6130 -1.1195
  449MOL0     C60544   9.595   8.709   3.262 -0.1297  0.1268 -0.2368
  449MOL0     C60545  10.359   8.534   3.386  0.2492  0.5733  0.3222
  449MOL0     C60546  10.480   8.454   3.394 -0.1149 -0.5808 -0.5850
  449MOL0     C60547  10.593   8.522   3.456 -0.2565  0.2309  0.7058
  449MOL0     H60548  10.705   8.048   3.132  1.8152  0.0578 -1.6298
  449MOL0     H60549  10.887   7.884   3.097  1.4004 -1.3557  0.4416
  449MOL0     H60550  11.113   7.864   3.417  0.8518  0.2352 -1.7522
  449MOL0     H60551  11.089   7.687   3.452 -0.9112  0.1143  0.2742
  449MOL0     H60552  11.265   7.792   3.230 -2.1260 -0.8402 -0.8256
  449MOL0     H60553  11.275   7.630   3.298  2.1126 -0.1194  1.9692
  449MOL0     H60554  11.330   7.697   3.515  0.0921  0.5058  0.7590
  449MOL0     H60555  11.340   7.867   3.459 -0.2568  0.9384 -2.6318
  449MOL0     H60556  11.505   7.623   3.379  0.6034  1.2559  0.0713
  449MOL0     H60557  11.498   7.779   3.286 -1.7994  0.5069  0.6830
  449MOL0     H60558  11.572   7.891   3.513 -0.2329  0.6432 -0.0661
  449MOL0     H60559  11.571   7.726   3.579  2.2709 -1.0106 -0.4014
  449MOL0     H60560  11.751   7.660   3.468 -1.2673  0.0461  0.9820
  449MOL0     H60561  11.731   7.778   3.329 -0.6461  0.9906  0.3891
  449MOL0     H60562  11.857   7.818   3.612 -0.9747  0.5165  0.6660
  449MOL0     H60563  11.809   7.947   3.490 -0.1806  0.0591  0.4996
  449MOL0     H60564  11.989   7.716   3.430 -0.5237 -0.1423 -2.5331
  449MOL0     H60565  11.976   7.862   3.330 -2.4071 -0.4660 -0.4701
  449MOL0     H60566  12.176   7.761   3.658  1.7085 -0.1184 -1.1335
  449MOL0     H60567  12.360   8.036   3.792  1.9360  0.3158 -0.2820
  449MOL0     H60568  12.338   7.866   3.795 -0.6852 -1.2284 -2.2278
  449MOL0     H60569  12.536   7.855   3.652 -2.6495  0.8755 -2.9566
  449MOL0     H60570  12.515   8.013   3.582 -0.8118 -0.7598 -0.6736
  449MOL0     H60571  12.593   8.000   3.877  1.1390 -4.6063 -1.1310
  449MOL0     H60572  12.598   8.139   3.763  2.0312 -0.9166  0.0756
  449MOL0     H60573  12.815   8.070   3.734  1.5789 -1.6024 -0.3043
  449MOL0     H60574  12.751   7.937   3.631 -3.9745 -0.9951  0.1037
  449MOL0     H60575  13.005   7.964   3.658 -0.7537 -1.1233 -1.0964
  449MOL0     H60576  13.248   7.887   3.706  0.6188 -0.8802  0.0386
  449MOL0     H60577  13.615   7.879   3.688  0.6191 -0.4099 -0.6639
  449MOL0     H60578  13.850   7.918   3.744 -1.4605  1.1622  0.0673
  449MOL0     H60579  13.959   7.844   4.164 -0.1925 -3.2264 -0.3874
  449MOL0     H60580  14.046   7.702   4.111  1.6238  0.2747  4.0632
  449MOL0     H60581  14.197   7.942   4.029  0.0847 -1.6185  0.3768
  449MOL0     H60582  14.138   7.964   4.197 -0.5151 -0.9870  0.4796
  449MOL0     H60583  14.209   7.730   4.241 -2.2091 -0.8218 -2.7500
  449MOL0     H60584  14.303   7.737   4.083 -3.1836  1.2792 -3.0363
  449MOL0     H60585  14.342   7.939   4.303  2.5472 -0.5040  2.1955
  449MOL0     H60586  14.433   7.917   4.156 -1.6086 -0.2416 -0.8975
  449MOL0     H60587  14.530   7.705   4.253  1.5084  2.4999 -0.8547
  449MOL0     H60588  14.411   7.709   4.385 -0.3786 -1.0592 -1.5866
  449MOL0     H60589  14.527   7.918   4.462  0.1277  1.4698 -2.6519
  449MOL0     H60590  14.617   7.766   4.470 -0.0091  0.1785 -0.4331
  449MOL0     H60591  14.638   7.995   4.270 -3.3632 -0.2160  2.3622
  449MOL0     H60592  14.742   7.847   4.251 -0.1319 -1.9075  1.4464
  449MOL0     H60593  14.823   8.065   4.368  0.4711 -1.0410 -0.5033
  449MOL0     H60594  14.724   8.013   4.512 -0.3389 -0.6744 -0.1805
  449MOL0     H60595  13.780   7.715   4.128  0.0079 -1.9163 -1.8881
  449MOL0     H60596  13.553   7.705   4.078  0.2004 -0.6162 -0.1551
  449MOL0     H60597  13.114   7.647   4.031 -0.5598 -0.0932  1.3130
  449MOL0     H60598  12.884   7.732   3.999  0.4021  1.0199  0.6057
  449MOL0     H60599  10.877   7.792   3.524 -2.6490 -0.5995  1.2713
  449MOL0     H60600  10.710   7.958   3.560 -0.7561  0.3984  0.9702
  449MOL0     H60601  10.347   8.165   3.269  2.6839 -0.1235  0.2631
  449MOL0     H60602  10.142   8.304   3.252  1.7451 -3.5542 -0.3005
  449MOL0     H60603  10.174   8.725   3.416  0.6419 -0.5218 -0.5408
  449MOL0     H60604  10.111   8.619   3.530  1.0160 -0.3842  0.1872
  449MOL0     H60605   9.932   8.718   3.297 -0.8559 -1.4692  0.9410
  449MOL0     H60606   9.971   8.823   3.433 -1.5708  0.9593  0.1513
  449MOL0     H60607   9.884   8.627   3.584 -0.1343 -0.2139  0.4152
  449MOL0     H60608   9.852   8.543   3.429 -1.2397  0.7389  0.9219
  449MOL0     H60609   9.653   8.681   3.565 -1.8272  1.4865 -0.5455
  449MOL0     H60610   9.755   8.824   3.518 -1.0704  1.0610 -2.1435
  449MOL0     H60611   9.565   8.702   3.159  0.6503 -2.8657 -0.3471
  449MOL0     H60612  10.358   8.639   3.415  2.7906  0.9542 -0.6517
  449MOL0     H60613  10.553   8.609   3.510 -1.1870 -0.5385  1.2902
  449MOL0     H60614  10.646   8.453   3.521  0.2722  0.5382  0.6097
  449MOL0     H60615  10.655   8.562   3.374 -2.4737 -0.3855 -1.3856
  450MOL0     O60616  11.146   5.159   9.658 -0.6885 -0.8616  0.0635
  450MOL0     C60617  11.102   5.047   9.679  1.2770 -0.1221 -0.3505
  450MOL0     O60618  11.157   4.944   9.744  0.4730  0.4841  0.0194
  450MOL0     C60619  11.272   4.961   9.821 -0.8886  0.4014 -0.0806
  450MOL0     C60620  11.277   4.900   9.950 -0.5485 -0.4788  0.0294
  450MOL0     C60621  11.381   4.933  10.033 -1.2930 -0.6853  0.6311
  450MOL0     C60622  11.482   5.019  10.004  0.0391 -0.0190 -0.6292
  450MOL0     O60623  11.566   5.065  10.099  0.2186 -0.3503  0.2390
  450MOL0     C60624  11.587   4.982  10.209  0.5950 -0.0868 -0.4194
  450MOL0     C60625  11.710   5.028  10.282  0.6155  0.4503 -0.2511
  450MOL0     C60626  11.831   4.982  10.207  0.2514 -0.5024 -0.2101
  450MOL0     C60627  11.951   5.003  10.295 -0.8264  0.5148  0.6881
  450MOL0     C60628  12.069   4.920  10.235  0.0155 -0.3785 -0.9989
  450MOL0     C60629  12.203   4.954  10.306  0.1348  0.1854  0.5825
  450MOL0     C60630  12.273   5.083  10.265 -0.4053 -0.2200 -0.1425
  450MOL0     C60631  12.412   5.100  10.327 -0.4303 -0.2013 -0.1326
  450MOL0     N60632  12.514   4.991  10.311  0.1013 -0.1385  0.1228
  450MOL0     C60633  12.582   4.938  10.411  0.0373 -1.0232  0.1754
  450MOL0     C60634  12.674   4.858  10.354 -0.8893 -0.2686  0.1203
  450MOL0     C60635  12.764   4.766  10.428  0.6627  0.0687 -0.2075
  450MOL0     C60636  12.694   4.638  10.485  0.6606  0.6101 -0.4729
  450MOL0     C60637  12.620   4.551  10.376 -0.4972  0.2541 -0.5802
  450MOL0     C60638  12.713   4.500  10.262  0.3767 -0.1867 -0.4786
  450MOL0     O60639  12.815   4.410  10.312  0.1298  0.0100  0.2019
  450MOL0     C60640  12.950   4.430  10.302 -0.6294 -0.2833  0.3899
  450MOL0     C60641  13.017   4.481  10.189  0.6920 -0.3952 -0.2551
  450MOL0     C60642  13.150   4.514  10.196  0.2089  0.3911  0.0038
  450MOL0     C60643  13.226   4.485  10.310 -0.1180  0.6898  0.3322
  450MOL0     C60644  13.370   4.506  10.302 -0.4950  0.2511 -0.1806
  450MOL0     O60645  13.435   4.454  10.406 -0.4634 -0.1301 -0.7921
  450MOL0     C60646  13.569   4.478  10.433  0.4394  0.2141 -0.7487
  450MOL0     C60647  13.634   4.378  10.509 -0.2557  0.4327  0.6284
  450MOL0     C60648  13.773   4.386  10.543  0.7974  0.4629 -0.0840
  450MOL0     C60649  13.842   4.499  10.501 -0.2491  0.5704  0.7544
  450MOL0     O60650  13.979   4.495  10.519 -0.4006 -0.1649 -0.4210
  450MOL0     C60651  14.011   4.512  10.657  0.2421  0.0093 -0.2107
  450MOL0     C60652  14.156   4.484  10.686  1.0370  0.4222  0.1177
  450MOL0     C60653  14.175   4.429  10.828 -0.3346  0.1335  0.6815
  450MOL0     C60654  14.143   4.275  10.843  0.5690 -0.2400 -0.2490
  450MOL0     C60655  14.141   4.236  10.993 -1.0163 -0.7687 -0.0959
  450MOL0     C60656  14.281   4.232  11.055 -0.0077 -0.9238  0.1530
  450MOL0     C60657  14.382   4.144  10.972 -0.0217 -0.0960  0.7128
  450MOL0     C60658  14.516   4.126  11.049 -0.6793  0.8695  0.5880
  450MOL0    Cl60659  14.566   4.275  11.146 -0.2455  0.1068  0.8514
  450MOL0     C60660  13.779   4.597  10.434 -0.4175  0.4603 -0.2618
  450MOL0     C60661  13.646   4.594  10.403  0.4783  0.0036  1.4917
  450MOL0     O60662  13.427   4.571  10.211 -0.0224  0.4455 -0.1873
  450MOL0     C60663  13.159   4.439  10.421  0.3046 -0.1508 -1.0907
  450MOL0     C60664  13.024   4.412  10.421  0.2219 -0.6737  0.4556
  450MOL0     N60665  12.672   4.872  10.220 -0.3694 -0.8984 -0.2643
  450MOL0     N60666  12.579   4.953  10.194 -0.2900  0.3330  0.6236
  450MOL0     C60667  11.484   5.077   9.870 -0.3278 -0.1241 -0.4889
  450MOL0     C60668  11.377   5.050   9.792 -0.2486 -0.1731 -0.3843
  450MOL0     C60669  10.961   5.023   9.629 -0.3622 -0.1438 -0.1454
  450MOL0     C60670  10.886   4.909   9.688 -0.6205  0.1177 -0.0177
  450MOL0     C60671  10.757   4.882   9.648  0.7149 -0.7246 -0.7160
  450MOL0     C60672  10.694   4.964   9.553 -0.0743  0.2142  1.3529
  450MOL0     O60673  10.563   4.938   9.530  0.2698 -0.1619  0.6626
  450MOL0     C60674  10.505   4.981   9.406  0.4562 -0.1417 -0.0395
  450MOL0     C60675  10.381   4.902   9.379  0.3601 -0.2114 -0.2783
  450MOL0     C60676  10.269   4.954   9.465 -0.4314  0.1650 -0.4215
  450MOL0     C60677  10.144   4.858   9.465 -0.0822  0.4862 -0.4251
  450MOL0     C60678  10.053   4.899   9.354  0.8793 -0.0182  0.1218
  450MOL0     C60679   9.979   4.926   9.262 -0.0151  0.0822 -0.0051
  450MOL0     C60680  10.762   5.071   9.486 -0.2307  0.2791 -0.9296
  450MOL0     C60681  10.895   5.105   9.536  0.1194  0.0323 -0.0664
  450MOL0     C60682  10.949   5.229   9.474 -0.1526 -0.1753 -0.2407
  450MOL0     H60683  11.199   4.834   9.986  1.2275 -1.8226  1.5930
  450MOL0     H60684  11.376   4.887  10.131  2.2409  0.9721  1.7478
  450MOL0     H60685  11.509   4.998  10.284  0.7551  0.1382 -0.3005
  450MOL0     H60686  11.605   4.877  10.186  3.7997  0.0425  0.9437
  450MOL0     H60687  11.711   4.988  10.384  1.0451  1.2401  0.0604
  450MOL0     H60688  11.703   5.137  10.272 -0.8138  0.3688 -0.3423
  450MOL0     H60689  11.839   5.029  10.108 -0.8098 -1.7234 -0.9068
  450MOL0     H60690  11.828   4.874  10.186  2.1026 -0.1336 -2.9467
  450MOL0     H60691  11.973   5.110  10.294  1.0894  0.1470  0.3441
  450MOL0     H60692  11.934   4.963  10.396  0.9072 -3.0083 -0.2567
  450MOL0     H60693  12.047   4.812  10.238  2.3693 -0.9688 -2.7828
  450MOL0     H60694  12.071   4.942  10.128  1.4299  0.0132 -0.9071
  450MOL0     H60695  12.191   4.947  10.415  3.4623  0.9413  1.0887
  450MOL0     H60696  12.271   4.871  10.287 -0.9470 -0.5647 -0.1674
  450MOL0     H60697  12.223   5.175  10.296 -1.9806 -0.8489 -0.6599
  450MOL0     H60698  12.274   5.090  10.156  2.0746  2.1337 -0.0514
  450MOL0     H60699  12.452   5.193  10.285  0.6716 -0.4124  0.4178
  450MOL0     H60700  12.404   5.108  10.435  2.3459  0.3244  0.1237
  450MOL0     H60701  12.552   4.953  10.515  0.3632 -0.5811  0.2103
  450MOL0     H60702  12.848   4.738  10.363  1.2350 -1.0031  0.9619
  450MOL0     H60703  12.804   4.814  10.518  0.1419  0.2322 -0.0622
  450MOL0     H60704  12.757   4.574  10.547 -1.4063  0.4573  1.6127
  450MOL0     H60705  12.616   4.678  10.551  1.2281  1.1971 -0.1431
  450MOL0     H60706  12.533   4.598  10.329 -0.8098  0.9507  0.6471
  450MOL0     H60707  12.577   4.461  10.422 -0.1494 -0.1872 -1.0963
  450MOL0     H60708  12.760   4.587  10.215 -0.6895  0.7124  0.0479
  450MOL0     H60709  12.639   4.451  10.199 -0.9154 -2.4498  2.5765
  450MOL0     H60710  12.956   4.496  10.101  2.2796 -0.3719 -1.4112
  450MOL0     H60711  13.189   4.546  10.100  2.2858 -0.4213  0.5127
  450MOL0     H60712  13.580   4.285  10.530  1.7719 -0.7343  0.9083
  450MOL0     H60713  13.816   4.290  10.569 -1.5440 -1.6831 -3.4408
  450MOL0     H60714  13.983   4.616  10.671 -1.8831 -0.3710 -1.2535
  450MOL0     H60715  13.942   4.458  10.723 -2.3420  0.7762 -2.1128
  450MOL0     H60716  14.194   4.406  10.619  0.1019 -0.1013  0.1889
  450MOL0     H60717  14.219   4.572  10.666 -0.7100  1.2482 -2.2550
  450MOL0     H60718  14.282   4.440  10.850 -0.3887  2.9229 -0.0704
  450MOL0     H60719  14.117   4.489  10.899 -2.4047 -0.7303 -0.2028
  450MOL0     H60720  14.214   4.214  10.788 -0.1319  1.3672 -3.1181
  450MOL0     H60721  14.042   4.255  10.806 -0.1529 -2.8132  2.6436
  450MOL0     H60722  14.103   4.135  11.008 -1.3043 -0.7923 -0.9504
  450MOL0     H60723  14.075   4.300  11.053 -0.0006  0.2903 -0.0616
  450MOL0     H60724  14.326   4.329  11.078  2.5857 -2.4125  1.9095
  450MOL0     H60725  14.265   4.189  11.155  0.9370 -0.0282  0.7177
  450MOL0     H60726  14.406   4.175  10.870 -1.4557 -0.8997  0.0963
  450MOL0     H60727  14.330   4.049  10.958 -1.6614  0.8101  0.3313
  450MOL0     H60728  14.514   4.048  11.126  2.1954  0.3467  0.2605
  450MOL0     H60729  14.592   4.091  10.978 -1.1086 -0.5346  0.7772
  450MOL0     H60730  13.845   4.682  10.428  1.2690 -0.1114  4.9565
  450MOL0     H60731  13.604   4.683  10.358 -1.4265 -2.1708 -1.4467
  450MOL0     H60732  13.214   4.423  10.514 -0.1660 -2.3756 -1.1415
  450MOL0     H60733  12.969   4.358  10.497  1.4157  0.3164  2.0687
  450MOL0     H60734  11.562   5.144   9.835 -0.3310  0.3688  0.4124
  450MOL0     H60735  11.384   5.076   9.687 -0.7403 -2.2093 -0.9763
  450MOL0     H60736  10.921   4.832   9.755 -0.3750  0.7484  0.5952
  450MOL0     H60737  10.706   4.802   9.700  0.6873 -0.6157 -0.5727
  450MOL0     H60738  10.574   4.968   9.322 -2.4816  0.6109 -2.7649
  450MOL0     H60739  10.471   5.084   9.417 -2.1017 -0.9973  0.7930
  450MOL0     H60740  10.386   4.795   9.399 -0.0297  0.1409  1.8843
  450MOL0     H60741  10.349   4.920   9.276  0.9467 -1.3117 -0.6743
  450MOL0     H60742  10.245   5.054   9.428 -2.3801  0.5090  1.5298
  450MOL0     H60743  10.286   4.974   9.571 -0.8595  2.3836 -0.7232
  450MOL0     H60744  10.177   4.754   9.455 -0.4624  0.3705 -0.4984
  450MOL0     H60745  10.087   4.866   9.558 -1.4858  2.4968 -1.3852
  450MOL0     H60746   9.906   4.950   9.187 -1.9762 -0.8652  1.5106
  450MOL0     H60747  10.692   5.136   9.434 -0.5339 -0.8973 -2.0283
  450MOL0     H60748  10.895   5.234   9.379  0.6071 -4.5499 -1.1125
  450MOL0     H60749  10.921   5.320   9.528  2.5851  0.4194  0.3238
  450MOL0     H60750  11.055   5.223   9.446 -0.1710 -0.3065 -0.2813
  451MOL0     O60751   3.004   9.842   7.525  0.2075  0.3147 -0.0224
  451MOL0     C60752   2.918   9.823   7.612  0.3902  0.0390  0.9307
  451MOL0     O60753   2.951   9.779   7.739  0.0575  0.1593 -0.3586
  451MOL0     C60754   3.077   9.757   7.791  0.6128 -0.1523 -0.2934
  451MOL0     C60755   3.096   9.778   7.932 -0.2054  0.1354  0.3227
  451MOL0     C60756   3.220   9.737   7.990 -0.3191 -0.0326 -0.0648
  451MOL0     C60757   3.325   9.686   7.908  0.3432 -0.1355 -0.9725
  451MOL0     O60758   3.450   9.648   7.957 -0.2223 -0.2494 -0.0011
  451MOL0     C60759   3.469   9.621   8.108  0.2544  0.1706  0.5430
  451MOL0     C60760   3.617   9.594   8.142 -0.1441 -0.9779 -0.7483
  451MOL0     C60761   3.637   9.563   8.291 -0.6006  0.3070  0.3947
  451MOL0     C60762   3.793   9.548   8.323 -0.2628  0.0772 -0.0169
  451MOL0     C60763   3.830   9.403   8.312 -0.2727 -0.1072  0.2820
  451MOL0     C60764   3.981   9.385   8.346  0.6785 -0.3055 -0.3910
  451MOL0     C60765   4.049   9.265   8.280 -0.0580  0.0543 -0.5718
  451MOL0     C60766   4.204   9.260   8.303 -0.0716 -1.1824  0.0641
  451MOL0     N60767   4.244   9.244   8.442  0.3877 -0.3282 -0.3893
  451MOL0     C60768   4.365   9.268   8.488 -0.4270 -0.2990 -0.0217
  451MOL0     C60769   4.369   9.223   8.610 -0.5689 -0.2190 -0.0097
  451MOL0     C60770   4.495   9.221   8.693  0.7980  1.2140 -0.0463
  451MOL0     C60771   4.606   9.141   8.628  0.3866  0.6698 -0.0697
  451MOL0     C60772   4.565   8.988   8.603  0.5305  0.4871  0.4055
  451MOL0     C60773   4.511   8.910   8.721  0.1584 -0.0126 -0.3968
  451MOL0     O60774   4.594   8.906   8.839 -0.6148 -0.4299  0.1985
  451MOL0     C60775   4.688   8.809   8.854 -0.0455 -0.1770  1.3615
  451MOL0     C60776   4.723   8.717   8.753 -0.1727  0.1292  0.6109
  451MOL0     C60777   4.826   8.624   8.764  0.7159 -0.7486 -0.1515
  451MOL0     C60778   4.908   8.621   8.880  0.9052  0.2288  0.4028
  451MOL0     C60779   5.026   8.539   8.892 -0.1910  0.0410  0.2486
  451MOL0     O60780   5.087   8.536   9.013 -0.2959 -0.2117  0.1151
  451MOL0     C60781   5.201   8.458   9.016 -0.0977 -0.3299 -0.3127
  451MOL0     C60782   5.217   8.328   9.070 -0.4205  0.0126 -0.3696
  451MOL0     C60783   5.334   8.253   9.055 -0.1251 -0.0677 -0.3564
  451MOL0     C60784   5.446   8.320   9.009 -0.0388  0.0553 -0.6829
  451MOL0     O60785   5.566   8.248   9.028 -0.6657  0.2526  0.2588
  451MOL0     C60786   5.676   8.331   9.077  0.1157 -0.2406 -0.5152
  451MOL0     C60787   5.804   8.246   9.086  0.9388 -0.1961 -0.5057
  451MOL0     C60788   5.920   8.339   9.114 -0.0380  0.0487  0.4379
  451MOL0     C60789   6.043   8.253   9.140  0.0786 -0.4091  0.2427
  451MOL0     C60790   6.151   8.331   9.212 -0.1283 -0.2733 -0.5169
  451MOL0     C60791   6.266   8.245   9.225 -0.8281  0.3048 -0.1127
  451MOL0     C60792   6.395   8.320   9.268  0.0248 -0.2126  0.0400
  451MOL0     C60793   6.514   8.231   9.283 -0.8506  0.5342 -0.2543
  451MOL0    Cl60794   6.490   8.138   9.428 -0.0676  0.3070  0.1288
  451MOL0     C60795   5.432   8.456   8.968 -0.9277  0.5553 -0.0549
  451MOL0     C60796   5.310   8.519   8.969 -0.8222 -0.4287 -0.0419
  451MOL0     O60797   5.062   8.474   8.793 -0.0515 -0.0094 -0.3959
  451MOL0     C60798   4.861   8.701   8.990  0.6857 -0.3608 -0.4481
  451MOL0     C60799   4.754   8.792   8.973 -0.9254 -0.6661  0.2911
  451MOL0     N60800   4.248   9.171   8.642 -0.5421  0.4089  0.5664
  451MOL0     N60801   4.166   9.192   8.541 -0.5863  0.1696  0.2048
  451MOL0     C60802   3.308   9.687   7.766  0.0808 -0.8010 -1.2761
  451MOL0     C60803   3.180   9.714   7.711 -0.4710 -0.1977  0.0395
  451MOL0     C60804   2.770   9.835   7.581  0.9648 -0.7047  0.3853
  451MOL0     C60805   2.685   9.804   7.690  0.1170 -0.0404 -0.5551
  451MOL0     C60806   2.547   9.818   7.683 -0.5102 -0.2849 -0.5247
  451MOL0     C60807   2.496   9.852   7.559  0.3160  0.1243 -0.2992
  451MOL0     O60808   2.351   9.857   7.556  0.3815 -0.4096  0.0895
  451MOL0     C60809   2.281   9.929   7.455 -1.3184 -0.3749  0.1082
  451MOL0     C60810   2.142   9.964   7.489 -0.2459  0.0495  0.3224
  451MOL0     C60811   2.060   9.842   7.535  1.0790 -0.4508  0.3038
  451MOL0     C60812   1.946   9.891   7.630 -0.1039 -0.1851  0.7703
  451MOL0     C60813   1.842   9.956   7.555 -0.0560 -0.8252 -0.4199
  451MOL0     C60814   1.759  10.012   7.488  0.8282 -0.2182 -0.4782
  451MOL0     C60815   2.576   9.897   7.448  0.2519 -0.1854 -0.3908
  451MOL0     C60816   2.716   9.893   7.457  0.2667 -0.3520 -0.1196
  451MOL0     C60817   2.799   9.952   7.339 -0.8247  0.5901  0.2616
  451MOL0     H60818   3.009   9.817   7.984 -0.8340 -0.7124 -0.0774
  451MOL0     H60819   3.230   9.751   8.097 -1.4193  1.1810 -0.0956
  451MOL0     H60820   3.432   9.705   8.168  1.3217  0.2065  1.1753
  451MOL0     H60821   3.405   9.537   8.135  0.0054  0.5371  1.1127
  451MOL0     H60822   3.676   9.684   8.120 -0.4879  0.1924  2.5949
  451MOL0     H60823   3.648   9.511   8.078  2.8623  0.1109 -0.9045
  451MOL0     H60824   3.576   9.478   8.321  0.0921 -0.0962  0.6895
  451MOL0     H60825   3.611   9.648   8.355 -2.7258  0.2451 -0.3157
  451MOL0     H60826   3.849   9.615   8.257  0.3510  0.6202  1.0302
  451MOL0     H60827   3.804   9.577   8.428 -0.3393 -2.8799  0.8783
  451MOL0     H60828   3.770   9.333   8.370  1.0821 -1.1318  0.5186
  451MOL0     H60829   3.817   9.376   8.207 -2.2240 -1.3223  0.7803
  451MOL0     H60830   4.030   9.476   8.310  1.6297 -2.0023 -3.8192
  451MOL0     H60831   3.996   9.367   8.453  4.1165 -1.8732 -1.0081
  451MOL0     H60832   4.028   9.270   8.173  0.0728  1.7149 -0.5365
  451MOL0     H60833   4.005   9.167   8.303 -0.5365  0.1189 -1.1894
  451MOL0     H60834   4.253   9.180   8.247  1.9974  0.1983 -0.2098
  451MOL0     H60835   4.252   9.347   8.256  3.6287 -0.9341  3.6932
  451MOL0     H60836   4.445   9.303   8.423  0.3976 -0.5880  0.8045
  451MOL0     H60837   4.541   9.318   8.715  1.7414  0.3993  1.7867
  451MOL0     H60838   4.461   9.182   8.789 -1.5765  0.0493 -1.2631
  451MOL0     H60839   4.631   9.199   8.539  0.0094  0.2043 -0.4888
  451MOL0     H60840   4.689   9.140   8.700 -1.2310 -1.0824  1.9041
  451MOL0     H60841   4.646   8.927   8.562 -1.5091  0.2056 -3.7430
  451MOL0     H60842   4.501   8.999   8.515  0.5203  0.8942  0.4599
  451MOL0     H60843   4.476   8.811   8.691 -1.7232  0.9186 -1.5044
  451MOL0     H60844   4.416   8.958   8.750  0.8685  1.8713 -1.0376
  451MOL0     H60845   4.673   8.722   8.656 -2.1104 -0.7814  1.5022
  451MOL0     H60846   4.854   8.551   8.688  1.8480 -2.6838  1.9807
  451MOL0     H60847   5.127   8.274   9.099 -1.6268  1.1008 -1.8886
  451MOL0     H60848   5.339   8.146   9.074  1.3300  0.0564  0.0136
  451MOL0     H60849   5.694   8.415   9.011  0.6765 -1.4052 -1.8884
  451MOL0     H60850   5.647   8.382   9.170 -0.1663 -0.3286 -0.5553
  451MOL0     H60851   5.790   8.178   9.171 -1.4326 -3.4992 -3.2500
  451MOL0     H60852   5.813   8.195   8.990  1.4008  2.7986 -2.1917
  451MOL0     H60853   5.945   8.417   9.042 -1.1190  1.3397  1.4120
  451MOL0     H60854   5.886   8.393   9.203 -3.7785  1.4688 -1.6159
  451MOL0     H60855   6.091   8.220   9.048 -1.2640  0.0195 -0.6321
  451MOL0     H60856   6.020   8.170   9.208 -1.5692  0.8856  1.3500
  451MOL0     H60857   6.117   8.382   9.303 -1.8775 -0.1361 -1.2236
  451MOL0     H60858   6.185   8.416   9.152  1.4807  0.3089  1.0862
  451MOL0     H60859   6.241   8.166   9.296  0.8911 -1.8231 -1.7164
  451MOL0     H60860   6.292   8.191   9.134  0.5570  0.3349  0.2419
  451MOL0     H60861   6.378   8.377   9.359  0.8002  0.7688 -0.4074
  451MOL0     H60862   6.407   8.399   9.193  0.3738  1.0541  1.3807
  451MOL0     H60863   6.521   8.150   9.209  1.2542 -0.1370  0.6033
  451MOL0     H60864   6.609   8.284   9.297 -0.8245  0.3463  0.2827
  451MOL0     H60865   5.508   8.528   8.941 -0.2529 -0.6848 -1.5875
  451MOL0     H60866   5.312   8.622   8.933 -0.5129  0.0565  1.3192
  451MOL0     H60867   4.909   8.707   9.088  0.1821  3.4602 -0.2761
  451MOL0     H60868   4.742   8.861   9.056  3.0270  1.1543 -0.4049
  451MOL0     H60869   3.385   9.668   7.692 -2.3276  0.1573 -4.2089
  451MOL0     H60870   3.184   9.702   7.604 -1.1552  1.1918 -0.1669
  451MOL0     H60871   2.717   9.788   7.793 -1.6026  1.0618  0.1966
  451MOL0     H60872   2.487   9.812   7.773  2.3201  1.4990  1.6527
  451MOL0     H60873   2.277   9.867   7.364 -1.6906  0.2917 -0.3347
  451MOL0     H60874   2.327  10.026   7.436  0.1000 -0.9525  0.3890
  451MOL0     H60875   2.087  10.018   7.412  0.8300 -1.0190 -1.2432
  451MOL0     H60876   2.153  10.023   7.581  4.5371  0.8410 -0.5084
  451MOL0     H60877   2.119   9.772   7.594  2.1750  0.1130 -0.0847
  451MOL0     H60878   2.024   9.786   7.448  4.0604  0.5891 -1.7660
  451MOL0     H60879   1.893   9.808   7.676 -0.7653  0.0552  0.4582
  451MOL0     H60880   1.984   9.962   7.704  2.9369 -2.0578  1.2009
  451MOL0     H60881   1.685  10.059   7.427  0.9731 -0.6586 -1.0016
  451MOL0     H60882   2.542   9.950   7.360 -0.1691 -0.3435 -0.3268
  451MOL0     H60883   2.851   9.871   7.288 -0.0315  0.8117  0.7049
  451MOL0     H60884   2.720   9.995   7.276 -1.1182  2.5672  1.8468
  451MOL0     H60885   2.863  10.034   7.373 -0.6281  0.7154 -0.3981
  452MOL0     O60886   8.250   5.910   8.526 -0.5042 -0.4581  0.1186
  452MOL0     C60887   8.187   5.815   8.488  0.5626 -0.1267 -0.8414
  452MOL0     O60888   8.245   5.698   8.444  0.3166  1.0601  0.3203
  452MOL0     C60889   8.377   5.697   8.422 -0.1581 -0.8689 -0.2301
  452MOL0     C60890   8.466   5.681   8.525 -0.6455 -0.0602 -0.7143
  452MOL0     C60891   8.609   5.687   8.517 -0.5068 -0.8361  0.4629
  452MOL0     C60892   8.662   5.707   8.387  0.2032 -0.5405 -1.0237
  452MOL0     O60893   8.794   5.734   8.355  0.2247  0.6322 -0.1387
  452MOL0     C60894   8.889   5.719   8.462  0.7164 -0.1988 -0.2639
  452MOL0     C60895   9.027   5.713   8.389  0.3471  0.4026  0.1243
  452MOL0     C60896   9.145   5.737   8.488  0.5310  0.5297 -0.5363
  452MOL0     C60897   9.276   5.706   8.403  0.7583  0.1390 -0.1846
  452MOL0     C60898   9.391   5.671   8.500  0.5551  0.1272  1.1815
  452MOL0     C60899   9.512   5.627   8.421 -0.0055  0.0279 -0.7293
  452MOL0     C60900   9.596   5.741   8.353 -0.5524  1.4751 -0.8945
  452MOL0     C60901   9.694   5.684   8.253  0.4743  0.4497 -0.3610
  452MOL0     N60902   9.808   5.626   8.318  0.5602 -0.4668 -0.4106
  452MOL0     C60903   9.907   5.696   8.388  0.0802  1.1137  0.5167
  452MOL0     C60904   9.976   5.599   8.452 -0.5828 -0.1386 -0.9030
  452MOL0     C60905  10.102   5.617   8.536  0.4708 -0.6370  0.3177
  452MOL0     C60906  10.058   5.631   8.683 -0.2595  0.2957 -0.1772
  452MOL0     C60907  10.182   5.648   8.767 -0.0361 -0.1952 -0.7121
  452MOL0     C60908  10.264   5.775   8.748  0.2750 -0.5102  0.3765
  452MOL0     O60909  10.339   5.784   8.620  0.1960 -0.0837 -0.7209
  452MOL0     C60910  10.440   5.880   8.624 -0.1242 -0.1813  0.4581
  452MOL0     C60911  10.464   5.978   8.716  0.1052 -0.1240  0.2637
  452MOL0     C60912  10.574   6.066   8.712 -0.9760  0.4139 -0.5452
  452MOL0     C60913  10.663   6.065   8.612  0.5189 -0.5156 -0.1676
  452MOL0     C60914  10.744   6.185   8.584 -0.4508 -0.2999 -0.8728
  452MOL0     O60915  10.750   6.272   8.689  0.4427  0.1155 -0.0283
  452MOL0     C60916  10.835   6.384   8.685  0.1091 -0.2489 -0.4624
  452MOL0     C60917  10.785   6.514   8.717 -0.1839 -0.7046 -0.4555
  452MOL0     C60918  10.878   6.625   8.716  1.4541 -0.2284 -0.4521
  452MOL0     C60919  11.012   6.610   8.683  0.0528  0.3686  0.3596
  452MOL0     O60920  11.108   6.708   8.689 -0.2970 -0.3788 -0.0973
  452MOL0     C60921  11.064   6.839   8.743  0.1719 -0.5780 -0.4744
  452MOL0     C60922  11.170   6.942   8.744  0.6495 -1.4524  0.5722
  452MOL0     C60923  11.280   6.916   8.840 -0.3120  0.6332  0.9572
  452MOL0     C60924  11.353   7.044   8.881 -0.2754 -1.0494 -0.3608
  452MOL0     C60925  11.442   7.004   9.002  0.6488 -0.0718  0.0878
  452MOL0     C60926  11.525   7.130   9.044  0.5525  0.4683 -0.1853
  452MOL0     C60927  11.598   7.094   9.179  0.1618  0.2796  0.1249
  452MOL0     C60928  11.650   7.227   9.233  0.2718 -0.0813 -0.4709
  452MOL0    Cl60929  11.728   7.195   9.390  0.0235 -0.2364 -0.0185
  452MOL0     C60930  11.059   6.487   8.651  1.1933  0.0860  0.5026
  452MOL0     C60931  10.972   6.383   8.651  0.2370 -0.0929 -0.1660
  452MOL0     O60932  10.817   6.182   8.489  0.1498 -0.3281 -0.1159
  452MOL0     C60933  10.648   5.962   8.511  0.3700  0.1611 -1.0997
  452MOL0     C60934  10.542   5.872   8.520  0.9784 -0.4978 -0.0435
  452MOL0     N60935   9.925   5.482   8.423 -0.6738 -0.3610 -0.3268
  452MOL0     N60936   9.819   5.495   8.354 -0.2228  0.1215  0.1128
  452MOL0     C60937   8.572   5.709   8.279  0.3805 -0.2962 -0.0276
  452MOL0     C60938   8.430   5.713   8.288 -0.1184 -0.0791  0.1463
  452MOL0     C60939   8.029   5.828   8.478  0.0381 -0.4542  0.4437
  452MOL0     C60940   7.958   5.715   8.445 -0.0024  0.3261 -0.3500
  452MOL0     C60941   7.817   5.717   8.446  0.6180  0.1044  0.7124
  452MOL0     C60942   7.746   5.831   8.482  1.0768 -0.2082  0.6727
  452MOL0     O60943   7.608   5.857   8.481  0.3030 -0.1624 -0.5651
  452MOL0     C60944   7.546   5.780   8.585 -0.0224  0.7265 -0.3446
  452MOL0     C60945   7.449   5.873   8.659  0.1529  0.3596  0.3063
  452MOL0     C60946   7.316   5.891   8.578  0.3272 -0.4312  0.0689
  452MOL0     C60947   7.190   5.861   8.664 -0.6487  0.2694  0.2373
  452MOL0     C60948   7.070   5.863   8.572  0.3646  0.8882  0.2344
  452MOL0     C60949   6.977   5.862   8.495  0.0421  0.2722  0.6322
  452MOL0     C60950   7.827   5.950   8.494  0.8203  0.4608  0.4792
  452MOL0     C60951   7.966   5.955   8.490  0.5937 -0.5429 -0.7747
  452MOL0     C60952   8.027   6.089   8.516 -0.2884  0.0055  0.1299
  452MOL0     H60953   8.408   5.670   8.616 -1.3276 -0.0930 -1.1431
  452MOL0     H60954   8.660   5.677   8.612 -0.3212  0.1724  0.4821
  452MOL0     H60955   8.897   5.815   8.514  1.4122  0.2675 -1.1930
  452MOL0     H60956   8.880   5.638   8.535  4.4089  0.9543  1.7825
  452MOL0     H60957   9.031   5.786   8.308  0.6786 -1.3004 -1.4690
  452MOL0     H60958   9.035   5.613   8.344 -1.6164  0.6472 -0.8858
  452MOL0     H60959   9.144   5.671   8.576 -1.0644 -3.1436 -3.0804
  452MOL0     H60960   9.146   5.835   8.535  1.9715 -0.8675  2.6983
  452MOL0     H60961   9.250   5.614   8.350 -3.5992 -0.6016  2.7330
  452MOL0     H60962   9.302   5.776   8.322  2.6001 -1.8132 -1.3809
  452MOL0     H60963   9.401   5.768   8.550 -4.3554  0.4866  1.9412
  452MOL0     H60964   9.370   5.589   8.570  0.8258  0.4551  1.6511
  452MOL0     H60965   9.579   5.578   8.491 -0.1656 -0.4833 -0.9349
  452MOL0     H60966   9.482   5.555   8.345  1.8110 -1.9746  0.3651
  452MOL0     H60967   9.655   5.797   8.426  2.9669 -1.1247 -1.4395
  452MOL0     H60968   9.533   5.804   8.291 -3.4197 -0.4655 -0.1729
  452MOL0     H60969   9.637   5.618   8.188 -0.9772 -0.1675  1.4302
  452MOL0     H60970   9.730   5.773   8.200  1.4515  0.5653  0.4447
  452MOL0     H60971   9.932   5.801   8.378  0.8641  0.7755 -1.5847
  452MOL0     H60972  10.167   5.529   8.531 -0.7718 -1.8111  2.7776
  452MOL0     H60973  10.158   5.700   8.494  1.0928 -1.4462 -0.4850
  452MOL0     H60974   9.978   5.704   8.698  0.8379  1.6080 -0.5899
  452MOL0     H60975   9.998   5.544   8.712 -1.9272  1.4813  0.0939
  452MOL0     H60976  10.244   5.559   8.755 -0.4427 -0.3293 -2.0046
  452MOL0     H60977  10.133   5.648   8.864 -1.9853  0.6006 -1.6415
  452MOL0     H60978  10.332   5.776   8.834 -0.0743 -1.4311  0.6711
  452MOL0     H60979  10.192   5.857   8.753  0.4987 -0.2982  0.1375
  452MOL0     H60980  10.399   5.988   8.802 -0.6025  2.4105 -0.4851
  452MOL0     H60981  10.568   6.143   8.788  0.7114  0.8028 -0.7678
  452MOL0     H60982  10.684   6.539   8.748 -0.0473  1.0176 -1.2695
  452MOL0     H60983  10.828   6.721   8.727 -1.1969 -1.2735 -2.1663
  452MOL0     H60984  10.982   6.879   8.682 -0.7337 -0.8969  0.4981
  452MOL0     H60985  11.029   6.828   8.846  1.9227  0.5782  0.2851
  452MOL0     H60986  11.203   6.945   8.640  2.2959 -1.1278  1.0787
  452MOL0     H60987  11.118   7.034   8.772 -0.1553 -2.4473  2.5683
  452MOL0     H60988  11.234   6.874   8.930 -2.1996  0.6050  0.0352
  452MOL0     H60989  11.353   6.846   8.799 -1.1652  0.3278 -0.1091
  452MOL0     H60990  11.285   7.127   8.902  0.2953 -0.0856 -2.0863
  452MOL0     H60991  11.409   7.068   8.790 -0.9721  0.5801 -0.3868
  452MOL0     H60992  11.503   6.916   8.980  1.3202  0.2693  0.5450
  452MOL0     H60993  11.384   6.968   9.088 -1.2417 -0.3656 -1.2601
  452MOL0     H60994  11.593   7.161   8.964 -0.3029  1.5115 -0.5386
  452MOL0     H60995  11.459   7.215   9.062 -0.3527 -0.7715  3.3170
  452MOL0     H60996  11.688   7.032   9.164  1.8010  2.3806  0.7657
  452MOL0     H60997  11.538   7.051   9.259  1.3438 -0.3111  0.7278
  452MOL0     H60998  11.720   7.263   9.157 -0.6696  1.4044 -0.6811
  452MOL0     H60999  11.567   7.297   9.244  0.1944  0.1031 -2.0322
  452MOL0     H61000  11.165   6.473   8.631  1.2181  2.0056 -0.9913
  452MOL0     H61001  11.006   6.283   8.630 -3.3933 -0.8550 -3.7514
  452MOL0     H61002  10.711   5.957   8.423 -0.0265 -2.6303 -1.3068
  452MOL0     H61003  10.535   5.796   8.442  2.6080  0.1775 -0.8971
  452MOL0     H61004   8.626   5.706   8.184 -1.0315  2.8072 -1.0606
  452MOL0     H61005   8.360   5.712   8.205 -0.8427  1.5719  0.6788
  452MOL0     H61006   8.014   5.627   8.418 -1.0758 -0.3037 -0.5638
  452MOL0     H61007   7.761   5.629   8.417  0.3451  0.4444  0.2064
  452MOL0     H61008   7.618   5.736   8.655 -0.2591  1.5696  0.4508
  452MOL0     H61009   7.486   5.702   8.537  0.5157  0.9953 -1.4947
  452MOL0     H61010   7.495   5.969   8.685  2.1159 -0.9604  2.0054
  452MOL0     H61011   7.421   5.828   8.755 -1.9531 -0.7169 -0.7539
  452MOL0     H61012   7.311   5.841   8.481  0.1196  1.9862 -1.2307
  452MOL0     H61013   7.314   5.993   8.538 -0.7497 -1.2274 -2.0867
  452MOL0     H61014   7.199   5.765   8.716 -1.8648  0.2314  0.4264
  452MOL0     H61015   7.186   5.942   8.737  0.3490  0.7642 -0.2391
  452MOL0     H61016   6.901   5.852   8.420  0.5513  2.4113 -0.2383
  452MOL0     H61017   7.771   6.038   8.525 -0.7307 -0.5262  0.6242
  452MOL0     H61018   8.071   6.096   8.616 -0.2334 -2.7066  0.3678
  452MOL0     H61019   8.092   6.130   8.438  1.5546 -1.3727  0.8770
  452MOL0     H61020   7.941   6.157   8.522  0.0028  0.3829  0.0846
  453MOL0     O61021  10.982   1.094   8.170  0.9245  0.2784 -1.3197
  453MOL0     C61022  11.083   1.081   8.111  0.2980 -0.0194 -0.4017
  453MOL0     O61023  11.208   1.119   8.155  0.7075  0.1480 -0.0801
  453MOL0     C61024  11.230   1.155   8.290 -0.0319  0.3125 -0.7612
  453MOL0     C61025  11.176   1.078   8.395  0.2873  0.3210  0.2843
  453MOL0     C61026  11.209   1.098   8.526  0.4249  0.1619 -0.7028
  453MOL0     C61027  11.301   1.204   8.555  0.0011  0.0047 -0.3502
  453MOL0     O61028  11.332   1.226   8.682 -0.1067  0.2377  0.0868
  453MOL0     C61029  11.460   1.270   8.702 -0.4670  0.2503 -0.0157
  453MOL0     C61030  11.526   1.181   8.816  1.1730 -0.0103  0.1148
  453MOL0     C61031  11.489   1.023   8.807  0.2588  0.1317  0.2314
  453MOL0     C61032  11.560   0.947   8.699  0.1360  0.0217 -0.2186
  453MOL0     C61033  11.520   0.795   8.692  0.2256 -0.4202  0.2656
  453MOL0     C61034  11.564   0.709   8.810 -0.2223 -0.6548  0.1750
  453MOL0     C61035  11.705   0.677   8.820 -0.0613  0.0545 -0.3496
  453MOL0     C61036  11.755   0.544   8.758 -0.6945  0.2739 -0.2017
  453MOL0     N61037  11.902   0.537   8.781 -0.2212 -0.9606  0.0981
  453MOL0     C61038  11.990   0.584   8.688 -1.1957  0.9180 -0.7280
  453MOL0     C61039  12.099   0.596   8.760 -0.3347 -0.0371 -0.6705
  453MOL0     C61040  12.232   0.652   8.710  0.0826 -0.2546  1.0875
  453MOL0     C61041  12.296   0.566   8.595 -0.3947  0.2365 -0.2189
  453MOL0     C61042  12.382   0.653   8.498  0.0283 -0.7040  0.7311
  453MOL0     C61043  12.481   0.736   8.559  0.8071 -0.4808 -0.0961
  453MOL0     O61044  12.560   0.804   8.457  0.3807  0.1263  0.0465
  453MOL0     C61045  12.681   0.855   8.481 -0.1522 -0.1492 -0.8165
  453MOL0     C61046  12.743   0.853   8.609  0.5943  0.2216  0.2850
  453MOL0     C61047  12.876   0.906   8.627 -0.0904 -0.2535 -0.7710
  453MOL0     C61048  12.956   0.928   8.512 -0.5693  0.6586  0.3783
  453MOL0     C61049  13.099   0.956   8.524 -0.5316  0.7098 -0.5370
  453MOL0     O61050  13.179   0.902   8.429 -0.3695  0.1232  0.3283
  453MOL0     C61051  13.317   0.906   8.439 -0.5109  0.5534 -0.4089
  453MOL0     C61052  13.393   0.877   8.543 -0.4857 -0.6300  0.3625
  453MOL0     C61053  13.537   0.881   8.545 -0.1584  0.5724  0.1841
  453MOL0     C61054  13.607   0.923   8.432  0.5944 -0.1505  0.5399
  453MOL0     O61055  13.739   0.938   8.412 -0.0805  0.9062  0.2264
  453MOL0     C61056  13.831   0.889   8.515  0.9753  0.2506 -0.1090
  453MOL0     C61057  13.962   0.884   8.450 -0.2810  0.5188  1.0132
  453MOL0     C61058  14.061   0.846   8.551 -1.1381 -0.2190  0.5845
  453MOL0     C61059  14.207   0.839   8.488  0.5082 -0.4580  0.3984
  453MOL0     C61060  14.300   0.821   8.602 -0.2819 -0.8409  0.4386
  453MOL0     C61061  14.438   0.792   8.526  0.0468 -0.4869  0.3688
  453MOL0     C61062  14.565   0.760   8.604 -0.7773 -0.2330 -0.4719
  453MOL0     C61063  14.595   0.866   8.713 -0.3073  0.3244 -0.7497
  453MOL0    Cl61064  14.761   0.858   8.784 -0.2472 -0.1978 -0.0942
  453MOL0     C61065  13.528   0.950   8.315 -0.2665  0.3926 -0.4580
  453MOL0     C61066  13.390   0.939   8.324  0.5449  0.2604  0.3360
  453MOL0     O61067  13.142   1.008   8.628  0.1447 -0.7138  0.1031
  453MOL0     C61068  12.893   0.924   8.389 -0.4435 -1.0799 -0.2296
  453MOL0     C61069  12.756   0.897   8.375 -0.9529 -0.2616  0.5868
  453MOL0     N61070  12.089   0.563   8.894  0.1620  0.9084 -0.5245
  453MOL0     N61071  11.962   0.533   8.908 -0.1742  0.2511 -0.4774
  453MOL0     C61072  11.340   1.297   8.452  0.1596  0.4361  0.9126
  453MOL0     C61073  11.298   1.271   8.323 -0.1569  0.3323  0.2489
  453MOL0     C61074  11.078   1.032   7.967  0.0687  0.0011 -0.1529
  453MOL0     C61075  11.198   1.025   7.893  0.3459 -0.2488 -0.8929
  453MOL0     C61076  11.197   0.966   7.767 -0.1949  0.4530  0.3444
  453MOL0     C61077  11.082   0.920   7.714 -0.2956 -0.8648  0.1011
  453MOL0     O61078  11.069   0.860   7.588  0.6991 -0.2982 -0.5299
  453MOL0     C61079  11.175   0.814   7.510  0.5570 -0.3851  0.4293
  453MOL0     C61080  11.240   0.687   7.565 -0.1298  0.7108 -0.1096
  453MOL0     C61081  11.140   0.588   7.631 -0.3248 -0.9337 -0.5810
  453MOL0     C61082  11.192   0.445   7.635  0.9422  0.8376  0.6743
  453MOL0     C61083  11.284   0.438   7.750 -0.0601 -1.1666  0.0978
  453MOL0     C61084  11.361   0.454   7.844  0.4981  0.2343  0.0331
  453MOL0     C61085  10.961   0.934   7.782  0.7781  0.2907 -0.3169
  453MOL0     C61086  10.953   0.989   7.912  0.2939  0.0960  0.6462
  453MOL0     C61087  10.815   1.008   7.967 -0.0687 -0.1407 -0.1827
  453MOL0     H61088  11.112   0.997   8.360 -4.2477  4.1398 -1.4487
  453MOL0     H61089  11.179   1.036   8.610 -0.4814  0.4001 -0.8478
  453MOL0     H61090  11.524   1.247   8.616  0.7692  0.1197  0.9058
  453MOL0     H61091  11.465   1.375   8.731  2.2143 -0.2975  1.8788
  453MOL0     H61092  11.475   1.220   8.904 -2.6917 -0.4991 -1.7322
  453MOL0     H61093  11.635   1.191   8.819  1.1507  0.2786 -0.0386
  453MOL0     H61094  11.380   1.012   8.806  0.0904  1.5938 -0.5395
  453MOL0     H61095  11.537   0.983   8.897  2.6738  2.4977  0.1009
  453MOL0     H61096  11.543   1.001   8.606  0.5687 -0.1322 -0.3910
  453MOL0     H61097  11.668   0.961   8.704  0.1906 -0.5515  0.3914
  453MOL0     H61098  11.411   0.793   8.695  0.1757  1.3855  1.8599
  453MOL0     H61099  11.557   0.752   8.599 -0.3930 -0.2280 -0.0764
  453MOL0     H61100  11.532   0.758   8.903 -0.0186 -3.2302  1.6962
  453MOL0     H61101  11.514   0.612   8.814  0.6172 -1.0552  2.1608
  453MOL0     H61102  11.726   0.656   8.925 -0.1113 -3.4122 -0.9077
  453MOL0     H61103  11.763   0.761   8.779 -0.6269 -0.0419 -1.3801
  453MOL0     H61104  11.698   0.472   8.817 -2.8019  2.0360  0.0036
  453MOL0     H61105  11.736   0.533   8.651 -0.1990  0.4451 -0.3095
  453MOL0     H61106  11.979   0.599   8.581 -0.1603 -1.8683 -1.3043
  453MOL0     H61107  12.204   0.752   8.676 -1.5905  0.1710  3.4620
  453MOL0     H61108  12.302   0.667   8.792 -0.5948 -4.1635  2.6275
  453MOL0     H61109  12.361   0.491   8.641 -1.1537  0.1904  0.8358
  453MOL0     H61110  12.216   0.509   8.547 -0.1994 -1.4304  1.3247
  453MOL0     H61111  12.311   0.711   8.438  1.3244 -0.7583 -0.9229
  453MOL0     H61112  12.425   0.576   8.433  0.4135  0.2596 -0.1920
  453MOL0     H61113  12.545   0.675   8.624  1.1880  1.5445  1.5762
  453MOL0     H61114  12.437   0.818   8.616  1.9727  0.0142  0.1327
  453MOL0     H61115  12.681   0.834   8.696 -0.3616 -0.9326 -0.6075
  453MOL0     H61116  12.909   0.926   8.729 -1.1116  3.0498 -0.9778
  453MOL0     H61117  13.332   0.852   8.629 -1.3348  2.3145  0.7467
  453MOL0     H61118  13.592   0.844   8.631  0.6131 -1.1547 -0.9951
  453MOL0     H61119  13.819   0.960   8.597  0.2648 -0.9892  0.8827
  453MOL0     H61120  13.800   0.790   8.548 -1.0540  1.1807  0.9477
  453MOL0     H61121  13.958   0.801   8.378  1.7162  1.3859 -0.1787
  453MOL0     H61122  13.989   0.979   8.405  0.8997 -0.0794  0.4117
  453MOL0     H61123  14.065   0.931   8.620 -0.7067 -0.6366  1.0821
  453MOL0     H61124  14.037   0.750   8.598 -0.9565 -0.6179 -0.1216
  453MOL0     H61125  14.238   0.930   8.436 -1.3802 -0.2171 -0.4144
  453MOL0     H61126  14.212   0.756   8.416 -2.9525 -1.3599  0.9951
  453MOL0     H61127  14.288   0.739   8.674  5.2938 -0.9706  1.7124
  453MOL0     H61128  14.299   0.915   8.657 -1.4194 -0.3578 -0.3594
  453MOL0     H61129  14.419   0.711   8.456 -3.5619 -0.0365  0.6189
  453MOL0     H61130  14.469   0.881   8.470 -0.1301 -0.9332 -0.4390
  453MOL0     H61131  14.655   0.742   8.544  1.2493 -0.8983  2.5366
  453MOL0     H61132  14.537   0.664   8.649 -2.6603  0.9484  1.0481
  453MOL0     H61133  14.601   0.961   8.658 -0.3053 -0.1667 -1.6186
  453MOL0     H61134  14.511   0.862   8.783  0.8584 -2.9127  0.6394
  453MOL0     H61135  13.572   0.996   8.227  1.7843 -0.0638  0.2746
  453MOL0     H61136  13.325   0.967   8.242 -0.1581  1.3015  1.2069
  453MOL0     H61137  12.946   0.950   8.298  1.3080  2.8295  1.6707
  453MOL0     H61138  12.703   0.893   8.280 -1.7052 -0.7000  1.0131
  453MOL0     H61139  11.397   1.386   8.475 -0.4000  1.2361 -0.7029
  453MOL0     H61140  11.327   1.342   8.246  2.9581  1.4754  2.2823
  453MOL0     H61141  11.294   1.057   7.930  1.9836 -0.5301 -4.4573
  453MOL0     H61142  11.295   0.960   7.720 -1.1902 -1.3959 -1.6600
  453MOL0     H61143  11.244   0.897   7.487  0.6477 -0.7987 -0.8468
  453MOL0     H61144  11.139   0.796   7.409  0.2652  1.2212  0.2172
  453MOL0     H61145  11.307   0.717   7.646 -0.3745  1.1053 -0.0478
  453MOL0     H61146  11.296   0.637   7.486 -0.0496 -2.7752  1.9415
  453MOL0     H61147  11.045   0.610   7.582 -0.9722  0.5612  1.2302
  453MOL0     H61148  11.120   0.622   7.733 -2.0948 -1.0217 -0.8626
  453MOL0     H61149  11.108   0.375   7.627  1.8408 -0.0142 -2.6907
  453MOL0     H61150  11.246   0.422   7.543 -0.8748 -0.9474 -0.0322
  453MOL0     H61151  11.438   0.466   7.917 -0.6369  1.7446  1.0405
  453MOL0     H61152  10.869   0.908   7.730  0.5772  1.1041 -0.3971
  453MOL0     H61153  10.811   0.949   8.059  1.2043  2.3814  1.6276
  453MOL0     H61154  10.796   1.111   7.999  2.5815  0.0739  1.0308
  453MOL0     H61155  10.742   0.984   7.890  1.1993  0.1382 -1.5233
  454MOL0     O61156   8.999   9.222   7.028 -0.0482  0.3796 -0.9979
  454MOL0     C61157   8.901   9.279   7.080 -0.5520 -0.8718  0.1947
  454MOL0     O61158   8.890   9.410   7.081  0.2136  0.0815 -0.5702
  454MOL0     C61159   9.004   9.482   7.064  0.2115  0.9152 -0.5801
  454MOL0     C61160   9.077   9.528   7.171 -0.1293 -0.0535 -0.4367
  454MOL0     C61161   9.196   9.596   7.150  0.2484  1.1039  0.0550
  454MOL0     C61162   9.248   9.614   7.021 -0.1776  0.4800  0.0515
  454MOL0     O61163   9.367   9.676   7.006 -0.1613  0.5683  0.7852
  454MOL0     C61164   9.370   9.781   6.908 -0.0689  0.3684  0.1855
  454MOL0     C61165   9.468   9.891   6.947  0.6612 -0.4891  0.6817
  454MOL0     C61166   9.515   9.963   6.824 -0.3301  0.2918  0.2412
  454MOL0     C61167   9.619  10.081   6.859 -0.4776 -0.2437 -0.4538
  454MOL0     C61168   9.678  10.131   6.722  0.1008  0.7170 -0.0930
  454MOL0     C61169   9.772  10.249   6.751  1.2083 -0.2228  0.0677
  454MOL0     C61170   9.855  10.300   6.643 -0.9495  0.1834  0.2183
  454MOL0     C61171   9.944  10.420   6.693 -0.1540 -0.8702  0.3916
  454MOL0     N61172  10.066  10.451   6.618 -0.4331 -0.1403 -0.2411
  454MOL0     C61173  10.197  10.418   6.656  0.4918  0.8418  0.3443
  454MOL0     C61174  10.272  10.426   6.543  0.9281 -0.7763  0.2831
  454MOL0     C61175  10.415  10.390   6.509  0.1251 -0.6581  0.1045
  454MOL0     C61176  10.515  10.503   6.511 -0.3326 -1.3577  0.0410
  454MOL0     C61177  10.476  10.618   6.417  0.7682  0.2310  0.7483
  454MOL0     C61178  10.598  10.697   6.389  0.0152 -0.4715  0.3622
  454MOL0     O61179  10.658  10.738   6.511 -0.0167 -0.4614 -0.3422
  454MOL0     C61180  10.746  10.839   6.520  0.7642  0.2387  1.1403
  454MOL0     C61181  10.803  10.897   6.402 -0.3532  0.4787 -0.2061
  454MOL0     C61182  10.895  11.004   6.419  0.1720 -0.6620  0.6890
  454MOL0     C61183  10.936  11.051   6.549 -0.2090  0.3969 -0.4640
  454MOL0     C61184  11.049  11.148   6.575  0.2508 -0.4156  0.4502
  454MOL0     O61185  11.119  11.195   6.467  0.6083 -0.1937 -1.4771
  454MOL0     C61186  11.234  11.270   6.488  0.5515  0.0596  0.3863
  454MOL0     C61187  11.229  11.403   6.444 -0.5881  0.0995 -0.1041
  454MOL0     C61188  11.346  11.483   6.443  0.0122 -0.2257  0.4082
  454MOL0     C61189  11.464  11.439   6.506 -0.1459  0.3991  0.0365
  454MOL0     O61190  11.586  11.502   6.507  0.0650  0.7773 -0.2287
  454MOL0     C61191  11.591  11.637   6.457  0.3762 -0.1209  0.3967
  454MOL0     C61192  11.722  11.712   6.486  0.5032 -0.0622  0.4880
  454MOL0     C61193  11.771  11.697   6.622  0.4274 -0.7190  0.4708
  454MOL0     C61194  11.921  11.758   6.634 -0.1732  0.1307 -0.6058
  454MOL0     C61195  11.917  11.907   6.653  0.0227 -0.5237  0.2470
  454MOL0     C61196  12.055  11.974   6.650  1.2121 -0.6231  0.0236
  454MOL0     C61197  12.146  11.925   6.770 -0.0449 -0.3865  0.2512
  454MOL0     C61198  12.251  12.024   6.813  0.1065  0.2691  0.1359
  454MOL0    Cl61199  12.356  11.964   6.941 -0.0482 -0.4104  0.5294
  454MOL0     C61200  11.468  11.302   6.547 -0.0519 -0.0318  0.0259
  454MOL0     C61201  11.357  11.221   6.529  0.6503  0.7954 -0.3898
  454MOL0     O61202  11.072  11.176   6.698  0.1589  0.3026  0.1835
  454MOL0     C61203  10.867  10.998   6.661  0.7740  0.1803 -0.1497
  454MOL0     C61204  10.783  10.891   6.642 -0.1144 -0.1505  0.5057
  454MOL0     N61205  10.185  10.473   6.446 -0.1538 -0.0947 -0.8374
  454MOL0     N61206  10.067  10.490   6.493  0.7475  0.2336  0.2555
  454MOL0     C61207   9.167   9.568   6.910 -0.6188 -0.7481  0.0010
  454MOL0     C61208   9.049   9.507   6.939  1.0553 -0.0310  0.5980
  454MOL0     C61209   8.785   9.209   7.139 -0.4879 -0.1165  0.8524
  454MOL0     C61210   8.804   9.081   7.205 -0.1902  0.6007  0.5048
  454MOL0     C61211   8.709   9.010   7.280 -0.7169 -0.1357 -0.7219
  454MOL0     C61212   8.585   9.058   7.278  0.3044  0.1410 -0.8243
  454MOL0     O61213   8.479   8.993   7.354  0.0100 -0.2901  0.3634
  454MOL0     C61214   8.497   8.855   7.371  0.3056  0.1317 -0.4389
  454MOL0     C61215   8.367   8.773   7.362  0.6213  0.4335 -0.3865
  454MOL0     C61216   8.274   8.816   7.468  0.3249  0.1748  0.3951
  454MOL0     C61217   8.129   8.770   7.421  0.2782 -0.7756 -0.2094
  454MOL0     C61218   8.111   8.627   7.468 -0.4064 -0.6445 -0.1306
  454MOL0     C61219   8.124   8.521   7.513 -0.2387  0.4479 -0.1692
  454MOL0     C61220   8.556   9.178   7.213 -0.2797  0.5732  0.7393
  454MOL0     C61221   8.651   9.253   7.144  0.6907  0.6840 -0.9310
  454MOL0     C61222   8.599   9.382   7.096  0.3943 -0.5129 -0.3221
  454MOL0     H61223   9.052   9.497   7.272 -0.8374  0.3130 -0.4972
  454MOL0     H61224   9.248   9.626   7.240  1.0817 -1.6885  0.5966
  454MOL0     H61225   9.398   9.736   6.812  2.4607  1.1590  0.4812
  454MOL0     H61226   9.267   9.818   6.907  0.2639  1.3237  0.4248
  454MOL0     H61227   9.550   9.853   7.009 -0.6955  0.1287  2.9826
  454MOL0     H61228   9.418   9.968   7.006 -0.5227  1.4413 -2.6105
  454MOL0     H61229   9.426  10.000   6.773 -1.5736 -0.4521  1.7627
  454MOL0     H61230   9.567   9.892   6.759  1.8005  1.9305  0.0717
  454MOL0     H61231   9.561  10.157   6.911  0.8962  1.4335 -1.2963
  454MOL0     H61232   9.702  10.045   6.922 -0.1959 -0.2814 -0.8421
  454MOL0     H61233   9.741  10.058   6.671 -0.1602  0.6132 -0.2665
  454MOL0     H61234   9.599  10.170   6.658  1.9852  0.4731 -2.6868
  454MOL0     H61235   9.710  10.332   6.787  0.1323 -0.9484 -0.0653
  454MOL0     H61236   9.845  10.212   6.824  0.4344  0.2080  1.0836
  454MOL0     H61237   9.793  10.331   6.559 -3.2242  1.1210  2.1559
  454MOL0     H61238   9.922  10.221   6.606 -0.0067  1.2738 -0.4602
  454MOL0     H61239   9.875  10.504   6.686 -2.4962 -2.8222 -1.5708
  454MOL0     H61240   9.961  10.434   6.801  0.1876  2.9213 -0.0174
  454MOL0     H61241  10.226  10.384   6.754 -1.6847 -0.3894  0.6315
  454MOL0     H61242  10.455  10.312   6.575  1.2383 -0.1750  0.0239
  454MOL0     H61243  10.413  10.334   6.415  0.2438 -2.2026  0.9772
  454MOL0     H61244  10.540  10.528   6.614 -0.2923 -1.0180 -0.0491
  454MOL0     H61245  10.605  10.457   6.469  0.2138 -1.7958  1.6304
  454MOL0     H61246  10.395  10.678   6.459 -2.1082 -2.5614 -0.4326
  454MOL0     H61247  10.432  10.573   6.328  0.7172 -1.8099  1.7590
  454MOL0     H61248  10.553  10.785   6.342 -1.5794 -1.9601 -1.0388
  454MOL0     H61249  10.665  10.637   6.326 -2.2922 -1.0994 -1.6488
  454MOL0     H61250  10.798  10.854   6.303 -0.2635  0.5675 -0.2496
  454MOL0     H61251  10.959  11.039   6.338  0.5168 -1.0158  0.8070
  454MOL0     H61252  11.139  11.435   6.392 -0.1948  1.3741 -0.0338
  454MOL0     H61253  11.332  11.581   6.399  2.0474 -1.2887 -3.0732
  454MOL0     H61254  11.589  11.625   6.349  1.9078  1.1269  0.1978
  454MOL0     H61255  11.515  11.703   6.500  1.9400  2.7485 -1.0020
  454MOL0     H61256  11.795  11.672   6.414  0.7981  0.0756  0.7057
  454MOL0     H61257  11.704  11.817   6.461  1.2900 -0.2315 -0.8911
  454MOL0     H61258  11.707  11.734   6.702 -0.3423 -0.3933 -0.2819
  454MOL0     H61259  11.782  11.589   6.635 -1.0237 -0.9233  0.1716
  454MOL0     H61260  11.973  11.730   6.542 -3.2841 -0.0390 -2.4568
  454MOL0     H61261  11.967  11.720   6.726 -0.4579 -0.1232 -0.5664
  454MOL0     H61262  11.862  11.934   6.744 -1.4147  0.5441 -0.8738
  454MOL0     H61263  11.852  11.938   6.571  3.6635 -0.2533 -2.7850
  454MOL0     H61264  12.111  11.948   6.560 -0.4319 -0.1382 -1.1787
  454MOL0     H61265  12.049  12.082   6.667  0.9698 -0.8993  2.0193
  454MOL0     H61266  12.199  11.834   6.741 -1.3320 -1.2751  0.5955
  454MOL0     H61267  12.078  11.907   6.854  3.4888  1.2882  3.8109
  454MOL0     H61268  12.320  12.048   6.732 -0.9342  1.9356 -0.3088
  454MOL0     H61269  12.208  12.119   6.846 -0.8329 -1.1276  3.2797
  454MOL0     H61270  11.565  11.268   6.582 -0.4544 -0.8422  0.3880
  454MOL0     H61271  11.357  11.116   6.555 -0.5007  0.8907  0.0603
  454MOL0     H61272  10.907  11.030   6.757  0.3761 -3.0430  1.2170
  454MOL0     H61273  10.744  10.837   6.728 -1.2504  2.2310  1.5772
  454MOL0     H61274   9.203   9.593   6.810  1.3062 -0.3561  0.7380
  454MOL0     H61275   8.988   9.470   6.857 -1.5379  3.8363  0.5114
  454MOL0     H61276   8.905   9.040   7.211 -0.6371 -0.3017  3.4385
  454MOL0     H61277   8.738   8.931   7.349  1.6253  0.0042 -1.4612
  454MOL0     H61278   8.536   8.842   7.473 -1.0758  1.1794  0.2676
  454MOL0     H61279   8.552   8.804   7.292 -2.3734 -3.3247 -0.3183
  454MOL0     H61280   8.385   8.669   7.390 -0.8343  0.5027  0.9891
  454MOL0     H61281   8.323   8.787   7.263 -1.3237  0.8272  0.4840
  454MOL0     H61282   8.266   8.925   7.472  0.4110  0.1418  3.2802
  454MOL0     H61283   8.295   8.775   7.567 -1.8751 -2.8383 -0.2545
  454MOL0     H61284   8.051   8.832   7.467  1.8657  1.4367 -0.3376
  454MOL0     H61285   8.112   8.771   7.312 -0.9543 -3.2687 -0.1152
  454MOL0     H61286   8.122   8.425   7.560 -0.0191 -0.1989 -1.4492
  454MOL0     H61287   8.455   9.217   7.218 -0.1342  1.7348 -2.6042
  454MOL0     H61288   8.628   9.398   6.991  1.8683  0.7380  0.2350
  454MOL0     H61289   8.491   9.395   7.097  0.1875 -2.0796  1.2671
  454MOL0     H61290   8.643   9.467   7.150  0.8282 -0.4992 -0.6800
  455MOL0     O61291   4.112   9.559   2.206  0.5211 -1.2477  0.5495
  455MOL0     C61292   4.168   9.459   2.244 -0.0764  0.5607  0.8184
  455MOL0     O61293   4.302   9.461   2.287 -0.7322  0.1506  0.2389
  455MOL0     C61294   4.363   9.586   2.305 -0.0008 -0.0219  0.3755
  455MOL0     C61295   4.383   9.633   2.439 -0.6224 -0.6951  0.1077
  455MOL0     C61296   4.453   9.757   2.452 -0.4073  0.1555  0.6135
  455MOL0     C61297   4.507   9.830   2.339 -0.0477 -0.4764 -0.8929
  455MOL0     O61298   4.594   9.940   2.357  0.1388 -0.4857 -0.1932
  455MOL0     C61299   4.659   9.976   2.483  0.1720  0.2589  0.1089
  455MOL0     C61300   4.780   9.892   2.510 -1.2654  0.4710 -0.7070
  455MOL0     C61301   4.871   9.930   2.636 -0.3472  0.0350  0.2607
  455MOL0     C61302   4.995   9.845   2.624 -1.0913  0.3697 -0.2724
  455MOL0     C61303   5.095   9.882   2.732 -0.2644 -0.2114  0.3190
  455MOL0     C61304   5.204   9.780   2.749  0.5416  0.2827  0.8481
  455MOL0     C61305   5.280   9.800   2.878 -0.7132  0.0794  0.7296
  455MOL0     C61306   5.384   9.695   2.897  0.1238  0.1909 -1.2103
  455MOL0     N61307   5.499   9.740   2.982 -0.3483 -0.3536 -1.0956
  455MOL0     C61308   5.604   9.829   2.950  0.1028  0.4229 -0.4172
  455MOL0     C61309   5.695   9.822   3.056  0.5904  0.7958 -0.0140
  455MOL0     C61310   5.820   9.893   3.054 -0.5245  0.2340  0.6855
  455MOL0     C61311   5.925   9.825   2.978  0.1784  0.0838  0.3487
  455MOL0     C61312   6.065   9.887   3.002  0.4676  0.4363 -0.3378
  455MOL0     C61313   6.174   9.793   2.952 -0.6409  0.4825 -0.3026
  455MOL0     O61314   6.299   9.847   2.987 -0.3632 -0.4131 -0.2609
  455MOL0     C61315   6.409   9.783   2.957 -0.0010  0.0772 -0.3717
  455MOL0     C61316   6.525   9.824   3.020 -0.6319  0.4502 -0.1458
  455MOL0     C61317   6.648   9.757   3.003 -0.1080 -0.2638 -0.7775
  455MOL0     C61318   6.657   9.648   2.913  0.4287 -0.2146 -0.1016
  455MOL0     C61319   6.785   9.575   2.899  0.2951 -0.8576 -0.3119
  455MOL0     O61320   6.900   9.636   2.933 -0.2365  0.0298 -0.6627
  455MOL0     C61321   7.021   9.569   2.926  0.2386 -0.7870  0.1375
  455MOL0     C61322   7.069   9.504   2.806  0.6900  0.4761 -0.5578
  455MOL0     C61323   7.196   9.474   2.796  0.1505 -0.1879  0.8327
  455MOL0     C61324   7.287   9.483   2.906  0.1401 -0.2595 -0.5923
  455MOL0     O61325   7.424   9.464   2.908  0.2224 -0.4505 -0.2754
  455MOL0     C61326   7.482   9.396   2.798  0.6404  0.0287 -1.0256
  455MOL0     C61327   7.636   9.398   2.814 -0.2630  0.0577  1.2189
  455MOL0     C61328   7.704   9.364   2.684 -0.6852  0.3288  0.2490
  455MOL0     C61329   7.860   9.364   2.695  0.6046  0.5166 -0.0052
  455MOL0     C61330   7.927   9.295   2.579  0.3901  0.3430 -0.8570
  455MOL0     C61331   8.077   9.336   2.566 -0.9850 -0.3975  0.7586
  455MOL0     C61332   8.148   9.267   2.452 -0.1978  0.4848 -0.4793
  455MOL0     C61333   8.130   9.110   2.463  0.2509  0.4405  0.6015
  455MOL0    Cl61334   8.176   9.027   2.627  0.1507  0.2416  0.1687
  455MOL0     C61335   7.237   9.529   3.025 -0.1266  0.4930  0.2683
  455MOL0     C61336   7.104   9.569   3.043 -1.0346  0.0647 -0.1303
  455MOL0     O61337   6.775   9.454   2.873 -0.4421  0.1268  0.1134
  455MOL0     C61338   6.539   9.602   2.851  0.4307  0.4210  0.9289
  455MOL0     C61339   6.418   9.672   2.865  0.7334 -0.0023  0.7695
  455MOL0     N61340   5.637   9.743   3.155 -0.3463 -0.1700  0.1908
  455MOL0     N61341   5.528   9.690   3.105  0.9494  0.2343 -0.1916
  455MOL0     C61342   4.497   9.775   2.216  0.0940  0.4498  0.4113
  455MOL0     C61343   4.426   9.652   2.200 -0.2439  0.5726  0.0813
  455MOL0     C61344   4.094   9.327   2.235 -0.4435 -0.3140  1.1705
  455MOL0     C61345   4.158   9.202   2.252  0.1733  0.2712 -0.9422
  455MOL0     C61346   4.093   9.076   2.266 -0.0519  0.3870  0.9350
  455MOL0     C61347   3.954   9.070   2.243 -0.1710  0.0422  0.8775
  455MOL0     O61348   3.899   8.941   2.251  0.0977 -0.0961 -0.1461
  455MOL0     C61349   3.767   8.928   2.301  0.5569 -0.3386 -0.4502
  455MOL0     C61350   3.778   8.913   2.450 -0.0273 -0.3564  0.4776
  455MOL0     C61351   3.861   8.795   2.497 -0.2482  0.1658  0.3677
  455MOL0     C61352   3.943   8.822   2.615 -0.5474 -1.0876 -0.0426
  455MOL0     C61353   4.054   8.914   2.598  0.0313 -0.5094 -0.1014
  455MOL0     C61354   4.157   8.983   2.582  0.3205  0.1578 -0.1537
  455MOL0     C61355   3.884   9.186   2.212 -0.2007 -0.7528 -0.6820
  455MOL0     C61356   3.951   9.317   2.205 -0.2851 -0.5121  0.6945
  455MOL0     C61357   3.862   9.440   2.179 -0.1558  0.1669  0.1238
  455MOL0     H61358   4.348   9.581   2.527 -1.0311  0.2051  0.4891
  455MOL0     H61359   4.472   9.787   2.555 -1.3459 -4.2867  2.3204
  455MOL0     H61360   4.686  10.080   2.468 -0.6329  0.4591 -0.0323
  455MOL0     H61361   4.591   9.979   2.569  0.5772  5.5534  0.5631
  455MOL0     H61362   4.845   9.892   2.422  1.4891  1.2060  1.1949
  455MOL0     H61363   4.762   9.785   2.519  0.3497  0.0378 -2.2104
  455MOL0     H61364   4.818   9.904   2.728  2.6728 -1.0506  1.8379
  455MOL0     H61365   4.904  10.035   2.642  1.7635 -0.5944  0.4674
  455MOL0     H61366   4.970   9.739   2.627 -0.1412  0.1632  1.5598
  455MOL0     H61367   5.047   9.856   2.528  0.4317 -0.7443  0.3774
  455MOL0     H61368   5.142   9.978   2.705  1.6350 -0.8976  1.0252
  455MOL0     H61369   5.050   9.901   2.830 -2.4988 -1.7624 -0.3545
  455MOL0     H61370   5.159   9.681   2.743 -0.0799  0.5318  1.2244
  455MOL0     H61371   5.264   9.789   2.658 -0.5529  0.8347  0.1625
  455MOL0     H61372   5.204   9.795   2.956  0.6164 -0.9908  2.0105
  455MOL0     H61373   5.328   9.898   2.887 -0.8885  0.3456 -0.9146
  455MOL0     H61374   5.343   9.615   2.958 -0.4194  0.8882 -0.6511
  455MOL0     H61375   5.428   9.658   2.804  2.3676 -0.3297 -0.0072
  455MOL0     H61376   5.618   9.892   2.863  2.9338 -0.7112 -0.8647
  455MOL0     H61377   5.806   9.996   3.022 -0.9511  0.0640  0.3145
  455MOL0     H61378   5.860   9.889   3.156  3.4276 -4.2831 -0.6421
  455MOL0     H61379   5.936   9.717   2.995 -0.0260 -0.1458 -0.8675
  455MOL0     H61380   5.898   9.840   2.873  0.2741  0.3843  0.3662
  455MOL0     H61381   6.071   9.900   3.110  0.2574 -1.4030 -0.0727
  455MOL0     H61382   6.068   9.984   2.952  1.1135 -0.8278 -2.9692
  455MOL0     H61383   6.155   9.784   2.845  0.0570  1.7711 -0.5581
  455MOL0     H61384   6.163   9.691   2.990  2.7882 -1.0559 -2.8954
  455MOL0     H61385   6.518   9.904   3.093  0.2071  0.2265  0.1948
  455MOL0     H61386   6.728   9.788   3.071 -1.1432 -1.8455  1.3069
  455MOL0     H61387   7.002   9.511   2.721 -1.3706  1.8377  1.0541
  455MOL0     H61388   7.230   9.456   2.694 -2.8833  1.3534 -0.5697
  455MOL0     H61389   7.447   9.293   2.797  1.4120 -0.2441 -0.6198
  455MOL0     H61390   7.452   9.439   2.702  3.7355  0.7658 -1.7664
  455MOL0     H61391   7.670   9.498   2.844 -1.0646  1.0525 -0.9540
  455MOL0     H61392   7.657   9.336   2.901 -1.7832  1.7462  2.8990
  455MOL0     H61393   7.667   9.267   2.650 -0.8891 -1.8229  5.5295
  455MOL0     H61394   7.682   9.445   2.614 -2.0512  0.7020  1.0758
  455MOL0     H61395   7.887   9.318   2.790 -3.9974 -2.0678  0.3466
  455MOL0     H61396   7.902   9.465   2.701  2.9142 -0.4208  0.3482
  455MOL0     H61397   7.868   9.314   2.489 -1.8885  0.4716  0.5815
  455MOL0     H61398   7.912   9.189   2.600 -1.1662  1.1110  2.4168
  455MOL0     H61399   8.085   9.443   2.550  0.0290 -0.7396 -1.3065
  455MOL0     H61400   8.138   9.314   2.654 -0.8038 -1.0403  0.4805
  455MOL0     H61401   8.256   9.284   2.454 -0.3774  1.7060  1.3039
  455MOL0     H61402   8.106   9.300   2.356 -2.1079  1.9220  0.7792
  455MOL0     H61403   8.027   9.079   2.442  0.6623  0.4463 -1.7086
  455MOL0     H61404   8.194   9.072   2.383  3.0376 -0.4387  3.0684
  455MOL0     H61405   7.306   9.541   3.107 -1.5338  0.6463  1.4735
  455MOL0     H61406   7.065   9.611   3.135 -4.3977  0.5427 -1.5818
  455MOL0     H61407   6.545   9.515   2.786 -2.5332  1.5977 -1.1334
  455MOL0     H61408   6.333   9.632   2.810  1.1398  0.2768 -0.0698
  455MOL0     H61409   4.549   9.827   2.136 -0.9168  2.3345  0.9111
  455MOL0     H61410   4.409   9.617   2.098 -0.7060  0.7997  0.0776
  455MOL0     H61411   4.267   9.204   2.254  0.2158 -1.3532 -0.2146
  455MOL0     H61412   4.149   8.984   2.272 -0.7578 -0.2383 -1.2247
  455MOL0     H61413   3.714   8.841   2.262  0.7255 -1.9043  2.4845
  455MOL0     H61414   3.700   9.011   2.277 -0.9203 -1.5513 -0.6788
  455MOL0     H61415   3.675   8.908   2.486  0.6843  1.2705  2.9524
  455MOL0     H61416   3.816   9.001   2.501  1.0412 -2.3922  3.4980
  455MOL0     H61417   3.916   8.742   2.419 -1.0914  0.7818 -0.6622
  455MOL0     H61418   3.784   8.722   2.526  0.9937 -1.7137 -0.8513
  455MOL0     H61419   3.879   8.857   2.696 -0.0943 -1.0024  0.2874
  455MOL0     H61420   3.995   8.732   2.649 -0.1334 -0.9959 -0.4044
  455MOL0     H61421   4.245   9.043   2.571 -0.6542  1.4963 -0.8481
  455MOL0     H61422   3.776   9.183   2.197 -0.4262  2.6204 -0.6231
  455MOL0     H61423   3.756   9.414   2.186  0.1292 -1.6602 -1.5489
  455MOL0     H61424   3.868   9.520   2.254 -2.9368  2.0979 -1.5596
  455MOL0     H61425   3.881   9.481   2.080  2.3946 -2.7367 -0.7290
  456MOL0     O61426   0.523   4.494   4.873  0.5568 -0.1610 -0.0181
  456MOL0     C61427   0.430   4.502   4.950 -0.6051 -0.4960  0.2081
  456MOL0     O61428   0.441   4.504   5.088 -0.9348 -0.3484  0.0168
  456MOL0     C61429   0.567   4.484   5.130 -0.0667  0.2931 -0.3236
  456MOL0     C61430   0.664   4.590   5.129  0.5204  1.2529 -0.1833
  456MOL0     C61431   0.784   4.576   5.188 -0.2516  0.0833  0.7589
  456MOL0     C61432   0.827   4.461   5.240 -0.0992  0.4937 -0.4045
  456MOL0     O61433   0.956   4.457   5.291  0.2012 -0.3580  0.3307
  456MOL0     C61434   1.012   4.353   5.374  0.6352  0.5377 -0.3643
  456MOL0     C61435   1.133   4.390   5.462  0.5134  0.4388  0.6583
  456MOL0     C61436   1.248   4.469   5.385  0.1178  0.4802 -0.2538
  456MOL0     C61437   1.373   4.466   5.477 -0.4227  0.5176  0.4207
  456MOL0     C61438   1.484   4.559   5.424  0.6666  0.7027 -0.0462
  456MOL0     C61439   1.618   4.552   5.501 -1.0051 -0.4426  0.6544
  456MOL0     C61440   1.729   4.637   5.440 -0.4756  0.2903  0.1323
  456MOL0     C61441   1.857   4.625   5.525  0.8480  0.2957  0.8023
  456MOL0     N61442   1.950   4.716   5.463 -0.0267  0.5657 -0.2703
  456MOL0     C61443   2.019   4.691   5.351  0.2481 -0.4693  1.2386
  456MOL0     C61444   2.079   4.808   5.314 -0.1092 -0.1387  0.0533
  456MOL0     C61445   2.174   4.821   5.202  0.2343 -0.0917  0.0052
  456MOL0     C61446   2.313   4.842   5.265  0.2665  0.4769  0.1097
  456MOL0     C61447   2.348   4.730   5.370 -0.0278 -0.1809 -0.3102
  456MOL0     C61448   2.355   4.586   5.312  0.4108 -0.1312 -0.2519
  456MOL0     O61449   2.392   4.588   5.167  0.2088 -0.0479 -0.0365
  456MOL0     C61450   2.523   4.589   5.124 -0.3330 -0.1901 -0.2641
  456MOL0     C61451   2.545   4.639   4.994  0.4351  0.0625  0.0196
  456MOL0     C61452   2.673   4.648   4.947  0.3703  0.0478 -0.0359
  456MOL0     C61453   2.780   4.595   5.020 -0.1913  0.1879  0.1629
  456MOL0     C61454   2.919   4.585   4.971 -0.3002  0.3947 -0.1186
  456MOL0     O61455   2.966   4.669   4.875 -0.5661 -0.1591  0.1655
  456MOL0     C61456   3.098   4.655   4.831 -0.0625 -0.1392  0.1650
  456MOL0     C61457   3.206   4.724   4.880 -0.2970  0.9003  0.7259
  456MOL0     C61458   3.339   4.706   4.835 -0.0131  0.3188  0.1519
  456MOL0     C61459   3.360   4.624   4.728 -0.3175 -0.1137  0.8969
  456MOL0     O61460   3.483   4.596   4.675 -0.1894  0.3362 -0.0440
  456MOL0     C61461   3.558   4.682   4.594 -0.4948  0.3426  0.2954
  456MOL0     C61462   3.683   4.614   4.551 -0.4669 -0.1576 -0.4641
  456MOL0     C61463   3.798   4.714   4.516  0.7922  0.4146  0.3093
  456MOL0     C61464   3.907   4.651   4.431  0.3291 -0.3946  0.3285
  456MOL0     C61465   3.992   4.761   4.373  0.3849 -0.2784  0.1587
  456MOL0     C61466   4.094   4.714   4.262 -0.4022  0.9452 -0.1038
  456MOL0     C61467   4.190   4.837   4.217 -0.1049 -0.7536 -0.0032
  456MOL0     C61468   4.326   4.785   4.170  0.1362 -0.5724 -0.1700
  456MOL0    Cl61469   4.296   4.644   4.072  0.5790 -0.1073 -0.0872
  456MOL0     C61470   3.240   4.558   4.675 -0.2054  0.0769 -0.1031
  456MOL0     C61471   3.115   4.572   4.724  0.5373  0.4845  0.1917
  456MOL0     O61472   2.987   4.488   5.008  0.3016  0.4262 -0.1061
  456MOL0     C61473   2.755   4.547   5.148  0.1434  0.1873 -0.9451
  456MOL0     C61474   2.626   4.547   5.197  0.4081 -0.3291 -1.3196
  456MOL0     N61475   2.035   4.902   5.401 -0.3451 -0.8685 -0.4696
  456MOL0     N61476   1.960   4.847   5.491 -0.5752  0.1749 -0.2607
  456MOL0     C61477   0.737   4.353   5.251  0.7465 -0.3507  0.0823
  456MOL0     C61478   0.605   4.362   5.194 -0.2270  0.1054  0.2871
  456MOL0     C61479   0.291   4.522   4.900 -0.4971  0.1891 -0.1936
  456MOL0     C61480   0.192   4.532   4.995 -0.0896 -0.1109 -0.1328
  456MOL0     C61481   0.060   4.560   4.973 -0.4509 -0.4453  0.2181
  456MOL0     C61482   0.024   4.593   4.838 -0.1903 -0.4956 -0.1364
  456MOL0     O61483  -0.102   4.625   4.784 -0.3156  0.1560 -0.7180
  456MOL0     C61484  -0.209   4.612   4.882  0.1920 -0.7794  0.0713
  456MOL0     C61485  -0.209   4.731   4.979 -0.5563  0.6234  0.2896
  456MOL0     C61486  -0.195   4.871   4.920  0.6647 -0.2126 -0.1892
  456MOL0     C61487  -0.218   4.974   5.030  0.7603 -0.1247 -0.6111
  456MOL0     C61488  -0.242   5.102   4.956  0.8301 -0.0845 -0.4589
  456MOL0     C61489  -0.251   5.192   4.876 -1.1596  0.3529  0.3215
  456MOL0     C61490   0.121   4.594   4.739  0.3578  0.1597 -0.0529
  456MOL0     C61491   0.251   4.541   4.763 -0.0930  1.0344  0.0093
  456MOL0     C61492   0.346   4.529   4.638 -0.3475 -1.1011 -0.4041
  456MOL0     H61493   0.633   4.677   5.073 -0.8461  0.7534 -0.2560
  456MOL0     H61494   0.844   4.666   5.185  0.4016 -0.3632 -1.3624
  456MOL0     H61495   0.939   4.328   5.452  2.5303 -1.7787  0.7930
  456MOL0     H61496   1.034   4.262   5.318 -0.1320 -0.2889  0.6248
  456MOL0     H61497   1.170   4.305   5.519  0.0853  0.8926  1.6284
  456MOL0     H61498   1.093   4.467   5.528 -1.3662  0.5746 -0.5723
  456MOL0     H61499   1.218   4.573   5.369 -0.1869  0.7753  1.9061
  456MOL0     H61500   1.274   4.413   5.295  0.3515 -0.3899  0.3377
  456MOL0     H61501   1.347   4.506   5.575  2.3920  1.3118  0.9236
  456MOL0     H61502   1.406   4.362   5.487 -2.4423 -0.2409 -0.2599
  456MOL0     H61503   1.498   4.525   5.321  1.9285 -1.4581  0.7851
  456MOL0     H61504   1.456   4.665   5.427 -0.5176  0.3828  1.1504
  456MOL0     H61505   1.599   4.590   5.601 -2.1805 -1.8375  1.0015
  456MOL0     H61506   1.647   4.450   5.525 -0.2963 -0.8816 -1.7555
  456MOL0     H61507   1.699   4.742   5.434 -2.5818 -0.0268  3.2015
  456MOL0     H61508   1.745   4.587   5.343  1.2172 -2.3020  1.6267
  456MOL0     H61509   1.841   4.645   5.631  0.9168  0.2460  0.8224
  456MOL0     H61510   1.883   4.519   5.521 -0.4664 -0.1642  2.8746
  456MOL0     H61511   2.028   4.596   5.299 -0.4729 -1.3848  2.7143
  456MOL0     H61512   2.185   4.725   5.151  0.5430  0.2096 -0.5006
  456MOL0     H61513   2.147   4.901   5.132  0.2140  0.8409  1.0570
  456MOL0     H61514   2.383   4.824   5.183  1.3566 -0.6117  1.2124
  456MOL0     H61515   2.328   4.946   5.294 -0.3371  0.9986 -1.4141
  456MOL0     H61516   2.282   4.733   5.457 -0.3472 -0.6336 -0.5330
  456MOL0     H61517   2.451   4.756   5.395  0.1480 -0.8022 -0.3796
  456MOL0     H61518   2.263   4.528   5.321 -0.6707  1.1862 -1.9864
  456MOL0     H61519   2.415   4.520   5.374 -0.2090 -2.0725 -1.6004
  456MOL0     H61520   2.468   4.676   4.927  1.5794  1.6629 -0.4649
  456MOL0     H61521   2.683   4.697   4.850 -3.1948  1.4089  0.1400
  456MOL0     H61522   3.200   4.798   4.960 -0.1823 -0.9726  2.5530
  456MOL0     H61523   3.420   4.761   4.882 -2.6632  3.9783  0.8472
  456MOL0     H61524   3.505   4.717   4.505  3.7386  0.2000 -2.5586
  456MOL0     H61525   3.602   4.762   4.655 -0.3916 -1.0676  2.1362
  456MOL0     H61526   3.730   4.540   4.617  1.5500  0.5061 -1.0840
  456MOL0     H61527   3.656   4.561   4.460 -2.6561 -1.2879  0.7556
  456MOL0     H61528   3.759   4.797   4.456  4.4560  1.2437 -1.1342
  456MOL0     H61529   3.844   4.748   4.609  0.5355 -3.3512  1.9851
  456MOL0     H61530   3.860   4.601   4.346 -2.3270 -1.8171  2.4420
  456MOL0     H61531   3.972   4.579   4.482 -0.3452 -0.2263  1.4689
  456MOL0     H61532   4.050   4.804   4.455 -2.5626  0.1325  2.1606
  456MOL0     H61533   3.938   4.843   4.325  0.1726  0.2962  1.3628
  456MOL0     H61534   4.149   4.627   4.298 -0.6079  0.8911  0.0847
  456MOL0     H61535   4.037   4.682   4.173 -0.0089 -2.5974  0.7468
  456MOL0     H61536   4.203   4.900   4.305  1.3054  2.5567 -2.3951
  456MOL0     H61537   4.149   4.896   4.135  3.1318 -0.6492 -1.7121
  456MOL0     H61538   4.362   4.872   4.115  0.1112 -0.3421  0.1815
  456MOL0     H61539   4.393   4.766   4.254 -1.0475 -1.9127  0.5369
  456MOL0     H61540   3.253   4.487   4.595  1.2929 -0.2826  0.4298
  456MOL0     H61541   3.035   4.518   4.673  0.0968  0.5777  0.7752
  456MOL0     H61542   2.834   4.488   5.194  0.9047  0.5494 -1.7664
  456MOL0     H61543   2.621   4.502   5.296  0.6209 -0.1790 -1.2402
  456MOL0     H61544   0.772   4.257   5.287  2.2284 -0.0950 -0.5868
  456MOL0     H61545   0.535   4.279   5.202  0.2503 -0.1477  2.4161
  456MOL0     H61546   0.223   4.514   5.098  0.2439 -0.4389 -0.2876
  456MOL0     H61547  -0.013   4.553   5.053  0.9375 -0.0859  1.5645
  456MOL0     H61548  -0.213   4.511   4.926 -2.3290 -1.4972 -1.5988
  456MOL0     H61549  -0.299   4.623   4.821  0.9030 -0.9658 -1.0270
  456MOL0     H61550  -0.134   4.715   5.056  1.7686 -0.3746 -2.0393
  456MOL0     H61551  -0.312   4.728   5.016 -0.9866 -2.3844 -0.8938
  456MOL0     H61552  -0.267   4.880   4.838  0.3169 -3.4348 -0.3758
  456MOL0     H61553  -0.092   4.885   4.884  0.5592  4.7959  0.7045
  456MOL0     H61554  -0.310   4.955   5.086  0.4515 -0.6894 -1.2917
  456MOL0     H61555  -0.134   4.982   5.100  0.7828  2.2559 -0.8358
  456MOL0     H61556  -0.252   5.270   4.802 -2.3709  1.5967  1.5705
  456MOL0     H61557   0.093   4.605   4.634 -0.9185  0.1085  0.2643
  456MOL0     H61558   0.385   4.630   4.624  1.4591 -1.7908 -0.5272
  456MOL0     H61559   0.435   4.468   4.649 -0.3419 -1.0935 -0.4069
  456MOL0     H61560   0.294   4.501   4.546  0.6947 -1.1290 -0.9939
  457MOL0     O61561   0.376   5.065   1.663  0.0739  0.1063  0.3250
  457MOL0     C61562   0.376   5.143   1.758  0.5645 -1.2455 -0.0384
  457MOL0     O61563   0.469   5.245   1.779  0.4701 -0.4928 -0.3203
  457MOL0     C61564   0.572   5.255   1.693 -0.8370  0.1256 -1.2958
  457MOL0     C61565   0.698   5.203   1.732 -0.9586 -0.5565  0.0950
  457MOL0     C61566   0.798   5.218   1.638  0.3265 -0.0841 -0.1034
  457MOL0     C61567   0.781   5.276   1.512 -0.0226  0.4531  0.2730
  457MOL0     O61568   0.897   5.292   1.431 -0.2881  0.4190  0.3038
  457MOL0     C61569   0.926   5.180   1.352 -0.1306 -0.2739  0.3081
  457MOL0     C61570   1.044   5.113   1.406  0.2786  0.2683 -0.6839
  457MOL0     C61571   1.172   5.206   1.395  0.0922  0.2689 -0.6882
  457MOL0     C61572   1.277   5.131   1.475  0.2578  0.0049 -0.4128
  457MOL0     C61573   1.412   5.195   1.481 -0.0748 -0.0750 -0.1018
  457MOL0     C61574   1.486   5.191   1.352 -0.2613  0.2607  0.9358
  457MOL0     C61575   1.631   5.212   1.371  0.2525 -0.0477 -0.0794
  457MOL0     C61576   1.717   5.203   1.249  0.9016 -0.8578 -0.3881
  457MOL0     N61577   1.853   5.235   1.261  0.5815 -0.1077 -0.5048
  457MOL0     C61578   1.904   5.353   1.303  0.4756  0.0912 -0.3105
  457MOL0     C61579   2.030   5.351   1.278 -0.5229  0.4026  0.3054
  457MOL0     C61580   2.130   5.458   1.299 -0.3689 -0.3709  0.0124
  457MOL0     C61581   2.218   5.424   1.422 -0.5256 -0.1756 -0.6066
  457MOL0     C61582   2.322   5.320   1.389 -0.2004  0.3611 -0.2644
  457MOL0     C61583   2.439   5.331   1.476  0.0739 -0.3098  0.0460
  457MOL0     O61584   2.536   5.416   1.409  0.6284 -0.5999 -0.2726
  457MOL0     C61585   2.669   5.412   1.443  0.7155 -0.2145  0.1709
  457MOL0     C61586   2.728   5.337   1.548 -0.0761  0.3012 -0.7449
  457MOL0     C61587   2.860   5.359   1.576 -0.6392  0.1750 -0.0869
  457MOL0     C61588   2.948   5.426   1.501  0.2631 -0.0523  0.3238
  457MOL0     C61589   3.098   5.428   1.527 -0.6032 -0.2866  0.0867
  457MOL0     O61590   3.146   5.330   1.615  0.0681 -0.1021  0.0955
  457MOL0     C61591   3.281   5.336   1.631 -0.0837  0.2574 -0.3296
  457MOL0     C61592   3.341   5.418   1.723 -0.1733 -0.2548  0.3276
  457MOL0     C61593   3.478   5.423   1.725 -0.4405  0.0718  0.1876
  457MOL0     C61594   3.562   5.345   1.631  0.0519  0.4661  0.1914
  457MOL0     O61595   3.700   5.364   1.615 -0.6669  0.1815 -0.2519
  457MOL0     C61596   3.751   5.481   1.677  0.7989  0.8638 -0.0521
  457MOL0     C61597   3.902   5.490   1.630 -0.2877  0.2858  0.5539
  457MOL0     C61598   3.966   5.630   1.648 -0.1383 -0.3044  0.6706
  457MOL0     C61599   4.005   5.671   1.789  0.0445  0.1105  0.1858
  457MOL0     C61600   4.074   5.809   1.794 -0.0258 -0.1546  0.5278
  457MOL0     C61601   4.067   5.863   1.942 -0.0835  0.0662 -0.1496
  457MOL0     C61602   4.122   6.009   1.943 -0.2087  0.4662 -0.1100
  457MOL0     C61603   4.130   6.075   2.086  0.4235  0.8822 -0.8332
  457MOL0    Cl61604   3.965   6.079   2.152  0.1204  0.4433  0.0058
  457MOL0     C61605   3.497   5.260   1.538 -0.1560 -0.4049  0.9102
  457MOL0     C61606   3.354   5.252   1.545 -0.5327  0.8562 -0.0050
  457MOL0     O61607   3.163   5.501   1.454 -0.7318  0.3239  0.3403
  457MOL0     C61608   2.886   5.495   1.392  0.2455 -0.5227 -0.6814
  457MOL0     C61609   2.752   5.489   1.365  0.6883 -0.5302  0.0556
  457MOL0     N61610   2.056   5.230   1.210 -0.3104  0.5855 -0.7530
  457MOL0     N61611   1.948   5.162   1.205  0.6554  0.3379  0.1134
  457MOL0     C61612   0.658   5.328   1.475 -1.1819 -0.2881 -1.3916
  457MOL0     C61613   0.560   5.313   1.566  0.1172  0.4372  0.4536
  457MOL0     C61614   0.258   5.123   1.852 -0.3008 -0.2320 -0.2360
  457MOL0     C61615   0.230   4.993   1.901 -0.1306 -0.2042  0.3877
  457MOL0     C61616   0.120   4.961   1.986 -0.3583  0.6055  0.7970
  457MOL0     C61617   0.029   5.056   2.024 -0.4263 -0.3900  0.0624
  457MOL0     O61618  -0.074   5.037   2.112 -0.6025  0.4086 -0.3518
  457MOL0     C61619  -0.098   4.913   2.171 -0.5080 -0.2039  0.0050
  457MOL0     C61620  -0.185   4.915   2.294 -0.6890 -0.7532  0.2458
  457MOL0     C61621  -0.105   4.977   2.412  0.9589  0.0545  0.6448
  457MOL0     C61622  -0.200   4.999   2.529  0.4983 -0.8148  0.6576
  457MOL0     C61623  -0.129   5.078   2.633  0.5693 -0.7037 -0.7129
  457MOL0     C61624  -0.090   5.143   2.733  0.1614  0.4733  1.3711
  457MOL0     C61625   0.056   5.187   1.977 -0.4017  0.0141 -0.5921
  457MOL0     C61626   0.165   5.224   1.898  0.1098  0.2693  0.4160
  457MOL0     C61627   0.181   5.361   1.859  0.3090 -1.6316 -0.2818
  457MOL0     H61628   0.727   5.158   1.826  0.8779 -2.8998 -1.4953
  457MOL0     H61629   0.893   5.178   1.672  1.7776  2.4697 -0.9677
  457MOL0     H61630   0.841   5.112   1.348  1.7251 -2.7636  0.5826
  457MOL0     H61631   0.949   5.211   1.249 -0.8769  1.1916  0.5599
  457MOL0     H61632   1.076   5.022   1.354 -0.8408 -0.4180 -0.2008
  457MOL0     H61633   1.015   5.075   1.504  0.6987  3.7140  0.9302
  457MOL0     H61634   1.145   5.306   1.428 -2.2463 -1.8330  5.2953
  457MOL0     H61635   1.211   5.192   1.294  2.7712  0.5325  0.2425
  457MOL0     H61636   1.246   5.122   1.579  1.4272 -1.1026 -0.1513
  457MOL0     H61637   1.295   5.032   1.433 -0.5308 -1.2784  2.1041
  457MOL0     H61638   1.405   5.299   1.512 -1.6144 -0.1858  0.0271
  457MOL0     H61639   1.465   5.138   1.558 -1.1295  0.5038  1.0803
  457MOL0     H61640   1.469   5.095   1.302 -0.7389  0.5497  0.5340
  457MOL0     H61641   1.442   5.265   1.284  1.1792  0.6285  0.3795
  457MOL0     H61642   1.669   5.131   1.435 -1.1079  0.6272  1.6849
  457MOL0     H61643   1.651   5.309   1.417  0.5517 -0.1419 -0.0095
  457MOL0     H61644   1.701   5.098   1.221 -1.5848 -0.3604 -0.9854
  457MOL0     H61645   1.673   5.267   1.173 -0.9472 -0.7893  0.6922
  457MOL0     H61646   1.851   5.439   1.343  0.3218 -1.2555  2.6428
  457MOL0     H61647   2.192   5.482   1.212 -0.3612  0.2414  0.1821
  457MOL0     H61648   2.071   5.547   1.323 -0.2121 -1.1158  3.6583
  457MOL0     H61649   2.268   5.515   1.455 -0.5747  0.7081 -2.7876
  457MOL0     H61650   2.153   5.390   1.503 -2.7349  3.4468 -0.6158
  457MOL0     H61651   2.359   5.333   1.287  2.2733  0.6733  0.6062
  457MOL0     H61652   2.285   5.218   1.399 -1.8993  1.0999  1.6241
  457MOL0     H61653   2.478   5.238   1.517  0.7745  0.0895  0.2969
  457MOL0     H61654   2.398   5.382   1.564  0.4045 -1.6418  0.9935
  457MOL0     H61655   2.673   5.289   1.629 -0.2865 -2.1470 -2.2269
  457MOL0     H61656   2.913   5.300   1.651 -0.5056 -0.2543 -0.5124
  457MOL0     H61657   3.279   5.479   1.787 -0.2344  1.0308 -0.8970
  457MOL0     H61658   3.524   5.491   1.797 -1.1629  1.2845 -0.4717
  457MOL0     H61659   3.698   5.572   1.646  1.1467  0.7746 -0.9415
  457MOL0     H61660   3.745   5.465   1.785 -1.8608 -0.1162 -0.2795
  457MOL0     H61661   3.975   5.425   1.680  1.6453  1.1608 -1.0044
  457MOL0     H61662   3.901   5.458   1.526 -1.5919  0.0201  0.6395
  457MOL0     H61663   4.062   5.618   1.597 -0.1074 -2.3992  1.1452
  457MOL0     H61664   3.910   5.709   1.596 -0.2219 -0.2588  0.8292
  457MOL0     H61665   4.074   5.596   1.829 -1.8579 -1.1361  1.2896
  457MOL0     H61666   3.919   5.667   1.857  1.9403 -0.2550  2.7133
  457MOL0     H61667   4.025   5.883   1.730  1.8779 -0.3297 -1.2674
  457MOL0     H61668   4.174   5.791   1.751 -0.8339 -3.5629 -0.2047
  457MOL0     H61669   3.961   5.868   1.967  0.0287  0.8298  0.2213
  457MOL0     H61670   4.122   5.794   2.006 -3.2513 -2.8863 -0.3623
  457MOL0     H61671   4.056   6.067   1.878  0.1654 -3.1069 -4.1153
  457MOL0     H61672   4.226   6.013   1.909  0.5633 -0.3365  1.9392
  457MOL0     H61673   4.190   6.006   2.146  0.1005  0.6553 -0.7665
  457MOL0     H61674   4.177   6.173   2.078  0.3768  1.0693  0.7997
  457MOL0     H61675   3.550   5.203   1.462 -1.0704 -0.0682 -0.0089
  457MOL0     H61676   3.289   5.193   1.482 -0.7189  1.4307 -0.3690
  457MOL0     H61677   2.952   5.566   1.344 -0.8634  1.7889  0.9949
  457MOL0     H61678   2.717   5.552   1.284 -1.9216 -2.2014 -0.2252
  457MOL0     H61679   0.631   5.364   1.376  0.6277  0.3233 -1.6898
  457MOL0     H61680   0.464   5.351   1.530 -0.4996 -0.8991  0.6487
  457MOL0     H61681   0.303   4.920   1.867 -0.5681 -1.0228  1.1630
  457MOL0     H61682   0.112   4.860   2.025 -0.5725 -0.3554 -1.6048
  457MOL0     H61683  -0.000   4.877   2.205 -0.2117  0.0486 -0.5679
  457MOL0     H61684  -0.133   4.847   2.091  1.6455 -0.8010 -0.5196
  457MOL0     H61685  -0.233   4.819   2.313 -0.7763 -1.1140 -1.5694
  457MOL0     H61686  -0.269   4.983   2.277 -0.1602 -0.4721 -1.4292
  457MOL0     H61687  -0.070   5.076   2.382 -0.6011  0.3479 -0.3423
  457MOL0     H61688  -0.025   4.917   2.457  1.1292  1.8527  2.9392
  457MOL0     H61689  -0.282   5.061   2.492  1.0157 -2.1343 -3.2090
  457MOL0     H61690  -0.232   4.905   2.575 -1.7684 -0.9152 -0.9415
  457MOL0     H61691  -0.051   5.185   2.823 -0.0131 -0.3627  1.8494
  457MOL0     H61692  -0.019   5.262   2.000 -0.7007 -0.8518  1.3951
  457MOL0     H61693   0.210   5.372   1.754 -1.7027  0.6226 -0.6993
  457MOL0     H61694   0.091   5.422   1.869  1.5186  0.1967  0.0313
  457MOL0     H61695   0.265   5.394   1.920  0.0620 -2.1853  0.3625
  458MOL0     O61696  10.089   1.962   7.310  0.1244  0.1329  0.5032
  458MOL0     C61697  10.068   1.879   7.405  0.1948 -0.0928 -0.0233
  458MOL0     O61698  10.166   1.813   7.485 -0.1455 -0.4918 -0.6489
  458MOL0     C61699  10.301   1.835   7.462 -0.4038 -0.0691  0.5271
  458MOL0     C61700  10.368   1.839   7.341  1.0008 -0.3484 -0.8818
  458MOL0     C61701  10.503   1.863   7.341 -0.6545  0.7764 -0.4244
  458MOL0     C61702  10.582   1.881   7.455  0.2034  0.5240 -0.4421
  458MOL0     O61703  10.717   1.909   7.436  0.0818 -0.1683  0.2584
  458MOL0     C61704  10.809   1.891   7.542  0.1966  0.4049 -0.0223
  458MOL0     C61705  10.949   1.877   7.479 -0.4151  0.2555  0.0994
  458MOL0     C61706  11.031   1.760   7.537 -1.0424  0.7323 -0.6023
  458MOL0     C61707  11.173   1.746   7.477 -0.2481  0.3301  0.2941
  458MOL0     C61708  11.241   1.603   7.511  0.2559 -0.7822  0.3105
  458MOL0     C61709  11.353   1.566   7.414 -0.8073 -1.1011 -0.1984
  458MOL0     C61710  11.429   1.436   7.450 -0.6245 -0.8934 -0.5370
  458MOL0     C61711  11.348   1.316   7.408 -0.1979  0.0091  0.4682
  458MOL0     N61712  11.412   1.195   7.450  0.3109  0.2653 -0.9356
  458MOL0     C61713  11.508   1.136   7.371  0.0421 -0.2832  0.6784
  458MOL0     C61714  11.571   1.062   7.468  0.5671  0.2361 -1.0623
  458MOL0     C61715  11.701   1.005   7.435 -0.8638  1.3191 -0.0908
  458MOL0     C61716  11.695   0.882   7.349 -0.2790  0.4039  0.4589
  458MOL0     C61717  11.805   0.778   7.383  0.3334  0.1135  0.1507
  458MOL0     C61718  11.947   0.824   7.361 -0.2761 -0.6588  0.0154
  458MOL0     O61719  12.037   0.750   7.445 -0.8762  0.0384 -0.1653
  458MOL0     C61720  12.168   0.806   7.457 -0.1641 -0.0223  0.5386
  458MOL0     C61721  12.253   0.755   7.553  0.0923 -0.2231 -0.4260
  458MOL0     C61722  12.381   0.810   7.572  0.3811 -0.1176 -0.4536
  458MOL0     C61723  12.437   0.900   7.482 -0.2660 -0.3119  0.1898
  458MOL0     C61724  12.571   0.964   7.507 -0.3414  0.5192 -0.3554
  458MOL0     O61725  12.594   1.083   7.443  0.0741  0.2745  0.7736
  458MOL0     C61726  12.718   1.143   7.459 -0.6060 -0.4037 -0.7033
  458MOL0     C61727  12.846   1.076   7.482 -0.5886 -0.3891  0.1479
  458MOL0     C61728  12.968   1.152   7.482  0.2805  0.2856  0.1257
  458MOL0     C61729  12.959   1.288   7.480  0.4938 -0.3338  0.7605
  458MOL0     O61730  13.066   1.365   7.463  0.0157 -0.6516 -0.5494
  458MOL0     C61731  13.190   1.312   7.506  0.3622 -0.6030 -0.7932
  458MOL0     C61732  13.294   1.422   7.503 -0.0148  0.2919 -0.1762
  458MOL0     C61733  13.316   1.471   7.362 -1.1775 -0.4928  0.1896
  458MOL0     C61734  13.423   1.385   7.293  0.2703  0.4034  0.1528
  458MOL0     C61735  13.423   1.410   7.143  0.0319  0.6812  0.0590
  458MOL0     C61736  13.490   1.543   7.122  1.1032 -0.6913  0.4456
  458MOL0     C61737  13.532   1.570   6.976 -0.3281 -0.2437 -0.7312
  458MOL0     C61738  13.578   1.716   6.970 -1.4209 -0.1238  0.1623
  458MOL0    Cl61739  13.635   1.776   6.808 -0.1251 -0.2276  0.2866
  458MOL0     C61740  12.836   1.350   7.456  0.1305  0.0289 -0.2215
  458MOL0     C61741  12.718   1.284   7.438  0.0791 -0.0996 -0.5768
  458MOL0     O61742  12.647   0.907   7.588  0.5477 -0.2024 -0.5611
  458MOL0     C61743  12.357   0.945   7.368  0.4132  0.5188 -0.0851
  458MOL0     C61744  12.232   0.881   7.355 -0.4576 -0.1688  0.5646
  458MOL0     N61745  11.518   1.065   7.593  0.1721 -0.0539 -0.5537
  458MOL0     N61746  11.409   1.138   7.574 -0.8305 -0.5236 -1.1367
  458MOL0     C61747  10.515   1.885   7.577  0.2219  1.0214 -0.5116
  458MOL0     C61748  10.377   1.857   7.577 -0.2399  1.1149 -0.5497
  458MOL0     C61749   9.928   1.843   7.433  0.3725  0.1541  0.2828
  458MOL0     C61750   9.833   1.922   7.363 -0.1195  0.0851  0.5587
  458MOL0     C61751   9.700   1.899   7.381  0.4743  0.2388  0.6177
  458MOL0     C61752   9.651   1.788   7.452  0.5513  0.3585  0.2008
  458MOL0     O61753   9.516   1.762   7.462 -0.2057  0.0404 -0.0233
  458MOL0     C61754   9.419   1.835   7.392  0.4438 -0.4567  0.5069
  458MOL0     C61755   9.282   1.769   7.416 -0.0051 -0.3598  0.3364
  458MOL0     C61756   9.279   1.628   7.354  0.1758  0.2504  0.0063
  458MOL0     C61757   9.243   1.643   7.206  0.3623  0.6088  0.1815
  458MOL0     C61758   9.227   1.511   7.145 -1.2695  0.0629 -0.4769
  458MOL0     C61759   9.239   1.403   7.085  0.2191 -0.5468  0.4614
  458MOL0     C61760   9.741   1.700   7.501  0.5381 -0.1809 -0.4796
  458MOL0     C61761   9.885   1.727   7.497  0.4624 -0.6591 -0.0166
  458MOL0     C61762   9.963   1.624   7.571 -0.7290  0.7617 -0.1010
  458MOL0     H61763  10.308   1.831   7.252 -0.0416  1.6647 -0.4299
  458MOL0     H61764  10.548   1.850   7.243  2.6804 -1.5108  1.2344
  458MOL0     H61765  10.812   1.970   7.617  0.6234 -0.4160  0.8419
  458MOL0     H61766  10.780   1.798   7.593  0.5685 -2.2545 -4.1284
  458MOL0     H61767  11.008   1.969   7.486 -1.5474  0.9613  0.6293
  458MOL0     H61768  10.931   1.858   7.373 -0.0689 -1.0117  0.2564
  458MOL0     H61769  10.975   1.667   7.525  0.3911 -0.0855 -1.3248
  458MOL0     H61770  11.058   1.770   7.643  0.1595  0.4798 -0.8600
  458MOL0     H61771  11.151   1.758   7.370  0.7421  1.6145  0.2137
  458MOL0     H61772  11.244   1.821   7.511  1.3074 -0.3318 -1.3285
  458MOL0     H61773  11.280   1.620   7.612  2.1730  0.4599 -0.5764
  458MOL0     H61774  11.156   1.536   7.498  0.7021 -1.2867 -0.0393
  458MOL0     H61775  11.331   1.575   7.307  0.9198  2.3814 -0.4198
  458MOL0     H61776  11.425   1.649   7.419 -2.2619  0.1417  1.2450
  458MOL0     H61777  11.447   1.426   7.557 -1.1273 -1.2914 -0.4847
  458MOL0     H61778  11.532   1.429   7.413 -1.0646 -2.3497 -1.5881
  458MOL0     H61779  11.248   1.327   7.451 -0.1372 -1.0904  0.9218
  458MOL0     H61780  11.340   1.311   7.299 -0.9896  0.6673  0.4850
  458MOL0     H61781  11.533   1.151   7.266 -1.7812 -3.7125 -0.4381
  458MOL0     H61782  11.754   1.080   7.376 -1.7428  0.7308 -1.6743
  458MOL0     H61783  11.757   0.992   7.528  0.7836 -1.0217 -1.3266
  458MOL0     H61784  11.594   0.841   7.336 -0.0515  0.1596 -0.6960
  458MOL0     H61785  11.720   0.902   7.244  0.6073 -0.8163  0.4031
  458MOL0     H61786  11.784   0.683   7.332 -0.5764 -0.4128  1.4705
  458MOL0     H61787  11.794   0.758   7.490 -3.7393  1.8067  0.2337
  458MOL0     H61788  11.952   0.931   7.383  0.6785 -0.7177  0.1261
  458MOL0     H61789  11.979   0.809   7.258  2.0223  1.5495  0.2998
  458MOL0     H61790  12.208   0.679   7.618 -1.4085  0.7643 -0.2508
  458MOL0     H61791  12.441   0.786   7.659 -0.8296  1.9405  1.0119
  458MOL0     H61792  12.853   0.968   7.493  0.6752 -0.2348  1.0131
  458MOL0     H61793  13.069   1.114   7.494  1.2181  2.9529  1.4278
  458MOL0     H61794  13.185   1.261   7.603 -1.3960  1.5728  0.3377
  458MOL0     H61795  13.211   1.237   7.429  1.9220 -0.1049 -0.8735
  458MOL0     H61796  13.259   1.506   7.564 -0.1999 -0.9026  1.4415
  458MOL0     H61797  13.385   1.386   7.552  1.7874  2.5449 -1.6488
  458MOL0     H61798  13.221   1.463   7.309 -1.3968  1.2989  0.2570
  458MOL0     H61799  13.337   1.578   7.356 -1.0082 -0.5939 -2.0474
  458MOL0     H61800  13.401   1.279   7.311  0.7120  0.4585  1.0813
  458MOL0     H61801  13.526   1.394   7.331 -0.2917  2.4260  1.3315
  458MOL0     H61802  13.322   1.415   7.103 -0.5613 -1.2974  1.1786
  458MOL0     H61803  13.477   1.330   7.092  0.8144  0.4929  1.1397
  458MOL0     H61804  13.417   1.619   7.149 -0.3685 -2.2356  0.9857
  458MOL0     H61805  13.571   1.561   7.193  3.7958  0.8382 -2.6915
  458MOL0     H61806  13.448   1.564   6.907 -1.5181 -0.6621  0.7065
  458MOL0     H61807  13.609   1.498   6.945  0.9122  0.5361  0.3753
  458MOL0     H61808  13.492   1.782   6.988 -1.9249 -0.6152 -0.4034
  458MOL0     H61809  13.645   1.739   7.053  0.3309 -0.3343 -1.1572
  458MOL0     H61810  12.812   1.453   7.431  0.6933  0.2284  0.0493
  458MOL0     H61811  12.627   1.332   7.404  0.0716  0.7521  0.6024
  458MOL0     H61812  12.389   1.020   7.296 -0.6103  2.7833  1.6999
  458MOL0     H61813  12.175   0.897   7.264 -3.4470  2.5329  2.6719
  458MOL0     H61814  10.568   1.900   7.670 -1.7645  0.4790  0.7877
  458MOL0     H61815  10.328   1.844   7.673 -0.9847  1.4009 -0.8799
  458MOL0     H61816   9.859   2.010   7.306  2.6505 -1.4091 -0.6827
  458MOL0     H61817   9.634   1.969   7.331 -0.2573 -0.4260  0.6311
  458MOL0     H61818   9.435   1.850   7.285  1.0748  2.1498  0.9076
  458MOL0     H61819   9.399   1.934   7.434 -0.7367 -1.4209  2.3819
  458MOL0     H61820   9.197   1.830   7.382  0.2482  1.0076  2.0142
  458MOL0     H61821   9.263   1.754   7.522  0.2552 -0.2764  0.3946
  458MOL0     H61822   9.196   1.574   7.400 -0.4436 -1.0192 -2.4308
  458MOL0     H61823   9.374   1.576   7.366  0.0872 -0.0831 -0.7184
  458MOL0     H61824   9.145   1.692   7.203  0.3310  0.4975 -0.9537
  458MOL0     H61825   9.321   1.700   7.154  0.7417 -0.8144 -0.8814
  458MOL0     H61826   9.268   1.313   7.035 -1.3227 -1.9588  1.9770
  458MOL0     H61827   9.704   1.610   7.549 -1.0482 -0.8002 -2.7128
  458MOL0     H61828   9.978   1.657   7.674 -1.7360  0.2313  0.2369
  458MOL0     H61829   9.912   1.527   7.563 -0.1121  0.4456 -0.2673
  458MOL0     H61830  10.052   1.608   7.509  0.5208  0.6379  1.6577
  459MOL0     O61831   7.008   6.177   1.822 -0.3219 -0.4971 -0.0321
  459MOL0     C61832   6.954   6.264   1.891  0.3232 -0.3015  0.2853
  459MOL0     O61833   7.022   6.355   1.972 -0.0099 -0.3493  0.4098
  459MOL0     C61834   7.154   6.345   1.980  0.7605  1.1248  0.0335
  459MOL0     C61835   7.221   6.229   2.024  0.1087 -0.0771 -0.4859
  459MOL0     C61836   7.358   6.231   2.020 -0.1347  0.6409 -0.4073
  459MOL0     C61837   7.428   6.346   1.977 -1.3747  0.2667  0.1873
  459MOL0     O61838   7.569   6.339   1.977  0.0868  0.3487  0.2191
  459MOL0     C61839   7.637   6.445   1.914  0.0982 -0.0748  0.8154
  459MOL0     C61840   7.776   6.386   1.880  0.0215 -0.3387 -0.2260
  459MOL0     C61841   7.863   6.493   1.814 -0.0754  0.6979 -0.0549
  459MOL0     C61842   8.010   6.439   1.803  0.2750 -0.0871 -0.0576
  459MOL0     C61843   8.086   6.522   1.700  0.3850 -0.1012 -0.0382
  459MOL0     C61844   8.222   6.463   1.676 -0.5270 -0.0710  0.3550
  459MOL0     C61845   8.309   6.437   1.798  0.1354 -0.4667 -0.6922
  459MOL0     C61846   8.366   6.566   1.861  0.3528  0.3682 -0.0764
  459MOL0     N61847   8.464   6.634   1.774  0.1984 -0.1545 -0.2453
  459MOL0     C61848   8.498   6.767   1.797 -0.0001  0.6613 -0.5903
  459MOL0     C61849   8.593   6.798   1.706  1.0373  0.2453  0.4626
  459MOL0     C61850   8.665   6.931   1.701 -0.3615  1.0968  0.3043
  459MOL0     C61851   8.810   6.904   1.713  0.2506 -0.2411  0.7438
  459MOL0     C61852   8.875   7.038   1.692  0.6956 -0.5806 -0.4458
  459MOL0     C61853   9.032   7.041   1.680 -0.0026  0.4813 -0.1884
  459MOL0     O61854   9.069   7.180   1.678  0.6590 -0.3531  0.5425
  459MOL0     C61855   9.187   7.218   1.618  0.7465 -0.1187 -0.4194
  459MOL0     C61856   9.213   7.357   1.619 -0.2268  0.1749 -0.9722
  459MOL0     C61857   9.339   7.407   1.575  0.7420  0.0802 -1.1427
  459MOL0     C61858   9.435   7.321   1.519  0.2684  0.4620 -0.2223
  459MOL0     C61859   9.553   7.378   1.463 -0.4300 -0.3108  0.0732
  459MOL0     O61860   9.652   7.290   1.422  0.8076  0.2378 -0.5915
  459MOL0     C61861   9.756   7.355   1.362 -0.1600 -0.1711  0.4688
  459MOL0     C61862   9.865   7.415   1.425 -0.0656 -0.3624 -0.4827
  459MOL0     C61863   9.960   7.490   1.357  0.1157  0.7160  0.5774
  459MOL0     C61864   9.954   7.492   1.217 -0.4774  0.0546  0.3304
  459MOL0     O61865  10.061   7.542   1.153 -0.1136 -0.1922 -0.0018
  459MOL0     C61866  10.048   7.580   1.015 -0.2812 -1.1397  0.0231
  459MOL0     C61867  10.174   7.664   0.974 -0.0027  0.5881 -1.3592
  459MOL0     C61868  10.301   7.577   0.957  0.1362  0.2339 -0.4805
  459MOL0     C61869  10.423   7.651   0.902 -0.0719 -0.6834  0.0400
  459MOL0     C61870  10.506   7.720   1.018 -0.6092 -0.6951 -0.1868
  459MOL0     C61871  10.613   7.797   0.950  0.2516  0.2767  0.1188
  459MOL0     C61872  10.725   7.849   1.047 -0.7138 -0.1790 -0.1324
  459MOL0     C61873  10.695   7.974   1.127 -0.0010  0.8168 -0.2540
  459MOL0    Cl61874  10.708   8.126   1.024 -0.5451  0.1481  0.2284
  459MOL0     C61875   9.845   7.432   1.156  0.3493  0.6213 -0.7447
  459MOL0     C61876   9.745   7.374   1.227  0.0280 -0.3391  0.2453
  459MOL0     O61877   9.560   7.501   1.451 -0.3052 -0.7762  0.4536
  459MOL0     C61878   9.399   7.182   1.508 -0.3089  0.7612 -0.6967
  459MOL0     C61879   9.279   7.137   1.567  0.4939 -0.4146  0.5993
  459MOL0     N61880   8.607   6.681   1.629  0.3017 -0.4793  0.4335
  459MOL0     N61881   8.546   6.584   1.681  0.6511 -0.2727 -0.0165
  459MOL0     C61882   7.360   6.457   1.933  0.1422  0.2115 -0.5160
  459MOL0     C61883   7.222   6.459   1.943 -0.2560 -0.1892  0.0569
  459MOL0     C61884   6.806   6.267   1.882  0.5369  1.0766  0.0603
  459MOL0     C61885   6.745   6.346   1.981 -0.1692  0.7753  0.1334
  459MOL0     C61886   6.603   6.355   1.995  0.7227  0.3374  0.9416
  459MOL0     C61887   6.515   6.296   1.898  0.7256 -0.3326 -0.5136
  459MOL0     O61888   6.378   6.307   1.901 -1.0664  0.5990 -0.3613
  459MOL0     C61889   6.338   6.432   1.841 -0.1132  0.3078  0.7044
  459MOL0     C61890   6.183   6.451   1.862 -0.2275  0.4071  0.0675
  459MOL0     C61891   6.105   6.363   1.763  0.5424  0.4684 -0.0148
  459MOL0     C61892   5.963   6.395   1.796 -0.0060 -0.0744  0.0865
  459MOL0     C61893   5.861   6.330   1.715 -0.3259  0.0305 -1.2730
  459MOL0     C61894   5.769   6.282   1.651 -0.3789 -0.4435 -0.1173
  459MOL0     C61895   6.579   6.212   1.805 -0.2010 -0.7577 -0.0168
  459MOL0     C61896   6.715   6.191   1.803  0.3462 -0.3206  0.3101
  459MOL0     C61897   6.770   6.097   1.697  0.2503 -0.0511 -0.4524
  459MOL0     H61898   7.157   6.146   2.052 -2.2069  1.6449 -0.3636
  459MOL0     H61899   7.420   6.147   2.051 -0.5676 -0.3531 -2.1283
  459MOL0     H61900   7.597   6.460   1.813 -0.1186 -3.0887  0.3784
  459MOL0     H61901   7.633   6.537   1.974 -0.6282 -0.1957  0.9697
  459MOL0     H61902   7.771   6.297   1.817 -0.7584 -0.4903  0.0482
  459MOL0     H61903   7.816   6.352   1.976  1.1823  0.1315 -0.5156
  459MOL0     H61904   7.870   6.588   1.866 -0.4999 -0.0732  1.4544
  459MOL0     H61905   7.817   6.512   1.716 -3.2821  1.4076  1.4621
  459MOL0     H61906   8.050   6.444   1.905 -1.0885 -0.7648  0.5321
  459MOL0     H61907   8.009   6.334   1.772 -0.1088  0.0126 -0.3869
  459MOL0     H61908   8.021   6.537   1.614 -0.9544  1.1689  1.1401
  459MOL0     H61909   8.100   6.621   1.744  0.7070  0.3403 -1.0962
  459MOL0     H61910   8.196   6.364   1.637 -0.1927  0.2749 -0.7787
  459MOL0     H61911   8.281   6.517   1.601 -2.2564 -2.3112 -2.8565
  459MOL0     H61912   8.395   6.376   1.770  2.6579  2.9131 -1.0322
  459MOL0     H61913   8.250   6.390   1.877 -0.6667  0.9630 -0.3992
  459MOL0     H61914   8.281   6.633   1.880  0.6171  0.0935  2.4348
  459MOL0     H61915   8.418   6.541   1.954  1.6596 -2.4501 -1.4406
  459MOL0     H61916   8.461   6.826   1.880 -0.8335 -2.7676  1.6580
  459MOL0     H61917   8.628   6.975   1.608 -2.5477 -0.4641  0.3420
  459MOL0     H61918   8.648   7.002   1.783  0.9791 -1.4513  2.9485
  459MOL0     H61919   8.817   6.870   1.817 -0.8246  1.1023  1.2926
  459MOL0     H61920   8.833   6.822   1.644  1.4545 -0.5951  1.5352
  459MOL0     H61921   8.859   7.098   1.781  2.4200 -1.4382  0.4941
  459MOL0     H61922   8.833   7.099   1.611  0.8225  0.1511  0.0295
  459MOL0     H61923   9.065   6.976   1.598 -0.2400 -0.5264  0.4938
  459MOL0     H61924   9.066   7.004   1.777 -1.3818 -0.1949  0.0510
  459MOL0     H61925   9.131   7.414   1.661 -0.5172 -0.9762  0.1149
  459MOL0     H61926   9.358   7.514   1.582  1.2093 -0.0213 -0.8018
  459MOL0     H61927   9.860   7.407   1.533  1.1565 -0.9424 -0.4526
  459MOL0     H61928  10.046   7.537   1.403  0.8080  0.5935 -0.5482
  459MOL0     H61929  10.032   7.485   0.962  1.7287 -0.7885 -1.3611
  459MOL0     H61930   9.962   7.646   1.001  1.9614  2.3927  1.6532
  459MOL0     H61931  10.161   7.722   0.882  3.8938  0.9392 -1.8967
  459MOL0     H61932  10.198   7.732   1.057 -1.0473 -0.2516 -0.3449
  459MOL0     H61933  10.332   7.524   1.047  2.3463 -0.2000 -1.4334
  459MOL0     H61934  10.274   7.513   0.872  3.1800  0.1067 -1.4582
  459MOL0     H61935  10.389   7.729   0.834  1.0258 -1.6814 -1.7402
  459MOL0     H61936  10.490   7.585   0.845  1.4629  0.9331 -0.1138
  459MOL0     H61937  10.538   7.650   1.095 -1.8238 -0.5754  0.4592
  459MOL0     H61938  10.441   7.793   1.067  0.5140 -0.6622  1.3074
  459MOL0     H61939  10.663   7.743   0.870 -1.4628 -1.5980  0.2341
  459MOL0     H61940  10.562   7.881   0.902  0.9734  0.8001  0.2451
  459MOL0     H61941  10.815   7.861   0.986  1.8769 -0.6411  3.3126
  459MOL0     H61942  10.747   7.770   1.120  1.2425  0.3404 -0.1216
  459MOL0     H61943  10.597   7.961   1.175  1.5363 -1.1329  2.6770
  459MOL0     H61944  10.764   7.975   1.212 -2.5468  2.4767  1.9682
  459MOL0     H61945   9.836   7.441   1.048  0.3169  1.2035 -0.6939
  459MOL0     H61946   9.656   7.335   1.179  0.0824  0.3791 -0.4595
  459MOL0     H61947   9.473   7.111   1.473  0.7168  0.6567  1.5331
  459MOL0     H61948   9.262   7.030   1.575 -2.9683  0.0436  1.0467
  459MOL0     H61949   7.421   6.542   1.906  0.0032 -0.1437 -2.0035
  459MOL0     H61950   7.174   6.550   1.911  1.8426 -0.2156 -3.6829
  459MOL0     H61951   6.804   6.403   2.052 -0.9619  1.0140  0.6155
  459MOL0     H61952   6.558   6.423   2.067 -2.2489  0.7865 -1.1206
  459MOL0     H61953   6.374   6.441   1.738  0.9817  1.3134  1.1632
  459MOL0     H61954   6.384   6.514   1.896  2.1895  0.6811 -1.6071
  459MOL0     H61955   6.158   6.555   1.840  0.4474  0.3735 -0.8918
  459MOL0     H61956   6.152   6.434   1.966 -1.5408  1.8071 -0.0558
  459MOL0     H61957   6.114   6.255   1.782 -2.1492  0.5533  2.3651
  459MOL0     H61958   6.130   6.397   1.662  2.0924  0.8457  0.4549
  459MOL0     H61959   5.938   6.361   1.897  0.0848 -1.7206 -0.4106
  459MOL0     H61960   5.953   6.504   1.791  1.7281  0.0984 -0.2004
  459MOL0     H61961   5.691   6.249   1.585  0.2735  1.7941 -2.1853
  459MOL0     H61962   6.509   6.151   1.749 -0.9413 -0.1857  0.2689
  459MOL0     H61963   6.693   6.055   1.632 -0.5051 -2.5720  1.8932
  459MOL0     H61964   6.840   6.147   1.630  0.5991  1.5269  1.0114
  459MOL0     H61965   6.811   6.010   1.748 -3.2436 -1.2373  0.5993
  460MOL0     O61966   2.539   5.423   8.612 -0.5133 -0.3195  0.4500
  460MOL0     C61967   2.444   5.413   8.695 -0.9001  0.0771  0.2101
  460MOL0     O61968   2.471   5.363   8.819  0.2771  0.0987  0.0388
  460MOL0     C61969   2.591   5.326   8.835 -0.4390  0.0050  0.0789
  460MOL0     C61970   2.659   5.226   8.766  0.1801 -0.8327 -0.4285
  460MOL0     C61971   2.785   5.181   8.812 -0.3302 -0.0833  0.4258
  460MOL0     C61972   2.859   5.261   8.901  0.1820 -0.1275  0.4507
  460MOL0     O61973   2.977   5.205   8.949  1.4559 -0.2528  0.8534
  460MOL0     C61974   3.097   5.265   8.893  0.4507 -0.6423 -0.0546
  460MOL0     C61975   3.229   5.198   8.948 -0.2485 -0.1851 -0.0285
  460MOL0     C61976   3.246   5.051   8.925 -0.0965  0.1387 -0.2490
  460MOL0     C61977   3.391   5.018   8.918 -0.4204 -0.3004 -0.1208
  460MOL0     C61978   3.399   4.865   8.909  0.1352 -0.1309  1.2882
  460MOL0     C61979   3.547   4.819   8.903 -0.7082 -1.1581 -0.6095
  460MOL0     C61980   3.565   4.671   8.889  0.0806  0.2354  0.3675
  460MOL0     C61981   3.711   4.638   8.909  0.0782  0.7253 -0.0498
  460MOL0     N61982   3.742   4.494   8.900  0.3213  0.7613  0.1482
  460MOL0     C61983   3.865   4.434   8.889 -0.1644  0.3012  0.3305
  460MOL0     C61984   3.848   4.301   8.917 -0.3636 -0.6569 -0.1511
  460MOL0     C61985   3.940   4.189   8.900 -0.9873  0.6531  0.3570
  460MOL0     C61986   4.046   4.195   9.010 -0.1992 -0.2653 -0.5656
  460MOL0     C61987   4.134   4.073   9.029  0.4564  0.1423 -0.0373
  460MOL0     C61988   4.247   4.057   8.918  0.6151  1.0173 -0.1010
  460MOL0     O61989   4.356   4.142   8.945  0.9077 -0.4272 -0.0298
  460MOL0     C61990   4.448   4.158   8.843  0.1329 -0.0510  0.5976
  460MOL0     C61991   4.543   4.256   8.863 -1.2128  0.6166 -0.0010
  460MOL0     C61992   4.648   4.268   8.781 -0.6350  0.5645  0.3099
  460MOL0     C61993   4.680   4.177   8.677 -0.4773  0.2813  1.0386
  460MOL0     C61994   4.804   4.188   8.583  0.3511 -0.4356 -0.0272
  460MOL0     O61995   4.874   4.306   8.564 -0.0344  0.0195 -0.3632
  460MOL0     C61996   4.962   4.331   8.464 -0.4910  0.3968 -0.2881
  460MOL0     C61997   5.042   4.446   8.485 -0.4826  0.7427 -0.1514
  460MOL0     C61998   5.139   4.485   8.390 -0.4370 -0.0327  0.9352
  460MOL0     C61999   5.159   4.403   8.270 -0.2899 -0.0874  0.4730
  460MOL0     O62000   5.260   4.418   8.172  0.1631 -0.8172 -0.5059
  460MOL0     C62001   5.370   4.509   8.193  0.0171  0.7141  1.0146
  460MOL0     C62002   5.466   4.450   8.300 -0.2864  0.0482  0.4971
  460MOL0     C62003   5.588   4.543   8.308 -0.8560  0.0547  0.4234
  460MOL0     C62004   5.668   4.506   8.425 -0.1396 -0.2946  0.2095
  460MOL0     C62005   5.803   4.579   8.436  0.2259  0.0291 -0.4279
  460MOL0     C62006   5.889   4.580   8.312 -0.5841 -0.8033  0.0910
  460MOL0     C62007   6.021   4.658   8.326 -0.1603 -0.3739 -0.1836
  460MOL0     C62008   6.101   4.662   8.196 -0.3514 -0.3958 -0.0130
  460MOL0    Cl62009   6.253   4.748   8.224  0.3146 -0.8481 -0.3170
  460MOL0     C62010   5.076   4.292   8.254 -0.3647  0.7432 -0.1573
  460MOL0     C62011   4.969   4.267   8.337  0.3336  0.1095 -0.0510
  460MOL0     O62012   4.833   4.083   8.529  0.1600  1.4671  0.3504
  460MOL0     C62013   4.581   4.076   8.652 -0.8270  0.0408 -0.9605
  460MOL0     C62014   4.463   4.065   8.726 -0.3059  0.1754 -0.3000
  460MOL0     N62015   3.720   4.277   8.968 -0.5363 -0.3742  0.0715
  460MOL0     N62016   3.659   4.391   8.948  0.5750 -0.1824  0.2865
  460MOL0     C62017   2.799   5.375   8.958  0.0260  0.1713 -1.0401
  460MOL0     C62018   2.662   5.404   8.927 -0.6273  0.4548  0.3490
  460MOL0     C62019   2.304   5.436   8.664 -0.0206  0.5872  0.4882
  460MOL0     C62020   2.207   5.378   8.747 -0.0298  0.5089 -0.7706
  460MOL0     C62021   2.072   5.379   8.722 -0.7870 -0.2615  0.1603
  460MOL0     C62022   2.018   5.447   8.614  0.0517 -0.7754  0.6791
  460MOL0     O62023   1.884   5.449   8.591  0.1241  0.5050 -0.5982
  460MOL0     C62024   1.796   5.369   8.678  0.2013  0.1758 -0.6969
  460MOL0     C62025   1.665   5.358   8.602 -0.6363  0.3112  0.6158
  460MOL0     C62026   1.551   5.278   8.670  0.7091  0.3432  0.1268
  460MOL0     C62027   1.412   5.312   8.603  0.1297 -0.6084 -1.0489
  460MOL0     C62028   1.406   5.257   8.466  1.1275  0.1054 -0.6412
  460MOL0     C62029   1.392   5.216   8.353 -0.0280 -0.0497 -0.3097
  460MOL0     C62030   2.110   5.506   8.524 -0.1597  0.0851 -0.3214
  460MOL0     C62031   2.250   5.502   8.544  0.5964 -0.7923 -0.1590
  460MOL0     C62032   2.335   5.571   8.441 -0.1272  0.2980  0.3315
  460MOL0     H62033   2.593   5.169   8.702 -0.5099  1.2533 -1.6727
  460MOL0     H62034   2.837   5.097   8.766  1.0869  0.2210  1.4034
  460MOL0     H62035   3.094   5.247   8.785  0.7571  1.3679 -0.4315
  460MOL0     H62036   3.083   5.372   8.907  3.4306 -0.3059  1.1400
  460MOL0     H62037   3.242   5.218   9.055 -2.0643 -1.4571  0.4762
  460MOL0     H62038   3.313   5.250   8.901  1.7071 -1.3973  1.9177
  460MOL0     H62039   3.202   5.017   8.831  2.4046 -1.3026 -0.9823
  460MOL0     H62040   3.198   4.994   9.004  0.2209 -2.0952 -1.6001
  460MOL0     H62041   3.436   5.058   8.827  1.0569  1.2645  1.2196
  460MOL0     H62042   3.441   5.056   9.008 -2.1255  0.3937  0.5664
  460MOL0     H62043   3.360   4.820   9.001  2.0045  0.4722  2.4533
  460MOL0     H62044   3.347   4.830   8.820  2.7886  0.2906 -0.5474
  460MOL0     H62045   3.593   4.876   8.821  0.3856 -0.0483  0.7237
  460MOL0     H62046   3.592   4.860   8.994 -0.1237  1.5784 -2.0197
  460MOL0     H62047   3.537   4.643   8.787  2.2678 -1.4844  0.1642
  460MOL0     H62048   3.496   4.619   8.955 -0.5145  1.1266  0.4600
  460MOL0     H62049   3.765   4.704   8.840 -0.2710 -1.2359 -2.3236
  460MOL0     H62050   3.740   4.671   9.010  0.5287  2.6530 -0.7666
  460MOL0     H62051   3.948   4.487   8.845 -1.9719  1.2802 -2.1819
  460MOL0     H62052   3.882   4.096   8.899  0.0596 -0.0054 -0.4407
  460MOL0     H62053   3.991   4.201   8.804  0.1692 -1.0198  0.7265
  460MOL0     H62054   4.109   4.280   8.980  2.1161 -1.3996  0.7815
  460MOL0     H62055   4.003   4.218   9.108 -0.1012  1.6331 -0.9355
  460MOL0     H62056   4.074   3.982   9.025 -0.7521  0.9568 -2.9665
  460MOL0     H62057   4.173   4.080   9.131  1.0161  0.7919 -0.2800
  460MOL0     H62058   4.197   4.083   8.824 -0.8168  0.6872  0.5326
  460MOL0     H62059   4.292   3.957   8.907 -0.6015  0.0213  2.9084
  460MOL0     H62060   4.527   4.335   8.936 -2.1742  0.4325  0.0031
  460MOL0     H62061   4.715   4.353   8.795  1.1169 -0.8411  0.8340
  460MOL0     H62062   5.033   4.510   8.571  1.5463 -0.3793  0.9742
  460MOL0     H62063   5.206   4.566   8.417  2.0732 -2.0277  1.0329
  460MOL0     H62064   5.412   4.519   8.092 -1.3721  0.9239  0.4336
  460MOL0     H62065   5.322   4.600   8.231 -0.8499  1.1394 -0.9372
  460MOL0     H62066   5.417   4.446   8.398 -0.9322  0.2302  0.1908
  460MOL0     H62067   5.500   4.351   8.270 -0.7141 -0.0508  0.3331
  460MOL0     H62068   5.655   4.529   8.222 -0.3142 -1.8117  1.1013
  460MOL0     H62069   5.557   4.648   8.313 -1.9601 -0.0828 -1.9613
  460MOL0     H62070   5.678   4.398   8.439 -0.8661 -0.2847  0.9555
  460MOL0     H62071   5.612   4.547   8.510 -0.6350  2.9461 -1.5286
  460MOL0     H62072   5.866   4.546   8.519  0.9786  1.5572 -0.3504
  460MOL0     H62073   5.791   4.688   8.441 -2.8365 -0.1839 -1.2014
  460MOL0     H62074   5.914   4.477   8.286  1.3360  0.2530 -2.6802
  460MOL0     H62075   5.834   4.626   8.230  0.0613 -0.9762 -0.4499
  460MOL0     H62076   6.086   4.628   8.408 -0.6224 -0.3627  0.1970
  460MOL0     H62077   6.002   4.756   8.370  1.2176 -0.6942  1.2139
  460MOL0     H62078   6.119   4.566   8.146  2.0103 -0.5602  1.0110
  460MOL0     H62079   6.055   4.725   8.119 -1.3288  0.9605  1.6008
  460MOL0     H62080   5.089   4.225   8.170  1.0591  0.6665  0.1032
  460MOL0     H62081   4.908   4.182   8.311 -0.5942  0.0364  2.0912
  460MOL0     H62082   4.597   4.000   8.577  3.3897 -0.6969  0.4003
  460MOL0     H62083   4.396   3.984   8.700 -0.8319  1.6242 -4.1213
  460MOL0     H62084   2.854   5.447   9.019 -1.3859 -0.4551  1.0637
  460MOL0     H62085   2.619   5.494   8.970  3.8788  1.8767  2.4375
  460MOL0     H62086   2.238   5.316   8.830 -2.8474 -1.7278 -1.2394
  460MOL0     H62087   2.010   5.317   8.788  0.6439 -1.8654  0.0703
  460MOL0     H62088   1.770   5.404   8.779  0.0853 -0.5317 -0.4749
  460MOL0     H62089   1.840   5.270   8.689 -0.4103 -0.2528 -1.9279
  460MOL0     H62090   1.683   5.299   8.511 -1.2335  2.2322 -0.8272
  460MOL0     H62091   1.631   5.460   8.580  1.2010  1.3714  2.3057
  460MOL0     H62092   1.547   5.295   8.779  2.8478  0.2344  0.2617
  460MOL0     H62093   1.563   5.171   8.655  1.7446  0.2981  1.1176
  460MOL0     H62094   1.338   5.269   8.671  0.7831  1.2580  0.9653
  460MOL0     H62095   1.393   5.419   8.600  0.8618 -0.3710  0.9899
  460MOL0     H62096   1.395   5.191   8.249  0.6878  0.9327 -0.5402
  460MOL0     H62097   2.071   5.540   8.429  0.7955 -0.2018 -0.8250
  460MOL0     H62098   2.285   5.646   8.380  1.1542  1.8686  1.1259
  460MOL0     H62099   2.418   5.620   8.493  2.2562 -2.0816 -0.9405
  460MOL0     H62100   2.387   5.501   8.374  0.8838 -0.8821  2.2431
  461MOL0     O62101   0.382   8.316   7.737 -0.2016 -0.1063 -0.1868
  461MOL0     C62102   0.352   8.263   7.844  0.2373 -0.5171 -0.0880
  461MOL0     O62103   0.436   8.176   7.916 -0.4300 -0.0121 -0.2564
  461MOL0     C62104   0.570   8.154   7.879  0.3665  0.1857 -0.0369
  461MOL0     C62105   0.618   8.043   7.947 -0.7689  0.0259  0.0167
  461MOL0     C62106   0.747   8.001   7.921  0.1737  0.8188  0.1697
  461MOL0     C62107   0.834   8.061   7.833  0.2626 -0.5363  0.7269
  461MOL0     O62108   0.963   8.019   7.806 -0.3638  0.0454  0.2904
  461MOL0     C62109   0.992   7.887   7.836 -0.0882  0.3552  0.1770
  461MOL0     C62110   1.145   7.858   7.810  1.0334 -0.6828  0.3047
  461MOL0     C62111   1.236   7.917   7.919  0.3178  0.6367  0.9155
  461MOL0     C62112   1.379   7.921   7.871  0.2307 -0.3798 -0.0746
  461MOL0     C62113   1.463   7.803   7.920 -0.1413  0.3345  0.2703
  461MOL0     C62114   1.601   7.802   7.862 -0.0300  1.4196  0.0873
  461MOL0     C62115   1.687   7.683   7.923 -0.0896 -0.3039 -0.0356
  461MOL0     C62116   1.828   7.683   7.863  0.4110 -0.0497 -0.2125
  461MOL0     N62117   1.918   7.585   7.922 -0.4015  0.0104 -0.4961
  461MOL0     C62118   2.038   7.606   7.990  0.3968 -1.1368  0.0786
  461MOL0     C62119   2.080   7.487   8.021  0.6113  0.4141 -0.5362
  461MOL0     C62120   2.210   7.453   8.085  0.0696 -0.5657  0.4510
  461MOL0     C62121   2.231   7.536   8.209 -0.2985 -0.2274 -0.4589
  461MOL0     C62122   2.128   7.492   8.311  0.8956  0.2686 -0.2230
  461MOL0     C62123   2.126   7.339   8.345  0.0020 -0.8373 -0.3314
  461MOL0     O62124   2.265   7.289   8.347  0.6208 -0.6429  0.2110
  461MOL0     C62125   2.341   7.305   8.462 -0.0652 -0.4249 -1.1175
  461MOL0     C62126   2.310   7.376   8.579 -0.6544 -0.6328 -0.2149
  461MOL0     C62127   2.409   7.382   8.680  0.7038  0.1723 -0.1258
  461MOL0     C62128   2.531   7.311   8.671 -0.2372 -0.2271 -0.0455
  461MOL0     C62129   2.625   7.326   8.780 -0.5010  0.5384 -1.1442
  461MOL0     O62130   2.730   7.236   8.784 -0.2784  0.1785 -0.7579
  461MOL0     C62131   2.834   7.238   8.871 -0.1583 -0.4373 -0.1742
  461MOL0     C62132   2.887   7.352   8.937  0.0799  0.4168  0.3102
  461MOL0     C62133   3.005   7.335   9.004  0.7162  0.4072  0.3204
  461MOL0     C62134   3.081   7.217   9.022 -0.0716 -0.1397  0.4709
  461MOL0     O62135   3.200   7.228   9.093 -0.0388 -0.2168 -0.4745
  461MOL0     C62136   3.284   7.109   9.098  0.6230 -0.6380 -0.3360
  461MOL0     C62137   3.346   7.084   8.960  0.3233 -0.1215  0.8312
  461MOL0     C62138   3.466   6.979   8.956  0.3075  0.0134 -0.3273
  461MOL0     C62139   3.581   7.007   9.052 -0.3753 -0.7989 -0.6638
  461MOL0     C62140   3.699   6.911   9.035 -1.4200  0.1732 -0.1678
  461MOL0     C62141   3.812   6.938   9.127 -0.0938 -0.4169 -0.5549
  461MOL0     C62142   3.927   6.847   9.116 -0.3941  0.0309  0.0122
  461MOL0     C62143   3.993   6.859   8.973  0.8921  0.1463 -0.3502
  461MOL0    Cl62144   4.172   6.836   8.975 -0.4538 -0.0417 -0.2966
  461MOL0     C62145   3.025   7.105   8.961  0.0174 -0.4783  0.2157
  461MOL0     C62146   2.901   7.121   8.887 -0.0687  0.0523  0.6992
  461MOL0     O62147   2.606   7.424   8.859  0.1575  0.1027  0.3360
  461MOL0     C62148   2.557   7.235   8.556 -0.3096  0.3905  0.7855
  461MOL0     C62149   2.463   7.237   8.455  0.0692 -1.1133  0.5085
  461MOL0     N62150   1.982   7.388   7.978 -0.7289 -0.2347 -0.5663
  461MOL0     N62151   1.888   7.454   7.913  0.0423  0.0869  0.5729
  461MOL0     C62152   0.790   8.179   7.764  1.0157 -0.5331 -0.3240
  461MOL0     C62153   0.656   8.225   7.790  0.3006  0.3709 -0.2290
  461MOL0     C62154   0.206   8.270   7.888  0.1880 -0.1812  0.4376
  461MOL0     C62155   0.179   8.197   8.010  0.7483  0.1224 -0.8179
  461MOL0     C62156   0.044   8.197   8.051  0.3532 -0.1194  0.1374
  461MOL0     C62157  -0.064   8.251   7.971 -0.7590  0.2602  0.0666
  461MOL0     O62158  -0.196   8.235   8.012 -0.3201  0.3948  0.2121
  461MOL0     C62159  -0.305   8.254   7.924 -0.1102  0.0667 -0.4393
  461MOL0     C62160  -0.433   8.189   7.978  0.2042 -0.1217  0.8806
  461MOL0     C62161  -0.480   8.251   8.108  0.8156 -0.0753  0.0912
  461MOL0     C62162  -0.608   8.198   8.151  0.7785  0.5648 -0.0381
  461MOL0     C62163  -0.720   8.216   8.059  0.5864 -0.6574 -0.5893
  461MOL0     C62164  -0.808   8.237   7.983  0.0731  0.2202 -0.2900
  461MOL0     C62165  -0.029   8.311   7.848  0.0289  0.6820  0.7515
  461MOL0     C62166   0.105   8.331   7.807  0.2743 -0.4332 -0.8035
  461MOL0     C62167   0.134   8.430   7.697 -0.4285 -0.1362  0.5000
  461MOL0     H62168   0.552   7.994   8.017 -1.5467  0.0654 -0.6797
  461MOL0     H62169   0.784   7.926   7.990 -2.1806  1.3801  2.1870
  461MOL0     H62170   0.976   7.848   7.937 -1.8207 -2.6940 -1.1339
  461MOL0     H62171   0.944   7.820   7.765 -0.2285  0.9955 -0.3395
  461MOL0     H62172   1.164   7.885   7.706  1.7209 -0.3404  0.5178
  461MOL0     H62173   1.156   7.749   7.817  2.3665 -0.6183 -0.4916
  461MOL0     H62174   1.220   7.849   8.003 -2.3041  0.8295  0.6580
  461MOL0     H62175   1.206   8.019   7.946 -3.4812  0.1204 -0.6634
  461MOL0     H62176   1.370   7.922   7.762 -2.4286  1.5874  0.0624
  461MOL0     H62177   1.427   8.009   7.915 -3.6783  1.6166  0.6518
  461MOL0     H62178   1.466   7.811   8.030 -3.6423  0.7916  0.4547
  461MOL0     H62179   1.410   7.710   7.899 -1.3188  1.2428 -0.9229
  461MOL0     H62180   1.604   7.802   7.752 -0.1035 -1.8597 -0.0307
  461MOL0     H62181   1.654   7.889   7.900  0.3417  1.3720 -0.3118
  461MOL0     H62182   1.642   7.590   7.889 -1.1141  0.1637 -0.0043
  461MOL0     H62183   1.698   7.697   8.031  0.7969  0.0758 -0.1656
  461MOL0     H62184   1.816   7.660   7.757  0.4813  0.6347 -0.3771
  461MOL0     H62185   1.875   7.782   7.872  1.0508 -0.0332 -2.8165
  461MOL0     H62186   2.087   7.699   8.016  0.6574 -0.5766 -2.2692
  461MOL0     H62187   2.214   7.345   8.102  1.6452 -0.4831  0.7448
  461MOL0     H62188   2.285   7.477   8.009  1.5120  0.2559  2.0580
  461MOL0     H62189   2.326   7.529   8.263 -1.6794  1.0384  2.3386
  461MOL0     H62190   2.220   7.641   8.182  0.9424 -0.7060 -3.2275
  461MOL0     H62191   2.028   7.526   8.282  0.7067  1.5636  1.7755
  461MOL0     H62192   2.148   7.555   8.398  0.3281  0.4247 -0.2023
  461MOL0     H62193   2.067   7.288   8.269  2.0097 -3.6226 -0.1736
  461MOL0     H62194   2.085   7.319   8.445 -0.9143 -0.9705 -0.7274
  461MOL0     H62195   2.220   7.433   8.597 -0.1333 -0.5163  2.4534
  461MOL0     H62196   2.388   7.434   8.773 -1.2936 -0.3975 -0.2201
  461MOL0     H62197   2.842   7.450   8.918 -2.0947 -0.3833  1.0219
  461MOL0     H62198   3.043   7.429   9.044  0.9395  0.6772 -0.5076
  461MOL0     H62199   3.372   7.113   9.162  1.6448  0.9170 -1.7255
  461MOL0     H62200   3.225   7.019   9.119  2.2941 -1.1685  2.5398
  461MOL0     H62201   3.276   7.049   8.884  0.4414  0.4300  0.4571
  461MOL0     H62202   3.389   7.178   8.924 -1.9731  0.9514  0.7414
  461MOL0     H62203   3.431   6.880   8.986 -1.9876  0.8761 -0.0256
  461MOL0     H62204   3.500   6.980   8.852  0.3978 -1.6957 -0.3327
  461MOL0     H62205   3.549   7.005   9.156  1.9095 -1.4008  0.0927
  461MOL0     H62206   3.615   7.109   9.032 -1.3619 -0.3905 -0.3062
  461MOL0     H62207   3.736   6.906   8.932  0.5193 -0.8775  0.5283
  461MOL0     H62208   3.672   6.811   9.069  0.9896 -0.4696  0.0559
  461MOL0     H62209   3.838   7.043   9.114 -1.9735  0.2467  0.6902
  461MOL0     H62210   3.775   6.932   9.230 -0.6377  0.2211 -0.7126
  461MOL0     H62211   3.898   6.748   9.152 -1.1124  1.0009  2.2685
  461MOL0     H62212   3.999   6.881   9.191 -0.2040  0.0864 -0.1936
  461MOL0     H62213   3.945   6.785   8.909  1.0903 -1.3474  1.1569
  461MOL0     H62214   3.977   6.962   8.941  0.8269 -0.3916 -2.1231
  461MOL0     H62215   3.080   7.011   8.964  2.0944  0.6255 -0.9915
  461MOL0     H62216   2.859   7.035   8.836 -2.0391  1.9837 -1.1536
  461MOL0     H62217   2.642   7.168   8.559 -0.3173  0.4130  2.4487
  461MOL0     H62218   2.475   7.186   8.360  0.2042 -0.0806 -0.0426
  461MOL0     H62219   0.858   8.234   7.700  2.5728 -1.6923  0.2788
  461MOL0     H62220   0.627   8.313   7.733 -0.6596 -0.2344 -0.6768
  461MOL0     H62221   0.245   8.138   8.072  2.6894  2.5897 -0.4000
  461MOL0     H62222   0.024   8.142   8.142  5.4337 -3.0743 -0.1298
  461MOL0     H62223  -0.283   8.205   7.829  0.4115 -1.0199  0.2159
  461MOL0     H62224  -0.324   8.360   7.908  0.1564  0.2364  0.3157
  461MOL0     H62225  -0.407   8.084   7.993  0.8996  0.1014  1.3070
  461MOL0     H62226  -0.509   8.183   7.900  0.8997  0.0519  0.1749
  461MOL0     H62227  -0.475   8.358   8.128  1.1805  0.2430 -1.5412
  461MOL0     H62228  -0.411   8.228   8.190  1.1393  0.9592  0.1212
  461MOL0     H62229  -0.594   8.091   8.168  1.3993  0.5283 -0.7148
  461MOL0     H62230  -0.633   8.245   8.247  0.8594 -0.2745  0.4007
  461MOL0     H62231  -0.891   8.240   7.916 -0.5217 -3.7184  0.0158
  461MOL0     H62232  -0.103   8.363   7.789  1.6534  1.6460 -0.5041
  461MOL0     H62233   0.217   8.500   7.709  0.6788 -1.6848  2.5387
  461MOL0     H62234   0.162   8.372   7.608 -0.1814  1.2234 -0.3463
  461MOL0     H62235   0.047   8.492   7.670 -1.7222 -1.3195  1.7719
  462MOL0     O62236  10.925  10.856   9.916  0.1634  0.5410  0.2015
  462MOL0     C62237  10.852  10.844  10.009  0.9821 -0.5748 -0.7668
  462MOL0     O62238  10.885  10.834  10.148  0.3289 -0.2466 -0.3908
  462MOL0     C62239  11.019  10.806  10.166  0.2137  0.5809  0.5056
  462MOL0     C62240  11.056  10.687  10.219  0.1216 -0.1644 -0.1519
  462MOL0     C62241  11.189  10.658  10.239  0.1426 -0.6384  0.4159
  462MOL0     C62242  11.288  10.764  10.216  0.0690 -0.1969 -0.9666
  462MOL0     O62243  11.426  10.757  10.222 -0.5301  0.3785  0.8014
  462MOL0     C62244  11.484  10.663  10.313  0.3507  0.4649  0.2958
  462MOL0     C62245  11.632  10.697  10.330 -0.7327 -0.2492  0.5194
  462MOL0     C62246  11.668  10.847  10.373  0.7977  0.0770 -0.3329
  462MOL0     C62247  11.811  10.867  10.412  0.6755  0.1020 -0.1836
  462MOL0     C62248  11.855  10.999  10.444 -0.8623 -0.8193 -0.4347
  462MOL0     C62249  12.013  11.007  10.436  0.4710  0.6857  0.5611
  462MOL0     C62250  12.066  11.150  10.452  0.0454  0.2328  0.3712
  462MOL0     C62251  12.160  11.185  10.331  0.0046  0.2356 -0.0286
  462MOL0     N62252  12.298  11.147  10.360 -0.3182 -0.1043  0.3404
  462MOL0     C62253  12.357  11.024  10.353  0.8223 -0.9437  0.6066
  462MOL0     C62254  12.485  11.047  10.389 -0.5987  0.2633 -0.0412
  462MOL0     C62255  12.587  10.929  10.412  0.7974 -0.1012 -0.0609
  462MOL0     C62256  12.534  10.788  10.364  0.4945 -0.1023 -0.3299
  462MOL0     C62257  12.629  10.681  10.420 -0.1745  0.3534 -0.7680
  462MOL0     C62258  12.587  10.642  10.563  0.6496 -0.1004  0.4102
  462MOL0     O62259  12.665  10.528  10.604  0.2428 -0.3339 -0.6996
  462MOL0     C62260  12.662  10.454  10.716  0.3783 -0.3955 -0.2408
  462MOL0     C62261  12.575  10.492  10.816 -0.4987 -0.3961  0.2208
  462MOL0     C62262  12.552  10.414  10.928  0.2989 -0.4989  0.3142
  462MOL0     C62263  12.624  10.296  10.946 -0.1380  0.1975  0.3835
  462MOL0     C62264  12.582  10.203  11.046 -0.4973 -0.9124  0.4856
  462MOL0     O62265  12.612  10.071  11.026 -0.5160 -0.9219 -0.3191
  462MOL0     C62266  12.589   9.983  11.125  0.2355 -0.9184 -0.4060
  462MOL0     C62267  12.455   9.967  11.170  0.3247 -0.6651  0.4749
  462MOL0     C62268  12.430   9.860  11.262 -0.7416  0.2968 -0.1382
  462MOL0     C62269  12.541   9.788  11.322  0.3724 -0.2236  1.0065
  462MOL0     O62270  12.532   9.681  11.406 -0.0334 -0.0577 -0.3391
  462MOL0     C62271  12.460   9.704  11.528 -0.2224 -0.4928 -0.8412
  462MOL0     C62272  12.400   9.571  11.561 -0.4503 -0.2888  0.4228
  462MOL0     C62273  12.309   9.514  11.450 -0.3720  0.1554 -0.2071
  462MOL0     C62274  12.251   9.377  11.485 -0.2039  0.3979 -0.2338
  462MOL0     C62275  12.141   9.366  11.600 -0.1771  0.0980  0.5503
  462MOL0     C62276  12.121   9.220  11.648  0.7373 -0.2621  0.5325
  462MOL0     C62277  11.991   9.211  11.728  0.2305  0.0160  0.2574
  462MOL0     C62278  11.981   9.069  11.787 -0.0581 -0.0070  0.6012
  462MOL0    Cl62279  11.823   9.035  11.849 -0.0253 -0.1569 -0.2731
  462MOL0     C62280  12.669   9.804  11.269  0.1259  0.0425  0.6343
  462MOL0     C62281  12.693   9.899  11.173 -0.0913  0.9302 -0.0354
  462MOL0     O62282  12.531  10.253  11.149  0.7383 -0.6695  0.8378
  462MOL0     C62283  12.719  10.265  10.853 -1.6327  0.7187  0.2153
  462MOL0     C62284  12.736  10.335  10.735 -0.8830 -0.0597  0.0234
  462MOL0     N62285  12.507  11.182  10.416  0.9824 -0.3648  0.6153
  462MOL0     N62286  12.393  11.244  10.392 -0.4691  0.5090 -0.3127
  462MOL0     C62287  11.243  10.884  10.174  0.2555 -0.2587 -0.0150
  462MOL0     C62288  11.107  10.907  10.146 -0.7589  0.6566  0.7433
  462MOL0     C62289  10.706  10.863   9.979  0.2693 -0.3246 -0.0169
  462MOL0     C62290  10.618  10.897  10.088 -0.5077  0.3384 -0.3740
  462MOL0     C62291  10.482  10.921  10.056 -0.4438 -0.2028 -1.4691
  462MOL0     C62292  10.428  10.922   9.929 -0.4556 -0.2516  0.0902
  462MOL0     O62293  10.295  10.931   9.897  0.1712  0.1697  0.3960
  462MOL0     C62294  10.208  10.984   9.999 -0.0952  0.1038 -0.0675
  462MOL0     C62295  10.074  11.008   9.930  0.1405  0.0828  0.2155
  462MOL0     C62296   9.974  11.085  10.017  0.9619  0.2538  0.7699
  462MOL0     C62297   9.835  11.103   9.947  0.2730 -0.1920 -0.5445
  462MOL0     C62298   9.769  11.215  10.023 -0.6138 -0.3299 -0.1723
  462MOL0     C62299   9.714  11.312  10.073  0.0931 -1.4236  0.3595
  462MOL0     C62300  10.505  10.898   9.819 -1.2828  0.0812  0.1435
  462MOL0     C62301  10.646  10.875   9.846 -0.4483  0.2093  0.1496
  462MOL0     C62302  10.719  10.823   9.722  0.0891 -0.1594  0.7381
  462MOL0     H62303  10.981  10.610  10.234 -0.0559  0.1107  0.4022
  462MOL0     H62304  11.211  10.557  10.273 -2.5387 -1.1601  0.8969
  462MOL0     H62305  11.419  10.664  10.401 -2.2933 -0.6252 -1.5274
  462MOL0     H62306  11.468  10.565  10.268  0.6611 -0.0110  1.1920
  462MOL0     H62307  11.690  10.675  10.240  0.3480  0.7019  0.9680
  462MOL0     H62308  11.677  10.642  10.414 -1.2806  1.1532  1.7736
  462MOL0     H62309  11.593  10.862  10.451  1.6353  2.6104  0.0470
  462MOL0     H62310  11.651  10.919  10.293 -0.0020 -2.0439 -2.2014
  462MOL0     H62311  11.831  10.807  10.502 -1.9544  1.3077  1.3412
  462MOL0     H62312  11.872  10.813  10.340  0.2639 -3.2388  1.7145
  462MOL0     H62313  11.810  11.077  10.382 -2.0252  1.6261  3.1394
  462MOL0     H62314  11.835  11.028  10.548  1.4641  1.6675 -0.5367
  462MOL0     H62315  12.046  10.946  10.520 -2.0073 -1.1918  0.3139
  462MOL0     H62316  12.053  10.962  10.345  0.6013  1.3126  0.3028
  462MOL0     H62317  12.125  11.175  10.541 -1.1489  5.2369  0.0216
  462MOL0     H62318  11.986  11.224  10.444  1.1984  1.4072 -0.8607
  462MOL0     H62319  12.124  11.129  10.244 -0.4946  0.7965 -0.1961
  462MOL0     H62320  12.158  11.292  10.309  1.1807  0.4645  0.9100
  462MOL0     H62321  12.305  10.931  10.337 -0.7929  0.0990 -0.5202
  462MOL0     H62322  12.683  10.947  10.363  1.9601 -2.9365  0.9485
  462MOL0     H62323  12.598  10.930  10.521 -2.0064  2.3273  0.3414
  462MOL0     H62324  12.430  10.772  10.393  0.6089  0.8147  0.6522
  462MOL0     H62325  12.538  10.782  10.255  2.8419  0.0112 -0.3007
  462MOL0     H62326  12.736  10.703  10.418  0.1392 -1.0834 -0.4922
  462MOL0     H62327  12.602  10.592  10.363  0.4955 -0.6853  0.4975
  462MOL0     H62328  12.483  10.606  10.564  0.7247 -0.4014 -0.8131
  462MOL0     H62329  12.598  10.727  10.631  2.1380 -0.7716  1.0458
  462MOL0     H62330  12.506  10.576  10.817 -0.5060 -0.4003  0.1566
  462MOL0     H62331  12.476  10.435  11.002 -0.6682  2.6801 -1.4204
  462MOL0     H62332  12.377  10.027  11.124  0.5377  0.6126  1.7260
  462MOL0     H62333  12.328   9.842  11.293 -1.2397  0.0375 -1.8210
  462MOL0     H62334  12.528   9.733  11.608  1.8012 -3.7385 -1.2002
  462MOL0     H62335  12.380   9.776  11.506  0.7301  0.3308 -1.7832
  462MOL0     H62336  12.484   9.507  11.588  0.6914  1.0690  0.2090
  462MOL0     H62337  12.340   9.580  11.652  0.3428 -1.9817  1.1648
  462MOL0     H62338  12.219   9.576  11.440 -2.0547 -2.4493 -3.3745
  462MOL0     H62339  12.367   9.511  11.357  2.4851  0.8888  1.4222
  462MOL0     H62340  12.334   9.321  11.529 -0.3852  0.8930  0.7756
  462MOL0     H62341  12.207   9.335  11.395 -2.5916 -0.6886  1.3260
  462MOL0     H62342  12.049   9.407  11.558 -1.1335 -1.5490  0.9376
  462MOL0     H62343  12.159   9.430  11.687 -2.7406  1.0529  0.4462
  462MOL0     H62344  12.110   9.156  11.561  1.5744 -3.0876  2.3782
  462MOL0     H62345  12.213   9.189  11.699  1.4140  2.1059  0.8868
  462MOL0     H62346  11.906   9.218  11.659 -0.1341  1.2670  0.8148
  462MOL0     H62347  11.982   9.295  11.797 -1.3129 -0.2627  0.4416
  462MOL0     H62348  12.013   8.994  11.713  0.5108 -0.7437  1.5641
  462MOL0     H62349  12.054   9.057  11.868  1.2065  1.7273 -0.1919
  462MOL0     H62350  12.748   9.744  11.313 -1.8191 -3.1763  0.0483
  462MOL0     H62351  12.794   9.909  11.134  0.5582 -0.2235  1.2838
  462MOL0     H62352  12.783  10.181  10.875 -0.8898  1.2125 -0.0216
  462MOL0     H62353  12.814  10.313  10.662 -0.6044  2.3261 -0.4714
  462MOL0     H62354  11.317  10.959  10.150 -3.0176  2.6788 -1.9250
  462MOL0     H62355  11.066  11.004  10.116  0.5399  1.3284  1.0810
  462MOL0     H62356  10.648  10.907  10.192 -2.6872 -0.4150  0.3692
  462MOL0     H62357  10.426  10.924  10.149 -2.2890 -2.6052 -2.3743
  462MOL0     H62358  10.239  11.079  10.043  2.3750 -0.8705  0.5025
  462MOL0     H62359  10.202  10.906  10.076  1.8766  0.9150  0.9781
  462MOL0     H62360  10.026  10.912   9.909 -1.4713  1.1135 -1.1110
  462MOL0     H62361  10.084  11.051   9.830 -2.6768 -3.0464 -1.6304
  462MOL0     H62362  10.024  11.180  10.038  0.8088  0.0800  1.9655
  462MOL0     H62363   9.951  11.023  10.104 -1.1324 -2.2822 -1.3959
  462MOL0     H62364   9.849  11.130   9.842 -0.9681  0.0057 -0.6803
  462MOL0     H62365   9.773  11.014   9.963  1.1904 -1.2213 -2.4146
  462MOL0     H62366   9.679  11.407  10.108  3.3071  1.6228 -3.7330
  462MOL0     H62367  10.463  10.900   9.719 -0.5899 -0.4896 -0.1673
  462MOL0     H62368  10.808  10.764   9.745 -0.4560 -1.2590  0.0565
  462MOL0     H62369  10.655  10.757   9.664  0.5375 -0.0197  0.0724
  462MOL0     H62370  10.747  10.910   9.661  1.5876 -0.6147  0.7217
  463MOL0     O62371   3.189   1.193   3.950  0.0703  0.3138  0.1354
  463MOL0     C62372   3.254   1.088   3.945  0.9329 -0.3411 -0.9341
  463MOL0     O62373   3.199   0.969   3.903  0.5021  0.1243  0.5673
  463MOL0     C62374   3.066   0.965   3.868 -0.1745  0.1369  0.1806
  463MOL0     C62375   3.035   0.926   3.739  0.2984 -0.5162 -0.2568
  463MOL0     C62376   2.908   0.933   3.684  0.4029 -0.0743 -0.7225
  463MOL0     C62377   2.797   0.973   3.765  0.2135 -0.8715  0.2169
  463MOL0     O62378   2.678   0.974   3.713 -0.1144 -0.4729  0.1516
  463MOL0     C62379   2.568   0.943   3.800  0.4214 -0.2063  0.0070
  463MOL0     C62380   2.449   0.887   3.723 -0.9717  0.3545 -0.4226
  463MOL0     C62381   2.403   0.957   3.597  1.0821  0.6457  0.9614
  463MOL0     C62382   2.292   0.880   3.511 -0.0308  0.1857  0.1289
  463MOL0     C62383   2.246   0.958   3.385 -0.1345 -0.0265 -0.7076
  463MOL0     C62384   2.356   0.990   3.286  0.4316 -0.4940 -0.0343
  463MOL0     C62385   2.303   1.092   3.177 -0.6912  0.1783 -0.7531
  463MOL0     C62386   2.281   1.244   3.227  0.1039  0.1097 -0.2242
  463MOL0     N62387   2.408   1.301   3.264 -0.8373 -0.5898  0.2251
  463MOL0     C62388   2.543   1.260   3.228  0.0219 -0.6963 -0.4128
  463MOL0     C62389   2.627   1.332   3.311 -0.5441  0.5089 -0.0261
  463MOL0     C62390   2.781   1.313   3.329  0.9352  0.4613 -0.0136
  463MOL0     C62391   2.855   1.363   3.205 -0.7233  1.0328  0.2208
  463MOL0     C62392   3.003   1.368   3.239  0.3234  0.3831 -0.7840
  463MOL0     C62393   3.104   1.366   3.119  0.1113  0.0883 -0.2039
  463MOL0     O62394   3.235   1.367   3.173 -0.2346 -1.4196 -0.2268
  463MOL0     C62395   3.347   1.389   3.090  0.3399  0.0750 -1.0640
  463MOL0     C62396   3.475   1.399   3.153 -0.1978  0.4551 -0.2032
  463MOL0     C62397   3.584   1.443   3.094  0.6074 -0.1473 -0.2376
  463MOL0     C62398   3.576   1.480   2.959  0.4920  0.0256  0.5857
  463MOL0     C62399   3.699   1.523   2.897  0.5394  0.1883 -0.3239
  463MOL0     O62400   3.820   1.474   2.938  0.6070 -0.1644  0.0751
  463MOL0     C62401   3.931   1.475   2.857  0.3180 -0.1563 -0.8303
  463MOL0     C62402   4.055   1.470   2.934  0.0769 -0.3141  0.2899
  463MOL0     C62403   4.177   1.475   2.857  1.0452  0.0236  0.4613
  463MOL0     C62404   4.183   1.463   2.721  1.3868 -0.5658 -1.1823
  463MOL0     O62405   4.299   1.485   2.653 -0.2887 -0.4519 -0.6760
  463MOL0     C62406   4.425   1.452   2.709 -0.4417 -0.6401  0.0237
  463MOL0     C62407   4.532   1.462   2.592  0.7435  0.2039  0.0498
  463MOL0     C62408   4.657   1.381   2.619  0.0306 -0.0873 -0.3426
  463MOL0     C62409   4.762   1.404   2.509  0.3773  0.0264  0.0430
  463MOL0     C62410   4.891   1.314   2.511  0.2248  0.9988 -1.0020
  463MOL0     C62411   4.983   1.362   2.400 -0.4182  0.4323  0.2293
  463MOL0     C62412   5.100   1.260   2.363 -0.6349 -0.4959  0.2788
  463MOL0     C62413   5.054   1.137   2.277  0.4940  0.7662 -0.0774
  463MOL0    Cl62414   4.967   1.184   2.132 -0.0280 -0.2761 -0.1443
  463MOL0     C62415   4.063   1.460   2.655  0.6217 -0.3518  0.2300
  463MOL0     C62416   3.937   1.460   2.719 -0.2799 -0.4806  0.8303
  463MOL0     O62417   3.684   1.615   2.813  0.3341  0.5083 -0.9149
  463MOL0     C62418   3.453   1.466   2.888 -0.1787 -0.7859 -0.0347
  463MOL0     C62419   3.340   1.419   2.954  0.8177  0.3007 -0.3177
  463MOL0     N62420   2.549   1.400   3.400  0.0221  0.1259  0.6635
  463MOL0     N62421   2.425   1.384   3.370  0.7287 -0.6067  0.7165
  463MOL0     C62422   2.829   1.017   3.897 -1.0714 -0.1610  0.0848
  463MOL0     C62423   2.960   1.017   3.949 -0.6678  0.6837  0.2487
  463MOL0     C62424   3.396   1.086   3.993 -0.4971  0.7691 -0.3399
  463MOL0     C62425   3.459   0.963   3.991 -0.0109  0.4936 -0.0095
  463MOL0     C62426   3.596   0.950   4.008  0.3256 -0.3197  0.6677
  463MOL0     C62427   3.673   1.062   4.043  0.4204 -0.0388  0.0894
  463MOL0     O62428   3.812   1.039   4.057  1.0002  0.2111 -0.5126
  463MOL0     C62429   3.860   1.063   4.193 -0.4502  0.0124  0.9866
  463MOL0     C62430   3.822   0.948   4.290 -0.6382  0.2786 -0.3232
  463MOL0     C62431   3.886   0.816   4.277  0.8918  0.1501 -0.2944
  463MOL0     C62432   4.017   0.819   4.358  0.1357  0.0277 -0.5583
  463MOL0     C62433   4.087   0.687   4.348  0.7270  0.0032 -0.9520
  463MOL0     C62434   4.145   0.580   4.346 -0.1222 -1.9238 -0.1933
  463MOL0     C62435   3.604   1.178   4.060  0.3990 -0.4365 -0.5138
  463MOL0     C62436   3.471   1.199   4.024 -0.2027  0.5525 -0.5438
  463MOL0     C62437   3.423   1.336   4.036 -0.0645 -0.1074 -0.4647
  463MOL0     H62438   3.123   0.897   3.683 -0.2031  0.7090 -1.7628
  463MOL0     H62439   2.901   0.900   3.581 -0.7568 -2.2554  0.0021
  463MOL0     H62440   2.592   0.873   3.880 -0.8049 -0.2094  0.3873
  463MOL0     H62441   2.530   1.036   3.843  0.4703  0.1635 -0.7288
  463MOL0     H62442   2.365   0.879   3.793  0.2621  1.6017  1.2921
  463MOL0     H62443   2.468   0.784   3.689 -0.5496  0.8986 -1.8877
  463MOL0     H62444   2.495   0.969   3.539  0.7117  0.0707  0.2369
  463MOL0     H62445   2.351   1.051   3.617 -0.1901 -0.0352  0.9974
  463MOL0     H62446   2.326   0.777   3.493  1.4397  0.3606  1.6091
  463MOL0     H62447   2.202   0.875   3.572  0.8246 -1.7562  1.3526
  463MOL0     H62448   2.165   0.900   3.339  1.5515 -0.0880 -3.8752
  463MOL0     H62449   2.202   1.054   3.414  1.4067  1.3970 -2.8447
  463MOL0     H62450   2.445   1.018   3.343  0.4129  0.2771 -0.3684
  463MOL0     H62451   2.380   0.892   3.243 -1.8750 -1.5143  0.8323
  463MOL0     H62452   2.199   1.065   3.154 -0.9115 -1.5093  1.7340
  463MOL0     H62453   2.363   1.085   3.086 -1.4024 -1.3947 -1.1319
  463MOL0     H62454   2.245   1.301   3.141 -1.4064 -0.0856  0.2489
  463MOL0     H62455   2.204   1.247   3.304 -0.7760 -1.4285 -0.9809
  463MOL0     H62456   2.559   1.189   3.148  1.7046 -1.7928  0.8071
  463MOL0     H62457   2.816   1.371   3.415 -1.3998  2.7871 -0.4914
  463MOL0     H62458   2.789   1.205   3.337  0.6095  0.2751 -1.7910
  463MOL0     H62459   2.851   1.297   3.118  0.1637  0.8008  0.3528
  463MOL0     H62460   2.823   1.463   3.174 -0.0906  0.9950 -0.5949
  463MOL0     H62461   3.021   1.279   3.299  2.8461  1.3461  0.0340
  463MOL0     H62462   3.027   1.446   3.312 -0.9959 -0.1227  0.2220
  463MOL0     H62463   3.084   1.453   3.055 -0.2170 -1.5237 -2.4133
  463MOL0     H62464   3.088   1.272   3.065 -0.2582 -0.7120  1.2425
  463MOL0     H62465   3.491   1.368   3.256 -1.9864 -2.2049 -0.6093
  463MOL0     H62466   3.682   1.440   3.140  0.4554 -1.4534  0.0486
  463MOL0     H62467   4.051   1.461   3.042 -0.6763  1.7024  0.4885
  463MOL0     H62468   4.266   1.475   2.919 -0.2563  1.2828  2.4496
  463MOL0     H62469   4.462   1.518   2.788 -0.9348 -1.3371  0.8582
  463MOL0     H62470   4.422   1.352   2.754  0.2431 -0.5697  0.2407
  463MOL0     H62471   4.487   1.413   2.505 -0.0248 -0.9136  1.0425
  463MOL0     H62472   4.552   1.568   2.572  1.8101 -0.6583 -4.7830
  463MOL0     H62473   4.705   1.412   2.713  0.2660 -1.7965  0.1369
  463MOL0     H62474   4.635   1.274   2.621 -1.9884  0.2827  1.4386
  463MOL0     H62475   4.799   1.506   2.504  1.7899 -0.3934  1.1245
  463MOL0     H62476   4.715   1.379   2.414  0.6056 -3.3702  0.6922
  463MOL0     H62477   4.860   1.212   2.487  2.7677 -0.1500  0.2464
  463MOL0     H62478   4.924   1.312   2.616  1.0904 -2.8323 -1.1915
  463MOL0     H62479   4.925   1.385   2.310  0.9907  1.0518 -0.5605
  463MOL0     H62480   5.021   1.460   2.431 -1.0614  0.2483  1.6550
  463MOL0     H62481   5.149   1.222   2.453 -2.3391  1.6403  2.2190
  463MOL0     H62482   5.180   1.305   2.304 -0.7348  1.3711  1.4761
  463MOL0     H62483   5.138   1.071   2.252 -0.2265 -0.6956  1.1547
  463MOL0     H62484   5.002   1.066   2.343  0.2323  0.9431 -0.0896
  463MOL0     H62485   4.071   1.443   2.548 -0.1123 -1.5071  0.3484
  463MOL0     H62486   3.847   1.464   2.658  1.3250  0.8293 -1.6407
  463MOL0     H62487   3.436   1.486   2.782  1.5974 -0.7658 -0.3391
  463MOL0     H62488   3.242   1.429   2.909  1.0584  0.9385 -0.7217
  463MOL0     H62489   2.747   1.064   3.949  0.5188  1.2936  1.3646
  463MOL0     H62490   2.983   1.065   4.043  1.0211  0.1104  0.1650
  463MOL0     H62491   3.414   0.870   3.959 -0.3315  0.0144  1.7493
  463MOL0     H62492   3.646   0.854   4.004 -1.0714 -1.0579  0.0425
  463MOL0     H62493   3.830   1.161   4.232  1.5178  1.7572 -1.5337
  463MOL0     H62494   3.970   1.069   4.197 -0.4834  0.8061  0.9229
  463MOL0     H62495   3.713   0.940   4.280 -0.5517  0.7691 -2.0996
  463MOL0     H62496   3.844   0.988   4.389  0.3820  0.5301 -0.6429
  463MOL0     H62497   3.907   0.784   4.175 -1.6838  0.0945 -0.8836
  463MOL0     H62498   3.824   0.734   4.317  1.8023  1.4458  4.4492
  463MOL0     H62499   4.081   0.901   4.325  0.0395  1.2370  2.0321
  463MOL0     H62500   3.991   0.841   4.462 -1.6544  1.6407 -1.2730
  463MOL0     H62501   4.204   0.491   4.337  2.3395 -0.2789 -1.3918
  463MOL0     H62502   3.660   1.261   4.103 -0.4616 -0.7115  1.2220
  463MOL0     H62503   3.325   1.345   4.084  0.5497  2.4345  0.4903
  463MOL0     H62504   3.492   1.394   4.099 -0.8510  2.2380 -1.6444
  463MOL0     H62505   3.420   1.381   3.937  1.5497 -0.0386 -0.5105
  464MOL0     O62506   8.653   2.029   6.877  0.0874  0.2751 -0.6328
  464MOL0     C62507   8.612   1.969   6.777 -0.0014 -0.0658 -0.4130
  464MOL0     O62508   8.675   1.981   6.655 -0.2083  0.2794 -0.0127
  464MOL0     C62509   8.804   2.038   6.643  0.6990 -0.1220 -0.0827
  464MOL0     C62510   8.831   2.162   6.707 -0.1634  0.0379 -0.3975
  464MOL0     C62511   8.956   2.229   6.677  0.3508  0.0471  0.3477
  464MOL0     C62512   9.053   2.170   6.600 -0.0615 -0.3759 -0.3178
  464MOL0     O62513   9.174   2.232   6.580  0.6268 -0.1576 -0.3987
  464MOL0     C62514   9.271   2.195   6.675  0.0331 -0.6404  0.2826
  464MOL0     C62515   9.388   2.295   6.672  0.0184  0.5199  0.7019
  464MOL0     C62516   9.480   2.281   6.789 -0.9651 -0.9166  0.1489
  464MOL0     C62517   9.603   2.364   6.747  0.1395 -0.8509 -0.9197
  464MOL0     C62518   9.709   2.380   6.858 -0.2313 -0.3916  0.3176
  464MOL0     C62519   9.844   2.434   6.795 -0.4381 -0.5792 -0.3392
  464MOL0     C62520   9.950   2.473   6.898 -0.7949 -0.5825  0.3031
  464MOL0     C62521  10.077   2.532   6.818 -0.2990 -0.1495 -0.1518
  464MOL0     N62522  10.156   2.623   6.904  0.7515  0.6869  0.2645
  464MOL0     C62523  10.209   2.594   7.029 -0.0312  0.0372  0.4552
  464MOL0     C62524  10.317   2.667   7.045 -0.4209 -0.5493 -0.2494
  464MOL0     C62525  10.412   2.672   7.160  0.0028  0.5282 -0.5007
  464MOL0     C62526  10.489   2.804   7.173 -0.1157 -0.0039 -0.1188
  464MOL0     C62527  10.591   2.796   7.291  0.4509 -0.3571  0.0516
  464MOL0     C62528  10.732   2.770   7.252  0.3512  0.2133 -0.6063
  464MOL0     O62529  10.803   2.736   7.372 -0.6796 -0.4143  0.2923
  464MOL0     C62530  10.933   2.698   7.368  0.2115  0.0300 -0.3709
  464MOL0     C62531  11.013   2.732   7.473  0.3272  0.4147 -0.0848
  464MOL0     C62532  11.152   2.717   7.465 -0.5817  0.1725 -0.8705
  464MOL0     C62533  11.209   2.634   7.365 -0.8409 -0.1048  0.9347
  464MOL0     C62534  11.360   2.612   7.369  0.1853  0.4467 -0.6352
  464MOL0     O62535  11.433   2.695   7.448 -0.3106  0.2068 -0.1469
  464MOL0     C62536  11.568   2.691   7.468  0.3880  0.1864  0.0986
  464MOL0     C62537  11.654   2.696   7.358 -0.2211 -0.3630 -0.0668
  464MOL0     C62538  11.791   2.688   7.399 -0.2901  0.6188 -0.0169
  464MOL0     C62539  11.831   2.654   7.526 -0.5167  0.2367 -0.0324
  464MOL0     O62540  11.968   2.644   7.542  0.5244  0.3435 -0.0749
  464MOL0     C62541  12.016   2.515   7.545 -0.4637  0.1416 -0.0533
  464MOL0     C62542  12.167   2.511   7.531 -0.2097 -0.3775  0.0217
  464MOL0     C62543  12.244   2.546   7.656  1.1456 -0.1815 -0.4337
  464MOL0     C62544  12.271   2.433   7.754 -0.6938 -0.5829  0.1844
  464MOL0     C62545  12.369   2.327   7.714 -0.8956  0.2129  0.7279
  464MOL0     C62546  12.439   2.270   7.837  0.4717  0.4154  0.1895
  464MOL0     C62547  12.512   2.134   7.802 -0.1017 -0.2194 -0.0640
  464MOL0     C62548  12.609   2.085   7.912  0.3890 -0.7984  0.4668
  464MOL0    Cl62549  12.712   1.938   7.855 -0.4581  0.1160  0.0039
  464MOL0     C62550  11.742   2.643   7.631  0.1195 -0.3377 -0.1639
  464MOL0     C62551  11.609   2.671   7.603 -0.1004  0.9636  0.7320
  464MOL0     O62552  11.401   2.507   7.311  0.0756 -0.3075  0.0954
  464MOL0     C62553  11.126   2.582   7.263  1.0439 -0.7278  0.0938
  464MOL0     C62554  10.989   2.612   7.271 -0.3907  0.0596 -1.2693
  464MOL0     N62555  10.332   2.742   6.930 -0.3594 -0.5726  0.5054
  464MOL0     N62556  10.235   2.718   6.848  0.1425  0.5871 -0.3242
  464MOL0     C62557   9.034   2.044   6.553 -0.6002 -0.4982 -0.5354
  464MOL0     C62558   8.909   1.978   6.577 -0.7206 -0.8292  0.7192
  464MOL0     C62559   8.498   1.878   6.801  0.6376 -0.2283  0.3713
  464MOL0     C62560   8.400   1.917   6.891  0.6999 -0.6705 -0.0307
  464MOL0     C62561   8.288   1.837   6.922  0.2163  0.8234 -0.4759
  464MOL0     C62562   8.269   1.709   6.864  0.0580 -0.1619  0.6496
  464MOL0     O62563   8.160   1.631   6.894  0.5305 -0.1276  0.1365
  464MOL0     C62564   8.157   1.497   6.848  0.1359  0.6860  0.5527
  464MOL0     C62565   8.040   1.435   6.918  0.0527  0.3610 -0.9727
  464MOL0     C62566   7.908   1.490   6.883 -0.6629 -0.8567 -0.1928
  464MOL0     C62567   7.790   1.421   6.949 -0.0177  0.0662  1.0520
  464MOL0     C62568   7.671   1.463   6.879  0.0428  0.3881  0.5090
  464MOL0     C62569   7.568   1.504   6.824 -0.3263  0.0863  0.8102
  464MOL0     C62570   8.375   1.672   6.772  0.1898 -0.0867  0.5984
  464MOL0     C62571   8.473   1.761   6.732 -0.2440 -0.3748  0.1949
  464MOL0     C62572   8.582   1.714   6.638  0.1928  0.7721 -0.1131
  464MOL0     H62573   8.759   2.212   6.770 -1.9013  0.1985 -2.3800
  464MOL0     H62574   8.978   2.324   6.725 -1.3328  0.0864  1.1050
  464MOL0     H62575   9.233   2.205   6.777  2.0276  2.0915  0.8687
  464MOL0     H62576   9.286   2.087   6.667 -2.8870 -1.0045 -1.4237
  464MOL0     H62577   9.335   2.391   6.672 -1.0405 -0.0221 -1.1602
  464MOL0     H62578   9.436   2.272   6.577  1.5998  1.5334  1.2027
  464MOL0     H62579   9.517   2.179   6.799 -3.5616 -2.0172 -0.7008
  464MOL0     H62580   9.435   2.315   6.882 -0.0892 -2.1470  1.0562
  464MOL0     H62581   9.653   2.321   6.660  0.7808  2.4613 -2.3427
  464MOL0     H62582   9.568   2.463   6.717  2.4711 -0.6877 -3.5182
  464MOL0     H62583   9.671   2.461   6.921 -1.0650 -0.4642 -0.0919
  464MOL0     H62584   9.734   2.290   6.916 -1.1851  0.7998  2.7241
  464MOL0     H62585   9.880   2.357   6.727 -1.4883 -1.2396 -0.1572
  464MOL0     H62586   9.823   2.523   6.734 -0.1275 -1.0390 -1.1290
  464MOL0     H62587   9.982   2.390   6.962  1.6245 -0.4593 -0.6394
  464MOL0     H62588   9.915   2.547   6.970  2.9724 -0.7424  2.5219
  464MOL0     H62589  10.144   2.455   6.777  1.2978  0.4666  1.1906
  464MOL0     H62590  10.048   2.599   6.737  0.7350  1.3942  0.7039
  464MOL0     H62591  10.152   2.531   7.097  2.6719 -0.8929  1.9734
  464MOL0     H62592  10.354   2.657   7.251  0.8901  1.4526  0.2362
  464MOL0     H62593  10.481   2.588   7.153 -1.1742 -0.6733  1.4717
  464MOL0     H62594  10.546   2.820   7.081 -0.6624 -1.1142 -0.6719
  464MOL0     H62595  10.413   2.879   7.196  0.9371  1.0099  0.1551
  464MOL0     H62596  10.558   2.724   7.367  1.9410 -2.1617 -0.9237
  464MOL0     H62597  10.601   2.893   7.340 -1.1260 -0.7114  1.1615
  464MOL0     H62598  10.779   2.860   7.212 -0.0598  1.7031  2.0249
  464MOL0     H62599  10.730   2.685   7.183  0.1791  0.1319 -0.5023
  464MOL0     H62600  10.950   2.782   7.546 -0.7043  0.6139 -1.0842
  464MOL0     H62601  11.213   2.751   7.548 -1.0064 -0.3110 -0.3480
  464MOL0     H62602  11.612   2.706   7.259 -0.9985  0.5131  0.3395
  464MOL0     H62603  11.856   2.688   7.312 -1.0609  2.2511 -0.6339
  464MOL0     H62604  11.993   2.474   7.644  2.7156 -0.8069  0.3882
  464MOL0     H62605  11.971   2.455   7.465  0.0678 -0.9760  0.4778
  464MOL0     H62606  12.199   2.410   7.503  4.4581  1.2273 -1.4111
  464MOL0     H62607  12.212   2.572   7.452  1.2547 -0.8074  0.4882
  464MOL0     H62608  12.336   2.594   7.622 -0.6974  0.8378 -4.7822
  464MOL0     H62609  12.188   2.622   7.713  1.4015  1.3242 -2.0846
  464MOL0     H62610  12.178   2.386   7.786  0.1654 -2.0743  0.5839
  464MOL0     H62611  12.321   2.479   7.839  0.5826 -1.4805 -0.0430
  464MOL0     H62612  12.456   2.367   7.661  0.9516 -2.8860  1.1823
  464MOL0     H62613  12.313   2.262   7.647 -2.9712  1.5925  1.0292
  464MOL0     H62614  12.511   2.345   7.871  1.7804 -0.0509 -1.4061
  464MOL0     H62615  12.366   2.254   7.918  1.7617  2.0507  1.7519
  464MOL0     H62616  12.572   2.157   7.713 -3.2727  0.3578 -2.2316
  464MOL0     H62617  12.437   2.059   7.774 -1.5974  0.5308  1.7247
  464MOL0     H62618  12.675   2.165   7.946 -1.2772  1.8381 -2.0272
  464MOL0     H62619  12.554   2.056   8.002  0.1805 -2.8449 -0.2491
  464MOL0     H62620  11.772   2.618   7.732  2.6700  0.0446 -0.7509
  464MOL0     H62621  11.532   2.672   7.680 -0.5837 -0.2094  0.2742
  464MOL0     H62622  11.163   2.518   7.184 -1.3772 -1.2985 -0.6606
  464MOL0     H62623  10.934   2.563   7.191 -0.0409 -0.5475 -1.1441
  464MOL0     H62624   9.113   1.988   6.505 -0.6870 -3.1199  2.1322
  464MOL0     H62625   8.899   1.882   6.529 -1.0999  0.0686 -1.0807
  464MOL0     H62626   8.415   2.015   6.935 -2.8339 -0.1972  0.4066
  464MOL0     H62627   8.219   1.892   6.985  0.9957  1.2994 -0.0123
  464MOL0     H62628   8.246   1.438   6.870 -1.5761 -1.5179  2.0223
  464MOL0     H62629   8.134   1.498   6.741 -0.6964  0.4754  0.7198
  464MOL0     H62630   8.053   1.444   7.026  2.4690 -2.6142 -0.8585
  464MOL0     H62631   8.039   1.329   6.891 -0.8502  1.0457 -3.9274
  464MOL0     H62632   7.906   1.502   6.774 -0.9666  0.8150 -0.0268
  464MOL0     H62633   7.898   1.595   6.911 -2.3599 -1.0457  0.0308
  464MOL0     H62634   7.813   1.315   6.947 -1.6458 -0.3144 -0.7411
  464MOL0     H62635   7.775   1.459   7.051 -1.6863 -2.3143  1.7721
  464MOL0     H62636   7.479   1.532   6.772  0.9512  1.4247 -0.7715
  464MOL0     H62637   8.360   1.576   6.723 -0.7043 -0.2457  1.1572
  464MOL0     H62638   8.580   1.606   6.623  0.6241  0.7694 -0.1820
  464MOL0     H62639   8.555   1.771   6.548 -1.3856  3.1178  1.7144
  464MOL0     H62640   8.688   1.735   6.656  0.0391  1.0220  0.5402
  465MOL0     O62641   7.374  10.944   4.721  0.2271 -0.0936  0.1612
  465MOL0     C62642   7.384  10.847   4.795 -0.0420 -0.1808 -0.0859
  465MOL0     O62643   7.501  10.780   4.829 -0.7315 -0.4101 -0.5764
  465MOL0     C62644   7.630  10.830   4.794  0.1021  0.2125 -0.1712
  465MOL0     C62645   7.730  10.785   4.878 -0.2211  0.0037 -0.8138
  465MOL0     C62646   7.867  10.810   4.850  0.0501  0.0355  0.2505
  465MOL0     C62647   7.900  10.891   4.743 -0.1174 -0.3765 -0.4175
  465MOL0     O62648   8.032  10.909   4.700 -0.1539  0.0790  0.0035
  465MOL0     C62649   8.137  10.827   4.762 -0.6750 -0.0935  0.7382
  465MOL0     C62650   8.261  10.860   4.680 -0.0429  0.3058 -0.4945
  465MOL0     C62651   8.369  10.749   4.717 -1.0014 -0.0479 -0.2647
  465MOL0     C62652   8.514  10.790   4.666 -0.0014 -0.4165 -0.0283
  465MOL0     C62653   8.610  10.674   4.704  0.4608 -0.9512 -0.3747
  465MOL0     C62654   8.750  10.691   4.644 -0.2250  1.2750  0.1834
  465MOL0     C62655   8.839  10.798   4.705  0.1651 -0.8274 -0.1561
  465MOL0     C62656   8.981  10.775   4.664  0.6782 -0.6590 -0.1230
  465MOL0     N62657   9.087  10.863   4.716  0.4490  0.4517  0.3682
  465MOL0     C62658   9.166  10.855   4.829 -0.5009  0.0097 -0.6148
  465MOL0     C62659   9.235  10.970   4.826 -0.5905  0.2485 -0.2833
  465MOL0     C62660   9.323  11.004   4.944  0.6099 -0.6228  0.3942
  465MOL0     C62661   9.472  10.969   4.927 -0.7751 -0.1205  0.3336
  465MOL0     C62662   9.533  11.044   4.808  0.6152 -1.2520 -0.3093
  465MOL0     C62663   9.684  11.028   4.800  0.2732 -0.5072 -0.7438
  465MOL0     O62664   9.753  11.086   4.915  0.2298  0.2976 -0.2485
  465MOL0     C62665   9.889  11.049   4.922 -0.3490  0.0468 -0.3632
  465MOL0     C62666   9.954  10.935   4.871  0.4411  0.6983  0.4010
  465MOL0     C62667  10.094  10.921   4.873  0.5071 -0.4428 -0.9433
  465MOL0     C62668  10.168  11.023   4.933 -1.0441  0.1954  0.1049
  465MOL0     C62669  10.311  10.991   4.971 -0.9364 -0.5208 -0.1267
  465MOL0     O62670  10.380  11.074   5.051 -0.2410  0.7208 -0.4485
  465MOL0     C62671  10.517  11.078   5.046  0.4768  0.5673  0.2022
  465MOL0     C62672  10.591  10.991   5.129  0.3242 -0.0029 -0.6617
  465MOL0     C62673  10.733  10.986   5.113 -0.2784  1.2981 -0.3008
  465MOL0     C62674  10.792  11.072   5.019 -0.1138 -0.0644 -0.0868
  465MOL0     O62675  10.929  11.065   5.013 -0.3918  0.2064  0.4859
  465MOL0     C62676  10.996  11.175   5.071  0.0686  0.5439 -0.6053
  465MOL0     C62677  11.148  11.165   5.048 -0.0137 -0.1698 -0.0396
  465MOL0     C62678  11.178  11.142   4.903 -0.8105  0.3427  0.2198
  465MOL0     C62679  11.336  11.133   4.905 -1.1319  0.5507  0.3252
  465MOL0     C62680  11.387  11.077   4.772  0.7403  0.4466 -0.4214
  465MOL0     C62681  11.536  11.102   4.761  0.2271 -0.1741  0.8097
  465MOL0     C62682  11.589  11.011   4.661 -0.7375  0.0045  0.4491
  465MOL0     C62683  11.732  11.052   4.640 -0.1758 -0.3256  0.1788
  465MOL0    Cl62684  11.821  10.953   4.524 -0.4856  0.0012  0.3156
  465MOL0     C62685  10.715  11.163   4.947 -0.3718  0.0725 -0.1245
  465MOL0     C62686  10.578  11.168   4.963  0.0126 -0.8670  0.3143
  465MOL0     O62687  10.359  10.895   4.920 -0.3891  0.5642  0.7838
  465MOL0     C62688  10.108  11.139   4.975 -0.5590  0.2802 -0.4630
  465MOL0     C62689   9.973  11.148   4.971 -0.2829 -0.9140 -1.1153
  465MOL0     N62690   9.201  11.051   4.718 -0.3550  0.3408  0.0890
  465MOL0     N62691   9.113  10.979   4.656 -0.1897 -0.3286 -0.8286
  465MOL0     C62692   7.798  10.952   4.663 -1.2973  0.5035 -0.6984
  465MOL0     C62693   7.667  10.923   4.696  0.2044 -0.6562  0.1426
  465MOL0     C62694   7.256  10.812   4.853  0.6219  0.1311 -0.9594
  465MOL0     C62695   7.158  10.906   4.898 -0.2472 -0.4313  0.3642
  465MOL0     C62696   7.051  10.871   4.970  0.3497  0.1778 -0.4249
  465MOL0     C62697   7.019  10.744   4.999 -0.2629  0.6757  0.6130
  465MOL0     O62698   6.910  10.715   5.082 -1.1011  0.1942 -0.4478
  465MOL0     C62699   6.836  10.599   5.047 -0.6168  0.2054  0.3939
  465MOL0     C62700   6.706  10.606   5.113  0.5244 -0.6098 -0.2410
  465MOL0     C62701   6.615  10.485   5.090 -0.1613 -0.3698  0.6990
  465MOL0     C62702   6.483  10.494   5.167 -1.2938 -0.5315  0.0787
  465MOL0     C62703   6.398  10.611   5.147  0.3806 -0.1762 -0.5840
  465MOL0     C62704   6.338  10.716   5.128  0.1762 -0.7543  0.5431
  465MOL0     C62705   7.109  10.647   4.954  0.2364 -0.3536  0.1191
  465MOL0     C62706   7.226  10.677   4.878  0.0115  0.1778 -0.1922
  465MOL0     C62707   7.313  10.558   4.832  0.0575 -0.5787 -0.1649
  465MOL0     H62708   7.709  10.711   4.954 -0.8368  1.7411  0.7715
  465MOL0     H62709   7.943  10.756   4.906 -1.0775 -1.7743  0.0821
  465MOL0     H62710   8.157  10.853   4.867 -1.2678 -0.3678  0.9261
  465MOL0     H62711   8.107  10.722   4.761 -0.7898 -0.1028 -2.0406
  465MOL0     H62712   8.307  10.958   4.695  2.5862 -0.7062 -1.4091
  465MOL0     H62713   8.226  10.846   4.577 -1.2987 -0.7792  0.0568
  465MOL0     H62714   8.348  10.650   4.676  2.0166  0.3520 -3.1463
  465MOL0     H62715   8.379  10.737   4.826 -0.0247 -4.7568 -0.6892
  465MOL0     H62716   8.523  10.816   4.560  0.3978  0.4959  0.2197
  465MOL0     H62717   8.560  10.882   4.704  1.3862 -0.1132 -2.2632
  465MOL0     H62718   8.607  10.661   4.813 -0.8059  2.8296  0.1974
  465MOL0     H62719   8.554  10.592   4.659 -1.4319 -0.1666  0.4613
  465MOL0     H62720   8.806  10.597   4.637  2.7875  2.9891 -0.8756
  465MOL0     H62721   8.747  10.728   4.541  0.8279  0.9103  0.0079
  465MOL0     H62722   8.827  10.796   4.814  0.1313 -0.3635 -0.1514
  465MOL0     H62723   8.797  10.893   4.672 -1.1153 -0.2882  2.7374
  465MOL0     H62724   9.002  10.672   4.696 -2.9025 -1.7822 -0.9020
  465MOL0     H62725   8.996  10.781   4.555  2.1997  1.5030  0.1452
  465MOL0     H62726   9.168  10.779   4.906 -0.1739  0.0944 -0.5397
  465MOL0     H62727   9.311  11.111   4.964  2.3211 -0.5747  1.3770
  465MOL0     H62728   9.285  10.947   5.029  1.2221 -2.7890 -0.7006
  465MOL0     H62729   9.529  11.006   5.013  0.7339 -0.9893 -0.2619
  465MOL0     H62730   9.489  10.862   4.915  1.8628  0.3900 -1.2706
  465MOL0     H62731   9.520  11.149   4.834 -0.3749 -0.9961 -1.7529
  465MOL0     H62732   9.483  11.017   4.715  0.2566 -3.3668  0.4323
  465MOL0     H62733   9.715  11.076   4.706  0.7533 -2.6188 -1.7265
  465MOL0     H62734   9.692  10.920   4.787 -0.6352 -0.3860 -2.7955
  465MOL0     H62735   9.891  10.865   4.818  1.1076  0.7665 -0.5243
  465MOL0     H62736  10.135  10.828   4.835  2.3194 -0.8583  1.7919
  465MOL0     H62737  10.537  10.931   5.201  0.1864  2.6259  1.5642
  465MOL0     H62738  10.796  10.921   5.173 -0.5315  1.4772  0.1617
  465MOL0     H62739  10.954  11.265   5.025 -1.1626 -0.8528 -2.3584
  465MOL0     H62740  10.984  11.177   5.179  0.8928 -5.3362 -0.0480
  465MOL0     H62741  11.193  11.259   5.080 -2.6408  0.3059  2.8234
  465MOL0     H62742  11.191  11.080   5.102  1.0239  1.7308  2.2872
  465MOL0     H62743  11.135  11.048   4.865  0.7113 -0.0394 -0.6243
  465MOL0     H62744  11.145  11.219   4.833  0.8106  1.2158  0.3707
  465MOL0     H62745  11.368  11.064   4.984 -2.1139 -3.9730 -2.8465
  465MOL0     H62746  11.380  11.230   4.930  1.9091 -1.3996  3.3469
  465MOL0     H62747  11.352  11.125   4.680  3.9987 -2.1617 -3.2529
  465MOL0     H62748  11.361  10.971   4.773  0.0436  0.6073  0.4267
  465MOL0     H62749  11.566  11.206   4.744  2.5030 -1.0253 -0.7450
  465MOL0     H62750  11.589  11.083   4.855  0.6067  1.1221  0.8834
  465MOL0     H62751  11.540  11.017   4.563  0.9523 -1.1421 -0.5091
  465MOL0     H62752  11.595  10.904   4.682  2.6028 -0.2472 -1.1298
  465MOL0     H62753  11.749  11.154   4.604 -1.5668  0.1649  0.8592
  465MOL0     H62754  11.780  11.040   4.738 -0.2293  1.8526  0.5212
  465MOL0     H62755  10.766  11.226   4.874  1.6040 -1.0148  0.2354
  465MOL0     H62756  10.518  11.233   4.901 -0.1756 -0.6169  0.7570
  465MOL0     H62757  10.167  11.219   5.020  1.2934 -2.0992  1.6799
  465MOL0     H62758   9.921  11.236   5.006  1.5106  0.4623 -1.7633
  465MOL0     H62759   7.831  11.018   4.584  0.3956 -1.1105 -1.4173
  465MOL0     H62760   7.584  10.969   4.643 -0.3379 -1.6757  0.0839
  465MOL0     H62761   7.186  11.008   4.877  0.5384 -0.7950 -0.4333
  465MOL0     H62762   6.976  10.939   5.009  0.3179  1.3617 -2.3708
  465MOL0     H62763   6.897  10.518   5.086  3.3165  1.8802 -1.6970
  465MOL0     H62764   6.834  10.579   4.939  2.6142 -1.3605  0.5157
  465MOL0     H62765   6.658  10.698   5.078  0.8363 -0.9255 -1.5577
  465MOL0     H62766   6.729  10.612   5.219  0.6272 -0.6136 -0.2634
  465MOL0     H62767   6.665  10.395   5.125 -0.1301 -0.1444  1.2505
  465MOL0     H62768   6.604  10.475   4.982  0.7138 -0.2451  0.5919
  465MOL0     H62769   6.428  10.403   5.140 -1.8678 -0.5969  1.3890
  465MOL0     H62770   6.509  10.486   5.273  0.8449 -1.3182 -0.4450
  465MOL0     H62771   6.280  10.803   5.104 -1.6557 -1.7401  1.1767
  465MOL0     H62772   7.093  10.542   4.974  1.5983 -0.8979 -1.4566
  465MOL0     H62773   7.378  10.586   4.748  0.6973  0.1634  0.5708
  465MOL0     H62774   7.377  10.518   4.911  2.1932 -3.4201 -3.0192
  465MOL0     H62775   7.249  10.474   4.803 -1.3522  1.5043 -3.7812
  466MOL0     O62776   8.848   6.440  10.857  0.1661  0.3525  0.5688
  466MOL0     C62777   8.830   6.390  10.973 -0.4893  0.6059 -0.2471
  466MOL0     O62778   8.925   6.356  11.060  0.2689  0.1995 -0.2511
  466MOL0     C62779   9.052   6.384  11.026  0.7034  0.7772  0.4481
  466MOL0     C62780   9.145   6.281  11.013 -0.3561  0.0927  1.1751
  466MOL0     C62781   9.282   6.313  10.979  0.6665  0.0679 -0.7442
  466MOL0     C62782   9.327   6.438  10.969 -0.2370  0.4228 -0.4659
  466MOL0     O62783   9.463   6.446  10.933  0.3905 -0.3695 -0.1366
  466MOL0     C62784   9.526   6.579  10.934 -0.1371 -0.6458 -0.6337
  466MOL0     C62785   9.547   6.636  11.079 -0.1422 -0.4403  0.1185
  466MOL0     C62786   9.662   6.564  11.150  0.1537 -0.7048 -0.8588
  466MOL0     C62787   9.755   6.675  11.206  0.8685 -0.1946 -0.5375
  466MOL0     C62788   9.864   6.632  11.308  0.8903 -0.0483 -0.3755
  466MOL0     C62789   9.803   6.609  11.445 -0.2028  0.5096 -0.2640
  466MOL0     C62790   9.912   6.583  11.559 -0.3265 -0.0274 -0.0067
  466MOL0     C62791   9.842   6.562  11.690  0.2885 -0.2172  0.5282
  466MOL0     N62792   9.788   6.425  11.700 -0.0623 -0.1435 -0.0017
  466MOL0     C62793   9.839   6.318  11.768 -0.2709 -0.3841  0.0274
  466MOL0     C62794   9.757   6.213  11.756 -0.9085 -0.6601  0.2904
  466MOL0     C62795   9.778   6.077  11.826  0.8115 -0.4218  0.5306
  466MOL0     C62796   9.862   5.989  11.737  0.0727  0.5454  0.0985
  466MOL0     C62797   9.935   5.866  11.808 -0.2258 -0.4084  0.6325
  466MOL0     C62798  10.080   5.902  11.838 -1.2467  0.1103  0.1488
  466MOL0     O62799  10.101   6.035  11.899  0.5783 -0.0775  0.5362
  466MOL0     C62800  10.225   6.091  11.921  0.3274 -0.3838 -0.2404
  466MOL0     C62801  10.346   6.023  11.920 -0.4652 -0.4437 -0.1858
  466MOL0     C62802  10.468   6.084  11.967  0.3863 -0.5957  0.1254
  466MOL0     C62803  10.469   6.211  12.017  0.2221 -0.0306 -0.5810
  466MOL0     C62804  10.588   6.281  12.066 -0.7010 -0.2072  0.0143
  466MOL0     O62805  10.579   6.336  12.189 -0.2876  0.3344 -0.1347
  466MOL0     C62806  10.681   6.408  12.238  0.1482  0.3493 -0.4243
  466MOL0     C62807  10.684   6.546  12.232 -0.0868  0.5589  0.5702
  466MOL0     C62808  10.792   6.609  12.292  0.0257 -0.3970 -0.0098
  466MOL0     C62809  10.891   6.548  12.362  0.1468  0.4855 -0.0476
  466MOL0     O62810  10.995   6.605  12.426  0.0380 -0.7443 -0.1965
  466MOL0     C62811  11.051   6.735  12.382 -0.4438 -0.0819  0.0338
  466MOL0     C62812  11.006   6.850  12.475 -0.5561  0.6337 -0.1906
  466MOL0     C62813  11.098   6.973  12.442 -0.0972 -0.3004 -0.5316
  466MOL0     C62814  11.076   7.089  12.538 -0.0950  0.1459  0.5909
  466MOL0     C62815  11.168   7.208  12.514  0.6563 -0.5542 -0.0052
  466MOL0     C62816  11.145   7.281  12.382 -0.0151 -0.3168 -0.9837
  466MOL0     C62817  11.237   7.403  12.347 -0.4811 -0.0305 -0.4767
  466MOL0     C62818  11.154   7.514  12.288 -0.4655  0.3800 -0.0642
  466MOL0    Cl62819  11.264   7.660  12.278 -0.4949  0.1068  0.0030
  466MOL0     C62820  10.890   6.409  12.366  0.4459 -0.8131  0.4260
  466MOL0     C62821  10.785   6.339  12.304 -0.7466  0.2741 -0.1820
  466MOL0     O62822  10.689   6.285  11.989 -0.3147 -0.6004  0.2368
  466MOL0     C62823  10.341   6.278  12.015  0.1960  1.3472 -0.2808
  466MOL0     C62824  10.221   6.220  11.965 -0.1801  0.6164 -1.1942
  466MOL0     N62825   9.660   6.255  11.670  0.5225 -0.0543  0.8875
  466MOL0     N62826   9.677   6.380  11.639 -0.4390  0.1774  0.1567
  466MOL0     C62827   9.231   6.544  10.983 -0.0079 -0.4894 -0.3405
  466MOL0     C62828   9.099   6.516  11.010  0.7191  0.0965 -0.1738
  466MOL0     C62829   8.692   6.374  11.016 -0.4530 -0.1766  0.7260
  466MOL0     C62830   8.622   6.491  11.049 -0.1990  0.4202 -0.0920
  466MOL0     C62831   8.497   6.487  11.108  0.4157  0.7200 -0.2167
  466MOL0     C62832   8.431   6.362  11.115  1.2933 -0.0962 -1.0602
  466MOL0     O62833   8.300   6.348  11.147  0.2392  0.1195  0.2426
  466MOL0     C62834   8.241   6.435  11.235  0.2216  0.0471 -0.2195
  466MOL0     C62835   8.193   6.556  11.156  0.0542  0.5495  0.3976
  466MOL0     C62836   8.056   6.526  11.083 -0.7574  0.5466  0.0309
  466MOL0     C62837   7.993   6.649  11.004 -0.0115 -0.6461  0.4519
  466MOL0     C62838   7.985   6.761  11.090  0.0981 -0.7279  0.5502
  466MOL0     C62839   7.984   6.860  11.159  0.1147  0.1432  0.3077
  466MOL0     C62840   8.501   6.248  11.081  1.0367  0.5216  0.1525
  466MOL0     C62841   8.629   6.249  11.036 -0.3475 -1.1080 -0.4547
  466MOL0     C62842   8.707   6.122  10.995 -0.4753 -0.1652  0.6586
  466MOL0     H62843   9.121   6.176  11.032  0.9479 -1.0055 -2.3998
  466MOL0     H62844   9.356   6.234  10.964 -0.6300 -1.7939  1.8701
  466MOL0     H62845   9.622   6.580  10.882 -0.6280 -1.5978 -1.6073
  466MOL0     H62846   9.456   6.646  10.882 -0.4342  0.3475  0.9711
  466MOL0     H62847   9.457   6.612  11.136 -2.0375  0.9956 -2.0953
  466MOL0     H62848   9.563   6.744  11.075 -1.2511 -0.2604  0.3535
  466MOL0     H62849   9.725   6.495  11.093  0.4740 -2.6526  1.6883
  466MOL0     H62850   9.636   6.500  11.234  0.5157  2.0976  1.5473
  466MOL0     H62851   9.801   6.711  11.113  0.4614 -0.0506 -0.6851
  466MOL0     H62852   9.695   6.755  11.250  0.4806  0.5262 -2.2592
  466MOL0     H62853   9.920   6.542  11.278  0.0659 -0.9702  0.7570
  466MOL0     H62854   9.933   6.716  11.321  0.1393  0.7163 -1.2428
  466MOL0     H62855   9.749   6.698  11.480 -1.1055 -0.5095  1.0132
  466MOL0     H62856   9.739   6.521  11.445  0.5161 -0.0198  0.2811
  466MOL0     H62857   9.976   6.671  11.567 -1.2556  0.7346 -0.7079
  466MOL0     H62858   9.962   6.491  11.529 -1.6409 -0.7825  0.0115
  466MOL0     H62859   9.906   6.582  11.777  3.8104 -1.6835 -1.5217
  466MOL0     H62860   9.760   6.634  11.688  0.9403  0.6500  2.3442
  466MOL0     H62861   9.931   6.320  11.827 -0.6825 -0.6757  0.6920
  466MOL0     H62862   9.827   6.089  11.923 -1.5738  0.9191  1.6694
  466MOL0     H62863   9.684   6.022  11.835  0.4425  0.0325 -0.3497
  466MOL0     H62864   9.783   5.959  11.667 -1.4190  0.7060  1.6566
  466MOL0     H62865   9.945   6.044  11.691  1.5445 -2.6694 -1.3772
  466MOL0     H62866   9.945   5.787  11.733  3.3360  0.6388 -0.1861
  466MOL0     H62867   9.876   5.830  11.893 -3.3854  1.2749 -0.6418
  466MOL0     H62868  10.140   5.899  11.746  0.1067 -2.7897  1.0062
  466MOL0     H62869  10.125   5.827  11.903 -2.6437  2.8328  4.6863
  466MOL0     H62870  10.356   5.919  11.890  0.6289 -0.2161 -0.6834
  466MOL0     H62871  10.560   6.028  11.957 -0.3121 -1.8524  0.5393
  466MOL0     H62872  10.599   6.599  12.191  0.8112  2.1139  0.6444
  466MOL0     H62873  10.777   6.716  12.295 -1.6077 -0.5564 -1.2318
  466MOL0     H62874  11.160   6.726  12.376 -0.4023  1.0776 -1.8411
  466MOL0     H62875  11.007   6.757  12.284 -0.3678 -0.3242 -0.0553
  466MOL0     H62876  10.902   6.883  12.462  0.1672  2.5289 -1.4520
  466MOL0     H62877  11.023   6.819  12.579  2.3448 -0.7209 -0.9675
  466MOL0     H62878  11.203   6.939  12.442 -0.8863 -3.1405  1.1048
  466MOL0     H62879  11.087   7.008  12.339  0.6436 -1.1182 -0.9010
  466MOL0     H62880  11.072   7.053  12.641 -0.1311  1.4447  1.0734
  466MOL0     H62881  10.978   7.134  12.518 -0.7062 -1.5358 -0.3271
  466MOL0     H62882  11.270   7.170  12.516  0.9453 -0.1926 -2.9247
  466MOL0     H62883  11.155   7.277  12.598  2.1435 -1.7342  1.2470
  466MOL0     H62884  11.178   7.212  12.304  1.1583 -0.1182 -0.6815
  466MOL0     H62885  11.039   7.307  12.374 -0.4052 -1.5714 -0.1897
  466MOL0     H62886  11.324   7.378  12.286  1.7161  2.4672  1.4411
  466MOL0     H62887  11.285   7.433  12.440 -0.4430 -0.4769 -0.3502
  466MOL0     H62888  11.120   7.481  12.189  2.0708 -0.1109 -0.8519
  466MOL0     H62889  11.077   7.535  12.362  1.1436  0.1239  1.7503
  466MOL0     H62890  10.969   6.346  12.408 -0.1232 -0.8927  1.4186
  466MOL0     H62891  10.796   6.231  12.307  1.2686  0.4353 -0.1243
  466MOL0     H62892  10.326   6.366  12.076 -3.5047  0.5816  0.1265
  466MOL0     H62893  10.127   6.274  11.974 -0.3603  0.1282  0.1213
  466MOL0     H62894   9.248   6.651  10.980  1.5092 -0.6042  1.9414
  466MOL0     H62895   9.027   6.594  11.034  0.8175 -0.4256  2.0420
  466MOL0     H62896   8.670   6.588  11.046 -0.1801  0.4358  0.5531
  466MOL0     H62897   8.451   6.570  11.161 -4.4507 -1.7331 -0.0156
  466MOL0     H62898   8.314   6.468  11.309 -0.8372  0.5505  0.6397
  466MOL0     H62899   8.156   6.390  11.287 -0.4422 -0.7881 -1.9617
  466MOL0     H62900   8.258   6.599  11.080  2.0328  2.3138  2.8788
  466MOL0     H62901   8.175   6.639  11.225 -3.6775 -0.0820  0.4103
  466MOL0     H62902   7.980   6.497  11.156  1.7448 -0.0680  2.5613
  466MOL0     H62903   8.068   6.443  11.013  2.6201 -1.3727  2.5542
  466MOL0     H62904   8.048   6.681  10.915  0.1510  0.0019  0.7771
  466MOL0     H62905   7.890   6.627  10.974  0.7798 -1.6747 -1.6996
  466MOL0     H62906   7.983   6.947  11.222  2.7789  0.1451  0.4663
  466MOL0     H62907   8.452   6.151  11.087  1.7247  0.1852  0.5065
  466MOL0     H62908   8.780   6.133  10.915 -0.2052  3.2749  1.2391
  466MOL0     H62909   8.764   6.094  11.084 -2.4645  0.4860  2.2089
  466MOL0     H62910   8.646   6.040  10.956 -1.5344  0.4016  1.0801
  467MOL0     O62911   5.912  10.297   1.942 -0.4794  0.6648  0.0905
  467MOL0     C62912   5.856  10.193   1.953  0.8711  0.3867  0.4063
  467MOL0     O62913   5.910  10.071   1.962 -0.2825 -0.3902  0.9382
  467MOL0     C62914   6.046  10.057   1.949 -0.6910 -0.6435 -0.3140
  467MOL0     C62915   6.136  10.101   2.047  1.1330 -0.1276  0.5785
  467MOL0     C62916   6.269  10.055   2.039 -0.4092 -0.7545 -0.0449
  467MOL0     C62917   6.320   9.986   1.932 -0.0385  0.4013  0.3241
  467MOL0     O62918   6.454   9.946   1.913  0.7799 -0.0082 -0.2032
  467MOL0     C62919   6.498   9.834   1.990 -0.6640 -0.6372 -0.0696
  467MOL0     C62920   6.432   9.704   1.958 -0.6067 -0.2215 -0.5654
  467MOL0     C62921   6.497   9.591   2.049  0.4352  0.4093  0.7279
  467MOL0     C62922   6.641   9.563   2.019  0.3664  0.1888 -0.1747
  467MOL0     C62923   6.705   9.451   2.108 -0.2013  0.1918  0.3416
  467MOL0     C62924   6.692   9.472   2.256 -0.4361 -0.0963 -0.4010
  467MOL0     C62925   6.753   9.595   2.313 -0.7228  0.0786  0.4429
  467MOL0     C62926   6.906   9.585   2.328 -0.2889 -1.0674 -0.6178
  467MOL0     N62927   6.981   9.590   2.201  0.4182  0.5392 -0.4980
  467MOL0     C62928   6.990   9.701   2.117  0.2737 -0.6741  0.2203
  467MOL0     C62929   7.101   9.673   2.047 -0.3002 -0.2852  0.2156
  467MOL0     C62930   7.176   9.763   1.960 -0.3065 -1.3992  0.1311
  467MOL0     C62931   7.324   9.733   1.948 -0.1527 -0.0496 -0.1496
  467MOL0     C62932   7.390   9.856   1.893 -0.4498 -0.7692 -0.2086
  467MOL0     C62933   7.529   9.827   1.846 -0.0545  0.5965 -0.1943
  467MOL0     O62934   7.588   9.949   1.814  0.0213 -0.9399 -0.5132
  467MOL0     C62935   7.711   9.952   1.746  0.4535  0.2532 -0.1588
  467MOL0     C62936   7.751   9.836   1.681  0.5150  0.9966 -0.6935
  467MOL0     C62937   7.868   9.835   1.611 -0.4111 -0.1794 -0.5387
  467MOL0     C62938   7.944   9.952   1.592 -0.3026 -0.2363 -0.5240
  467MOL0     C62939   8.055   9.958   1.498 -0.2247 -0.4257  0.8941
  467MOL0     O62940   8.101  10.079   1.459  0.6434 -0.8149 -0.1963
  467MOL0     C62941   8.210  10.091   1.372 -0.5270 -0.0088  0.2989
  467MOL0     C62942   8.336  10.036   1.401  0.1187  0.7103  0.3081
  467MOL0     C62943   8.447  10.058   1.322 -0.5179  0.7435  0.6860
  467MOL0     C62944   8.441  10.146   1.224  0.1043  0.5064  1.4854
  467MOL0     O62945   8.543  10.177   1.132 -0.2556  0.1520  0.3811
  467MOL0     C62946   8.638  10.069   1.114 -0.2595  0.0280  0.3778
  467MOL0     C62947   8.751  10.112   1.027 -0.4578 -0.5604 -0.0009
  467MOL0     C62948   8.863  10.017   1.019  0.0609 -0.5244 -0.3200
  467MOL0     C62949   8.973  10.067   1.112  0.1284 -1.1556 -0.6262
  467MOL0     C62950   9.075   9.953   1.124  0.4728  1.1146  0.2712
  467MOL0     C62951   9.173   9.961   1.236 -0.1036 -0.1000  0.9208
  467MOL0     C62952   9.272   9.840   1.246  0.2137  0.2973 -0.5393
  467MOL0     C62953   9.365   9.844   1.363 -0.4020  0.1994  0.3313
  467MOL0    Cl62954   9.470   9.991   1.347  0.0449 -0.3757 -0.2508
  467MOL0     C62955   8.323  10.215   1.202 -0.4575 -0.1007 -0.3674
  467MOL0     C62956   8.208  10.193   1.273  0.6899  0.1017 -0.0825
  467MOL0     O62957   8.095   9.847   1.464 -0.4428 -0.4247 -0.5386
  467MOL0     C62958   7.906  10.063   1.667 -0.3672  0.2430  0.0826
  467MOL0     C62959   7.792  10.063   1.742  0.7734 -0.5642  0.2162
  467MOL0     N62960   7.145   9.544   2.069  0.3882 -0.3013 -0.7522
  467MOL0     N62961   7.074   9.501   2.168 -0.2116  0.4068 -0.5145
  467MOL0     C62962   6.224   9.939   1.833 -0.1189  0.2328  0.1687
  467MOL0     C62963   6.087   9.976   1.837  0.4965 -0.2624 -0.3059
  467MOL0     C62964   5.703  10.203   1.977  0.1891  0.2063  0.0862
  467MOL0     C62965   5.623  10.293   1.898 -0.3104  0.4241  0.7209
  467MOL0     C62966   5.487  10.302   1.905  0.4228 -0.0978 -0.4028
  467MOL0     C62967   5.421  10.222   1.999 -0.6315  0.3725 -0.3407
  467MOL0     O62968   5.290  10.216   1.998  0.6560  0.7760 -0.3036
  467MOL0     C62969   5.211  10.329   2.033 -0.3730  0.0296  0.1000
  467MOL0     C62970   5.121  10.375   1.923  0.0368 -0.3037  0.9956
  467MOL0     C62971   5.014  10.282   1.892  0.2285  0.0610 -0.3742
  467MOL0     C62972   4.938  10.337   1.772 -0.1323  0.0091 -0.0565
  467MOL0     C62973   4.862  10.453   1.817  0.6624  0.1132 -0.4816
  467MOL0     C62974   4.805  10.546   1.868  0.3466  0.2101  0.2943
  467MOL0     C62975   5.492  10.132   2.075  0.5789  0.4129  0.1439
  467MOL0     C62976   5.633  10.130   2.075 -0.0960 -0.3054 -0.0531
  467MOL0     C62977   5.706  10.055   2.186 -0.0005 -0.1845 -0.0724
  467MOL0     H62978   6.103  10.157   2.134 -2.0648  0.1968 -0.7054
  467MOL0     H62979   6.346  10.088   2.108 -0.2091 -0.3992 -0.4345
  467MOL0     H62980   6.605   9.826   1.965 -1.4432 -0.4335 -4.3206
  467MOL0     H62981   6.477   9.864   2.093  1.5357 -0.1251  0.2966
  467MOL0     H62982   6.447   9.673   1.854  3.7676 -1.0783  0.1275
  467MOL0     H62983   6.324   9.699   1.976 -0.6268 -2.4584 -0.9694
  467MOL0     H62984   6.442   9.498   2.029 -3.2972  2.2746  1.4456
  467MOL0     H62985   6.486   9.626   2.152  1.2340 -0.0381  0.9788
  467MOL0     H62986   6.643   9.526   1.916 -2.5333  2.0421 -0.9913
  467MOL0     H62987   6.698   9.656   2.023  0.9664 -0.1711 -0.1425
  467MOL0     H62988   6.653   9.357   2.086  1.1418 -0.0542 -2.1002
  467MOL0     H62989   6.812   9.447   2.085  0.3105  1.8969  2.1371
  467MOL0     H62990   6.586   9.486   2.277  0.1413  0.2446  2.7861
  467MOL0     H62991   6.721   9.382   2.311  0.5651  1.8706  2.5309
  467MOL0     H62992   6.716   9.595   2.416 -0.9048 -0.2958  0.3790
  467MOL0     H62993   6.730   9.688   2.261  0.2417  0.1058  0.0549
  467MOL0     H62994   6.940   9.670   2.387 -0.1659 -1.8532  0.4782
  467MOL0     H62995   6.929   9.494   2.384  0.8065 -1.2347 -1.3075
  467MOL0     H62996   6.938   9.796   2.111  0.8389 -0.4650 -2.3845
  467MOL0     H62997   7.142   9.766   1.856  0.9332  0.8003 -0.2546
  467MOL0     H62998   7.153   9.864   1.995 -2.3108 -2.1978  1.3208
  467MOL0     H62999   7.364   9.711   2.048  2.2479 -1.6640 -1.3744
  467MOL0     H63000   7.343   9.651   1.878  1.2402 -0.3383  0.5416
  467MOL0     H63001   7.381   9.936   1.968  0.0658 -3.1777  2.5792
  467MOL0     H63002   7.331   9.896   1.810  0.1021  2.0189  0.6236
  467MOL0     H63003   7.505   9.755   1.767 -1.4427  0.1696  0.5806
  467MOL0     H63004   7.585   9.791   1.933 -1.5979  1.2295  1.1238
  467MOL0     H63005   7.689   9.747   1.678 -1.5220  2.1634  2.2062
  467MOL0     H63006   7.913   9.747   1.566  2.2867 -0.3348  2.1579
  467MOL0     H63007   8.333   9.967   1.484  2.2390 -1.6269 -1.3864
  467MOL0     H63008   8.534   9.999   1.349  0.9378  1.6712 -1.7082
  467MOL0     H63009   8.678  10.039   1.211  0.5025  1.2361  0.4583
  467MOL0     H63010   8.593   9.977   1.074  2.2812 -1.9742  1.7871
  467MOL0     H63011   8.713  10.132   0.926 -1.4921 -1.6577  0.1465
  467MOL0     H63012   8.787  10.209   1.062  2.1328 -1.1170 -0.9511
  467MOL0     H63013   8.836   9.914   1.046  1.1025 -0.6372  0.3812
  467MOL0     H63014   8.900  10.019   0.916  0.4105 -1.8070 -0.2419
  467MOL0     H63015   8.933  10.096   1.211  0.3236  0.2783 -0.9358
  467MOL0     H63016   9.025  10.155   1.072  2.7180 -1.9723  0.7165
  467MOL0     H63017   9.130   9.943   1.029  0.6367  2.3060  0.2158
  467MOL0     H63018   9.028   9.855   1.129  3.0966 -0.1782  3.3085
  467MOL0     H63019   9.222  10.059   1.236 -1.5933  0.6924 -0.5601
  467MOL0     H63020   9.113   9.952   1.328  0.5296 -0.4846  1.3070
  467MOL0     H63021   9.324   9.840   1.150  1.5854  1.2331  0.1827
  467MOL0     H63022   9.214   9.748   1.249  0.2427  0.2521 -1.2279
  467MOL0     H63023   9.300   9.846   1.452 -1.2486 -1.7663 -0.1789
  467MOL0     H63024   9.430   9.756   1.362 -0.4086  0.1988 -1.2543
  467MOL0     H63025   8.325  10.292   1.125  0.3053  1.9706  1.5956
  467MOL0     H63026   8.117  10.247   1.250  0.4545 -0.3111 -0.1311
  467MOL0     H63027   7.969  10.151   1.665  1.2703 -0.8929  0.4266
  467MOL0     H63028   7.754  10.155   1.786  1.2637  0.1303 -0.7707
  467MOL0     H63029   6.244   9.874   1.748  1.9967 -1.3955  1.7981
  467MOL0     H63030   6.013   9.938   1.767  1.3444  2.4196 -2.8378
  467MOL0     H63031   5.671  10.351   1.820  1.7820 -1.9257  0.1191
  467MOL0     H63032   5.438  10.367   1.833 -0.3872 -0.4201 -0.1608
  467MOL0     H63033   5.283  10.406   2.062  0.1870  0.1795 -1.5709
  467MOL0     H63034   5.148  10.306   2.120  0.5752  1.4089  1.1916
  467MOL0     H63035   5.182  10.405   1.837  1.5824  2.6161  2.9563
  467MOL0     H63036   5.070  10.466   1.955  2.4552  2.0014 -1.1880
  467MOL0     H63037   4.951  10.273   1.980 -1.2634  0.5115 -1.3595
  467MOL0     H63038   5.067  10.189   1.867  0.3523 -0.3164  1.2269
  467MOL0     H63039   5.001  10.363   1.687  1.4126 -0.1354  1.0007
  467MOL0     H63040   4.865  10.262   1.741 -0.3847  0.7706 -1.3960
  467MOL0     H63041   4.770  10.631   1.923 -0.0724  0.2253  0.0152
  467MOL0     H63042   5.430  10.075   2.143  2.1986  1.1393  2.3493
  467MOL0     H63043   5.751  10.125   2.257  1.5806 -2.0558  0.8673
  467MOL0     H63044   5.630   9.996   2.239 -0.4398  1.1089  0.7746
  467MOL0     H63045   5.791   9.994   2.155  1.4285  1.3495  0.6943
  468MOL0     O63046   6.159   3.837   4.193  0.4887 -0.2390  0.1931
  468MOL0     C63047   6.082   3.741   4.220 -0.0153 -0.8169  0.8898
  468MOL0     O63048   6.114   3.618   4.265 -0.0814  0.1409  0.1582
  468MOL0     C63049   6.242   3.586   4.284 -0.2267  0.1772  0.4448
  468MOL0     C63050   6.317   3.643   4.382  0.3317  0.6412  0.1987
  468MOL0     C63051   6.448   3.590   4.405  0.4392  0.3115  0.3986
  468MOL0     C63052   6.501   3.495   4.319 -0.7236  0.8522  0.5591
  468MOL0     O63053   6.637   3.466   4.353  0.0359  0.1728  0.3149
  468MOL0     C63054   6.705   3.373   4.270 -0.0865 -0.1076  0.5663
  468MOL0     C63055   6.853   3.363   4.310  0.2214 -0.6986  0.3944
  468MOL0     C63056   6.931   3.261   4.240 -0.5999 -0.1452  0.5593
  468MOL0     C63057   7.079   3.258   4.271 -1.4226  0.1130  0.0437
  468MOL0     C63058   7.158   3.157   4.195  0.4236 -0.5880  0.0906
  468MOL0     C63059   7.285   3.135   4.271 -0.3044  0.1756 -0.4697
  468MOL0     C63060   7.374   3.035   4.202  0.4055  0.4591 -0.0209
  468MOL0     C63061   7.476   2.969   4.299  0.4556  0.1887  0.0479
  468MOL0     N63062   7.545   2.874   4.211  0.1591 -0.0252 -0.9060
  468MOL0     C63063   7.683   2.863   4.221 -0.0485 -0.4529 -0.7001
  468MOL0     C63064   7.705   2.757   4.137 -0.1973 -0.3310  0.4733
  468MOL0     C63065   7.844   2.701   4.102 -0.8406 -0.7780 -0.5413
  468MOL0     C63066   7.906   2.631   4.225 -0.3748 -0.3182  0.5065
  468MOL0     C63067   8.026   2.533   4.195 -0.3563 -0.4571 -0.6489
  468MOL0     C63068   8.108   2.494   4.315 -0.2286  0.5939  0.1137
  468MOL0     O63069   8.206   2.411   4.261 -0.8359  0.4835 -0.5307
  468MOL0     C63070   8.329   2.458   4.225 -0.0108 -0.5333  0.4533
  468MOL0     C63071   8.362   2.594   4.211 -0.7491 -0.0133 -1.2901
  468MOL0     C63072   8.494   2.632   4.179  0.1649  0.0452 -0.2232
  468MOL0     C63073   8.588   2.536   4.129  0.3722  0.9403 -0.7650
  468MOL0     C63074   8.730   2.573   4.091  1.1515  0.0406 -0.5809
  468MOL0     O63075   8.748   2.700   4.068 -0.5420  0.2384 -1.4991
  468MOL0     C63076   8.860   2.754   4.017  0.6519 -1.0430  0.0122
  468MOL0     C63077   8.978   2.756   4.092 -0.1846 -0.2552  0.0215
  468MOL0     C63078   9.092   2.817   4.041 -0.3398  0.0914 -1.7955
  468MOL0     C63079   9.092   2.889   3.920 -0.8597  0.1639  0.6278
  468MOL0     O63080   9.211   2.941   3.873  0.2898  0.5579  0.1152
  468MOL0     C63081   9.177   3.072   3.818 -0.4336  0.2882  0.3073
  468MOL0     C63082   9.308   3.141   3.817 -0.6690  0.9796  0.4163
  468MOL0     C63083   9.379   3.152   3.959  0.0483  0.4278 -0.2479
  468MOL0     C63084   9.506   3.244   3.964 -0.0328  0.3005 -0.7188
  468MOL0     C63085   9.583   3.202   4.094  0.3176  0.3002  0.4011
  468MOL0     C63086   9.698   3.293   4.139  0.0474 -0.2587 -0.6690
  468MOL0     C63087   9.820   3.303   4.047 -1.1078  0.2631 -0.2841
  468MOL0     C63088   9.800   3.428   3.955 -0.0359  0.8693  0.0032
  468MOL0    Cl63089   9.944   3.471   3.857 -0.1590  0.0499  0.1089
  468MOL0     C63090   8.979   2.887   3.847 -0.0128 -0.0192  0.4134
  468MOL0     C63091   8.861   2.827   3.896  0.1262 -1.4409  0.1909
  468MOL0     O63092   8.822   2.488   4.084  0.2092  0.7840 -0.4926
  468MOL0     C63093   8.551   2.395   4.140 -0.5602 -0.3407 -0.3034
  468MOL0     C63094   8.423   2.364   4.186  0.0878  0.8834 -0.0646
  468MOL0     N63095   7.592   2.710   4.080  0.0326 -0.3283 -0.3227
  468MOL0     N63096   7.491   2.775   4.133 -0.8801  0.2246  0.4225
  468MOL0     C63097   6.437   3.451   4.203 -0.0131  0.4264 -0.3345
  468MOL0     C63098   6.309   3.497   4.192 -0.3617  0.9185 -0.7153
  468MOL0     C63099   5.932   3.758   4.204  1.0893  0.4143  0.8378
  468MOL0     C63100   5.884   3.851   4.114  0.0898  0.2181  0.5450
  468MOL0     C63101   5.758   3.877   4.078 -0.2577 -0.9710 -0.1304
  468MOL0     C63102   5.658   3.807   4.135  0.4516  0.1943 -0.4649
  468MOL0     O63103   5.531   3.836   4.092  0.5254  0.0674  0.0832
  468MOL0     C63104   5.424   3.757   4.147 -0.1595  0.7590 -0.8273
  468MOL0     C63105   5.285   3.808   4.108  0.4113 -0.3223  0.9438
  468MOL0     C63106   5.234   3.916   4.204  0.2349  0.5178  0.2514
  468MOL0     C63107   5.087   3.955   4.187 -0.6691  0.5993 -0.1161
  468MOL0     C63108   5.002   3.841   4.205 -0.9737  0.3546  1.1019
  468MOL0     C63109   4.932   3.743   4.217  0.3800  0.1581  0.0550
  468MOL0     C63110   5.692   3.701   4.224 -0.1045  0.2895  0.0274
  468MOL0     C63111   5.825   3.686   4.269 -0.6388 -0.9532  0.0596
  468MOL0     C63112   5.855   3.599   4.385  0.5086  0.5907 -0.5355
  468MOL0     H63113   6.258   3.714   4.439 -3.5555 -1.7103 -0.5029
  468MOL0     H63114   6.506   3.634   4.485  0.6259  1.1790 -0.1966
  468MOL0     H63115   6.660   3.275   4.290  1.5738 -0.6714  1.8192
  468MOL0     H63116   6.688   3.402   4.166 -1.8946 -2.0216  0.2538
  468MOL0     H63117   6.859   3.337   4.416 -1.7460 -2.4363  0.1405
  468MOL0     H63118   6.906   3.456   4.287 -0.0006 -0.3250  1.3563
  468MOL0     H63119   6.911   3.272   4.133 -1.7023  0.7621  0.8364
  468MOL0     H63120   6.893   3.165   4.274 -3.1486  1.7515  3.5800
  468MOL0     H63121   7.118   3.360   4.266 -2.6504  1.1136  5.2338
  468MOL0     H63122   7.088   3.235   4.377 -0.6129 -1.4451 -0.3166
  468MOL0     H63123   7.092   3.072   4.178 -1.0608  0.8961 -2.0303
  468MOL0     H63124   7.182   3.206   4.100 -0.1672 -1.3156 -0.4448
  468MOL0     H63125   7.336   3.232   4.265  0.4746 -0.3006 -4.6488
  468MOL0     H63126   7.268   3.099   4.373  3.4147 -0.7156  0.0006
  468MOL0     H63127   7.423   3.087   4.118 -1.2234  0.7962 -0.8111
  468MOL0     H63128   7.317   2.953   4.157  2.2958 -0.2062 -1.3463
  468MOL0     H63129   7.543   3.048   4.333 -0.5307  0.4098  1.5590
  468MOL0     H63130   7.425   2.915   4.380 -0.6365 -2.2279 -2.0933
  468MOL0     H63131   7.760   2.920   4.273  0.5238 -2.5242  0.8823
  468MOL0     H63132   7.837   2.639   4.012  1.6218 -2.2187  0.1783
  468MOL0     H63133   7.902   2.789   4.076 -0.5625 -0.5226  0.9008
  468MOL0     H63134   7.933   2.708   4.298 -3.2574  0.4084  0.9398
  468MOL0     H63135   7.830   2.573   4.279 -1.5440  0.8112  0.1204
  468MOL0     H63136   8.085   2.586   4.119 -4.8246  2.7366 -2.3281
  468MOL0     H63137   7.978   2.444   4.155 -2.8946 -0.6785  2.5398
  468MOL0     H63138   8.041   2.451   4.390 -3.3245  0.8942 -2.3227
  468MOL0     H63139   8.159   2.576   4.367  0.5045  0.0706  0.2427
  468MOL0     H63140   8.291   2.671   4.235 -2.1321 -1.5956 -0.0604
  468MOL0     H63141   8.528   2.735   4.179 -1.1200  0.5197 -1.6914
  468MOL0     H63142   8.969   2.717   4.193  0.1797 -0.2355  0.0631
  468MOL0     H63143   9.180   2.812   4.104 -0.7640 -0.3335 -1.2310
  468MOL0     H63144   9.125   3.071   3.721  0.7167 -1.1040 -0.3296
  468MOL0     H63145   9.108   3.130   3.881 -1.3975 -0.5847  0.0901
  468MOL0     H63146   9.378   3.093   3.748  0.3207  2.4878  0.3268
  468MOL0     H63147   9.290   3.246   3.791 -0.9796  0.5447 -1.2410
  468MOL0     H63148   9.309   3.194   4.031  1.2665  0.4333  0.9656
  468MOL0     H63149   9.402   3.058   4.010  1.0781 -0.4119 -2.1262
  468MOL0     H63150   9.475   3.348   3.975 -1.0514 -0.2083  1.9942
  468MOL0     H63151   9.560   3.224   3.870 -0.0797 -1.1647 -0.4607
  468MOL0     H63152   9.630   3.103   4.089  0.6096  0.4381  0.3600
  468MOL0     H63153   9.511   3.197   4.175  0.5154 -1.0270  0.5047
  468MOL0     H63154   9.658   3.393   4.159 -2.2433 -1.0079 -1.1896
  468MOL0     H63155   9.722   3.257   4.240  1.2642  0.7383 -0.5802
  468MOL0     H63156   9.834   3.213   3.985 -2.2542 -1.5505  1.9435
  468MOL0     H63157   9.911   3.320   4.105  1.8444 -2.3318 -3.6484
  468MOL0     H63158   9.726   3.408   3.877  0.7856  0.2525 -0.6351
  468MOL0     H63159   9.764   3.512   4.016 -1.3221  3.4052 -3.8522
  468MOL0     H63160   8.980   2.911   3.741  2.1328 -1.8848 -0.0668
  468MOL0     H63161   8.764   2.828   3.846 -1.0570  3.2491  2.0629
  468MOL0     H63162   8.624   2.317   4.121  2.2207  1.5302  1.8724
  468MOL0     H63163   8.397   2.259   4.196 -0.7581  1.2309  1.8082
  468MOL0     H63164   6.480   3.380   4.133 -2.1964 -0.2278 -1.0904
  468MOL0     H63165   6.248   3.451   4.115 -2.7008  2.0224  0.3746
  468MOL0     H63166   5.963   3.905   4.063  0.5458 -0.4065  0.5748
  468MOL0     H63167   5.745   3.952   4.001 -2.4365 -3.4978 -2.4426
  468MOL0     H63168   5.417   3.752   4.256 -1.6480 -0.0496 -0.9257
  468MOL0     H63169   5.431   3.654   4.111  2.2103  1.4847 -2.7380
  468MOL0     H63170   5.206   3.732   4.098 -2.5437  2.7657 -2.1038
  468MOL0     H63171   5.291   3.846   4.005  0.0505  0.0326  1.0491
  468MOL0     H63172   5.302   4.001   4.192  0.4394  0.0399 -2.5547
  468MOL0     H63173   5.246   3.875   4.305 -1.0557 -0.5613 -0.0001
  468MOL0     H63174   5.052   4.024   4.264  1.0305  0.3585  0.9300
  468MOL0     H63175   5.070   3.993   4.086 -2.7722 -0.1884 -0.1157
  468MOL0     H63176   4.874   3.653   4.219 -0.2402  0.4558 -1.7962
  468MOL0     H63177   5.615   3.638   4.266 -1.4565  3.0912  2.0903
  468MOL0     H63178   5.909   3.656   4.461 -3.6453  2.7914  1.0687
  468MOL0     H63179   5.760   3.555   4.419 -0.0887  1.1611 -1.4201
  468MOL0     H63180   5.908   3.509   4.352 -1.3591 -0.2837 -1.2871
  469MOL0     O63181   3.171   5.186   6.182 -0.5341 -0.3457 -0.2240
  469MOL0     C63182   3.101   5.146   6.276  1.5292  0.3524  0.0484
  469MOL0     O63183   3.133   5.040   6.359  0.2844  0.9855  0.3168
  469MOL0     C63184   3.252   4.967   6.334  0.2331 -0.3376 -0.4316
  469MOL0     C63185   3.244   4.826   6.316 -0.4588 -0.2620  0.3902
  469MOL0     C63186   3.355   4.749   6.298  0.4109 -0.1844 -0.3176
  469MOL0     C63187   3.481   4.805   6.279 -0.0656  0.4379 -0.5230
  469MOL0     O63188   3.586   4.716   6.271  0.1619 -0.3397 -0.3127
  469MOL0     C63189   3.719   4.781   6.245  0.4863  0.5162 -0.2084
  469MOL0     C63190   3.822   4.670   6.256  0.1494  0.7530  0.7332
  469MOL0     C63191   3.970   4.718   6.261  0.0578  0.4090 -0.1804
  469MOL0     C63192   4.069   4.604   6.231 -0.0784  0.6994 -0.2683
  469MOL0     C63193   4.213   4.642   6.211 -0.2761 -0.0564  0.1262
  469MOL0     C63194   4.286   4.519   6.175 -0.9134  0.0549 -0.2445
  469MOL0     C63195   4.430   4.566   6.162  0.6194 -0.4898 -0.1508
  469MOL0     C63196   4.530   4.446   6.154  0.3141 -0.4085 -0.0199
  469MOL0     N63197   4.669   4.488   6.189  0.0416  0.2512 -0.1895
  469MOL0     C63198   4.723   4.617   6.159 -0.4762  0.3365 -0.2668
  469MOL0     C63199   4.828   4.626   6.245 -0.1075  1.1192 -0.6809
  469MOL0     C63200   4.913   4.750   6.262  0.5160  0.2374  0.5309
  469MOL0     C63201   5.065   4.735   6.274 -0.3052 -0.6708 -0.6895
  469MOL0     C63202   5.112   4.876   6.319 -0.1547  0.5037  0.1502
  469MOL0     C63203   5.253   4.850   6.356 -0.3046 -1.0489  0.3652
  469MOL0     O63204   5.328   4.974   6.381  0.4016  0.0235 -0.0416
  469MOL0     C63205   5.470   4.967   6.383  0.6130  0.3500  0.2869
  469MOL0     C63206   5.549   4.854   6.428  0.1828  0.4552  0.6074
  469MOL0     C63207   5.690   4.845   6.411  0.4847  0.0139 -0.3088
  469MOL0     C63208   5.756   4.949   6.352  0.2525 -0.1993 -0.2970
  469MOL0     C63209   5.904   4.947   6.347  0.6339  0.3111 -0.1393
  469MOL0     O63210   5.963   5.062   6.308  0.0100  0.5625 -0.6163
  469MOL0     C63211   6.101   5.078   6.303 -0.4860  0.4102  0.5682
  469MOL0     C63212   6.166   5.187   6.355 -0.3965 -0.5139 -0.0261
  469MOL0     C63213   6.309   5.192   6.354 -0.1932 -0.0542 -0.3534
  469MOL0     C63214   6.381   5.096   6.294  0.1462 -0.1209  0.5749
  469MOL0     O63215   6.512   5.082   6.298  0.4071 -0.3606  0.0070
  469MOL0     C63216   6.600   5.194   6.275 -0.4681  0.5980  0.2070
  469MOL0     C63217   6.742   5.138   6.239  0.7210 -0.0031  0.3895
  469MOL0     C63218   6.834   5.260   6.221 -0.0669 -0.3042  0.0569
  469MOL0     C63219   6.952   5.227   6.132 -0.3159  0.2920  0.6191
  469MOL0     C63220   7.025   5.351   6.080  0.2039 -0.0133 -0.2003
  469MOL0     C63221   7.142   5.331   5.985 -0.6782  0.3759 -0.9520
  469MOL0     C63222   7.208   5.462   5.933 -0.0171 -0.7831 -0.0825
  469MOL0     C63223   7.298   5.539   6.038  0.3445  0.7966  0.2761
  469MOL0    Cl63224   7.411   5.420   6.125 -0.5131 -0.1887 -0.1633
  469MOL0     C63225   6.309   4.986   6.235  0.5670  0.2223 -0.4308
  469MOL0     C63226   6.171   4.979   6.232  0.3532 -0.9740 -0.6967
  469MOL0     O63227   5.961   4.848   6.389  1.1890 -0.1571 -0.2087
  469MOL0     C63228   5.684   5.065   6.313  0.4022 -0.2661  0.5222
  469MOL0     C63229   5.539   5.073   6.323 -0.5672 -0.0339 -0.4095
  469MOL0     N63230   4.831   4.517   6.329 -0.4683  0.4933 -0.3873
  469MOL0     N63231   4.740   4.433   6.292  0.1592  0.3415 -0.3786
  469MOL0     C63232   3.490   4.947   6.291 -1.0101 -0.1325  0.3620
  469MOL0     C63233   3.377   5.024   6.333 -0.0765 -0.5615 -0.2704
  469MOL0     C63234   2.960   5.186   6.289  0.4783  0.3297  0.2890
  469MOL0     C63235   2.866   5.092   6.339  0.5225  0.1053  0.2096
  469MOL0     C63236   2.729   5.128   6.348  0.3636 -0.9534  0.2507
  469MOL0     C63237   2.684   5.252   6.319 -0.2011 -0.2298  0.1947
  469MOL0     O63238   2.552   5.295   6.344 -0.9940 -0.6686  0.8633
  469MOL0     C63239   2.460   5.228   6.429  0.4498  0.3698 -0.1521
  469MOL0     C63240   2.366   5.135   6.360 -0.5705  0.1474  0.2244
  469MOL0     C63241   2.319   5.168   6.218 -0.0633  0.2991  0.3816
  469MOL0     C63242   2.300   5.057   6.130  0.6774  0.6604 -0.0123
  469MOL0     C63243   2.422   4.993   6.070 -0.6489 -0.3081  0.3783
  469MOL0     C63244   2.531   4.953   6.033  0.1408 -0.0741  0.0295
  469MOL0     C63245   2.779   5.347   6.277 -0.2514 -0.1616 -0.1032
  469MOL0     C63246   2.914   5.316   6.258  0.4861 -0.0058  0.1644
  469MOL0     C63247   3.004   5.434   6.224 -0.8738  0.9372 -0.1824
  469MOL0     H63248   3.152   4.773   6.338 -0.7467  0.6768  1.5745
  469MOL0     H63249   3.367   4.641   6.292  1.1888 -0.1682  0.7674
  469MOL0     H63250   3.724   4.827   6.146 -2.0570 -1.2160 -1.2309
  469MOL0     H63251   3.733   4.851   6.328  0.8890  1.2906 -0.9097
  469MOL0     H63252   3.816   4.601   6.171  0.5961  0.8501  0.6204
  469MOL0     H63253   3.799   4.609   6.344 -1.9645 -0.9718 -0.8860
  469MOL0     H63254   3.987   4.760   6.361 -1.7267  3.7935 -1.1338
  469MOL0     H63255   3.977   4.797   6.185 -0.5976  1.9201  1.2567
  469MOL0     H63256   4.054   4.531   6.311 -1.1760  1.8925  0.6631
  469MOL0     H63257   4.037   4.550   6.141  0.6926 -1.2349  0.5455
  469MOL0     H63258   4.220   4.724   6.140 -0.7751  0.6599  0.8855
  469MOL0     H63259   4.249   4.678   6.308  2.1275 -1.6738 -0.0669
  469MOL0     H63260   4.280   4.443   6.253 -1.1515 -0.2636 -0.5652
  469MOL0     H63261   4.251   4.476   6.080 -0.0365  0.1543 -0.6211
  469MOL0     H63262   4.453   4.621   6.254  2.7497 -0.9480 -0.3522
  469MOL0     H63263   4.446   4.627   6.073  4.1151 -0.5170  0.3258
  469MOL0     H63264   4.500   4.368   6.224 -1.6686 -0.5436 -0.9713
  469MOL0     H63265   4.529   4.402   6.054 -2.1505 -0.7618  0.0945
  469MOL0     H63266   4.681   4.691   6.092 -1.4830 -0.7480 -0.8662
  469MOL0     H63267   4.887   4.821   6.183 -3.8254 -1.4225  0.1639
  469MOL0     H63268   4.883   4.806   6.351  1.6048  2.1676 -0.2672
  469MOL0     H63269   5.081   4.657   6.349 -1.3580 -0.4808 -0.2569
  469MOL0     H63270   5.116   4.712   6.180  1.5688  1.0422 -0.1825
  469MOL0     H63271   5.060   4.904   6.412 -1.2802 -0.3877 -0.1779
  469MOL0     H63272   5.104   4.956   6.245  0.5444  0.3713 -0.0682
  469MOL0     H63273   5.308   4.794   6.279  1.0264 -0.1272  0.6052
  469MOL0     H63274   5.256   4.792   6.448 -0.9356 -1.7061 -0.0144
  469MOL0     H63275   5.497   4.766   6.464  0.0800  0.0639 -0.4496
  469MOL0     H63276   5.743   4.757   6.446  0.3335 -1.1718 -2.8182
  469MOL0     H63277   6.104   5.256   6.411  0.2039 -0.5272  0.6861
  469MOL0     H63278   6.359   5.279   6.397 -0.8846  0.5366 -0.7189
  469MOL0     H63279   6.578   5.262   6.192 -0.0783  1.1474  0.5377
  469MOL0     H63280   6.602   5.248   6.370 -2.2934 -0.7807  1.0819
  469MOL0     H63281   6.782   5.076   6.320 -0.8411  0.5671  1.6349
  469MOL0     H63282   6.740   5.077   6.148 -1.7882  3.1423 -1.9157
  469MOL0     H63283   6.778   5.331   6.160 -1.2004 -1.7744 -0.6702
  469MOL0     H63284   6.864   5.314   6.312  1.4849 -0.0154 -0.5872
  469MOL0     H63285   6.913   5.179   6.042 -3.2389  3.0120  0.2524
  469MOL0     H63286   7.023   5.162   6.184 -0.4366  1.4622  2.3230
  469MOL0     H63287   7.069   5.394   6.170 -0.8265 -1.3566  0.9994
  469MOL0     H63288   6.951   5.418   6.034 -0.6039 -0.3302  0.6022
  469MOL0     H63289   7.223   5.278   6.034 -0.1947 -0.3401 -2.4617
  469MOL0     H63290   7.105   5.272   5.900 -0.0479 -0.2780 -0.7749
  469MOL0     H63291   7.124   5.522   5.895 -1.0493 -0.7642  2.0633
  469MOL0     H63292   7.271   5.435   5.848  3.1338  1.3402  1.3866
  469MOL0     H63293   7.356   5.615   5.983 -0.9272  1.6046  0.0089
  469MOL0     H63294   7.232   5.592   6.107 -0.6598  1.3682 -1.0822
  469MOL0     H63295   6.360   4.902   6.190  1.5385 -1.2757  3.0956
  469MOL0     H63296   6.121   4.886   6.208 -3.1666 -0.3407  3.1262
  469MOL0     H63297   5.742   5.145   6.269  0.2551  0.0732  0.9366
  469MOL0     H63298   5.470   5.149   6.289  0.5965  2.1843  1.8420
  469MOL0     H63299   3.585   4.996   6.276 -0.8494  0.0132  1.7042
  469MOL0     H63300   3.360   5.127   6.364 -3.8743 -1.6117  1.7839
  469MOL0     H63301   2.881   4.985   6.353 -3.5416 -0.4291  2.0002
  469MOL0     H63302   2.650   5.058   6.370 -0.4034 -1.2822 -3.0279
  469MOL0     H63303   2.399   5.305   6.476  1.2043  0.1167  1.2950
  469MOL0     H63304   2.516   5.176   6.507 -0.5943 -0.9007 -0.2210
  469MOL0     H63305   2.282   5.111   6.427  0.1030 -1.2646  0.5992
  469MOL0     H63306   2.426   5.046   6.341 -0.8141  0.0562 -0.1299
  469MOL0     H63307   2.385   5.237   6.164 -0.6275 -1.0369 -2.1637
  469MOL0     H63308   2.225   5.223   6.226  0.1827  1.2075 -2.1315
  469MOL0     H63309   2.241   4.980   6.180  1.4405  1.5036  2.3094
  469MOL0     H63310   2.247   5.095   6.042  1.2301  2.5109  0.4185
  469MOL0     H63311   2.629   4.918   6.006  1.1023 -0.6257  3.6321
  469MOL0     H63312   2.746   5.447   6.251  1.4908  0.2667 -0.8194
  469MOL0     H63313   3.042   5.475   6.318  1.6861 -1.7396  0.1067
  469MOL0     H63314   3.089   5.397   6.166 -1.2520 -1.7963  0.8435
  469MOL0     H63315   2.957   5.516   6.169  2.0625  4.2688  1.8661
  470MOL0     O63316   1.019  11.232   5.570 -0.5332 -0.7227 -0.9733
  470MOL0     C63317   1.015  11.146   5.660  0.0002 -0.0465  0.2814
  470MOL0     O63318   1.123  11.097   5.733 -0.3670 -0.3418 -0.0798
  470MOL0     C63319   1.255  11.130   5.698 -0.0553  0.2746  1.1007
  470MOL0     C63320   1.351  11.096   5.790 -0.2142  0.7292 -0.4098
  470MOL0     C63321   1.489  11.126   5.775  0.0340 -0.5198 -0.1640
  470MOL0     C63322   1.536  11.171   5.645  0.0071  0.1689  0.3196
  470MOL0     O63323   1.669  11.191   5.620  0.1552 -0.7289  0.3343
  470MOL0     C63324   1.771  11.107   5.690 -0.0406 -0.0037 -0.1294
  470MOL0     C63325   1.900  11.101   5.608  0.1853  1.1139 -0.2480
  470MOL0     C63326   1.911  10.988   5.495  0.0234 -0.0496 -0.1736
  470MOL0     C63327   2.055  10.995   5.437 -0.1902  0.2688 -0.7243
  470MOL0     C63328   2.069  10.916   5.303  0.9987 -0.9008 -0.4323
  470MOL0     C63329   2.193  10.956   5.232  0.3818  0.4530 -0.1400
  470MOL0     C63330   2.314  10.864   5.266  0.3963 -0.0631  0.5624
  470MOL0     C63331   2.421  10.949   5.316 -0.0109 -0.0341  0.7167
  470MOL0     N63332   2.561  10.889   5.310 -0.3043 -0.3314  0.2497
  470MOL0     C63333   2.646  10.851   5.414 -0.1004  0.3610 -0.2263
  470MOL0     C63334   2.741  10.780   5.356  0.1625 -0.3264  0.3332
  470MOL0     C63335   2.871  10.731   5.418  0.7632  0.0759  0.4490
  470MOL0     C63336   2.989  10.821   5.407  0.3344 -0.3241  0.6645
  470MOL0     C63337   3.037  10.817   5.267  0.0821  0.4821  1.1571
  470MOL0     C63338   3.187  10.842   5.253  0.7321 -0.1119 -0.4768
  470MOL0     O63339   3.245  10.726   5.314  0.9215  0.5088 -0.0794
  470MOL0     C63340   3.379  10.702   5.304  0.2353  0.0157 -0.1343
  470MOL0     C63341   3.415  10.571   5.325 -0.7562 -0.3388 -0.1865
  470MOL0     C63342   3.547  10.536   5.325 -0.0562  0.2723 -0.5585
  470MOL0     C63343   3.650  10.630   5.324  0.1446 -0.4930 -0.5867
  470MOL0     C63344   3.790  10.594   5.334  0.0010  0.4364 -0.0556
  470MOL0     O63345   3.826  10.463   5.352 -0.0495 -0.2496  0.0411
  470MOL0     C63346   3.949  10.409   5.362 -0.3109  0.2670 -1.0024
  470MOL0     C63347   3.943  10.271   5.366 -0.0868 -0.3868  0.4083
  470MOL0     C63348   4.058  10.187   5.384  0.2811 -0.4006 -0.5461
  470MOL0     C63349   4.184  10.254   5.402  0.1838 -0.3488  0.0983
  470MOL0     O63350   4.304  10.200   5.414 -0.3855  0.3640  0.3749
  470MOL0     C63351   4.309  10.056   5.416  0.0956 -0.6588  0.5407
  470MOL0     C63352   4.452  10.017   5.448  0.5754  0.3312  1.0099
  470MOL0     C63353   4.470   9.984   5.589 -0.2757 -0.2441  0.3557
  470MOL0     C63354   4.601   9.900   5.596  0.1014 -0.1436  0.4481
  470MOL0     C63355   4.720   9.993   5.619 -1.0285  0.7815 -0.6910
  470MOL0     C63356   4.839   9.907   5.645  0.1978  0.5910  0.0754
  470MOL0     C63357   4.966   9.986   5.645  0.0218  0.2049 -0.7172
  470MOL0     C63358   5.076   9.915   5.727 -0.4214 -0.5320  0.0213
  470MOL0    Cl63359   5.198  10.035   5.762  0.4252 -0.4857 -0.2077
  470MOL0     C63360   4.183  10.398   5.402  0.2199 -0.1535  0.1532
  470MOL0     C63361   4.074  10.473   5.392 -0.0056  0.2969 -1.1337
  470MOL0     O63362   3.871  10.684   5.310 -0.1475  0.1584  0.8187
  470MOL0     C63363   3.611  10.768   5.311 -0.7536  1.1493 -0.8021
  470MOL0     C63364   3.476  10.800   5.293 -1.0369 -0.1118 -0.1949
  470MOL0     N63365   2.708  10.762   5.226  0.1903 -0.1157  0.4390
  470MOL0     N63366   2.605  10.831   5.194  0.2768 -0.0718 -0.4106
  470MOL0     C63367   1.436  11.205   5.550  0.2112 -0.0618 -0.4100
  470MOL0     C63368   1.298  11.191   5.573 -0.5613  0.5974 -0.0998
  470MOL0     C63369   0.877  11.096   5.684  0.6144 -0.0674  0.3272
  470MOL0     C63370   0.771  11.156   5.625  0.5212  0.4928  0.6536
  470MOL0     C63371   0.643  11.109   5.633 -0.3617  0.2154  0.3444
  470MOL0     C63372   0.609  11.010   5.722  1.2510  0.5645  0.8257
  470MOL0     O63373   0.489  10.945   5.733  0.3747  0.2632  0.3465
  470MOL0     C63374   0.392  10.976   5.638  0.0613  0.6484 -0.0340
  470MOL0     C63375   0.283  10.870   5.633 -0.4313 -0.1024 -0.3242
  470MOL0     C63376   0.205  10.848   5.765  0.1143 -0.4306 -0.0817
  470MOL0     C63377   0.067  10.777   5.731  0.3954 -0.1478 -0.2202
  470MOL0     C63378   0.088  10.660   5.653 -0.2480  0.1416  0.6138
  470MOL0     C63379   0.109  10.546   5.596  0.2549 -0.9988 -0.2986
  470MOL0     C63380   0.703  10.958   5.803 -0.0501  0.0909 -0.3593
  470MOL0     C63381   0.838  10.996   5.782  0.1389  0.5682 -0.3048
  470MOL0     C63382   0.934  10.919   5.867  0.3864  0.1980  1.3571
  470MOL0     H63383   1.325  11.049   5.884  3.0071 -2.8535 -1.0752
  470MOL0     H63384   1.556  11.091   5.852 -1.1247 -1.2289  0.5591
  470MOL0     H63385   1.795  11.141   5.791  1.3067 -2.5104  0.4718
  470MOL0     H63386   1.731  11.005   5.693  0.1498 -0.0790 -0.1907
  470MOL0     H63387   1.963  11.060   5.688 -2.9633  0.1130  1.8971
  470MOL0     H63388   1.932  11.202   5.579  0.5291  1.3638  0.9266
  470MOL0     H63389   1.833  11.015   5.423  0.7480  2.1128 -0.2161
  470MOL0     H63390   1.895  10.881   5.513 -0.8545 -0.4100 -2.6142
  470MOL0     H63391   2.080  11.099   5.414  1.8628  0.1287  0.5920
  470MOL0     H63392   2.128  10.960   5.511 -0.7099  1.9857  0.6702
  470MOL0     H63393   2.053  10.809   5.316 -5.4848 -0.0911  1.8993
  470MOL0     H63394   1.987  10.941   5.235 -0.1148  0.6930  1.4264
  470MOL0     H63395   2.171  10.964   5.125  2.4097 -0.5901 -0.6822
  470MOL0     H63396   2.217  11.062   5.246  1.7227 -0.1008  2.2761
  470MOL0     H63397   2.347  10.818   5.173  1.5498  0.8463  0.4951
  470MOL0     H63398   2.304  10.791   5.347 -1.5317 -0.6423 -0.1504
  470MOL0     H63399   2.434  11.042   5.259  1.1580  0.1964  1.3270
  470MOL0     H63400   2.396  10.983   5.417 -2.5978 -1.2664  0.5905
  470MOL0     H63401   2.652  10.874   5.520  1.6263 -0.3282 -0.1504
  470MOL0     H63402   2.857  10.725   5.527  2.3226  0.0491  0.6656
  470MOL0     H63403   2.902  10.631   5.387  1.7427  0.0522  1.4367
  470MOL0     H63404   2.954  10.919   5.441 -1.2032 -1.1683  1.6319
  470MOL0     H63405   3.072  10.787   5.470 -0.0447 -0.0034  1.3546
  470MOL0     H63406   2.988  10.893   5.206  1.1586 -0.7460 -1.4247
  470MOL0     H63407   3.011  10.720   5.222  1.4503  0.1825  0.9727
  470MOL0     H63408   3.213  10.932   5.309 -2.5058  0.6726 -0.0414
  470MOL0     H63409   3.212  10.855   5.147 -0.7495  1.0185 -0.7245
  470MOL0     H63410   3.331  10.504   5.342 -1.1153 -0.4857 -2.2615
  470MOL0     H63411   3.584  10.435   5.335  0.8427  0.6352 -0.1469
  470MOL0     H63412   3.853  10.216   5.342 -1.4582  0.6537  2.8326
  470MOL0     H63413   4.053  10.079   5.384 -1.4109 -0.3843  1.0956
  470MOL0     H63414   4.229  10.021   5.482 -0.5332 -1.3723 -0.5757
  470MOL0     H63415   4.286  10.015   5.318  1.2539 -0.1034  0.0248
  470MOL0     H63416   4.461   9.928   5.385  0.1534 -1.3935  3.2576
  470MOL0     H63417   4.528  10.093   5.429  0.6375  0.6165  2.2577
  470MOL0     H63418   4.495  10.077   5.641 -0.7709  1.3599 -2.1139
  470MOL0     H63419   4.390   9.923   5.631 -1.6880  0.4647 -1.1947
  470MOL0     H63420   4.626   9.835   5.511  0.3222  0.2153  0.2373
  470MOL0     H63421   4.584   9.832   5.680  0.1291 -1.7769 -0.8039
  470MOL0     H63422   4.701  10.054   5.708 -1.0758 -1.5117  0.9396
  470MOL0     H63423   4.744  10.065   5.541 -0.6967  0.3515 -0.9886
  470MOL0     H63424   4.814   9.853   5.737 -6.0182 -1.7179 -2.4166
  470MOL0     H63425   4.849   9.831   5.568  0.5236 -0.9895  1.6214
  470MOL0     H63426   4.941  10.079   5.696  1.0104  0.4269 -0.6167
  470MOL0     H63427   5.002  10.004   5.544  0.6726 -0.9097 -0.7033
  470MOL0     H63428   5.037   9.876   5.822  1.9029  2.0535  2.2233
  470MOL0     H63429   5.116   9.837   5.661  0.7903 -0.2440  0.3889
  470MOL0     H63430   4.278  10.445   5.429 -1.7691  3.0008  2.3991
  470MOL0     H63431   4.091  10.580   5.391  2.1894  0.0417  0.6354
  470MOL0     H63432   3.686  10.846   5.308 -0.3053  0.7646  0.0917
  470MOL0     H63433   3.443  10.903   5.290 -2.4403 -0.4023  2.2373
  470MOL0     H63434   1.484  11.245   5.461  0.0297  0.5704 -0.2295
  470MOL0     H63435   1.229  11.190   5.490 -0.8526 -0.0574  0.1385
  470MOL0     H63436   0.781  11.238   5.555 -1.4182  0.8494  0.7598
  470MOL0     H63437   0.573  11.156   5.565  0.3187 -0.1561 -0.6288
  470MOL0     H63438   0.435  10.971   5.538 -1.4574 -1.5174 -0.6663
  470MOL0     H63439   0.343  11.073   5.649 -0.8316  0.2056  0.0169
  470MOL0     H63440   0.336  10.776   5.615 -2.4568 -1.2582 -0.5412
  470MOL0     H63441   0.218  10.880   5.546 -0.3854  2.1262 -0.1479
  470MOL0     H63442   0.189  10.949   5.802  0.2174 -1.3728  2.7912
  470MOL0     H63443   0.264  10.788   5.835  0.2139  1.9595  1.9901
  470MOL0     H63444   0.019  10.754   5.826 -0.8673  0.9628 -0.5605
  470MOL0     H63445  -0.008  10.842   5.684 -0.2428 -0.3341  0.5288
  470MOL0     H63446   0.125  10.452   5.548  1.5807 -1.9560  1.8590
  470MOL0     H63447   0.675  10.873   5.865  2.7554 -1.2826 -0.8002
  470MOL0     H63448   1.024  10.884   5.815  0.1290 -0.2827  1.2246
  470MOL0     H63449   0.962  10.979   5.954 -5.0985  3.3669  1.3573
  470MOL0     H63450   0.888  10.832   5.915  1.2913 -0.5183  0.9633
  471MOL0     O63451   2.642   8.710   8.597  0.2730  0.5728  0.7466
  471MOL0     C63452   2.694   8.777   8.507  0.6757 -0.5205 -0.5185
  471MOL0     O63453   2.832   8.777   8.489 -0.1598 -0.2914  0.1487
  471MOL0     C63454   2.916   8.737   8.589  0.6451 -0.2098  0.4169
  471MOL0     C63455   2.903   8.782   8.721 -0.6756  0.6149  0.0318
  471MOL0     C63456   2.981   8.728   8.830 -0.6931  0.1598  0.1969
  471MOL0     C63457   3.076   8.625   8.797  0.3803 -0.2184 -0.0344
  471MOL0     O63458   3.153   8.569   8.893 -0.3472  0.1581  0.4254
  471MOL0     C63459   3.158   8.623   9.026  0.1698  0.1712 -0.1032
  471MOL0     C63460   3.275   8.561   9.095  0.1579 -0.0302  0.3121
  471MOL0     C63461   3.410   8.572   9.032  0.4610 -0.2112 -0.4058
  471MOL0     C63462   3.530   8.532   9.127 -0.4027  0.1548  0.1269
  471MOL0     C63463   3.664   8.588   9.078 -0.2888 -0.7773  0.4824
  471MOL0     C63464   3.781   8.532   9.161 -0.2856 -0.2560 -0.3559
  471MOL0     C63465   3.804   8.595   9.298 -0.1326 -0.1389 -0.0482
  471MOL0     C63466   3.926   8.517   9.355  0.0341  0.5909 -0.4140
  471MOL0     N63467   4.046   8.566   9.282 -1.8480  0.3313 -0.1335
  471MOL0     C63468   4.125   8.485   9.203  0.4772  0.3574  0.5476
  471MOL0     C63469   4.219   8.559   9.148  0.4414  0.8118 -1.1069
  471MOL0     C63470   4.331   8.509   9.055  0.0390 -0.2018  0.3644
  471MOL0     C63471   4.456   8.520   9.144  0.3582  0.5525 -0.3043
  471MOL0     C63472   4.581   8.446   9.077  1.0049  0.2316  0.3098
  471MOL0     C63473   4.704   8.464   9.152 -0.4893  0.0682  0.2754
  471MOL0     O63474   4.708   8.385   9.277  0.0868 -0.7840  0.3581
  471MOL0     C63475   4.826   8.385   9.348 -0.7211  0.0166 -0.4246
  471MOL0     C63476   4.938   8.461   9.313  0.6453 -0.2415 -0.3485
  471MOL0     C63477   5.063   8.446   9.376  0.2091 -0.7749  0.0812
  471MOL0     C63478   5.075   8.355   9.479 -0.5890  0.5377  0.1419
  471MOL0     C63479   5.205   8.316   9.540 -0.5862  0.0091  0.5585
  471MOL0     O63480   5.318   8.374   9.489  0.1267  0.1110  0.3369
  471MOL0     C63481   5.440   8.343   9.538 -0.6833  0.4802 -0.3206
  471MOL0     C63482   5.481   8.366   9.668 -0.2040 -0.5178  0.4584
  471MOL0     C63483   5.606   8.363   9.709 -0.0519 -0.1948 -0.1769
  471MOL0     C63484   5.708   8.330   9.621 -0.1995 -0.6477 -0.5584
  471MOL0     O63485   5.829   8.340   9.685 -0.1693 -0.1457  0.1016
  471MOL0     C63486   5.935   8.265   9.635 -0.2953  0.1632 -0.0413
  471MOL0     C63487   6.058   8.298   9.719 -0.0124 -0.3023 -0.4471
  471MOL0     C63488   6.124   8.436   9.662  0.1177 -0.1191  0.9165
  471MOL0     C63489   6.239   8.492   9.757  0.0075 -0.5880  0.1514
  471MOL0     C63490   6.366   8.418   9.754 -0.2422  0.2847 -0.4869
  471MOL0     C63491   6.477   8.505   9.812 -0.5903 -0.9012 -0.7108
  471MOL0     C63492   6.602   8.420   9.849  0.8484  0.3154 -0.3268
  471MOL0     C63493   6.720   8.505   9.876  0.2040 -1.0784  0.4525
  471MOL0    Cl63494   6.849   8.384   9.938  0.0692  0.2523  0.0906
  471MOL0     C63495   5.677   8.292   9.496  0.0480 -0.1224 -0.4623
  471MOL0     C63496   5.543   8.312   9.450 -0.3250  0.2232 -0.1954
  471MOL0     O63497   5.210   8.219   9.621  0.4622 -0.0621 -0.3619
  471MOL0     C63498   4.970   8.275   9.513 -0.2023 -0.3183 -0.3395
  471MOL0     C63499   4.845   8.295   9.455 -0.0879  0.5626 -0.2813
  471MOL0     N63500   4.197   8.687   9.191  0.4173 -0.5344  0.1791
  471MOL0     N63501   4.092   8.688   9.272  0.0713 -0.2384  0.0430
  471MOL0     C63502   3.089   8.582   8.661 -0.0779  0.1144 -0.1453
  471MOL0     C63503   3.010   8.639   8.561 -1.1510 -0.0426 -0.2375
  471MOL0     C63504   2.609   8.865   8.416 -0.4424  0.1469 -0.2360
  471MOL0     C63505   2.683   8.937   8.312 -1.1045 -0.5028  0.2272
  471MOL0     C63506   2.616   9.014   8.218 -0.2408  0.6442  0.1089
  471MOL0     C63507   2.478   9.009   8.220 -0.1933  0.4203  0.1367
  471MOL0     O63508   2.417   9.089   8.122 -0.1324  0.7846 -0.9707
  471MOL0     C63509   2.282   9.121   8.137  0.4805 -0.7022  0.0909
  471MOL0     C63510   2.242   9.224   8.030  0.4551  0.2767 -0.0465
  471MOL0     C63511   2.091   9.240   8.032 -0.1894 -0.8710  0.3650
  471MOL0     C63512   2.039   9.390   8.036 -0.6225 -0.5248  0.0440
  471MOL0     C63513   2.070   9.467   8.160 -0.5277  0.4430  0.7291
  471MOL0     C63514   2.103   9.521   8.259  0.2722 -0.8278  0.0863
  471MOL0     C63515   2.404   8.941   8.322  0.4946  0.8047  0.9570
  471MOL0     C63516   2.467   8.869   8.417 -0.0226 -0.2927 -0.2648
  471MOL0     C63517   2.388   8.799   8.527 -0.5034  0.3847 -0.0578
  471MOL0     H63518   2.840   8.866   8.744  0.1062  1.4099 -0.6488
  471MOL0     H63519   2.968   8.759   8.933  3.2826 -2.3643  1.7398
  471MOL0     H63520   3.178   8.730   9.035 -0.9604  0.2458  2.2080
  471MOL0     H63521   3.065   8.602   9.079  1.1089 -1.2193  1.0894
  471MOL0     H63522   3.257   8.453   9.100  0.6489 -0.2702 -2.0904
  471MOL0     H63523   3.280   8.608   9.193  2.8365  1.2783 -0.3460
  471MOL0     H63524   3.432   8.672   8.995  0.1573 -0.1227 -0.3449
  471MOL0     H63525   3.406   8.506   8.945 -2.4462 -1.9002  0.8691
  471MOL0     H63526   3.504   8.564   9.229 -1.7368 -2.0939  0.5592
  471MOL0     H63527   3.537   8.423   9.132  0.0026  0.1240 -0.9549
  471MOL0     H63528   3.685   8.555   8.975  2.2330 -0.5073  0.8467
  471MOL0     H63529   3.662   8.697   9.085  2.0053 -0.4336 -2.1135
  471MOL0     H63530   3.758   8.426   9.170  0.7475 -0.4991 -0.4764
  471MOL0     H63531   3.875   8.531   9.104  0.4390  0.8884  0.7613
  471MOL0     H63532   3.716   8.574   9.360  2.0349  0.6570  3.5785
  471MOL0     H63533   3.821   8.703   9.296  0.4108 -0.1753  1.5397
  471MOL0     H63534   3.927   8.532   9.463 -1.7917  0.2754 -0.3188
  471MOL0     H63535   3.918   8.408   9.348  0.6355  0.5309 -0.2255
  471MOL0     H63536   4.094   8.382   9.186 -2.7526  1.1795  0.6728
  471MOL0     H63537   4.305   8.411   9.016  1.5768 -1.0531  1.3662
  471MOL0     H63538   4.339   8.581   8.973 -2.3271  0.0950  0.3412
  471MOL0     H63539   4.481   8.625   9.161  0.5061  0.7241 -1.5207
  471MOL0     H63540   4.434   8.466   9.237  1.2410  1.0778  0.2248
  471MOL0     H63541   4.595   8.487   8.976 -1.8302 -0.5402 -0.4783
  471MOL0     H63542   4.564   8.338   9.074  0.6696  0.3058 -1.4687
  471MOL0     H63543   4.709   8.569   9.180 -2.4165  0.1241  0.5879
  471MOL0     H63544   4.798   8.448   9.099  1.0954  2.7216  2.0382
  471MOL0     H63545   4.935   8.526   9.226 -1.5813 -2.3615 -1.9849
  471MOL0     H63546   5.143   8.515   9.349 -0.4465  0.4092  1.0401
  471MOL0     H63547   5.409   8.403   9.740 -1.3556 -0.8530 -0.4805
  471MOL0     H63548   5.621   8.377   9.816 -1.3215 -0.4618  0.0569
  471MOL0     H63549   5.912   8.158   9.638  1.6038 -0.4759 -3.0899
  471MOL0     H63550   5.962   8.298   9.534 -0.2137  3.2730  0.9001
  471MOL0     H63551   6.016   8.318   9.818  0.6320  1.0101 -0.4121
  471MOL0     H63552   6.138   8.225   9.710  0.0998 -0.2634  0.1970
  471MOL0     H63553   6.161   8.420   9.560  2.3965 -0.2450  1.7126
  471MOL0     H63554   6.051   8.517   9.656  2.0535  1.9152  3.0671
  471MOL0     H63555   6.208   8.496   9.861  1.0212  2.9465  0.4292
  471MOL0     H63556   6.259   8.596   9.733  0.6893 -1.2964 -2.7575
  471MOL0     H63557   6.389   8.391   9.651 -3.7208  0.8705 -1.5734
  471MOL0     H63558   6.341   8.335   9.821  0.0011  2.7984  3.0096
  471MOL0     H63559   6.503   8.584   9.741 -2.3250 -0.2484 -0.6665
  471MOL0     H63560   6.441   8.558   9.901 -0.1323  0.4489 -1.3017
  471MOL0     H63561   6.619   8.337   9.781  1.2631 -0.7272  1.0017
  471MOL0     H63562   6.584   8.363   9.941  0.7637 -0.2939 -0.7187
  471MOL0     H63563   6.755   8.559   9.788 -0.3581 -0.0704  0.8359
  471MOL0     H63564   6.690   8.584   9.946 -0.0724  1.6684 -2.5822
  471MOL0     H63565   5.751   8.255   9.425 -0.8059 -0.7119 -1.0656
  471MOL0     H63566   5.532   8.299   9.343  1.3428  3.8678 -0.9727
  471MOL0     H63567   4.986   8.194   9.584 -2.6091  0.3751  1.1418
  471MOL0     H63568   4.763   8.224   9.467 -0.6156  1.4348  1.5839
  471MOL0     H63569   3.150   8.494   8.641 -1.8588 -1.7598  2.0683
  471MOL0     H63570   3.016   8.602   8.459 -3.5063  0.1489 -0.5159
  471MOL0     H63571   2.791   8.937   8.300 -1.0825  1.5143  0.1111
  471MOL0     H63572   2.671   9.074   8.146 -0.5550  1.0673  0.2213
  471MOL0     H63573   2.286   9.182   8.227  2.9667  0.8152 -0.9276
  471MOL0     H63574   2.215   9.037   8.154 -2.7513  1.6085 -0.2953
  471MOL0     H63575   2.265   9.178   7.934 -0.5180 -0.9890  0.2825
  471MOL0     H63576   2.290   9.320   8.048 -1.6053  1.0772  1.7331
  471MOL0     H63577   2.039   9.191   8.115 -0.5966 -1.5532 -0.2793
  471MOL0     H63578   2.057   9.191   7.941 -0.4744  0.6254 -0.3656
  471MOL0     H63579   2.079   9.442   7.949 -1.6783  1.9940  0.9551
  471MOL0     H63580   1.930   9.396   8.034 -0.5503  2.6566  0.8346
  471MOL0     H63581   2.133   9.576   8.346  0.1459  3.5814 -2.3904
  471MOL0     H63582   2.295   8.939   8.328  0.5700 -0.6685  2.9921
  471MOL0     H63583   2.433   8.825   8.623  1.4398  2.1078 -1.3741
  471MOL0     H63584   2.283   8.826   8.540 -0.1435  1.2235  1.3007
  471MOL0     H63585   2.392   8.692   8.505 -0.2861  0.7840 -2.1681
  472MOL0     O63586   1.068   6.375   9.262  0.0596 -0.5492  0.0317
  472MOL0     C63587   1.065   6.498   9.267  0.9600 -0.5849 -0.0991
  472MOL0     O63588   1.171   6.579   9.299 -0.0017  0.2616  0.4952
  472MOL0     C63589   1.268   6.534   9.385  0.2686 -0.4524 -0.1350
  472MOL0     C63590   1.402   6.572   9.366 -0.2849  0.7109 -0.7150
  472MOL0     C63591   1.496   6.532   9.463  0.4110 -0.8268 -0.0411
  472MOL0     C63592   1.470   6.447   9.574  0.2886  0.2301  1.4716
  472MOL0     O63593   1.575   6.419   9.661  0.1375 -0.2658 -0.4529
  472MOL0     C63594   1.642   6.532   9.713 -0.3344 -0.2963 -0.1574
  472MOL0     C63595   1.687   6.498   9.862  0.4212  0.9309 -0.2128
  472MOL0     C63596   1.805   6.403   9.862 -0.6762 -1.0264  0.4326
  472MOL0     C63597   1.867   6.398  10.001 -0.5770  0.3475  0.0151
  472MOL0     C63598   1.981   6.296  10.009  0.1598  0.2525  0.0348
  472MOL0     C63599   2.056   6.292  10.139 -0.8156 -0.8333 -0.1657
  472MOL0     C63600   2.158   6.407  10.143  0.0371 -0.4083 -0.0276
  472MOL0     C63601   2.249   6.398  10.270 -0.1496  0.3193 -0.3437
  472MOL0     N63602   2.353   6.305  10.249 -0.6450 -0.3921 -0.1151
  472MOL0     C63603   2.350   6.181  10.288 -0.4382  0.4097 -0.6719
  472MOL0     C63604   2.474   6.141  10.281 -0.7689  0.5437 -0.1203
  472MOL0     C63605   2.536   6.018  10.335  0.3014 -0.5092  0.3115
  472MOL0     C63606   2.528   6.029  10.495 -0.5645  0.0556  0.2294
  472MOL0     C63607   2.563   5.901  10.557  0.0384  0.3202 -0.3971
  472MOL0     C63608   2.714   5.862  10.543 -0.7349 -0.2137 -0.0983
  472MOL0     O63609   2.746   5.743  10.619  0.4339  0.4835 -0.2689
  472MOL0     C63610   2.874   5.690  10.619  0.5172  0.1887 -0.1894
  472MOL0     C63611   2.983   5.735  10.541  0.7082  0.1990  0.0044
  472MOL0     C63612   3.112   5.669  10.550  0.3848 -0.4517 -0.3536
  472MOL0     C63613   3.120   5.559  10.644  0.7267 -0.3466  0.6569
  472MOL0     C63614   3.247   5.504  10.685 -0.4060  0.2743 -0.5317
  472MOL0     O63615   3.252   5.368  10.715 -0.1934 -0.0380 -0.2448
  472MOL0     C63616   3.362   5.298  10.751 -0.8288  0.4560  0.5058
  472MOL0     C63617   3.471   5.344  10.809 -0.2379  0.4672 -0.2406
  472MOL0     C63618   3.579   5.257  10.836 -0.5251  0.1046 -0.1140
  472MOL0     C63619   3.577   5.125  10.798 -0.9866 -0.5540  0.2492
  472MOL0     O63620   3.695   5.068  10.818 -0.3114 -0.0435 -0.1216
  472MOL0     C63621   3.716   4.936  10.772  0.5758 -1.1393 -0.0709
  472MOL0     C63622   3.861   4.889  10.808 -1.1523  0.7102 -0.3132
  472MOL0     C63623   3.888   4.870  10.970  0.9722 -0.6528  0.2115
  472MOL0     C63624   3.964   4.741  11.004 -0.1797 -0.0723  0.1761
  472MOL0     C63625   4.003   4.717  11.152 -0.2525  0.4655  1.1929
  472MOL0     C63626   4.073   4.830  11.223  0.7736 -0.4247  0.9035
  472MOL0     C63627   4.095   4.792  11.369  0.2952 -0.3442 -0.4992
  472MOL0     C63628   4.191   4.892  11.423 -0.1485  0.0419  0.0504
  472MOL0    Cl63629   4.354   4.822  11.377 -0.5626 -0.3618 -0.0000
  472MOL0     C63630   3.464   5.074  10.736  0.7785 -0.2589  0.3985
  472MOL0     C63631   3.364   5.166  10.708  0.4816 -0.8188 -0.1025
  472MOL0     O63632   3.336   5.587  10.677 -0.6262 -0.0515  0.5116
  472MOL0     C63633   3.005   5.504  10.706  0.6738  0.8650  0.2743
  472MOL0     C63634   2.887   5.573  10.691  0.4263 -0.3275  0.5164
  472MOL0     N63635   2.554   6.240  10.237  0.1108 -0.4182 -0.1926
  472MOL0     N63636   2.478   6.343  10.217 -0.3569 -0.4335  0.2075
  472MOL0     C63637   1.343   6.402   9.584 -0.2664 -0.7122 -0.2281
  472MOL0     C63638   1.238   6.441   9.496 -0.2830  0.6942 -0.9802
  472MOL0     C63639   0.939   6.568   9.222 -0.8392  0.3857 -0.2482
  472MOL0     C63640   0.942   6.713   9.222 -0.0479  0.3187  0.1307
  472MOL0     C63641   0.833   6.786   9.180  0.2795  0.8665  0.3739
  472MOL0     C63642   0.716   6.724   9.127 -0.1325  1.0454 -0.0846
  472MOL0     O63643   0.616   6.809   9.091 -0.7216  0.3092  0.0339
  472MOL0     C63644   0.494   6.764   9.037  0.5205 -0.2773  0.4418
  472MOL0     C63645   0.500   6.715   8.882 -0.2059 -0.8560 -0.1265
  472MOL0     C63646   0.365   6.740   8.818 -0.6172  0.4180  0.5237
  472MOL0     C63647   0.354   6.662   8.682  0.0833  1.1783 -0.4076
  472MOL0     C63648   0.229   6.682   8.619  0.2481 -0.2192 -0.4183
  472MOL0     C63649   0.113   6.698   8.579  0.1154  0.4616 -0.9374
  472MOL0     C63650   0.714   6.582   9.118  0.0711  0.0629  0.4857
  472MOL0     C63651   0.821   6.501   9.171  0.2144 -0.3373  0.5391
  472MOL0     C63652   0.805   6.354   9.175 -0.1549 -0.4849  0.3944
  472MOL0     H63653   1.435   6.628   9.279  3.8878 -0.0888  0.1438
  472MOL0     H63654   1.593   6.575   9.442 -0.4651  0.7806 -1.0200
  472MOL0     H63655   1.724   6.560   9.646  0.2888  1.6018  1.3055
  472MOL0     H63656   1.575   6.617   9.729 -0.2180  0.3130 -2.5509
  472MOL0     H63657   1.602   6.469   9.926  0.8524 -2.5674 -1.0124
  472MOL0     H63658   1.718   6.597   9.897  0.3093  1.2325 -0.9488
  472MOL0     H63659   1.876   6.442   9.788 -1.4480  1.8235  1.0774
  472MOL0     H63660   1.765   6.306   9.831 -2.8724 -0.1738  0.4723
  472MOL0     H63661   1.907   6.493  10.038  0.4386 -0.1564  0.2608
  472MOL0     H63662   1.784   6.365  10.063 -2.1316 -0.5007 -2.4082
  472MOL0     H63663   1.935   6.197   9.996  0.0163  0.3430 -0.1409
  472MOL0     H63664   2.063   6.303   9.938  1.4919 -0.8077  1.3881
  472MOL0     H63665   1.989   6.297  10.225  3.0812 -2.9964  3.3551
  472MOL0     H63666   2.113   6.199  10.137  2.2913  0.9330  0.0302
  472MOL0     H63667   2.104   6.502  10.152 -0.3063 -0.6886  1.0615
  472MOL0     H63668   2.219   6.406  10.052 -0.1635  0.7176 -0.1929
  472MOL0     H63669   2.300   6.495  10.275  0.6341 -0.1270  0.8666
  472MOL0     H63670   2.191   6.374  10.360  0.5014  0.0803  0.0195
  472MOL0     H63671   2.271   6.124  10.337  0.5136 -2.1744 -1.9695
  472MOL0     H63672   2.476   5.938  10.291  2.0598 -2.5669  1.4308
  472MOL0     H63673   2.638   6.008  10.297 -0.1620  1.6720 -1.7127
  472MOL0     H63674   2.593   6.104  10.542  0.9764 -2.5757  2.6491
  472MOL0     H63675   2.424   6.041  10.526 -0.1691  0.9474  1.2365
  472MOL0     H63676   2.507   5.824  10.504  1.3673  0.5201 -2.1427
  472MOL0     H63677   2.517   5.906  10.657 -1.2905  1.0329 -1.0036
  472MOL0     H63678   2.773   5.950  10.569 -1.4163  0.4098 -0.6362
  472MOL0     H63679   2.724   5.844  10.435  1.7617 -0.8103  0.1635
  472MOL0     H63680   2.976   5.829  10.487 -1.9850  0.7432  1.1277
  472MOL0     H63681   3.197   5.716  10.503 -0.0572  1.4365  0.6091
  472MOL0     H63682   3.479   5.444  10.851  0.3384  0.5398 -0.5074
  472MOL0     H63683   3.671   5.294  10.881 -0.6332  0.1310  0.0866
  472MOL0     H63684   3.644   4.865  10.814 -0.9346  0.1938 -0.3074
  472MOL0     H63685   3.699   4.926  10.664 -0.7478  0.0199  0.0013
  472MOL0     H63686   3.871   4.788  10.767  0.7403  0.8710 -0.3329
  472MOL0     H63687   3.939   4.951  10.762 -0.4666  0.1563  0.0770
  472MOL0     H63688   3.945   4.960  10.994  0.6330 -0.0313 -1.1909
  472MOL0     H63689   3.791   4.860  11.019  0.1431 -2.4337 -1.6332
  472MOL0     H63690   4.050   4.737  10.936 -0.7443  0.5233 -0.5913
  472MOL0     H63691   3.902   4.656  10.973  0.5243 -0.8551  0.8542
  472MOL0     H63692   4.052   4.620  11.163 -0.0780  0.3186 -0.5632
  472MOL0     H63693   3.905   4.696  11.196  0.0616 -0.7863  1.3431
  472MOL0     H63694   4.164   4.857  11.169  0.5781  1.7262  1.5231
  472MOL0     H63695   4.015   4.923  11.215 -0.0303 -0.8353  1.6946
  472MOL0     H63696   4.139   4.693  11.383  4.0448  1.1810 -0.4561
  472MOL0     H63697   3.994   4.796  11.410  0.7253  1.8788  0.5378
  472MOL0     H63698   4.183   4.995  11.386 -0.1786  1.1510  2.8915
  472MOL0     H63699   4.184   4.889  11.532  3.0842  0.0360  0.3564
  472MOL0     H63700   3.432   4.974  10.707  0.7679 -0.0155 -0.4560
  472MOL0     H63701   3.276   5.138  10.651 -1.4998  1.9078  1.3846
  472MOL0     H63702   3.013   5.417  10.770  1.2293 -1.5325 -2.8051
  472MOL0     H63703   2.796   5.541  10.742 -2.5012  2.4193 -2.4641
  472MOL0     H63704   1.328   6.334   9.667  1.4397 -3.4105 -1.9804
  472MOL0     H63705   1.135   6.411   9.517  0.5997  0.0574  3.2441
  472MOL0     H63706   1.028   6.770   9.257  0.4338  1.3953 -2.5554
  472MOL0     H63707   0.834   6.894   9.171  2.4059  0.9539  1.2771
  472MOL0     H63708   0.420   6.843   9.046  1.7539  0.7360  2.3312
  472MOL0     H63709   0.465   6.687   9.109  0.4739  1.6906  2.6661
  472MOL0     H63710   0.514   6.607   8.878 -1.9603 -1.1450  0.5774
  472MOL0     H63711   0.583   6.769   8.835  0.1935  0.4951  2.0076
  472MOL0     H63712   0.357   6.846   8.794 -0.1223  0.2006 -0.6687
  472MOL0     H63713   0.285   6.711   8.887  0.5244  1.0141  2.1281
  472MOL0     H63714   0.440   6.696   8.624  1.3787  2.3145  2.0455
  472MOL0     H63715   0.364   6.555   8.703  2.2789  1.4478  0.1136
  472MOL0     H63716   0.011   6.714   8.548 -0.0309  1.4803  0.0221
  472MOL0     H63717   0.625   6.535   9.080  1.0440 -0.6066 -1.0681
  472MOL0     H63718   0.705   6.335   9.133 -0.1749 -0.1712  0.2992
  472MOL0     H63719   0.885   6.304   9.120 -0.1069 -0.7799  0.7229
  472MOL0     H63720   0.801   6.315   9.278 -1.1879  1.8219  1.2956
  473MOL0     O63721   9.086   3.960   4.991 -0.1535  0.1465  0.4884
  473MOL0     C63722   9.060   4.032   4.891  0.7740 -0.6100  0.0546
  473MOL0     O63723   9.119   4.156   4.863 -0.5348 -0.4037 -0.0864
  473MOL0     C63724   9.223   4.202   4.947  0.0372 -0.0022 -0.1600
  473MOL0     C63725   9.199   4.236   5.074 -0.8471 -0.7021 -0.1180
  473MOL0     C63726   9.297   4.273   5.164 -0.5958 -0.8814  0.0058
  473MOL0     C63727   9.430   4.288   5.116  0.9038  0.4945  0.8057
  473MOL0     O63728   9.540   4.317   5.177  0.4326 -0.2171 -0.8932
  473MOL0     C63729   9.526   4.383   5.306  0.1968  0.2612 -0.8106
  473MOL0     C63730   9.667   4.430   5.341  0.0698  0.0757  0.5145
  473MOL0     C63731   9.767   4.316   5.360 -0.8308 -1.8493  0.5412
  473MOL0     C63732   9.888   4.366   5.433  0.0909  0.1541 -0.4715
  473MOL0     C63733  10.014   4.282   5.418 -0.0347  0.0074  0.5557
  473MOL0     C63734  10.128   4.343   5.496 -0.2191 -0.4191  1.1040
  473MOL0     C63735  10.236   4.242   5.521  0.1933 -0.7903  0.3429
  473MOL0     C63736  10.300   4.180   5.398  0.6717 -0.0248  0.1906
  473MOL0     N63737  10.409   4.099   5.443 -0.7648  0.9740  0.3385
  473MOL0     C63738  10.414   3.955   5.460 -0.2702  0.7098  0.3405
  473MOL0     C63739  10.544   3.922   5.487  0.2026 -0.2801  0.1141
  473MOL0     C63740  10.592   3.786   5.508 -0.2814  0.6295  0.0465
  473MOL0     C63741  10.540   3.733   5.639  0.3254  0.0635 -0.1995
  473MOL0     C63742  10.552   3.580   5.640 -1.2406  0.8133 -0.7685
  473MOL0     C63743  10.696   3.527   5.616 -0.2261  0.1066 -0.2976
  473MOL0     O63744  10.765   3.561   5.734  0.0851 -0.2559  0.1816
  473MOL0     C63745  10.898   3.534   5.739 -0.3769  0.2870  1.3225
  473MOL0     C63746  10.989   3.546   5.628 -0.4098  1.0303  0.0397
  473MOL0     C63747  11.125   3.516   5.641 -0.4055 -0.2476  0.2108
  473MOL0     C63748  11.180   3.491   5.769 -0.3692  0.6675 -0.7251
  473MOL0     C63749  11.323   3.463   5.782 -0.3719 -0.4985 -0.7314
  473MOL0     O63750  11.367   3.467   5.919 -0.0871  0.1362  0.0060
  473MOL0     C63751  11.486   3.399   5.936  0.3375 -0.0666  0.1708
  473MOL0     C63752  11.617   3.458   5.934  0.4364  0.1504 -0.9055
  473MOL0     C63753  11.722   3.374   5.970 -0.3619  1.3004 -0.6683
  473MOL0     C63754  11.708   3.237   6.013 -0.3169 -0.7682 -0.0802
  473MOL0     O63755  11.810   3.149   6.046  0.0772  0.8572  0.1075
  473MOL0     C63756  11.936   3.156   5.964  0.4760  0.4335 -0.4690
  473MOL0     C63757  11.898   3.124   5.826  0.2955  0.1080  0.3603
  473MOL0     C63758  12.026   3.092   5.739  0.5932  0.0041  0.2572
  473MOL0     C63759  11.999   3.124   5.593  0.6451 -0.4146 -0.0510
  473MOL0     C63760  12.090   3.074   5.474  0.3272  0.6924 -0.0320
  473MOL0     C63761  12.236   3.130   5.476 -0.3655 -0.7127 -0.5231
  473MOL0     C63762  12.305   3.105   5.348  0.7769  1.3466  1.0803
  473MOL0     C63763  12.442   3.162   5.342 -0.0864 -0.2245 -0.3082
  473MOL0    Cl63764  12.549   3.054   5.434  0.0088 -0.0262  0.3715
  473MOL0     C63765  11.575   3.191   6.029  0.9133 -0.4174 -0.1937
  473MOL0     C63766  11.468   3.273   5.998  0.0878  0.6985  0.4616
  473MOL0     O63767  11.388   3.426   5.688  0.1380 -0.1970  0.3040
  473MOL0     C63768  11.090   3.492   5.880  0.2156 -0.0307 -0.1187
  473MOL0     C63769  10.952   3.507   5.858  0.3318 -0.2048 -0.3404
  473MOL0     N63770  10.615   4.043   5.478  0.2504 -0.7481 -0.6676
  473MOL0     N63771  10.535   4.142   5.446 -0.6779 -0.3305  0.0618
  473MOL0     C63772   9.444   4.260   4.977 -0.3677 -0.6065 -0.0394
  473MOL0     C63773   9.346   4.213   4.893 -1.2886 -0.3724  0.3744
  473MOL0     C63774   8.952   3.978   4.800  0.5600  0.1311 -0.5563
  473MOL0     C63775   8.860   3.892   4.851 -0.2480  0.5892  0.5328
  473MOL0     C63776   8.758   3.847   4.773  0.6389  0.6365 -0.2508
  473MOL0     C63777   8.740   3.882   4.641  0.8308 -0.0560  0.2961
  473MOL0     O63778   8.641   3.835   4.561  0.3533  0.3059  0.1875
  473MOL0     C63779   8.516   3.906   4.580 -0.1585 -0.0573  0.1208
  473MOL0     C63780   8.425   3.885   4.452 -0.6508 -1.1908  0.2712
  473MOL0     C63781   8.387   3.739   4.443  0.4022 -0.1626 -0.4293
  473MOL0     C63782   8.301   3.700   4.568  0.2008  0.3657 -0.2710
  473MOL0     C63783   8.167   3.767   4.573  0.9740  0.4065  0.4137
  473MOL0     C63784   8.061   3.826   4.577  1.2513  0.6516 -0.6464
  473MOL0     C63785   8.835   3.970   4.585  0.4046 -0.2649  0.1381
  473MOL0     C63786   8.941   4.012   4.665 -0.4370 -0.3687  0.0934
  473MOL0     C63787   9.050   4.091   4.595 -0.2482  0.6091 -0.4766
  473MOL0     H63788   9.096   4.230   5.107 -1.2724  2.1542 -0.6068
  473MOL0     H63789   9.272   4.273   5.270  0.6451  0.5721  0.3313
  473MOL0     H63790   9.449   4.460   5.297  1.5342  2.0793  1.7236
  473MOL0     H63791   9.498   4.314   5.387  1.2985  0.1501 -0.5022
  473MOL0     H63792   9.655   4.491   5.431 -0.1313  0.0285  0.5197
  473MOL0     H63793   9.694   4.497   5.260  2.0122 -2.0371 -0.7076
  473MOL0     H63794   9.802   4.277   5.264 -1.8194 -2.1794  0.3089
  473MOL0     H63795   9.733   4.230   5.417 -1.2944 -1.7797  0.3728
  473MOL0     H63796   9.903   4.471   5.407  0.3997  0.4106  0.6715
  473MOL0     H63797   9.862   4.354   5.539 -0.7040  1.4235 -0.5002
  473MOL0     H63798   9.997   4.182   5.460 -0.1891 -1.7663 -3.2935
  473MOL0     H63799  10.041   4.278   5.312 -2.2948  2.3864 -0.1885
  473MOL0     H63800  10.166   4.428   5.438 -2.6779  0.3346  0.4725
  473MOL0     H63801  10.088   4.382   5.590  1.4713 -0.1736  1.7597
  473MOL0     H63802  10.186   4.165   5.582 -1.4590 -0.4962 -0.5896
  473MOL0     H63803  10.315   4.289   5.581  0.5835  0.3020 -0.9828
  473MOL0     H63804  10.231   4.107   5.354 -0.3458  0.9476  0.1174
  473MOL0     H63805  10.324   4.259   5.327 -2.1063 -0.0636 -0.9221
  473MOL0     H63806  10.332   3.883   5.459  0.4998 -0.2048 -0.8859
  473MOL0     H63807  10.566   3.721   5.424 -1.4402 -2.6238  2.7181
  473MOL0     H63808  10.701   3.781   5.516 -0.3683 -0.0400  0.9255
  473MOL0     H63809  10.591   3.772   5.729  0.6177  1.2472 -0.8522
  473MOL0     H63810  10.434   3.758   5.648 -0.0676 -1.4343 -0.3709
  473MOL0     H63811  10.498   3.532   5.557  0.7920 -0.9698 -1.1392
  473MOL0     H63812  10.520   3.522   5.727 -0.8564 -1.2332 -1.9047
  473MOL0     H63813  10.744   3.570   5.527  1.6324  1.6722  1.3704
  473MOL0     H63814  10.693   3.418   5.610 -1.8459 -0.1010  2.6308
  473MOL0     H63815  10.959   3.580   5.529  0.6108 -0.1835 -0.7110
  473MOL0     H63816  11.187   3.501   5.554 -1.2216  1.9191 -0.8063
  473MOL0     H63817  11.632   3.560   5.903  1.8655  0.7390  1.4796
  473MOL0     H63818  11.824   3.409   5.970  0.3355 -0.6114 -0.6036
  473MOL0     H63819  11.981   3.256   5.967 -2.3079  1.7671  0.9345
  473MOL0     H63820  11.998   3.078   6.008  1.6563  1.4846 -0.2293
  473MOL0     H63821  11.843   3.030   5.825  1.4867 -0.6115 -0.9310
  473MOL0     H63822  11.847   3.209   5.780  0.1471 -1.1632 -1.9778
  473MOL0     H63823  12.109   3.157   5.769 -0.4172  2.1139 -1.2282
  473MOL0     H63824  12.052   2.986   5.740 -3.2736 -1.1067  0.5056
  473MOL0     H63825  11.985   3.232   5.585  0.2414 -0.5877 -2.7336
  473MOL0     H63826  11.898   3.084   5.584  0.6847 -0.1322 -2.3446
  473MOL0     H63827  12.036   3.104   5.383  1.2612  1.9255 -0.2030
  473MOL0     H63828  12.087   2.966   5.461  1.4629  0.9730 -4.0477
  473MOL0     H63829  12.218   3.236   5.492 -2.3226 -0.9997 -0.5295
  473MOL0     H63830  12.288   3.068   5.550 -0.4125 -1.5206 -1.1535
  473MOL0     H63831  12.244   3.137   5.263 -1.2352 -3.9669  0.1755
  473MOL0     H63832  12.315   2.997   5.332  0.7019  1.5518 -0.5223
  473MOL0     H63833  12.485   3.167   5.241  1.6403 -1.6663  0.3112
  473MOL0     H63834  12.448   3.263   5.382  0.0266  0.0924 -1.0951
  473MOL0     H63835  11.544   3.098   6.075  0.3862 -0.2416 -0.1872
  473MOL0     H63836  11.363   3.243   6.007 -0.2338  0.7871 -2.2862
  473MOL0     H63837  11.126   3.480   5.982  0.9690 -0.8727 -0.4685
  473MOL0     H63838  10.896   3.508   5.951 -0.2157 -2.1788 -0.6138
  473MOL0     H63839   9.545   4.276   4.940 -0.4153 -2.1503 -0.9488
  473MOL0     H63840   9.375   4.186   4.792  2.2509  5.2661 -0.5692
  473MOL0     H63841   8.873   3.840   4.945  2.0490 -0.0268 -0.0438
  473MOL0     H63842   8.685   3.781   4.817  0.4224  1.8342  1.3238
  473MOL0     H63843   8.539   4.013   4.584 -2.9927  0.5811  2.4548
  473MOL0     H63844   8.475   3.870   4.675 -0.8081 -1.8427 -0.7890
  473MOL0     H63845   8.478   3.921   4.364 -0.0949  0.6395  1.3043
  473MOL0     H63846   8.336   3.946   4.465 -1.5618 -1.4461 -3.6293
  473MOL0     H63847   8.470   3.669   4.432  0.2834 -0.5441  0.8695
  473MOL0     H63848   8.320   3.727   4.357  0.8704  2.5537 -1.2878
  473MOL0     H63849   8.280   3.593   4.560  1.9291 -0.1313  1.3055
  473MOL0     H63850   8.357   3.705   4.662 -2.2003 -0.1708  1.2848
  473MOL0     H63851   7.971   3.884   4.575  0.2229 -0.8844 -3.2197
  473MOL0     H63852   8.820   3.999   4.482  0.4916 -0.3291  0.1080
  473MOL0     H63853   9.046   4.194   4.630 -1.7990  0.3805  0.0886
  473MOL0     H63854   9.150   4.051   4.613  0.0976  0.6057 -2.2152
  473MOL0     H63855   9.030   4.088   4.488 -0.6424  1.2989 -0.4244
  474MOL0     O63856  10.358   0.146   9.637 -0.7367  0.4560  0.0189
  474MOL0     C63857  10.274   0.132   9.723  0.4877  0.4362  0.3750
  474MOL0     O63858  10.289   0.095   9.850  0.5287  0.1808  0.0826
  474MOL0     C63859  10.417   0.085   9.894  0.4485 -0.1295  0.9549
  474MOL0     C63860  10.479  -0.038   9.881 -0.2344  0.4329 -0.4404
  474MOL0     C63861  10.606  -0.053   9.930 -0.8077 -0.9427  1.1679
  474MOL0     C63862  10.675   0.046   9.996  0.3247  0.2019 -0.1813
  474MOL0     O63863  10.798   0.002  10.042 -0.6834  0.4151  1.0412
  474MOL0     C63864  10.861   0.075  10.147 -0.2293  0.1500 -0.2979
  474MOL0     C63865  10.974  -0.017  10.192  0.5347  0.4653  0.0510
  474MOL0     C63866  11.074   0.048  10.288 -0.1114  0.1531  0.3108
  474MOL0     C63867  11.187  -0.045  10.323 -0.1946  0.6876  0.2168
  474MOL0     C63868  11.284   0.022  10.416  0.3465 -0.6562  0.7169
  474MOL0     C63869  11.414  -0.054  10.439  0.7352 -0.1825  0.0417
  474MOL0     C63870  11.508   0.039  10.522 -0.1394 -0.1385  0.0635
  474MOL0     C63871  11.656  -0.013  10.534 -0.2664  0.1459 -0.5168
  474MOL0     N63872  11.752   0.096  10.573  0.8741 -0.4144 -1.1556
  474MOL0     C63873  11.781   0.211  10.504 -0.5944 -0.1790  0.1301
  474MOL0     C63874  11.856   0.277  10.592  0.1206 -0.1373 -0.9172
  474MOL0     C63875  11.891   0.421  10.571 -0.5033  0.3845 -0.4749
  474MOL0     C63876  12.038   0.446  10.618 -0.4276 -0.7508 -0.0884
  474MOL0     C63877  12.076   0.595  10.589  0.5197 -0.4566  0.8390
  474MOL0     C63878  12.225   0.615  10.624 -0.2872 -0.3087 -0.2035
  474MOL0     O63879  12.312   0.503  10.580  0.6647 -0.0167  0.2536
  474MOL0     C63880  12.452   0.520  10.586 -0.0602 -1.1009  0.1206
  474MOL0     C63881  12.524   0.423  10.520 -0.2579 -0.0531  0.2933
  474MOL0     C63882  12.667   0.417  10.527 -0.0132  0.0233 -0.0470
  474MOL0     C63883  12.740   0.520  10.592  0.4674  0.3740  0.0687
  474MOL0     C63884  12.889   0.542  10.599  0.3251  0.5322  0.1511
  474MOL0     O63885  12.959   0.481  10.497  0.2691 -0.7046  0.4082
  474MOL0     C63886  13.100   0.482  10.479  0.1939  0.3550  0.1289
  474MOL0     C63887  13.192   0.569  10.529 -0.1493  0.4470  0.4762
  474MOL0     C63888  13.326   0.560  10.484  0.4688  0.0143  0.1293
  474MOL0     C63889  13.373   0.456  10.411 -0.4535  0.3887 -0.6419
  474MOL0     O63890  13.511   0.451  10.394 -0.7495  0.6935 -0.2129
  474MOL0     C63891  13.563   0.325  10.348 -0.7567 -0.4214  0.3046
  474MOL0     C63892  13.718   0.345  10.333  0.6556  0.2353 -0.5053
  474MOL0     C63893  13.779   0.211  10.304  0.2203  0.1994  0.4542
  474MOL0     C63894  13.936   0.197  10.321  0.6072  0.4534  0.9895
  474MOL0     C63895  13.993   0.068  10.254  0.3846  0.3651  0.5834
  474MOL0     C63896  13.933   0.037  10.112  0.8527 -0.0794  0.1301
  474MOL0     C63897  14.023  -0.038  10.020  0.1403  0.1997  0.0921
  474MOL0     C63898  14.044  -0.193  10.047 -0.0330  0.0073 -0.2079
  474MOL0    Cl63899  14.137  -0.209  10.214 -0.1823  0.0972 -0.0909
  474MOL0     C63900  13.277   0.368  10.367 -0.1193  0.5688  0.1211
  474MOL0     C63901  13.141   0.380  10.393  0.0155 -0.2705 -0.6735
  474MOL0     O63902  12.941   0.609  10.685  0.5296  0.1212 -0.3399
  474MOL0     C63903  12.665   0.626  10.660 -0.1961  0.1279 -0.0840
  474MOL0     C63904  12.524   0.619  10.661 -0.0609 -0.6495  0.3681
  474MOL0     N63905  11.876   0.199  10.705 -0.4421 -0.3945 -0.4186
  474MOL0     N63906  11.818   0.086  10.687  0.4077 -0.5904 -0.0308
  474MOL0     C63907  10.617   0.171  10.013  0.0396 -0.4890 -0.0772
  474MOL0     C63908  10.482   0.193   9.956  0.4668  0.0024  0.7231
  474MOL0     C63909  10.131   0.141   9.666  0.0720  1.0923 -0.1456
  474MOL0     C63910  10.029   0.108   9.759  0.0532 -0.2708  0.1803
  474MOL0     C63911   9.897   0.106   9.718  0.2813  0.1752 -0.5537
  474MOL0     C63912   9.863   0.137   9.592 -0.3109 -0.7206 -0.9423
  474MOL0     O63913   9.732   0.136   9.558  0.2263 -0.2271  0.2654
  474MOL0     C63914   9.685   0.158   9.420 -1.0590 -0.0137  0.4741
  474MOL0     C63915   9.535   0.142   9.408  0.2762 -0.2366  0.7220
  474MOL0     C63916   9.449   0.212   9.515 -0.0675  0.0316 -0.0911
  474MOL0     C63917   9.314   0.156   9.544  0.5253  0.3063 -0.1321
  474MOL0     C63918   9.215   0.204   9.449 -0.2296  0.5350 -0.1850
  474MOL0     C63919   9.124   0.239   9.386 -0.1415  0.3002  0.4904
  474MOL0     C63920   9.969   0.174   9.503 -0.9907 -0.3714  0.3907
  474MOL0     C63921  10.103   0.182   9.535 -0.5499 -0.5471 -0.4629
  474MOL0     C63922  10.202   0.234   9.423  0.2155  0.4324 -0.2346
  474MOL0     H63923  10.421  -0.123   9.847  0.2797  0.1675 -0.6603
  474MOL0     H63924  10.652  -0.151   9.926  2.9180  0.6651 -0.3416
  474MOL0     H63925  10.895   0.175  10.118  1.9676  0.0943  1.7827
  474MOL0     H63926  10.798   0.098  10.234  0.4008  2.1947 -0.3320
  474MOL0     H63927  11.021  -0.056  10.101 -0.2414 -2.9086  0.9916
  474MOL0     H63928  10.918  -0.097  10.242  0.5295  0.2300 -0.3271
  474MOL0     H63929  11.025   0.087  10.378  0.1733 -0.1867  0.6141
  474MOL0     H63930  11.115   0.138  10.241 -1.9240  2.5447  2.9645
  474MOL0     H63931  11.140  -0.134  10.368 -1.7270  0.5809 -1.4455
  474MOL0     H63932  11.239  -0.083  10.235 -0.6188 -0.1391  0.3116
  474MOL0     H63933  11.300   0.121  10.372  0.6968 -2.1318 -2.8689
  474MOL0     H63934  11.223   0.037  10.505 -1.5354  0.7756 -0.7035
  474MOL0     H63935  11.379  -0.147  10.486 -0.4331 -0.2360 -0.8678
  474MOL0     H63936  11.453  -0.077  10.340  0.0265 -1.8174  0.1103
  474MOL0     H63937  11.470   0.070  10.619 -0.7961 -1.7352  0.3552
  474MOL0     H63938  11.517   0.126  10.457  2.6685  0.6489  1.3466
  474MOL0     H63939  11.662  -0.099  10.601 -2.8636 -0.8355 -1.4052
  474MOL0     H63940  11.693  -0.058  10.442 -2.6831 -0.1235 -1.4310
  474MOL0     H63941  11.742   0.253  10.412 -1.4363 -0.5292  0.3125
  474MOL0     H63942  11.875   0.440  10.464 -1.1170  1.1161 -0.2599
  474MOL0     H63943  11.824   0.484  10.631 -1.3313  1.1881 -2.1631
  474MOL0     H63944  12.049   0.426  10.725  0.8733  1.0034  0.1596
  474MOL0     H63945  12.098   0.370  10.568  0.5060  0.7326 -1.3253
  474MOL0     H63946  12.019   0.662  10.654 -2.9890 -3.0160  0.6565
  474MOL0     H63947  12.057   0.628  10.487  1.8397  3.4970  1.6744
  474MOL0     H63948  12.233   0.609  10.733 -4.0960 -3.4418  0.1393
  474MOL0     H63949  12.263   0.712  10.590 -0.0480 -0.0887  0.6671
  474MOL0     H63950  12.465   0.347  10.470 -0.3900  1.0789 -1.3569
  474MOL0     H63951  12.722   0.339  10.475  1.0332  0.7563 -0.0554
  474MOL0     H63952  13.165   0.657  10.587  0.5761  0.5005  0.7436
  474MOL0     H63953  13.398   0.629  10.528  2.8017  0.8693 -4.3803
  474MOL0     H63954  13.545   0.241  10.416  1.3423 -0.3081  1.0468
  474MOL0     H63955  13.523   0.296  10.250  3.4015  0.6130 -1.9375
  474MOL0     H63956  13.743   0.421  10.258  0.5350  2.4280  1.5357
  474MOL0     H63957  13.755   0.387  10.427  1.5732  0.0335 -0.7663
  474MOL0     H63958  13.735   0.130  10.362 -0.7978 -0.4953 -1.2291
  474MOL0     H63959  13.745   0.180  10.205 -0.5750 -1.7743  1.2901
  474MOL0     H63960  13.970   0.207  10.425 -2.1741  1.4173  1.8682
  474MOL0     H63961  13.987   0.280  10.271  1.8310  0.6022  2.4015
  474MOL0     H63962  13.966  -0.019  10.313  0.3173 -0.8342 -1.1327
  474MOL0     H63963  14.101   0.072  10.237  0.2437 -2.0880 -1.5304
  474MOL0     H63964  13.835  -0.012  10.121  1.8480 -1.7615  5.9128
  474MOL0     H63965  13.920   0.131  10.058  0.7667 -0.4094 -0.4307
  474MOL0     H63966  14.118   0.015  10.005 -0.7362  1.8830  0.2423
  474MOL0     H63967  13.965  -0.031   9.927 -1.0743 -0.9107  0.7308
  474MOL0     H63968  13.943  -0.235  10.048  0.0334 -0.1888 -0.9968
  474MOL0     H63969  14.109  -0.235   9.969  0.0893  1.0395 -0.6808
  474MOL0     H63970  13.312   0.284  10.307 -1.3784  1.1734 -1.5434
  474MOL0     H63971  13.072   0.310  10.347 -0.3967 -1.1243  1.1322
  474MOL0     H63972  12.722   0.704  10.710  2.0525 -0.8890 -0.9010
  474MOL0     H63973  12.471   0.702  10.707 -1.2006 -1.1838  0.0476
  474MOL0     H63974  10.664   0.250  10.070  0.2321 -0.7535  0.1302
  474MOL0     H63975  10.433   0.288   9.971 -2.4160 -0.9601 -1.6639
  474MOL0     H63976  10.054   0.084   9.862 -0.6354  1.2384  0.7278
  474MOL0     H63977   9.819   0.083   9.790  1.1605  1.0580  0.7345
  474MOL0     H63978   9.738   0.085   9.358  1.0419  0.8317  1.1757
  474MOL0     H63979   9.710   0.258   9.385 -2.6269 -0.3857 -1.9072
  474MOL0     H63980   9.511   0.036   9.423  1.3749 -0.4347  1.2047
  474MOL0     H63981   9.510   0.164   9.303  4.2298  0.6381 -0.1883
  474MOL0     H63982   9.442   0.317   9.483  0.3962  0.9046  2.4367
  474MOL0     H63983   9.500   0.225   9.611 -1.2141 -0.5898  0.6231
  474MOL0     H63984   9.320   0.047   9.531 -0.7372  0.4569 -2.7051
  474MOL0     H63985   9.278   0.177   9.645  1.2294  0.2782  0.1358
  474MOL0     H63986   9.046   0.276   9.322 -1.0488 -2.3666 -0.0546
  474MOL0     H63987   9.942   0.201   9.402 -1.7379 -1.4137  0.2989
  474MOL0     H63988  10.249   0.147   9.375 -0.2004  0.6191 -1.0127
  474MOL0     H63989  10.149   0.291   9.346  1.7395 -0.6346 -2.2064
  474MOL0     H63990  10.284   0.289   9.470  0.7505  0.1454 -0.8083
  475MOL0     O63991   3.896   1.034   5.232 -0.4304  0.2090 -0.2835
  475MOL0     C63992   3.812   1.125   5.248  0.9094  0.5079 -0.9749
  475MOL0     O63993   3.832   1.244   5.310 -1.3205  0.5811 -0.2901
  475MOL0     C63994   3.961   1.263   5.362  1.1635 -0.7781  1.4403
  475MOL0     C63995   4.072   1.294   5.280  0.0608  0.2743  0.0416
  475MOL0     C63996   4.196   1.324   5.335  0.5233  0.8159 -0.2709
  475MOL0     C63997   4.210   1.312   5.471  0.2369 -0.0874 -0.0518
  475MOL0     O63998   4.315   1.359   5.545  0.3523  0.1062 -0.2280
  475MOL0     C63999   4.374   1.480   5.504 -0.2416 -0.4565 -0.1694
  475MOL0     C64000   4.516   1.461   5.471 -0.5545 -0.3171 -0.0577
  475MOL0     C64001   4.544   1.371   5.347 -0.2233  0.5723 -0.0225
  475MOL0     C64002   4.695   1.342   5.349  0.5617  0.1645  0.4870
  475MOL0     C64003   4.743   1.282   5.216 -0.6525  0.7669  0.0158
  475MOL0     C64004   4.888   1.229   5.227  0.4704 -0.0363  0.4005
  475MOL0     C64005   4.981   1.280   5.111  0.4628 -0.0768 -0.7697
  475MOL0     C64006   5.116   1.207   5.098 -0.3229  0.5192 -0.4063
  475MOL0     N64007   5.208   1.226   5.204  0.1156 -0.1635  0.4071
  475MOL0     C64008   5.304   1.326   5.197  0.0184  0.4833 -0.7218
  475MOL0     C64009   5.406   1.275   5.278  0.1776  0.0123  0.6095
  475MOL0     C64010   5.527   1.354   5.319  0.5770  0.7628  0.3812
  475MOL0     C64011   5.597   1.407   5.193  0.1300 -0.0591 -0.0538
  475MOL0     C64012   5.633   1.300   5.094 -0.5962  1.5733  0.0519
  475MOL0     C64013   5.776   1.242   5.098 -0.9823 -0.2252 -0.5307
  475MOL0     O64014   5.880   1.342   5.106 -0.0088 -0.4971 -0.7298
  475MOL0     C64015   6.011   1.306   5.114  0.6198  0.2005 -0.3706
  475MOL0     C64016   6.068   1.174   5.127  0.7406 -0.7757 -0.8390
  475MOL0     C64017   6.209   1.159   5.131 -0.4555  0.6508 -0.2197
  475MOL0     C64018   6.292   1.273   5.157 -0.3454  1.0728 -0.0035
  475MOL0     C64019   6.435   1.265   5.192  0.0660  0.4759  0.4478
  475MOL0     O64020   6.479   1.140   5.223 -0.3423  0.1306 -0.5511
  475MOL0     C64021   6.608   1.115   5.254 -0.6314  0.5429  0.1448
  475MOL0     C64022   6.677   1.179   5.353 -0.1223 -0.2894 -0.4104
  475MOL0     C64023   6.815   1.160   5.370 -0.8819 -0.5047  0.4280
  475MOL0     C64024   6.886   1.067   5.294  0.3429  0.4707 -0.2912
  475MOL0     O64025   7.017   1.057   5.323 -0.4187 -0.2771  0.2771
  475MOL0     C64026   7.076   0.929   5.320  0.1856  0.6851  0.4289
  475MOL0     C64027   7.221   0.960   5.350  0.4581 -0.3276  0.2267
  475MOL0     C64028   7.246   0.992   5.497 -0.0809  0.2988 -0.2367
  475MOL0     C64029   7.368   1.086   5.514 -0.3142 -0.6363 -0.0897
  475MOL0     C64030   7.499   1.041   5.462 -0.8350 -0.2396 -0.2270
  475MOL0     C64031   7.542   0.902   5.514 -0.0832  0.1210 -0.3544
  475MOL0     C64032   7.565   0.892   5.670  0.3817  0.5171  0.2848
  475MOL0     C64033   7.626   0.759   5.686 -0.4348  0.3557  0.3871
  475MOL0    Cl64034   7.593   0.708   5.855  0.0580 -0.3884 -0.1741
  475MOL0     C64035   6.815   1.000   5.193  1.0992 -0.4464 -0.0194
  475MOL0     C64036   6.676   1.028   5.163  0.1890  0.0128 -0.9762
  475MOL0     O64037   6.501   1.367   5.207  0.2028  0.1515 -0.1528
  475MOL0     C64038   6.233   1.403   5.151 -1.2677  1.4979  0.0127
  475MOL0     C64039   6.099   1.414   5.111 -0.5369 -0.6316  0.4832
  475MOL0     N64040   5.364   1.154   5.319 -0.0647  0.3606 -0.0611
  475MOL0     N64041   5.250   1.121   5.277 -0.0251  0.0800 -0.3030
  475MOL0     C64042   4.098   1.271   5.548 -0.2318  0.4560 -0.4864
  475MOL0     C64043   3.974   1.246   5.492 -0.0759  0.3261 -0.8306
  475MOL0     C64044   3.684   1.127   5.178  0.7740  0.2878 -0.5421
  475MOL0     C64045   3.690   1.112   5.041  0.0344  0.7426  0.3159
  475MOL0     C64046   3.576   1.107   4.969 -0.6224 -0.2150 -0.8871
  475MOL0     C64047   3.454   1.126   5.023  0.4790  0.9072 -0.6675
  475MOL0     O64048   3.356   1.139   4.923  0.4314  0.0436  0.3593
  475MOL0     C64049   3.227   1.195   4.950 -0.1357 -0.7056  0.1312
  475MOL0     C64050   3.123   1.134   4.858  0.1289 -0.6798 -0.0821
  475MOL0     C64051   3.147   1.171   4.711  0.1019 -0.1548  0.2648
  475MOL0     C64052   3.035   1.135   4.609  0.2107  0.3933 -0.4254
  475MOL0     C64053   3.071   1.170   4.471 -0.3789 -0.3604  0.2471
  475MOL0     C64054   3.104   1.196   4.355 -0.2543 -0.7113  0.6403
  475MOL0     C64055   3.446   1.152   5.160 -0.9296 -0.3936 -0.0172
  475MOL0     C64056   3.557   1.151   5.241 -0.6826  0.7742 -0.3975
  475MOL0     C64057   3.542   1.173   5.391 -0.1580 -0.2156  0.6521
  475MOL0     H64058   4.059   1.303   5.173 -1.1541  0.4491  0.1886
  475MOL0     H64059   4.274   1.356   5.267  1.1062  0.7166  0.3409
  475MOL0     H64060   4.330   1.528   5.416 -0.9475  2.8984  1.8311
  475MOL0     H64061   4.366   1.554   5.584 -0.9351  0.1017 -0.7376
  475MOL0     H64062   4.555   1.429   5.568 -1.8315 -0.0415  0.5631
  475MOL0     H64063   4.552   1.562   5.448  0.1588  0.0350  2.2394
  475MOL0     H64064   4.510   1.424   5.257  0.4596 -2.1034 -1.9677
  475MOL0     H64065   4.492   1.275   5.355  0.3569  0.1669 -0.9236
  475MOL0     H64066   4.751   1.432   5.377  0.1527  0.4754  0.3177
  475MOL0     H64067   4.709   1.273   5.432  1.8578 -2.4030 -1.7070
  475MOL0     H64068   4.685   1.194   5.185  2.7939 -0.7871 -2.7223
  475MOL0     H64069   4.742   1.366   5.146  0.1798  0.4544 -0.3813
  475MOL0     H64070   4.916   1.267   5.326 -0.3657  2.0439 -0.1064
  475MOL0     H64071   4.886   1.120   5.225  3.6853 -0.2136  1.0497
  475MOL0     H64072   4.989   1.384   5.145  1.4899 -0.2906 -0.3180
  475MOL0     H64073   4.930   1.268   5.015 -1.2452 -2.0686  0.2942
  475MOL0     H64074   5.093   1.100   5.098  1.4270 -0.0166  3.3954
  475MOL0     H64075   5.174   1.229   5.008  1.0623 -0.8355  0.1104
  475MOL0     H64076   5.304   1.420   5.142  0.1031  1.3107  0.6370
  475MOL0     H64077   5.504   1.438   5.386  2.1914  0.1622  1.7593
  475MOL0     H64078   5.593   1.292   5.379 -1.5977  0.6426  2.8486
  475MOL0     H64079   5.524   1.470   5.142 -1.1202 -1.7531 -0.4589
  475MOL0     H64080   5.686   1.470   5.205  0.8211 -1.0866  0.3252
  475MOL0     H64081   5.630   1.341   4.993  2.1335  2.0431  0.0676
  475MOL0     H64082   5.560   1.219   5.098  1.3148 -0.2291  1.6472
  475MOL0     H64083   5.795   1.187   5.006  1.6431 -2.3864  1.1835
  475MOL0     H64084   5.788   1.169   5.178  0.2002 -0.1829 -0.6470
  475MOL0     H64085   6.000   1.090   5.123 -1.4497  0.8427  0.3427
  475MOL0     H64086   6.250   1.059   5.144 -1.2347  0.4763  1.0391
  475MOL0     H64087   6.631   1.243   5.428  0.7061 -0.6961  0.4764
  475MOL0     H64088   6.872   1.208   5.449  4.8831 -1.9421 -2.2950
  475MOL0     H64089   7.031   0.857   5.389 -0.8785  1.7321  0.8592
  475MOL0     H64090   7.065   0.892   5.218 -0.5422 -1.9512  1.3846
  475MOL0     H64091   7.295   0.881   5.335  1.7925  0.7465  0.8779
  475MOL0     H64092   7.263   1.042   5.291 -0.3142 -0.7680 -0.9618
  475MOL0     H64093   7.157   1.038   5.540 -0.5356 -2.8169  2.5364
  475MOL0     H64094   7.260   0.899   5.552  1.6170 -0.7438 -2.2721
  475MOL0     H64095   7.375   1.102   5.622 -2.5651  0.0029  0.0123
  475MOL0     H64096   7.356   1.172   5.448 -1.7039 -1.5776 -1.1112
  475MOL0     H64097   7.583   1.110   5.476 -2.8440  2.0812  1.3296
  475MOL0     H64098   7.492   1.033   5.353  0.0749  2.1778 -0.5334
  475MOL0     H64099   7.463   0.832   5.487  0.0074 -0.7608  1.5155
  475MOL0     H64100   7.633   0.869   5.463 -0.9453 -1.7200 -0.7550
  475MOL0     H64101   7.473   0.898   5.728  0.6470  2.0773  0.5935
  475MOL0     H64102   7.637   0.967   5.705  0.2479 -0.6067  3.2311
  475MOL0     H64103   7.584   0.696   5.607  0.7589 -0.6492  0.5233
  475MOL0     H64104   7.734   0.761   5.668 -0.0489 -3.0009  1.7130
  475MOL0     H64105   6.859   0.923   5.131  0.4871 -2.3667  1.7970
  475MOL0     H64106   6.623   0.988   5.078  1.9848 -0.6227 -1.8420
  475MOL0     H64107   6.304   1.485   5.152  2.1827 -1.1988  2.4931
  475MOL0     H64108   6.054   1.509   5.087 -0.7942 -1.4645 -2.8119
  475MOL0     H64109   4.104   1.257   5.656  1.6732  0.8419 -0.5031
  475MOL0     H64110   3.893   1.218   5.558  1.4590 -1.8105  0.2528
  475MOL0     H64111   3.783   1.097   4.987 -0.8091  1.9525 -1.5662
  475MOL0     H64112   3.570   1.087   4.863 -0.7519 -2.0148 -0.5694
  475MOL0     H64113   3.237   1.303   4.940  3.7083 -0.9933 -0.7010
  475MOL0     H64114   3.189   1.181   5.051  1.1082  1.7453  1.0230
  475MOL0     H64115   3.026   1.174   4.888  1.0612  1.7497 -0.0475
  475MOL0     H64116   3.127   1.028   4.882  0.4866 -0.9165 -1.1412
  475MOL0     H64117   3.242   1.128   4.677 -0.6999 -0.9596 -0.9887
  475MOL0     H64118   3.155   1.281   4.708  0.6978 -0.2128 -1.6453
  475MOL0     H64119   2.993   1.034   4.611 -1.4306  0.9860 -1.9668
  475MOL0     H64120   2.955   1.198   4.647  1.6031  1.0473  1.5666
  475MOL0     H64121   3.117   1.232   4.255 -5.4406  1.7476  0.5489
  475MOL0     H64122   3.352   1.183   5.205  0.0037  0.2691  1.5789
  475MOL0     H64123   3.441   1.158   5.430 -0.1819  0.2836  0.7945
  475MOL0     H64124   3.617   1.120   5.451  2.1645  0.5370 -1.4172
  475MOL0     H64125   3.559   1.278   5.417 -1.0242 -0.1507  0.9917
  476MOL0     O64126  10.037   3.528   6.806 -0.3081  0.4959  0.5773
  476MOL0     C64127  10.009   3.577   6.698 -0.4856 -0.8220  0.6847
  476MOL0     O64128  10.098   3.594   6.589 -0.4040  0.3571 -1.1757
  476MOL0     C64129  10.228   3.558   6.590 -0.9675  0.2999 -1.1202
  476MOL0     C64130  10.279   3.442   6.656  0.3798 -0.0575 -0.1850
  476MOL0     C64131  10.415   3.412   6.640 -0.2930  0.3477 -0.0137
  476MOL0     C64132  10.499   3.506   6.573 -0.3434 -0.3081 -0.0851
  476MOL0     O64133  10.631   3.490   6.574  0.2665 -0.3479 -0.2880
  476MOL0     C64134  10.695   3.450   6.697 -0.4575 -0.0828 -0.1333
  476MOL0     C64135  10.841   3.455   6.685  0.4514  0.0780 -0.1947
  476MOL0     C64136  10.911   3.591   6.661 -0.0213  0.2930  0.9918
  476MOL0     C64137  10.873   3.703   6.757 -0.4363 -0.0729 -0.1662
  476MOL0     C64138  10.930   3.830   6.699 -0.6519 -0.2577 -0.8391
  476MOL0     C64139  10.940   3.937   6.805  0.6053 -0.4523 -0.0374
  476MOL0     C64140  11.035   3.921   6.930  0.1479 -0.7400  0.2099
  476MOL0     C64141  11.184   3.938   6.888  0.3491 -0.1462 -0.8164
  476MOL0     N64142  11.267   3.975   7.007 -0.8672  0.0109 -0.3389
  476MOL0     C64143  11.318   3.879   7.101 -0.4478  0.3203  1.2237
  476MOL0     C64144  11.385   3.944   7.194 -0.2440 -0.0773 -0.2449
  476MOL0     C64145  11.462   3.891   7.310  0.4279 -0.0635 -0.4753
  476MOL0     C64146  11.608   3.886   7.266  0.3986  0.0148  0.2659
  476MOL0     C64147  11.705   3.867   7.382  0.1124 -0.4432 -0.5734
  476MOL0     C64148  11.831   3.799   7.333 -0.4776 -0.0910 -0.5761
  476MOL0     O64149  11.915   3.786   7.455 -0.0016  0.5228  1.0157
  476MOL0     C64150  12.045   3.754   7.438 -0.0850  0.1713  0.0112
  476MOL0     C64151  12.104   3.787   7.564  0.2988 -0.0089 -0.1038
  476MOL0     C64152  12.235   3.743   7.583 -0.4226  0.3599  0.2014
  476MOL0     C64153  12.306   3.669   7.487 -0.3450  0.1244  0.2175
  476MOL0     C64154  12.443   3.626   7.522 -0.0734 -0.2030  0.7934
  476MOL0     O64155  12.503   3.648   7.635  0.2991 -0.5922 -0.2587
  476MOL0     C64156  12.622   3.590   7.656 -0.1012 -0.2651 -0.5512
  476MOL0     C64157  12.734   3.652   7.591 -1.0294  0.3272 -0.8138
  476MOL0     C64158  12.858   3.603   7.614 -0.3431  0.1279 -0.2514
  476MOL0     C64159  12.881   3.501   7.704  0.5097 -0.6258  0.0810
  476MOL0     O64160  13.015   3.466   7.702  0.6845 -0.9672 -0.1731
  476MOL0     C64161  13.057   3.376   7.801 -0.0234  0.0378 -0.1832
  476MOL0     C64162  13.049   3.229   7.752  0.6565  0.2870 -0.0448
  476MOL0     C64163  13.109   3.135   7.862  0.6359  0.7065 -0.0946
  476MOL0     C64164  13.262   3.168   7.898  0.8837  0.3329  0.4450
  476MOL0     C64165  13.367   3.169   7.778  0.0191  0.0128  0.0764
  476MOL0     C64166  13.477   3.284   7.781  0.0572  0.7528  0.3243
  476MOL0     C64167  13.568   3.277   7.904  0.3193  0.6514  0.1826
  476MOL0     C64168  13.696   3.372   7.898  0.1326 -0.7509 -0.2236
  476MOL0    Cl64169  13.670   3.547   7.897  0.0781  0.2737 -0.4127
  476MOL0     C64170  12.769   3.449   7.780  0.1255 -0.8674 -0.7147
  476MOL0     C64171  12.639   3.495   7.757 -0.3504  0.5526 -0.3824
  476MOL0     O64172  12.500   3.579   7.425 -0.1731  0.4071  0.3482
  476MOL0     C64173  12.246   3.643   7.363  0.5115  0.2428  0.4553
  476MOL0     C64174  12.115   3.678   7.337  0.5712 -0.1767  0.3250
  476MOL0     N64175  11.375   4.077   7.163  0.1847 -0.1815 -0.1982
  476MOL0     N64176  11.307   4.094   7.055  0.9024  0.2150 -0.0361
  476MOL0     C64177  10.445   3.609   6.500  0.3960 -0.2046 -0.0918
  476MOL0     C64178  10.309   3.638   6.515  0.7120 -0.1854  0.0025
  476MOL0     C64179   9.877   3.640   6.685 -0.3527  1.0637 -0.1253
  476MOL0     C64180   9.844   3.688   6.560  0.5661 -0.0088 -0.1591
  476MOL0     C64181   9.716   3.734   6.524 -0.0120 -0.4217  0.9402
  476MOL0     C64182   9.617   3.718   6.618  0.2069  0.7592 -0.2370
  476MOL0     O64183   9.484   3.760   6.598  0.2155  0.0363 -0.4355
  476MOL0     C64184   9.452   3.827   6.477  0.0702 -0.3929 -0.4125
  476MOL0     C64185   9.307   3.844   6.451  0.7078 -0.2150 -0.3145
  476MOL0     C64186   9.271   3.938   6.335  0.2116 -0.5106  0.5619
  476MOL0     C64187   9.124   3.972   6.325  0.3937 -0.8937  0.2961
  476MOL0     C64188   9.064   4.019   6.447 -0.0524 -0.3705  0.1525
  476MOL0     C64189   8.999   4.044   6.545  0.1543 -0.6168  0.1949
  476MOL0     C64190   9.648   3.674   6.748 -0.4820  0.6734 -0.4907
  476MOL0     C64191   9.778   3.636   6.787  0.1567  0.2338 -0.0473
  476MOL0     C64192   9.796   3.590   6.925  0.0702 -0.3657 -0.3342
  476MOL0     H64193  10.215   3.381   6.719  0.4110  0.4035  0.3049
  476MOL0     H64194  10.452   3.326   6.696 -0.9712  1.2230  1.8416
  476MOL0     H64195  10.650   3.513   6.774 -3.1009 -2.1797  0.1868
  476MOL0     H64196  10.668   3.349   6.729  1.8371 -1.1064 -1.1693
  476MOL0     H64197  10.867   3.380   6.610 -4.0225 -1.8581 -0.1465
  476MOL0     H64198  10.863   3.426   6.788 -1.6287 -0.2379  0.2056
  476MOL0     H64199  10.883   3.621   6.560  0.8663  0.9161  0.9220
  476MOL0     H64200  11.019   3.578   6.655 -0.1774 -0.3707 -1.5303
  476MOL0     H64201  10.764   3.710   6.765 -0.5105  1.4553 -2.0002
  476MOL0     H64202  10.922   3.676   6.851 -0.3036  1.7173  0.3110
  476MOL0     H64203  11.030   3.813   6.657 -0.5737  2.9260 -2.2151
  476MOL0     H64204  10.871   3.886   6.626 -0.5639  4.4184  2.2790
  476MOL0     H64205  10.978   4.027   6.755  0.8460  0.0355  1.0018
  476MOL0     H64206  10.841   3.952   6.848 -0.3396 -4.5459 -0.4389
  476MOL0     H64207  11.019   3.826   6.982 -3.0932  0.3464  1.4427
  476MOL0     H64208  11.019   4.006   6.997  1.1633  1.3728 -2.0628
  476MOL0     H64209  11.223   3.849   6.838  0.6830 -0.4917  0.0334
  476MOL0     H64210  11.199   4.026   6.826  1.0987 -0.7220 -1.4779
  476MOL0     H64211  11.311   3.771   7.111 -0.0413  0.1163 -0.4151
  476MOL0     H64212  11.443   3.955   7.397 -0.8196 -0.0732 -0.7182
  476MOL0     H64213  11.422   3.793   7.339  0.8582  0.6375  2.9293
  476MOL0     H64214  11.628   3.806   7.194  1.7768  0.3620  0.2346
  476MOL0     H64215  11.641   3.980   7.220 -2.4982  1.6091  1.1883
  476MOL0     H64216  11.658   3.800   7.455  0.4149 -1.2934 -1.1501
  476MOL0     H64217  11.735   3.961   7.431  0.3395  0.8532 -3.0695
  476MOL0     H64218  11.881   3.860   7.258  0.4127  0.6278  0.5603
  476MOL0     H64219  11.814   3.699   7.295  3.2500 -1.4708  0.8849
  476MOL0     H64220  12.040   3.840   7.634 -3.1138 -0.9738 -2.2312
  476MOL0     H64221  12.283   3.753   7.680  1.8957 -0.1111 -0.8295
  476MOL0     H64222  12.709   3.745   7.541  1.4746  0.9610 -1.0289
  476MOL0     H64223  12.944   3.648   7.566  0.2723 -0.0708  0.6227
  476MOL0     H64224  13.158   3.400   7.836  0.6972 -3.0836  0.1768
  476MOL0     H64225  12.998   3.389   7.893 -0.2671 -0.3517 -0.2780
  476MOL0     H64226  12.946   3.196   7.740  0.9188 -0.2850 -0.7805
  476MOL0     H64227  13.113   3.216   7.665  0.6065 -1.9459  0.1859
  476MOL0     H64228  13.043   3.139   7.949  0.3456 -1.8760 -0.1042
  476MOL0     H64229  13.104   3.030   7.830 -0.6767  0.1259  1.8457
  476MOL0     H64230  13.300   3.089   7.963 -2.5469 -0.6791  1.4613
  476MOL0     H64231  13.262   3.265   7.949 -0.9420  0.6920 -0.1368
  476MOL0     H64232  13.326   3.188   7.678  0.1635  2.8228  0.4736
  476MOL0     H64233  13.417   3.072   7.776  0.4643  0.1182 -4.6193
  476MOL0     H64234  13.529   3.277   7.686 -0.5192  3.4471 -0.2655
  476MOL0     H64235  13.434   3.384   7.792  2.1645  1.6204  1.0945
  476MOL0     H64236  13.592   3.176   7.937 -0.8214  0.4466  0.4476
  476MOL0     H64237  13.519   3.311   7.996  1.5094  0.4302  0.9181
  476MOL0     H64238  13.754   3.361   7.990 -2.0893  0.9344  1.5159
  476MOL0     H64239  13.761   3.352   7.813 -0.1416  0.8563 -0.8392
  476MOL0     H64240  12.779   3.362   7.843 -0.0059  0.1035  0.6854
  476MOL0     H64241  12.556   3.464   7.819 -1.8246  2.3522 -1.3592
  476MOL0     H64242  12.305   3.578   7.299 -1.2915 -0.9748 -0.0672
  476MOL0     H64243  12.062   3.635   7.253  1.8834 -2.0899  0.4227
  476MOL0     H64244  10.518   3.660   6.438  0.6179 -0.0904  0.2657
  476MOL0     H64245  10.252   3.714   6.462  0.0375  0.4554  1.5800
  476MOL0     H64246   9.923   3.696   6.486  1.1803  0.3443  0.5228
  476MOL0     H64247   9.703   3.781   6.427  0.0588  3.4760  2.6082
  476MOL0     H64248   9.490   3.766   6.394  3.5175  1.4613 -0.3584
  476MOL0     H64249   9.506   3.922   6.480 -1.5808  0.5544  1.4723
  476MOL0     H64250   9.253   3.859   6.545 -0.4293  1.5409 -1.2012
  476MOL0     H64251   9.272   3.747   6.417 -4.0089  0.5437  1.6041
  476MOL0     H64252   9.291   3.890   6.238 -1.0693 -1.6959  0.8507
  476MOL0     H64253   9.340   4.022   6.332  0.8764 -1.0003  1.6888
  476MOL0     H64254   9.111   4.065   6.268  2.5691  1.6325  3.5033
  476MOL0     H64255   9.070   3.890   6.278 -1.6697  0.5373  0.0367
  476MOL0     H64256   8.942   4.064   6.634  0.8899  1.8833  0.1658
  476MOL0     H64257   9.564   3.660   6.814  0.9030 -0.3783  1.1231
  476MOL0     H64258   9.883   3.639   6.971  0.0210 -1.1011  0.5636
  476MOL0     H64259   9.714   3.622   6.989 -1.1845 -0.7385 -1.7063
  476MOL0     H64260   9.809   3.482   6.927 -0.3361 -0.4118 -0.0552
  477MOL0     O64261  11.029   9.186   7.225  0.4872 -0.2052  0.6295
  477MOL0     C64262  11.063   9.276   7.302  0.3805 -0.0126 -0.0594
  477MOL0     O64263  11.190   9.328   7.316  0.1802 -0.3986 -0.2291
  477MOL0     C64264  11.296   9.263   7.258 -0.5451 -0.0595 -0.0873
  477MOL0     C64265  11.392   9.345   7.205  0.1147  0.5439 -1.3851
  477MOL0     C64266  11.510   9.290   7.152 -0.2703 -0.4240  0.3972
  477MOL0     C64267  11.535   9.151   7.145  0.8291 -0.7426 -0.7087
  477MOL0     O64268  11.644   9.098   7.092 -0.2792 -0.4525 -0.0931
  477MOL0     C64269  11.750   9.184   7.032  0.1623 -0.5217 -0.6244
  477MOL0     C64270  11.888   9.116   6.996 -0.2575  0.0631 -0.0605
  477MOL0     C64271  11.952   9.043   7.110 -0.3880 -0.3498 -0.4484
  477MOL0     C64272  12.072   8.955   7.050 -0.0075 -0.4705 -0.4766
  477MOL0     C64273  12.121   8.860   7.162  0.4901 -0.1098 -0.4586
  477MOL0     C64274  12.269   8.813   7.156 -0.8146 -0.4246  0.1733
  477MOL0     C64275  12.292   8.743   7.286  0.5976  0.3419  0.1388
  477MOL0     C64276  12.422   8.655   7.273  0.2472 -0.1538  0.1009
  477MOL0     N64277  12.509   8.670   7.383 -0.4231 -0.7519 -0.5420
  477MOL0     C64278  12.470   8.663   7.520  1.3221 -0.2969  0.0446
  477MOL0     C64279  12.578   8.709   7.583 -0.2778 -0.2448 -0.6252
  477MOL0     C64280  12.582   8.734   7.728  0.0355  0.1385 -0.2600
  477MOL0     C64281  12.640   8.613   7.799  0.5808  0.1354 -0.8045
  477MOL0     C64282  12.788   8.626   7.803 -0.0898  0.2250 -0.4788
  477MOL0     C64283  12.851   8.502   7.855  0.6235 -1.1184  0.5674
  477MOL0     O64284  13.000   8.515   7.862  0.2144 -1.1055 -0.1292
  477MOL0     C64285  13.077   8.409   7.890 -0.3918  0.1112 -0.2562
  477MOL0     C64286  13.030   8.289   7.913 -0.0163  0.2449  0.4827
  477MOL0     C64287  13.113   8.178   7.932  0.2497 -0.0538 -0.5586
  477MOL0     C64288  13.253   8.202   7.939 -0.3480 -0.0746  1.1709
  477MOL0     C64289  13.350   8.090   7.966  0.5078  0.4125  0.0275
  477MOL0     O64290  13.482   8.108   7.962  0.1080  0.2440 -0.0951
  477MOL0     C64291  13.560   7.994   7.986 -0.0234 -0.3568 -0.1396
  477MOL0     C64292  13.565   7.885   7.896 -0.1706 -0.2585 -0.3505
  477MOL0     C64293  13.653   7.773   7.930  0.0268  0.3534 -1.0159
  477MOL0     C64294  13.728   7.770   8.046 -0.3923  0.0914 -0.2779
  477MOL0     O64295  13.797   7.659   8.081  0.4815  0.1566  0.1906
  477MOL0     C64296  13.931   7.678   8.048 -0.3647  0.1318 -0.7171
  477MOL0     C64297  13.993   7.545   8.069  0.5120  0.5159 -0.3317
  477MOL0     C64298  14.142   7.549   8.072 -0.5396  1.2721 -0.1521
  477MOL0     C64299  14.193   7.434   8.158  0.0523  0.7701 -0.0277
  477MOL0     C64300  14.343   7.416   8.148  0.4805 -0.8160  0.1902
  477MOL0     C64301  14.377   7.344   8.024 -0.6585 -0.5085  0.3021
  477MOL0     C64302  14.535   7.343   8.013 -0.4682  0.8240  0.0591
  477MOL0     C64303  14.574   7.288   7.882 -0.7798 -0.2960 -0.2694
  477MOL0    Cl64304  14.517   7.117   7.863 -0.5245  0.3610 -0.0771
  477MOL0     C64305  13.715   7.878   8.134 -0.1731 -0.0689  0.0670
  477MOL0     C64306  13.634   7.985   8.107 -0.0822  0.4703 -0.6602
  477MOL0     O64307  13.299   7.979   8.004  0.3324  0.3068 -0.4512
  477MOL0     C64308  13.306   8.332   7.911  0.2164  0.1691  0.1755
  477MOL0     C64309  13.220   8.439   7.892  0.7943  0.1578 -0.4084
  477MOL0     N64310  12.679   8.735   7.494  0.9072  0.6885  0.7424
  477MOL0     N64311  12.640   8.705   7.374  0.0765  0.1928  0.1949
  477MOL0     C64312  11.436   9.070   7.196 -0.5226  0.4229 -0.3755
  477MOL0     C64313  11.315   9.123   7.254 -0.1511  0.1286 -0.6020
  477MOL0     C64314  10.950   9.325   7.394  0.0821 -0.1284  0.1242
  477MOL0     C64315  10.822   9.258   7.385 -0.0632 -0.0265  0.8662
  477MOL0     C64316  10.721   9.290   7.470 -1.1016  0.9009 -0.4732
  477MOL0     C64317  10.733   9.391   7.568  0.1728  0.9807 -0.0738
  477MOL0     O64318  10.629   9.419   7.654 -0.4892  0.2043  0.3233
  477MOL0     C64319  10.588   9.556   7.663  0.0254  0.3300 -0.3182
  477MOL0     C64320  10.431   9.560   7.677  0.3652 -0.1181 -0.3427
  477MOL0     C64321  10.354   9.508   7.558  0.2024 -0.5793  0.3409
  477MOL0     C64322  10.199   9.493   7.590 -0.8541 -0.3702 -0.2857
  477MOL0     C64323  10.138   9.628   7.565  1.4728 -0.5790  0.7183
  477MOL0     C64324  10.086   9.743   7.558 -0.0674  0.4558 -1.1221
  477MOL0     C64325  10.857   9.454   7.570 -0.7600  0.0697 -0.4097
  477MOL0     C64326  10.967   9.419   7.496  0.3500 -0.2620 -0.6923
  477MOL0     C64327  11.100   9.489   7.536 -0.8109  0.5421 -0.4481
  477MOL0     H64328  11.374   9.452   7.206  2.5994  1.0181 -1.4193
  477MOL0     H64329  11.585   9.360   7.115 -0.8744 -0.6268 -1.3280
  477MOL0     H64330  11.708   9.224   6.940 -1.7898 -0.9854  0.0238
  477MOL0     H64331  11.775   9.263   7.104  0.8540 -2.6618  1.6159
  477MOL0     H64332  11.958   9.186   6.949  1.1265 -2.9730 -2.9533
  477MOL0     H64333  11.869   9.037   6.923  0.5920 -0.5025  0.3133
  477MOL0     H64334  11.882   8.979   7.165  0.5070  0.3708  1.6418
  477MOL0     H64335  11.991   9.118   7.181 -0.3133 -1.9343  1.2674
  477MOL0     H64336  12.033   8.892   6.969  0.2934  1.7510 -2.4569
  477MOL0     H64337  12.156   9.015   7.015  0.2954  1.3346  2.8825
  477MOL0     H64338  12.099   8.913   7.255  0.9492  0.2922 -0.5744
  477MOL0     H64339  12.059   8.769   7.157 -0.6464  0.7154 -3.1005
  477MOL0     H64340  12.296   8.754   7.068  0.3495  0.9317 -0.4259
  477MOL0     H64341  12.325   8.907   7.146 -3.1370  0.9819 -0.2864
  477MOL0     H64342  12.209   8.676   7.307 -0.3001  0.0773 -3.5220
  477MOL0     H64343  12.322   8.817   7.361  1.9206 -0.2214  0.1990
  477MOL0     H64344  12.391   8.551   7.258 -0.2220  0.0959 -0.7155
  477MOL0     H64345  12.474   8.670   7.178  1.1405  0.2832  0.6440
  477MOL0     H64346  12.376   8.625   7.558  0.3504  1.0108 -0.9803
  477MOL0     H64347  12.640   8.822   7.758  1.8208 -0.8148 -0.8044
  477MOL0     H64348  12.485   8.747   7.776  1.1701  2.7873  1.5681
  477MOL0     H64349  12.611   8.610   7.905  0.1941  0.8006 -0.8851
  477MOL0     H64350  12.607   8.520   7.751 -0.3955 -0.5964  1.1597
  477MOL0     H64351  12.819   8.713   7.861 -1.1838  0.3990 -0.1392
  477MOL0     H64352  12.825   8.637   7.700  1.4752 -0.1102  0.0133
  477MOL0     H64353  12.823   8.419   7.791  0.1564 -0.4365 -0.1296
  477MOL0     H64354  12.797   8.488   7.949 -4.4537  3.0542 -1.2151
  477MOL0     H64355  12.925   8.263   7.903  0.5816 -1.6893 -1.5732
  477MOL0     H64356  13.080   8.079   7.960  2.4935 -0.1549  2.2674
  477MOL0     H64357  13.505   7.881   7.805 -1.4534 -2.5816  0.5023
  477MOL0     H64358  13.650   7.686   7.865 -1.8054 -0.7320  0.4230
  477MOL0     H64359  13.950   7.718   7.948  0.6400 -0.9436 -0.9744
  477MOL0     H64360  13.978   7.747   8.120  0.3658  0.1244 -1.1734
  477MOL0     H64361  13.947   7.505   8.160 -0.9168  1.6504 -0.5036
  477MOL0     H64362  13.959   7.481   7.988 -0.7379  0.8743 -0.1117
  477MOL0     H64363  14.182   7.549   7.971  0.8453 -1.0491  0.3357
  477MOL0     H64364  14.184   7.638   8.120  2.3594 -0.5437  0.9409
  477MOL0     H64365  14.151   7.338   8.126 -0.1448 -0.4888  3.5670
  477MOL0     H64366  14.153   7.433   8.260 -0.7092 -1.4372 -0.2798
  477MOL0     H64367  14.378   7.369   8.241 -0.0919  1.2276  1.4986
  477MOL0     H64368  14.389   7.514   8.138  1.1358 -1.1814 -0.4580
  477MOL0     H64369  14.333   7.244   8.036 -0.0155 -0.6328  1.8091
  477MOL0     H64370  14.331   7.386   7.934  0.2960 -3.1239 -1.5738
  477MOL0     H64371  14.576   7.284   8.096 -0.8625 -0.7336 -0.8170
  477MOL0     H64372  14.577   7.443   8.030 -2.7636  1.8421  0.1774
  477MOL0     H64373  14.528   7.351   7.805 -2.4161 -0.6251  0.3759
  477MOL0     H64374  14.683   7.283   7.880 -0.7156  0.7623 -0.0257
  477MOL0     H64375  13.763   7.874   8.231  0.8988  1.0598 -0.3992
  477MOL0     H64376  13.635   8.077   8.165 -1.4129 -0.7576  1.4076
  477MOL0     H64377  13.412   8.350   7.899  0.3052  1.4328  2.2586
  477MOL0     H64378  13.255   8.539   7.870 -0.2295  1.2059  2.3170
  477MOL0     H64379  11.454   8.963   7.198  1.7730  0.7447 -0.9323
  477MOL0     H64380  11.235   9.064   7.298 -1.1308  2.0880  0.3713
  477MOL0     H64381  10.795   9.185   7.309  2.7445  1.0611 -1.3735
  477MOL0     H64382  10.638   9.220   7.466 -0.5702  0.2577 -0.4369
  477MOL0     H64383  10.618   9.614   7.576  4.3502  1.0287  1.3668
  477MOL0     H64384  10.643   9.599   7.748  0.2454 -0.0162 -0.2820
  477MOL0     H64385  10.392   9.662   7.681  0.2651 -0.1494 -0.5247
  477MOL0     H64386  10.387   9.497   7.756 -0.7453 -0.1703 -0.9804
  477MOL0     H64387  10.387   9.407   7.534 -1.5398 -1.3723  1.1560
  477MOL0     H64388  10.375   9.568   7.468  2.8175  1.6607  2.2592
  477MOL0     H64389  10.169   9.413   7.521  1.6781 -2.2360  0.6207
  477MOL0     H64390  10.182   9.460   7.693 -0.0015 -0.7471 -0.2610
  477MOL0     H64391  10.048   9.843   7.544  0.4621  0.8979  0.3858
  477MOL0     H64392  10.852   9.542   7.633 -0.6733  0.1501 -0.5151
  477MOL0     H64393  11.086   9.568   7.610 -1.9282 -0.0616  0.0197
  477MOL0     H64394  11.178   9.415   7.558 -0.8753  0.2198 -1.2825
  477MOL0     H64395  11.148   9.542   7.454  1.8561  0.7168  1.1187
  478MOL0     O64396   2.077   7.115   3.590 -0.3360 -0.3612 -0.2528
  478MOL0     C64397   2.064   7.183   3.692  0.6960  0.1951 -0.2496
  478MOL0     O64398   2.164   7.252   3.754 -0.2617  0.0452 -0.3027
  478MOL0     C64399   2.279   7.179   3.769 -0.3420 -0.6141 -0.0604
  478MOL0     C64400   2.290   7.033   3.777 -0.1336 -0.6528 -1.0411
  478MOL0     C64401   2.416   6.979   3.805  0.3914 -0.0244 -0.3377
  478MOL0     C64402   2.526   7.051   3.832 -0.1749 -0.4003  0.4289
  478MOL0     O64403   2.639   6.982   3.874 -0.4453  0.2749 -0.7482
  478MOL0     C64404   2.769   7.048   3.891 -0.4241 -0.6311  0.9658
  478MOL0     C64405   2.877   6.943   3.915 -0.0654 -0.2410 -0.0272
  478MOL0     C64406   3.003   7.012   3.961  0.2751 -0.9218  0.4298
  478MOL0     C64407   3.119   6.899   3.990  0.2142 -0.1953 -0.3245
  478MOL0     C64408   3.244   6.976   4.020 -0.7393  0.1217  0.9477
  478MOL0     C64409   3.364   6.882   4.031  0.6562  0.3055  0.5778
  478MOL0     C64410   3.491   6.969   4.027 -0.2347 -0.0235 -0.4533
  478MOL0     C64411   3.624   6.888   4.000 -0.2623  0.2545  0.3359
  478MOL0     N64412   3.736   6.940   4.089 -0.1732 -0.0662 -0.6011
  478MOL0     C64413   3.800   7.054   4.066 -0.3293 -0.0632  0.1050
  478MOL0     C64414   3.901   7.060   4.165  0.0958 -0.1439 -0.2974
  478MOL0     C64415   4.002   7.172   4.198  0.5886 -0.2657  1.1755
  478MOL0     C64416   4.139   7.123   4.223  0.8251  0.2323  0.4804
  478MOL0     C64417   4.220   7.244   4.277 -0.1933  0.0776 -0.3111
  478MOL0     C64418   4.364   7.214   4.271 -0.4092  0.3585 -0.4185
  478MOL0     O64419   4.386   7.104   4.358  0.8507  0.2044  0.2698
  478MOL0     C64420   4.516   7.077   4.382 -0.1148  0.8369  0.6367
  478MOL0     C64421   4.626   7.136   4.317  0.1683  0.3183  0.3364
  478MOL0     C64422   4.755   7.107   4.353  0.3199 -0.7545  0.8990
  478MOL0     C64423   4.783   7.014   4.451  0.4894 -0.8598 -0.6098
  478MOL0     C64424   4.921   6.977   4.475  0.2725  0.3336 -0.2280
  478MOL0     O64425   5.004   7.020   4.381  0.2804 -0.5772  0.9226
  478MOL0     C64426   5.140   7.009   4.395  0.5238  0.5227  0.2480
  478MOL0     C64427   5.209   7.089   4.489 -0.6000  0.9584 -0.0108
  478MOL0     C64428   5.352   7.070   4.499  0.0237 -0.8069 -0.5034
  478MOL0     C64429   5.421   6.973   4.427 -0.8034 -0.3852  0.3300
  478MOL0     O64430   5.556   6.953   4.424  0.1052 -0.5219 -0.4036
  478MOL0     C64431   5.644   7.058   4.468  0.8044 -0.0282 -0.9420
  478MOL0     C64432   5.787   7.023   4.436  0.3866  0.5629  0.3519
  478MOL0     C64433   5.825   6.888   4.500 -0.1271 -0.7914  0.4499
  478MOL0     C64434   5.841   6.897   4.659 -0.0977  0.3910 -0.7473
  478MOL0     C64435   5.894   6.766   4.716 -0.3323 -0.6675 -1.2538
  478MOL0     C64436   5.795   6.651   4.711 -0.1356  0.4193  0.3195
  478MOL0     C64437   5.864   6.523   4.765  0.6139  0.1689  0.1543
  478MOL0     C64438   5.769   6.413   4.817 -0.0040 -0.0139  0.5342
  478MOL0    Cl64439   5.863   6.260   4.829  0.5771 -0.2872  0.1887
  478MOL0     C64440   5.347   6.909   4.326 -0.2921 -0.1221 -0.6304
  478MOL0     C64441   5.211   6.928   4.307  0.3782 -0.2891  0.2678
  478MOL0     O64442   4.958   6.902   4.560 -0.0092 -0.1257 -0.0930
  478MOL0     C64443   4.675   6.949   4.525 -0.0142 -0.3302 -1.1468
  478MOL0     C64444   4.543   6.989   4.494  0.0280 -0.0089 -0.1959
  478MOL0     N64445   3.896   6.941   4.235 -0.0905 -0.4116  0.6104
  478MOL0     N64446   3.793   6.872   4.192 -0.2445  0.3630 -0.1902
  478MOL0     C64447   2.517   7.192   3.830  0.0698  0.6104 -0.1288
  478MOL0     C64448   2.398   7.252   3.797  0.3220 -0.0606 -0.1851
  478MOL0     C64449   1.923   7.219   3.746  0.2217  0.7986 -0.0581
  478MOL0     C64450   1.916   7.333   3.827 -0.4060  0.3519 -0.6787
  478MOL0     C64451   1.798   7.378   3.879  0.6213 -0.1419 -1.5726
  478MOL0     C64452   1.678   7.307   3.860 -0.1170  0.1019 -0.5898
  478MOL0     O64453   1.568   7.345   3.929  0.6743 -0.0913  0.9797
  478MOL0     C64454   1.434   7.324   3.877 -0.1986 -0.2502  1.0086
  478MOL0     C64455   1.380   7.197   3.938  0.1040  0.3197 -0.2273
  478MOL0     C64456   1.227   7.176   3.909 -0.5291 -0.2808  0.8085
  478MOL0     C64457   1.169   7.050   3.979 -0.3200  0.2026  0.6944
  478MOL0     C64458   1.208   6.925   3.911 -0.0740 -0.4962 -0.6537
  478MOL0     C64459   1.228   6.833   3.833 -0.2588  0.2403 -0.7221
  478MOL0     C64460   1.679   7.193   3.773 -0.3603 -0.0923  0.2686
  478MOL0     C64461   1.800   7.148   3.714  0.3447  0.4903  0.4387
  478MOL0     C64462   1.787   7.023   3.613 -0.1578  0.3720 -0.8440
  478MOL0     H64463   2.211   6.967   3.743  0.1789 -0.9858 -1.1301
  478MOL0     H64464   2.438   6.873   3.813  1.6898  0.0928 -2.0183
  478MOL0     H64465   2.787   7.108   3.801 -0.5194 -0.4329  1.0786
  478MOL0     H64466   2.768   7.105   3.984  0.3150  0.4876  0.3097
  478MOL0     H64467   2.888   6.887   3.821 -2.0713 -1.3694  0.3543
  478MOL0     H64468   2.852   6.880   4.001 -0.0071  1.0664  0.9682
  478MOL0     H64469   2.990   7.074   4.050  1.2846 -3.3858  2.4128
  478MOL0     H64470   3.038   7.074   3.878  2.2237 -1.1598  1.0273
  478MOL0     H64471   3.097   6.832   4.074 -3.8011  0.5913 -0.5557
  478MOL0     H64472   3.134   6.832   3.905  1.6716 -0.0926 -0.1697
  478MOL0     H64473   3.269   7.045   3.939  0.9875  0.0502  1.3931
  478MOL0     H64474   3.235   7.033   4.113  0.8911 -1.9905  2.4879
  478MOL0     H64475   3.361   6.824   4.124  2.9836 -0.1653  0.4247
  478MOL0     H64476   3.372   6.820   3.941  1.0853  0.6658  0.3651
  478MOL0     H64477   3.500   6.992   4.134 -1.3042  2.8318 -0.9070
  478MOL0     H64478   3.483   7.047   3.951  1.8797 -1.7327 -2.5795
  478MOL0     H64479   3.608   6.780   4.006 -2.3834  0.5204  0.3603
  478MOL0     H64480   3.653   6.915   3.898  0.1414  1.0928  0.6555
  478MOL0     H64481   3.780   7.134   3.995 -2.6561  0.1215  0.8768
  478MOL0     H64482   4.007   7.234   4.108  1.9956 -1.8589  0.1000
  478MOL0     H64483   3.968   7.225   4.287  1.4099 -2.7718  3.0997
  478MOL0     H64484   4.137   7.048   4.302 -0.8998  1.0666  1.2790
  478MOL0     H64485   4.188   7.078   4.136 -1.3226 -0.2188 -0.5623
  478MOL0     H64486   4.206   7.249   4.385  2.9730 -2.0165  0.3110
  478MOL0     H64487   4.196   7.341   4.231  1.0228  0.5458 -0.0034
  478MOL0     H64488   4.419   7.306   4.294 -3.1471  1.5882  1.7107
  478MOL0     H64489   4.380   7.193   4.165 -0.5668 -0.4378 -0.2907
  478MOL0     H64490   4.623   7.207   4.235  0.6588 -0.3540 -0.2822
  478MOL0     H64491   4.839   7.143   4.295  1.2479 -0.8330  2.1344
  478MOL0     H64492   5.161   7.161   4.554  0.4458  0.1554  1.7298
  478MOL0     H64493   5.413   7.129   4.566  1.1131 -0.8948 -1.3828
  478MOL0     H64494   5.613   7.148   4.414 -1.3882  0.4828  1.0099
  478MOL0     H64495   5.620   7.078   4.573 -2.4317  3.6925 -2.1472
  478MOL0     H64496   5.789   6.996   4.330  1.3606 -0.3120  0.5747
  478MOL0     H64497   5.859   7.101   4.463  1.2689 -0.1953  0.2493
  478MOL0     H64498   5.748   6.816   4.471 -0.5207  0.5358 -2.0320
  478MOL0     H64499   5.918   6.858   4.451  0.1357  3.4203 -2.0721
  478MOL0     H64500   5.742   6.924   4.697  0.2094 -2.9006  2.9461
  478MOL0     H64501   5.904   6.982   4.686 -0.7666  0.6874 -0.0867
  478MOL0     H64502   5.920   6.801   4.817 -0.6710  1.5413 -1.8706
  478MOL0     H64503   5.991   6.749   4.668  1.3375  0.0620  1.6096
  478MOL0     H64504   5.706   6.670   4.771 -0.6938 -1.7280  0.2464
  478MOL0     H64505   5.754   6.627   4.613 -1.2745  2.0295  0.3672
  478MOL0     H64506   5.930   6.544   4.851  2.3811  0.6486 -1.2496
  478MOL0     H64507   5.926   6.482   4.685 -0.9047 -2.0624  0.0453
  478MOL0     H64508   5.718   6.449   4.906  0.5318 -0.1501  0.9024
  478MOL0     H64509   5.689   6.404   4.743  0.8842  1.8554 -0.7493
  478MOL0     H64510   5.404   6.839   4.266 -0.0991  1.1916 -2.0123
  478MOL0     H64511   5.148   6.891   4.227 -1.8336  2.3959  0.6196
  478MOL0     H64512   4.687   6.894   4.618 -2.2121  0.6305 -0.2055
  478MOL0     H64513   4.450   6.955   4.539  0.3654  1.6144  1.8883
  478MOL0     H64514   2.602   7.257   3.848 -1.0849  2.3036 -0.5423
  478MOL0     H64515   2.394   7.360   3.793  1.0060 -0.0309 -0.0625
  478MOL0     H64516   2.002   7.387   3.864 -1.2839 -0.1877  2.4563
  478MOL0     H64517   1.800   7.447   3.962 -1.4914  0.4531 -1.9611
  478MOL0     H64518   1.430   7.322   3.768 -1.4969  0.5416  1.0109
  478MOL0     H64519   1.375   7.408   3.915  0.1597  1.2713 -1.5863
  478MOL0     H64520   1.393   7.210   4.046 -2.5173  5.9582 -0.2709
  478MOL0     H64521   1.441   7.114   3.900 -0.5873 -0.3590  0.1277
  478MOL0     H64522   1.205   7.190   3.803  2.1070  0.8794  0.3345
  478MOL0     H64523   1.174   7.257   3.960  0.0106 -0.7847  2.2359
  478MOL0     H64524   1.219   7.058   4.076 -0.2576 -0.9386  0.7629
  478MOL0     H64525   1.060   7.058   3.987 -0.5831 -2.7374  1.0559
  478MOL0     H64526   1.248   6.740   3.785  0.9642  0.5234 -0.7957
  478MOL0     H64527   1.584   7.147   3.746  0.0949  0.2853 -2.3004
  478MOL0     H64528   1.869   6.991   3.549 -1.8503 -1.1771 -2.3558
  478MOL0     H64529   1.771   6.946   3.690 -3.1293  3.1620  1.6288
  478MOL0     H64530   1.699   7.028   3.549 -0.6168 -0.7783 -0.3319
  479MOL0     O64531   2.103   6.263   0.722 -0.2423 -0.1603 -0.1557
  479MOL0     C64532   2.049   6.370   0.686  0.0728 -0.3553  0.2601
  479MOL0     O64533   2.099   6.462   0.594 -0.1432 -0.5591  0.2839
  479MOL0     C64534   2.234   6.452   0.561 -0.1258  0.1905  0.0589
  479MOL0     C64535   2.293   6.336   0.515 -0.0936  0.1078  0.0224
  479MOL0     C64536   2.429   6.326   0.480 -0.0596 -0.8227 -0.0122
  479MOL0     C64537   2.503   6.448   0.490  0.5743 -0.2825  0.2860
  479MOL0     O64538   2.640   6.468   0.461  0.1165  0.0000  0.4951
  479MOL0     C64539   2.725   6.356   0.472  0.3629  0.8437  0.6328
  479MOL0     C64540   2.875   6.400   0.466  0.5397 -0.4120 -0.1763
  479MOL0     C64541   2.928   6.356   0.327  0.8267 -0.3790 -0.4077
  479MOL0     C64542   3.069   6.421   0.321 -0.3435 -0.2089  0.0280
  479MOL0     C64543   3.131   6.394   0.183 -0.2255  0.2539 -0.1083
  479MOL0     C64544   3.286   6.406   0.196 -1.5869  0.1962 -0.6143
  479MOL0     C64545   3.344   6.543   0.240  0.0897 -0.2737 -0.4720
  479MOL0     C64546   3.486   6.555   0.182 -0.1775 -0.2629 -0.5222
  479MOL0     N64547   3.562   6.647   0.255 -0.2965  0.9181 -0.4795
  479MOL0     C64548   3.626   6.626   0.382  0.3036 -0.0716  0.4505
  479MOL0     C64549   3.660   6.755   0.425  0.1120  0.2849 -0.3891
  479MOL0     C64550   3.702   6.805   0.565 -0.2117 -0.0376 -0.0886
  479MOL0     C64551   3.809   6.727   0.638 -0.1011  0.5452 -0.2217
  479MOL0     C64552   3.937   6.716   0.565 -0.0932 -0.6278  0.4174
  479MOL0     C64553   4.057   6.666   0.643  0.1012 -0.5167  0.2300
  479MOL0     O64554   4.174   6.640   0.555 -0.7175 -0.4345 -0.3017
  479MOL0     C64555   4.253   6.539   0.610 -0.2896 -0.0517  1.5024
  479MOL0     C64556   4.218   6.413   0.620 -0.0847  0.3236  0.4804
  479MOL0     C64557   4.303   6.301   0.638 -0.3266 -0.5602  0.5976
  479MOL0     C64558   4.440   6.328   0.640 -0.0056  0.7396 -0.0549
  479MOL0     C64559   4.544   6.220   0.656 -0.3222  0.0092  0.4359
  479MOL0     O64560   4.501   6.095   0.645  0.3077  0.0237 -0.0917
  479MOL0     C64561   4.594   5.989   0.644  0.6307 -0.0718  0.3566
  479MOL0     C64562   4.594   5.892   0.737  0.3429  0.8981 -0.4125
  479MOL0     C64563   4.692   5.793   0.738 -0.9043 -0.4766 -0.7720
  479MOL0     C64564   4.792   5.786   0.642  0.0868  0.3115 -0.5816
  479MOL0     O64565   4.885   5.684   0.649 -0.1251 -0.2876 -0.2673
  479MOL0     C64566   4.974   5.679   0.534  0.3512  0.0075  1.0661
  479MOL0     C64567   5.069   5.569   0.573 -0.1260  0.5667  0.9100
  479MOL0     C64568   5.185   5.553   0.483 -0.1432 -0.5497 -0.4077
  479MOL0     C64569   5.265   5.428   0.512  0.0486  0.2038  0.1791
  479MOL0     C64570   5.392   5.421   0.431 -0.0404 -0.2631 -0.4267
  479MOL0     C64571   5.445   5.275   0.424  0.0801 -0.0000  0.4158
  479MOL0     C64572   5.583   5.254   0.364 -0.9043 -1.2235 -0.6169
  479MOL0     C64573   5.679   5.384   0.359  0.1745 -0.1072 -0.4798
  479MOL0    Cl64574   5.712   5.452   0.523 -0.1757 -0.1435 -0.2256
  479MOL0     C64575   4.765   5.865   0.529 -0.0450  0.1143  0.2024
  479MOL0     C64576   4.671   5.966   0.528  0.1047 -0.4380 -0.8084
  479MOL0     O64577   4.664   6.247   0.643  0.2350 -0.6347 -0.5404
  479MOL0     C64578   4.483   6.460   0.633 -0.0205 -0.2767 -0.2003
  479MOL0     C64579   4.389   6.569   0.620  0.7007  0.1328  0.1651
  479MOL0     N64580   3.627   6.846   0.324  0.0944 -0.7317  0.5063
  479MOL0     N64581   3.571   6.777   0.230 -0.0762  0.2056  0.0962
  479MOL0     C64582   2.443   6.562   0.549 -0.1664 -0.1828 -0.8902
  479MOL0     C64583   2.307   6.565   0.573  0.5680  0.5188 -0.8751
  479MOL0     C64584   1.915   6.405   0.735  0.1852 -0.2745  0.6910
  479MOL0     C64585   1.853   6.522   0.691  0.2641  0.2774  0.1458
  479MOL0     C64586   1.727   6.565   0.732 -0.1791  0.3288 -0.7321
  479MOL0     C64587   1.656   6.491   0.832  0.2541  0.1417  0.9462
  479MOL0     O64588   1.529   6.509   0.879 -0.0238 -0.0728  0.5425
  479MOL0     C64589   1.464   6.628   0.846 -0.2085 -0.0843 -0.3282
  479MOL0     C64590   1.359   6.660   0.951  0.1003  0.0361  0.4081
  479MOL0     C64591   1.421   6.682   1.085  0.4623  0.2845  0.0658
  479MOL0     C64592   1.328   6.772   1.176 -0.6890 -0.6783  0.7976
  479MOL0     C64593   1.225   6.688   1.230  0.2936  0.0767 -0.1024
  479MOL0     C64594   1.145   6.608   1.274 -0.0519 -0.6816 -0.3298
  479MOL0     C64595   1.715   6.376   0.878  0.2047  0.4406  0.6185
  479MOL0     C64596   1.842   6.332   0.828 -0.5363  0.8145 -0.2236
  479MOL0     C64597   1.887   6.197   0.885 -0.4631 -0.2434  1.0308
  479MOL0     H64598   2.232   6.247   0.504  0.2448  0.0854 -2.1392
  479MOL0     H64599   2.480   6.237   0.445 -1.1938 -1.8413  0.8169
  479MOL0     H64600   2.709   6.311   0.571 -1.7771 -0.1447 -0.0815
  479MOL0     H64601   2.697   6.287   0.392 -0.8728  2.8329 -0.7209
  479MOL0     H64602   2.932   6.349   0.545 -0.4179  1.0382  1.5187
  479MOL0     H64603   2.885   6.508   0.473  4.1037 -0.4640 -2.1201
  479MOL0     H64604   2.860   6.396   0.251  1.7027  0.2590 -0.8701
  479MOL0     H64605   2.933   6.247   0.329  1.7683 -0.3557 -1.1944
  479MOL0     H64606   3.066   6.529   0.338 -2.3103  0.2164 -2.4135
  479MOL0     H64607   3.132   6.373   0.397 -2.7965 -1.8144  1.2123
  479MOL0     H64608   3.107   6.291   0.156  1.3656 -0.6949  1.8643
  479MOL0     H64609   3.088   6.459   0.106 -1.6285 -1.2853 -0.6894
  479MOL0     H64610   3.337   6.325   0.250  0.3908  0.9450 -1.2457
  479MOL0     H64611   3.317   6.386   0.093  0.4059  1.6060 -0.3552
  479MOL0     H64612   3.350   6.534   0.349  0.1158 -1.3065 -0.5448
  479MOL0     H64613   3.281   6.630   0.222 -1.1373 -1.0122  0.1665
  479MOL0     H64614   3.547   6.464   0.187  1.1142  0.6477  0.7577
  479MOL0     H64615   3.480   6.592   0.079  0.3605 -2.2512 -1.3197
  479MOL0     H64616   3.622   6.539   0.446 -0.2241 -0.1108  0.3720
  479MOL0     H64617   3.732   6.909   0.553 -2.2191  0.9362  2.4116
  479MOL0     H64618   3.616   6.810   0.634 -1.0025 -3.0437 -0.7091
  479MOL0     H64619   3.825   6.765   0.739 -1.4637 -0.3477  0.3672
  479MOL0     H64620   3.767   6.627   0.656  0.1915  0.7969  2.1821
  479MOL0     H64621   3.967   6.813   0.526  0.6573 -1.6588 -1.7179
  479MOL0     H64622   3.926   6.644   0.483  2.8038  1.1083 -1.6263
  479MOL0     H64623   4.020   6.578   0.697 -0.1908  0.4896  1.7516
  479MOL0     H64624   4.083   6.743   0.717 -0.1190  2.3431 -2.4609
  479MOL0     H64625   4.111   6.399   0.615 -1.1617  5.2140  3.0864
  479MOL0     H64626   4.263   6.204   0.663  1.6488 -1.8534 -0.9658
  479MOL0     H64627   4.528   5.906   0.822 -1.3951  1.8820 -1.8479
  479MOL0     H64628   4.688   5.724   0.822 -1.2286  0.4415 -0.0215
  479MOL0     H64629   4.929   5.658   0.436 -0.4340  2.4548  0.8193
  479MOL0     H64630   5.020   5.776   0.510 -2.1209  1.1202  0.5554
  479MOL0     H64631   5.111   5.584   0.673  0.7276  0.1769  0.6153
  479MOL0     H64632   5.013   5.475   0.572 -0.4019  0.7327  0.6555
  479MOL0     H64633   5.150   5.552   0.380  2.0471  0.9230 -1.2424
  479MOL0     H64634   5.254   5.638   0.495  0.2005 -0.8854  0.0425
  479MOL0     H64635   5.214   5.332   0.499  2.1751 -1.6328  3.6935
  479MOL0     H64636   5.298   5.416   0.615  0.9223 -2.1434 -0.2908
  479MOL0     H64637   5.472   5.476   0.481  2.5564 -0.7291 -3.7308
  479MOL0     H64638   5.384   5.468   0.332  0.6174  1.3882  0.2710
  479MOL0     H64639   5.455   5.236   0.525 -2.7248 -0.8836  0.4187
  479MOL0     H64640   5.377   5.216   0.363  0.9192  0.1087 -0.6653
  479MOL0     H64641   5.571   5.210   0.265 -1.5782 -1.4614 -0.4305
  479MOL0     H64642   5.642   5.176   0.414 -2.1474 -1.3901  0.6382
  479MOL0     H64643   5.775   5.364   0.310  1.1711  0.8091  0.9953
  479MOL0     H64644   5.634   5.460   0.295 -0.8094  0.3148  0.6648
  479MOL0     H64645   4.828   5.864   0.441 -0.4745  3.7725 -0.2956
  479MOL0     H64646   4.664   6.036   0.445  1.4043 -0.6210 -1.0891
  479MOL0     H64647   4.586   6.484   0.657 -0.7035 -0.2720  3.3203
  479MOL0     H64648   4.429   6.667   0.596 -0.8623  0.3022 -2.0711
  479MOL0     H64649   2.496   6.656   0.561 -2.6746  1.7318 -3.5680
  479MOL0     H64650   2.261   6.656   0.610 -1.3723 -1.9741  3.5518
  479MOL0     H64651   1.907   6.596   0.634 -0.1250  1.9531  1.8709
  479MOL0     H64652   1.675   6.651   0.691 -2.1197  0.0876  1.0217
  479MOL0     H64653   1.427   6.624   0.743  1.2916  0.9658 -0.9412
  479MOL0     H64654   1.534   6.711   0.855  1.6466 -1.4712 -1.3186
  479MOL0     H64655   1.274   6.592   0.956  0.1832 -0.3820 -2.1618
  479MOL0     H64656   1.315   6.752   0.912  0.9560 -0.3544 -1.6237
  479MOL0     H64657   1.514   6.732   1.055 -0.1633  0.7212 -1.2001
  479MOL0     H64658   1.447   6.587   1.133  0.0076  0.4470  0.6521
  479MOL0     H64659   1.378   6.811   1.266  0.0908 -0.5479  0.3090
  479MOL0     H64660   1.303   6.854   1.108 -2.0783 -2.3491 -0.8137
  479MOL0     H64661   1.076   6.544   1.324  1.2264 -0.1805  2.2597
  479MOL0     H64662   1.660   6.316   0.949 -1.2578  0.1786 -0.6655
  479MOL0     H64663   1.902   6.134   0.797  0.5177  3.3695 -1.5905
  479MOL0     H64664   1.984   6.214   0.932 -0.8727  1.2906  1.3799
  479MOL0     H64665   1.820   6.157   0.962 -3.6381  0.7280 -1.0330
  480MOL0     O64666   1.085   6.769   1.948 -0.0765  0.6464 -0.1793
  480MOL0     C64667   1.070   6.656   1.898 -0.0175 -0.2653 -0.2569
  480MOL0     O64668   1.157   6.596   1.829 -0.1599  0.0563 -0.3115
  480MOL0     C64669   1.257   6.661   1.777 -0.2789 -0.2123  1.1739
  480MOL0     C64670   1.379   6.668   1.840 -0.7420 -0.6344  0.2414
  480MOL0     C64671   1.477   6.743   1.774 -0.0003  0.0435  0.1726
  480MOL0     C64672   1.456   6.815   1.653  0.0177  0.4016 -0.3153
  480MOL0     O64673   1.564   6.880   1.599 -0.5630  0.4777 -0.3338
  480MOL0     C64674   1.560   6.890   1.458 -0.0003  0.4219  0.1990
  480MOL0     C64675   1.703   6.929   1.399  0.6752 -0.2582  0.1626
  480MOL0     C64676   1.807   6.827   1.430  0.1032 -0.2324  0.2240
  480MOL0     C64677   1.943   6.887   1.373  0.5771 -0.1372  0.6673
  480MOL0     C64678   2.061   6.789   1.386  0.5373 -0.2866 -0.7665
  480MOL0     C64679   2.183   6.856   1.339  0.5383  0.4027  0.1550
  480MOL0     C64680   2.305   6.766   1.354 -0.1201  0.9178  0.2004
  480MOL0     C64681   2.434   6.831   1.288  0.9339  0.7912  0.1257
  480MOL0     N64682   2.555   6.748   1.310  0.1637 -1.3151 -0.3493
  480MOL0     C64683   2.634   6.745   1.417  1.1359  0.2890  0.2099
  480MOL0     C64684   2.747   6.675   1.385  0.4344 -0.5378  0.0940
  480MOL0     C64685   2.862   6.648   1.475 -0.2734 -0.4025  0.1583
  480MOL0     C64686   2.994   6.641   1.409 -1.0974 -0.7424  0.1224
  480MOL0     C64687   3.075   6.773   1.408 -0.2390  0.9043 -0.0849
  480MOL0     C64688   3.025   6.863   1.292 -0.4496 -0.4883 -0.0546
  480MOL0     O64689   3.121   6.972   1.275 -0.1967 -0.5405 -0.2010
  480MOL0     C64690   3.246   6.939   1.230  0.0943  0.2582  0.4037
  480MOL0     C64691   3.343   7.037   1.236  0.0484  0.4371 -0.2199
  480MOL0     C64692   3.469   7.025   1.179 -0.3382 -0.7912 -0.4369
  480MOL0     C64693   3.505   6.913   1.106 -0.0381  0.3114  0.2033
  480MOL0     C64694   3.638   6.888   1.052  0.0943 -0.6048 -0.8834
  480MOL0     O64695   3.734   6.977   1.094  0.0014  0.1095 -0.1385
  480MOL0     C64696   3.838   7.010   1.007 -0.6562  0.2580  0.2516
  480MOL0     C64697   3.827   7.036   0.863 -0.3955 -0.2150 -0.5560
  480MOL0     C64698   3.938   7.065   0.786  0.0777 -0.3349 -0.2455
  480MOL0     C64699   4.060   7.067   0.843  0.2457 -0.6624 -0.0109
  480MOL0     O64700   4.172   7.105   0.771 -0.0837  0.1212  0.1942
  480MOL0     C64701   4.185   7.247   0.731 -0.3554  0.1254  0.0676
  480MOL0     C64702   4.315   7.311   0.789  0.2029 -1.0327 -0.4123
  480MOL0     C64703   4.288   7.397   0.911 -0.2052 -0.0957 -0.7986
  480MOL0     C64704   4.418   7.465   0.966  0.4668  0.7862  0.4417
  480MOL0     C64705   4.381   7.569   1.072  0.1631 -0.1957 -0.0683
  480MOL0     C64706   4.516   7.635   1.109  0.9074  0.4589 -0.1657
  480MOL0     C64707   4.496   7.718   1.241 -0.9024 -0.2478  0.1423
  480MOL0     C64708   4.629   7.774   1.295  1.0295  0.4160  0.9763
  480MOL0    Cl64709   4.605   7.858   1.444 -0.3431 -0.1349 -0.5636
  480MOL0     C64710   4.075   7.046   0.978 -0.7260  0.2062  0.2236
  480MOL0     C64711   3.969   7.010   1.059 -0.5450  0.3467 -0.4710
  480MOL0     O64712   3.653   6.808   0.958 -0.4997 -0.2441  0.1556
  480MOL0     C64713   3.401   6.820   1.081  0.2505  0.4897  0.0526
  480MOL0     C64714   3.276   6.827   1.148 -0.0227 -0.0137  0.3638
  480MOL0     N64715   2.732   6.631   1.254 -0.4254  0.2061  0.9599
  480MOL0     N64716   2.620   6.688   1.208  0.2908 -0.8067  0.1201
  480MOL0     C64717   1.336   6.797   1.591  0.8196 -0.5676 -0.4670
  480MOL0     C64718   1.233   6.731   1.654  0.5127  0.3250 -0.2222
  480MOL0     C64719   0.932   6.593   1.909  0.1490 -0.1972 -0.4743
  480MOL0     C64720   0.839   6.667   1.988 -0.9424  0.8599 -0.1627
  480MOL0     C64721   0.714   6.605   2.011  0.1066 -0.0408 -0.5173
  480MOL0     C64722   0.672   6.480   1.958 -0.5842 -0.0875  0.6966
  480MOL0     O64723   0.546   6.440   2.008 -0.4901 -0.0747  0.0632
  480MOL0     C64724   0.476   6.317   1.965  0.2391 -0.8412 -0.4822
  480MOL0     C64725   0.428   6.225   2.079  0.0540 -0.3453  0.6189
  480MOL0     C64726   0.351   6.299   2.194  0.0990  0.4942  0.0198
  480MOL0     C64727   0.210   6.356   2.159  0.8172  0.1329 -0.0322
  480MOL0     C64728   0.155   6.409   2.280  0.2488 -0.5568  0.2535
  480MOL0     C64729   0.112   6.451   2.389 -0.6903 -0.5233 -0.1989
  480MOL0     C64730   0.770   6.402   1.891  0.3553  0.5167 -0.3234
  480MOL0     C64731   0.896   6.463   1.858  0.0178  0.3608 -0.4139
  480MOL0     C64732   0.994   6.371   1.780 -0.1982 -0.7701 -0.0999
  480MOL0     H64733   1.395   6.630   1.940  1.2268 -0.2561  0.1139
  480MOL0     H64734   1.572   6.760   1.822 -1.5734  3.5867  2.4786
  480MOL0     H64735   1.533   6.790   1.423  4.7310 -1.8374  2.1055
  480MOL0     H64736   1.492   6.968   1.423  0.5539  0.7057 -0.2703
  480MOL0     H64737   1.728   7.031   1.429 -3.1884  0.3675  1.8701
  480MOL0     H64738   1.702   6.920   1.290  4.5781 -1.5075  0.0862
  480MOL0     H64739   1.784   6.731   1.384  2.4229  0.4021 -2.6076
  480MOL0     H64740   1.810   6.815   1.539 -3.3568  2.9203  0.8733
  480MOL0     H64741   1.932   6.897   1.264 -1.7293  1.2844  0.9500
  480MOL0     H64742   1.974   6.986   1.407  2.6685 -0.6645  0.4499
  480MOL0     H64743   2.070   6.770   1.493 -0.2620  0.8319 -0.4903
  480MOL0     H64744   2.035   6.696   1.335 -3.3407 -0.0243  0.4554
  480MOL0     H64745   2.161   6.898   1.240  3.2242  5.0827  1.2227
  480MOL0     H64746   2.194   6.948   1.398 -4.8421  2.2451 -1.0887
  480MOL0     H64747   2.285   6.674   1.298  2.1081 -0.6606  1.8143
  480MOL0     H64748   2.338   6.748   1.457  0.8717  0.1400 -0.2358
  480MOL0     H64749   2.413   6.839   1.181 -0.6916  0.0624  0.3525
  480MOL0     H64750   2.454   6.927   1.339  1.2094  1.0055 -0.3858
  480MOL0     H64751   2.622   6.796   1.512  0.3453  0.9150 -0.2257
  480MOL0     H64752   2.869   6.719   1.557  0.9690 -0.4714  0.1335
  480MOL0     H64753   2.845   6.548   1.516 -0.6900 -0.9312 -1.2252
  480MOL0     H64754   3.060   6.575   1.466 -1.6745  0.6016  2.4816
  480MOL0     H64755   2.985   6.601   1.308  1.1501  1.1275 -0.9188
  480MOL0     H64756   3.182   6.747   1.408 -0.0864  1.4925 -0.2405
  480MOL0     H64757   3.056   6.813   1.508 -1.2347 -0.8854  0.4792
  480MOL0     H64758   2.929   6.911   1.313 -0.1847 -0.3447  0.8613
  480MOL0     H64759   3.020   6.807   1.198  0.4973 -1.6884  0.5893
  480MOL0     H64760   3.310   7.120   1.297  0.7642 -2.0477  3.9288
  480MOL0     H64761   3.538   7.106   1.198 -0.9967 -0.7257  1.9701
  480MOL0     H64762   3.728   7.029   0.817 -0.6529  1.3905 -0.3377
  480MOL0     H64763   3.922   7.066   0.679 -0.6655  1.8435 -0.1608
  480MOL0     H64764   4.212   7.235   0.625 -0.3577 -2.7040  0.3318
  480MOL0     H64765   4.097   7.310   0.750 -0.6455 -0.0235 -0.7072
  480MOL0     H64766   4.391   7.238   0.820  0.7306 -0.3017  0.0411
  480MOL0     H64767   4.357   7.376   0.711  0.3801  0.1790  0.6552
  480MOL0     H64768   4.217   7.480   0.901  2.1608  2.5147  1.9119
  480MOL0     H64769   4.253   7.329   0.990 -0.3867 -1.1406 -1.7591
  480MOL0     H64770   4.461   7.517   0.880  2.2846  0.0982  0.8828
  480MOL0     H64771   4.487   7.387   1.000  0.6150  0.3567 -0.7746
  480MOL0     H64772   4.326   7.526   1.156 -0.4661 -0.1959 -0.4683
  480MOL0     H64773   4.310   7.645   1.039  1.1427  0.5159 -0.5835
  480MOL0     H64774   4.588   7.554   1.126  2.4374  1.7654 -0.1966
  480MOL0     H64775   4.551   7.700   1.028  0.9075 -0.9716 -1.3645
  480MOL0     H64776   4.457   7.654   1.321  0.3506  1.2194  1.9955
  480MOL0     H64777   4.424   7.799   1.235 -2.4745 -1.4480  1.5991
  480MOL0     H64778   4.703   7.694   1.291 -0.6564 -1.1565 -0.7417
  480MOL0     H64779   4.673   7.844   1.223 -0.0995  1.6430  1.4485
  480MOL0     H64780   4.175   7.048   1.021 -0.1071  1.0079 -1.1851
  480MOL0     H64781   3.978   6.981   1.163 -0.1578 -1.5168 -0.9783
  480MOL0     H64782   3.411   6.734   1.015  0.9936  2.0148 -1.8944
  480MOL0     H64783   3.201   6.760   1.107 -0.6636  1.4401 -0.9897
  480MOL0     H64784   1.311   6.848   1.498 -0.9422  1.7764  1.1775
  480MOL0     H64785   1.132   6.722   1.616 -0.5102  1.2986  2.1151
  480MOL0     H64786   0.858   6.768   2.021 -0.8811  0.1550  2.1402
  480MOL0     H64787   0.636   6.662   2.061 -0.3974  0.8344 -2.2311
  480MOL0     H64788   0.541   6.259   1.898  0.8501 -0.2695 -0.3950
  480MOL0     H64789   0.390   6.351   1.907  0.8783  1.7346 -0.0070
  480MOL0     H64790   0.525   6.194   2.118  1.9901  0.1325 -3.3541
  480MOL0     H64791   0.373   6.140   2.038 -0.6281  0.8886 -1.1491
  480MOL0     H64792   0.417   6.377   2.232  0.3199  0.0516  0.5458
  480MOL0     H64793   0.345   6.211   2.258 -2.2654 -1.5074 -2.6430
  480MOL0     H64794   0.218   6.435   2.083 -0.6307  0.1967 -0.1443
  480MOL0     H64795   0.144   6.277   2.124  1.4968 -0.6456  0.4142
  480MOL0     H64796   0.080   6.477   2.488 -0.6820 -2.3947  0.3332
  480MOL0     H64797   0.737   6.304   1.858 -2.0753  1.0576  0.2983
  480MOL0     H64798   0.942   6.278   1.759 -2.0445  0.5825 -1.9130
  480MOL0     H64799   1.015   6.416   1.682 -0.1806 -0.9443 -0.1771
  480MOL0     H64800   1.085   6.347   1.837 -0.6554 -1.5364  0.3230
  481MOL0     O64801   6.102   3.364  10.770 -0.1619  0.1509  0.3653
  481MOL0     C64802   6.044   3.326  10.666  0.2105 -0.0876 -0.5924
  481MOL0     O64803   6.089   3.226  10.583 -0.1890 -0.2321  0.0182
  481MOL0     C64804   6.179   3.136  10.631  0.2319  0.2510 -0.0882
  481MOL0     C64805   6.316   3.170  10.650  0.6637  0.7288  0.2750
  481MOL0     C64806   6.412   3.073  10.708  0.6153  0.7174  1.2279
  481MOL0     C64807   6.367   2.939  10.727 -0.7451 -0.3781 -0.1417
  481MOL0     O64808   6.435   2.818  10.751 -0.2059 -1.0677  0.1081
  481MOL0     C64809   6.573   2.810  10.734 -1.0246  0.1903 -0.5653
  481MOL0     C64810   6.612   2.821  10.587 -0.2578 -1.0687 -0.6075
  481MOL0     C64811   6.757   2.856  10.574 -0.0827 -0.5444  0.6790
  481MOL0     C64812   6.810   2.894  10.439 -0.6502  0.1962 -0.2180
  481MOL0     C64813   6.959   2.919  10.429  0.7123 -0.1818 -0.8472
  481MOL0     C64814   7.012   2.952  10.289 -0.0939  0.5477 -0.3268
  481MOL0     C64815   7.163   2.938  10.273 -0.1318 -0.1587 -0.8003
  481MOL0     C64816   7.232   3.038  10.358 -0.1583  0.0237  0.0530
  481MOL0     N64817   7.374   3.033  10.369  0.2462 -0.6459  0.6062
  481MOL0     C64818   7.470   3.036  10.273  0.1071 -0.2280 -0.2705
  481MOL0     C64819   7.590   3.047  10.337  0.5110  0.0897  0.7659
  481MOL0     C64820   7.721   3.068  10.268  0.2610 -0.0581  0.0958
  481MOL0     C64821   7.793   3.198  10.296 -0.5257 -0.3138  0.4086
  481MOL0     C64822   7.851   3.216  10.437  0.1213  0.2219 -0.9117
  481MOL0     C64823   7.977   3.127  10.464 -0.5724  0.0452 -0.6441
  481MOL0     O64824   8.027   3.142  10.596 -0.0913  0.4753  0.5154
  481MOL0     C64825   8.152   3.103  10.631  0.2781 -0.7103 -0.3311
  481MOL0     C64826   8.246   3.035  10.551 -0.8904 -0.1765 -0.4851
  481MOL0     C64827   8.380   3.023  10.599 -0.9884 -0.5484 -0.2895
  481MOL0     C64828   8.410   3.055  10.733 -0.1402  1.0613 -0.0566
  481MOL0     C64829   8.552   3.039  10.790 -0.4092 -0.3161 -0.0150
  481MOL0     O64830   8.631   2.958  10.725  0.0656 -0.1960  0.1191
  481MOL0     C64831   8.750   2.908  10.779  0.2042  0.6451 -0.2316
  481MOL0     C64832   8.846   2.857  10.695  0.5467  0.1709  0.2476
  481MOL0     C64833   8.954   2.779  10.741  0.0125 -0.6096 -0.9649
  481MOL0     C64834   8.972   2.764  10.882  0.7437 -0.7252  1.4097
  481MOL0     O64835   9.085   2.708  10.944  0.4278 -0.6639  0.3146
  481MOL0     C64836   9.185   2.646  10.857 -0.4555 -0.7050  0.1258
  481MOL0     C64837   9.310   2.595  10.940  0.1047 -0.5573 -0.0106
  481MOL0     C64838   9.373   2.723  11.013  0.5475  0.1085 -0.1380
  481MOL0     C64839   9.503   2.686  11.095  0.1964 -0.4230  0.6488
  481MOL0     C64840   9.603   2.802  11.101 -0.9757 -0.2830 -1.2209
  481MOL0     C64841   9.735   2.758  11.153 -0.3354  0.1979  0.2017
  481MOL0     C64842   9.748   2.691  11.288 -0.1653  0.2101 -0.0318
  481MOL0     C64843   9.882   2.610  11.296 -0.1694  1.2806  0.8290
  481MOL0    Cl64844  10.027   2.715  11.312 -0.2622 -0.7148 -0.1591
  481MOL0     C64845   8.872   2.812  10.966 -1.3380  0.1376 -0.0280
  481MOL0     C64846   8.771   2.886  10.921 -0.6532  0.2041  0.7263
  481MOL0     O64847   8.578   3.096  10.893  0.1980 -0.2290  0.2507
  481MOL0     C64848   8.309   3.114  10.811 -0.5391  0.2990  0.0318
  481MOL0     C64849   8.187   3.144  10.761  0.9957 -0.0251 -0.1310
  481MOL0     N64850   7.553   3.055  10.473 -0.4853  0.0630  0.2224
  481MOL0     N64851   7.432   3.040  10.492  0.0163 -0.0682  0.3249
  481MOL0     C64852   6.229   2.917  10.722 -0.1453  1.3387  0.5233
  481MOL0     C64853   6.136   3.012  10.673  0.1928  0.5819  0.3686
  481MOL0     C64854   5.908   3.387  10.633 -0.4271 -0.2698  0.3899
  481MOL0     C64855   5.828   3.331  10.528 -0.8581  0.2266  0.0267
  481MOL0     C64856   5.707   3.381  10.494  0.5223 -0.6583 -0.3542
  481MOL0     C64857   5.660   3.495  10.555  0.5809 -0.0360  1.1282
  481MOL0     O64858   5.534   3.553  10.532  0.1563  0.1529  0.3134
  481MOL0     C64859   5.429   3.479  10.456  0.6475  0.0090 -0.0366
  481MOL0     C64860   5.329   3.417  10.552 -0.0526 -0.3544  0.4363
  481MOL0     C64861   5.236   3.338  10.465  0.9134  0.1187  0.6033
  481MOL0     C64862   5.123   3.281  10.553 -0.7203  0.4727  0.1491
  481MOL0     C64863   5.006   3.366  10.561  0.2840 -0.0159  0.6572
  481MOL0     C64864   4.904   3.439  10.578  0.1359  0.7448  0.1157
  481MOL0     C64865   5.739   3.560  10.650 -0.0050 -0.4195  0.8756
  481MOL0     C64866   5.860   3.512  10.691  0.3805  0.9318 -0.8809
  481MOL0     C64867   5.931   3.567  10.816  0.0122  0.5283 -0.0341
  481MOL0     H64868   6.352   3.269  10.625  0.5838  0.1434 -2.5029
  481MOL0     H64869   6.519   3.087  10.710  0.6858  1.1347 -1.6686
  481MOL0     H64870   6.625   2.886  10.794 -0.4873 -1.4338  1.1016
  481MOL0     H64871   6.609   2.712  10.765  0.6796 -0.0758 -3.0568
  481MOL0     H64872   6.560   2.903  10.537 -2.6805 -1.9268  0.3468
  481MOL0     H64873   6.590   2.729  10.531  0.0622 -0.3075 -2.0354
  481MOL0     H64874   6.810   2.768  10.614 -1.1832 -1.5610 -0.0298
  481MOL0     H64875   6.784   2.938  10.641 -0.9492  0.2963  0.0061
  481MOL0     H64876   6.783   2.813  10.370 -1.6848 -0.1579  0.5813
  481MOL0     H64877   6.758   2.988  10.419 -0.7102  0.6969  1.9978
  481MOL0     H64878   6.988   3.002  10.494  5.5148 -0.6478 -2.0670
  481MOL0     H64879   7.003   2.826  10.467  0.4970 -0.9610 -2.4124
  481MOL0     H64880   6.979   2.868  10.227  2.1894  0.6672 -1.7993
  481MOL0     H64881   6.981   3.051  10.253  2.6350  2.0889  1.2585
  481MOL0     H64882   7.199   2.952  10.171 -0.2931  1.2239 -0.6834
  481MOL0     H64883   7.190   2.835  10.297  1.1291  0.3163 -0.1330
  481MOL0     H64884   7.224   3.141  10.324  1.3038  0.6095  1.3618
  481MOL0     H64885   7.194   3.032  10.460  0.5949 -1.3924  0.2784
  481MOL0     H64886   7.454   3.046  10.166 -0.1062  0.5123 -0.1749
  481MOL0     H64887   7.786   2.981  10.280  0.2641 -0.1977 -0.8434
  481MOL0     H64888   7.697   3.060  10.161  1.9092 -0.5644 -0.2703
  481MOL0     H64889   7.868   3.213  10.218 -1.0005  0.2977  0.0598
  481MOL0     H64890   7.721   3.279  10.281 -0.0579  0.5528  2.4831
  481MOL0     H64891   7.783   3.201  10.522  1.1053  0.2171 -0.1047
  481MOL0     H64892   7.885   3.319  10.450 -0.3900  0.1437  1.5924
  481MOL0     H64893   8.060   3.143  10.395  1.1607 -0.9109  1.0909
  481MOL0     H64894   7.945   3.022  10.464  2.1016 -1.0253  3.4869
  481MOL0     H64895   8.226   3.014  10.446 -1.7373 -2.5595  0.0956
  481MOL0     H64896   8.457   2.984  10.532  2.4725  1.1413  2.3648
  481MOL0     H64897   8.832   2.869  10.588 -1.9615 -1.4895  0.2929
  481MOL0     H64898   9.024   2.758  10.661 -1.1618  0.3643 -2.3130
  481MOL0     H64899   9.148   2.559  10.803  0.9186 -0.2859 -1.5764
  481MOL0     H64900   9.223   2.720  10.786  0.1493 -1.7285 -0.6505
  481MOL0     H64901   9.286   2.510  11.005  1.9522 -2.0165 -1.1189
  481MOL0     H64902   9.376   2.548  10.867  2.4430 -1.2612  2.3955
  481MOL0     H64903   9.392   2.803  10.941  2.2352 -1.1231 -1.1325
  481MOL0     H64904   9.303   2.768  11.084 -2.0367 -2.4007 -0.8906
  481MOL0     H64905   9.552   2.605  11.041 -0.4578 -1.2717  1.3044
  481MOL0     H64906   9.470   2.648  11.192 -0.2414 -0.5017  0.4731
  481MOL0     H64907   9.567   2.881  11.167 -1.4704 -0.1391 -1.6622
  481MOL0     H64908   9.625   2.845  11.003 -0.0483 -1.1621 -1.4195
  481MOL0     H64909   9.769   2.688  11.077 -2.0571 -0.2424 -0.2013
  481MOL0     H64910   9.795   2.850  11.148  0.9905 -0.6702 -4.4146
  481MOL0     H64911   9.665   2.620  11.297 -0.8445  1.2037  2.2035
  481MOL0     H64912   9.752   2.770  11.364 -0.7551  0.6401 -0.4335
  481MOL0     H64913   9.883   2.525  11.365 -0.4231 -0.0261 -0.6915
  481MOL0     H64914   9.898   2.568  11.196 -1.0029  0.8099  0.8768
  481MOL0     H64915   8.878   2.780  11.069  0.8551 -0.2293 -0.2326
  481MOL0     H64916   8.695   2.904  10.996  0.9200 -0.5646  2.5803
  481MOL0     H64917   8.335   3.137  10.914  0.6503 -0.8411  0.0099
  481MOL0     H64918   8.100   3.185  10.811  2.1267  1.3459  0.7758
  481MOL0     H64919   6.213   2.812  10.742  1.5362  0.9860  0.1856
  481MOL0     H64920   6.029   2.998  10.686  0.4616 -0.0350  2.1911
  481MOL0     H64921   5.861   3.237  10.486  2.9201  0.8409  1.1991
  481MOL0     H64922   5.642   3.327  10.425  1.5963 -0.2744 -1.7048
  481MOL0     H64923   5.472   3.407  10.386  0.6169  0.5247 -0.5958
  481MOL0     H64924   5.369   3.547  10.395 -0.1723  1.7471  2.5633
  481MOL0     H64925   5.272   3.491  10.609 -1.9006 -0.8792 -0.6689
  481MOL0     H64926   5.376   3.342  10.616 -0.3245 -0.9055 -0.0097
  481MOL0     H64927   5.284   3.258  10.408 -0.0133  0.6056 -0.9297
  481MOL0     H64928   5.182   3.399  10.393 -0.6622  0.0414  1.6594
  481MOL0     H64929   5.089   3.202  10.487 -0.6377 -1.6364  2.4744
  481MOL0     H64930   5.171   3.248  10.646  0.2926 -0.1054 -0.5701
  481MOL0     H64931   4.814   3.490  10.605  0.2480  0.5525  0.8670
  481MOL0     H64932   5.704   3.652  10.696 -0.8574 -0.6511  0.7011
  481MOL0     H64933   5.948   3.497  10.899 -1.2493 -0.0011 -0.1958
  481MOL0     H64934   6.025   3.600  10.770 -0.4789 -2.3182 -3.6243
  481MOL0     H64935   5.880   3.654  10.858 -0.0600  0.5829 -0.2285
  482MOL0     O64936   4.345   1.331   9.978 -0.3686  0.1327  0.3111
  482MOL0     C64937   4.436   1.328   9.895  0.3916 -0.3592  0.6843
  482MOL0     O64938   4.502   1.210   9.852 -0.0938  0.1110 -0.6746
  482MOL0     C64939   4.531   1.109   9.937 -0.1392 -0.0111  0.4649
  482MOL0     C64940   4.665   1.059   9.942  0.4872 -0.4947  0.4378
  482MOL0     C64941   4.703   0.956  10.024 -0.1400 -1.1020  0.7462
  482MOL0     C64942   4.612   0.902  10.102 -0.2871  0.1631 -0.4123
  482MOL0     O64943   4.668   0.813  10.192  0.3913  0.4812  0.2787
  482MOL0     C64944   4.595   0.772  10.307 -0.0785  0.1598  0.1363
  482MOL0     C64945   4.677   0.652  10.369  1.0180 -0.4946 -0.5803
  482MOL0     C64946   4.826   0.684  10.394  0.3618 -0.6488  0.1761
  482MOL0     C64947   4.838   0.814  10.474  0.2852 -0.0025  0.3107
  482MOL0     C64948   4.978   0.837  10.542  0.1045 -0.3853  0.6526
  482MOL0     C64949   4.957   0.936  10.659  0.0022 -0.6340  0.7301
  482MOL0     C64950   5.096   0.942  10.732 -0.0694 -0.0601  0.0134
  482MOL0     C64951   5.094   1.025  10.863  0.5454  0.5319 -0.0349
  482MOL0     N64952   5.020   0.953  10.969 -0.7225  1.0123 -0.1138
  482MOL0     C64953   4.899   0.995  11.019 -0.5052  0.0785 -0.0710
  482MOL0     C64954   4.875   0.914  11.114  0.1789  0.1847 -0.9817
  482MOL0     C64955   4.740   0.901  11.177  0.7540  0.1281 -0.0943
  482MOL0     C64956   4.704   1.010  11.276  0.4999 -0.0576  0.3548
  482MOL0     C64957   4.601   0.967  11.381  0.2378 -0.9763  0.2317
  482MOL0     C64958   4.528   1.100  11.446  0.5933 -0.0909 -0.3808
  482MOL0     O64959   4.486   1.090  11.586 -0.1710 -0.0094 -0.1230
  482MOL0     C64960   4.395   1.174  11.639  0.0114 -0.3104 -0.5811
  482MOL0     C64961   4.320   1.130  11.750 -0.3036 -0.2989  0.4385
  482MOL0     C64962   4.214   1.203  11.797  0.2658 -0.4301 -0.1623
  482MOL0     C64963   4.172   1.319  11.728 -0.7335 -0.0536  0.6466
  482MOL0     C64964   4.049   1.393  11.763 -0.4713 -0.4670  0.5924
  482MOL0     O64965   4.025   1.515  11.711  0.2416 -0.5102  0.6033
  482MOL0     C64966   3.906   1.565  11.740  0.8262  0.0272  0.2735
  482MOL0     C64967   3.781   1.503  11.692 -0.6445 -0.6491 -1.0808
  482MOL0     C64968   3.658   1.571  11.716  0.2964 -0.4751 -0.2381
  482MOL0     C64969   3.656   1.694  11.774 -0.3088  0.0663 -0.0896
  482MOL0     O64970   3.541   1.761  11.784  0.1476  1.3106  0.2297
  482MOL0     C64971   3.529   1.850  11.671 -0.0193  0.2066 -0.6412
  482MOL0     C64972   3.391   1.907  11.686  0.0411 -0.6519  0.2563
  482MOL0     C64973   3.279   1.793  11.694  0.3491 -0.1918 -0.5727
  482MOL0     C64974   3.132   1.849  11.707 -0.4776 -0.2271  0.0190
  482MOL0     C64975   3.088   1.871  11.856 -0.5090 -0.4040  0.2565
  482MOL0     C64976   2.943   1.926  11.865  0.1305 -0.1434 -0.4871
  482MOL0     C64977   2.847   1.817  11.822  0.6233 -0.4522 -0.3047
  482MOL0     C64978   2.705   1.853  11.877 -0.3204  0.3521 -0.5779
  482MOL0    Cl64979   2.651   1.982  11.779 -0.0587 -0.0861 -0.0972
  482MOL0     C64980   3.773   1.756  11.820  0.6990  0.3565  0.1866
  482MOL0     C64981   3.896   1.689  11.802 -0.1995 -0.2928 -0.3685
  482MOL0     O64982   3.970   1.331  11.827  0.1018 -0.5758  0.7618
  482MOL0     C64983   4.256   1.362  11.620 -0.0178  1.0645 -0.1956
  482MOL0     C64984   4.378   1.299  11.582 -0.0277  0.3551 -0.4094
  482MOL0     N64985   4.982   0.832  11.142  0.2839  0.1787 -0.2743
  482MOL0     N64986   5.067   0.849  11.044  0.5217 -0.5150  0.1522
  482MOL0     C64987   4.475   0.949  10.101 -1.1132 -0.5339  0.1248
  482MOL0     C64988   4.438   1.054  10.017 -0.2675  0.9788 -0.7430
  482MOL0     C64989   4.467   1.456   9.826  0.1049 -0.2893  0.2529
  482MOL0     C64990   4.598   1.483   9.775 -0.9291  0.4461  0.0602
  482MOL0     C64991   4.637   1.600   9.707 -0.5909  0.5513  0.3180
  482MOL0     C64992   4.538   1.691   9.682  0.3164 -1.5731  0.0074
  482MOL0     O64993   4.563   1.804   9.611  0.1418  0.4842 -0.6347
  482MOL0     C64994   4.601   1.780   9.472 -0.5438  0.6889  0.3006
  482MOL0     C64995   4.671   1.899   9.401  0.9351 -0.3538  0.5578
  482MOL0     C64996   4.600   2.033   9.446  0.2967  0.0071  0.0729
  482MOL0     C64997   4.643   2.153   9.352  0.2532  0.1082 -0.4319
  482MOL0     C64998   4.593   2.133   9.220 -0.7299 -0.3955  0.3689
  482MOL0     C64999   4.556   2.109   9.105  0.0193  0.6403  0.5388
  482MOL0     C65000   4.410   1.670   9.730  0.2603  0.5433 -0.4755
  482MOL0     C65001   4.373   1.552   9.801 -0.0487 -1.2619  0.0078
  482MOL0     C65002   4.230   1.555   9.839  0.6032 -0.0025 -1.2072
  482MOL0     H65003   4.736   1.098   9.870  0.6872 -0.9839  0.3695
  482MOL0     H65004   4.806   0.925  10.007  0.0934  0.6499 -1.4007
  482MOL0     H65005   4.592   0.848  10.385 -0.2831  1.5627 -1.1872
  482MOL0     H65006   4.494   0.742  10.279  0.5503 -1.5264 -0.4904
  482MOL0     H65007   4.670   0.562  10.307 -2.1721  0.3538 -1.6531
  482MOL0     H65008   4.618   0.628  10.457  0.0750  0.5632 -0.8959
  482MOL0     H65009   4.881   0.685  10.300 -1.8844 -0.6243 -1.2286
  482MOL0     H65010   4.860   0.600  10.455 -0.2143 -1.1369 -0.1574
  482MOL0     H65011   4.837   0.895  10.400 -1.1880 -0.0256  0.2769
  482MOL0     H65012   4.758   0.815  10.548 -2.0554 -4.3535 -1.7704
  482MOL0     H65013   5.027   0.747  10.583  0.2291  0.6028  2.8238
  482MOL0     H65014   5.051   0.877  10.471 -0.8772  1.1451  0.4708
  482MOL0     H65015   4.934   1.032  10.612  0.0366 -2.1414 -2.6241
  482MOL0     H65016   4.880   0.899  10.727 -0.5824 -0.5176  0.1403
  482MOL0     H65017   5.161   0.994  10.662  0.6440  2.4900  2.4089
  482MOL0     H65018   5.138   0.845  10.758  0.9468  1.1769  3.6324
  482MOL0     H65019   5.193   1.042  10.904  1.3893 -1.5763 -1.0327
  482MOL0     H65020   5.049   1.124  10.851 -1.1851 -0.2722 -0.5589
  482MOL0     H65021   4.836   1.069  10.971  0.9752  1.2103 -0.3537
  482MOL0     H65022   4.674   0.892  11.090  3.6487  0.6175 -2.5053
  482MOL0     H65023   4.726   0.811  11.237 -1.2456 -0.0892 -0.7917
  482MOL0     H65024   4.789   1.035  11.340 -0.6788  0.0001  1.9537
  482MOL0     H65025   4.670   1.098  11.220  0.6208  0.0049  0.3793
  482MOL0     H65026   4.657   0.910  11.456  0.2528 -0.5963  0.5187
  482MOL0     H65027   4.518   0.914  11.334  1.1573 -0.3549 -2.2333
  482MOL0     H65028   4.443   1.132  11.385 -0.6910  1.6309  2.1158
  482MOL0     H65029   4.601   1.182  11.441  0.5885 -0.0184  0.5600
  482MOL0     H65030   4.350   1.037  11.796 -3.1438 -2.0252 -0.9281
  482MOL0     H65031   4.149   1.162  11.874 -3.3671  3.3668 -0.8357
  482MOL0     H65032   3.776   1.407  11.641 -0.9031 -2.1280  1.5352
  482MOL0     H65033   3.564   1.530  11.680  0.8181 -1.5554 -0.4130
  482MOL0     H65034   3.607   1.927  11.676  0.9182 -0.5896 -2.2016
  482MOL0     H65035   3.534   1.806  11.571 -1.0701  0.6261 -0.8851
  482MOL0     H65036   3.381   1.974  11.771 -6.3983 -1.9474  0.9822
  482MOL0     H65037   3.360   1.962  11.597 -1.7735 -0.3416  1.0542
  482MOL0     H65038   3.269   1.725  11.609 -2.1041  0.0433 -0.5389
  482MOL0     H65039   3.299   1.745  11.791  0.4023 -0.2667 -0.6209
  482MOL0     H65040   3.057   1.777  11.672 -0.4502  0.2499 -1.0812
  482MOL0     H65041   3.120   1.938  11.643  0.1563 -0.4162 -0.3735
  482MOL0     H65042   3.150   1.954  11.889 -2.6667  0.7782  1.6188
  482MOL0     H65043   3.112   1.780  11.912  2.6249 -0.0526 -0.3345
  482MOL0     H65044   2.931   1.951  11.970 -1.0806 -0.1124 -0.6210
  482MOL0     H65045   2.933   2.016  11.803 -0.2580  0.2349  0.1109
  482MOL0     H65046   2.868   1.724  11.873 -1.8353 -0.9421 -0.0472
  482MOL0     H65047   2.852   1.807  11.713  0.6689  1.0357 -0.4707
  482MOL0     H65048   2.639   1.768  11.863  2.3449 -1.9895  0.1112
  482MOL0     H65049   2.704   1.886  11.982  3.5799 -1.4145  0.2023
  482MOL0     H65050   3.755   1.857  11.856 -2.0285  1.4521 -3.6307
  482MOL0     H65051   3.981   1.732  11.855 -0.0667 -1.6983  0.6094
  482MOL0     H65052   4.232   1.454  11.567  1.4855  1.9234  0.5364
  482MOL0     H65053   4.437   1.335  11.498  0.9729 -1.8747 -0.7285
  482MOL0     H65054   4.403   0.904  10.168 -3.1455 -1.5133 -2.5206
  482MOL0     H65055   4.334   1.084  10.014 -1.5541 -2.8733  0.1796
  482MOL0     H65056   4.675   1.406   9.781 -1.2101  0.1130 -0.4275
  482MOL0     H65057   4.736   1.621   9.667 -0.1637 -0.7643  0.6457
  482MOL0     H65058   4.505   1.757   9.424  1.4427 -2.5509 -2.5996
  482MOL0     H65059   4.667   1.695   9.456 -0.3842  0.8704  0.0014
  482MOL0     H65060   4.658   1.899   9.292 -0.5964 -1.3207  0.7141
  482MOL0     H65061   4.778   1.893   9.425  1.3870 -0.5247 -1.3003
  482MOL0     H65062   4.631   2.047   9.550  2.2174 -0.1472 -0.4362
  482MOL0     H65063   4.492   2.019   9.458  0.7712 -2.8021  1.9888
  482MOL0     H65064   4.596   2.241   9.398 -2.4817 -1.6301  0.3951
  482MOL0     H65065   4.752   2.160   9.357  0.3536 -1.1239 -0.5521
  482MOL0     H65066   4.542   2.079   9.003  3.9429 -1.8417  0.5093
  482MOL0     H65067   4.342   1.754   9.731 -0.9255 -0.3943  0.0591
  482MOL0     H65068   4.184   1.472   9.786  0.5814 -0.5246 -0.3922
  482MOL0     H65069   4.216   1.535   9.946  0.6263  3.3716 -0.4566
  482MOL0     H65070   4.178   1.644   9.802 -1.8623 -0.1897  1.4478
  483MOL0     O65071   8.482   8.814   1.780  0.2044 -0.3388 -0.2248
  483MOL0     C65072   8.384   8.761   1.728 -0.8291  0.6392  0.1258
  483MOL0     O65073   8.383   8.633   1.685  0.2292  0.7909  0.2728
  483MOL0     C65074   8.491   8.547   1.709  0.2984 -0.0228 -0.0941
  483MOL0     C65075   8.608   8.542   1.633  0.0045  0.4984  0.0409
  483MOL0     C65076   8.709   8.448   1.646 -0.2708  0.4546 -0.0801
  483MOL0     C65077   8.693   8.344   1.738  0.9130  0.1061  1.1912
  483MOL0     O65078   8.775   8.236   1.729  1.0223  0.3543 -0.7113
  483MOL0     C65079   8.759   8.122   1.819 -0.5404  0.3818  0.4385
  483MOL0     C65080   8.882   8.028   1.816 -0.1379  0.0617 -0.1375
  483MOL0     C65081   9.000   8.102   1.872 -0.2216  0.2969 -0.2492
  483MOL0     C65082   9.121   8.014   1.902 -0.0804 -0.8934 -0.0866
  483MOL0     C65083   9.241   8.108   1.944  0.1650  0.0393  0.1658
  483MOL0     C65084   9.302   8.168   1.815 -0.1586  0.1919 -0.7681
  483MOL0     C65085   9.436   8.236   1.844 -0.3380  0.3638  0.3774
  483MOL0     C65086   9.549   8.134   1.851  0.0403  0.2442 -0.2370
  483MOL0     N65087   9.678   8.202   1.821  0.2378  0.5248 -0.0448
  483MOL0     C65088   9.740   8.186   1.702  0.8754  0.0098  0.1148
  483MOL0     C65089   9.852   8.258   1.712  0.2271 -0.2098 -0.5840
  483MOL0     C65090   9.942   8.277   1.592 -0.8642 -0.1591  0.1941
  483MOL0     C65091   9.873   8.357   1.483  0.3389  0.1948 -0.0680
  483MOL0     C65092   9.963   8.368   1.358  0.6534 -0.2611  1.0037
  483MOL0     C65093   9.871   8.403   1.244 -0.2551  0.0347 -0.0575
  483MOL0     O65094   9.950   8.397   1.125 -0.0326 -0.3947  0.3649
  483MOL0     C65095  10.013   8.514   1.086 -0.2405  1.2324  0.2703
  483MOL0     C65096  10.053   8.534   0.946  0.9367 -1.2231 -0.5883
  483MOL0     C65097  10.113   8.652   0.909  0.0923 -0.0467  0.2775
  483MOL0     C65098  10.149   8.748   1.002 -0.4703 -0.2037  0.2445
  483MOL0     C65099  10.224   8.873   0.968 -0.7214  0.0380  0.3635
  483MOL0     O65100  10.297   8.866   0.858 -0.3146  0.1996 -0.3274
  483MOL0     C65101  10.397   8.955   0.819  1.0317  0.4504  0.0186
  483MOL0     C65102  10.464   9.032   0.915 -0.0929 -0.7729  0.2726
  483MOL0     C65103  10.585   9.091   0.889  0.1174 -0.3013  0.1415
  483MOL0     C65104  10.646   9.081   0.761  0.1509 -0.7847  0.0750
  483MOL0     O65105  10.772   9.136   0.730 -0.6678 -0.1687  0.4423
  483MOL0     C65106  10.852   9.188   0.839  0.0385 -0.4222 -0.3435
  483MOL0     C65107  11.002   9.188   0.800  0.3785 -0.3724 -0.0082
  483MOL0     C65108  11.049   9.277   0.685  0.6596 -0.7592  0.3088
  483MOL0     C65109  11.200   9.261   0.663 -0.0141 -0.1364 -0.0473
  483MOL0     C65110  11.263   9.375   0.583  1.0722 -0.0607 -0.8737
  483MOL0     C65111  11.416   9.365   0.588 -0.9499  0.3732  0.0575
  483MOL0     C65112  11.476   9.259   0.493  0.5508 -0.2826 -0.1040
  483MOL0     C65113  11.460   9.286   0.339  0.0805  0.7730 -0.2992
  483MOL0    Cl65114  11.591   9.180   0.263  0.2879 -0.0310  0.2664
  483MOL0     C65115  10.570   9.025   0.662  0.0184 -0.3068  0.3957
  483MOL0     C65116  10.449   8.954   0.686 -0.7299 -0.1800  0.1520
  483MOL0     O65117  10.204   8.974   1.035  0.1370 -0.0969 -0.2676
  483MOL0     C65118  10.106   8.732   1.133  0.3763 -0.3250 -0.5094
  483MOL0     C65119  10.044   8.615   1.172 -0.1260  0.2643  0.0563
  483MOL0     N65120   9.860   8.316   1.837  0.4970  0.8283 -0.2950
  483MOL0     N65121   9.749   8.282   1.901  0.1325  0.1682 -0.2411
  483MOL0     C65122   8.575   8.347   1.810 -0.2678  0.3787  0.1244
  483MOL0     C65123   8.475   8.443   1.797  0.8798  0.3912  0.0285
  483MOL0     C65124   8.257   8.839   1.742  0.4196  0.2909 -0.4421
  483MOL0     C65125   8.136   8.761   1.759  0.0183 -0.6322  0.9004
  483MOL0     C65126   8.007   8.826   1.766 -0.4044  0.1998  0.2741
  483MOL0     C65127   7.999   8.966   1.745 -0.3583  0.3350  1.3526
  483MOL0     O65128   7.888   9.038   1.726  0.2043 -0.8703  0.5870
  483MOL0     C65129   7.765   9.006   1.798  0.2790  0.2547  0.0702
  483MOL0     C65130   7.773   8.993   1.951  0.0551  0.8768  0.1857
  483MOL0     C65131   7.813   9.130   2.013 -0.2030 -0.4776 -0.2209
  483MOL0     C65132   7.900   9.121   2.146  0.6383  0.5262  0.1288
  483MOL0     C65133   7.823   9.054   2.250  0.2773 -0.8092 -0.4310
  483MOL0     C65134   7.760   9.017   2.345  0.6104 -0.5225 -0.1040
  483MOL0     C65135   8.115   9.033   1.710  0.5665 -0.5254 -1.1073
  483MOL0     C65136   8.239   8.980   1.723 -0.0036  0.1588  1.0090
  483MOL0     C65137   8.351   9.077   1.674  0.2198  0.0665 -0.5509
  483MOL0     H65138   8.611   8.617   1.555  1.3759  1.7645  1.2286
  483MOL0     H65139   8.803   8.456   1.592 -0.0290  2.1556  0.5110
  483MOL0     H65140   8.745   8.149   1.924 -2.4424 -3.5005  1.3898
  483MOL0     H65141   8.679   8.058   1.779 -1.3046  1.6723 -0.1551
  483MOL0     H65142   8.893   7.993   1.713 -0.5029  2.2485 -0.9751
  483MOL0     H65143   8.848   7.943   1.877  1.1451  1.0900  2.1306
  483MOL0     H65144   8.970   8.148   1.967  1.1480 -0.5654  0.6323
  483MOL0     H65145   9.024   8.186   1.806 -1.2084  0.1261 -0.8512
  483MOL0     H65146   9.096   7.948   1.985  1.0296 -0.6561  0.4474
  483MOL0     H65147   9.143   7.961   1.809 -1.6049 -0.5280 -0.6891
  483MOL0     H65148   9.205   8.193   2.002 -2.2357 -0.2903 -0.7362
  483MOL0     H65149   9.319   8.055   1.999  1.3981 -0.6246 -2.0620
  483MOL0     H65150   9.325   8.085   1.748  2.0851  0.7129 -0.7077
  483MOL0     H65151   9.233   8.241   1.772  1.6670  0.2875 -3.7876
  483MOL0     H65152   9.430   8.289   1.940 -3.6318 -0.5976  0.8206
  483MOL0     H65153   9.460   8.314   1.772  2.5946  0.5123  1.4053
  483MOL0     H65154   9.559   8.100   1.955 -0.0709 -1.4383 -0.7491
  483MOL0     H65155   9.545   8.047   1.784 -3.4723 -0.7230  1.0395
  483MOL0     H65156   9.698   8.133   1.618  1.8375 -0.9225  0.1909
  483MOL0     H65157  10.040   8.319   1.618  0.2768 -2.2150 -0.5254
  483MOL0     H65158   9.951   8.176   1.551 -1.0732  0.2425 -0.8616
  483MOL0     H65159   9.776   8.315   1.456 -0.1976  1.3103  0.0687
  483MOL0     H65160   9.851   8.457   1.522  3.5716  1.9310 -2.2237
  483MOL0     H65161  10.011   8.273   1.334  0.4493  0.5829 -3.7502
  483MOL0     H65162  10.049   8.432   1.378  1.8685 -1.4668 -0.1619
  483MOL0     H65163   9.817   8.497   1.253 -0.2567 -0.0997  1.9171
  483MOL0     H65164   9.792   8.328   1.236  0.4241 -0.5468 -1.6416
  483MOL0     H65165  10.044   8.445   0.884 -0.3501 -1.1175 -0.5720
  483MOL0     H65166  10.146   8.674   0.808 -0.4175  2.2885  0.5652
  483MOL0     H65167  10.428   9.043   1.016 -0.8564  0.6491 -0.1321
  483MOL0     H65168  10.634   9.145   0.968 -0.5273 -1.3004  1.2549
  483MOL0     H65169  10.823   9.292   0.859  0.1947 -0.4713  0.1735
  483MOL0     H65170  10.829   9.130   0.929 -0.2036 -0.2111 -0.2677
  483MOL0     H65171  11.056   9.205   0.893  1.3156  0.1958 -0.6413
  483MOL0     H65172  11.025   9.085   0.775  1.4549 -0.1265 -0.0575
  483MOL0     H65173  10.993   9.257   0.593  0.4209  2.3434 -0.3149
  483MOL0     H65174  11.022   9.380   0.710  0.5105 -1.2044  2.1125
  483MOL0     H65175  11.226   9.158   0.635  1.7006 -0.0380  1.0138
  483MOL0     H65176  11.251   9.264   0.760  0.4155 -0.9699 -0.2313
  483MOL0     H65177  11.240   9.463   0.643 -2.8632 -1.7610  0.4368
  483MOL0     H65178  11.215   9.391   0.486 -3.5413 -1.1105  0.9548
  483MOL0     H65179  11.468   9.460   0.576 -1.9823  0.9266 -0.1624
  483MOL0     H65180  11.431   9.336   0.692 -1.1077  1.7920  0.4931
  483MOL0     H65181  11.427   9.164   0.514 -1.7378  0.8536  0.0033
  483MOL0     H65182  11.580   9.246   0.525 -0.1767 -0.6139  2.2952
  483MOL0     H65183  11.361   9.258   0.302 -0.1561  1.6360 -0.3536
  483MOL0     H65184  11.482   9.389   0.311  3.1557 -0.4046 -2.8114
  483MOL0     H65185  10.620   9.018   0.566  2.5401 -0.7698  1.6524
  483MOL0     H65186  10.394   8.908   0.605  0.2290 -0.0092 -0.6132
  483MOL0     H65187  10.119   8.810   1.207  1.1292  0.8248 -1.8033
  483MOL0     H65188  10.018   8.602   1.276 -1.4402 -3.8512 -0.6118
  483MOL0     H65189   8.548   8.263   1.872  0.3686  0.7148  0.8731
  483MOL0     H65190   8.382   8.431   1.850 -0.9877  1.4140 -2.7969
  483MOL0     H65191   8.139   8.652   1.764 -3.9862 -0.9751 -0.5704
  483MOL0     H65192   7.914   8.769   1.772 -0.8881  0.9893  0.3613
  483MOL0     H65193   7.717   8.913   1.766 -1.6557  1.4678 -0.7760
  483MOL0     H65194   7.693   9.083   1.767 -0.1202 -0.0058  0.3420
  483MOL0     H65195   7.840   8.919   1.996 -0.8254  0.2467  0.4899
  483MOL0     H65196   7.675   8.963   1.989  0.7351  0.2629  1.5133
  483MOL0     H65197   7.717   9.179   2.033  0.4297 -0.3120  2.9202
  483MOL0     H65198   7.860   9.195   1.939  0.4588  2.3614  2.4870
  483MOL0     H65199   7.994   9.077   2.112  0.0758 -0.3935 -0.2732
  483MOL0     H65200   7.922   9.221   2.184  0.9638  0.5838 -0.1979
  483MOL0     H65201   7.708   8.980   2.430  1.9886  0.7726  1.3713
  483MOL0     H65202   8.110   9.138   1.683  0.7739 -0.1942  0.0720
  483MOL0     H65203   8.427   9.081   1.753  1.2032  2.9856 -1.5509
  483MOL0     H65204   8.392   9.024   1.588  2.3166  1.2552 -0.3280
  483MOL0     H65205   8.311   9.174   1.645 -0.9788 -0.9836 -2.6245
  484MOL0     O65206   8.557   0.221   3.025  0.4514  0.1462  0.1024
  484MOL0     C65207   8.562   0.134   3.115  0.1033  0.7888 -0.2427
  484MOL0     O65208   8.637   0.011   3.114 -0.1787 -0.4831 -0.0802
  484MOL0     C65209   8.697  -0.029   2.998  0.4382  0.1860 -0.5856
  484MOL0     C65210   8.664  -0.142   2.924  0.8451 -0.8619 -0.4093
  484MOL0     C65211   8.740  -0.183   2.820 -0.3248  0.1072 -0.1568
  484MOL0     C65212   8.862  -0.126   2.797  0.0141  0.0924 -0.0398
  484MOL0     O65213   8.951  -0.175   2.705  0.0918 -0.3547 -0.1384
  484MOL0     C65214   8.908  -0.247   2.589  0.2806 -0.2379  0.1838
  484MOL0     C65215   9.022  -0.257   2.492  0.7937  0.8032 -0.1247
  484MOL0     C65216   8.974  -0.332   2.364  0.6810  0.1112 -0.3492
  484MOL0     C65217   9.076  -0.320   2.261  0.1976  0.6708 -0.7303
  484MOL0     C65218   9.027  -0.406   2.147 -0.9282  0.0322  0.0814
  484MOL0     C65219   9.108  -0.391   2.018 -0.1540  0.1242 -0.3864
  484MOL0     C65220   9.241  -0.462   2.043 -0.0347  0.0404  0.1323
  484MOL0     C65221   9.309  -0.458   1.898  0.2842  0.2435  0.4017
  484MOL0     N65222   9.445  -0.524   1.897 -0.4898  0.5817 -0.1064
  484MOL0     C65223   9.566  -0.455   1.887  0.2923 -0.1034 -0.4483
  484MOL0     C65224   9.651  -0.561   1.915 -1.1129 -0.3211 -0.0463
  484MOL0     C65225   9.804  -0.536   1.927  0.2716  0.8106  0.0439
  484MOL0     C65226   9.855  -0.497   1.790  0.4158 -0.1628 -0.0416
  484MOL0     C65227  10.007  -0.493   1.797  0.1532 -0.4164 -0.4080
  484MOL0     C65228  10.077  -0.444   1.669 -0.4202  0.5277 -0.0334
  484MOL0     O65229  10.074  -0.302   1.659  0.4849 -0.2252 -0.0475
  484MOL0     C65230  10.179  -0.251   1.594  0.4984 -0.4291  0.7109
  484MOL0     C65231  10.217  -0.120   1.627  0.1562  0.0986  0.1666
  484MOL0     C65232  10.330  -0.059   1.568 -0.6521  0.5375 -0.8373
  484MOL0     C65233  10.417  -0.130   1.482  0.4950 -0.0914  0.7813
  484MOL0     C65234  10.540  -0.076   1.425  0.3574 -0.0247  0.7000
  484MOL0     O65235  10.607  -0.139   1.326 -0.2422  0.3330 -0.4139
  484MOL0     C65236  10.729  -0.086   1.300  0.9692  0.1266  0.0888
  484MOL0     C65237  10.752  -0.029   1.170 -0.6961 -0.0788  0.5566
  484MOL0     C65238  10.883   0.006   1.134 -0.8744  0.0607 -0.1273
  484MOL0     C65239  10.983   0.008   1.239 -0.3379 -0.0957  1.2753
  484MOL0     O65240  11.114   0.049   1.197 -0.0411  0.5824 -0.3066
  484MOL0     C65241  11.178   0.139   1.287  0.3128 -0.7587 -0.5810
  484MOL0     C65242  11.273   0.235   1.212  0.1973 -0.4549  0.3397
  484MOL0     C65243  11.376   0.295   1.309 -0.5628  0.4489  0.3826
  484MOL0     C65244  11.456   0.417   1.255  0.3495  0.3233  0.3008
  484MOL0     C65245  11.528   0.494   1.372 -0.0185  0.9881 -0.1319
  484MOL0     C65246  11.613   0.616   1.341 -0.0792  0.8129  0.2443
  484MOL0     C65247  11.531   0.715   1.249 -0.1866  0.7148  0.8498
  484MOL0     C65248  11.611   0.838   1.222 -0.4570 -0.0541 -0.3645
  484MOL0    Cl65249  11.560   0.935   1.084  0.1794 -0.4092 -0.5202
  484MOL0     C65250  10.956  -0.045   1.361  0.5277 -0.1715  0.0771
  484MOL0     C65251  10.830  -0.099   1.392  0.0560 -0.6171  0.0788
  484MOL0     O65252  10.570   0.032   1.475 -0.3376  0.4218 -0.1875
  484MOL0     C65253  10.375  -0.262   1.442 -0.3654 -0.2240  0.3161
  484MOL0     C65254  10.264  -0.320   1.495  0.1862  0.1764 -0.6869
  484MOL0     N65255   9.577  -0.673   1.937  0.3380  0.8413 -0.0958
  484MOL0     N65256   9.456  -0.658   1.920 -0.6756 -0.0694 -0.6339
  484MOL0     C65257   8.900  -0.019   2.873  0.8404 -0.3846  0.5296
  484MOL0     C65258   8.811   0.042   2.970 -0.3775  0.2329 -0.0305
  484MOL0     C65259   8.512   0.169   3.245  0.1125  0.0949  0.1506
  484MOL0     C65260   8.586   0.137   3.354 -0.8414  0.4734  0.4149
  484MOL0     C65261   8.542   0.152   3.485 -0.2712  0.0009  0.5382
  484MOL0     C65262   8.422   0.215   3.515  0.0015 -0.2623 -0.5834
  484MOL0     O65263   8.378   0.242   3.648 -0.5927  0.0984  0.6857
  484MOL0     C65264   8.240   0.282   3.675 -1.0207  1.1073 -0.2560
  484MOL0     C65265   8.214   0.321   3.822  0.7064  0.4662  0.5678
  484MOL0     C65266   8.060   0.347   3.850  0.7582  0.3364  0.7472
  484MOL0     C65267   8.026   0.489   3.789 -0.2678  0.3406  0.4176
  484MOL0     C65268   7.903   0.542   3.845 -0.6087  0.6562  0.3861
  484MOL0     C65269   7.811   0.602   3.901  0.2735  0.8515  0.7561
  484MOL0     C65270   8.351   0.263   3.404 -0.4908  0.7445 -1.4429
  484MOL0     C65271   8.389   0.232   3.270 -0.5353  0.4293  0.1804
  484MOL0     C65272   8.289   0.273   3.159  0.7102 -0.3677 -0.5087
  484MOL0     H65273   8.569  -0.193   2.937  0.5194 -0.0006  0.7984
  484MOL0     H65274   8.702  -0.263   2.756  1.2960 -0.5059 -0.3967
  484MOL0     H65275   8.877  -0.349   2.616  1.1928 -1.1826 -2.1017
  484MOL0     H65276   8.827  -0.196   2.535  0.4287 -0.6264 -0.4160
  484MOL0     H65277   9.102  -0.305   2.549  0.4026  0.1306 -0.1270
  484MOL0     H65278   9.059  -0.161   2.455  0.5882  1.5076  1.4194
  484MOL0     H65279   8.876  -0.297   2.329  0.7402 -1.1575 -1.9069
  484MOL0     H65280   8.967  -0.437   2.394 -0.1958  0.3180  0.2183
  484MOL0     H65281   9.091  -0.216   2.231 -1.8529  0.5364 -2.5168
  484MOL0     H65282   9.166  -0.367   2.302 -1.7957 -1.7200  1.2545
  484MOL0     H65283   9.007  -0.510   2.177  1.3656  0.0374  1.9360
  484MOL0     H65284   8.927  -0.371   2.121 -1.2160  0.1486  1.2898
  484MOL0     H65285   9.060  -0.443   1.934 -1.4327  2.4900 -1.2176
  484MOL0     H65286   9.128  -0.288   1.988  1.2930  0.0552  0.2886
  484MOL0     H65287   9.236  -0.568   2.071  4.1769 -0.4842 -0.3744
  484MOL0     H65288   9.304  -0.407   2.113  0.2841  0.6915 -0.6550
  484MOL0     H65289   9.243  -0.514   1.831  1.0674  1.1903 -1.2259
  484MOL0     H65290   9.313  -0.357   1.857 -1.1293 -0.3912 -1.4564
  484MOL0     H65291   9.602  -0.354   1.871 -1.1664  0.9369  2.1580
  484MOL0     H65292   9.824  -0.455   1.998  0.7478  0.5099  0.2601
  484MOL0     H65293   9.852  -0.631   1.953 -2.1629 -0.2120  1.0762
  484MOL0     H65294   9.808  -0.565   1.718 -3.4574  0.9373  1.2112
  484MOL0     H65295   9.816  -0.396   1.771  0.2403  0.0237  1.2297
  484MOL0     H65296  10.034  -0.598   1.808  1.2321  0.0510  1.9552
  484MOL0     H65297  10.043  -0.433   1.881  0.1374 -1.4822  0.3726
  484MOL0     H65298  10.017  -0.487   1.587 -0.6657 -1.5665  1.1728
  484MOL0     H65299  10.177  -0.488   1.678 -0.7797  0.1156  2.6798
  484MOL0     H65300  10.157  -0.060   1.694 -1.5519  1.5961 -2.5239
  484MOL0     H65301  10.354   0.044   1.590  0.5445  0.1307 -0.1099
  484MOL0     H65302  10.664  -0.029   1.107 -0.7556 -1.0518  0.6187
  484MOL0     H65303  10.910   0.032   1.032 -2.5652  0.9611 -0.3758
  484MOL0     H65304  11.105   0.204   1.334  1.7985 -0.0452  0.8473
  484MOL0     H65305  11.223   0.077   1.365 -0.9957  1.2585  1.9176
  484MOL0     H65306  11.319   0.170   1.136 -1.2862  1.8142 -2.7262
  484MOL0     H65307  11.218   0.311   1.155 -0.9556  0.2971  2.3591
  484MOL0     H65308  11.315   0.342   1.388  1.7629  0.1259  2.5018
  484MOL0     H65309  11.448   0.224   1.350  0.4168  1.2496  0.0893
  484MOL0     H65310  11.389   0.492   1.212  0.5988 -0.1133 -0.8769
  484MOL0     H65311  11.530   0.389   1.179  2.8224  3.1683  1.4539
  484MOL0     H65312  11.598   0.426   1.421 -2.3553 -1.2199  0.3234
  484MOL0     H65313  11.458   0.516   1.453  1.1725  1.3203  0.8265
  484MOL0     H65314  11.635   0.653   1.442  0.7340 -0.2387  0.4760
  484MOL0     H65315  11.708   0.596   1.291  0.3177 -0.2470  1.3709
  484MOL0     H65316  11.434   0.752   1.281  0.0408  2.5257 -0.4298
  484MOL0     H65317  11.513   0.657   1.158 -0.3184 -2.2315  2.6098
  484MOL0     H65318  11.609   0.898   1.314  1.3056  0.3752 -0.5728
  484MOL0     H65319  11.715   0.818   1.196 -0.1427  2.9619 -1.8585
  484MOL0     H65320  11.029  -0.053   1.441  0.2603 -0.6033  0.2875
  484MOL0     H65321  10.816  -0.135   1.493  0.8837 -0.0046  0.4183
  484MOL0     H65322  10.436  -0.309   1.365  1.3854  0.4964  1.1980
  484MOL0     H65323  10.227  -0.414   1.456  0.9629  0.1526 -1.3858
  484MOL0     H65324   8.996   0.031   2.861  0.5211 -0.2800 -2.3282
  484MOL0     H65325   8.845   0.134   3.015  0.9953 -0.2558 -0.0417
  484MOL0     H65326   8.678   0.080   3.347 -0.6179  0.3374  3.1791
  484MOL0     H65327   8.614   0.122   3.561  1.0358 -0.6435 -0.9151
  484MOL0     H65328   8.174   0.204   3.637  1.6481 -0.3473 -2.2618
  484MOL0     H65329   8.218   0.373   3.619  0.4041 -0.0093 -2.8276
  484MOL0     H65330   8.262   0.414   3.854  1.3557 -0.1225  1.3407
  484MOL0     H65331   8.249   0.243   3.890  0.1061  1.2837  1.8584
  484MOL0     H65332   8.055   0.349   3.959  0.9799  0.3533  0.7571
  484MOL0     H65333   8.001   0.264   3.810 -2.4216  1.6788  2.2843
  484MOL0     H65334   8.105   0.561   3.814  0.1925 -0.7821  2.4885
  484MOL0     H65335   8.017   0.480   3.680 -0.0732  0.9300  0.3496
  484MOL0     H65336   7.740   0.652   3.964 -1.1598 -0.3236  0.1551
  484MOL0     H65337   8.259   0.320   3.417 -0.0299  1.5717 -1.7616
  484MOL0     H65338   8.241   0.362   3.201 -0.2356 -0.3319 -1.6095
  484MOL0     H65339   8.332   0.287   3.059  1.1903 -0.6155 -0.3391
  484MOL0     H65340   8.226   0.184   3.149  1.9128 -1.2853 -0.2040
  485MOL0     O65341   8.434   6.682   2.172 -0.7799  0.1784 -0.1861
  485MOL0     C65342   8.415   6.656   2.290 -0.3071  0.0769  0.8240
  485MOL0     O65343   8.506   6.607   2.380 -0.0537  0.5038  0.4453
  485MOL0     C65344   8.637   6.585   2.339  0.3845 -0.4862 -0.1657
  485MOL0     C65345   8.693   6.453   2.339 -0.4978 -0.7981  0.8083
  485MOL0     C65346   8.825   6.433   2.311 -0.5006  0.3124  0.2983
  485MOL0     C65347   8.913   6.541   2.292 -0.4631  0.6715  0.2024
  485MOL0     O65348   9.044   6.515   2.256  0.8086  0.3210  0.2773
  485MOL0     C65349   9.133   6.618   2.225 -0.6412  0.4581  0.0887
  485MOL0     C65350   9.247   6.554   2.152 -0.2851  0.3413  0.2673
  485MOL0     C65351   9.380   6.628   2.155  0.7906 -0.8162  0.3634
  485MOL0     C65352   9.490   6.576   2.051  1.0294  0.4238 -0.0033
  485MOL0     C65353   9.629   6.635   2.061  0.5007 -0.1644  0.0595
  485MOL0     C65354   9.714   6.564   1.959 -0.4308 -0.5541 -0.5232
  485MOL0     C65355   9.860   6.601   1.978  0.4001 -0.5528  1.0095
  485MOL0     C65356   9.948   6.531   1.871 -0.7045  0.6276 -0.0731
  485MOL0     N65357  10.082   6.573   1.878 -0.3218  0.1130 -0.2161
  485MOL0     C65358  10.133   6.701   1.874  0.4758  0.0126 -0.0268
  485MOL0     C65359  10.260   6.697   1.893  0.0364  1.1320  0.1027
  485MOL0     C65360  10.338   6.823   1.901  0.3677 -0.2288  0.2022
  485MOL0     C65361  10.487   6.789   1.887 -0.6396  0.0508 -0.2031
  485MOL0     C65362  10.581   6.909   1.894  0.3837  0.2415  0.3565
  485MOL0     C65363  10.718   6.876   1.836 -0.3513 -0.4264 -0.3891
  485MOL0     O65364  10.784   7.003   1.843 -0.3613 -0.1896  0.2123
  485MOL0     C65365  10.921   7.010   1.812 -0.0701  0.1867  0.4567
  485MOL0     C65366  10.997   6.909   1.752  0.1815  0.7610 -0.6507
  485MOL0     C65367  11.121   6.937   1.713 -0.4161  0.2270  0.9096
  485MOL0     C65368  11.193   7.044   1.765  0.2185  0.8257  0.1030
  485MOL0     C65369  11.327   7.072   1.717 -0.1200 -0.3525 -1.0237
  485MOL0     O65370  11.402   7.162   1.798 -0.5009 -0.3181  0.0363
  485MOL0     C65371  11.521   7.211   1.748  0.0220  0.3574 -0.6301
  485MOL0     C65372  11.555   7.339   1.788  0.5654  0.2454  0.2536
  485MOL0     C65373  11.679   7.390   1.753 -0.3270 -1.0659  0.2825
  485MOL0     C65374  11.778   7.312   1.686 -0.0611 -0.2775  0.4200
  485MOL0     O65375  11.903   7.362   1.690 -0.0571  0.6657  0.5666
  485MOL0     C65376  11.980   7.313   1.578  0.5583  0.2923  0.4203
  485MOL0     C65377  12.110   7.392   1.549  0.7166  0.2387 -0.4470
  485MOL0     C65378  12.098   7.540   1.505 -0.0351 -0.7434  0.0946
  485MOL0     C65379  12.227   7.608   1.478  0.5447 -0.4734 -0.3989
  485MOL0     C65380  12.213   7.727   1.378 -0.0967  0.0698 -1.1466
  485MOL0     C65381  12.351   7.785   1.348 -0.6950 -0.6159 -0.4488
  485MOL0     C65382  12.422   7.866   1.463 -1.1160 -0.7844  0.5198
  485MOL0     C65383  12.577   7.885   1.449 -0.3293  0.5131 -0.3657
  485MOL0    Cl65384  12.689   7.753   1.397  0.1469  0.6918 -0.7487
  485MOL0     C65385  11.751   7.176   1.664  0.5110 -0.1847 -0.2647
  485MOL0     C65386  11.624   7.128   1.689  0.0152 -0.2928  0.1014
  485MOL0     O65387  11.370   7.023   1.613 -0.4890 -0.3437  0.1111
  485MOL0     C65388  11.125   7.140   1.840  0.4673 -0.1074  0.5643
  485MOL0     C65389  10.988   7.130   1.857 -0.0588  0.6584 -0.0048
  485MOL0     N65390  10.303   6.561   1.900  0.2514 -0.3772  0.0256
  485MOL0     N65391  10.192   6.496   1.878 -0.4011  0.1213 -1.0824
  485MOL0     C65392   8.862   6.679   2.295  0.2579 -0.0673  0.4557
  485MOL0     C65393   8.723   6.696   2.318  0.4156  0.2183  0.4021
  485MOL0     C65394   8.274   6.676   2.339 -0.1637  1.0348 -0.3859
  485MOL0     C65395   8.268   6.669   2.480 -1.2564 -0.1025 -0.3341
  485MOL0     C65396   8.145   6.679   2.549 -0.1619  0.2221 -0.1259
  485MOL0     C65397   8.029   6.707   2.480 -0.0757  0.2685  0.5499
  485MOL0     O65398   7.905   6.731   2.542  0.3371  0.1227  0.2014
  485MOL0     C65399   7.903   6.707   2.685  0.1884  0.5414 -0.4728
  485MOL0     C65400   7.774   6.748   2.760  0.2288  0.0899  0.2601
  485MOL0     C65401   7.659   6.639   2.731 -0.8302 -0.2139 -0.1486
  485MOL0     C65402   7.551   6.649   2.839 -0.1104 -0.4977 -0.0003
  485MOL0     C65403   7.432   6.577   2.800  0.6246  0.8967  1.0678
  485MOL0     C65404   7.327   6.525   2.764  0.3586  0.8578 -0.1742
  485MOL0     C65405   8.038   6.711   2.338 -0.1762  0.6629 -0.4435
  485MOL0     C65406   8.160   6.696   2.266  0.1454  0.7966 -0.1375
  485MOL0     C65407   8.144   6.700   2.113  0.0950 -0.4066  1.1714
  485MOL0     H65408   8.632   6.363   2.344  1.8312 -3.1446 -4.5418
  485MOL0     H65409   8.862   6.331   2.324 -2.1578 -0.4111 -0.3219
  485MOL0     H65410   9.100   6.697   2.157  0.1621  0.3963 -0.3914
  485MOL0     H65411   9.168   6.655   2.322 -0.5044 -0.3816  0.3638
  485MOL0     H65412   9.206   6.532   2.053 -0.9559 -1.3878  0.8816
  485MOL0     H65413   9.262   6.454   2.193 -1.3713  0.5914  1.3330
  485MOL0     H65414   9.428   6.614   2.252  0.2741 -2.4922  0.4055
  485MOL0     H65415   9.358   6.733   2.131  1.2909 -0.8448 -0.2615
  485MOL0     H65416   9.490   6.467   2.048 -0.1670  0.4233 -1.0371
  485MOL0     H65417   9.436   6.597   1.958  0.3668 -2.0163 -0.2451
  485MOL0     H65418   9.636   6.742   2.037 -1.2724 -0.2876 -1.1675
  485MOL0     H65419   9.661   6.609   2.162 -0.0208  1.8762  0.8053
  485MOL0     H65420   9.698   6.456   1.967 -1.0591 -0.7202 -2.9402
  485MOL0     H65421   9.695   6.582   1.853  0.2887 -0.5291 -0.6551
  485MOL0     H65422   9.893   6.570   2.078  0.0845 -2.5111  0.5414
  485MOL0     H65423   9.872   6.709   1.969  0.4989 -0.3228  3.2716
  485MOL0     H65424   9.937   6.423   1.886 -0.3062  0.9324  3.2960
  485MOL0     H65425   9.917   6.554   1.769 -1.7754 -1.6121 -0.3055
  485MOL0     H65426  10.068   6.787   1.858  2.6489  1.3923 -2.0332
  485MOL0     H65427  10.315   6.887   1.815 -0.1690 -2.6846 -1.5768
  485MOL0     H65428  10.331   6.866   2.002  1.1905 -2.6177  1.3618
  485MOL0     H65429  10.508   6.717   1.967 -0.2475  0.1134 -0.2473
  485MOL0     H65430  10.505   6.744   1.789  1.5665 -1.6583  0.8835
  485MOL0     H65431  10.584   6.946   1.997 -0.6208 -0.3561  0.6184
  485MOL0     H65432  10.526   6.989   1.844 -1.1313 -2.2096 -2.1789
  485MOL0     H65433  10.713   6.838   1.734 -0.5617 -1.8582  0.1369
  485MOL0     H65434  10.763   6.796   1.896 -0.1235 -1.0793 -1.4158
  485MOL0     H65435  10.958   6.809   1.738 -0.6220  0.8841  0.5537
  485MOL0     H65436  11.168   6.852   1.667 -2.8739 -1.0085  0.5115
  485MOL0     H65437  11.480   7.383   1.853 -1.3444 -1.3849 -0.7125
  485MOL0     H65438  11.692   7.490   1.792 -0.8433  0.3418 -2.8830
  485MOL0     H65439  12.014   7.215   1.613  2.6263  0.7476 -0.1527
  485MOL0     H65440  11.916   7.325   1.491  0.7075  2.2498  0.5227
  485MOL0     H65441  12.167   7.384   1.642 -1.2143  0.5969  0.8518
  485MOL0     H65442  12.162   7.330   1.475  2.0058  0.5379  0.1800
  485MOL0     H65443  12.039   7.546   1.413 -3.1804 -0.0639  1.9997
  485MOL0     H65444  12.054   7.602   1.584  3.0292  2.3246 -0.4098
  485MOL0     H65445  12.303   7.535   1.449 -0.1054 -0.8647 -1.1607
  485MOL0     H65446  12.249   7.653   1.575 -0.2847 -0.4749 -0.2042
  485MOL0     H65447  12.151   7.800   1.430 -0.5588  0.6572 -2.4809
  485MOL0     H65448  12.171   7.696   1.281  0.4920  0.2282 -1.4540
  485MOL0     H65449  12.425   7.713   1.313 -1.0599 -0.8207 -0.8060
  485MOL0     H65450  12.341   7.857   1.267 -0.0709  0.0078  0.0136
  485MOL0     H65451  12.415   7.804   1.553 -0.4130 -0.2369  0.9676
  485MOL0     H65452  12.370   7.962   1.465  1.3931  0.7122 -0.5038
  485MOL0     H65453  12.581   7.964   1.373 -1.2291  1.1090  0.1787
  485MOL0     H65454  12.601   7.933   1.544 -2.4389  0.5259  0.2290
  485MOL0     H65455  11.826   7.108   1.623  1.7339  1.4048 -0.7889
  485MOL0     H65456  11.601   7.023   1.676  1.8869 -0.8770  1.0666
  485MOL0     H65457  11.174   7.228   1.882  2.0991 -0.6595 -0.0818
  485MOL0     H65458  10.928   7.215   1.889 -2.8343 -0.1670 -2.5855
  485MOL0     H65459   8.923   6.768   2.280  0.8218 -0.8139 -1.9905
  485MOL0     H65460   8.690   6.799   2.324 -4.0126 -1.0560  3.0286
  485MOL0     H65461   8.356   6.642   2.537 -1.3966 -0.4736 -0.2853
  485MOL0     H65462   8.152   6.670   2.657 -2.1627 -0.0717  0.0174
  485MOL0     H65463   7.983   6.751   2.744 -0.9066  0.2132  1.3570
  485MOL0     H65464   7.917   6.601   2.707  0.5694  0.5787 -0.5424
  485MOL0     H65465   7.752   6.851   2.731  0.9942  0.5194  1.1362
  485MOL0     H65466   7.794   6.747   2.868 -3.4010 -0.4992  1.0470
  485MOL0     H65467   7.709   6.542   2.722  1.0896  0.9279 -3.2128
  485MOL0     H65468   7.615   6.651   2.631  0.6582  0.1084 -0.7974
  485MOL0     H65469   7.598   6.609   2.929  1.7187 -2.5795 -1.7674
  485MOL0     H65470   7.526   6.753   2.859  2.6038 -0.2100  2.5294
  485MOL0     H65471   7.236   6.473   2.741  1.4634 -1.4927  0.5157
  485MOL0     H65472   7.940   6.716   2.292 -0.8078  2.3130  0.9531
  485MOL0     H65473   8.043   6.714   2.075  0.3887 -1.9209 -0.3313
  485MOL0     H65474   8.217   6.772   2.075 -1.4789  0.9227  0.5748
  485MOL0     H65475   8.169   6.599   2.078 -1.7503 -0.4667 -0.0817
  486MOL0     O65476   6.506   9.406   9.898  0.6192 -0.0477 -0.2621
  486MOL0     C65477   6.549   9.515   9.917  0.6308 -0.2081 -0.1162
  486MOL0     O65478   6.545   9.577  10.041 -0.0154 -0.4953 -0.5565
  486MOL0     C65479   6.529   9.503  10.155 -0.2775 -0.0960  0.1929
  486MOL0     C65480   6.414   9.423  10.166  0.7442 -0.1745 -0.3546
  486MOL0     C65481   6.388   9.349  10.288 -0.0422  0.8741 -0.3671
  486MOL0     C65482   6.486   9.355  10.391 -0.2948 -0.4530 -0.5570
  486MOL0     O65483   6.459   9.289  10.509 -0.4994 -0.2777  0.5267
  486MOL0     C65484   6.324   9.258  10.558  0.0826 -0.6458 -0.3237
  486MOL0     C65485   6.252   9.382  10.592  0.0694 -0.6185  0.1825
  486MOL0     C65486   6.168   9.352  10.716 -0.7924  0.0184 -0.6520
  486MOL0     C65487   6.093   9.476  10.767  0.2583 -0.7187 -0.3315
  486MOL0     C65488   6.026   9.471  10.903  0.5386  0.4158  0.0402
  486MOL0     C65489   6.120   9.497  11.020 -0.4437 -0.1160 -0.9764
  486MOL0     C65490   6.076   9.450  11.166 -1.1278  0.2337  0.0782
  486MOL0     C65491   6.169   9.508  11.270  0.2909  0.0308  0.5618
  486MOL0     N65492   6.305   9.466  11.264 -0.7215 -0.0578  0.5471
  486MOL0     C65493   6.357   9.360  11.323 -0.4278  0.5771  0.3659
  486MOL0     C65494   6.489   9.369  11.301 -0.3368  0.0457 -0.1351
  486MOL0     C65495   6.591   9.259  11.343  0.1032 -0.4529 -0.1970
  486MOL0     C65496   6.734   9.308  11.326  0.2509  0.0481 -0.2536
  486MOL0     C65497   6.824   9.191  11.374  0.5613  0.0651  0.3412
  486MOL0     C65498   6.966   9.217  11.375  0.1824 -0.4858  0.1142
  486MOL0     O65499   7.003   9.328  11.461  0.2714 -0.4012  0.2993
  486MOL0     C65500   7.131   9.370  11.472  0.4973 -0.0244 -0.3664
  486MOL0     C65501   7.234   9.328  11.395 -0.2969 -0.2839  0.0798
  486MOL0     C65502   7.365   9.383  11.408 -0.3914 -0.8244 -0.7260
  486MOL0     C65503   7.391   9.479  11.512 -0.8222  0.3095 -0.4392
  486MOL0     C65504   7.527   9.539  11.543 -0.5160  0.1325 -0.5744
  486MOL0     O65505   7.619   9.512  11.451 -0.3733  0.2400 -0.1074
  486MOL0     C65506   7.745   9.566  11.456 -0.5795  0.5459  0.4217
  486MOL0     C65507   7.853   9.481  11.421 -0.3779 -0.1073 -0.3912
  486MOL0     C65508   7.978   9.529  11.426  0.4582  0.3107  0.2289
  486MOL0     C65509   8.003   9.667  11.462 -0.1585  0.7079 -0.3798
  486MOL0     O65510   8.130   9.727  11.469  0.3668  0.2577  0.7428
  486MOL0     C65511   8.247   9.653  11.433  0.4243 -0.3474 -0.6058
  486MOL0     C65512   8.364   9.736  11.484  0.6740  0.5859  0.2677
  486MOL0     C65513   8.405   9.687  11.630  0.2633  0.3943 -0.4154
  486MOL0     C65514   8.523   9.772  11.682  0.7150  0.1611  0.2164
  486MOL0     C65515   8.572   9.725  11.825 -0.3445  0.1626  0.3706
  486MOL0     C65516   8.688   9.810  11.874 -0.6173 -0.4070  0.2204
  486MOL0     C65517   8.820   9.780  11.815  0.2642  0.1909  0.6026
  486MOL0     C65518   8.935   9.808  11.912  0.5719  0.5963 -0.2723
  486MOL0    Cl65519   8.937   9.979  11.967  0.2383  0.2930 -0.2701
  486MOL0     C65520   7.896   9.747  11.490  0.0100 -0.0383 -0.1624
  486MOL0     C65521   7.765   9.698  11.491 -0.0464  0.2441 -0.0764
  486MOL0     O65522   7.543   9.596  11.652 -0.3797  0.5162 -0.0852
  486MOL0     C65523   7.290   9.502  11.610 -0.4057 -0.3568 -0.2677
  486MOL0     C65524   7.159   9.453  11.587  0.5633 -0.7223  0.2721
  486MOL0     N65525   6.516   9.482  11.228 -0.3742  0.3194 -0.3229
  486MOL0     N65526   6.405   9.548  11.215  0.5915 -0.4091 -0.8220
  486MOL0     C65527   6.600   9.446  10.377  0.2115  0.6651  0.6239
  486MOL0     C65528   6.617   9.520  10.261  0.0065  0.4193  0.7066
  486MOL0     C65529   6.604   9.596   9.807  1.0143  0.2626  0.2843
  486MOL0     C65530   6.587   9.737   9.822 -0.1783  0.9107 -0.0279
  486MOL0     C65531   6.639   9.828   9.729 -0.1726  0.4722  0.5839
  486MOL0     C65532   6.693   9.778   9.608 -0.0755 -0.2127 -0.4496
  486MOL0     O65533   6.741   9.869   9.523 -0.4492  0.3051  0.4440
  486MOL0     C65534   6.833   9.833   9.420 -0.2921 -0.1932 -0.0075
  486MOL0     C65535   6.908   9.955   9.367  0.4472  0.4217 -0.6454
  486MOL0     C65536   7.034   9.917   9.285 -0.0243  0.2445 -0.3192
  486MOL0     C65537   7.152   9.845   9.354  1.0471 -0.1184 -0.4905
  486MOL0     C65538   7.233   9.925   9.444  0.7124 -0.3539  0.5197
  486MOL0     C65539   7.289   9.991   9.534  0.1229  0.1127  0.6101
  486MOL0     C65540   6.702   9.642   9.586  0.3961 -0.6016 -0.0550
  486MOL0     C65541   6.659   9.544   9.681 -0.1666 -0.2225 -0.6128
  486MOL0     C65542   6.654   9.398   9.636 -0.5047  0.2834 -0.0592
  486MOL0     H65543   6.359   9.395  10.076  1.8324 -3.4885 -0.1220
  486MOL0     H65544   6.302   9.283  10.293  1.6499 -1.5350 -1.2111
  486MOL0     H65545   6.263   9.199  10.488 -1.0196  0.4134 -0.2946
  486MOL0     H65546   6.331   9.185  10.639 -0.9911  0.4000  0.7526
  486MOL0     H65547   6.186   9.421  10.513  1.3338  0.4265 -0.3965
  486MOL0     H65548   6.325   9.459  10.619  0.3935 -1.3584  1.4596
  486MOL0     H65549   6.237   9.322  10.796  0.5393 -0.9842 -2.1202
  486MOL0     H65550   6.101   9.266  10.705 -0.5016 -0.4273  0.8262
  486MOL0     H65551   6.154   9.567  10.777 -2.3580  1.1257 -0.2242
  486MOL0     H65552   6.010   9.510  10.705 -1.2611 -1.5764  1.1718
  486MOL0     H65553   5.950   9.549  10.904  1.6214  1.5977 -2.4430
  486MOL0     H65554   5.983   9.376  10.936  0.1251  1.2079  1.9183
  486MOL0     H65555   6.222   9.463  10.998 -0.4175  1.0172 -2.7722
  486MOL0     H65556   6.131   9.606  11.026 -0.9489 -0.1223  0.3281
  486MOL0     H65557   6.070   9.341  11.162 -1.7606  0.0704  3.0938
  486MOL0     H65558   5.976   9.488  11.188 -0.7947  2.1174 -1.3661
  486MOL0     H65559   6.163   9.617  11.261  1.9015  0.0651 -0.4591
  486MOL0     H65560   6.123   9.488  11.367 -1.4431  0.0157 -0.2232
  486MOL0     H65561   6.302   9.289  11.384  0.7179 -0.1622  0.5728
  486MOL0     H65562   6.572   9.238  11.449 -1.4575 -2.0006 -0.7490
  486MOL0     H65563   6.577   9.169  11.283 -1.9241 -0.2221 -0.1410
  486MOL0     H65564   6.760   9.329  11.222 -0.3706 -2.0426 -0.8820
  486MOL0     H65565   6.746   9.396  11.390 -0.9640 -0.4161  0.6479
  486MOL0     H65566   6.812   9.099  11.316  1.5785  0.1167  0.0174
  486MOL0     H65567   6.792   9.172  11.477  1.4740  2.1983  1.0674
  486MOL0     H65568   6.999   9.245  11.274  0.8884 -0.2258  0.4069
  486MOL0     H65569   7.025   9.128  11.399  0.8914 -0.2929 -0.8312
  486MOL0     H65570   7.222   9.263  11.309 -0.3112 -1.5801  1.0382
  486MOL0     H65571   7.441   9.356  11.334 -3.5650 -4.7579 -2.9374
  486MOL0     H65572   7.841   9.380  11.383  3.2487 -0.5965 -0.6540
  486MOL0     H65573   8.054   9.454  11.409  0.0844 -0.2071  0.7701
  486MOL0     H65574   8.245   9.547  11.457 -1.0636 -0.9454 -3.0070
  486MOL0     H65575   8.249   9.639  11.324 -0.2642 -0.4884 -0.6036
  486MOL0     H65576   8.450   9.713  11.420  2.0114 -0.0552  2.2215
  486MOL0     H65577   8.340   9.843  11.485 -2.3820  0.0705 -2.2977
  486MOL0     H65578   8.319   9.699  11.696  0.9119 -2.0441  1.0377
  486MOL0     H65579   8.428   9.580  11.639  0.6016  0.1882 -3.0047
  486MOL0     H65580   8.497   9.877  11.696 -1.0777 -0.5305  2.7936
  486MOL0     H65581   8.598   9.752  11.605  1.2857 -0.6144  0.9450
  486MOL0     H65582   8.611   9.624  11.810  0.5094  0.0357  3.0353
  486MOL0     H65583   8.495   9.729  11.902  0.8612 -1.0732  1.7068
  486MOL0     H65584   8.663   9.914  11.850 -0.4486 -0.9258 -2.5131
  486MOL0     H65585   8.685   9.796  11.983  3.0091  0.1554  0.5022
  486MOL0     H65586   8.836   9.840  11.725 -1.4667  0.7172  0.6150
  486MOL0     H65587   8.828   9.677  11.779  1.6555  1.4421 -3.1723
  486MOL0     H65588   8.946   9.759  12.009  4.0218 -0.6782 -1.1381
  486MOL0     H65589   9.024   9.777  11.856 -1.1811 -0.5809 -2.6171
  486MOL0     H65590   7.916   9.851  11.514 -1.6894  1.1050 -3.1187
  486MOL0     H65591   7.685   9.764  11.523 -0.6641 -0.8776  0.7831
  486MOL0     H65592   7.303   9.550  11.706 -1.0488 -1.0928  0.2000
  486MOL0     H65593   7.076   9.466  11.656  0.8784  2.2175  0.2294
  486MOL0     H65594   6.674   9.462  10.456  1.2531  0.2590 -0.2426
  486MOL0     H65595   6.696   9.594  10.250  0.3201  0.1981  1.4142
  486MOL0     H65596   6.527   9.784   9.900 -2.8084  0.8199 -1.8914
  486MOL0     H65597   6.632   9.935   9.751 -0.3164  0.4774  0.5119
  486MOL0     H65598   6.771   9.797   9.338 -3.0933 -0.9905  2.3079
  486MOL0     H65599   6.906   9.760   9.456  0.4364  1.1689  1.3691
  486MOL0     H65600   6.935  10.007   9.459 -1.9589 -0.3817  0.6002
  486MOL0     H65601   6.841  10.025   9.316  1.7667  1.8471 -0.4971
  486MOL0     H65602   7.075  10.010   9.246 -0.0435  0.2572 -0.3075
  486MOL0     H65603   6.997   9.857   9.201 -3.1179  0.2463  0.8931
  486MOL0     H65604   7.107   9.758   9.403 -1.4501  1.4555  0.1557
  486MOL0     H65605   7.234   9.813   9.288  3.4010 -0.2516  2.2753
  486MOL0     H65606   7.337  10.056   9.605  1.0983  3.6960 -2.9311
  486MOL0     H65607   6.746   9.611   9.492  0.1796 -1.8235  0.2246
  486MOL0     H65608   6.689   9.326   9.711 -1.3306  0.6844  0.7266
  486MOL0     H65609   6.554   9.362   9.609 -0.9154  0.1014  1.6132
  486MOL0     H65610   6.715   9.386   9.546 -1.6988 -0.4165 -0.8096
  487MOL0     O65611   6.441   1.470  10.551  0.2690  0.0871  0.3996
  487MOL0     C65612   6.544   1.410  10.523  0.0878  0.4375 -0.5593
  487MOL0     O65613   6.541   1.285  10.469 -0.4989  0.3949  0.1946
  487MOL0     C65614   6.424   1.223  10.438 -0.5912 -0.1440  0.1744
  487MOL0     C65615   6.422   1.167  10.310  0.0892 -0.3807 -0.9660
  487MOL0     C65616   6.295   1.110  10.268 -0.2277 -1.0734  0.4063
  487MOL0     C65617   6.175   1.118  10.339  0.0589  0.6319  0.2402
  487MOL0     O65618   6.068   1.067  10.272  0.0192 -0.3920  0.4419
  487MOL0     C65619   5.938   1.090  10.324 -0.3370 -1.0080 -0.6415
  487MOL0     C65620   5.832   1.023  10.247  0.5193  0.4279 -0.5116
  487MOL0     C65621   5.690   1.061  10.301  0.1170  0.0684  0.1822
  487MOL0     C65622   5.577   0.980  10.227 -1.0186  0.4661  0.2333
  487MOL0     C65623   5.435   1.026  10.270 -0.0624  0.6503 -0.1721
  487MOL0     C65624   5.329   0.984  10.176  0.4096 -0.1898  0.7121
  487MOL0     C65625   5.197   1.047  10.219 -0.3499 -0.7602 -0.3344
  487MOL0     C65626   5.083   0.950  10.173 -0.5764 -1.1261 -0.5199
  487MOL0     N65627   5.071   0.926  10.033  0.2998  0.2766  0.1274
  487MOL0     C65628   5.099   0.805   9.965 -0.2578 -0.0442  0.0143
  487MOL0     C65629   5.071   0.839   9.842  0.5721 -1.2469  0.1188
  487MOL0     C65630   5.084   0.748   9.720 -1.2922 -0.1247 -0.6588
  487MOL0     C65631   5.228   0.689   9.715  0.3087 -0.5878  0.3875
  487MOL0     C65632   5.346   0.788   9.711 -0.2243  0.1567  0.5057
  487MOL0     C65633   5.358   0.875   9.582 -0.6064  0.1413 -0.0262
  487MOL0     O65634   5.466   0.967   9.605 -0.6199 -0.4057  0.5051
  487MOL0     C65635   5.568   0.959   9.522  0.2547 -0.3579  0.2686
  487MOL0     C65636   5.597   1.073   9.447 -0.9004 -0.6617 -0.1257
  487MOL0     C65637   5.722   1.082   9.379  0.1398 -0.6435 -0.5032
  487MOL0     C65638   5.810   0.977   9.369 -0.2111  0.2929  0.0654
  487MOL0     C65639   5.937   0.993   9.290 -0.3492 -0.2827  0.9099
  487MOL0     O65640   5.972   1.118   9.249  0.3727 -0.5972 -0.3187
  487MOL0     C65641   6.095   1.165   9.199 -0.0274 -0.0178 -1.0269
  487MOL0     C65642   6.103   1.295   9.166 -0.4740  0.8668  0.4442
  487MOL0     C65643   6.225   1.359   9.121 -0.0346  0.2240  0.5020
  487MOL0     C65644   6.344   1.289   9.110  0.0110  0.6543 -0.0994
  487MOL0     O65645   6.464   1.347   9.067 -0.2831 -0.2253  0.0514
  487MOL0     C65646   6.466   1.475   8.993 -0.6710 -0.4305  0.2789
  487MOL0     C65647   6.489   1.598   9.090 -0.1216  0.7835 -0.6038
  487MOL0     C65648   6.620   1.589   9.156 -0.4132 -0.0236  0.2236
  487MOL0     C65649   6.636   1.691   9.269  0.5833 -0.1447 -0.5455
  487MOL0     C65650   6.677   1.825   9.216  0.4043 -0.2801 -0.2043
  487MOL0     C65651   6.676   1.930   9.328  0.0312 -0.4393 -0.1809
  487MOL0     C65652   6.702   2.078   9.277  0.3465  0.5445 -0.1896
  487MOL0     C65653   6.845   2.106   9.227  0.0461 -0.0278  0.7618
  487MOL0    Cl65654   6.958   2.054   9.345  0.2672  0.1562  0.1003
  487MOL0     C65655   6.333   1.156   9.152  0.4609 -0.2422  0.1812
  487MOL0     C65656   6.219   1.094   9.192  0.5168  0.1010  0.0805
  487MOL0     O65657   6.007   0.895   9.274  0.4438 -0.0765 -0.1197
  487MOL0     C65658   5.770   0.856   9.434 -0.1167 -0.9332 -0.3082
  487MOL0     C65659   5.651   0.846   9.515 -0.1849  0.3012 -0.5789
  487MOL0     N65660   5.043   0.975   9.836 -0.3901  0.7839  0.3445
  487MOL0     N65661   5.052   1.033   9.947  0.0489  0.0724 -0.7345
  487MOL0     C65662   6.188   1.166  10.469 -0.8802  0.8872  1.3253
  487MOL0     C65663   6.309   1.209  10.520 -0.6930 -0.4619  0.3459
  487MOL0     C65664   6.673   1.470  10.550 -0.7682 -0.2111 -0.4714
  487MOL0     C65665   6.786   1.390  10.540 -0.2726  0.7956 -0.0435
  487MOL0     C65666   6.919   1.449  10.559 -0.5923 -0.2247 -0.0441
  487MOL0     C65667   6.934   1.582  10.598 -0.2060  0.1723  0.5160
  487MOL0     O65668   7.060   1.632  10.611  0.5138  1.0688 -0.4279
  487MOL0     C65669   7.079   1.767  10.630  0.2106 -0.0216  0.3664
  487MOL0     C65670   7.068   1.848  10.498  0.0211  0.0265 -0.2499
  487MOL0     C65671   7.196   1.822  10.414  0.3252 -0.0050 -0.2033
  487MOL0     C65672   7.274   1.947  10.366  0.0718 -0.1452  0.0640
  487MOL0     C65673   7.385   1.995  10.454  0.2266 -0.0208 -0.2895
  487MOL0     C65674   7.455   2.042  10.530 -0.0003  0.9024 -0.8516
  487MOL0     C65675   6.819   1.656  10.622 -0.0264 -0.4715 -0.1788
  487MOL0     C65676   6.687   1.602  10.604 -0.3522 -1.0026  0.8990
  487MOL0     C65677   6.562   1.697  10.619  0.3377  0.4872 -0.6654
  487MOL0     H65678   6.511   1.162  10.248  0.2834  0.5208 -0.7748
  487MOL0     H65679   6.295   1.080  10.164 -2.3608  3.1482 -1.0695
  487MOL0     H65680   5.934   1.067  10.431 -2.9338  1.2289 -0.1343
  487MOL0     H65681   5.913   1.197  10.316 -0.0836 -0.8156  0.8653
  487MOL0     H65682   5.837   0.917  10.274 -0.6493  0.9419  2.0547
  487MOL0     H65683   5.848   1.051  10.143 -1.0995 -1.1165 -1.2182
  487MOL0     H65684   5.670   1.168  10.292  2.2587  0.3359 -4.0533
  487MOL0     H65685   5.679   1.032  10.406 -0.1978 -2.4463 -0.4660
  487MOL0     H65686   5.581   0.989  10.118 -0.5445 -1.7584  0.0236
  487MOL0     H65687   5.601   0.877  10.253  1.1867  1.1619  1.1134
  487MOL0     H65688   5.415   0.987  10.370 -2.6679  1.6179 -0.2481
  487MOL0     H65689   5.438   1.136  10.265  0.9936  0.6741  0.5637
  487MOL0     H65690   5.367   1.009  10.077  1.1787 -1.1779  0.7444
  487MOL0     H65691   5.319   0.875  10.183  1.2713 -0.1814  2.8234
  487MOL0     H65692   5.186   1.151  10.188  0.3737 -0.0974  1.4863
  487MOL0     H65693   5.196   1.050  10.329  0.0180  0.5733 -0.3463
  487MOL0     H65694   5.075   0.858  10.231  0.7681 -1.7709 -1.2962
  487MOL0     H65695   4.995   1.011  10.195 -0.8768 -1.1037 -1.7051
  487MOL0     H65696   5.121   0.704   9.998  0.4551 -0.5108 -1.7944
  487MOL0     H65697   5.012   0.665   9.720  2.2194 -3.5607  1.8617
  487MOL0     H65698   5.067   0.805   9.629  1.5552 -1.3427 -2.0680
  487MOL0     H65699   5.239   0.624   9.802  0.4575 -1.4952 -0.2964
  487MOL0     H65700   5.237   0.626   9.625 -0.3197 -1.2409  0.7755
  487MOL0     H65701   5.437   0.728   9.714  0.1766  0.6689 -0.7497
  487MOL0     H65702   5.352   0.850   9.801  0.0221 -0.8514  1.1971
  487MOL0     H65703   5.266   0.933   9.567 -1.3083 -1.6800 -3.8134
  487MOL0     H65704   5.376   0.810   9.496 -1.3998  0.2219 -0.2574
  487MOL0     H65705   5.525   1.154   9.452 -0.5255 -0.3977  1.8895
  487MOL0     H65706   5.746   1.181   9.343 -1.9359  0.8329  1.8652
  487MOL0     H65707   6.015   1.355   9.189  0.3104  1.3593  2.3856
  487MOL0     H65708   6.236   1.466   9.104  0.7471  0.2024  0.8482
  487MOL0     H65709   6.562   1.473   8.940 -1.8832 -1.7430 -2.0200
  487MOL0     H65710   6.385   1.482   8.920 -0.5807 -0.4978  0.1715
  487MOL0     H65711   6.478   1.688   9.029 -1.9721  0.0169 -1.4759
  487MOL0     H65712   6.403   1.609   9.156 -0.0065  1.0777 -0.5008
  487MOL0     H65713   6.630   1.490   9.201  1.1015 -0.4460 -0.9688
  487MOL0     H65714   6.701   1.595   9.083 -1.7682  0.4551 -1.3053
  487MOL0     H65715   6.716   1.668   9.340  1.9758 -0.1586 -2.0561
  487MOL0     H65716   6.544   1.693   9.328  1.0660  0.9371  0.1966
  487MOL0     H65717   6.605   1.853   9.139  1.5317 -3.0231 -2.4407
  487MOL0     H65718   6.770   1.809   9.161 -0.8417 -0.2868 -2.4026
  487MOL0     H65719   6.574   1.925   9.366  0.0790 -2.5891 -0.1948
  487MOL0     H65720   6.737   1.900   9.414  0.3900  1.1958  0.1722
  487MOL0     H65721   6.688   2.137   9.368  0.5458  0.3040 -0.0019
  487MOL0     H65722   6.637   2.108   9.193 -0.6375  1.2106  0.7829
  487MOL0     H65723   6.868   2.048   9.137  0.5573  0.3917  0.6136
  487MOL0     H65724   6.862   2.212   9.205  1.7857 -0.3905  0.1923
  487MOL0     H65725   6.424   1.097   9.146  1.5243  1.4172 -0.8853
  487MOL0     H65726   6.217   0.991   9.225 -0.7257 -0.3011 -1.1518
  487MOL0     H65727   5.843   0.776   9.429 -0.9750 -2.1354  3.3828
  487MOL0     H65728   5.615   0.756   9.563  0.5744  0.7282  0.8350
  487MOL0     H65729   6.098   1.167  10.531 -2.1548 -0.4541 -0.3884
  487MOL0     H65730   6.308   1.240  10.624  0.8913  1.5405 -0.1876
  487MOL0     H65731   6.791   1.290  10.498 -0.1795  0.4961  0.6746
  487MOL0     H65732   7.010   1.400  10.527 -0.2890  0.5830 -0.4368
  487MOL0     H65733   7.182   1.762  10.666  0.7271 -1.5200 -1.1914
  487MOL0     H65734   7.017   1.803  10.713 -0.8387 -1.8848  0.4475
  487MOL0     H65735   7.055   1.953  10.523 -0.6312  0.1437 -1.0354
  487MOL0     H65736   6.980   1.822  10.438  0.0127 -0.5039 -0.0131
  487MOL0     H65737   7.175   1.761  10.326  1.4016 -1.4093  0.4612
  487MOL0     H65738   7.263   1.754  10.467  2.6865  0.9557 -1.7751
  487MOL0     H65739   7.322   1.937  10.268 -0.1866  0.7323 -0.1619
  487MOL0     H65740   7.214   2.038  10.354 -1.3800 -1.3021 -2.1347
  487MOL0     H65741   7.526   2.080  10.599  1.1234 -3.0755  0.4667
  487MOL0     H65742   6.818   1.758  10.658 -0.5981 -0.3158 -0.6212
  487MOL0     H65743   6.490   1.691  10.537 -0.0803 -0.6881 -0.2346
  487MOL0     H65744   6.515   1.682  10.716  1.8417 -3.0972 -0.3211
  487MOL0     H65745   6.599   1.799  10.620  4.4869 -0.8425 -0.4571
  488MOL0     O65746   7.806   5.750   9.020  0.6247  0.0839  0.1082
  488MOL0     C65747   7.778   5.865   8.988 -0.2228 -0.1773  0.2222
  488MOL0     O65748   7.869   5.958   8.939  0.4128 -0.4522 -0.1549
  488MOL0     C65749   7.999   5.923   8.921 -0.3435  0.3660  0.2486
  488MOL0     C65750   8.040   5.813   8.846 -0.7781 -0.0503  0.0640
  488MOL0     C65751   8.175   5.792   8.825  0.1820  0.5522  0.5471
  488MOL0     C65752   8.276   5.875   8.871 -0.2136 -0.6731 -0.0800
  488MOL0     O65753   8.411   5.846   8.855 -0.1893  0.6077 -0.4932
  488MOL0     C65754   8.460   5.787   8.973 -0.2915 -0.2599 -0.2059
  488MOL0     C65755   8.578   5.693   8.938 -0.4006 -1.1532 -0.6094
  488MOL0     C65756   8.705   5.759   8.900 -0.7432  0.2687 -0.0141
  488MOL0     C65757   8.823   5.654   8.908  0.0953  0.9423  0.3016
  488MOL0     C65758   8.963   5.711   8.875  1.1889  0.4899  1.0280
  488MOL0     C65759   9.075   5.607   8.863  0.0524  0.2929  0.3169
  488MOL0     C65760   9.214   5.684   8.865 -0.0597  0.3033 -0.4985
  488MOL0     C65761   9.324   5.609   8.948  0.1383  0.2888  0.9796
  488MOL0     N65762   9.381   5.500   8.866 -0.2238  0.4981 -0.1305
  488MOL0     C65763   9.494   5.494   8.783  0.3503  0.8041  0.2932
  488MOL0     C65764   9.483   5.369   8.721 -0.2293  0.0262  0.3290
  488MOL0     C65765   9.589   5.328   8.616 -0.2515 -0.2402 -0.2683
  488MOL0     C65766   9.642   5.181   8.636 -0.2682 -0.4653  0.2388
  488MOL0     C65767   9.770   5.144   8.555  0.3762  0.0416 -0.6227
  488MOL0     C65768   9.899   5.191   8.606  0.1224  0.1511  0.4959
  488MOL0     O65769   9.941   5.113   8.719  0.1276  0.4195  0.4268
  488MOL0     C65770  10.050   5.157   8.792  0.5520  0.3941  0.3987
  488MOL0     C65771  10.139   5.263   8.756 -0.4621  0.3533  0.2891
  488MOL0     C65772  10.239   5.298   8.845  0.2298 -0.5054 -0.3581
  488MOL0     C65773  10.264   5.237   8.973  1.4625  0.4235 -0.4147
  488MOL0     C65774  10.369   5.287   9.060 -0.0303 -0.1314 -0.6232
  488MOL0     O65775  10.437   5.389   9.009  0.0431 -0.1468  0.6644
  488MOL0     C65776  10.520   5.464   9.085 -0.8046  0.9155 -0.1910
  488MOL0     C65777  10.623   5.400   9.158 -0.7292  0.2107  0.3625
  488MOL0     C65778  10.732   5.468   9.214  0.2312 -0.2784 -0.8959
  488MOL0     C65779  10.736   5.605   9.203  0.1176  0.0607  0.0984
  488MOL0     O65780  10.859   5.654   9.244  0.8762  0.4031 -0.0397
  488MOL0     C65781  10.876   5.798   9.233  0.6256  0.8984  0.2599
  488MOL0     C65782  11.024   5.832   9.273  0.6110  0.3677  0.0335
  488MOL0     C65783  11.116   5.754   9.174 -0.4248 -0.2108  0.2652
  488MOL0     C65784  11.188   5.638   9.250 -0.5359  0.4483  0.3093
  488MOL0     C65785  11.251   5.538   9.156 -0.6591  0.3904  0.3396
  488MOL0     C65786  11.348   5.588   9.063 -0.5166 -0.2056  0.0873
  488MOL0     C65787  11.466   5.658   9.138  0.1464  0.2680  0.0393
  488MOL0     C65788  11.605   5.616   9.084  0.5712 -0.5017 -0.0748
  488MOL0    Cl65789  11.625   5.690   8.918  0.0326  0.6214  0.0978
  488MOL0     C65790  10.639   5.674   9.126  0.2284  0.2200 -0.3108
  488MOL0     C65791  10.534   5.602   9.072  0.0520  0.0906  0.3686
  488MOL0     O65792  10.395   5.230   9.169  0.7359  0.0472  0.3972
  488MOL0     C65793  10.171   5.130   9.003 -0.0442 -0.7719  0.8905
  488MOL0     C65794  10.074   5.093   8.909  0.6893  0.0111  0.1709
  488MOL0     N65795   9.364   5.304   8.761 -0.6262 -0.6873  0.0745
  488MOL0     N65796   9.313   5.378   8.852  0.4323 -0.6892  0.1459
  488MOL0     C65797   8.234   5.984   8.946 -0.1009 -0.0092 -0.8251
  488MOL0     C65798   8.096   6.006   8.970  0.4778 -0.0865 -0.1568
  488MOL0     C65799   7.635   5.923   8.991 -0.3335 -0.4263  0.5641
  488MOL0     C65800   7.607   6.054   8.938  0.2634  0.2811  0.1440
  488MOL0     C65801   7.482   6.101   8.931 -0.0184 -0.9101  0.0435
  488MOL0     C65802   7.371   6.019   8.959  0.1730 -0.8410  1.5472
  488MOL0     O65803   7.242   6.058   8.956 -0.2298  0.1424 -0.1738
  488MOL0     C65804   7.207   6.185   8.894  0.5750  0.6589  0.2923
  488MOL0     C65805   7.076   6.235   8.935  0.1721  0.4523  0.0399
  488MOL0     C65806   6.970   6.134   8.882  0.6811 -0.4683 -0.4146
  488MOL0     C65807   6.821   6.162   8.929  0.1697 -0.8193 -0.7998
  488MOL0     C65808   6.762   6.287   8.892 -0.1245 -0.6228  1.1387
  488MOL0     C65809   6.723   6.401   8.870 -0.1477 -0.3887  0.0235
  488MOL0     C65810   7.398   5.899   9.019 -0.2391  0.6955 -0.4495
  488MOL0     C65811   7.526   5.851   9.036 -0.2631  0.1378  0.4677
  488MOL0     C65812   7.536   5.709   9.093 -0.8768 -0.4517  0.5493
  488MOL0     H65813   7.970   5.738   8.811 -0.4241 -0.1580 -0.4146
  488MOL0     H65814   8.202   5.710   8.760  0.8855  0.0863  1.4191
  488MOL0     H65815   8.490   5.867   9.041  2.0819  0.6320 -2.1599
  488MOL0     H65816   8.383   5.727   9.024  0.5164 -0.2174  1.1231
  488MOL0     H65817   8.548   5.631   8.853 -0.4771 -0.4459 -1.1088
  488MOL0     H65818   8.586   5.632   9.028 -2.8459  1.0279  1.2471
  488MOL0     H65819   8.725   5.839   8.972 -0.3548 -0.3280  0.5423
  488MOL0     H65820   8.687   5.814   8.807 -0.1818 -1.3669 -1.1227
  488MOL0     H65821   8.823   5.620   9.012 -0.6657  1.9440  0.6389
  488MOL0     H65822   8.804   5.574   8.836  1.2234  0.3080  0.6954
  488MOL0     H65823   8.945   5.760   8.779 -0.1044 -2.5077 -0.3738
  488MOL0     H65824   8.982   5.789   8.950 -1.4032  1.4670  0.8105
  488MOL0     H65825   9.076   5.540   8.950  1.9334 -0.9533 -0.5844
  488MOL0     H65826   9.081   5.542   8.776  3.0531 -0.6481  1.0980
  488MOL0     H65827   9.205   5.782   8.912  3.8879  0.8842 -0.6402
  488MOL0     H65828   9.237   5.703   8.760  1.4096  0.4630 -0.1611
  488MOL0     H65829   9.412   5.670   8.968  1.8329 -2.2001  1.5949
  488MOL0     H65830   9.276   5.565   9.036 -1.7409 -0.4553 -0.3472
  488MOL0     H65831   9.564   5.577   8.787  1.0946  0.1622  1.2222
  488MOL0     H65832   9.547   5.347   8.517  1.6062 -1.0756 -1.2556
  488MOL0     H65833   9.680   5.388   8.623  0.2905 -1.0645 -0.1894
  488MOL0     H65834   9.675   5.158   8.738 -0.0411 -0.3283  0.1972
  488MOL0     H65835   9.563   5.112   8.607  0.0991 -0.1116 -1.7352
  488MOL0     H65836   9.760   5.181   8.453  3.4243  0.5489 -0.8555
  488MOL0     H65837   9.776   5.035   8.552 -2.5952 -0.4248  2.8240
  488MOL0     H65838   9.882   5.296   8.631 -0.6094  0.6954 -1.9608
  488MOL0     H65839   9.977   5.186   8.530  1.6126 -1.8882  2.0575
  488MOL0     H65840  10.127   5.304   8.656  0.8491  1.9935  0.7555
  488MOL0     H65841  10.316   5.367   8.810  0.7532 -1.2652 -0.7135
  488MOL0     H65842  10.630   5.292   9.164 -1.0822  0.1493 -0.2802
  488MOL0     H65843  10.807   5.398   9.252 -2.4495 -2.0570  1.5351
  488MOL0     H65844  10.853   5.841   9.134 -0.2010  0.6966  0.3549
  488MOL0     H65845  10.809   5.837   9.310  2.2017 -2.8250  3.8937
  488MOL0     H65846  11.041   5.939   9.259 -0.2279  0.3724 -1.0756
  488MOL0     H65847  11.043   5.801   9.376  1.7713 -0.9332 -0.5432
  488MOL0     H65848  11.056   5.712   9.093 -0.5453 -0.1991  0.3491
  488MOL0     H65849  11.185   5.827   9.130 -0.1356 -1.5664 -1.5997
  488MOL0     H65850  11.122   5.581   9.317  0.8575 -0.1712  1.1933
  488MOL0     H65851  11.278   5.663   9.307 -0.1404  0.6756 -0.4182
  488MOL0     H65852  11.163   5.499   9.104 -0.9503  0.8180  0.5100
  488MOL0     H65853  11.288   5.446   9.202 -0.7705  0.5401  0.7266
  488MOL0     H65854  11.380   5.503   9.002 -0.7541  0.4018 -0.9092
  488MOL0     H65855  11.300   5.661   8.997  0.2649 -2.1855 -2.8701
  488MOL0     H65856  11.466   5.626   9.242 -1.0503 -1.7452 -0.5232
  488MOL0     H65857  11.463   5.767   9.131 -1.7258  0.4209  2.2308
  488MOL0     H65858  11.677   5.662   9.153 -0.2278 -2.2051  1.9930
  488MOL0     H65859  11.612   5.507   9.098  1.7394 -0.2802  1.3406
  488MOL0     H65860  10.651   5.777   9.095  2.3176  0.7770  2.0142
  488MOL0     H65861  10.459   5.650   9.010 -0.0946 -1.8769 -1.0566
  488MOL0     H65862  10.189   5.072   9.093 -0.4057 -0.6495  1.0424
  488MOL0     H65863  10.014   5.006   8.936 -1.3160  0.7288 -1.6358
  488MOL0     H65864   8.302   6.061   8.982  0.7780  0.2202 -2.8938
  488MOL0     H65865   8.064   6.092   9.027  0.7275 -0.6353  0.8236
  488MOL0     H65866   7.687   6.124   8.917  1.5649 -0.8751  1.0395
  488MOL0     H65867   7.472   6.206   8.907 -3.1098 -0.3799  2.7817
  488MOL0     H65868   7.204   6.173   8.785 -0.9716 -5.1411  0.6649
  488MOL0     H65869   7.277   6.262   8.927  1.7638  0.4803 -1.6074
  488MOL0     H65870   7.057   6.330   8.884 -1.5886 -0.5594 -1.3124
  488MOL0     H65871   7.064   6.245   9.044  0.2148  0.2587  0.0630
  488MOL0     H65872   6.995   6.029   8.899 -0.5754 -0.7949 -0.4797
  488MOL0     H65873   6.977   6.130   8.773 -2.7833  1.6354 -0.8845
  488MOL0     H65874   6.758   6.081   8.892  1.5848 -3.2819  1.7730
  488MOL0     H65875   6.824   6.151   9.038  1.0650 -0.5048 -0.7888
  488MOL0     H65876   6.673   6.494   8.854  0.2101 -0.0683  0.7304
  488MOL0     H65877   7.323   5.831   9.059  1.4369  0.0473  1.8201
  488MOL0     H65878   7.441   5.680   9.139 -0.8063 -1.2709  0.1865
  488MOL0     H65879   7.546   5.640   9.009 -0.6824 -0.2119  0.3728
  488MOL0     H65880   7.619   5.701   9.164 -1.2588  0.2145  1.0829
  489MOL0     O65881  10.515   4.411   4.489 -0.2371  0.6592 -0.3426
  489MOL0     C65882  10.443   4.426   4.590 -0.4472  0.2458  0.6871
  489MOL0     O65883  10.471   4.388   4.713 -0.1989  0.5709 -0.0986
  489MOL0     C65884  10.595   4.334   4.731  0.2540 -0.6707 -0.0138
  489MOL0     C65885  10.611   4.198   4.756  0.0700  1.0910  0.3625
  489MOL0     C65886  10.733   4.140   4.772 -0.2195  0.1929 -0.2849
  489MOL0     C65887  10.843   4.222   4.783 -0.1940 -0.0041 -0.2331
  489MOL0     O65888  10.964   4.155   4.817  1.3707 -0.2869  0.2288
  489MOL0     C65889  11.084   4.214   4.778 -0.9548 -0.2913 -0.6163
  489MOL0     C65890  11.197   4.108   4.766 -0.2839  0.8726 -0.3936
  489MOL0     C65891  11.334   4.180   4.759  0.1808 -0.3104  0.3079
  489MOL0     C65892  11.443   4.084   4.776 -0.1381 -0.8170 -0.6668
  489MOL0     C65893  11.567   4.157   4.738 -1.3631  0.1449 -0.0667
  489MOL0     C65894  11.698   4.074   4.741 -0.2208  0.2238  0.1520
  489MOL0     C65895  11.795   4.144   4.646  0.1213 -0.2616 -0.2813
  489MOL0     C65896  11.929   4.077   4.639  0.2131  0.4229 -0.0709
  489MOL0     N65897  12.009   4.090   4.760 -0.0052  0.0540  0.1857
  489MOL0     C65898  12.071   4.204   4.812  0.1429  0.1464  0.0501
  489MOL0     C65899  12.170   4.152   4.888  0.2960  0.2287 -0.5710
  489MOL0     C65900  12.263   4.234   4.975 -0.5305 -0.2452  0.1658
  489MOL0     C65901  12.397   4.246   4.912 -1.0993  0.0080  0.0213
  489MOL0     C65902  12.507   4.330   4.993  0.7768  1.0797  0.3976
  489MOL0     C65903  12.637   4.346   4.923  0.4667  0.0044  1.2919
  489MOL0     O65904  12.695   4.218   4.900  0.6780 -0.6808 -0.2373
  489MOL0     C65905  12.823   4.203   4.854 -0.6105  0.6946  0.5911
  489MOL0     C65906  12.884   4.082   4.881  0.5653  0.2035  0.7188
  489MOL0     C65907  13.019   4.055   4.840  0.6140  0.5986  0.1834
  489MOL0     C65908  13.081   4.137   4.754  0.3225 -0.4796 -0.3369
  489MOL0     C65909  13.219   4.091   4.705 -0.2412 -0.1025 -0.1681
  489MOL0     O65910  13.271   3.987   4.776  0.2466  0.7080 -0.7416
  489MOL0     C65911  13.397   3.932   4.754  0.5973 -1.3800  0.4251
  489MOL0     C65912  13.518   4.013   4.731  0.2924 -0.7697 -0.0106
  489MOL0     C65913  13.641   3.966   4.701  0.1547 -0.6198  0.3621
  489MOL0     C65914  13.654   3.829   4.685 -0.4948  0.8388  0.2156
  489MOL0     O65915  13.778   3.769   4.644  0.7696  0.3588  0.7840
  489MOL0     C65916  13.896   3.799   4.699  0.4652  0.4653  0.1040
  489MOL0     C65917  13.988   3.759   4.587  0.0896  0.4694 -0.6099
  489MOL0     C65918  14.132   3.793   4.629 -0.3561  0.1226  0.3552
  489MOL0     C65919  14.233   3.780   4.517 -0.3788 -0.6920  0.6603
  489MOL0     C65920  14.383   3.818   4.540 -0.0633 -0.5858 -0.8653
  489MOL0     C65921  14.474   3.757   4.437  0.3979  0.1033 -0.2155
  489MOL0     C65922  14.618   3.814   4.414 -0.2174 -0.2834 -0.3418
  489MOL0     C65923  14.699   3.787   4.543  0.2157 -0.5844 -0.0808
  489MOL0    Cl65924  14.712   3.621   4.604 -0.2830 -0.1596  0.0558
  489MOL0     C65925  13.540   3.741   4.694  0.7583 -0.0482  0.6561
  489MOL0     C65926  13.416   3.795   4.731  0.2019 -0.1996  0.2941
  489MOL0     O65927  13.285   4.164   4.628  0.6880 -0.2420  0.1449
  489MOL0     C65928  13.015   4.256   4.710 -0.2013  0.9876  0.5258
  489MOL0     C65929  12.889   4.286   4.760 -0.1887 -0.1288  0.3777
  489MOL0     N65930  12.175   4.014   4.886  0.0553 -0.6484  0.0042
  489MOL0     N65931  12.080   3.978   4.810  0.5732  0.0150 -0.3401
  489MOL0     C65932  10.833   4.363   4.763  0.2801  0.6203 -0.4708
  489MOL0     C65933  10.709   4.420   4.740  0.1535 -0.4985 -0.5329
  489MOL0     C65934  10.313   4.496   4.566 -1.1101  0.8985  0.1692
  489MOL0     C65935  10.202   4.451   4.637 -0.7499  0.0063 -0.8094
  489MOL0     C65936  10.083   4.509   4.616 -0.0802 -0.5562 -1.2391
  489MOL0     C65937  10.071   4.619   4.521  0.2383 -0.6468 -0.2885
  489MOL0     O65938   9.953   4.689   4.495  0.1238  0.0618 -0.6165
  489MOL0     C65939   9.830   4.627   4.527 -1.2167  0.3116  0.0113
  489MOL0     C65940   9.801   4.497   4.436  0.0215  0.1694 -0.5936
  489MOL0     C65941   9.820   4.520   4.282 -0.4512 -0.6808  0.5241
  489MOL0     C65942   9.750   4.398   4.218  0.8392 -0.4197  0.0480
  489MOL0     C65943   9.732   4.419   4.071 -0.9303  0.0641 -0.6748
  489MOL0     C65944   9.711   4.437   3.953 -0.2243  0.1361  0.2320
  489MOL0     C65945  10.179   4.662   4.450 -0.5036  0.9740 -0.7529
  489MOL0     C65946  10.306   4.602   4.471  0.0457 -0.1652  0.9923
  489MOL0     C65947  10.425   4.675   4.406  0.2692 -0.4349 -0.4205
  489MOL0     H65948  10.519   4.143   4.741  0.0152  1.6318 -1.4698
  489MOL0     H65949  10.745   4.034   4.790 -1.7048  0.0423 -0.0632
  489MOL0     H65950  11.074   4.272   4.685 -1.7695 -0.6672 -0.7778
  489MOL0     H65951  11.116   4.281   4.858 -2.6084  0.1034 -0.2572
  489MOL0     H65952  11.188   4.050   4.674  2.2443 -0.9138  0.3725
  489MOL0     H65953  11.194   4.039   4.850  0.2945  1.3085 -0.0089
  489MOL0     H65954  11.353   4.256   4.835 -0.4325  0.8411 -0.6690
  489MOL0     H65955  11.328   4.245   4.672  1.5524 -0.1717  0.3027
  489MOL0     H65956  11.459   4.052   4.880  1.3737  0.2734 -0.5294
  489MOL0     H65957  11.426   4.003   4.704 -1.5303  1.6175 -3.2380
  489MOL0     H65958  11.550   4.184   4.633 -1.9402 -2.6901 -0.8129
  489MOL0     H65959  11.575   4.250   4.795  1.8542  0.6041 -1.0983
  489MOL0     H65960  11.741   4.059   4.840  4.3167  0.6725 -1.5498
  489MOL0     H65961  11.679   3.971   4.711  0.1530 -0.1055  1.0187
  489MOL0     H65962  11.803   4.244   4.690 -0.1836 -1.2414  2.1083
  489MOL0     H65963  11.750   4.168   4.549 -0.0908  4.3049  0.7234
  489MOL0     H65964  11.910   3.974   4.607 -3.1981  0.9767 -0.2099
  489MOL0     H65965  11.991   4.126   4.563  0.1584 -0.3737 -0.6422
  489MOL0     H65966  12.058   4.306   4.780 -1.3714  0.5618  1.8259
  489MOL0     H65967  12.222   4.334   4.992  1.0516  0.4962 -0.1957
  489MOL0     H65968  12.281   4.189   5.073  2.5837 -0.7966 -0.5407
  489MOL0     H65969  12.431   4.142   4.905 -2.1500 -0.5030  1.8361
  489MOL0     H65970  12.405   4.274   4.806  0.4685 -3.2454 -0.8646
  489MOL0     H65971  12.513   4.294   5.097 -1.4522 -2.6437 -0.5824
  489MOL0     H65972  12.470   4.433   4.990  0.6770  1.0096 -1.1737
  489MOL0     H65973  12.706   4.402   4.987  1.3167  1.1890 -0.5712
  489MOL0     H65974  12.632   4.398   4.827 -1.0695 -3.1499 -0.4852
  489MOL0     H65975  12.827   4.011   4.941 -1.6973 -0.9186 -2.5061
  489MOL0     H65976  13.065   3.963   4.873 -2.9412 -1.7691 -0.9259
  489MOL0     H65977  13.507   4.120   4.728 -0.9778 -0.9188 -2.0913
  489MOL0     H65978  13.715   4.045   4.693 -1.4680  0.9356  0.2067
  489MOL0     H65979  13.894   3.908   4.711 -2.0877  0.3711  1.3276
  489MOL0     H65980  13.904   3.745   4.794  0.9596  0.1771 -0.1012
  489MOL0     H65981  13.980   3.651   4.569 -2.3516  0.4167  0.3818
  489MOL0     H65982  13.968   3.816   4.496  0.5522  0.4037 -0.7521
  489MOL0     H65983  14.129   3.889   4.682 -1.8059 -0.2461  1.0009
  489MOL0     H65984  14.163   3.723   4.707  4.2217  0.4081 -0.9281
  489MOL0     H65985  14.194   3.832   4.429  1.0258 -2.2291 -0.9406
  489MOL0     H65986  14.231   3.672   4.495 -0.8374 -1.0887  2.4510
  489MOL0     H65987  14.417   3.781   4.638  1.4474  0.2744 -1.0287
  489MOL0     H65988  14.390   3.926   4.531  1.6578 -0.5317  0.4278
  489MOL0     H65989  14.484   3.657   4.478  1.1365  1.2400  2.6243
  489MOL0     H65990  14.420   3.759   4.342 -0.1059  1.9657  0.0535
  489MOL0     H65991  14.612   3.920   4.388  2.0459 -0.2791 -1.0377
  489MOL0     H65992  14.665   3.761   4.331  1.3397  2.9806 -1.7168
  489MOL0     H65993  14.799   3.828   4.528  0.3818 -0.6958  0.6686
  489MOL0     H65994  14.660   3.847   4.626  2.1549  0.9566 -0.2350
  489MOL0     H65995  13.549   3.634   4.676 -2.1265 -0.2889  0.1731
  489MOL0     H65996  13.331   3.731   4.752 -1.0296  0.8996 -1.1210
  489MOL0     H65997  13.064   4.318   4.635 -0.5056 -0.8738 -1.2991
  489MOL0     H65998  12.844   4.383   4.739 -0.4595  0.3202  2.7806
  489MOL0     H65999  10.918   4.428   4.781 -0.1344  1.1412 -0.3435
  489MOL0     H66000  10.677   4.523   4.740  0.2295 -0.4596 -1.7446
  489MOL0     H66001  10.200   4.375   4.714 -2.4600 -0.3061 -1.1380
  489MOL0     H66002   9.997   4.488   4.678 -0.1899 -0.8885 -1.5012
  489MOL0     H66003   9.743   4.692   4.511 -3.1938 -1.1712  3.5574
  489MOL0     H66004   9.834   4.600   4.633  3.8563  1.3926  0.3479
  489MOL0     H66005   9.702   4.473   4.476 -0.0610  0.7346 -0.4496
  489MOL0     H66006   9.858   4.410   4.471  0.5259  1.3510  1.7089
  489MOL0     H66007   9.928   4.524   4.263 -0.4870  0.3387  0.4821
  489MOL0     H66008   9.782   4.618   4.252  0.9269 -0.2235  0.1830
  489MOL0     H66009   9.803   4.305   4.239 -0.7360 -1.0261  1.5730
  489MOL0     H66010   9.647   4.394   4.255  0.5483  2.1804 -0.2982
  489MOL0     H66011   9.690   4.458   3.850  2.0230 -1.7068 -0.6804
  489MOL0     H66012  10.173   4.749   4.385  0.5068  2.2696  0.7841
  489MOL0     H66013  10.461   4.606   4.329  0.0364  0.6840 -1.5715
  489MOL0     H66014  10.396   4.770   4.361 -1.6874 -1.7256 -2.0760
  489MOL0     H66015  10.512   4.696   4.469  0.8643  0.5273 -1.5144
  490MOL0     O66016   9.272   1.428   1.993  0.7006 -0.0879  0.9516
  490MOL0     C66017   9.173   1.395   2.054 -0.1833  0.2609  0.1645
  490MOL0     O66018   9.161   1.400   2.191 -0.2942 -0.8811 -0.2285
  490MOL0     C66019   9.272   1.435   2.259  0.6969 -0.3855  0.4248
  490MOL0     C66020   9.269   1.548   2.342  0.4060  0.5521 -0.3554
  490MOL0     C66021   9.379   1.594   2.407  0.0009  0.1831  0.1697
  490MOL0     C66022   9.499   1.528   2.409 -0.1496  0.0456 -0.4558
  490MOL0     O66023   9.620   1.578   2.462  0.1613  0.1411  0.3690
  490MOL0     C66024   9.668   1.518   2.580  0.4119  0.4276  0.5741
  490MOL0     C66025   9.753   1.609   2.670 -0.1334 -0.1009  0.5358
  490MOL0     C66026   9.894   1.622   2.621 -0.0834  0.2668 -0.4197
  490MOL0     C66027   9.987   1.731   2.691 -0.3504  0.4062  0.0911
  490MOL0     C66028  10.135   1.710   2.682 -0.0716 -0.1870 -0.0719
  490MOL0     C66029  10.213   1.831   2.708 -0.8415 -0.7855  0.6120
  490MOL0     C66030  10.212   1.867   2.854  0.3974  0.3321  0.2572
  490MOL0     C66031  10.226   2.022   2.870  0.4922  0.5944 -0.0801
  490MOL0     N66032  10.371   2.066   2.849  0.3498 -0.1089 -0.6363
  490MOL0     C66033  10.422   2.121   2.733  0.9882 -0.0523  0.1362
  490MOL0     C66034  10.534   2.182   2.781 -0.6684  0.4062 -0.1835
  490MOL0     C66035  10.639   2.254   2.701 -0.3945 -0.3725 -0.7676
  490MOL0     C66036  10.743   2.339   2.785  0.2011  0.1245 -0.2229
  490MOL0     C66037  10.854   2.414   2.700  0.5200  0.4002  0.1953
  490MOL0     C66038  10.957   2.484   2.782  0.0992 -0.6830  0.2182
  490MOL0     O66039  11.073   2.537   2.715  0.3392  0.6267 -0.7530
  490MOL0     C66040  11.164   2.608   2.785 -1.3414 -0.7455  0.7682
  490MOL0     C66041  11.160   2.640   2.928 -0.2274 -0.4762 -0.1884
  490MOL0     C66042  11.267   2.713   2.983 -0.7267  0.4006 -0.1109
  490MOL0     C66043  11.361   2.770   2.906  0.9462 -0.6247 -0.0624
  490MOL0     C66044  11.465   2.857   2.968  0.0301 -0.3949  0.2752
  490MOL0     O66045  11.572   2.875   2.888 -0.0674 -0.3759 -0.0230
  490MOL0     C66046  11.689   2.894   2.952 -0.4352  0.0967 -0.5303
  490MOL0     C66047  11.730   3.015   3.008  0.5768 -0.3667 -0.2711
  490MOL0     C66048  11.855   3.029   3.064 -0.6229  0.2615  0.3914
  490MOL0     C66049  11.940   2.919   3.086 -0.3302 -0.3524  0.4395
  490MOL0     O66050  12.057   2.944   3.153 -0.0164 -0.5877  0.0589
  490MOL0     C66051  12.157   2.848   3.190  0.0555  0.3253 -0.1981
  490MOL0     C66052  12.291   2.920   3.197  0.8790 -0.2107 -0.3664
  490MOL0     C66053  12.409   2.832   3.209  0.6878  0.1586  0.2482
  490MOL0     C66054  12.505   2.868   3.325 -0.0029  0.5375 -0.2042
  490MOL0     C66055  12.643   2.795   3.316  0.0876  1.0378 -1.1686
  490MOL0     C66056  12.732   2.819   3.444  0.3946 -0.1869  0.1342
  490MOL0     C66057  12.871   2.762   3.423 -0.0172  0.3301  0.3344
  490MOL0     C66058  12.968   2.777   3.537 -0.0074 -0.7471 -0.4140
  490MOL0    Cl66059  13.115   2.679   3.512 -0.4627  0.4714 -0.3022
  490MOL0     C66060  11.897   2.793   3.041  0.2619 -0.3715  0.1533
  490MOL0     C66061  11.772   2.781   2.973 -0.1438 -0.4453  0.3073
  490MOL0     O66062  11.456   2.895   3.086  0.3540  0.0279  0.2364
  490MOL0     C66063  11.365   2.735   2.760 -0.9593  0.4657 -0.3325
  490MOL0     C66064  11.270   2.652   2.714  0.3915 -0.1549  0.3456
  490MOL0     N66065  10.562   2.153   2.912  0.2185 -0.7816 -0.0382
  490MOL0     N66066  10.457   2.090   2.955 -1.1610  0.5041  0.1666
  490MOL0     C66067   9.506   1.406   2.339  0.0773  0.9708  0.5471
  490MOL0     C66068   9.394   1.357   2.260  0.3511  0.0815 -0.1611
  490MOL0     C66069   9.055   1.352   1.978 -0.2478 -0.9145 -0.3751
  490MOL0     C66070   8.938   1.345   2.053 -0.5374  0.7604  0.7039
  490MOL0     C66071   8.815   1.323   1.995  0.3650  0.5208 -0.3278
  490MOL0     C66072   8.802   1.306   1.859 -0.1965 -0.5880 -0.3392
  490MOL0     O66073   8.674   1.279   1.812 -0.2158 -0.0617 -0.2214
  490MOL0     C66074   8.661   1.231   1.679 -0.3875 -0.4328 -1.0620
  490MOL0     C66075   8.510   1.220   1.657  0.5613  0.3365  1.2280
  490MOL0     C66076   8.446   1.131   1.763  0.0189 -0.5769  0.8856
  490MOL0     C66077   8.308   1.104   1.724 -0.0779 -0.2408  0.8102
  490MOL0     C66078   8.266   0.990   1.799  1.4165 -0.6373 -0.5641
  490MOL0     C66079   8.245   0.888   1.855 -0.3434 -0.6696 -0.1172
  490MOL0     C66080   8.912   1.319   1.778  0.1329  0.1085 -1.0205
  490MOL0     C66081   9.038   1.332   1.837 -0.7858  0.1782  0.0534
  490MOL0     C66082   9.160   1.334   1.745 -0.2009 -0.3656  0.0708
  490MOL0     H66083   9.174   1.601   2.348  1.4474  2.4363  0.2904
  490MOL0     H66084   9.375   1.693   2.452  1.9114 -0.6964  2.5213
  490MOL0     H66085   9.589   1.482   2.647  0.4227  0.0764  0.3989
  490MOL0     H66086   9.728   1.429   2.556  1.6275  0.9919  1.3891
  490MOL0     H66087   9.762   1.549   2.761 -0.4872  0.1149  0.7188
  490MOL0     H66088   9.703   1.704   2.690 -0.7041 -0.4480  0.8073
  490MOL0     H66089   9.892   1.644   2.514  1.3052 -0.7323 -0.6809
  490MOL0     H66090   9.943   1.524   2.631  0.2236  0.5449  1.0181
  490MOL0     H66091   9.956   1.830   2.656  0.2031  0.9529  1.0690
  490MOL0     H66092   9.956   1.744   2.795 -3.9364  1.7796 -1.0130
  490MOL0     H66093  10.158   1.626   2.748 -1.4625  2.4768  4.1985
  490MOL0     H66094  10.157   1.665   2.585 -0.3394 -4.9807  1.7944
  490MOL0     H66095  10.318   1.815   2.684 -0.8132 -1.0380  0.8992
  490MOL0     H66096  10.176   1.914   2.647  1.6056  0.5665  0.8471
  490MOL0     H66097  10.286   1.813   2.914 -1.3212  0.0917  2.2998
  490MOL0     H66098  10.113   1.842   2.894 -0.0032 -1.1295 -1.5324
  490MOL0     H66099  10.158   2.067   2.797  0.9828  0.7712 -0.4315
  490MOL0     H66100  10.205   2.052   2.973 -0.5249 -1.0419  0.2207
  490MOL0     H66101  10.373   2.122   2.636  0.4460 -1.7539  0.3646
  490MOL0     H66102  10.697   2.179   2.646 -1.9436  0.3102 -3.5421
  490MOL0     H66103  10.597   2.316   2.621  0.5733  1.6883  0.2498
  490MOL0     H66104  10.683   2.411   2.842 -0.9054 -1.2937  0.4604
  490MOL0     H66105  10.786   2.269   2.856 -2.0614 -0.4576  0.6579
  490MOL0     H66106  10.814   2.487   2.629  2.5368  2.2016  0.8165
  490MOL0     H66107  10.901   2.349   2.626 -2.7562  2.4160 -4.1286
  490MOL0     H66108  10.990   2.416   2.861 -0.6494 -2.3129 -0.8025
  490MOL0     H66109  10.908   2.558   2.845  2.5331  0.3301  1.0483
  490MOL0     H66110  11.081   2.599   2.990 -0.8123  3.8343  2.3282
  490MOL0     H66111  11.250   2.728   3.089  0.4660 -1.8332  0.4566
  490MOL0     H66112  11.672   3.107   3.001 -0.3645 -0.8173  1.1178
  490MOL0     H66113  11.871   3.132   3.092 -2.4885  0.1754  1.9833
  490MOL0     H66114  12.130   2.811   3.290  1.6119 -0.0575  0.1150
  490MOL0     H66115  12.164   2.768   3.115  1.4045  1.8856 -1.8104
  490MOL0     H66116  12.299   2.981   3.106 -1.0528 -0.1773 -0.5467
  490MOL0     H66117  12.290   2.987   3.284  0.9174  0.5013 -0.8998
  490MOL0     H66118  12.380   2.728   3.225 -0.1040  0.6168  2.0429
  490MOL0     H66119  12.454   2.839   3.110  0.8847 -0.5851  0.2812
  490MOL0     H66120  12.461   2.828   3.417  0.2720 -1.3371 -0.8513
  490MOL0     H66121  12.527   2.975   3.335  1.8660  0.4070 -2.2923
  490MOL0     H66122  12.697   2.827   3.227 -1.7145  1.7000 -2.0831
  490MOL0     H66123  12.626   2.687   3.313  1.9814  0.3942  3.0813
  490MOL0     H66124  12.738   2.928   3.452  2.4511 -0.2555 -0.0164
  490MOL0     H66125  12.688   2.795   3.541  0.2698  0.2941  0.1996
  490MOL0     H66126  12.908   2.814   3.334 -0.8773 -0.4290 -0.4933
  490MOL0     H66127  12.869   2.659   3.387  1.8073  0.8266 -1.3612
  490MOL0     H66128  13.003   2.879   3.553  1.7092 -1.3144 -0.4154
  490MOL0     H66129  12.917   2.741   3.627  0.2469  1.0632  0.4830
  490MOL0     H66130  11.955   2.708   3.075 -1.0863  0.0409  4.0986
  490MOL0     H66131  11.732   2.684   2.946  0.3626 -1.0165  1.5504
  490MOL0     H66132  11.443   2.770   2.692  0.3120 -0.7658  0.4351
  490MOL0     H66133  11.275   2.631   2.607 -1.1496  0.7205  0.0610
  490MOL0     H66134   9.604   1.360   2.334 -0.2513  0.4393 -2.3146
  490MOL0     H66135   9.402   1.271   2.194  2.9879  1.4986 -1.8453
  490MOL0     H66136   8.928   1.364   2.159  3.2132 -1.8500  1.7445
  490MOL0     H66137   8.727   1.324   2.059 -0.4013  2.6366 -1.3108
  490MOL0     H66138   8.716   1.137   1.675 -0.7177 -0.6556 -0.4887
  490MOL0     H66139   8.706   1.292   1.600  0.8520 -1.5462 -1.2373
  490MOL0     H66140   8.486   1.185   1.556 -3.2055  2.2747  1.2814
  490MOL0     H66141   8.461   1.317   1.649 -0.4485 -0.2285  0.3407
  490MOL0     H66142   8.456   1.183   1.859 -0.3720 -0.3515  0.8062
  490MOL0     H66143   8.510   1.042   1.756 -0.8237 -1.1624  0.5987
  490MOL0     H66144   8.249   1.193   1.748 -0.1415 -0.3137  0.9210
  490MOL0     H66145   8.291   1.081   1.618 -1.3565  4.2148 -0.1875
  490MOL0     H66146   8.232   0.796   1.907 -3.5119  0.0193  0.5077
  490MOL0     H66147   8.909   1.311   1.670  1.3016 -0.0540 -1.0470
  490MOL0     H66148   9.182   1.441   1.732 -2.3080  0.4004  2.1263
  490MOL0     H66149   9.240   1.275   1.792 -1.7747 -1.4502  1.5087
  490MOL0     H66150   9.135   1.300   1.645  1.8075  1.9963 -1.3719
  491MOL0     O66151   2.596   8.209   4.629 -0.2798  0.4519 -0.3324
  491MOL0     C66152   2.582   8.248   4.510 -0.3651 -0.0099  0.3714
  491MOL0     O66153   2.683   8.297   4.430  0.2386  0.3390 -0.1749
  491MOL0     C66154   2.816   8.268   4.444  0.1318 -0.2252 -0.0223
  491MOL0     C66155   2.890   8.238   4.335  0.0972 -1.4060 -1.1214
  491MOL0     C66156   3.022   8.207   4.349  0.1113  0.5351  0.2455
  491MOL0     C66157   3.090   8.213   4.468 -0.0650  0.2402 -0.7397
  491MOL0     O66158   3.224   8.198   4.477 -0.3213 -0.6712  0.0382
  491MOL0     C66159   3.302   8.304   4.543  0.0376  0.0082 -0.1000
  491MOL0     C66160   3.363   8.260   4.677  0.0683  0.0113 -0.5900
  491MOL0     C66161   3.447   8.370   4.747 -0.0215  0.1347 -0.1068
  491MOL0     C66162   3.509   8.314   4.879 -0.3423 -0.4690 -0.0960
  491MOL0     C66163   3.609   8.421   4.945 -0.6870 -0.1477  0.2426
  491MOL0     C66164   3.675   8.365   5.071 -0.1454 -0.1307  0.0798
  491MOL0     C66165   3.823   8.416   5.093  0.9094 -0.8039  0.2536
  491MOL0     C66166   3.896   8.334   5.191 -0.0746  0.3714 -0.0837
  491MOL0     N66167   4.034   8.393   5.226  0.1559  0.5541 -0.7225
  491MOL0     C66168   4.084   8.403   5.356  0.4066  1.4750  0.5987
  491MOL0     C66169   4.216   8.418   5.337  0.4892  0.0205  0.3301
  491MOL0     C66170   4.305   8.413   5.454 -0.1294 -0.5392 -0.1259
  491MOL0     C66171   4.451   8.460   5.425 -0.1079  0.0295  0.4625
  491MOL0     C66172   4.526   8.524   5.556 -0.0934 -0.0037  0.6288
  491MOL0     C66173   4.661   8.573   5.513 -0.2555  0.8556  0.5363
  491MOL0     O66174   4.745   8.460   5.517  0.0369 -0.0010 -0.1096
  491MOL0     C66175   4.881   8.466   5.488 -0.0762  0.1823  0.6182
  491MOL0     C66176   4.953   8.583   5.478 -0.5779  0.0803 -0.2797
  491MOL0     C66177   5.087   8.582   5.463  0.0310 -0.6199  0.6458
  491MOL0     C66178   5.162   8.464   5.449 -0.1481 -0.0442 -0.1281
  491MOL0     C66179   5.301   8.474   5.416 -0.7467  0.4375 -0.2069
  491MOL0     O66180   5.364   8.354   5.378 -0.4231  0.2081  0.1804
  491MOL0     C66181   5.502   8.356   5.376  0.9283  0.2907 -0.1953
  491MOL0     C66182   5.568   8.411   5.487  0.3153 -0.1408  0.5513
  491MOL0     C66183   5.705   8.388   5.502  0.0051 -1.8862 -0.3280
  491MOL0     C66184   5.784   8.318   5.403  0.4813 -0.3468  0.1439
  491MOL0     O66185   5.916   8.277   5.412  0.1489  0.8763  0.0594
  491MOL0     C66186   5.999   8.362   5.482 -0.2144 -0.1238 -0.4207
  491MOL0     C66187   6.144   8.341   5.423 -0.0913 -0.7557 -0.3821
  491MOL0     C66188   6.207   8.202   5.457 -0.3429 -0.6905  0.1618
  491MOL0     C66189   6.339   8.178   5.383 -0.7410  1.0363  0.8337
  491MOL0     C66190   6.459   8.216   5.483 -0.1639  0.9104  0.6559
  491MOL0     C66191   6.596   8.222   5.416 -0.3027 -0.2811  1.0034
  491MOL0     C66192   6.694   8.301   5.511 -0.0026  0.6393  0.2773
  491MOL0     C66193   6.824   8.347   5.446  0.2055  0.2452  0.2191
  491MOL0    Cl66194   6.959   8.376   5.561  0.5352 -0.6013  0.2493
  491MOL0     C66195   5.711   8.272   5.289  0.2993  0.5529 -0.4678
  491MOL0     C66196   5.571   8.281   5.277 -0.0116  0.1803  0.4530
  491MOL0     O66197   5.356   8.581   5.421 -0.1296 -0.1048 -0.6847
  491MOL0     C66198   5.094   8.348   5.467 -0.2685 -0.3926  0.6180
  491MOL0     C66199   4.954   8.346   5.473 -0.7338  0.3320 -0.3354
  491MOL0     N66200   4.245   8.422   5.206 -0.2186 -0.0305 -0.1872
  491MOL0     N66201   4.134   8.410   5.140  0.3403  0.4436  0.5945
  491MOL0     C66202   3.015   8.238   4.587  0.2601 -0.3311  0.2379
  491MOL0     C66203   2.881   8.268   4.571  0.3627  0.3593  0.0080
  491MOL0     C66204   2.450   8.241   4.460 -0.3312  0.3432  0.4674
  491MOL0     C66205   2.352   8.289   4.534  0.0910 -0.3282 -0.3196
  491MOL0     C66206   2.219   8.277   4.497  0.7642 -0.1584  0.0864
  491MOL0     C66207   2.186   8.230   4.372  0.9979  0.0312  0.2632
  491MOL0     O66208   2.051   8.235   4.337 -0.0020  0.4896 -0.2163
  491MOL0     C66209   2.011   8.225   4.195 -0.0299  0.3981 -0.5821
  491MOL0     C66210   1.863   8.207   4.175  0.1557 -0.0557 -0.2474
  491MOL0     C66211   1.821   8.220   4.031 -0.1577 -0.1973 -0.6205
  491MOL0     C66212   1.665   8.230   4.011  0.3191  0.7234  0.7805
  491MOL0     C66213   1.591   8.118   4.078  0.9493  0.4341  0.3173
  491MOL0     C66214   1.528   8.043   4.144  0.1721 -0.0511  0.9406
  491MOL0     C66215   2.289   8.179   4.296 -0.4390  0.1032 -0.0291
  491MOL0     C66216   2.419   8.194   4.328 -0.1621  0.3909  0.0194
  491MOL0     C66217   2.525   8.129   4.245  0.4870  0.1645  0.3223
  491MOL0     H66218   2.840   8.247   4.239  2.0447  4.2396 -1.9293
  491MOL0     H66219   3.077   8.184   4.259 -0.9150 -0.0184 -0.2649
  491MOL0     H66220   3.389   8.327   4.481  4.5332 -3.9184  3.8978
  491MOL0     H66221   3.235   8.387   4.566  0.8471 -0.1982  3.6644
  491MOL0     H66222   3.434   8.178   4.663 -1.2805 -1.3112  0.0758
  491MOL0     H66223   3.280   8.231   4.742 -0.2523 -1.0113 -1.4194
  491MOL0     H66224   3.387   8.460   4.768  1.4694  2.3308 -4.1980
  491MOL0     H66225   3.530   8.402   4.683  1.2286 -0.1250  1.3307
  491MOL0     H66226   3.424   8.286   4.941 -0.5886 -1.1153 -0.7101
  491MOL0     H66227   3.565   8.221   4.866 -0.0795 -0.8228  2.8466
  491MOL0     H66228   3.686   8.459   4.877  0.1454 -2.1390  0.0004
  491MOL0     H66229   3.543   8.503   4.974 -0.9399  1.7388 -4.7885
  491MOL0     H66230   3.608   8.376   5.157 -1.1770 -0.6417 -0.6336
  491MOL0     H66231   3.691   8.257   5.064  1.6677  0.1876 -1.2401
  491MOL0     H66232   3.829   8.522   5.118 -1.7947 -0.8671  1.4510
  491MOL0     H66233   3.874   8.401   4.997  0.2728 -0.7512 -0.0947
  491MOL0     H66234   3.839   8.321   5.284  1.4111 -1.7098  0.6162
  491MOL0     H66235   3.906   8.234   5.147 -1.5966 -0.6810  1.7769
  491MOL0     H66236   4.024   8.381   5.444 -3.2667  1.2841 -1.7107
  491MOL0     H66237   4.260   8.481   5.526 -1.8568  0.1375 -1.7676
  491MOL0     H66238   4.304   8.315   5.504 -0.0509 -0.9371 -0.8772
  491MOL0     H66239   4.504   8.370   5.390 -2.6943 -0.4787 -2.6898
  491MOL0     H66240   4.458   8.523   5.336 -1.0086 -0.2944  0.1564
  491MOL0     H66241   4.550   8.453   5.635  0.3965  1.4643  1.8382
  491MOL0     H66242   4.469   8.608   5.595 -1.5551 -1.3361  1.4526
  491MOL0     H66243   4.684   8.649   5.588 -1.2933 -0.4265  2.2263
  491MOL0     H66244   4.655   8.625   5.417 -0.0182 -1.6717 -0.9480
  491MOL0     H66245   4.915   8.685   5.480  0.3243  0.4248  1.7737
  491MOL0     H66246   5.147   8.671   5.451 -0.9851 -0.0821 -0.6308
  491MOL0     H66247   5.524   8.459   5.574 -1.2516 -2.3792  1.0932
  491MOL0     H66248   5.754   8.418   5.594 -0.6745  0.0831 -0.5735
  491MOL0     H66249   5.975   8.469   5.470  2.3351  0.9242  2.6197
  491MOL0     H66250   5.990   8.328   5.585  0.4205 -0.5785 -0.5124
  491MOL0     H66251   6.131   8.334   5.315  1.9312  1.3080 -0.8227
  491MOL0     H66252   6.209   8.424   5.450 -1.4369  0.4796 -0.8564
  491MOL0     H66253   6.224   8.201   5.565 -3.4131  1.6764  0.8094
  491MOL0     H66254   6.138   8.119   5.441  0.3213 -1.0235 -1.1363
  491MOL0     H66255   6.345   8.241   5.294 -0.3170  0.5054  0.4808
  491MOL0     H66256   6.349   8.073   5.357  2.0173  1.3327  0.4088
  491MOL0     H66257   6.456   8.137   5.560  1.9323  1.9465  1.8978
  491MOL0     H66258   6.432   8.312   5.528 -1.1787  1.5960 -1.3266
  491MOL0     H66259   6.625   8.119   5.394  4.1786  1.1657 -1.0910
  491MOL0     H66260   6.584   8.276   5.322  1.9128 -0.0154  0.8212
  491MOL0     H66261   6.701   8.245   5.604 -0.4894  0.1166  0.0086
  491MOL0     H66262   6.639   8.390   5.544 -1.5203  0.0136 -0.4865
  491MOL0     H66263   6.850   8.268   5.375  2.9195  0.5375  0.7717
  491MOL0     H66264   6.801   8.441   5.394  0.3050  0.5412  0.6998
  491MOL0     H66265   5.762   8.213   5.213 -0.5534 -2.2103  0.9614
  491MOL0     H66266   5.511   8.233   5.201  0.2127 -1.1820  1.1056
  491MOL0     H66267   5.156   8.258   5.466 -0.6713 -0.8372 -3.4076
  491MOL0     H66268   4.901   8.251   5.478 -2.8200  1.4126 -0.6109
  491MOL0     H66269   3.055   8.218   4.686 -0.5352 -3.5427  0.0221
  491MOL0     H66270   2.819   8.273   4.659 -0.7613 -2.4072 -0.5296
  491MOL0     H66271   2.376   8.334   4.630 -2.9906  0.6681  0.1153
  491MOL0     H66272   2.145   8.315   4.567  1.2168  2.0750 -0.5596
  491MOL0     H66273   2.060   8.142   4.142 -0.7153  0.8255 -1.9230
  491MOL0     H66274   2.051   8.314   4.146  0.3842  0.9130  0.6460
  491MOL0     H66275   1.794   8.272   4.229 -0.5813 -0.4757 -0.6699
  491MOL0     H66276   1.843   8.104   4.208 -0.4351 -0.6689 -2.3505
  491MOL0     H66277   1.856   8.127   3.985 -1.0792 -1.2805  0.8172
  491MOL0     H66278   1.865   8.308   3.982 -1.5531  0.9341  0.0628
  491MOL0     H66279   1.631   8.321   4.061  1.4427 -0.0532  3.0543
  491MOL0     H66280   1.639   8.222   3.904 -1.0548 -0.8170  1.1730
  491MOL0     H66281   1.464   7.986   4.208 -0.5856  1.5900  1.6804
  491MOL0     H66282   2.266   8.119   4.207 -0.1577  1.2596 -0.9042
  491MOL0     H66283   2.478   8.050   4.186 -1.9545  1.5693  0.2646
  491MOL0     H66284   2.560   8.207   4.177 -1.0107  1.4905  1.0124
  491MOL0     H66285   2.603   8.093   4.313  0.7215  0.9364  0.4757
  492MOL0     O66286   8.758   9.587   2.226 -0.3160 -0.1997 -0.2050
  492MOL0     C66287   8.785   9.470   2.254 -0.2282  0.3837 -0.0247
  492MOL0     O66288   8.892   9.395   2.196 -0.2728 -0.2005  0.1498
  492MOL0     C66289   8.986   9.439   2.104  0.0121 -0.7420  0.3240
  492MOL0     C66290   8.974   9.538   2.014  0.3167  0.2425 -0.3825
  492MOL0     C66291   9.080   9.568   1.927 -0.9065  0.5045 -0.0265
  492MOL0     C66292   9.198   9.494   1.928  0.2518 -0.0914 -0.5747
  492MOL0     O66293   9.302   9.543   1.850  0.0710 -0.2030 -0.1771
  492MOL0     C66294   9.431   9.466   1.846  0.2377 -0.3723 -0.6741
  492MOL0     C66295   9.528   9.526   1.749 -1.1077  0.2673 -0.2217
  492MOL0     C66296   9.490   9.531   1.594  0.1394 -0.6327 -0.6935
  492MOL0     C66297   9.605   9.570   1.497 -0.4786 -1.2453 -0.1415
  492MOL0     C66298   9.665   9.712   1.538  0.1085 -0.1264  0.3015
  492MOL0     C66299   9.736   9.767   1.407 -0.4958 -0.1170 -0.0431
  492MOL0     C66300   9.829   9.884   1.450  0.1155  0.0601  0.6002
  492MOL0     C66301   9.979   9.855   1.462  0.2475 -0.1113  1.1264
  492MOL0     N66302  10.054   9.953   1.540 -0.0210  0.5217  0.0114
  492MOL0     C66303  10.116  10.065   1.499  0.9389 -0.5493  0.3667
  492MOL0     C66304  10.146  10.135   1.616 -0.1608  0.4554  0.8717
  492MOL0     C66305  10.219  10.264   1.617 -1.0475 -0.5551  0.4062
  492MOL0     C66306  10.366  10.239   1.651 -0.6772  0.0238  0.0353
  492MOL0     C66307  10.456  10.205   1.528  0.4473 -0.6124 -0.4720
  492MOL0     C66308  10.602  10.193   1.554 -0.9156  0.5617  0.4999
  492MOL0     O66309  10.650  10.320   1.598 -0.2271  0.2230  0.4746
  492MOL0     C66310  10.776  10.341   1.574 -0.7706  0.2376  0.5728
  492MOL0     C66311  10.833  10.474   1.578 -0.2606  0.1588 -0.0869
  492MOL0     C66312  10.975  10.494   1.547 -0.1384 -0.1473 -1.1846
  492MOL0     C66313  11.057  10.393   1.526 -0.3841 -0.6475 -0.2842
  492MOL0     C66314  11.201  10.407   1.497 -0.3120  0.2820  1.0340
  492MOL0     O66315  11.273  10.296   1.457 -0.0800  0.6134  0.9322
  492MOL0     C66316  11.400  10.296   1.407 -0.1626 -0.3330 -0.2073
  492MOL0     C66317  11.454  10.173   1.379 -0.3574 -0.6113  0.5499
  492MOL0     C66318  11.591  10.153   1.332 -0.3386  0.4187  0.0702
  492MOL0     C66319  11.675  10.265   1.338 -0.4351 -0.5071 -0.4115
  492MOL0     O66320  11.808  10.254   1.307 -0.3590  0.3336 -0.4983
  492MOL0     C66321  11.868  10.362   1.227  1.2172 -0.4487  0.8341
  492MOL0     C66322  11.936  10.295   1.107  0.0725 -0.6247  0.2608
  492MOL0     C66323  12.078  10.235   1.126  0.6251 -0.1169  0.0273
  492MOL0     C66324  12.189  10.320   1.187  0.1220 -0.2366 -0.1197
  492MOL0     C66325  12.318  10.242   1.178 -0.5650  0.3097 -0.2988
  492MOL0     C66326  12.435  10.310   1.245  0.1236 -0.5521 -0.0792
  492MOL0     C66327  12.564  10.242   1.215 -0.3721  0.6943 -0.0970
  492MOL0     C66328  12.682  10.315   1.277 -0.6050  0.4104  0.1717
  492MOL0    Cl66329  12.825  10.223   1.215  0.2392  0.4677  0.5098
  492MOL0     C66330  11.625  10.393   1.375  1.2624  0.1001 -0.8271
  492MOL0     C66331  11.488  10.408   1.401 -1.0140 -0.1798  1.1229
  492MOL0     O66332  11.256  10.519   1.504 -0.0901  0.1653 -0.2544
  492MOL0     C66333  11.011  10.265   1.544  0.1509  0.5342  0.3106
  492MOL0     C66334  10.871  10.237   1.561 -0.1451  0.5944  1.3685
  492MOL0     N66335  10.106  10.060   1.728  0.1721 -0.7521 -0.5531
  492MOL0     N66336  10.043   9.960   1.679 -1.3638  0.3247  1.0047
  492MOL0     C66337   9.214   9.395   2.025  0.0456 -0.1267 -0.3036
  492MOL0     C66338   9.113   9.365   2.107  1.8788 -0.9397 -0.1644
  492MOL0     C66339   8.717   9.402   2.364  0.2906 -1.1540 -0.3404
  492MOL0     C66340   8.772   9.281   2.408 -0.8317 -0.8620  0.4456
  492MOL0     C66341   8.714   9.217   2.511  0.5438  1.0157  0.4704
  492MOL0     C66342   8.582   9.253   2.565 -0.1388  0.1110 -0.2689
  492MOL0     O66343   8.520   9.201   2.675  0.0526 -0.4652  0.2001
  492MOL0     C66344   8.529   9.062   2.699 -0.1508 -0.5115  0.0509
  492MOL0     C66345   8.504   8.970   2.579 -0.1528  0.9514  0.3093
  492MOL0     C66346   8.459   8.832   2.642  0.1811 -0.3308  0.2273
  492MOL0     C66347   8.444   8.716   2.541  0.2999 -0.1818 -0.1962
  492MOL0     C66348   8.373   8.604   2.604 -0.1391 -0.8364  0.0449
  492MOL0     C66349   8.310   8.529   2.668  0.0367 -0.0769 -0.0076
  492MOL0     C66350   8.530   9.369   2.517  0.3936  0.4079  0.2711
  492MOL0     C66351   8.594   9.444   2.419  0.1536 -0.7058  0.1315
  492MOL0     C66352   8.516   9.561   2.367  0.8126 -0.3993  0.4155
  492MOL0     H66353   8.883   9.598   2.011  2.0406  3.3972  3.0224
  492MOL0     H66354   9.061   9.640   1.849  1.9833 -1.6109 -2.9289
  492MOL0     H66355   9.471   9.464   1.948  2.4124  0.8604 -1.4383
  492MOL0     H66356   9.408   9.366   1.808 -1.5199 -0.2951  0.0588
  492MOL0     H66357   9.623   9.474   1.763 -0.6197  1.4169  1.0111
  492MOL0     H66358   9.538   9.629   1.785 -2.5817  0.8533 -1.3727
  492MOL0     H66359   9.408   9.603   1.592  0.6254  0.0127  0.8957
  492MOL0     H66360   9.451   9.435   1.558 -1.4925 -0.2253 -0.0771
  492MOL0     H66361   9.692   9.503   1.502  2.0353  1.7319 -0.7289
  492MOL0     H66362   9.577   9.581   1.391  1.0166  0.8768 -0.3732
  492MOL0     H66363   9.588   9.785   1.565 -0.8689  0.1898 -2.9423
  492MOL0     H66364   9.735   9.707   1.622 -0.3499  0.8194  0.7432
  492MOL0     H66365   9.791   9.686   1.358  0.3230  0.6032 -0.3443
  492MOL0     H66366   9.666   9.810   1.335  0.5013 -0.3622 -1.2010
  492MOL0     H66367   9.791   9.925   1.544 -0.3643  1.7428 -0.2823
  492MOL0     H66368   9.822   9.968   1.379 -2.5859 -1.0268 -0.5741
  492MOL0     H66369   9.993   9.754   1.502 -1.3289 -0.4326  0.9269
  492MOL0     H66370  10.025   9.849   1.363  0.3756  0.3725  1.1552
  492MOL0     H66371  10.132  10.092   1.395 -2.1358  0.4925  0.0398
  492MOL0     H66372  10.207  10.319   1.523 -2.1207  2.0510  1.9637
  492MOL0     H66373  10.174  10.328   1.693 -2.0310  0.8236 -1.2659
  492MOL0     H66374  10.411  10.334   1.681  3.3488 -1.8060  0.4418
  492MOL0     H66375  10.391  10.169   1.731  4.6268  0.8042 -0.5731
  492MOL0     H66376  10.445  10.281   1.451  1.2790 -1.0485 -1.0319
  492MOL0     H66377  10.405  10.114   1.496 -2.4386  0.0266  1.8439
  492MOL0     H66378  10.656  10.159   1.465 -3.7183  2.6138 -2.1752
  492MOL0     H66379  10.614  10.114   1.628 -0.9999 -0.0712 -0.1472
  492MOL0     H66380  10.776  10.563   1.601 -0.2290 -0.0575  0.8901
  492MOL0     H66381  11.002  10.598   1.559 -0.6633 -0.2657  1.8745
  492MOL0     H66382  11.393  10.084   1.382  0.8715 -1.4370  1.6779
  492MOL0     H66383  11.628  10.055   1.304  0.3649  0.3509  1.2089
  492MOL0     H66384  11.795  10.437   1.195  1.7995  0.9937  2.6822
  492MOL0     H66385  11.935  10.416   1.294  1.3939 -0.1603  0.4263
  492MOL0     H66386  11.870  10.225   1.055  0.7901 -0.4886 -0.8491
  492MOL0     H66387  11.941  10.372   1.030 -3.0052  1.9379  2.3273
  492MOL0     H66388  12.070  10.143   1.184  1.3254  0.6621  1.4150
  492MOL0     H66389  12.118  10.212   1.027  0.5703  1.1380 -0.3086
  492MOL0     H66390  12.173  10.348   1.292  0.9323 -1.9617  0.5023
  492MOL0     H66391  12.200  10.416   1.136  0.4325 -1.1834 -1.9011
  492MOL0     H66392  12.332  10.226   1.071 -0.1042  1.2951 -0.3884
  492MOL0     H66393  12.302  10.145   1.226 -1.3046  1.1359  1.2023
  492MOL0     H66394  12.446  10.412   1.206  0.3152  0.2741  2.0158
  492MOL0     H66395  12.410  10.336   1.348 -1.5775  3.0334 -1.2339
  492MOL0     H66396  12.581  10.240   1.107  1.4936  0.6398  0.1622
  492MOL0     H66397  12.567  10.137   1.246  1.2384  0.0349 -2.1740
  492MOL0     H66398  12.683  10.419   1.244 -2.3351  0.0321 -1.2527
  492MOL0     H66399  12.676  10.306   1.386  2.5702  0.9307  0.4807
  492MOL0     H66400  11.693  10.477   1.382 -0.3504  1.3274  2.8891
  492MOL0     H66401  11.455  10.509   1.425 -0.6521  0.6151 -1.4265
  492MOL0     H66402  11.073  10.177   1.553  2.7006  1.8274 -2.7717
  492MOL0     H66403  10.845  10.133   1.573 -0.1189  0.4265  0.1681
  492MOL0     H66404   9.299   9.328   2.025 -1.2949 -1.9266  0.8984
  492MOL0     H66405   9.123   9.283   2.177 -0.8883  0.7814  2.5185
  492MOL0     H66406   8.862   9.238   2.365 -0.3002  0.5095  0.1392
  492MOL0     H66407   8.771   9.133   2.550  0.0842  0.2966 -0.3774
  492MOL0     H66408   8.452   9.037   2.773 -0.6620  0.8995  0.0224
  492MOL0     H66409   8.622   9.028   2.745  0.2293 -0.4283 -0.6433
  492MOL0     H66410   8.594   8.956   2.519  0.5934  0.9961  1.3944
  492MOL0     H66411   8.413   8.994   2.523 -1.3456 -0.0261  1.7421
  492MOL0     H66412   8.363   8.847   2.691 -2.0294  0.1370 -3.7824
  492MOL0     H66413   8.532   8.807   2.720 -1.7692  0.1257  2.2976
  492MOL0     H66414   8.399   8.754   2.449  0.3725  1.4145  0.3976
  492MOL0     H66415   8.540   8.680   2.504  0.8014 -0.3749  1.2575
  492MOL0     H66416   8.249   8.457   2.720 -1.2877  0.6446 -0.5085
  492MOL0     H66417   8.436   9.399   2.563  0.2144  0.0805  0.1201
  492MOL0     H66418   8.475   9.526   2.272 -0.2880 -1.6188  1.3012
  492MOL0     H66419   8.428   9.577   2.431 -2.2996 -1.0299 -3.3352
  492MOL0     H66420   8.566   9.657   2.353  1.9662 -0.8494  1.2437
  493MOL0     O66421   2.977   9.072   6.064 -0.1154  0.1143 -0.5194
  493MOL0     C66422   2.937   9.091   6.179  0.3918  0.0745 -0.7455
  493MOL0     O66423   3.012   9.071   6.291 -0.0022 -0.3909  0.5274
  493MOL0     C66424   3.145   9.024   6.281  0.3714  0.6318 -1.1299
  493MOL0     C66425   3.177   8.906   6.210 -0.7198 -0.3659  0.3264
  493MOL0     C66426   3.308   8.854   6.204  0.4570 -0.4670  0.5008
  493MOL0     C66427   3.413   8.909   6.275 -0.3752 -0.6326 -0.6431
  493MOL0     O66428   3.546   8.871   6.276  0.0890 -0.0062  0.1562
  493MOL0     C66429   3.604   8.755   6.194  0.4548 -0.2849  0.0308
  493MOL0     C66430   3.752   8.769   6.196 -1.0831 -0.6268  0.6697
  493MOL0     C66431   3.822   8.665   6.291  0.5138  0.8114  0.4823
  493MOL0     C66432   3.884   8.547   6.220 -0.0799 -0.5950 -0.8979
  493MOL0     C66433   3.954   8.449   6.321  0.2442 -0.1376 -0.1186
  493MOL0     C66434   4.059   8.516   6.413 -0.7273 -0.0500 -0.1555
  493MOL0     C66435   4.171   8.586   6.330 -0.9046 -0.0350 -1.0433
  493MOL0     C66436   4.286   8.500   6.270  0.1273 -0.1278 -0.4678
  493MOL0     N66437   4.421   8.564   6.288  0.2665  0.2412 -0.4142
  493MOL0     C66438   4.503   8.532   6.398 -0.0643  0.6253 -0.1430
  493MOL0     C66439   4.597   8.627   6.384  0.7291  0.6648 -0.8147
  493MOL0     C66440   4.709   8.630   6.482 -0.3016  0.2128 -0.5153
  493MOL0     C66441   4.815   8.521   6.457  0.9055 -0.2262 -0.9712
  493MOL0     C66442   4.895   8.569   6.339  0.2275 -0.3357  0.0882
  493MOL0     C66443   5.019   8.483   6.332 -0.1645  0.2077  0.1024
  493MOL0     O66444   5.109   8.534   6.229  0.5178  0.1652 -0.0426
  493MOL0     C66445   5.239   8.515   6.254  0.2859 -0.6208  0.6806
  493MOL0     C66446   5.318   8.607   6.204 -0.3480 -0.3582 -0.7285
  493MOL0     C66447   5.456   8.597   6.224 -0.0289  0.4868  0.4476
  493MOL0     C66448   5.520   8.494   6.300 -0.0137 -0.1516 -0.1766
  493MOL0     C66449   5.670   8.496   6.333  0.4977 -0.5265  0.3270
  493MOL0     O66450   5.762   8.567   6.261  0.2619  0.2323  0.0706
  493MOL0     C66451   5.894   8.567   6.290 -0.1223 -0.0452 -0.1202
  493MOL0     C66452   5.954   8.687   6.263 -0.7006 -0.0486  0.1027
  493MOL0     C66453   6.097   8.698   6.277  0.0358 -0.1836 -0.7735
  493MOL0     C66454   6.184   8.586   6.299  0.2308  0.0689  1.3462
  493MOL0     O66455   6.320   8.589   6.305  0.0751 -0.5663 -0.1686
  493MOL0     C66456   6.395   8.701   6.241  0.2697  1.0665  0.5511
  493MOL0     C66457   6.535   8.652   6.237 -0.4144 -0.2437 -0.0581
  493MOL0     C66458   6.547   8.534   6.137  0.7534 -0.2060  0.2617
  493MOL0     C66459   6.699   8.481   6.136 -0.1620  0.0056 -0.1287
  493MOL0     C66460   6.692   8.343   6.073  0.0636  0.9590 -0.9724
  493MOL0     C66461   6.845   8.304   6.068  0.4828 -1.2833  0.6489
  493MOL0     C66462   6.868   8.171   6.014 -0.1337  0.1029  0.5417
  493MOL0     C66463   6.842   8.154   5.861 -0.1969  0.8875 -0.1044
  493MOL0    Cl66464   6.897   7.986   5.820  0.2824 -0.5553 -0.2003
  493MOL0     C66465   6.109   8.468   6.322 -0.0949 -0.4860  0.4673
  493MOL0     C66466   5.975   8.454   6.328 -0.2340  0.2122  0.1477
  493MOL0     O66467   5.694   8.436   6.435 -0.0706  0.2219  0.2976
  493MOL0     C66468   5.437   8.395   6.349  0.7778  0.5517  0.1206
  493MOL0     C66469   5.297   8.410   6.344 -0.0414 -0.0913 -0.0581
  493MOL0     N66470   4.578   8.707   6.279 -0.3466  0.4542  0.4665
  493MOL0     N66471   4.468   8.674   6.225  0.4604 -0.2540  0.4551
  493MOL0     C66472   3.383   9.023   6.352  0.4373  0.7862  0.5271
  493MOL0     C66473   3.252   9.070   6.366  0.0379  0.2464  0.5326
  493MOL0     C66474   2.788   9.103   6.201  0.5330  0.1679  0.6014
  493MOL0     C66475   2.701   9.089   6.086  1.0332 -0.7105 -0.2387
  493MOL0     C66476   2.560   9.113   6.100  0.4546  0.2632  0.1306
  493MOL0     C66477   2.504   9.142   6.226 -0.5622  1.1765  0.2861
  493MOL0     O66478   2.370   9.145   6.256 -0.6519 -0.4969 -0.1740
  493MOL0     C66479   2.273   9.095   6.168  0.2104  0.3544  0.0537
  493MOL0     C66480   2.145   9.169   6.187  0.0722 -0.4758  0.5169
  493MOL0     C66481   2.155   9.316   6.128 -1.1887  0.6019 -0.7358
  493MOL0     C66482   2.050   9.412   6.169  1.4570 -0.1244  0.3941
  493MOL0     C66483   1.923   9.345   6.118 -0.6579 -0.2418 -0.4370
  493MOL0     C66484   1.815   9.303   6.084  0.2987  0.4385  0.4920
  493MOL0     C66485   2.593   9.163   6.330 -0.1589  0.4620  1.0935
  493MOL0     C66486   2.732   9.130   6.327 -0.4349 -0.1625  0.4418
  493MOL0     C66487   2.809   9.150   6.455 -0.5264 -0.2094 -0.6682
  493MOL0     H66488   3.092   8.857   6.164  0.7064  0.2650 -3.2737
  493MOL0     H66489   3.322   8.774   6.133  1.3866  0.0473  0.0815
  493MOL0     H66490   3.575   8.659   6.237  1.8989 -0.2136  1.2811
  493MOL0     H66491   3.558   8.765   6.096 -1.0729 -4.3861  0.1453
  493MOL0     H66492   3.782   8.870   6.224  0.5646 -0.7319 -0.5720
  493MOL0     H66493   3.795   8.753   6.096  0.1795 -0.2987  1.1463
  493MOL0     H66494   3.741   8.622   6.351 -0.6685 -2.5755 -3.1249
  493MOL0     H66495   3.898   8.721   6.346 -0.9554  2.5123  0.8698
  493MOL0     H66496   3.816   8.492   6.154  0.4468 -0.9886 -1.1321
  493MOL0     H66497   3.955   8.593   6.150  1.5748 -1.1111  0.3709
  493MOL0     H66498   3.878   8.400   6.383  0.0414  2.2476  1.6780
  493MOL0     H66499   4.002   8.373   6.259  0.1972  1.2522 -1.9544
  493MOL0     H66500   4.006   8.574   6.489  0.1650 -1.8238  1.9279
  493MOL0     H66501   4.109   8.441   6.476  1.8354  2.2443  0.7318
  493MOL0     H66502   4.219   8.644   6.410 -1.8722 -0.9351  0.2388
  493MOL0     H66503   4.133   8.663   6.263 -0.6270  2.8593  1.8523
  493MOL0     H66504   4.298   8.404   6.321 -1.0213 -1.2357 -2.1854
  493MOL0     H66505   4.252   8.474   6.169 -0.5475  1.4217 -0.6756
  493MOL0     H66506   4.499   8.452   6.471 -2.5131  1.1613  0.4005
  493MOL0     H66507   4.761   8.725   6.464  0.1222 -0.3513 -2.3866
  493MOL0     H66508   4.666   8.611   6.581 -0.4544 -1.0547 -0.8063
  493MOL0     H66509   4.863   8.520   6.555 -2.5006  0.4847  0.8787
  493MOL0     H66510   4.778   8.420   6.440 -0.8968 -0.1139  1.6518
  493MOL0     H66511   4.914   8.676   6.342 -0.6554 -0.1744  2.2042
  493MOL0     H66512   4.831   8.555   6.252  0.1371  1.1969 -0.1132
  493MOL0     H66513   4.998   8.382   6.294  2.1890 -0.6269  0.8382
  493MOL0     H66514   5.075   8.484   6.426 -0.5860 -0.3226  0.3688
  493MOL0     H66515   5.266   8.690   6.156 -3.5556 -0.6161  1.9185
  493MOL0     H66516   5.523   8.676   6.191  1.1880 -1.7676 -3.0824
  493MOL0     H66517   5.904   8.781   6.241  1.6191  1.4856  0.9872
  493MOL0     H66518   6.145   8.792   6.253 -1.9246  0.5482 -2.0390
  493MOL0     H66519   6.362   8.719   6.139  0.7922  3.0969  0.7137
  493MOL0     H66520   6.391   8.794   6.298 -2.6765  1.0838  0.4566
  493MOL0     H66521   6.593   8.741   6.211 -0.7907 -0.9404 -3.9883
  493MOL0     H66522   6.574   8.617   6.333 -0.7044 -2.9741 -0.8588
  493MOL0     H66523   6.487   8.453   6.181  1.3097 -0.6923  0.1357
  493MOL0     H66524   6.512   8.568   6.039 -0.0958 -0.6134  0.4121
  493MOL0     H66525   6.735   8.474   6.239 -0.5359 -1.0879 -0.0578
  493MOL0     H66526   6.757   8.555   6.079 -1.7547  0.7379 -0.8406
  493MOL0     H66527   6.639   8.351   5.977  1.0546  0.5952 -1.5646
  493MOL0     H66528   6.629   8.276   6.132  1.2680  1.7527  1.3366
  493MOL0     H66529   6.896   8.369   5.998 -1.2553 -1.0991 -0.5125
  493MOL0     H66530   6.885   8.320   6.169 -1.2925  1.7071  1.0033
  493MOL0     H66531   6.812   8.097   6.073 -0.8812  0.9579  0.9249
  493MOL0     H66532   6.974   8.146   6.022 -0.7314 -4.3388 -1.8323
  493MOL0     H66533   6.737   8.168   5.831 -0.3241 -1.7506 -1.1459
  493MOL0     H66534   6.908   8.227   5.813  3.1537 -1.9360 -0.0883
  493MOL0     H66535   6.166   8.379   6.342 -1.5698 -1.3323  1.0760
  493MOL0     H66536   5.927   8.358   6.340  0.6414  0.0683  3.3602
  493MOL0     H66537   5.468   8.313   6.414 -1.9145 -0.1624  0.5973
  493MOL0     H66538   5.236   8.337   6.396  0.0778 -0.6034 -0.6270
  493MOL0     H66539   3.468   9.067   6.404  1.9319  1.7729 -2.4848
  493MOL0     H66540   3.231   9.147   6.439  0.8800  0.0435  1.0123
  493MOL0     H66541   2.733   9.062   5.986 -1.1090 -2.1174 -0.6117
  493MOL0     H66542   2.493   9.101   6.015 -1.2458  1.1403  1.3086
  493MOL0     H66543   2.256   8.988   6.184 -0.4695  0.4170 -0.2101
  493MOL0     H66544   2.307   9.103   6.065 -1.8108 -0.3162 -0.7065
  493MOL0     H66545   2.120   9.177   6.293  1.2599 -0.5787  0.8227
  493MOL0     H66546   2.062   9.120   6.136 -0.3671  0.7543  0.0082
  493MOL0     H66547   2.138   9.294   6.022 -1.4789  1.3302 -0.8504
  493MOL0     H66548   2.251   9.365   6.146 -0.4020  0.7094 -4.4433
  493MOL0     H66549   2.049   9.429   6.277 -0.9207  0.2539  0.3664
  493MOL0     H66550   2.068   9.509   6.123  0.6190 -0.8985 -1.7016
  493MOL0     H66551   1.711   9.283   6.066  0.8678 -0.1968 -2.7592
  493MOL0     H66552   2.546   9.183   6.426  1.2527  1.2180  1.6539
  493MOL0     H66553   2.733   9.172   6.530 -0.9682 -1.3882 -0.7484
  493MOL0     H66554   2.852   9.054   6.484 -2.1331 -1.8660 -3.3176
  493MOL0     H66555   2.886   9.227   6.463 -0.9776  0.1295  0.6577
  494MOL0     O66556   5.861   2.273   5.020  0.0728  0.2480 -0.1579
  494MOL0     C66557   5.900   2.240   5.129 -0.8690 -0.3754 -0.1967
  494MOL0     O66558   6.036   2.242   5.173  0.5539  0.1694 -0.1638
  494MOL0     C66559   6.138   2.206   5.093 -0.0924 -0.0444 -0.1151
  494MOL0     C66560   6.132   2.187   4.956  0.4668 -0.1379  0.2225
  494MOL0     C66561   6.246   2.144   4.882  0.7159 -0.0193  1.5214
  494MOL0     C66562   6.370   2.118   4.939 -0.7821 -0.5001  0.0253
  494MOL0     O66563   6.486   2.065   4.877  0.0709 -0.0693  0.1081
  494MOL0     C66564   6.491   2.058   4.732  0.4739 -1.0347  0.0614
  494MOL0     C66565   6.631   2.005   4.700 -0.6008  0.4019  0.2640
  494MOL0     C66566   6.648   1.968   4.549  0.7386 -0.3193  0.0955
  494MOL0     C66567   6.795   1.916   4.530  0.9934 -0.1132 -0.7916
  494MOL0     C66568   6.812   1.868   4.391 -0.1203  0.9174 -0.1110
  494MOL0     C66569   6.947   1.787   4.372  0.7097 -0.2465 -0.3752
  494MOL0     C66570   6.972   1.731   4.230  0.1166 -0.6893  0.3513
  494MOL0     C66571   6.858   1.629   4.201 -0.2202 -0.5088  0.3109
  494MOL0     N66572   6.898   1.541   4.091 -0.5452 -0.1336  0.3051
  494MOL0     C66573   6.890   1.548   3.958  0.3878 -0.1176 -0.5298
  494MOL0     C66574   6.959   1.434   3.921  0.5307 -0.5393  0.0156
  494MOL0     C66575   6.988   1.406   3.784 -0.6916  0.0785  0.1890
  494MOL0     C66576   7.141   1.430   3.758  0.6672  0.1979  0.3523
  494MOL0     C66577   7.154   1.398   3.616  0.5212 -0.0346  0.8507
  494MOL0     C66578   7.294   1.393   3.571 -1.0799 -0.3140  0.0616
  494MOL0     O66579   7.288   1.326   3.447 -0.4451 -0.1695  0.2386
  494MOL0     C66580   7.397   1.330   3.369 -0.0349  0.5466  0.5133
  494MOL0     C66581   7.499   1.424   3.380 -0.0535  0.4767 -0.4446
  494MOL0     C66582   7.601   1.424   3.283 -0.5555  0.3516 -0.2234
  494MOL0     C66583   7.607   1.336   3.168  0.2550  1.3671 -0.4817
  494MOL0     C66584   7.692   1.351   3.055 -0.1848 -0.3767  0.1030
  494MOL0     O66585   7.777   1.465   3.051 -0.0770  0.6315  0.0782
  494MOL0     C66586   7.849   1.488   2.938  0.7610 -0.8255  0.3341
  494MOL0     C66587   7.844   1.606   2.864 -0.2588 -0.0611  0.4999
  494MOL0     C66588   7.921   1.630   2.744 -0.4603 -0.5159 -0.5595
  494MOL0     C66589   7.986   1.523   2.697  0.3518  0.4489 -0.3106
  494MOL0     O66590   8.060   1.539   2.576 -0.5477  0.1535 -0.0400
  494MOL0     C66591   8.083   1.666   2.514 -0.1469 -0.7123  0.3463
  494MOL0     C66592   8.177   1.634   2.389 -0.0963  0.5602  0.3285
  494MOL0     C66593   8.322   1.608   2.435  0.0245 -0.8216  0.4140
  494MOL0     C66594   8.405   1.736   2.484  0.0570 -0.3410 -0.1932
  494MOL0     C66595   8.554   1.711   2.474 -0.2893  0.2537  0.5814
  494MOL0     C66596   8.627   1.797   2.573  0.0385  0.2594 -0.4876
  494MOL0     C66597   8.766   1.838   2.532 -0.3765  0.3924 -0.9401
  494MOL0     C66598   8.850   1.706   2.533 -0.9028  0.3631  0.9048
  494MOL0    Cl66599   9.023   1.737   2.545  0.0845 -0.1382 -0.0826
  494MOL0     C66600   7.990   1.410   2.767 -0.4321  0.5008 -0.4347
  494MOL0     C66601   7.927   1.391   2.889 -0.1513  0.1185 -0.1791
  494MOL0     O66602   7.690   1.261   2.973  0.4532  0.0491 -0.5725
  494MOL0     C66603   7.500   1.243   3.167 -0.3092 -0.2693  0.2780
  494MOL0     C66604   7.401   1.236   3.260 -0.2281 -0.1376  0.0280
  494MOL0     N66605   6.992   1.353   4.029  0.0057 -0.3117 -0.6592
  494MOL0     N66606   6.954   1.425   4.130  0.1048  0.6612  0.2129
  494MOL0     C66607   6.380   2.144   5.079 -0.0442  0.4135 -0.1499
  494MOL0     C66608   6.267   2.189   5.156 -0.3300  0.9054  0.2882
  494MOL0     C66609   5.793   2.240   5.230 -0.0783 -1.1747 -0.1277
  494MOL0     C66610   5.688   2.333   5.217  0.5034  0.4644  0.8038
  494MOL0     C66611   5.583   2.348   5.310  0.2828 -0.2333 -0.3679
  494MOL0     C66612   5.589   2.266   5.428  0.0175 -0.5649  0.4613
  494MOL0     O66613   5.494   2.295   5.515 -0.6688  0.5776  0.3557
  494MOL0     C66614   5.414   2.179   5.543 -0.6280 -0.1142  0.4151
  494MOL0     C66615   5.293   2.192   5.451  0.5465 -0.1530  0.7278
  494MOL0     C66616   5.161   2.136   5.499  0.7729 -0.4160  0.2670
  494MOL0     C66617   5.113   2.205   5.627 -0.9844  0.2099  0.3740
  494MOL0     C66618   4.967   2.223   5.636 -0.5446  0.0012  0.1248
  494MOL0     C66619   4.848   2.233   5.661 -0.2691  0.5388 -0.1286
  494MOL0     C66620   5.691   2.164   5.442 -0.0507 -0.7031  0.1933
  494MOL0     C66621   5.801   2.158   5.345  0.2629  0.4359  0.1478
  494MOL0     C66622   5.912   2.052   5.360 -0.1428  0.7038 -0.3650
  494MOL0     H66623   6.048   2.201   4.890  1.6903 -0.6258 -1.5087
  494MOL0     H66624   6.230   2.116   4.778 -0.9427  1.6153  1.2867
  494MOL0     H66625   6.418   1.991   4.685  0.3786 -2.1703  1.7346
  494MOL0     H66626   6.483   2.161   4.696  2.2835 -0.6715  0.6068
  494MOL0     H66627   6.646   1.919   4.765 -2.6699 -0.2487 -0.0531
  494MOL0     H66628   6.708   2.079   4.726  0.4765 -0.4492 -0.3680
  494MOL0     H66629   6.621   2.055   4.489 -3.6157 -0.2443  1.8287
  494MOL0     H66630   6.585   1.882   4.526  0.8491 -1.3418  3.1839
  494MOL0     H66631   6.861   2.002   4.543  0.9570 -0.2211  0.2561
  494MOL0     H66632   6.810   1.833   4.600 -2.4367 -0.5901 -0.4300
  494MOL0     H66633   6.730   1.799   4.367  0.8428 -0.1603 -0.3682
  494MOL0     H66634   6.813   1.959   4.331  2.2808  0.9640 -0.0875
  494MOL0     H66635   7.026   1.859   4.394 -1.3055  2.2519 -0.8994
  494MOL0     H66636   6.946   1.708   4.447 -2.1810  2.0705  2.2507
  494MOL0     H66637   7.064   1.675   4.212 -1.0235 -2.3386 -0.5833
  494MOL0     H66638   6.966   1.817   4.162  2.0190 -0.9050 -0.1570
  494MOL0     H66639   6.819   1.578   4.290 -1.5054  1.3349  0.8640
  494MOL0     H66640   6.773   1.687   4.165 -1.5344 -1.1817  2.2089
  494MOL0     H66641   6.854   1.630   3.895  0.7733  1.5676  1.3463
  494MOL0     H66642   6.958   1.303   3.761 -0.5012  0.0009  0.2829
  494MOL0     H66643   6.922   1.469   3.724 -2.2907 -0.4290  1.3439
  494MOL0     H66644   7.169   1.534   3.781  0.3907  0.3892 -0.1764
  494MOL0     H66645   7.207   1.366   3.817  2.3270  1.9830  0.5318
  494MOL0     H66646   7.090   1.464   3.557  0.1875  0.2709  1.5417
  494MOL0     H66647   7.111   1.298   3.601 -0.7873  0.4628  1.1904
  494MOL0     H66648   7.347   1.330   3.643 -0.5157 -0.0884 -0.1549
  494MOL0     H66649   7.330   1.496   3.564  1.8895 -1.2904 -0.0312
  494MOL0     H66650   7.508   1.506   3.450  1.1482  1.3786 -1.6077
  494MOL0     H66651   7.676   1.502   3.286 -1.2823  1.0876 -0.7190
  494MOL0     H66652   7.778   1.688   2.892  0.7020  0.1565  2.2824
  494MOL0     H66653   7.916   1.730   2.703 -0.2173 -0.4790 -0.4988
  494MOL0     H66654   7.988   1.704   2.475 -0.2396 -2.5113 -1.3876
  494MOL0     H66655   8.129   1.736   2.584 -0.8919 -1.3514  1.5064
  494MOL0     H66656   8.145   1.549   2.328 -0.3903  1.7967 -1.3273
  494MOL0     H66657   8.185   1.724   2.327 -0.9719  1.4318  1.4351
  494MOL0     H66658   8.333   1.543   2.522  0.3961 -0.0757  0.9478
  494MOL0     H66659   8.374   1.559   2.352 -0.0499  4.2392 -3.1203
  494MOL0     H66660   8.367   1.750   2.585 -1.9892  1.3688 -1.1254
  494MOL0     H66661   8.374   1.827   2.433  1.1503  0.4986  0.6092
  494MOL0     H66662   8.594   1.732   2.375  0.9160  1.9523  1.3784
  494MOL0     H66663   8.582   1.606   2.492  0.5732  0.4045  0.1513
  494MOL0     H66664   8.563   1.886   2.582 -4.7426 -2.3268 -4.0974
  494MOL0     H66665   8.613   1.747   2.669 -4.2194 -1.0832 -1.5658
  494MOL0     H66666   8.807   1.917   2.595 -1.4070 -0.0321  0.2951
  494MOL0     H66667   8.761   1.880   2.431 -0.7675 -1.7305 -1.8722
  494MOL0     H66668   8.819   1.645   2.618 -2.5060  1.4860  1.1686
  494MOL0     H66669   8.820   1.654   2.442  0.4647 -0.0302  0.6555
  494MOL0     H66670   8.064   1.337   2.737 -1.5208 -0.4636 -0.8347
  494MOL0     H66671   7.936   1.296   2.940  1.2330  0.8939  1.0830
  494MOL0     H66672   7.500   1.174   3.083 -3.1347 -0.3089  0.2228
  494MOL0     H66673   7.327   1.157   3.252 -0.2553  0.0623 -2.2991
  494MOL0     H66674   6.473   2.126   5.131 -1.2164  2.1132  2.8099
  494MOL0     H66675   6.273   2.192   5.264 -0.2809 -0.4064  0.3415
  494MOL0     H66676   5.693   2.404   5.135  0.0418  0.4875  0.7895
  494MOL0     H66677   5.513   2.429   5.294  0.9833  0.8433  1.6114
  494MOL0     H66678   5.384   2.185   5.648  1.9240 -0.4687  1.2199
  494MOL0     H66679   5.464   2.084   5.523 -1.1598 -0.2875 -0.1204
  494MOL0     H66680   5.317   2.156   5.350 -3.1082  0.2551 -0.4504
  494MOL0     H66681   5.279   2.299   5.434  0.2632 -0.2681  0.1982
  494MOL0     H66682   5.161   2.028   5.518 -2.6943 -0.0402  3.7398
  494MOL0     H66683   5.090   2.158   5.419  1.1775 -1.2466 -0.3281
  494MOL0     H66684   5.157   2.145   5.706  0.2924  1.2865  0.5140
  494MOL0     H66685   5.155   2.306   5.631  1.0471 -0.5475 -0.5530
  494MOL0     H66686   4.744   2.249   5.683  0.2091 -0.4682  3.6520
  494MOL0     H66687   5.689   2.094   5.525  1.6556 -2.1086 -0.8784
  494MOL0     H66688   5.939   2.018   5.260 -0.5783  2.8121 -1.2639
  494MOL0     H66689   5.997   2.096   5.412 -0.4555  1.6232 -0.6134
  494MOL0     H66690   5.878   1.969   5.422 -0.3970  1.1679  0.1321
  495MOL0     O66691   2.526   3.140  11.243  0.6129  0.0623 -1.1179
  495MOL0     C66692   2.503   3.083  11.134 -0.9177 -0.4094  0.3762
  495MOL0     O66693   2.595   3.010  11.057 -0.4436  0.0895 -0.3739
  495MOL0     C66694   2.726   3.021  11.080  0.2572  0.4286  0.3036
  495MOL0     C66695   2.811   2.916  11.035  0.8200  0.3784  0.3727
  495MOL0     C66696   2.950   2.916  11.041  0.1464 -0.1482  0.9584
  495MOL0     C66697   3.020   3.031  11.087  0.4368 -0.6671 -0.3540
  495MOL0     O66698   3.158   3.050  11.091  0.4927  0.1600 -0.1816
  495MOL0     C66699   3.233   2.970  10.993 -0.2435  0.0747  0.8857
  495MOL0     C66700   3.373   3.030  10.976 -0.7556  0.2984  0.6788
  495MOL0     C66701   3.468   2.921  10.926 -0.2762  0.0302 -0.2161
  495MOL0     C66702   3.616   2.964  10.920 -0.0945 -0.4516 -0.2644
  495MOL0     C66703   3.715   2.859  10.868  0.2412  0.0749  0.4029
  495MOL0     C66704   3.848   2.933  10.820 -0.2367 -0.3301  0.2678
  495MOL0     C66705   3.952   2.830  10.773 -0.1526 -1.3483  0.3836
  495MOL0     C66706   4.078   2.901  10.707 -0.2679 -0.2748 -0.0383
  495MOL0     N66707   4.034   2.978  10.581 -0.0749  0.0832  0.4005
  495MOL0     C66708   3.957   2.920  10.480  0.0338  0.3838 -0.1387
  495MOL0     C66709   3.919   3.025  10.399  0.6985 -0.1458  0.0584
  495MOL0     C66710   3.855   3.007  10.272  0.4219  0.3326 -0.5776
  495MOL0     C66711   3.935   2.940  10.157  0.5649 -0.0017 -0.3272
  495MOL0     C66712   3.844   2.925  10.032  0.2613  0.6446 -0.0808
  495MOL0     C66713   3.916   2.872   9.906 -0.1804  0.2108 -0.4401
  495MOL0     O66714   4.017   2.966   9.858  0.1628 -0.0268  1.0504
  495MOL0     C66715   4.084   2.942   9.744 -0.4611  0.3966 -0.4694
  495MOL0     C66716   4.055   2.840   9.657 -0.3892 -0.7120 -0.0909
  495MOL0     C66717   4.130   2.820   9.541  0.5161 -0.3598 -0.7735
  495MOL0     C66718   4.244   2.899   9.516 -0.2052 -0.6854  0.3575
  495MOL0     C66719   4.326   2.875   9.392  0.0607  0.0265  0.1124
  495MOL0     O66720   4.270   2.790   9.302  0.0396 -0.1131 -0.4240
  495MOL0     C66721   4.334   2.757   9.186  0.5545  0.6777 -0.4136
  495MOL0     C66722   4.335   2.619   9.153  0.4218  0.3304  1.7132
  495MOL0     C66723   4.393   2.576   9.037  0.1356 -0.1726  0.0694
  495MOL0     C66724   4.461   2.658   8.951  0.0049 -0.1376 -0.0897
  495MOL0     O66725   4.516   2.591   8.840 -0.2275  0.1519  0.0970
  495MOL0     C66726   4.600   2.661   8.752 -0.0261 -0.5907  0.1023
  495MOL0     C66727   4.660   2.553   8.664  0.1989 -0.1447  0.3618
  495MOL0     C66728   4.580   2.524   8.543  0.1419 -0.0124  0.1771
  495MOL0     C66729   4.620   2.389   8.485  0.0283 -0.3366  0.6919
  495MOL0     C66730   4.539   2.358   8.359  0.2627  0.9702  1.1225
  495MOL0     C66731   4.554   2.447   8.239 -0.3141  0.1931  0.6596
  495MOL0     C66732   4.702   2.461   8.192 -0.4562 -0.2931  0.1909
  495MOL0     C66733   4.717   2.554   8.069  0.7584 -0.1144 -0.9033
  495MOL0    Cl66734   4.646   2.482   7.918  0.1088 -0.0106 -0.0456
  495MOL0     C66735   4.462   2.797   8.983 -0.1491 -0.3533  0.4305
  495MOL0     C66736   4.402   2.847   9.106  0.3290 -0.2548  0.5904
  495MOL0     O66737   4.442   2.922   9.386  0.1236  0.3654 -0.3749
  495MOL0     C66738   4.269   3.011   9.591 -0.2068 -0.3874 -0.4506
  495MOL0     C66739   4.189   3.024   9.710  0.0577 -0.6077  0.0690
  495MOL0     N66740   3.990   3.141  10.444  0.4443 -0.7508  0.1095
  495MOL0     N66741   4.043   3.111  10.554  0.1416 -0.1299 -0.0944
  495MOL0     C66742   2.930   3.128  11.134 -0.4945  0.2048 -0.6457
  495MOL0     C66743   2.796   3.131  11.130 -1.1134 -0.2783 -0.6593
  495MOL0     C66744   2.358   3.088  11.085 -0.1733  1.0292 -0.0134
  495MOL0     C66745   2.328   3.002  10.981  0.5411 -0.0620 -0.1128
  495MOL0     C66746   2.203   2.997  10.916 -0.1650 -0.2326  0.3919
  495MOL0     C66747   2.101   3.080  10.954  0.1267 -0.3464  0.8695
  495MOL0     O66748   1.982   3.073  10.887 -0.1243 -0.1716 -0.6812
  495MOL0     C66749   1.856   3.047  10.956  0.3523  0.0309 -0.9699
  495MOL0     C66750   1.736   3.084  10.866  0.5626 -0.0950  0.2651
  495MOL0     C66751   1.734   2.994  10.740 -0.0751 -0.2536 -0.0990
  495MOL0     C66752   1.667   3.056  10.623 -0.0520 -1.1464 -0.3122
  495MOL0     C66753   1.530   3.080  10.656  0.4533  0.3973  1.0154
  495MOL0     C66754   1.411   3.087  10.664 -0.3685 -0.2677  0.2125
  495MOL0     C66755   2.124   3.160  11.066 -0.0291 -0.4666  0.3077
  495MOL0     C66756   2.250   3.168  11.133 -0.4162 -0.1178  0.3009
  495MOL0     C66757   2.258   3.254  11.255 -0.4336 -0.0670 -0.4090
  495MOL0     H66758   2.771   2.828  10.986  1.3910  0.6840 -0.6701
  495MOL0     H66759   3.005   2.838  10.987  2.5359  1.7863  0.4091
  495MOL0     H66760   3.233   2.864  11.020 -1.1763 -0.0133  0.5694
  495MOL0     H66761   3.184   2.966  10.895  1.7815  1.5066 -0.2776
  495MOL0     H66762   3.418   3.065  11.070  0.9035  2.5192 -0.8215
  495MOL0     H66763   3.379   3.113  10.905  0.1388 -0.1526  0.1999
  495MOL0     H66764   3.443   2.909  10.820  1.0720  1.9795 -0.8230
  495MOL0     H66765   3.462   2.834  10.992  3.8826  1.9555  3.2242
  495MOL0     H66766   3.619   3.054  10.857 -2.1266 -1.4706 -1.9626
  495MOL0     H66767   3.662   2.995  11.014  1.6990 -3.1577 -0.1623
  495MOL0     H66768   3.730   2.783  10.944 -0.9469  0.0961  0.6841
  495MOL0     H66769   3.668   2.812  10.781  1.6876 -2.4521  0.9202
  495MOL0     H66770   3.811   3.003  10.745 -1.1289 -0.8855  0.1776
  495MOL0     H66771   3.888   2.990  10.904 -0.7267  1.2434 -0.5198
  495MOL0     H66772   3.919   2.762  10.694 -0.2276  0.2980 -1.0673
  495MOL0     H66773   3.984   2.766  10.855 -0.8438 -1.2789  0.7076
  495MOL0     H66774   4.115   2.978  10.776 -1.5175 -0.4269  0.8375
  495MOL0     H66775   4.154   2.827  10.683 -0.3668  0.1051 -1.6120
  495MOL0     H66776   3.930   2.815  10.470  2.6323 -0.3634  0.0173
  495MOL0     H66777   3.760   2.954  10.291  0.8892  0.3871  2.3891
  495MOL0     H66778   3.822   3.103  10.231 -0.1753  0.3410 -0.0941
  495MOL0     H66779   4.021   2.999  10.123  0.6808 -0.6832 -1.2211
  495MOL0     H66780   3.971   2.839  10.180  2.1932  0.5993 -0.0544
  495MOL0     H66781   3.802   3.022  10.001  0.5222  0.2560 -1.7069
  495MOL0     H66782   3.758   2.860  10.054  0.9787 -0.1836  0.3069
  495MOL0     H66783   3.837   2.866   9.831  0.3862  1.4156 -1.1575
  495MOL0     H66784   3.951   2.770   9.922 -2.4681 -0.7370 -0.9825
  495MOL0     H66785   3.983   2.763   9.685  0.1216 -0.8470  0.8987
  495MOL0     H66786   4.102   2.734   9.481  1.7606 -1.0298 -0.4307
  495MOL0     H66787   4.277   2.538   9.195  0.9113 -0.6662  0.5365
  495MOL0     H66788   4.384   2.469   9.019  1.7229  0.0008 -2.2950
  495MOL0     H66789   4.548   2.736   8.691  0.3823  2.9773  3.7254
  495MOL0     H66790   4.676   2.710   8.813  0.8205  1.4293 -2.3735
  495MOL0     H66791   4.754   2.597   8.631 -1.1195  2.3948 -0.2482
  495MOL0     H66792   4.677   2.463   8.725  0.3631 -0.1006  0.3821
  495MOL0     H66793   4.477   2.524   8.578  0.0305 -1.9928 -0.0163
  495MOL0     H66794   4.597   2.606   8.473 -0.7076  0.1401  0.1497
  495MOL0     H66795   4.606   2.311   8.561  0.3907 -2.2097 -1.0775
  495MOL0     H66796   4.726   2.384   8.457 -0.5297 -0.7390 -1.5170
  495MOL0     H66797   4.434   2.340   8.382  0.8226 -3.6136  1.0524
  495MOL0     H66798   4.578   2.260   8.330  0.0079  0.7214  1.6085
  495MOL0     H66799   4.495   2.401   8.159  0.4013  2.5230 -1.3487
  495MOL0     H66800   4.504   2.539   8.270  1.2239  0.7344  1.6776
  495MOL0     H66801   4.748   2.364   8.169 -2.1176 -0.6743 -1.7512
  495MOL0     H66802   4.770   2.501   8.268  1.4561  1.7381 -2.4056
  495MOL0     H66803   4.665   2.648   8.087 -0.6565 -1.0762  0.2292
  495MOL0     H66804   4.825   2.567   8.053  0.8543 -2.8894 -3.3907
  495MOL0     H66805   4.513   2.863   8.914 -1.6627  0.4240  0.0305
  495MOL0     H66806   4.412   2.953   9.126  0.1665 -0.3812  1.3469
  495MOL0     H66807   4.350   3.077   9.562 -1.0725  2.2046  2.4999
  495MOL0     H66808   4.213   3.107   9.776 -0.9904  0.4812 -0.8779
  495MOL0     H66809   2.980   3.212  11.181 -0.2584 -1.5151  2.4464
  495MOL0     H66810   2.744   3.218  11.171 -0.5316  1.3040 -3.1115
  495MOL0     H66811   2.403   2.928  10.952 -1.1131 -1.4461 -1.0612
  495MOL0     H66812   2.180   2.911  10.854 -2.9277  0.3790  0.4321
  495MOL0     H66813   1.853   3.105  11.049 -4.5701  0.1494 -0.9158
  495MOL0     H66814   1.852   2.940  10.981 -0.6960  0.3328  0.2705
  495MOL0     H66815   1.739   3.188  10.830  0.1513 -0.3132 -0.4249
  495MOL0     H66816   1.648   3.074  10.929 -1.2770 -1.6317 -2.3567
  495MOL0     H66817   1.688   2.899  10.768  2.2995 -0.3177  4.5324
  495MOL0     H66818   1.837   2.978  10.706  0.0302  0.4790 -0.1354
  495MOL0     H66819   1.701   3.152  10.583 -1.5173 -1.4078 -2.2884
  495MOL0     H66820   1.673   2.985  10.541  1.4281 -1.4275  0.0064
  495MOL0     H66821   1.304   3.093  10.667 -0.5125 -1.2695 -1.5350
  495MOL0     H66822   2.047   3.222  11.110  2.8537  2.2625  1.9412
  495MOL0     H66823   2.285   3.197  11.344  3.2970 -0.7052 -1.7693
  495MOL0     H66824   2.328   3.338  11.247 -1.4308  0.7410 -0.9967
  495MOL0     H66825   2.164   3.307  11.275  0.1155  2.1751 -3.1211
  496MOL0     O66826   8.316   9.000   8.258  0.0562 -0.7982  0.0162
  496MOL0     C66827   8.402   9.084   8.283 -0.1143 -0.2446 -0.6035
  496MOL0     O66828   8.386   9.201   8.359  0.1536  0.2850 -0.2518
  496MOL0     C66829   8.251   9.219   8.399  0.0045 -0.6750  0.1010
  496MOL0     C66830   8.173   9.310   8.330  0.0897  0.3427  0.0244
  496MOL0     C66831   8.036   9.323   8.364  0.1890 -0.4893 -0.1138
  496MOL0     C66832   7.982   9.255   8.471 -0.4599  1.1138 -0.6731
  496MOL0     O66833   7.859   9.290   8.496  0.5112 -0.3529  0.7130
  496MOL0     C66834   7.787   9.220   8.597  0.1393 -0.4012 -0.0613
  496MOL0     C66835   7.669   9.298   8.626  0.7351 -0.2158 -0.5060
  496MOL0     C66836   7.569   9.249   8.741  0.2429  0.4513 -0.1015
  496MOL0     C66837   7.450   9.333   8.746 -0.9739  0.3513  0.0114
  496MOL0     C66838   7.371   9.299   8.869 -0.1093 -0.6791  0.5439
  496MOL0     C66839   7.253   9.401   8.871  0.9984 -0.3759  0.1569
  496MOL0     C66840   7.184   9.396   8.999  0.6105  0.6232 -0.0585
  496MOL0     C66841   7.089   9.516   9.018 -0.3714  1.1880  0.6189
  496MOL0     N66842   7.148   9.657   8.997  0.1363 -0.3766 -0.3639
  496MOL0     C66843   7.278   9.703   9.023  0.1039  0.3337  0.0196
  496MOL0     C66844   7.281   9.834   8.991 -1.2391  0.7148  0.0319
  496MOL0     C66845   7.386   9.936   9.024 -0.7082 -0.4241  0.2429
  496MOL0     C66846   7.522   9.880   9.017 -0.5444 -0.3074 -0.8800
  496MOL0     C66847   7.618   9.964   9.098 -0.4082 -0.2175 -0.0228
  496MOL0     C66848   7.769   9.930   9.080  0.3984  0.2710 -0.0063
  496MOL0     O66849   7.808   9.995   8.953  0.0315 -0.2120  0.0580
  496MOL0     C66850   7.941   9.993   8.918 -0.5657  0.0032 -0.1718
  496MOL0     C66851   8.051   9.935   8.992 -0.2099 -1.4903  0.1222
  496MOL0     C66852   8.181   9.932   8.935 -0.3044  0.0525  0.1073
  496MOL0     C66853   8.197   9.985   8.807 -0.1219  0.9147  0.5361
  496MOL0     C66854   8.334   9.975   8.750 -0.8948  1.0866  0.7299
  496MOL0     O66855   8.429   9.916   8.825 -0.2379  0.5787 -0.0865
  496MOL0     C66856   8.553   9.897   8.768 -0.0938 -0.8747 -0.2582
  496MOL0     C66857   8.613   9.767   8.753  0.2049 -0.3366  0.3430
  496MOL0     C66858   8.737   9.756   8.692  0.3076  0.0319  0.6160
  496MOL0     C66859   8.816   9.867   8.653  0.4273  0.0091 -0.1220
  496MOL0     O66860   8.943   9.849   8.605 -0.3825  0.3986  0.2368
  496MOL0     C66861   8.977   9.715   8.543  0.3590 -0.0816 -0.2475
  496MOL0     C66862   9.116   9.724   8.483 -0.4930  0.5447 -0.5818
  496MOL0     C66863   9.153   9.581   8.443  0.9028 -0.1669  0.4938
  496MOL0     C66864   9.269   9.561   8.357 -0.6244 -0.6127  0.1004
  496MOL0     C66865   9.303   9.419   8.328 -0.5391  0.0190  0.2952
  496MOL0     C66866   9.449   9.400   8.289 -0.1365 -0.6847  0.5855
  496MOL0     C66867   9.491   9.253   8.269  0.7579 -0.3753 -0.2267
  496MOL0     C66868   9.637   9.220   8.304 -0.1022 -1.0609  0.0865
  496MOL0    Cl66869   9.680   9.256   8.476 -0.0083  0.1394 -0.0036
  496MOL0     C66870   8.766   9.994   8.680  0.1791 -0.4278  0.1587
  496MOL0     C66871   8.635  10.013   8.723 -1.0058  1.1922  0.5692
  496MOL0     O66872   8.358  10.022   8.638 -0.3738  0.4648 -0.2910
  496MOL0     C66873   8.094  10.039   8.733 -0.2598  0.4803 -0.9903
  496MOL0     C66874   7.964  10.045   8.791  0.4208 -0.1342 -0.1294
  496MOL0     N66875   7.154   9.862   8.945  1.2960 -0.5593  0.4601
  496MOL0     N66876   7.077   9.762   8.956  0.0538  0.0682 -0.5224
  496MOL0     C66877   8.060   9.167   8.548  0.9043  0.1003  0.0586
  496MOL0     C66878   8.194   9.151   8.515 -0.0635 -0.0762 -0.0524
  496MOL0     C66879   8.542   9.059   8.237 -0.3531  0.1492 -0.6378
  496MOL0     C66880   8.567   9.056   8.100 -0.2726 -0.1800  0.3688
  496MOL0     C66881   8.692   9.029   8.059 -0.1435 -0.6045  0.5927
  496MOL0     C66882   8.803   9.017   8.147 -0.5026  0.6215 -0.3714
  496MOL0     O66883   8.915   8.974   8.080 -0.6653  0.0295 -0.8412
  496MOL0     C66884   9.043   8.988   8.153 -0.3338  0.1055 -0.1210
  496MOL0     C66885   9.088   8.855   8.221 -0.1889 -0.3916  0.9468
  496MOL0     C66886   9.087   8.745   8.121 -0.1560  0.4281  0.3981
  496MOL0     C66887   9.123   8.609   8.181 -0.3092 -0.0424  0.0019
  496MOL0     C66888   9.150   8.517   8.066 -0.6066 -0.1236 -0.7011
  496MOL0     C66889   9.159   8.436   7.976  1.2099 -0.4125 -0.4374
  496MOL0     C66890   8.777   9.022   8.279  0.4273 -0.5257 -1.2085
  496MOL0     C66891   8.649   9.060   8.331  0.7390  0.0962  0.8129
  496MOL0     C66892   8.620   9.075   8.482 -0.6551  0.6357  0.1677
  496MOL0     H66893   8.212   9.379   8.255  1.6674  0.8219  1.2286
  496MOL0     H66894   7.976   9.386   8.299 -2.3755 -0.3765  2.2006
  496MOL0     H66895   7.772   9.114   8.577 -1.3378 -0.1022 -0.6970
  496MOL0     H66896   7.832   9.227   8.696 -1.8781 -1.6846  1.0037
  496MOL0     H66897   7.609   9.311   8.535 -1.3833 -0.4919  0.7873
  496MOL0     H66898   7.698   9.395   8.666  0.0448 -0.6518  1.1630
  496MOL0     H66899   7.610   9.267   8.841 -1.5019  0.3697  0.6512
  496MOL0     H66900   7.544   9.143   8.736 -0.8560  0.6945  0.1069
  496MOL0     H66901   7.488   9.436   8.755 -0.0502  0.4810 -3.8349
  496MOL0     H66902   7.389   9.327   8.656  0.0800 -0.4242 -0.6655
  496MOL0     H66903   7.330   9.199   8.856  2.2360 -1.4105 -2.2428
  496MOL0     H66904   7.431   9.292   8.960  0.4676  0.2653  0.2553
  496MOL0     H66905   7.295   9.501   8.856 -2.3177  1.3984  1.4832
  496MOL0     H66906   7.181   9.385   8.789 -0.5392  3.2995  0.5843
  496MOL0     H66907   7.262   9.411   9.075 -0.2299 -0.1671  0.9929
  496MOL0     H66908   7.137   9.299   9.014 -1.8199  1.2782 -2.5857
  496MOL0     H66909   7.009   9.501   8.946 -0.8745  1.9111  1.0111
  496MOL0     H66910   7.043   9.501   9.116  2.4624  0.9827  2.0412
  496MOL0     H66911   7.349   9.651   9.087  1.2381 -1.7761 -2.7356
  496MOL0     H66912   7.382  10.018   8.952  3.1899 -1.4530 -1.4281
  496MOL0     H66913   7.347   9.967   9.121  0.1418 -0.8728  0.7339
  496MOL0     H66914   7.517   9.778   9.055 -4.0764 -0.4855 -1.5231
  496MOL0     H66915   7.556   9.881   8.913 -0.9114 -0.6993 -1.0058
  496MOL0     H66916   7.595   9.955   9.204  2.0850 -0.1392  0.5790
  496MOL0     H66917   7.602  10.069   9.068 -0.2359 -0.8610 -2.6545
  496MOL0     H66918   7.779   9.822   9.072  0.2768  0.3687 -1.9157
  496MOL0     H66919   7.833   9.968   9.160  4.9263  0.7167 -3.4063
  496MOL0     H66920   8.034   9.897   9.093 -0.8156 -1.9700 -0.1541
  496MOL0     H66921   8.260   9.885   8.993 -0.1855 -1.0091 -0.8733
  496MOL0     H66922   8.566   9.678   8.793  1.1887 -1.0183  0.0211
  496MOL0     H66923   8.776   9.655   8.689 -2.0424 -1.3396  5.5759
  496MOL0     H66924   8.975   9.637   8.619  0.2922  1.4044  1.3291
  496MOL0     H66925   8.905   9.680   8.468 -0.4185 -1.4382  1.0927
  496MOL0     H66926   9.121   9.784   8.392 -1.1607 -3.5320 -3.5805
  496MOL0     H66927   9.188   9.759   8.557 -1.7939 -1.0783  1.5809
  496MOL0     H66928   9.162   9.521   8.534  2.5379 -2.5170 -1.1120
  496MOL0     H66929   9.068   9.535   8.393  0.6405  0.6819  0.1373
  496MOL0     H66930   9.349   9.613   8.410 -1.7379 -0.2586  1.5055
  496MOL0     H66931   9.243   9.613   8.264  0.3812 -2.5924 -1.3471
  496MOL0     H66932   9.242   9.382   8.245 -2.3053  3.1266  0.0247
  496MOL0     H66933   9.289   9.354   8.414  3.8348 -0.0759  1.1418
  496MOL0     H66934   9.465   9.458   8.197  3.2718 -1.1814  0.7406
  496MOL0     H66935   9.511   9.436   8.371 -1.7838 -1.3515  2.1931
  496MOL0     H66936   9.466   9.212   8.171 -2.4691 -2.2769  1.2415
  496MOL0     H66937   9.426   9.203   8.342  1.7618  2.5185  2.9473
  496MOL0     H66938   9.645   9.114   8.277 -0.6521 -0.6701 -1.7957
  496MOL0     H66939   9.705   9.274   8.237  0.0814 -1.3673  0.0258
  496MOL0     H66940   8.809  10.087   8.643 -0.9240  0.1219  0.2264
  496MOL0     H66941   8.594  10.113   8.738 -2.7660  0.2331  2.8868
  496MOL0     H66942   8.097  10.070   8.629 -1.1462 -1.6864 -1.7183
  496MOL0     H66943   7.873  10.068   8.736 -0.9719 -1.7612  1.3540
  496MOL0     H66944   8.013   9.115   8.631  0.8617  0.3306  0.1825
  496MOL0     H66945   8.251   9.075   8.567  0.9661 -0.0155 -1.0567
  496MOL0     H66946   8.489   9.060   8.024 -0.9866  0.9798  1.1520
  496MOL0     H66947   8.716   9.011   7.954 -2.7232  1.0911 -0.4011
  496MOL0     H66948   9.050   9.072   8.222 -0.2072 -0.4569  0.5699
  496MOL0     H66949   9.121   9.011   8.080 -1.1890  2.3611 -0.3791
  496MOL0     H66950   9.024   8.822   8.303 -0.4108  0.1072  0.9768
  496MOL0     H66951   9.190   8.865   8.259  0.1923 -0.8911  0.0946
  496MOL0     H66952   9.155   8.773   8.040 -0.0714  0.1416  0.3706
  496MOL0     H66953   8.992   8.725   8.071  1.1591 -1.2067 -1.5902
  496MOL0     H66954   9.211   8.625   8.244 -1.7005 -0.0753  2.0504
  496MOL0     H66955   9.040   8.582   8.248 -0.6571  0.0715 -0.3806
  496MOL0     H66956   9.160   8.364   7.897  0.1400 -0.1755 -0.6701
  496MOL0     H66957   8.859   9.002   8.347 -1.5317 -3.0254  0.6030
  496MOL0     H66958   8.622   9.180   8.513  1.1323  0.1329  1.9706
  496MOL0     H66959   8.537   9.015   8.519 -1.3609 -0.1923 -2.5022
  496MOL0     H66960   8.713   9.038   8.526 -0.2259 -0.6269 -1.6542
  497MOL0     O66961   2.592  10.478  10.472  0.4630  0.6674  0.3335
  497MOL0     C66962   2.499  10.431  10.537 -0.1615  0.2524  0.1126
  497MOL0     O66963   2.495  10.310  10.596  0.1223  0.5679  0.6638
  497MOL0     C66964   2.589  10.217  10.554  0.3155 -0.0844 -0.0804
  497MOL0     C66965   2.560  10.120  10.455  0.5874  0.2160 -0.9404
  497MOL0     C66966   2.645  10.016  10.428  0.2959  0.0942  0.0076
  497MOL0     C66967   2.759   9.998  10.507  0.5236  0.0900 -0.2995
  497MOL0     O66968   2.861   9.905  10.498  0.2554  0.0094  0.3216
  497MOL0     C66969   2.840   9.810  10.393 -0.3770  0.4178 -0.4148
  497MOL0     C66970   2.965   9.717  10.387 -0.5960 -0.0776 -0.6642
  497MOL0     C66971   2.960   9.596  10.486  0.7161 -0.2627 -0.2138
  497MOL0     C66972   3.093   9.533  10.499 -0.5893  0.0934 -0.3359
  497MOL0     C66973   3.091   9.422  10.602  0.4861 -0.1786  0.4742
  497MOL0     C66974   3.229   9.352  10.610 -0.3030 -0.1260  0.1513
  497MOL0     C66975   3.284   9.287  10.473  0.4563 -0.1604  0.8939
  497MOL0     C66976   3.405   9.200  10.495  0.0382  0.5103 -0.0320
  497MOL0     N66977   3.529   9.285  10.503 -0.5545  0.2394  0.4592
  497MOL0     C66978   3.625   9.311  10.395 -0.1908  0.6874 -0.3505
  497MOL0     C66979   3.696   9.415  10.441 -0.1552  0.1842  0.4322
  497MOL0     C66980   3.807   9.483  10.368 -0.3093  0.1114 -0.3454
  497MOL0     C66981   3.795   9.478  10.219 -0.1862  0.6908 -0.0346
  497MOL0     C66982   3.674   9.552  10.173  0.8803 -0.0297 -0.8287
  497MOL0     C66983   3.662   9.544  10.024  1.5556  0.1462  0.5469
  497MOL0     O66984   3.740   9.649   9.954  0.5329  0.0482 -0.0740
  497MOL0     C66985   3.855   9.615   9.898  0.2093 -0.4804  0.2421
  497MOL0     C66986   3.989   9.653   9.944  0.0785 -0.1460 -0.2610
  497MOL0     C66987   4.103   9.616   9.876 -0.2850  0.2401 -0.1319
  497MOL0     C66988   4.094   9.527   9.768  0.1947 -1.3388 -0.0361
  497MOL0     C66989   4.205   9.460   9.709 -1.1103  0.0405 -0.9459
  497MOL0     O66990   4.330   9.475   9.765 -0.0461  0.9357 -0.3715
  497MOL0     C66991   4.445   9.418   9.702  0.2313  0.3578 -0.2150
  497MOL0     C66992   4.445   9.306   9.621 -0.2393  0.0246 -0.1364
  497MOL0     C66993   4.565   9.265   9.557  0.4375  0.3546 -0.1678
  497MOL0     C66994   4.684   9.338   9.577  0.1413 -0.2958  0.4709
  497MOL0     O66995   4.809   9.305   9.530 -0.6873 -0.2731 -0.3888
  497MOL0     C66996   4.817   9.217   9.418 -0.1194 -0.3728  0.9062
  497MOL0     C66997   4.962   9.198   9.371 -0.0808 -0.4013 -0.9104
  497MOL0     C66998   5.043   9.135   9.491  0.3548 -0.5434  0.8726
  497MOL0     C66999   5.197   9.161   9.467  1.0115  0.3468 -0.2831
  497MOL0     C67000   5.294   9.101   9.569  0.3804 -0.1044 -0.7080
  497MOL0     C67001   5.438   9.141   9.536  0.2583 -0.3973 -0.9246
  497MOL0     C67002   5.536   9.064   9.616 -0.3871  0.5017  0.0407
  497MOL0     C67003   5.542   9.105   9.762 -0.3648  0.6041 -0.5001
  497MOL0    Cl67004   5.665   9.019   9.853 -0.2085  0.2405  0.1914
  497MOL0     C67005   4.682   9.442   9.670 -0.3178 -0.8568  0.1446
  497MOL0     C67006   4.565   9.482   9.734  0.4401 -0.6863  0.1256
  497MOL0     O67007   4.179   9.419   9.593 -0.5097  0.9702  0.1753
  497MOL0     C67008   3.967   9.476   9.732  0.2318 -0.9504  0.9174
  497MOL0     C67009   3.851   9.521   9.791  0.1080  0.1379  0.3497
  497MOL0     N67010   3.655   9.448  10.571  0.0732 -0.0574  0.0813
  497MOL0     N67011   3.560   9.370  10.603 -0.5868  0.1800 -0.3012
  497MOL0     C67012   2.781  10.090  10.609  0.4870 -0.6279 -0.0344
  497MOL0     C67013   2.702  10.202  10.629  0.2505 -0.8729 -0.0065
  497MOL0     C67014   2.379  10.517  10.548  0.2945  0.0002 -0.6103
  497MOL0     C67015   2.320  10.520  10.676 -0.8879 -0.4340  0.4996
  497MOL0     C67016   2.219  10.617  10.698  0.2979  0.0775 -0.0568
  497MOL0     C67017   2.173  10.702  10.597 -0.1891 -0.1523  0.4578
  497MOL0     O67018   2.064  10.787  10.620 -0.4644  0.1946 -0.0590
  497MOL0     C67019   2.040  10.905  10.539  0.2061  0.7006  0.0054
  497MOL0     C67020   1.961  10.888  10.410  0.5802  0.5629  0.0295
  497MOL0     C67021   1.842  10.787  10.424  0.0042 -0.0339  0.0890
  497MOL0     C67022   1.740  10.808  10.530  0.7686 -1.1424  0.4302
  497MOL0     C67023   1.666  10.930  10.499 -0.3282  0.2654 -0.0648
  497MOL0     C67024   1.634  11.039  10.472  0.0584 -0.1255 -0.0942
  497MOL0     C67025   2.227  10.690  10.477  1.4735 -1.3576  0.5261
  497MOL0     C67026   2.330  10.605  10.446  0.2557  0.0487 -0.1457
  497MOL0     C67027   2.379  10.602  10.299  0.0741  0.4131  0.3826
  497MOL0     H67028   2.466  10.132  10.404 -0.6043 -4.3945 -0.2583
  497MOL0     H67029   2.619   9.950  10.346  1.7698  3.4055 -3.4023
  497MOL0     H67030   2.763   9.738  10.422  1.2108 -1.3715 -0.4185
  497MOL0     H67031   2.815   9.861  10.300  1.2825  1.5145 -0.2899
  497MOL0     H67032   3.061   9.764  10.409 -0.5542 -0.7603  0.6765
  497MOL0     H67033   2.971   9.670  10.288 -0.4559 -0.3545 -0.5245
  497MOL0     H67034   2.882   9.529  10.449 -1.3148  1.0436  1.4805
  497MOL0     H67035   2.934   9.631  10.586  1.0961 -2.2200  0.6167
  497MOL0     H67036   3.127   9.499  10.401 -0.2797 -1.1999  0.2122
  497MOL0     H67037   3.163   9.613  10.526  0.1983 -0.5042 -0.5872
  497MOL0     H67038   3.066   9.460  10.701 -0.2106 -0.1294  0.2906
  497MOL0     H67039   3.020   9.343  10.573  0.5077 -0.2233  0.5435
  497MOL0     H67040   3.302   9.420  10.654 -2.1101  3.2122 -1.6630
  497MOL0     H67041   3.224   9.260  10.670  1.7857 -0.8741 -0.7005
  497MOL0     H67042   3.310   9.376  10.415 -3.6024  3.1013  3.4665
  497MOL0     H67043   3.204   9.236  10.418 -1.2475  1.2934  1.8948
  497MOL0     H67044   3.389   9.135  10.581 -1.9322 -2.2334 -2.2805
  497MOL0     H67045   3.417   9.134  10.409  2.8313  0.7390  0.0681
  497MOL0     H67046   3.634   9.267  10.296 -0.4876  2.0566 -1.0228
  497MOL0     H67047   3.797   9.588  10.397 -0.4277 -0.4259  1.7129
  497MOL0     H67048   3.903   9.441  10.397 -1.0535 -2.8693 -1.8460
  497MOL0     H67049   3.880   9.525  10.169  1.5196 -1.6836  0.4465
  497MOL0     H67050   3.795   9.375  10.182  0.1882  1.0456 -1.0656
  497MOL0     H67051   3.687   9.657  10.202 -0.0888 -0.5447  1.7230
  497MOL0     H67052   3.576   9.522  10.211 -0.1431  1.9444 -1.7276
  497MOL0     H67053   3.558   9.569  10.000  1.0752 -3.2784 -1.8917
  497MOL0     H67054   3.673   9.444   9.980 -4.1557 -0.9012  0.7349
  497MOL0     H67055   3.996   9.717  10.032 -3.0744  2.3989 -1.6893
  497MOL0     H67056   4.201   9.655   9.902 -0.0478 -0.7974  0.5767
  497MOL0     H67057   4.362   9.235   9.614 -2.6962  2.6395  0.5423
  497MOL0     H67058   4.552   9.169   9.508 -3.1559  1.1698 -1.1827
  497MOL0     H67059   4.784   9.121   9.458 -0.5321 -1.8747 -2.6224
  497MOL0     H67060   4.747   9.230   9.334  0.6717 -1.8793 -0.0255
  497MOL0     H67061   4.957   9.115   9.299 -2.0703 -0.7067 -0.4825
  497MOL0     H67062   5.001   9.295   9.338 -1.2959  0.9347  1.3421
  497MOL0     H67063   5.005   9.177   9.585 -0.0013  1.7603 -0.2430
  497MOL0     H67064   5.030   9.026   9.490  3.1527 -0.9592 -1.0449
  497MOL0     H67065   5.207   9.270   9.472  1.1109  0.3500 -0.5662
  497MOL0     H67066   5.226   9.127   9.367 -0.1500 -1.3707 -0.0907
  497MOL0     H67067   5.284   8.992   9.563  0.2297 -0.0406 -1.8291
  497MOL0     H67068   5.276   9.134   9.672  1.3282 -0.7197 -0.3362
  497MOL0     H67069   5.462   9.113   9.433 -0.1213 -0.6640 -0.9410
  497MOL0     H67070   5.470   9.245   9.546 -0.0949 -0.3627 -0.1145
  497MOL0     H67071   5.636   9.070   9.573 -0.7385 -1.4871 -1.2096
  497MOL0     H67072   5.510   8.958   9.606 -2.6925  0.7543  2.1101
  497MOL0     H67073   5.555   9.214   9.765 -2.2283  0.8489 -0.0906
  497MOL0     H67074   5.444   9.083   9.807  1.1865 -3.7215  1.2812
  497MOL0     H67075   4.778   9.491   9.678 -0.7847  0.0704  0.2235
  497MOL0     H67076   4.575   9.568   9.799 -1.2044 -0.0498 -0.4199
  497MOL0     H67077   3.941   9.400   9.660 -0.6727 -1.8433  2.1497
  497MOL0     H67078   3.753   9.485   9.759  0.7678 -1.9050  0.4823
  497MOL0     H67079   2.869  10.067  10.668 -1.2957 -0.2200  3.0018
  497MOL0     H67080   2.732  10.276  10.703  0.4096  0.0548 -0.9880
  497MOL0     H67081   2.354  10.449  10.751 -2.3166 -2.4295 -0.6411
  497MOL0     H67082   2.164  10.632  10.790  4.5731 -0.3920  2.8498
  497MOL0     H67083   2.141  10.943  10.518  0.6609 -0.7758 -0.5603
  497MOL0     H67084   1.984  10.978  10.598 -0.3788 -0.8344  1.4283
  497MOL0     H67085   2.028  10.849  10.333 -1.0950  1.7672 -2.1449
  497MOL0     H67086   1.928  10.985  10.370  2.1180  1.1460  0.0958
  497MOL0     H67087   1.875  10.687  10.455 -0.0651 -0.0360  0.1543
  497MOL0     H67088   1.790  10.781  10.328 -1.4207 -1.6178  0.9050
  497MOL0     H67089   1.670  10.725  10.541  0.2971 -0.5800  2.0338
  497MOL0     H67090   1.783  10.824  10.629 -2.7091  0.9863  1.7893
  497MOL0     H67091   1.598  11.134  10.438 -1.6391 -0.5102  0.5356
  497MOL0     H67092   2.190  10.744  10.390 -0.8321  0.5692  2.5372
  497MOL0     H67093   2.484  10.633  10.296  1.2110 -2.9011  2.0002
  497MOL0     H67094   2.370  10.501  10.258  0.3924  0.6711 -0.3498
  497MOL0     H67095   2.314  10.666  10.238 -1.3454 -1.1757  0.1777
  498MOL0     O67096   9.159   4.107   7.302  0.0553  0.3003 -0.7373
  498MOL0     C67097   9.108   4.211   7.329 -0.0326 -0.1225 -0.5530
  498MOL0     O67098   9.177   4.329   7.331 -0.4737 -0.1235  0.4868
  498MOL0     C67099   9.317   4.317   7.315  0.3065 -0.6223  0.6691
  498MOL0     C67100   9.375   4.361   7.194  0.1184  0.2558  0.0148
  498MOL0     C67101   9.512   4.385   7.189  0.4391 -0.6026  0.1205
  498MOL0     C67102   9.599   4.342   7.290  0.2123  0.3539  0.1716
  498MOL0     O67103   9.737   4.354   7.290  0.0413  0.4869 -0.0798
  498MOL0     C67104   9.800   4.343   7.159 -0.5489 -0.0137  0.3607
  498MOL0     C67105   9.932   4.400   7.191 -0.3802  0.2275  0.5806
  498MOL0     C67106  10.009   4.307   7.278 -0.2336  0.6964  0.6191
  498MOL0     C67107  10.135   4.381   7.322 -0.8154 -0.2096 -0.3194
  498MOL0     C67108  10.222   4.286   7.405 -0.0307  0.5068 -0.0316
  498MOL0     C67109  10.368   4.345   7.414 -0.7300  0.5173  0.5770
  498MOL0     C67110  10.453   4.267   7.518 -0.5193  0.5255 -0.0776
  498MOL0     C67111  10.540   4.364   7.593  0.1554  0.0746  0.8442
  498MOL0     N67112  10.595   4.300   7.708  0.5819 -0.5394  0.1674
  498MOL0     C67113  10.725   4.256   7.714 -0.1940  0.6878 -0.0610
  498MOL0     C67114  10.743   4.212   7.836 -0.2249  0.0530 -1.1169
  498MOL0     C67115  10.864   4.134   7.893 -1.5620 -0.9259  0.9602
  498MOL0     C67116  10.949   4.209   7.992 -0.2591 -0.8393 -0.4314
  498MOL0     C67117  11.037   4.107   8.075  0.9613  0.2879  0.2582
  498MOL0     C67118  11.151   4.060   7.986 -0.2308 -0.7576 -0.3464
  498MOL0     O67119  11.230   3.965   8.054  0.4706  0.2882  1.0278
  498MOL0     C67120  11.348   3.917   7.994  0.4349 -0.7475  0.4952
  498MOL0     C67121  11.440   3.852   8.070 -0.0189  0.2501  0.4807
  498MOL0     C67122  11.564   3.803   8.015  0.4006 -0.2720  0.5242
  498MOL0     C67123  11.585   3.809   7.877 -0.3938  0.3789 -0.4568
  498MOL0     C67124  11.704   3.727   7.826 -0.0864  0.3528  0.4158
  498MOL0     O67125  11.814   3.722   7.909  0.2302 -0.3496 -0.4706
  498MOL0     C67126  11.913   3.631   7.878 -0.6355 -0.7066 -0.4515
  498MOL0     C67127  11.910   3.509   7.820  0.2103  0.4469  0.3638
  498MOL0     C67128  12.025   3.438   7.795  0.4547 -0.1585  0.0588
  498MOL0     C67129  12.158   3.480   7.823  0.1313  0.4677 -0.0231
  498MOL0     O67130  12.271   3.407   7.800 -0.2671 -0.2248  0.3745
  498MOL0     C67131  12.266   3.278   7.733 -0.9367  0.0701  0.3068
  498MOL0     C67132  12.283   3.301   7.575 -0.2618  0.1167  0.6287
  498MOL0     C67133  12.208   3.204   7.482  0.6638 -0.0916 -0.0539
  498MOL0     C67134  12.270   3.075   7.461 -0.5086  0.6239 -0.3383
  498MOL0     C67135  12.205   2.989   7.353  0.1239 -0.7232 -0.2066
  498MOL0     C67136  12.304   2.882   7.299  0.6674  0.2351  0.7347
  498MOL0     C67137  12.257   2.813   7.170  0.3180 -0.2662 -0.1371
  498MOL0     C67138  12.107   2.774   7.162  1.5528 -0.5129 -0.3932
  498MOL0    Cl67139  12.066   2.645   7.023  0.0978  0.3903  0.1481
  498MOL0     C67140  12.155   3.596   7.903  0.2483  0.0656  0.7673
  498MOL0     C67141  12.039   3.661   7.929  0.0294 -0.1578  0.0865
  498MOL0     O67142  11.695   3.678   7.715  0.4142  0.8291 -0.1318
  498MOL0     C67143  11.486   3.859   7.798  1.4606 -0.0129 -0.3016
  498MOL0     C67144  11.368   3.921   7.855  0.2071  0.5228  0.2683
  498MOL0     N67145  10.627   4.238   7.913 -0.2711  0.5034  0.1847
  498MOL0     N67146  10.537   4.293   7.836 -0.2369  0.4146  0.5364
  498MOL0     C67147   9.544   4.287   7.403  0.0014 -0.7550 -0.2514
  498MOL0     C67148   9.404   4.293   7.425 -0.1891 -0.5243  0.4554
  498MOL0     C67149   8.961   4.209   7.359 -0.0542 -0.0963 -0.4930
  498MOL0     C67150   8.899   4.090   7.410 -0.2489  0.3374 -0.2747
  498MOL0     C67151   8.759   4.086   7.427 -0.1958 -0.7141 -0.6645
  498MOL0     C67152   8.684   4.202   7.410 -0.6522 -0.0850  0.1629
  498MOL0     O67153   8.549   4.211   7.429 -0.7203  0.3876 -0.0057
  498MOL0     C67154   8.479   4.087   7.440  0.4100 -0.0759  0.6779
  498MOL0     C67155   8.332   4.115   7.434  0.4354  0.0470 -0.0052
  498MOL0     C67156   8.268   4.220   7.522  0.9131 -0.2954  0.3772
  498MOL0     C67157   8.205   4.155   7.643 -0.0670  0.0949  0.3392
  498MOL0     C67158   8.319   4.104   7.726  0.6070  0.2555  0.0182
  498MOL0     C67159   8.411   4.072   7.788 -0.5436  0.7033  0.2748
  498MOL0     C67160   8.741   4.316   7.364 -0.1623 -0.3278 -0.1655
  498MOL0     C67161   8.877   4.322   7.329  0.5233  0.4528 -0.7486
  498MOL0     C67162   8.926   4.451   7.276  0.1728 -0.4004  0.3385
  498MOL0     H67163   9.298   4.394   7.125 -1.2941 -0.1355  1.3477
  498MOL0     H67164   9.550   4.434   7.100  0.7070 -0.2772  0.4095
  498MOL0     H67165   9.811   4.238   7.131  3.7159 -0.3325  2.4244
  498MOL0     H67166   9.750   4.401   7.081 -1.3973 -1.6209 -0.3270
  498MOL0     H67167   9.923   4.501   7.233 -0.1931  0.6248 -0.3033
  498MOL0     H67168   9.995   4.395   7.102  0.4525  1.9396  1.0243
  498MOL0     H67169  10.034   4.214   7.226  0.9742  1.3083  0.0756
  498MOL0     H67170   9.958   4.290   7.374  3.6171  2.1312  3.1354
  498MOL0     H67171  10.203   4.388   7.237  0.6233 -0.1622  0.7897
  498MOL0     H67172  10.128   4.476   7.375 -1.3447 -0.1032 -0.5765
  498MOL0     H67173  10.185   4.274   7.507  1.1910  2.9219  0.7678
  498MOL0     H67174  10.219   4.188   7.356 -2.0578  0.1267  0.7774
  498MOL0     H67175  10.425   4.351   7.321  1.3921 -0.8917  1.7046
  498MOL0     H67176  10.364   4.446   7.456  2.2354  0.2537  1.7197
  498MOL0     H67177  10.506   4.186   7.468  2.1874  0.9642  1.8832
  498MOL0     H67178  10.390   4.218   7.592 -1.5505  0.7778 -0.7571
  498MOL0     H67179  10.618   4.393   7.522  0.9730 -1.0201  1.2645
  498MOL0     H67180  10.477   4.450   7.616 -1.6629 -0.3144 -2.1564
  498MOL0     H67181  10.789   4.255   7.627 -1.5421  1.5804 -1.1007
  498MOL0     H67182  10.817   4.041   7.927 -2.6054 -1.3893 -1.5219
  498MOL0     H67183  10.925   4.113   7.805 -1.2906  2.3532  0.2318
  498MOL0     H67184  11.011   4.281   7.937 -3.0493  0.9397 -1.4568
  498MOL0     H67185  10.879   4.257   8.060 -0.0206  1.5064 -1.7347
  498MOL0     H67186  10.976   4.025   8.113 -2.5185  0.1650 -4.6569
  498MOL0     H67187  11.077   4.157   8.163 -1.7309  2.3442  0.4079
  498MOL0     H67188  11.209   4.148   7.959  0.2184 -0.8978  0.1545
  498MOL0     H67189  11.117   4.012   7.893  1.9180  0.0237 -1.6168
  498MOL0     H67190  11.424   3.850   8.177  0.3574 -0.0554  0.5328
  498MOL0     H67191  11.627   3.745   8.081  0.9034  0.1234  0.4015
  498MOL0     H67192  11.817   3.472   7.779  0.3009 -1.5646  1.8439
  498MOL0     H67193  12.009   3.348   7.737 -2.0876  0.0287  0.3648
  498MOL0     H67194  12.360   3.229   7.761 -0.0594  0.7389 -1.2878
  498MOL0     H67195  12.176   3.218   7.744 -1.6948  1.3963  1.5546
  498MOL0     H67196  12.236   3.397   7.553  0.9672  0.2563 -1.7437
  498MOL0     H67197  12.386   3.297   7.538 -1.2168 -1.8444 -2.1897
  498MOL0     H67198  12.102   3.199   7.508  0.6793 -0.0457  0.0204
  498MOL0     H67199  12.212   3.242   7.379 -0.5972 -2.5923 -1.1155
  498MOL0     H67200  12.260   3.000   7.540  0.1819 -0.1846 -0.9953
  498MOL0     H67201  12.375   3.095   7.437  0.4589 -1.4169  1.8474
  498MOL0     H67202  12.181   3.046   7.262  1.0245  1.2304  0.7045
  498MOL0     H67203  12.113   2.945   7.392  0.9072 -0.4800  2.0926
  498MOL0     H67204  12.407   2.917   7.294  0.3396  1.1947  0.5694
  498MOL0     H67205  12.300   2.810   7.382  0.3972  0.9069  1.3154
  498MOL0     H67206  12.315   2.720   7.166 -2.2265 -1.9963  0.7853
  498MOL0     H67207  12.271   2.869   7.077  0.0570 -0.7767 -0.4899
  498MOL0     H67208  12.071   2.733   7.257  1.0745  3.0235  1.1013
  498MOL0     H67209  12.059   2.871   7.147 -0.4881 -1.6595 -1.7838
  498MOL0     H67210  12.245   3.638   7.946  0.1576 -1.1365  2.2328
  498MOL0     H67211  12.045   3.745   7.997  0.5576 -1.2059  1.3835
  498MOL0     H67212  11.500   3.865   7.691 -0.3698 -1.7229 -0.6951
  498MOL0     H67213  11.314   3.977   7.779 -1.1682 -1.3142 -0.1706
  498MOL0     H67214   9.611   4.252   7.481  1.4574  0.1979 -1.0326
  498MOL0     H67215   9.366   4.258   7.520  0.5342 -2.0045  0.2337
  498MOL0     H67216   8.956   4.000   7.428  1.1002  1.0657 -0.8088
  498MOL0     H67217   8.713   3.992   7.456 -0.3164 -0.9129 -1.4571
  498MOL0     H67218   8.491   4.023   7.528 -1.3462 -1.1398  0.2052
  498MOL0     H67219   8.493   4.022   7.353 -1.1247 -1.7601  1.6134
  498MOL0     H67220   8.275   4.021   7.437 -2.1218  1.5096 -0.1359
  498MOL0     H67221   8.313   4.155   7.334  2.5062  1.7164  0.2265
  498MOL0     H67222   8.189   4.272   7.466  0.8002 -1.7399 -0.8705
  498MOL0     H67223   8.343   4.296   7.546  1.4772 -0.7459  0.0521
  498MOL0     H67224   8.136   4.224   7.693 -1.2720 -1.5312  1.0259
  498MOL0     H67225   8.145   4.074   7.599  0.2699  0.7397 -1.3743
  498MOL0     H67226   8.495   4.034   7.843 -2.4030 -4.4854  0.0642
  498MOL0     H67227   8.675   4.399   7.341 -0.3639  0.0275  1.5552
  498MOL0     H67228   8.951   4.523   7.354  0.8001 -2.2783  1.9730
  498MOL0     H67229   9.011   4.429   7.210  0.3509  0.6807  0.1951
  498MOL0     H67230   8.839   4.493   7.225  1.0922  0.7306 -0.3566
  499MOL0     O67231   5.786   7.384   8.890 -0.2000  0.3076  0.5656
  499MOL0     C67232   5.712   7.346   8.977  1.0461  0.2194 -0.4544
  499MOL0     O67233   5.750   7.320   9.110 -0.0192 -0.1435 -0.6295
  499MOL0     C67234   5.880   7.340   9.146 -0.9153  0.3159  0.2563
  499MOL0     C67235   5.971   7.227   9.157  0.2712 -0.2495 -0.2347
  499MOL0     C67236   6.107   7.257   9.193  0.1882  0.6882 -0.2111
  499MOL0     C67237   6.145   7.392   9.225  0.3528 -0.1031 -0.4189
  499MOL0     O67238   6.264   7.429   9.277  0.2909  0.0214  0.0701
  499MOL0     C67239   6.364   7.327   9.296  0.6141 -0.0567  0.1979
  499MOL0     C67240   6.448   7.290   9.170 -0.4355  0.4952 -0.1210
  499MOL0     C67241   6.531   7.162   9.197  0.3721 -0.3488 -0.6721
  499MOL0     C67242   6.685   7.199   9.174 -0.2269  0.7178  0.1291
  499MOL0     C67243   6.773   7.072   9.199  0.5692  0.2249  0.0537
  499MOL0     C67244   6.922   7.097   9.208 -0.4488  1.0136  0.1821
  499MOL0     C67245   6.997   6.962   9.241 -0.1108 -0.9103  0.0174
  499MOL0     C67246   7.113   6.967   9.341 -0.1826 -0.2877 -0.2019
  499MOL0     N67247   7.193   7.095   9.321 -0.3897  0.6269 -0.3809
  499MOL0     C67248   7.306   7.108   9.236 -0.1646 -0.4493  0.6544
  499MOL0     C67249   7.350   7.235   9.262 -0.2683  0.3708 -0.2865
  499MOL0     C67250   7.472   7.295   9.197 -0.0900 -0.6559  0.2317
  499MOL0     C67251   7.587   7.200   9.192  0.2514 -1.3121 -0.8209
  499MOL0     C67252   7.723   7.279   9.164  0.8031  0.0237  1.2088
  499MOL0     C67253   7.752   7.297   9.020 -0.0998 -0.3864  0.9752
  499MOL0     O67254   7.781   7.166   8.966 -1.1346  0.1159  0.1046
  499MOL0     C67255   7.906   7.134   8.916  0.8749 -0.3749 -0.5082
  499MOL0     C67256   7.912   7.024   8.838 -0.2059 -0.5250 -0.5483
  499MOL0     C67257   8.034   6.985   8.775 -0.1012  1.0466  0.5479
  499MOL0     C67258   8.146   7.065   8.790  0.4121 -0.5324  0.3649
  499MOL0     C67259   8.275   7.030   8.710 -0.7492 -0.1707  0.0261
  499MOL0     O67260   8.275   6.919   8.633  0.3979  0.4335  0.3278
  499MOL0     C67261   8.374   6.906   8.546 -0.2493  0.5737 -0.5953
  499MOL0     C67262   8.422   6.994   8.449  0.1953 -0.6874  0.4293
  499MOL0     C67263   8.537   6.958   8.369  0.3660 -0.2883 -0.1523
  499MOL0     C67264   8.606   6.839   8.397  0.2904  0.3346  0.1920
  499MOL0     O67265   8.719   6.809   8.330 -0.0005 -0.2922 -0.0698
  499MOL0     C67266   8.719   6.825   8.184  0.1980 -0.1661 -0.2265
  499MOL0     C67267   8.834   6.740   8.135  0.0382 -0.3816  0.5282
  499MOL0     C67268   8.961   6.778   8.208 -0.7765 -0.1588 -0.0852
  499MOL0     C67269   9.085   6.784   8.113 -0.0355 -0.2191 -0.6092
  499MOL0     C67270   9.122   6.640   8.077 -0.2406 -0.9549 -0.7493
  499MOL0     C67271   9.270   6.641   8.042  0.3507 -0.0322  0.3611
  499MOL0     C67272   9.309   6.524   7.956  0.6327  0.5802  0.0770
  499MOL0     C67273   9.457   6.535   7.933  0.2141 -1.1014 -0.0974
  499MOL0    Cl67274   9.544   6.464   8.056 -0.1665 -0.0105  0.1129
  499MOL0     C67275   8.547   6.746   8.484  0.0491 -0.3214 -0.4556
  499MOL0     C67276   8.443   6.781   8.561 -0.3533  0.2851 -0.3294
  499MOL0     O67277   8.372   7.105   8.734  0.0098 -0.0070  0.5539
  499MOL0     C67278   8.135   7.172   8.866  0.8247 -0.5878  0.4515
  499MOL0     C67279   8.024   7.211   8.926  0.4528 -0.5995  0.1902
  499MOL0     N67280   7.288   7.289   9.372  0.6568 -0.0114  0.9884
  499MOL0     N67281   7.185   7.209   9.392 -1.0551 -0.7085 -0.6883
  499MOL0     C67282   6.046   7.493   9.216 -0.2655  0.3163 -0.7725
  499MOL0     C67283   5.921   7.465   9.180  0.3931 -0.4222  0.3860
  499MOL0     C67284   5.561   7.344   8.947  0.3778  0.0300 -0.1190
  499MOL0     C67285   5.483   7.257   9.027  0.7185 -0.7098 -1.0445
  499MOL0     C67286   5.359   7.220   8.984 -0.2712 -0.3241 -0.0340
  499MOL0     C67287   5.297   7.271   8.871 -0.4716  0.0550  0.5921
  499MOL0     O67288   5.177   7.220   8.821 -0.1092 -0.6630  0.4804
  499MOL0     C67289   5.124   7.288   8.710  0.7040  0.1916 -0.2763
  499MOL0     C67290   4.978   7.237   8.698 -0.0501 -0.1451 -0.1669
  499MOL0     C67291   4.908   7.331   8.594  0.1380  0.3413 -0.3296
  499MOL0     C67292   4.773   7.263   8.554  0.6682  0.2720  0.5516
  499MOL0     C67293   4.688   7.253   8.670 -0.1658  0.0791  0.1489
  499MOL0     C67294   4.599   7.240   8.750  1.0823  0.2915  0.1255
  499MOL0     C67295   5.371   7.366   8.796 -0.2802 -0.8840 -0.6400
  499MOL0     C67296   5.502   7.412   8.838 -0.8097  0.1610 -0.3807
  499MOL0     C67297   5.569   7.509   8.756 -0.2550 -0.1231  0.2831
  499MOL0     H67298   5.933   7.128   9.134  0.0215 -0.1822 -0.1100
  499MOL0     H67299   6.172   7.171   9.189 -0.7593 -0.0722  0.4087
  499MOL0     H67300   6.426   7.359   9.380  3.2867  1.8831 -2.3078
  499MOL0     H67301   6.328   7.233   9.339  0.4823 -0.0492  0.1043
  499MOL0     H67302   6.518   7.371   9.146  0.3924 -0.3981 -0.7967
  499MOL0     H67303   6.370   7.273   9.095  0.6438 -1.9195 -0.7828
  499MOL0     H67304   6.494   7.084   9.130  3.2044  0.7985 -3.8388
  499MOL0     H67305   6.525   7.129   9.301  1.2168  1.6263  0.0536
  499MOL0     H67306   6.683   7.237   9.071 -3.1528  2.2550  0.6373
  499MOL0     H67307   6.704   7.282   9.243  0.1885  1.1370 -0.4806
  499MOL0     H67308   6.746   7.023   9.292 -0.5678 -1.1129 -0.9508
  499MOL0     H67309   6.748   6.996   9.125 -3.5549 -0.8157  2.2617
  499MOL0     H67310   6.954   7.134   9.110  0.6985  1.3332  0.6624
  499MOL0     H67311   6.947   7.171   9.285  1.0212  1.2266 -0.4669
  499MOL0     H67312   7.026   6.914   9.147 -1.6349 -1.3323 -0.2565
  499MOL0     H67313   6.929   6.882   9.273 -0.0061 -0.9158  0.2306
  499MOL0     H67314   7.066   6.966   9.440 -1.8002  0.4420 -0.9144
  499MOL0     H67315   7.167   6.873   9.334 -2.7537 -1.8472 -0.5733
  499MOL0     H67316   7.362   7.037   9.175 -2.6240 -2.4184  0.5203
  499MOL0     H67317   7.450   7.337   9.098 -0.4187  0.9331  0.9340
  499MOL0     H67318   7.496   7.380   9.262  0.3082 -1.5179  1.2419
  499MOL0     H67319   7.601   7.148   9.287  0.7653  0.7010  0.2703
  499MOL0     H67320   7.572   7.130   9.109 -0.5094 -0.2426 -1.6268
  499MOL0     H67321   7.806   7.230   9.217  3.7010  0.4706 -2.5346
  499MOL0     H67322   7.717   7.381   9.202  0.1345  0.9637 -1.2366
  499MOL0     H67323   7.827   7.376   9.007 -1.2269  0.6283  0.4333
  499MOL0     H67324   7.662   7.329   8.966  0.2914  0.9657  1.0840
  499MOL0     H67325   7.817   6.975   8.817 -1.2836  0.4390  1.7582
  499MOL0     H67326   8.048   6.901   8.707  0.5890  0.0280  1.8804
  499MOL0     H67327   8.388   7.096   8.434  1.0557 -0.5718 -0.7896
  499MOL0     H67328   8.575   7.029   8.297  2.2297 -1.8923 -0.8340
  499MOL0     H67329   8.624   6.791   8.141 -1.1195  3.0766 -0.1715
  499MOL0     H67330   8.737   6.932   8.169 -1.7888  0.3225  0.5960
  499MOL0     H67331   8.813   6.636   8.164 -2.2513  0.9363  4.3149
  499MOL0     H67332   8.834   6.747   8.026  2.2919 -2.6879  0.2680
  499MOL0     H67333   8.952   6.883   8.237 -0.5005 -0.4913  1.2547
  499MOL0     H67334   8.969   6.721   8.300 -0.5764  0.4381  0.2710
  499MOL0     H67335   9.171   6.841   8.150  0.9534 -1.1626 -1.3944
  499MOL0     H67336   9.061   6.841   8.023 -0.3166  0.8815  0.1374
  499MOL0     H67337   9.053   6.602   8.001 -1.6069  1.5293 -0.8616
  499MOL0     H67338   9.115   6.568   8.160  0.3727  1.3053  1.3777
  499MOL0     H67339   9.273   6.729   7.977  0.7473 -2.3721 -3.0357
  499MOL0     H67340   9.346   6.664   8.118  1.5591  2.5754 -1.5005
  499MOL0     H67341   9.245   6.529   7.868 -0.6770  0.1110  0.9819
  499MOL0     H67342   9.293   6.434   8.016  0.7634 -1.2515 -2.4841
  499MOL0     H67343   9.484   6.484   7.840 -0.6648 -2.2176  0.2345
  499MOL0     H67344   9.486   6.639   7.916 -0.9471 -0.8617 -0.7720
  499MOL0     H67345   8.591   6.647   8.484 -1.3635 -1.0003 -1.8169
  499MOL0     H67346   8.387   6.710   8.621 -1.8143  0.5772 -1.2894
  499MOL0     H67347   8.228   7.227   8.880  0.8626 -1.0663  2.2422
  499MOL0     H67348   8.032   7.299   8.989 -0.7612  0.7115 -1.3906
  499MOL0     H67349   6.075   7.595   9.240 -2.8219  1.5181 -2.3033
  499MOL0     H67350   5.851   7.547   9.185  1.9851  0.9995  0.5168
  499MOL0     H67351   5.526   7.209   9.114  1.1399  0.2131 -0.7272
  499MOL0     H67352   5.300   7.145   9.036 -3.7583  1.1120 -1.5815
  499MOL0     H67353   5.170   7.257   8.615 -1.5031  3.0887 -2.4785
  499MOL0     H67354   5.132   7.396   8.721  1.4414  0.3565 -2.0059
  499MOL0     H67355   4.933   7.255   8.796  0.1342 -0.7571  0.0358
  499MOL0     H67356   4.971   7.131   8.672  2.7188 -0.3859 -0.2291
  499MOL0     H67357   4.967   7.322   8.502  0.2298 -0.4379 -0.1991
  499MOL0     H67358   4.892   7.435   8.622 -1.6231  0.4260 -1.5013
  499MOL0     H67359   4.721   7.324   8.479  0.3260 -0.6817  0.0045
  499MOL0     H67360   4.790   7.164   8.512  0.6957 -0.1158  1.4676
  499MOL0     H67361   4.533   7.217   8.832  0.0100  1.8289 -0.2610
  499MOL0     H67362   5.334   7.411   8.705  1.0436 -0.3880 -0.9513
  499MOL0     H67363   5.505   7.560   8.683  1.9246 -1.0002 -2.4602
  499MOL0     H67364   5.608   7.584   8.825 -1.9675  1.2970 -0.1980
  499MOL0     H67365   5.652   7.463   8.702 -1.3983  0.7016 -2.3562
  500MOL0     O67366   3.957   4.098   1.746  0.8005  0.1026 -0.6826
  500MOL0     C67367   3.850   4.073   1.808  0.5344 -0.5891  0.5001
  500MOL0     O67368   3.849   4.012   1.932  0.0931  0.5614  0.5821
  500MOL0     C67369   3.958   3.949   1.987 -0.5858 -0.1506  0.3392
  500MOL0     C67370   3.949   3.930   2.122  0.5630 -0.1834 -0.3659
  500MOL0     C67371   4.053   3.876   2.188 -0.5818  0.0489 -0.2331
  500MOL0     C67372   4.155   3.813   2.121  1.3121 -0.5576  0.4151
  500MOL0     O67373   4.251   3.742   2.176  0.0624  0.1412 -0.3634
  500MOL0     C67374   4.256   3.720   2.315 -0.9019 -0.0255 -0.6605
  500MOL0     C67375   4.354   3.608   2.342 -0.0982 -0.1635  0.1783
  500MOL0     C67376   4.509   3.639   2.334 -0.6686  0.2005 -0.8828
  500MOL0     C67377   4.565   3.684   2.470  0.0373 -0.2603  0.3216
  500MOL0     C67378   4.716   3.688   2.493 -0.3330 -0.8916  0.5741
  500MOL0     C67379   4.780   3.831   2.505  0.8337 -0.2771  0.7915
  500MOL0     C67380   4.913   3.803   2.572 -0.3986 -0.6501 -0.7795
  500MOL0     C67381   5.029   3.745   2.479  0.3877 -0.5545 -0.3078
  500MOL0     N67382   5.150   3.691   2.551 -0.6232  0.1874 -0.1427
  500MOL0     C67383   5.257   3.768   2.596 -0.1164  0.9039  0.5188
  500MOL0     C67384   5.354   3.680   2.637  0.8535  0.2383 -0.7144
  500MOL0     C67385   5.473   3.713   2.712  0.5460  0.1372 -0.2059
  500MOL0     C67386   5.460   3.682   2.867 -0.5141 -0.1724  0.0693
  500MOL0     C67387   5.576   3.753   2.942 -0.6351  0.2432 -0.2263
  500MOL0     C67388   5.572   3.705   3.090  0.5607  0.2517 -0.3084
  500MOL0     O67389   5.586   3.565   3.114  0.2627  0.4141 -0.5889
  500MOL0     C67390   5.714   3.534   3.153 -0.1017  1.0856  0.0153
  500MOL0     C67391   5.728   3.410   3.222  0.5467 -0.8334  0.0210
  500MOL0     C67392   5.850   3.354   3.260  0.0501 -0.9208 -0.0893
  500MOL0     C67393   5.966   3.430   3.237 -0.0162  1.3207 -0.1629
  500MOL0     C67394   6.098   3.365   3.271 -1.3399 -0.4107 -0.3928
  500MOL0     O67395   6.218   3.436   3.245  0.0647  0.0675  0.3511
  500MOL0     C67396   6.338   3.402   3.295 -0.0428 -0.3491  0.3735
  500MOL0     C67397   6.361   3.362   3.426 -0.7516 -0.6627  0.4812
  500MOL0     C67398   6.487   3.333   3.478  0.2590  0.6954  0.5480
  500MOL0     C67399   6.598   3.340   3.397 -0.7946 -0.0757  0.0473
  500MOL0     O67400   6.715   3.327   3.471  0.4364  0.8116 -0.6407
  500MOL0     C67401   6.842   3.321   3.409  0.8179  0.5867  0.0426
  500MOL0     C67402   6.854   3.198   3.312 -0.7240 -0.0931 -0.3077
  500MOL0     C67403   7.000   3.193   3.265 -0.0042 -0.1015  0.6281
  500MOL0     C67404   7.019   3.066   3.178  0.2305 -0.2788 -0.5781
  500MOL0     C67405   6.972   3.066   3.037 -0.1799 -0.7165  0.4519
  500MOL0     C67406   7.011   3.191   2.950 -0.1251 -0.0258 -0.2363
  500MOL0     C67407   6.986   3.185   2.799  0.2307  0.4993  0.2883
  500MOL0     C67408   7.060   3.078   2.721  0.2217 -0.1441 -0.3447
  500MOL0    Cl67409   7.001   3.082   2.557  0.3048  0.3577  0.1420
  500MOL0     C67410   6.577   3.382   3.261 -0.2225  0.3594 -0.4064
  500MOL0     C67411   6.447   3.400   3.212 -0.7464 -0.0368  0.5610
  500MOL0     O67412   6.096   3.253   3.319 -0.1914  0.5082 -0.8004
  500MOL0     C67413   5.960   3.551   3.169  0.1044 -0.4929 -0.7082
  500MOL0     C67414   5.832   3.612   3.126 -0.2933 -0.4737  0.4936
  500MOL0     N67415   5.294   3.552   2.625 -0.1742 -0.1397  0.7365
  500MOL0     N67416   5.175   3.560   2.570 -0.3365 -0.5216 -0.0567
  500MOL0     C67417   4.164   3.823   1.982  0.1908 -0.0786 -0.0496
  500MOL0     C67418   4.068   3.899   1.914 -0.1275 -0.1034  0.4618
  500MOL0     C67419   3.720   4.128   1.754 -0.1888 -0.1094 -0.0984
  500MOL0     C67420   3.718   4.177   1.625 -0.2673  0.9350  0.1558
  500MOL0     C67421   3.604   4.212   1.554 -0.4694 -0.4806  0.6151
  500MOL0     C67422   3.481   4.211   1.611  0.2256  0.8824 -0.5234
  500MOL0     O67423   3.375   4.257   1.536 -0.0515 -0.4639 -0.4740
  500MOL0     C67424   3.244   4.261   1.599  1.1412 -0.0131  0.4331
  500MOL0     C67425   3.161   4.347   1.505  0.0658  0.1874  0.2171
  500MOL0     C67426   3.209   4.492   1.503  0.4173  0.0992 -0.4530
  500MOL0     C67427   3.107   4.575   1.433 -0.5935 -0.5526 -0.6513
  500MOL0     C67428   2.984   4.597   1.521 -0.9188 -0.5336 -0.3252
  500MOL0     C67429   2.881   4.612   1.575  0.3332  0.7877  0.5568
  500MOL0     C67430   3.480   4.175   1.746  0.0020  0.1593  0.4837
  500MOL0     C67431   3.591   4.139   1.820  0.7207 -0.0986  0.6917
  500MOL0     C67432   3.562   4.087   1.949 -0.5003  0.3886 -0.5852
  500MOL0     H67433   3.861   3.968   2.173 -0.9850 -0.3250 -2.8057
  500MOL0     H67434   4.061   3.869   2.296  0.6625 -2.0710 -0.4256
  500MOL0     H67435   4.297   3.805   2.371 -1.0196 -0.0053 -0.6037
  500MOL0     H67436   4.162   3.699   2.368 -0.5755  0.9999  0.3476
  500MOL0     H67437   4.325   3.530   2.271 -1.1575  2.4180 -2.4262
  500MOL0     H67438   4.341   3.596   2.450  1.3572 -1.9198  0.2144
  500MOL0     H67439   4.528   3.718   2.262  2.1607  2.2121  1.8043
  500MOL0     H67440   4.563   3.549   2.305  1.0989  1.3209 -1.1701
  500MOL0     H67441   4.523   3.782   2.493  1.8057  0.7955 -0.7049
  500MOL0     H67442   4.533   3.608   2.542  1.8969 -2.1838 -0.7511
  500MOL0     H67443   4.734   3.634   2.586 -1.1372  0.3211  1.4641
  500MOL0     H67444   4.767   3.641   2.408 -1.5000 -0.7765 -0.2166
  500MOL0     H67445   4.792   3.887   2.412  0.8787 -1.0188  0.3492
  500MOL0     H67446   4.730   3.891   2.582  0.0460 -2.2458  1.8917
  500MOL0     H67447   4.901   3.737   2.659 -0.2548 -1.1970 -1.1675
  500MOL0     H67448   4.959   3.891   2.617 -1.1991 -0.4386 -0.3593
  500MOL0     H67449   4.984   3.661   2.425  0.6898 -0.3172 -0.9386
  500MOL0     H67450   5.051   3.828   2.412 -0.6514 -1.0402 -1.2945
  500MOL0     H67451   5.255   3.876   2.605 -0.4621  0.8574  1.0259
  500MOL0     H67452   5.557   3.655   2.672  1.4616  1.5174 -0.3403
  500MOL0     H67453   5.490   3.820   2.696 -0.1765  0.3910  0.6501
  500MOL0     H67454   5.365   3.721   2.903 -0.4592  0.9574 -0.9447
  500MOL0     H67455   5.476   3.575   2.881  1.2194 -0.1240 -1.0830
  500MOL0     H67456   5.574   3.862   2.934  0.5210  0.1509 -3.2390
  500MOL0     H67457   5.670   3.734   2.889 -1.2707  0.3198 -1.4149
  500MOL0     H67458   5.466   3.716   3.114  0.4527  1.5256 -1.2270
  500MOL0     H67459   5.627   3.763   3.165  0.6883 -1.7697  1.2597
  500MOL0     H67460   5.632   3.368   3.249 -0.4244  0.4993 -1.1769
  500MOL0     H67461   5.848   3.252   3.298  0.1487 -1.3566 -1.2077
  500MOL0     H67462   6.280   3.352   3.497 -2.4652  2.1274 -0.9079
  500MOL0     H67463   6.488   3.326   3.586 -0.9565  0.5922  0.5753
  500MOL0     H67464   6.859   3.410   3.348  2.7808 -0.5301 -1.1439
  500MOL0     H67465   6.916   3.325   3.489 -2.8320  1.4191  3.7213
  500MOL0     H67466   6.820   3.110   3.368  0.6720  2.2189  4.7495
  500MOL0     H67467   6.784   3.214   3.229  1.5058  0.1508 -2.2442
  500MOL0     H67468   7.031   3.280   3.206 -1.2311 -1.1178 -1.6305
  500MOL0     H67469   7.060   3.170   3.354  1.2024 -0.5999 -0.2854
  500MOL0     H67470   6.965   2.988   3.231 -1.7967  1.8789  0.7350
  500MOL0     H67471   7.126   3.040   3.176  0.0244 -1.2996  0.4514
  500MOL0     H67472   6.863   3.053   3.037 -0.0775 -2.0791  2.5020
  500MOL0     H67473   7.012   2.972   2.999  0.1167 -0.1962 -0.5608
  500MOL0     H67474   6.951   3.270   2.995  1.8146  0.8765  0.9271
  500MOL0     H67475   7.114   3.220   2.973 -1.1118  1.8030  2.2158
  500MOL0     H67476   6.995   3.283   2.753 -3.0556  0.8692  0.2052
  500MOL0     H67477   6.880   3.156   2.791  0.5546 -0.7542  0.2626
  500MOL0     H67478   7.166   3.104   2.720  0.9300 -2.5601  1.8107
  500MOL0     H67479   7.045   2.975   2.752  0.4326 -0.3101 -0.7903
  500MOL0     H67480   6.654   3.402   3.188 -0.1362 -0.7066 -0.6187
  500MOL0     H67481   6.437   3.430   3.108 -0.8754 -0.2296  0.5177
  500MOL0     H67482   6.045   3.614   3.146 -0.6893  0.9367  0.1007
  500MOL0     H67483   5.828   3.703   3.068  0.0143  0.6093  2.1288
  500MOL0     H67484   4.248   3.771   1.936 -1.3744 -1.5345 -1.4132
  500MOL0     H67485   4.081   3.904   1.806 -0.5673 -3.5071  0.1388
  500MOL0     H67486   3.815   4.198   1.582  1.5147  0.3258  3.5259
  500MOL0     H67487   3.622   4.262   1.459 -0.6157  1.0874  1.3874
  500MOL0     H67488   3.243   4.312   1.696 -0.0282  0.5240  0.1489
  500MOL0     H67489   3.189   4.167   1.611 -2.7266  1.7768 -1.3770
  500MOL0     H67490   3.059   4.342   1.543 -0.2911  1.5524 -0.5087
  500MOL0     H67491   3.151   4.291   1.412 -1.7623 -0.4483  0.7660
  500MOL0     H67492   3.310   4.501   1.462 -0.5431  1.1802 -2.7959
  500MOL0     H67493   3.221   4.518   1.609  4.6467 -2.3851 -0.1080
  500MOL0     H67494   3.150   4.668   1.396 -1.7625 -0.0426 -0.7485
  500MOL0     H67495   3.076   4.512   1.348 -0.5692 -2.8982  0.9748
  500MOL0     H67496   2.791   4.607   1.632  0.9583 -1.4799  1.4812
  500MOL0     H67497   3.385   4.154   1.794  0.9348 -0.2624  2.2059
  500MOL0     H67498   3.549   3.980   1.934  0.6876  0.6118 -4.0719
  500MOL0     H67499   3.646   4.108   2.017 -0.4444  0.5571 -0.7051
  500MOL0     H67500   3.479   4.134   2.002  1.4243  0.9426  2.1756
  501MOL0     O67501   7.634   8.912   6.891 -0.7587 -0.0245  0.1651
  501MOL0     C67502   7.553   8.999   6.865  0.4264 -0.4553 -0.4014
  501MOL0     O67503   7.581   9.116   6.806 -0.6063  0.8284 -0.4468
  501MOL0     C67504   7.711   9.153   6.785 -0.3669  0.0296 -0.5072
  501MOL0     C67505   7.779   9.255   6.860 -0.3899  0.1184  0.4701
  501MOL0     C67506   7.910   9.298   6.834  0.1575  0.2288  0.6433
  501MOL0     C67507   7.973   9.234   6.723  0.3680 -0.7122  0.1952
  501MOL0     O67508   8.100   9.266   6.679  0.6196  0.4151  0.7415
  501MOL0     C67509   8.161   9.386   6.726  0.0888  0.4017  0.0573
  501MOL0     C67510   8.291   9.384   6.650 -0.7002 -0.7847  0.3127
  501MOL0     C67511   8.391   9.488   6.706  0.4008  0.5468  0.2089
  501MOL0     C67512   8.528   9.469   6.630 -0.2179  0.0090 -0.6328
  501MOL0     C67513   8.644   9.554   6.685 -0.1216 -0.3661  0.1032
  501MOL0     C67514   8.773   9.526   6.619  0.0921 -0.0303 -0.3009
  501MOL0     C67515   8.860   9.650   6.618  0.0162 -0.5696  0.3044
  501MOL0     C67516   8.999   9.623   6.565 -0.3639 -0.7439 -0.1260
  501MOL0     N67517   9.069   9.754   6.549 -0.3198  0.7352  0.0158
  501MOL0     C67518   9.043   9.847   6.450 -0.3825  0.2735 -0.3945
  501MOL0     C67519   9.116   9.955   6.486 -0.0025 -0.7011  0.9693
  501MOL0     C67520   9.122  10.086   6.404 -0.4456 -0.1408  0.4620
  501MOL0     C67521   9.276  10.114   6.406 -0.5261 -0.6905 -0.0113
  501MOL0     C67522   9.310  10.238   6.326 -0.3835 -0.4566 -0.4756
  501MOL0     C67523   9.463  10.272   6.331  0.4882  0.0203 -0.6973
  501MOL0     O67524   9.536  10.218   6.219  0.7300  0.6892 -0.0271
  501MOL0     C67525   9.638  10.292   6.172  0.1507  0.8200  0.1337
  501MOL0     C67526   9.640  10.350   6.047  0.2002  0.0254  0.4234
  501MOL0     C67527   9.754  10.422   6.005 -0.2951  0.1608  0.2754
  501MOL0     C67528   9.875  10.410   6.079 -0.2361  0.1893 -0.1871
  501MOL0     C67529  10.001  10.473   6.035  0.3760 -0.0559 -0.0341
  501MOL0     O67530  10.115  10.420   6.090 -0.2231 -0.0356 -0.6185
  501MOL0     C67531  10.244  10.458   6.066  0.2731  0.2434  0.2616
  501MOL0     C67532  10.284  10.590   6.028  0.4019  0.6135 -0.2317
  501MOL0     C67533  10.423  10.624   6.016  0.0197 -0.0352 -0.8259
  501MOL0     C67534  10.514  10.528   6.032  0.1118  0.4411  1.1702
  501MOL0     O67535  10.650  10.558   6.024 -0.2401  0.0261 -0.0471
  501MOL0     C67536  10.691  10.653   5.935  0.1971  1.1278 -0.1172
  501MOL0     C67537  10.838  10.616   5.901 -0.6525  0.1209  0.2594
  501MOL0     C67538  10.930  10.664   6.009  0.3340  1.2786  1.1156
  501MOL0     C67539  11.069  10.600   6.002  0.5745 -0.0180  0.5782
  501MOL0     C67540  11.143  10.629   6.132 -0.2905 -0.2904  0.1597
  501MOL0     C67541  11.176  10.781   6.171  0.8834 -0.7540  0.4694
  501MOL0     C67542  11.277  10.768   6.283 -0.4287  0.5156  0.0904
  501MOL0     C67543  11.285  10.899   6.360 -0.0641 -0.2147  0.0967
  501MOL0    Cl67544  11.400  11.018   6.292 -0.0908  0.0424  0.3866
  501MOL0     C67545  10.482  10.395   6.071  0.4454  0.6919 -0.1276
  501MOL0     C67546  10.347  10.357   6.089  0.0449 -0.0043 -0.1312
  501MOL0     O67547   9.996  10.563   5.953  0.3083 -0.2311  0.4346
  501MOL0     C67548   9.873  10.340   6.202 -0.8019  0.0194  0.0550
  501MOL0     C67549   9.752  10.288   6.249  0.5355  0.0909 -0.6203
  501MOL0     N67550   9.179   9.922   6.610  0.2850  0.6625  0.4186
  501MOL0     N67551   9.143   9.806   6.646 -0.5710  0.1595 -1.0138
  501MOL0     C67552   7.906   9.137   6.653  0.6397 -0.7091  0.1677
  501MOL0     C67553   7.779   9.089   6.688  0.2874 -0.8902  0.4293
  501MOL0     C67554   7.411   8.979   6.910  1.2992  0.0790  0.3464
  501MOL0     C67555   7.382   8.846   6.953  0.3864  0.5225 -0.3520
  501MOL0     C67556   7.258   8.808   6.979  0.3400 -0.1056 -0.9022
  501MOL0     C67557   7.148   8.886   6.949 -0.6832  1.2804  0.9769
  501MOL0     O67558   7.023   8.837   6.967  0.5346  0.3920  0.3675
  501MOL0     C67559   6.917   8.930   6.998 -0.1379 -1.3598  0.1645
  501MOL0     C67560   6.826   8.851   7.087 -0.0386  0.0619 -1.1150
  501MOL0     C67561   6.719   8.953   7.125  0.4649 -1.6049 -0.8606
  501MOL0     C67562   6.592   8.897   7.192 -0.2476  0.0292 -0.5371
  501MOL0     C67563   6.481   8.997   7.191  0.2309  0.4576  0.1565
  501MOL0     C67564   6.389   9.072   7.178 -0.2776 -0.3607  0.1834
  501MOL0     C67565   7.174   9.005   6.892 -0.3434  0.0027  0.1155
  501MOL0     C67566   7.307   9.061   6.875  0.3862 -1.6132  0.3813
  501MOL0     C67567   7.324   9.200   6.826 -0.1080 -0.2757  0.1741
  501MOL0     H67568   7.726   9.317   6.931  3.2934  3.8083  0.4046
  501MOL0     H67569   7.962   9.372   6.894 -0.2644  0.2612  0.9683
  501MOL0     H67570   8.092   9.470   6.709  0.2567  0.7972  1.2650
  501MOL0     H67571   8.173   9.390   6.834  0.3083  0.1054  0.0430
  501MOL0     H67572   8.273   9.400   6.544 -0.5346  3.2085  0.7361
  501MOL0     H67573   8.341   9.287   6.661  0.0671 -0.3423  0.8490
  501MOL0     H67574   8.413   9.471   6.812  0.4865 -1.3707 -0.0725
  501MOL0     H67575   8.354   9.590   6.694  1.0008  0.7772  0.2927
  501MOL0     H67576   8.563   9.366   6.636 -0.0537  0.1612  1.9014
  501MOL0     H67577   8.509   9.502   6.527 -0.1190  3.3127  0.3040
  501MOL0     H67578   8.616   9.657   6.662 -1.7675 -1.3537 -2.8812
  501MOL0     H67579   8.666   9.536   6.791 -0.0230  1.8431  0.4911
  501MOL0     H67580   8.831   9.448   6.670  2.1785  1.2955 -0.5382
  501MOL0     H67581   8.752   9.488   6.518  1.4728  2.1633 -1.4917
  501MOL0     H67582   8.870   9.674   6.724  1.8884  2.9892 -0.5340
  501MOL0     H67583   8.804   9.732   6.573 -0.4872 -0.8416  0.4211
  501MOL0     H67584   9.042   9.559   6.643 -0.2652  0.2226  0.6332
  501MOL0     H67585   8.983   9.563   6.475  2.5854 -0.2209 -1.1036
  501MOL0     H67586   8.977   9.839   6.365 -1.3859  1.8064  0.1961
  501MOL0     H67587   9.099  10.062   6.299 -1.5859 -1.0383  0.8999
  501MOL0     H67588   9.065  10.170   6.444 -2.4858 -1.3445  0.2198
  501MOL0     H67589   9.303  10.134   6.510  0.8575 -1.0135 -0.2909
  501MOL0     H67590   9.336  10.030   6.371  2.1033  0.1497  2.1271
  501MOL0     H67591   9.264  10.329   6.366  1.0780  0.8890 -1.7314
  501MOL0     H67592   9.269  10.231   6.225  1.2889  0.6067 -1.2670
  501MOL0     H67593   9.503  10.223   6.421  0.6383  1.9364  0.3373
  501MOL0     H67594   9.474  10.380   6.343 -1.1463 -0.0141  1.7300
  501MOL0     H67595   9.550  10.348   5.986 -0.5398  2.1629  1.3447
  501MOL0     H67596   9.745  10.472   5.909 -2.2290 -1.3407 -0.3972
  501MOL0     H67597  10.207  10.663   6.003 -0.9389 -0.9760 -0.9842
  501MOL0     H67598  10.465  10.723   5.998 -0.5742  0.3075 -0.3570
  501MOL0     H67599  10.632  10.649   5.843  0.8011  0.6048 -0.4867
  501MOL0     H67600  10.700  10.754   5.978  1.2938  1.3930 -0.9147
  501MOL0     H67601  10.857  10.509   5.891 -0.8921  0.1617 -0.7376
  501MOL0     H67602  10.866  10.675   5.813  0.5564  2.6729  2.2056
  501MOL0     H67603  10.938  10.773   5.999  0.4957  1.1834  0.0325
  501MOL0     H67604  10.876  10.634   6.099 -0.8329 -1.1446 -0.3015
  501MOL0     H67605  11.128  10.635   5.917 -0.6867 -3.8952 -2.1515
  501MOL0     H67606  11.060  10.492   5.998 -0.1674  0.0447  0.3802
  501MOL0     H67607  11.239  10.578   6.118  1.5556  2.2915  2.3727
  501MOL0     H67608  11.096  10.570   6.211  1.5787 -3.1049 -0.6444
  501MOL0     H67609  11.225  10.823   6.082 -0.3255 -2.1088 -0.9032
  501MOL0     H67610  11.084  10.834   6.193  0.4599 -0.9814 -0.6741
  501MOL0     H67611  11.374  10.732   6.249 -0.7469 -0.1036 -0.1780
  501MOL0     H67612  11.241  10.691   6.351  2.6366  0.5363  1.9294
  501MOL0     H67613  11.183  10.937   6.367  0.1568  0.2158  1.2620
  501MOL0     H67614  11.327  10.878   6.459  1.6966  0.5401 -0.4379
  501MOL0     H67615  10.560  10.319   6.071 -0.5853 -0.4205  1.3808
  501MOL0     H67616  10.313  10.256   6.112 -1.2883  1.0217  3.0231
  501MOL0     H67617   9.971  10.332   6.248 -1.1000 -0.2241  0.6591
  501MOL0     H67618   9.751  10.223   6.336 -2.1317 -2.5302 -2.4024
  501MOL0     H67619   7.956   9.089   6.569 -3.4159 -1.0642 -2.3215
  501MOL0     H67620   7.733   9.009   6.631 -1.7253  1.1410 -0.9762
  501MOL0     H67621   7.463   8.780   6.980  0.9231  1.7990  1.3922
  501MOL0     H67622   7.244   8.704   7.006  0.6996 -0.8791 -3.4148
  501MOL0     H67623   6.859   8.962   6.911 -0.9464 -0.6643  0.9349
  501MOL0     H67624   6.952   9.017   7.053  0.4965 -1.6884  0.2927
  501MOL0     H67625   6.871   8.822   7.182 -1.9103  1.5295  0.3037
  501MOL0     H67626   6.783   8.761   7.042  0.8702 -1.7530  1.4284
  501MOL0     H67627   6.688   9.005   7.034  0.6650 -1.3315 -0.7744
  501MOL0     H67628   6.761   9.031   7.190  2.0930 -4.3498  1.6584
  501MOL0     H67629   6.559   8.808   7.137 -0.0709 -0.2065 -0.2677
  501MOL0     H67630   6.611   8.863   7.294  1.0141 -0.8356 -1.0453
  501MOL0     H67631   6.300   9.127   7.156  0.5606  0.3488 -1.6969
  501MOL0     H67632   7.087   9.056   6.851  0.3687  2.3799  1.3488
  501MOL0     H67633   7.378   9.257   6.902  1.2013 -2.0013  0.6162
  501MOL0     H67634   7.384   9.192   6.734  0.2379 -0.2204  0.3927
  501MOL0     H67635   7.236   9.262   6.809  0.7432  1.0229  0.3173
  502MOL0     O67636   6.101   4.765   7.403 -0.4599 -0.7647 -0.4085
  502MOL0     C67637   6.088   4.887   7.424  0.4612 -0.5013  1.2411
  502MOL0     O67638   6.183   4.986   7.381  0.1512 -0.5278  0.6421
  502MOL0     C67639   6.284   4.932   7.303  0.2974 -0.6444 -0.3951
  502MOL0     C67640   6.400   4.882   7.359  0.0331 -0.1865 -0.1871
  502MOL0     C67641   6.503   4.833   7.278 -0.7188  0.4860 -0.1396
  502MOL0     C67642   6.486   4.828   7.136  0.3312  0.5734 -0.8154
  502MOL0     O67643   6.579   4.785   7.042  0.8649 -0.0975 -0.8212
  502MOL0     C67644   6.682   4.708   7.094  0.0493  0.0064  0.0113
  502MOL0     C67645   6.775   4.662   6.982 -0.3073 -0.0821  0.0657
  502MOL0     C67646   6.873   4.557   7.023  0.1181  0.2951  0.7023
  502MOL0     C67647   6.963   4.555   6.906  0.0201  0.4427  0.0876
  502MOL0     C67648   7.083   4.465   6.930 -0.2187  0.4971 -0.1211
  502MOL0     C67649   7.196   4.489   6.841 -0.8289 -0.5534  0.0156
  502MOL0     C67650   7.306   4.399   6.900 -0.6987 -0.8292  0.1208
  502MOL0     C67651   7.413   4.365   6.797 -0.2540 -0.6199  0.1039
  502MOL0     N67652   7.532   4.320   6.867 -0.6498  0.5346 -0.3436
  502MOL0     C67653   7.629   4.400   6.920 -0.2522  0.1037 -0.0532
  502MOL0     C67654   7.705   4.322   6.997  0.1286  0.0900 -1.3789
  502MOL0     C67655   7.821   4.373   7.072  0.0092 -0.4727 -0.3777
  502MOL0     C67656   7.941   4.350   6.987  0.1314 -0.2439 -0.2767
  502MOL0     C67657   7.957   4.200   6.954 -0.1247 -0.6009 -0.0046
  502MOL0     C67658   8.093   4.165   6.889  0.4863  0.2738 -0.1933
  502MOL0     O67659   8.074   4.031   6.853  0.1241 -0.6222  0.5781
  502MOL0     C67660   8.187   3.954   6.846 -0.1005  1.2117 -0.0697
  502MOL0     C67661   8.205   3.847   6.934 -0.1865 -0.0510 -0.8463
  502MOL0     C67662   8.312   3.763   6.939 -0.0418  0.1019  0.1422
  502MOL0     C67663   8.421   3.806   6.857 -0.2094 -0.7257 -0.2179
  502MOL0     C67664   8.549   3.731   6.863  0.0229  0.8997  0.2394
  502MOL0     O67665   8.649   3.770   6.777  0.2123  0.6809 -0.2688
  502MOL0     C67666   8.778   3.717   6.779 -0.6546 -0.4941  1.3098
  502MOL0     C67667   8.846   3.658   6.886  0.0137  0.1206 -0.2592
  502MOL0     C67668   8.978   3.611   6.871 -0.0099 -0.2679  0.6023
  502MOL0     C67669   9.051   3.636   6.748  0.6700  0.2746  0.2366
  502MOL0     O67670   9.181   3.603   6.725 -0.3603 -0.3087 -0.0384
  502MOL0     C67671   9.279   3.638   6.824  0.1961 -0.3529 -0.0026
  502MOL0     C67672   9.306   3.789   6.833 -0.0755 -0.8228 -0.3580
  502MOL0     C67673   9.257   3.845   6.965  0.1940 -0.6685 -0.8255
  502MOL0     C67674   9.270   4.003   6.959  0.1764  0.5216 -1.0486
  502MOL0     C67675   9.167   4.079   6.869 -0.3732  0.0855  0.0325
  502MOL0     C67676   9.177   4.230   6.898  0.0624  0.9212 -0.1179
  502MOL0     C67677   9.098   4.295   6.780  0.0215 -0.0035 -0.3589
  502MOL0     C67678   9.086   4.440   6.807  0.1566  0.3923  0.3308
  502MOL0    Cl67679   8.988   4.471   6.951 -0.2444 -0.5043  0.0859
  502MOL0     C67680   8.980   3.688   6.639  0.4111 -0.6535  0.9004
  502MOL0     C67681   8.848   3.734   6.657  0.2854  0.9534  0.0945
  502MOL0     O67682   8.549   3.626   6.935 -0.7902 -0.1358  0.0349
  502MOL0     C67683   8.413   3.917   6.775  0.2798 -0.0290 -0.0985
  502MOL0     C67684   8.295   3.986   6.762 -0.2540  0.2165 -0.3491
  502MOL0     N67685   7.659   4.192   6.978 -0.1678  0.3021 -0.0951
  502MOL0     N67686   7.548   4.194   6.911  0.4333  0.0931 -0.6970
  502MOL0     C67687   6.370   4.874   7.083 -0.4422  0.2471  0.3765
  502MOL0     C67688   6.267   4.916   7.164 -0.2426 -1.0532  0.8082
  502MOL0     C67689   5.958   4.932   7.482  0.8431 -0.9033 -0.7645
  502MOL0     C67690   5.939   5.069   7.506 -0.8083  0.9475 -0.2447
  502MOL0     C67691   5.827   5.124   7.553  0.5443  0.0105 -0.0620
  502MOL0     C67692   5.726   5.044   7.599 -0.3846  0.3885 -0.2704
  502MOL0     O67693   5.629   5.097   7.672  0.4626  0.2114  0.0244
  502MOL0     C67694   5.536   5.173   7.594  1.3987 -0.5547 -0.5487
  502MOL0     C67695   5.402   5.196   7.673  0.7753 -0.1312 -0.5941
  502MOL0     C67696   5.437   5.294   7.787  0.5581  0.0232 -1.2043
  502MOL0     C67697   5.311   5.309   7.865 -0.1337  0.4740 -0.1639
  502MOL0     C67698   5.339   5.380   7.993  0.0967 -0.2938 -0.0153
  502MOL0     C67699   5.375   5.447   8.090  0.3190  0.0864  0.3834
  502MOL0     C67700   5.735   4.903   7.582  0.1181 -0.2798 -0.4577
  502MOL0     C67701   5.845   4.846   7.514  0.9222 -0.1277  0.4939
  502MOL0     C67702   5.830   4.703   7.474  0.1311 -0.0259  0.0451
  502MOL0     H67703   6.404   4.875   7.467  1.1912 -2.0894 -0.2944
  502MOL0     H67704   6.590   4.797   7.332 -0.2172 -1.3853 -2.0394
  502MOL0     H67705   6.738   4.762   7.171 -0.7192 -0.3300  0.8144
  502MOL0     H67706   6.633   4.624   7.144  2.4260 -0.3419  1.9443
  502MOL0     H67707   6.830   4.753   6.954 -0.5146  0.3625  1.0573
  502MOL0     H67708   6.720   4.618   6.897 -0.5497 -0.7980  0.5835
  502MOL0     H67709   6.816   4.465   7.036 -2.6265  1.7200 -0.3680
  502MOL0     H67710   6.917   4.578   7.121 -0.6045  0.9528  0.8953
  502MOL0     H67711   6.921   4.516   6.812  0.7071  3.8646 -1.8306
  502MOL0     H67712   6.998   4.651   6.867  4.2732 -1.3562 -1.0541
  502MOL0     H67713   7.110   4.493   7.032 -0.4991 -2.6341  0.9314
  502MOL0     H67714   7.061   4.358   6.925  1.0168  0.2696 -1.6322
  502MOL0     H67715   7.167   4.459   6.740 -3.0406 -0.8751  0.6852
  502MOL0     H67716   7.235   4.590   6.847  0.7222 -1.1872  1.6181
  502MOL0     H67717   7.269   4.305   6.944  1.2079 -1.0922  1.2893
  502MOL0     H67718   7.361   4.458   6.974  0.0543 -1.0257 -0.2774
  502MOL0     H67719   7.372   4.286   6.733 -0.9615 -0.3567  0.2292
  502MOL0     H67720   7.438   4.448   6.730  0.7387 -0.2739  0.8883
  502MOL0     H67721   7.642   4.507   6.907  2.0883 -0.0120  0.8891
  502MOL0     H67722   7.817   4.475   7.112  0.3975 -1.2420  1.7030
  502MOL0     H67723   7.826   4.325   7.169 -0.6242  0.1754 -0.0128
  502MOL0     H67724   7.917   4.411   6.900 -0.2425 -1.5222 -1.1049
  502MOL0     H67725   8.028   4.392   7.038  1.1070 -0.8817 -1.3659
  502MOL0     H67726   7.886   4.177   6.873 -0.7449 -1.3089  0.7187
  502MOL0     H67727   7.922   4.146   7.042 -1.1986 -0.4373 -0.3151
  502MOL0     H67728   8.181   4.179   6.952  1.4187 -2.9360 -0.6096
  502MOL0     H67729   8.118   4.222   6.799  2.0292 -1.0227 -0.6223
  502MOL0     H67730   8.122   3.813   6.996 -0.9242  1.9687 -0.6468
  502MOL0     H67731   8.319   3.680   7.010 -1.6786  2.2473  3.0090
  502MOL0     H67732   8.797   3.637   6.981  0.7421 -0.6232 -0.0337
  502MOL0     H67733   9.028   3.573   6.960 -1.4094 -4.6695 -0.2250
  502MOL0     H67734   9.244   3.594   6.918 -0.9755 -3.3183 -1.6768
  502MOL0     H67735   9.376   3.592   6.803  0.8544  1.1446 -0.3292
  502MOL0     H67736   9.410   3.817   6.816 -0.3193  1.3692  1.2751
  502MOL0     H67737   9.251   3.845   6.757 -1.3193 -2.8636 -1.0455
  502MOL0     H67738   9.151   3.819   6.978 -0.8632  0.3502 -5.5614
  502MOL0     H67739   9.321   3.812   7.047  0.3880 -0.1057 -0.7495
  502MOL0     H67740   9.373   4.033   6.938  0.1747 -0.0605 -1.9322
  502MOL0     H67741   9.255   4.032   7.063 -1.7271 -2.7162 -0.2721
  502MOL0     H67742   9.064   4.048   6.889  0.0491  0.1247  2.5589
  502MOL0     H67743   9.189   4.049   6.766 -1.8097 -1.5434  0.1407
  502MOL0     H67744   9.134   4.257   6.995 -0.4273 -0.8779  0.2015
  502MOL0     H67745   9.284   4.256   6.897  0.6822 -1.3007 -2.6649
  502MOL0     H67746   8.999   4.251   6.771  0.1751  0.0396 -3.0749
  502MOL0     H67747   9.153   4.275   6.687  1.6795 -1.1661  0.8071
  502MOL0     H67748   9.187   4.481   6.820  0.5112 -0.5290  0.5516
  502MOL0     H67749   9.027   4.488   6.729 -0.6364  0.3368  0.8892
  502MOL0     H67750   9.032   3.708   6.546  1.5335 -0.8370  1.4750
  502MOL0     H67751   8.797   3.783   6.574  1.1035  0.3215 -0.7994
  502MOL0     H67752   8.492   3.938   6.703 -0.5697 -0.9025 -1.3513
  502MOL0     H67753   8.285   4.062   6.685 -1.6733 -0.4752 -0.8907
  502MOL0     H67754   6.361   4.867   6.975  4.0210  0.3503 -0.1846
  502MOL0     H67755   6.181   4.955   7.111  0.2441 -3.3528 -1.8908
  502MOL0     H67756   6.024   5.135   7.497  1.1219 -1.3119  0.4132
  502MOL0     H67757   5.823   5.231   7.569 -0.9812 -0.1260  0.6545
  502MOL0     H67758   5.504   5.116   7.506 -1.0641  0.7282 -0.5778
  502MOL0     H67759   5.583   5.264   7.556  1.8309 -0.6959 -0.3488
  502MOL0     H67760   5.367   5.102   7.717  0.2616  0.1347 -0.4333
  502MOL0     H67761   5.326   5.233   7.604 -0.8753 -1.4486  0.4313
  502MOL0     H67762   5.479   5.386   7.747  1.8457 -0.3045 -0.6631
  502MOL0     H67763   5.520   5.253   7.845 -0.2877  1.4226  1.1347
  502MOL0     H67764   5.230   5.360   7.813 -1.3970 -0.0446  1.2112
  502MOL0     H67765   5.272   5.210   7.889  0.2603  0.1229 -0.9631
  502MOL0     H67766   5.410   5.489   8.182  1.9741  0.1663 -0.2601
  502MOL0     H67767   5.650   4.846   7.620 -0.0143  0.7335  0.8285
  502MOL0     H67768   5.893   4.643   7.540  0.0441 -1.8086 -1.4260
  502MOL0     H67769   5.727   4.669   7.488 -1.5266  4.3710  0.2488
  502MOL0     H67770   5.853   4.703   7.367 -1.3800  1.6054 -0.3241
  503MOL0     O67771   0.772   4.033   0.807 -0.1974 -0.2487  0.2074
  503MOL0     C67772   0.710   4.078   0.906 -0.2718  0.7846  0.4582
  503MOL0     O67773   0.760   4.156   0.998 -0.1849 -0.1652 -0.3267
  503MOL0     C67774   0.897   4.185   0.995  0.2289 -0.5481  0.2709
  503MOL0     C67775   0.940   4.318   0.993 -0.4660 -0.5644  0.0051
  503MOL0     C67776   1.080   4.348   0.995  0.8367  0.4046  1.0675
  503MOL0     C67777   1.175   4.245   1.012 -0.6430  0.0931  0.5782
  503MOL0     O67778   1.313   4.263   1.008 -0.8023 -0.4187 -0.5282
  503MOL0     C67779   1.354   4.392   1.046 -0.0357  0.2380  0.3252
  503MOL0     C67780   1.409   4.467   0.923 -0.1109 -0.1558  0.0546
  503MOL0     C67781   1.535   4.394   0.873  0.6027  0.0323 -0.0628
  503MOL0     C67782   1.658   4.424   0.954  0.2572 -1.0214 -0.7063
  503MOL0     C67783   1.794   4.392   0.884  0.5489  0.0150 -0.0065
  503MOL0     C67784   1.791   4.261   0.812  0.0893  0.2724  0.3102
  503MOL0     C67785   1.928   4.208   0.772 -0.5626  0.6133 -0.3952
  503MOL0     C67786   1.911   4.052   0.728  0.0691 -0.5092  0.5629
  503MOL0     N67787   2.041   4.012   0.688  0.5394 -0.2656  0.1210
  503MOL0     C67788   2.113   4.061   0.583 -0.1929 -0.4555  0.7235
  503MOL0     C67789   2.232   3.999   0.593 -0.4664  0.0772  0.7808
  503MOL0     C67790   2.358   4.026   0.512  0.1405  0.5182 -0.8705
  503MOL0     C67791   2.478   4.039   0.604  0.3591 -0.0074 -0.0562
  503MOL0     C67792   2.481   4.163   0.686  0.0088 -0.2008 -0.4430
  503MOL0     C67793   2.593   4.160   0.788 -0.2256 -0.2893  0.9076
  503MOL0     O67794   2.728   4.178   0.715 -0.0216  0.0687 -0.7222
  503MOL0     C67795   2.848   4.136   0.776 -0.0112  0.0985  0.0630
  503MOL0     C67796   2.856   4.074   0.899 -0.1254  0.3984  0.4232
  503MOL0     C67797   2.981   4.033   0.948 -0.7635 -0.1053 -0.5402
  503MOL0     C67798   3.101   4.046   0.877  0.5634  0.2201 -0.0579
  503MOL0     C67799   3.232   4.000   0.926  0.0379  0.2276 -0.5774
  503MOL0     O67800   3.349   4.029   0.856  0.2779  0.1730 -0.2405
  503MOL0     C67801   3.470   4.021   0.915  0.2236 -0.4200 -0.9097
  503MOL0     C67802   3.573   4.103   0.870 -0.1240 -0.4315 -0.1991
  503MOL0     C67803   3.703   4.092   0.910  0.7214 -0.1312 -0.4200
  503MOL0     C67804   3.744   3.998   1.000  2.1035 -0.0847 -0.0903
  503MOL0     O67805   3.869   3.990   1.028  0.7958 -0.1714  0.3852
  503MOL0     C67806   3.921   3.864   1.084 -0.2235 -0.6163 -0.2051
  503MOL0     C67807   4.061   3.843   1.044  0.3225 -0.1785 -0.3764
  503MOL0     C67808   4.126   3.718   1.103  0.3689 -0.6386  0.2496
  503MOL0     C67809   4.201   3.748   1.226 -0.0834 -0.5245  0.2018
  503MOL0     C67810   4.255   3.616   1.277 -0.2069  0.8826 -0.3537
  503MOL0     C67811   4.392   3.574   1.223 -0.2714  0.4903 -0.2973
  503MOL0     C67812   4.433   3.436   1.281  0.4763 -0.0942  0.0847
  503MOL0     C67813   4.574   3.405   1.237  0.4233  0.3173  0.3226
  503MOL0    Cl67814   4.693   3.533   1.296 -0.4493 -0.0241 -0.2023
  503MOL0     C67815   3.641   3.914   1.054  0.9505  0.5629  0.6588
  503MOL0     C67816   3.508   3.916   1.003  0.6543 -0.9914  0.6618
  503MOL0     O67817   3.220   3.953   1.041 -0.3201 -1.1086 -0.2633
  503MOL0     C67818   3.096   4.111   0.756  0.2856 -0.4216 -1.1110
  503MOL0     C67819   2.969   4.155   0.710  0.5770  0.0089  0.5200
  503MOL0     N67820   2.228   3.908   0.693 -0.3841  0.0380  0.0224
  503MOL0     N67821   2.119   3.924   0.762  0.7246  0.1312  0.6766
  503MOL0     C67822   1.135   4.112   1.013 -0.6902  0.1026  0.1474
  503MOL0     C67823   0.993   4.085   1.003 -0.7190 -0.2586 -0.2543
  503MOL0     C67824   0.572   4.039   0.928  0.0209 -0.0513  0.2480
  503MOL0     C67825   0.510   3.970   0.826  0.1279 -0.7914  0.0506
  503MOL0     C67826   0.375   3.933   0.832 -0.2896 -0.5586  0.0812
  503MOL0     C67827   0.303   3.975   0.935  0.2860  0.2542 -0.0910
  503MOL0     O67828   0.169   3.938   0.938 -0.0391 -0.3525 -0.2498
  503MOL0     C67829   0.116   3.872   1.060  0.9789  0.0746 -0.0827
  503MOL0     C67830   0.197   3.743   1.097  0.0349 -0.5748  0.4314
  503MOL0     C67831   0.210   3.645   0.986  0.7752  0.6129 -0.0951
  503MOL0     C67832   0.085   3.572   0.930 -0.2255 -0.0620 -0.5421
  503MOL0     C67833   0.019   3.481   1.026  0.4337 -0.4977 -0.0128
  503MOL0     C67834  -0.026   3.421   1.122  1.1745  0.8198 -0.4121
  503MOL0     C67835   0.359   4.047   1.033 -0.8878 -0.1722 -0.6781
  503MOL0     C67836   0.493   4.086   1.032 -0.2792 -0.4149  0.7969
  503MOL0     C67837   0.546   4.166   1.156  0.0752  0.2009 -0.0819
  503MOL0     H67838   0.859   4.387   0.972 -0.2650 -0.6139 -0.9990
  503MOL0     H67839   1.111   4.450   0.974  3.3794 -0.7296 -1.3327
  503MOL0     H67840   1.272   4.452   1.086 -1.2456 -1.0970 -0.0642
  503MOL0     H67841   1.436   4.381   1.117  0.1336 -0.7892 -0.0147
  503MOL0     H67842   1.438   4.571   0.944  3.8400 -0.3542 -3.1407
  503MOL0     H67843   1.329   4.466   0.849 -1.6042  3.1395  1.3753
  503MOL0     H67844   1.544   4.435   0.772 -2.2552  2.5473  0.5552
  503MOL0     H67845   1.519   4.286   0.867 -0.2066  0.1826 -0.9132
  503MOL0     H67846   1.664   4.528   0.986  2.0656 -2.0295  2.8515
  503MOL0     H67847   1.650   4.368   1.048 -0.7317  0.2083 -0.0392
  503MOL0     H67848   1.823   4.469   0.812 -0.3802  0.4582  0.0808
  503MOL0     H67849   1.875   4.395   0.958  0.0213  1.7670  0.5476
  503MOL0     H67850   1.749   4.185   0.878 -0.3628  0.5696  0.3721
  503MOL0     H67851   1.735   4.274   0.719 -0.9745 -0.4670  0.8357
  503MOL0     H67852   2.005   4.220   0.849  0.2824 -4.5794 -0.0513
  503MOL0     H67853   1.966   4.270   0.690  0.5646 -2.2206 -2.1718
  503MOL0     H67854   1.897   3.990   0.817  0.3484  0.1190  1.0552
  503MOL0     H67855   1.830   4.034   0.657 -0.7239  0.4637  1.1922
  503MOL0     H67856   2.089   4.143   0.517  1.4110 -1.3793 -1.0934
  503MOL0     H67857   2.379   3.946   0.441  1.3420  1.9134 -2.1564
  503MOL0     H67858   2.348   4.116   0.451  0.0321  0.9704 -0.1955
  503MOL0     H67859   2.482   3.949   0.665 -0.9250  0.3944  0.6558
  503MOL0     H67860   2.566   4.033   0.540 -0.8213  1.2257 -1.8836
  503MOL0     H67861   2.387   4.188   0.736  1.3720  1.9354  1.2132
  503MOL0     H67862   2.510   4.241   0.615 -0.3748 -1.1166 -1.6390
  503MOL0     H67863   2.583   4.063   0.837  1.5285  0.9823  4.0378
  503MOL0     H67864   2.563   4.246   0.849  2.5227  1.1238  0.4510
  503MOL0     H67865   2.768   4.047   0.957  0.9348 -0.7963  1.5597
  503MOL0     H67866   2.985   3.988   1.046  0.1899  2.5564  0.7426
  503MOL0     H67867   3.555   4.181   0.796 -2.5284  0.2236  0.9439
  503MOL0     H67868   3.772   4.161   0.863  1.6862 -0.5418  0.3613
  503MOL0     H67869   3.918   3.870   1.193  1.9420 -0.4811 -0.0956
  503MOL0     H67870   3.867   3.773   1.056  1.9829 -1.6932 -1.3012
  503MOL0     H67871   4.053   3.833   0.935  2.1793  0.6923 -0.6311
  503MOL0     H67872   4.111   3.933   1.080 -2.8211  2.3309 -1.7184
  503MOL0     H67873   4.044   3.650   1.127  1.3845 -2.1456 -0.3424
  503MOL0     H67874   4.186   3.676   1.020  0.3720  2.7869 -1.6572
  503MOL0     H67875   4.126   3.804   1.282 -0.1033  0.4852 -0.7924
  503MOL0     H67876   4.290   3.812   1.216 -0.2956 -0.1539  0.6538
  503MOL0     H67877   4.183   3.537   1.253 -0.3589  0.3995  1.5271
  503MOL0     H67878   4.273   3.628   1.384  2.3687 -0.9312 -0.4887
  503MOL0     H67879   4.388   3.564   1.114  2.8953  1.6430 -0.6202
  503MOL0     H67880   4.460   3.659   1.234 -1.6780  1.7290 -0.6986
  503MOL0     H67881   4.374   3.352   1.245 -0.5365 -0.0829  1.6670
  503MOL0     H67882   4.431   3.445   1.390  1.8454 -1.5890  0.2753
  503MOL0     H67883   4.601   3.303   1.266  1.4349 -0.3665 -2.5971
  503MOL0     H67884   4.582   3.395   1.128 -1.3677 -0.7231  0.2423
  503MOL0     H67885   3.657   3.826   1.114 -1.3113 -0.4630 -0.1109
  503MOL0     H67886   3.440   3.836   1.031 -0.8675 -0.5554 -1.5406
  503MOL0     H67887   3.187   4.130   0.700  1.7965 -2.1065  0.6157
  503MOL0     H67888   2.964   4.222   0.624  3.4543  1.0016  1.0034
  503MOL0     H67889   1.206   4.030   1.021 -1.6130 -0.9500 -1.6489
  503MOL0     H67890   0.970   3.980   0.997 -0.1562 -0.3431 -1.2008
  503MOL0     H67891   0.554   3.957   0.727  2.0881 -3.0871  1.1006
  503MOL0     H67892   0.323   3.878   0.755 -1.7454 -0.6149  1.0541
  503MOL0     H67893   0.010   3.848   1.051  0.5505  0.5821  2.7141
  503MOL0     H67894   0.125   3.944   1.142 -2.7337  2.2350 -1.3631
  503MOL0     H67895   0.157   3.698   1.188 -0.0520  0.2878  0.8345
  503MOL0     H67896   0.299   3.782   1.110 -0.0405 -0.9686  2.6911
  503MOL0     H67897   0.286   3.573   1.019 -1.4426 -0.8351  2.2670
  503MOL0     H67898   0.248   3.694   0.895 -0.2800 -1.4325 -1.7161
  503MOL0     H67899   0.006   3.635   0.888 -0.6360 -0.4132 -0.3024
  503MOL0     H67900   0.128   3.507   0.853  0.7069 -1.8397  1.3689
  503MOL0     H67901  -0.070   3.373   1.208  2.1367  0.9194  0.1526
  503MOL0     H67902   0.295   4.088   1.111  1.7362  1.3728  0.8035
  503MOL0     H67903   0.571   4.268   1.128 -1.7902  0.7996  0.3100
  503MOL0     H67904   0.471   4.171   1.236  0.1664 -0.6497  0.0734
  503MOL0     H67905   0.643   4.130   1.190  0.4228  0.6781 -0.5626
  504MOL0     O67906   1.411   4.919   7.633  0.0674 -0.1204 -0.4655
  504MOL0     C67907   1.315   4.982   7.687  0.5060  0.4537 -0.4331
  504MOL0     O67908   1.317   5.060   7.805  0.4284 -0.8939  0.2743
  504MOL0     C67909   1.438   5.099   7.847  0.5053  0.2823  0.2170
  504MOL0     C67910   1.509   5.195   7.780  0.7291 -0.1117 -0.0352
  504MOL0     C67911   1.635   5.232   7.832  0.2372 -0.5987  0.0220
  504MOL0     C67912   1.689   5.182   7.949  0.3501 -0.3112 -0.0399
  504MOL0     O67913   1.813   5.216   7.977  0.2755  0.3616 -0.1633
  504MOL0     C67914   1.868   5.191   8.108  0.0464  0.0658  0.2314
  504MOL0     C67915   2.026   5.187   8.090 -0.7407  0.6237 -0.4133
  504MOL0     C67916   2.090   5.186   8.227  0.3553 -0.1626 -0.2506
  504MOL0     C67917   2.241   5.168   8.232 -0.5536  0.6807 -0.0552
  504MOL0     C67918   2.283   5.149   8.379  0.4581 -0.5332 -0.1770
  504MOL0     C67919   2.437   5.130   8.400  0.0034  0.6262 -0.1867
  504MOL0     C67920   2.490   4.999   8.348 -0.2833  0.9674  0.2982
  504MOL0     C67921   2.644   4.995   8.365  0.0407 -0.2467  0.4128
  504MOL0     N67922   2.716   4.885   8.300 -0.0881  0.1823 -0.2582
  504MOL0     C67923   2.748   4.764   8.345  0.1949  0.3575  0.2342
  504MOL0     C67924   2.843   4.715   8.261 -0.4386 -0.3962 -0.5071
  504MOL0     C67925   2.905   4.585   8.286 -0.4846  0.0714  0.4549
  504MOL0     C67926   3.044   4.601   8.336 -0.7398  0.2145 -0.4783
  504MOL0     C67927   3.156   4.627   8.236  0.8111 -0.2280 -0.0676
  504MOL0     C67928   3.292   4.610   8.307 -0.2277 -0.6360 -0.4722
  504MOL0     O67929   3.396   4.639   8.217  0.3445 -0.4851  0.1564
  504MOL0     C67930   3.516   4.649   8.276  0.5904  0.5059  0.5345
  504MOL0     C67931   3.560   4.578   8.389  0.5739 -0.0391  0.6287
  504MOL0     C67932   3.692   4.596   8.444 -0.1106 -0.2786  0.3652
  504MOL0     C67933   3.780   4.690   8.388  1.1908 -0.7537 -0.4267
  504MOL0     C67934   3.902   4.724   8.460  0.0462  0.3250  0.6076
  504MOL0     O67935   3.994   4.814   8.395  0.3768  0.3241 -0.4158
  504MOL0     C67936   4.126   4.827   8.430  0.3642  0.9302  0.6591
  504MOL0     C67937   4.206   4.733   8.501 -0.5667 -0.0806 -0.5574
  504MOL0     C67938   4.348   4.749   8.520 -0.2979 -0.7386  0.9131
  504MOL0     C67939   4.410   4.853   8.448 -0.0263  0.6655 -0.8319
  504MOL0     O67940   4.551   4.860   8.460  0.9551  0.6874 -0.5440
  504MOL0     C67941   4.631   4.975   8.430  0.0657 -0.8026 -0.1116
  504MOL0     C67942   4.781   4.939   8.426  0.7625  0.3984 -0.3931
  504MOL0     C67943   4.866   4.953   8.551 -0.3773 -0.4990  0.3094
  504MOL0     C67944   4.995   4.882   8.522 -0.6568  1.3210  0.5561
  504MOL0     C67945   5.097   4.899   8.645 -0.1300 -0.0276  0.0144
  504MOL0     C67946   5.230   4.819   8.633  0.3955 -0.4194  0.2193
  504MOL0     C67947   5.298   4.875   8.506 -0.0267  0.3484 -0.2515
  504MOL0     C67948   5.448   4.820   8.495 -0.0074  0.1337  0.4814
  504MOL0    Cl67949   5.552   4.897   8.630 -0.1672 -0.2535  0.4815
  504MOL0     C67950   4.329   4.952   8.381  0.3176 -0.1134 -0.1116
  504MOL0     C67951   4.193   4.926   8.356  0.3028 -0.2772 -0.0255
  504MOL0     O67952   3.925   4.663   8.561  0.6532 -0.2399 -0.1373
  504MOL0     C67953   3.730   4.763   8.277  0.5315 -0.0657 -0.3546
  504MOL0     C67954   3.601   4.747   8.228 -0.3037  0.0692  0.6371
  504MOL0     N67955   2.864   4.807   8.163  0.7020 -0.5477  0.1613
  504MOL0     N67956   2.791   4.911   8.189  0.6806  1.2985 -0.9638
  504MOL0     C67957   1.613   5.088   8.023  0.3765  0.1572  0.2810
  504MOL0     C67958   1.487   5.052   7.969 -0.6833  0.4574 -0.4389
  504MOL0     C67959   1.183   4.963   7.626 -0.6611  0.1647 -0.1440
  504MOL0     C67960   1.187   4.939   7.489 -0.1416  0.9843  0.2052
  504MOL0     C67961   1.072   4.905   7.418 -0.6191  0.0724 -0.5506
  504MOL0     C67962   0.947   4.909   7.486 -0.6381  0.1510 -0.0326
  504MOL0     O67963   0.828   4.912   7.420  0.1023  0.4165  0.3782
  504MOL0     C67964   0.833   4.878   7.285  0.5902 -0.4895 -0.2809
  504MOL0     C67965   0.688   4.846   7.238  0.5644  0.2468 -0.1487
  504MOL0     C67966   0.619   4.711   7.294 -0.2715  0.4646  0.1539
  504MOL0     C67967   0.677   4.587   7.233 -0.3720 -0.2108 -0.1356
  504MOL0     C67968   0.807   4.545   7.292  0.2292 -0.0374 -0.1821
  504MOL0     C67969   0.919   4.517   7.339 -0.1279  0.7450  0.8875
  504MOL0     C67970   0.945   4.932   7.625 -0.2104 -0.2032  0.0116
  504MOL0     C67971   1.058   4.956   7.700  0.8391  0.2319  0.5401
  504MOL0     C67972   1.044   4.987   7.845  0.0977 -0.2145 -0.1759
  504MOL0     H67973   1.457   5.217   7.687  0.3445 -0.8945 -0.0072
  504MOL0     H67974   1.688   5.312   7.781 -1.8205  1.0130  0.2695
  504MOL0     H67975   1.836   5.276   8.169 -1.9418  0.5291 -1.3482
  504MOL0     H67976   1.840   5.102   8.165  3.8742 -0.9577  0.7584
  504MOL0     H67977   2.063   5.272   8.033  1.0113  0.4106  0.3439
  504MOL0     H67978   2.058   5.093   8.043 -2.2193 -0.5006  0.7266
  504MOL0     H67979   2.055   5.096   8.280  1.9901 -1.0359 -0.5675
  504MOL0     H67980   2.059   5.272   8.286 -0.4377 -1.6284  1.5920
  504MOL0     H67981   2.270   5.074   8.185 -3.2496 -0.8528  1.0952
  504MOL0     H67982   2.294   5.251   8.185 -0.1246  1.1090  1.1539
  504MOL0     H67983   2.261   5.245   8.428 -0.3423 -1.7015  1.9140
  504MOL0     H67984   2.230   5.079   8.445  0.9017 -1.2515 -0.5624
  504MOL0     H67985   2.484   5.220   8.360  1.1868  0.5578  0.9639
  504MOL0     H67986   2.446   5.140   8.509 -0.3632 -0.3315 -0.0566
  504MOL0     H67987   2.464   4.976   8.245 -2.1335 -3.0067  1.4621
  504MOL0     H67988   2.447   4.917   8.406  2.1025 -1.5744 -1.2555
  504MOL0     H67989   2.697   5.085   8.332  0.9401 -0.7404  0.4875
  504MOL0     H67990   2.669   4.996   8.471  1.4838 -1.4404  0.1223
  504MOL0     H67991   2.699   4.718   8.430  1.9960 -2.6264 -0.1665
  504MOL0     H67992   2.849   4.535   8.365 -2.6068 -1.5335 -1.9022
  504MOL0     H67993   2.902   4.512   8.204  1.3985 -0.4395  0.7971
  504MOL0     H67994   3.051   4.691   8.399 -1.4722  0.4139 -0.6797
  504MOL0     H67995   3.075   4.518   8.401 -0.2859  1.4856  1.0089
  504MOL0     H67996   3.139   4.725   8.190 -3.4378 -0.0775  1.4362
  504MOL0     H67997   3.139   4.560   8.151  1.7018 -1.1481  0.4565
  504MOL0     H67998   3.311   4.507   8.338  0.6000  0.6326  3.8687
  504MOL0     H67999   3.288   4.677   8.393 -1.1484  0.0024 -0.9900
  504MOL0     H68000   3.490   4.512   8.439  0.3655  0.7238  1.3877
  504MOL0     H68001   3.717   4.527   8.524 -1.0163 -2.3836 -1.0907
  504MOL0     H68002   4.163   4.644   8.545 -0.1813  0.4361  0.9356
  504MOL0     H68003   4.411   4.677   8.572  3.0748  1.4465  0.1543
  504MOL0     H68004   4.598   5.013   8.334 -0.6751 -0.7838  0.1475
  504MOL0     H68005   4.618   5.058   8.501  1.6509  0.3995 -1.1553
  504MOL0     H68006   4.789   4.839   8.383  0.5076 -0.6247  1.7956
  504MOL0     H68007   4.828   5.008   8.355  1.5279  2.1147  1.7006
  504MOL0     H68008   4.867   5.059   8.576 -1.1075  0.1144 -1.9668
  504MOL0     H68009   4.822   4.905   8.639 -3.7776 -4.2290 -2.9618
  504MOL0     H68010   5.038   4.924   8.430 -1.2692 -0.3669 -0.5389
  504MOL0     H68011   4.980   4.774   8.511  0.2714  1.3953 -2.1599
  504MOL0     H68012   5.046   4.855   8.732  0.1132  2.0117  1.2796
  504MOL0     H68013   5.107   5.005   8.671  1.5654 -0.6063  1.9555
  504MOL0     H68014   5.288   4.824   8.725 -0.8297  1.7067  0.9476
  504MOL0     H68015   5.217   4.712   8.613  0.0806  0.0377 -2.3886
  504MOL0     H68016   5.311   4.984   8.506 -4.0722  1.0181 -0.9809
  504MOL0     H68017   5.243   4.845   8.417 -2.2532  0.6376  0.9408
  504MOL0     H68018   5.445   4.713   8.518  1.2895 -0.2044 -0.7452
  504MOL0     H68019   5.488   4.836   8.394  2.6260  0.0159  1.4133
  504MOL0     H68020   4.386   5.027   8.327 -1.5124  0.5672 -1.2067
  504MOL0     H68021   4.137   4.989   8.288 -0.8049  0.3857  1.4600
  504MOL0     H68022   3.786   4.838   8.221 -1.4462  3.0317  1.5165
  504MOL0     H68023   3.578   4.817   8.148  0.4425  0.6444  0.9096
  504MOL0     H68024   1.643   5.054   8.122 -0.3528 -1.1689  0.0698
  504MOL0     H68025   1.426   4.984   8.027 -2.5901  2.1472 -0.3452
  504MOL0     H68026   1.277   4.951   7.431  0.0962  0.3030  0.4241
  504MOL0     H68027   1.086   4.885   7.312 -0.0273  3.2544 -1.1848
  504MOL0     H68028   0.899   4.793   7.265  1.1349  0.1793 -1.4342
  504MOL0     H68029   0.867   4.958   7.219  0.0473  0.7814  0.9136
  504MOL0     H68030   0.683   4.845   7.129 -2.7966  0.8235 -0.1135
  504MOL0     H68031   0.623   4.922   7.283  1.0194  1.2203 -1.1066
  504MOL0     H68032   0.516   4.722   7.257 -0.6796 -1.5999  0.5803
  504MOL0     H68033   0.616   4.708   7.403 -0.0344  1.7901  0.2177
  504MOL0     H68034   0.606   4.504   7.238 -0.1740 -0.4813 -1.5008
  504MOL0     H68035   0.693   4.606   7.127 -3.0719  1.4815 -0.3266
  504MOL0     H68036   1.020   4.509   7.374  0.9453  0.8563 -1.8931
  504MOL0     H68037   0.849   4.939   7.674  0.1610 -2.1944  1.1255
  504MOL0     H68038   1.061   5.093   7.868  0.7610 -0.2981 -0.2475
  504MOL0     H68039   0.942   4.968   7.881  1.6401 -4.0182  2.9779
  504MOL0     H68040   1.110   4.917   7.897  0.9586 -0.9253 -2.1276
  505MOL0     O68041   7.739   9.898   2.382 -0.1766  0.2532 -0.2701
  505MOL0     C68042   7.762   9.863   2.500 -0.5260 -0.1138 -0.0318
  505MOL0     O68043   7.853   9.769   2.533 -0.3398  0.0707 -0.0614
  505MOL0     C68044   7.922   9.705   2.424  0.4794  0.1612 -1.0625
  505MOL0     C68045   7.874   9.600   2.345  0.0613  0.3977 -0.1463
  505MOL0     C68046   7.965   9.526   2.269  0.3988 -0.5997 -0.2549
  505MOL0     C68047   8.100   9.571   2.260 -0.2111  0.3110  0.3027
  505MOL0     O68048   8.195   9.517   2.171 -0.3484 -0.2997  0.0499
  505MOL0     C68049   8.146   9.428   2.068  0.4865 -0.1663 -0.0772
  505MOL0     C68050   8.245   9.377   1.949 -0.2172 -0.0274 -0.8882
  505MOL0     C68051   8.374   9.304   1.991 -0.5234 -0.8121  0.1582
  505MOL0     C68052   8.356   9.194   2.097 -0.6377 -0.5641 -0.0653
  505MOL0     C68053   8.475   9.093   2.123 -0.8858  0.1433 -0.3837
  505MOL0     C68054   8.429   8.955   2.163 -1.5352 -0.5243 -0.7538
  505MOL0     C68055   8.557   8.862   2.178  0.0122 -0.4948 -0.0367
  505MOL0     C68056   8.515   8.724   2.139 -0.1994  0.0737  0.2788
  505MOL0     N68057   8.620   8.626   2.125  0.2012  0.0086 -0.1061
  505MOL0     C68058   8.689   8.600   2.014  0.0981  0.3968  0.2031
  505MOL0     C68059   8.799   8.533   2.057  0.1216 -0.3403  0.8661
  505MOL0     C68060   8.905   8.494   1.967 -1.1169  0.6321 -0.2209
  505MOL0     C68061   9.040   8.528   2.039  0.1080  0.0670 -0.1432
  505MOL0     C68062   9.163   8.509   1.952  0.5016  0.4500  0.1346
  505MOL0     C68063   9.264   8.621   1.952 -0.7041 -0.3837 -0.1448
  505MOL0     O68064   9.363   8.578   1.849 -0.6580  0.2337 -0.6916
  505MOL0     C68065   9.485   8.637   1.868  0.1063  0.0127  0.7960
  505MOL0     C68066   9.601   8.562   1.821  0.4022  0.2538 -0.5807
  505MOL0     C68067   9.728   8.611   1.823  0.0319 -0.7652  0.1951
  505MOL0     C68068   9.749   8.741   1.884  0.5759  0.3195 -1.4022
  505MOL0     C68069   9.886   8.794   1.905 -0.1245 -0.2601  0.0583
  505MOL0     O68070   9.881   8.921   1.962 -0.3929  0.1581  0.0789
  505MOL0     C68071   9.989   9.003   1.980 -0.1137  0.1003  0.3018
  505MOL0     C68072  10.024   9.055   2.106 -0.4785 -0.6928 -0.2245
  505MOL0     C68073  10.136   9.138   2.128  0.5342 -0.8305  0.5344
  505MOL0     C68074  10.224   9.161   2.016  0.3496  0.6017 -0.0493
  505MOL0     O68075  10.333   9.241   2.021  0.0870  1.2951  0.0488
  505MOL0     C68076  10.368   9.305   2.140  0.3511 -0.4342 -0.4587
  505MOL0     C68077  10.494   9.375   2.114  0.2612  0.2612  0.4741
  505MOL0     C68078  10.541   9.431   2.251  0.8037  0.5020 -0.4956
  505MOL0     C68079  10.639   9.539   2.245  0.7800 -0.5822  0.1856
  505MOL0     C68080  10.763   9.500   2.163 -0.1861 -0.7355  0.4151
  505MOL0     C68081  10.884   9.592   2.185  0.5870  0.1098 -0.4672
  505MOL0     C68082  11.017   9.517   2.168 -0.0978  1.2427 -0.1554
  505MOL0     C68083  11.132   9.612   2.187 -0.0232 -0.4507 -0.3985
  505MOL0    Cl68084  11.140   9.736   2.057 -0.2317  0.0869  0.5126
  505MOL0     C68085  10.195   9.095   1.897 -0.3675 -0.3779 -0.2678
  505MOL0     C68086  10.077   9.018   1.872  0.3167 -0.2002  0.6329
  505MOL0     O68087   9.986   8.734   1.876 -0.2124  0.1051 -0.3409
  505MOL0     C68088   9.640   8.808   1.943 -1.1241  0.5139  0.2748
  505MOL0     C68089   9.510   8.762   1.932 -0.3270 -0.0798 -0.3008
  505MOL0     N68090   8.789   8.499   2.190 -0.2334 -0.4568 -0.0852
  505MOL0     N68091   8.682   8.557   2.225 -0.9841 -0.3523 -0.5040
  505MOL0     C68092   8.139   9.690   2.322 -0.3696  0.0766 -0.0989
  505MOL0     C68093   8.055   9.749   2.407  0.5135 -0.7670 -0.4786
  505MOL0     C68094   7.656   9.889   2.603 -0.6170  0.6391  0.8446
  505MOL0     C68095   7.621   9.785   2.696 -0.1134  0.3932  0.6389
  505MOL0     C68096   7.513   9.800   2.788  0.0030  0.0854  0.4323
  505MOL0     C68097   7.443   9.924   2.791 -0.5736 -0.7841 -0.4182
  505MOL0     O68098   7.346   9.940   2.889 -0.8952 -0.1343  0.0826
  505MOL0     C68099   7.268  10.061   2.897  0.0922 -0.3029 -0.2088
  505MOL0     C68100   7.188  10.058   3.033  0.4848  0.1740  0.3672
  505MOL0     C68101   7.098   9.936   3.055  0.9577 -0.1269  0.1704
  505MOL0     C68102   7.036   9.947   3.196 -0.0398 -0.1467 -0.3978
  505MOL0     C68103   6.907  10.009   3.177  0.3472 -0.2410  0.0243
  505MOL0     C68104   6.803  10.063   3.145 -0.1443 -0.0937  0.2952
  505MOL0     C68105   7.479  10.027   2.699  0.0384 -0.0519 -1.0009
  505MOL0     C68106   7.583  10.011   2.599  0.3104  0.5770  0.0965
  505MOL0     C68107   7.594  10.121   2.498  0.4792  1.7571  0.3214
  505MOL0     H68108   7.771   9.567   2.361  0.4549 -0.2511  1.2656
  505MOL0     H68109   7.917   9.452   2.206 -0.3199 -0.0632 -0.3529
  505MOL0     H68110   8.115   9.340   2.124  0.5561  0.0779  0.3473
  505MOL0     H68111   8.059   9.477   2.023 -1.5253 -4.1897 -0.9657
  505MOL0     H68112   8.262   9.469   1.894  0.0621  0.0728 -0.6408
  505MOL0     H68113   8.189   9.312   1.882  1.1937 -1.1272 -1.0577
  505MOL0     H68114   8.443   9.380   2.029 -2.2326  0.4732  0.8856
  505MOL0     H68115   8.421   9.256   1.905  1.4963 -0.7209  1.1484
  505MOL0     H68116   8.359   9.254   2.188  0.0120 -0.1221 -0.3696
  505MOL0     H68117   8.261   9.140   2.088 -1.2764  0.3851  0.6933
  505MOL0     H68118   8.536   9.085   2.032 -0.1167 -0.0101  0.1347
  505MOL0     H68119   8.540   9.143   2.196 -0.2371  1.5830 -1.8577
  505MOL0     H68120   8.372   8.966   2.255 -2.3348  2.5632 -1.5134
  505MOL0     H68121   8.366   8.928   2.078 -2.2796 -1.3182  0.0420
  505MOL0     H68122   8.605   8.864   2.276  0.1690  0.2044 -0.1228
  505MOL0     H68123   8.634   8.901   2.111  1.1043 -0.9276  0.9282
  505MOL0     H68124   8.441   8.685   2.210 -1.6577  2.1054 -0.0060
  505MOL0     H68125   8.470   8.736   2.040  1.3447  0.8380 -0.3560
  505MOL0     H68126   8.654   8.621   1.913  0.2733 -0.4021 -0.0381
  505MOL0     H68127   8.911   8.387   1.944  0.2696  1.1849 -2.8077
  505MOL0     H68128   8.895   8.541   1.869  0.0457 -1.2263 -1.2830
  505MOL0     H68129   9.049   8.632   2.073  2.3064 -0.5253  1.3170
  505MOL0     H68130   9.054   8.468   2.129  1.1362 -0.4501 -0.6336
  505MOL0     H68131   9.119   8.502   1.852  0.5695  3.7105 -0.2319
  505MOL0     H68132   9.204   8.411   1.975 -0.6825 -0.4424 -1.3251
  505MOL0     H68133   9.302   8.637   2.053 -0.7961  0.0761 -0.1819
  505MOL0     H68134   9.221   8.715   1.917 -1.9057 -0.5625  0.7906
  505MOL0     H68135   9.594   8.469   1.767 -0.1276 -0.3159  0.4453
  505MOL0     H68136   9.815   8.552   1.795  0.1265 -1.6306  2.1098
  505MOL0     H68137   9.958   9.052   2.192 -1.7545  2.5315 -0.9344
  505MOL0     H68138  10.156   9.181   2.226 -0.0674  2.3116 -0.6067
  505MOL0     H68139  10.293   9.382   2.156 -0.0696 -0.9129 -0.1170
  505MOL0     H68140  10.395   9.239   2.223  2.1271  2.1735  1.2353
  505MOL0     H68141  10.571   9.305   2.082 -0.1567 -0.8260  1.7258
  505MOL0     H68142  10.479   9.465   2.053  2.3813  0.7976  0.6738
  505MOL0     H68143  10.454   9.474   2.302  0.3654 -1.3156  0.4046
  505MOL0     H68144  10.576   9.347   2.313  0.4048  1.4857  1.1264
  505MOL0     H68145  10.667   9.565   2.347 -0.2968  2.7254 -0.2337
  505MOL0     H68146  10.589   9.627   2.203  1.3040  0.5985  1.9427
  505MOL0     H68147  10.744   9.488   2.056  0.3352  1.7006 -0.0190
  505MOL0     H68148  10.792   9.397   2.186  1.1592 -0.3909  0.3307
  505MOL0     H68149  10.866   9.667   2.108 -1.4711 -0.0877 -0.2283
  505MOL0     H68150  10.892   9.638   2.284  0.0307 -0.9979  0.1116
  505MOL0     H68151  11.028   9.477   2.067  0.8561  2.7880 -0.7013
  505MOL0     H68152  11.019   9.435   2.240 -2.5703  0.6927 -0.6254
  505MOL0     H68153  11.116   9.666   2.281  2.5616 -0.8196  0.3364
  505MOL0     H68154  11.228   9.562   2.203  0.7185  1.2933  0.9397
  505MOL0     H68155  10.257   9.117   1.810 -2.8030 -5.1091 -3.7026
  505MOL0     H68156  10.045   8.973   1.779 -0.2061  0.3337  0.5491
  505MOL0     H68157   9.661   8.902   1.993 -1.1488  0.8911 -0.4229
  505MOL0     H68158   9.431   8.828   1.966  2.3723  1.5562  3.4006
  505MOL0     H68159   8.235   9.733   2.294 -0.9992  1.4508 -0.2275
  505MOL0     H68160   8.087   9.843   2.450 -0.4733  0.6431 -2.6824
  505MOL0     H68161   7.668   9.689   2.683 -2.0916 -0.2960 -2.6318
  505MOL0     H68162   7.475   9.713   2.841  0.3443  0.5125  1.4048
  505MOL0     H68163   7.197  10.074   2.815 -1.3976 -0.7843  0.9587
  505MOL0     H68164   7.329  10.151   2.891 -1.1664  0.5122 -1.6510
  505MOL0     H68165   7.136  10.154   3.041 -1.4370 -0.5895 -1.7452
  505MOL0     H68166   7.266  10.046   3.109  2.5527 -3.0426 -1.9795
  505MOL0     H68167   7.163   9.848   3.051  0.7934 -0.2315 -0.1926
  505MOL0     H68168   7.025   9.927   2.975 -0.4355  1.0134  1.2518
  505MOL0     H68169   7.017   9.843   3.221 -0.9816 -0.6851 -3.0561
  505MOL0     H68170   7.096   9.993   3.275 -0.4516  0.7749 -0.5981
  505MOL0     H68171   6.715  10.118   3.122  1.1471  1.5676 -0.9293
  505MOL0     H68172   7.436  10.127   2.698  2.2455  0.9780 -0.0679
  505MOL0     H68173   7.535  10.208   2.529 -1.5578  0.4678  0.2313
  505MOL0     H68174   7.701  10.141   2.491  1.2090 -1.4525  0.8184
  505MOL0     H68175   7.555  10.083   2.403  1.5429 -0.3147  0.6471
  506MOL0     O68176   6.112   6.161   8.006 -0.5726 -0.6353  0.7634
  506MOL0     C68177   6.058   6.240   8.083 -0.9325  0.1359  0.4352
  506MOL0     O68178   6.077   6.244   8.216  0.5877 -0.1099 -0.4241
  506MOL0     C68179   6.194   6.196   8.267  0.2017  0.9432  0.2318
  506MOL0     C68180   6.193   6.079   8.346  0.1206 -0.5170  0.0906
  506MOL0     C68181   6.308   6.036   8.407 -0.4084  0.4439 -0.3652
  506MOL0     C68182   6.428   6.106   8.395  0.7004 -0.7722  1.1973
  506MOL0     O68183   6.536   6.068   8.472 -0.0943  0.2593  0.5136
  506MOL0     C68184   6.545   6.140   8.590  0.4975  0.5074  0.6231
  506MOL0     C68185   6.419   6.133   8.677  0.4561  0.5314  0.1138
  506MOL0     C68186   6.442   6.177   8.821 -1.2367 -0.4230 -0.6459
  506MOL0     C68187   6.313   6.192   8.896  0.6016  0.5309  0.4000
  506MOL0     C68188   6.257   6.068   8.957 -0.8592  0.2414 -0.0568
  506MOL0     C68189   6.136   6.119   9.030  0.0552  0.3028 -0.5556
  506MOL0     C68190   6.084   6.008   9.125  0.1583 -0.3293 -0.3477
  506MOL0     C68191   6.038   5.886   9.047 -0.4434 -0.5198 -0.1314
  506MOL0     N68192   5.960   5.789   9.133  0.0122 -0.0255  0.2621
  506MOL0     C68193   5.826   5.795   9.154 -0.4023 -0.1825 -0.9216
  506MOL0     C68194   5.794   5.668   9.213  0.1916 -1.1740 -0.0314
  506MOL0     C68195   5.655   5.617   9.254 -0.5650  0.0456 -0.6508
  506MOL0     C68196   5.561   5.629   9.131  0.0070  0.2815 -0.2127
  506MOL0     C68197   5.421   5.626   9.188 -0.3110  0.0539 -0.0437
  506MOL0     C68198   5.311   5.664   9.077  0.4821  0.1336  0.0147
  506MOL0     O68199   5.206   5.561   9.095 -0.1909 -0.4166 -0.7816
  506MOL0     C68200   5.110   5.558   8.994 -0.1738 -0.4555  0.2126
  506MOL0     C68201   5.119   5.624   8.864  0.0648  0.4915 -0.5227
  506MOL0     C68202   5.014   5.621   8.771  0.1700  0.1306 -0.8454
  506MOL0     C68203   4.902   5.556   8.800  0.1487 -0.1024  0.2538
  506MOL0     C68204   4.801   5.535   8.694 -0.1445  0.1586  0.8285
  506MOL0     O68205   4.681   5.494   8.731  0.1167  0.2665 -0.4335
  506MOL0     C68206   4.582   5.439   8.652 -0.0602  0.6578 -0.4933
  506MOL0     C68207   4.458   5.470   8.684  0.1849 -0.0793  0.6014
  506MOL0     C68208   4.350   5.416   8.606 -0.8477 -0.0364  0.4872
  506MOL0     C68209   4.381   5.329   8.498  0.3786  0.3638 -0.0583
  506MOL0     O68210   4.297   5.283   8.406  0.3604  0.0129 -0.4517
  506MOL0     C68211   4.157   5.296   8.431  0.0841  0.0633 -0.1527
  506MOL0     C68212   4.074   5.273   8.307  1.1506  0.2574 -0.0025
  506MOL0     C68213   3.943   5.202   8.340  0.2352 -0.1092  0.4583
  506MOL0     C68214   3.820   5.240   8.257 -0.4604  0.1688  0.0819
  506MOL0     C68215   3.688   5.227   8.334 -0.3602 -0.2725 -0.3252
  506MOL0     C68216   3.657   5.078   8.380  0.4329  0.0496  0.0707
  506MOL0     C68217   3.579   5.069   8.514  0.2093 -0.6460  0.0987
  506MOL0     C68218   3.668   5.094   8.640 -0.2617  0.0529  1.2279
  506MOL0    Cl68219   3.797   4.969   8.657  0.6652 -0.1198  0.1642
  506MOL0     C68220   4.510   5.310   8.460  0.2403 -0.2417 -0.5809
  506MOL0     C68221   4.611   5.363   8.539  0.8629  0.4066 -0.2676
  506MOL0     O68222   4.828   5.559   8.579  0.2423 -0.1864  0.2705
  506MOL0     C68223   4.892   5.491   8.921 -0.2242 -0.3489 -0.5305
  506MOL0     C68224   4.997   5.482   9.014 -0.6458  0.3085 -0.4588
  506MOL0     N68225   5.917   5.602   9.230  0.1235 -0.3063 -0.3235
  506MOL0     N68226   6.014   5.669   9.180  0.0584  0.9893 -0.0127
  506MOL0     C68227   6.437   6.215   8.313  0.3048 -0.5026 -0.3218
  506MOL0     C68228   6.319   6.260   8.247  0.4193 -0.4967 -0.1192
  506MOL0     C68229   5.969   6.346   8.025  0.6502  0.1319 -1.1991
  506MOL0     C68230   5.842   6.304   7.988 -0.7084  0.4788  0.4062
  506MOL0     C68231   5.740   6.397   7.957 -0.2616  0.0401  0.5457
  506MOL0     C68232   5.764   6.530   7.977 -0.1018 -0.1661  1.2855
  506MOL0     O68233   5.663   6.621   7.970 -0.6725  0.5252 -0.1980
  506MOL0     C68234   5.530   6.594   7.916 -0.0170  0.1021 -0.2489
  506MOL0     C68235   5.530   6.580   7.767  0.4938  0.8195 -0.1572
  506MOL0     C68236   5.575   6.712   7.701 -0.4441  0.1684 -0.4440
  506MOL0     C68237   5.577   6.710   7.552  0.0421  0.2638  0.0284
  506MOL0     C68238   5.654   6.810   7.484 -0.6174  0.2299 -0.1564
  506MOL0     C68239   5.734   6.884   7.430 -0.2871 -0.1435  0.7947
  506MOL0     C68240   5.894   6.578   8.009 -0.6965  0.9227  0.0174
  506MOL0     C68241   6.001   6.487   8.028 -0.2602 -0.1113 -0.0924
  506MOL0     C68242   6.133   6.542   8.060 -0.7619  0.0379  0.7398
  506MOL0     H68243   6.097   6.035   8.370 -0.4165  1.3099  1.5502
  506MOL0     H68244   6.305   5.954   8.478 -1.3053  1.6180  1.0027
  506MOL0     H68245   6.629   6.092   8.643  0.5366  0.3393  0.4069
  506MOL0     H68246   6.571   6.242   8.562  1.5498 -0.4951 -2.4700
  506MOL0     H68247   6.383   6.029   8.678  0.5233  0.4677  2.6393
  506MOL0     H68248   6.343   6.197   8.631 -1.0644 -1.1858  0.1266
  506MOL0     H68249   6.503   6.266   8.838  2.2085 -2.8203  0.6875
  506MOL0     H68250   6.502   6.090   8.851  0.0823 -0.3255 -2.7899
  506MOL0     H68251   6.329   6.259   8.981  0.0964  1.6735 -0.3807
  506MOL0     H68252   6.244   6.251   8.835  2.1857  0.4050 -1.6222
  506MOL0     H68253   6.227   5.991   8.886 -1.0037  1.9146 -1.9037
  506MOL0     H68254   6.334   6.034   9.027 -1.2410 -1.3767 -0.3765
  506MOL0     H68255   6.158   6.197   9.103 -1.0499 -2.3916  2.9275
  506MOL0     H68256   6.066   6.163   8.959 -0.6211 -1.4950 -1.0519
  506MOL0     H68257   5.992   6.043   9.173  0.2615 -0.2560 -0.2044
  506MOL0     H68258   6.152   5.983   9.207  0.7115  2.2868  0.0805
  506MOL0     H68259   5.979   5.918   8.961  1.5058 -1.5080 -1.9389
  506MOL0     H68260   6.124   5.831   9.008  1.2016  2.4961 -1.0322
  506MOL0     H68261   5.749   5.867   9.126 -2.0374 -0.8811  1.4945
  506MOL0     H68262   5.678   5.512   9.276 -0.8382  0.0571 -0.3094
  506MOL0     H68263   5.626   5.678   9.340  0.0449  3.0907 -2.4629
  506MOL0     H68264   5.563   5.724   9.077 -0.7693 -0.8517 -2.3278
  506MOL0     H68265   5.567   5.549   9.057 -0.9004  0.0816 -0.0795
  506MOL0     H68266   5.425   5.707   9.261  1.4987 -0.8774  0.9470
  506MOL0     H68267   5.405   5.531   9.241  0.3707 -0.1595 -0.2065
  506MOL0     H68268   5.358   5.670   8.979  2.5789 -1.3709  0.8474
  506MOL0     H68269   5.254   5.753   9.107 -0.3311 -0.5900  0.7004
  506MOL0     H68270   5.205   5.688   8.845  0.3916  0.8132  1.7395
  506MOL0     H68271   5.016   5.667   8.673 -1.2698 -1.7648 -1.8256
  506MOL0     H68272   4.445   5.539   8.767  0.2741 -0.8576  1.2858
  506MOL0     H68273   4.249   5.443   8.634 -1.3524 -0.0049 -1.2329
  506MOL0     H68274   4.126   5.229   8.511 -0.4510 -0.1309 -0.5157
  506MOL0     H68275   4.136   5.399   8.462  1.5684  0.0357  1.0331
  506MOL0     H68276   4.057   5.372   8.262 -0.3364  0.1788  0.3326
  506MOL0     H68277   4.128   5.213   8.234  1.3609 -1.2072  1.3050
  506MOL0     H68278   3.958   5.099   8.307  0.8871 -0.1022  0.7127
  506MOL0     H68279   3.926   5.207   8.447  1.0953 -0.9041  0.6425
  506MOL0     H68280   3.818   5.183   8.164  0.3294  1.3650 -0.7030
  506MOL0     H68281   3.828   5.348   8.239  3.5838  0.5950  2.8893
  506MOL0     H68282   3.614   5.273   8.269  0.6300  1.4496 -0.2964
  506MOL0     H68283   3.695   5.295   8.419  0.6794 -0.8886  0.1135
  506MOL0     H68284   3.608   5.030   8.295  0.9217  0.8946 -0.7001
  506MOL0     H68285   3.741   5.013   8.405 -0.5513 -0.4172  2.4674
  506MOL0     H68286   3.532   4.974   8.539  1.0215 -1.6528 -1.9436
  506MOL0     H68287   3.503   5.146   8.502  0.7257 -0.2026 -0.4060
  506MOL0     H68288   3.716   5.192   8.631 -1.9113  0.7319 -1.4301
  506MOL0     H68289   3.620   5.098   8.738  0.1695  1.4156  1.3980
  506MOL0     H68290   4.527   5.239   8.379  2.3139 -0.0889 -0.3324
  506MOL0     H68291   4.714   5.344   8.514  1.1222  0.2181  0.8828
  506MOL0     H68292   4.798   5.443   8.948 -1.9236  2.5844 -0.8221
  506MOL0     H68293   4.985   5.425   9.106  1.0003  3.6190  1.9940
  506MOL0     H68294   6.531   6.269   8.308  1.2036 -1.9337  0.3863
  506MOL0     H68295   6.326   6.344   8.178  2.9590 -2.1159 -1.9842
  506MOL0     H68296   5.812   6.200   7.994 -0.5509  0.4706  1.2626
  506MOL0     H68297   5.643   6.367   7.919  1.1846 -1.3153 -2.4285
  506MOL0     H68298   5.456   6.668   7.947  0.8576  0.8772  0.0401
  506MOL0     H68299   5.488   6.502   7.956 -1.8918  1.7980  2.0213
  506MOL0     H68300   5.430   6.553   7.732  0.6457  0.6866 -0.4861
  506MOL0     H68301   5.594   6.497   7.736  1.2269  1.6501 -0.9532
  506MOL0     H68302   5.680   6.725   7.730 -0.6363  1.4068 -0.2548
  506MOL0     H68303   5.517   6.796   7.740  1.1656  0.8802  0.5020
  506MOL0     H68304   5.597   6.610   7.512 -1.2071 -0.8224  1.9580
  506MOL0     H68305   5.473   6.720   7.520 -0.1646  0.8425  0.8381
  506MOL0     H68306   5.813   6.941   7.386  0.4717 -0.6369  1.4785
  506MOL0     H68307   5.910   6.684   8.022  0.6008  0.6886  0.5043
  506MOL0     H68308   6.204   6.459   8.053  0.8186  1.0856  3.0280
  506MOL0     H68309   6.162   6.618   7.987 -2.4949  1.5570  1.5448
  506MOL0     H68310   6.138   6.567   8.167  0.0172  1.5718  0.3692
  507MOL0     O68311   4.433   4.721   6.751  1.1107 -0.5498 -0.4005
  507MOL0     C68312   4.422   4.670   6.638 -0.2758  0.5018 -0.1563
  507MOL0     O68313   4.476   4.715   6.522  0.1414 -0.2225  0.0280
  507MOL0     C68314   4.567   4.814   6.520 -0.2433  0.1128  0.1704
  507MOL0     C68315   4.540   4.927   6.444 -0.0826 -0.1681 -0.1399
  507MOL0     C68316   4.622   5.044   6.466 -0.7793 -0.5892  0.4084
  507MOL0     C68317   4.735   5.040   6.550 -1.0983  0.2526  0.6249
  507MOL0     O68318   4.819   5.146   6.568  0.3680  0.5951  0.0437
  507MOL0     C68319   4.887   5.199   6.460  0.5186  0.1315  0.0017
  507MOL0     C68320   5.036   5.203   6.484 -0.4001  0.2502  0.1807
  507MOL0     C68321   5.116   5.263   6.373 -0.1069  0.6521 -0.0362
  507MOL0     C68322   5.256   5.312   6.402  0.9213 -0.2761  0.1216
  507MOL0     C68323   5.319   5.394   6.297  0.4722  0.0299  0.8338
  507MOL0     C68324   5.446   5.462   6.353  0.5844  0.1339 -0.1145
  507MOL0     C68325   5.465   5.592   6.276  0.3972 -0.0860  0.2874
  507MOL0     C68326   5.592   5.669   6.306 -0.1890  0.5790 -0.2986
  507MOL0     N68327   5.716   5.590   6.296  0.1200  0.2996 -0.7319
  507MOL0     C68328   5.773   5.528   6.182 -0.1658 -0.0518 -0.3625
  507MOL0     C68329   5.884   5.459   6.227 -0.3137  0.2503 -0.3987
  507MOL0     C68330   5.990   5.396   6.138  0.4310 -0.1548  0.1818
  507MOL0     C68331   6.110   5.484   6.132  0.1755  0.1792  0.1534
  507MOL0     C68332   6.227   5.420   6.055  0.2463 -0.5740 -0.1381
  507MOL0     C68333   6.358   5.516   6.068 -0.0284 -0.0713  0.1310
  507MOL0     O68334   6.438   5.471   5.957 -0.0371 -0.7066  0.5472
  507MOL0     C68335   6.551   5.551   5.915  0.2204  0.3336  0.1788
  507MOL0     C68336   6.659   5.487   5.855 -0.0148  0.0881 -0.0002
  507MOL0     C68337   6.772   5.561   5.824  0.0399 -0.7780 -0.3506
  507MOL0     C68338   6.770   5.701   5.823  0.5240  0.7308  0.5375
  507MOL0     C68339   6.886   5.780   5.778 -0.0337  0.2889 -0.9303
  507MOL0     O68340   7.000   5.721   5.806 -0.4725  0.0132  0.1432
  507MOL0     C68341   7.111   5.791   5.758  0.6320 -0.3907  0.0675
  507MOL0     C68342   7.215   5.825   5.845  0.3646  0.2411  0.8046
  507MOL0     C68343   7.331   5.893   5.802  0.4844  0.2866  0.3835
  507MOL0     C68344   7.351   5.911   5.666  0.2059  0.3137 -1.0866
  507MOL0     O68345   7.474   5.969   5.638  0.5941 -0.1054  0.4056
  507MOL0     C68346   7.522   5.954   5.500  0.4517 -0.1062 -0.1626
  507MOL0     C68347   7.648   6.043   5.489 -0.3775  0.1865  0.8937
  507MOL0     C68348   7.771   5.997   5.572  0.0141  0.4073 -0.6178
  507MOL0     C68349   7.894   6.096   5.555  0.4782 -0.9768 -0.2170
  507MOL0     C68350   7.989   6.066   5.675 -0.3167  0.0871  0.1224
  507MOL0     C68351   8.116   6.145   5.661  0.2926 -0.7334  0.0789
  507MOL0     C68352   8.211   6.142   5.787  0.3135 -0.0898  0.1038
  507MOL0     C68353   8.152   6.227   5.908 -0.1622  0.7366  0.8132
  507MOL0    Cl68354   8.265   6.221   6.048  0.1276 -0.5657  0.0459
  507MOL0     C68355   7.244   5.886   5.580  0.1824 -0.2756  0.3531
  507MOL0     C68356   7.130   5.819   5.620 -0.3528  0.0248  0.1705
  507MOL0     O68357   6.867   5.881   5.711 -0.7955  0.1188  0.1087
  507MOL0     C68358   6.656   5.761   5.862 -0.0485  0.1562 -0.1352
  507MOL0     C68359   6.548   5.691   5.910  0.2988  0.1721 -0.7605
  507MOL0     N68360   5.897   5.493   6.365  0.1362  0.5636 -0.0250
  507MOL0     N68361   5.795   5.570   6.404 -0.5559 -0.2576  0.0261
  507MOL0     C68362   4.769   4.921   6.612  0.3129 -0.1768  0.5479
  507MOL0     C68363   4.684   4.811   6.605  0.7326 -0.6215 -0.1413
  507MOL0     C68364   4.347   4.538   6.621  0.4895  0.6184 -0.3938
  507MOL0     C68365   4.412   4.429   6.567 -0.2047 -0.3725  0.6997
  507MOL0     C68366   4.351   4.302   6.559  0.8196  0.5507 -0.3305
  507MOL0     C68367   4.214   4.283   6.591  0.4155  0.8990 -0.6329
  507MOL0     O68368   4.153   4.164   6.554  0.0084  0.5079 -0.0213
  507MOL0     C68369   4.010   4.146   6.556  0.1125  0.4099  0.1288
  507MOL0     C68370   3.945   4.080   6.679 -0.0217 -0.8390  0.5757
  507MOL0     C68371   3.798   4.048   6.652  0.1967  0.5004  0.1035
  507MOL0     C68372   3.748   3.976   6.780  0.2061 -0.4751 -0.4167
  507MOL0     C68373   3.603   3.938   6.790  0.5392  0.2426  0.4542
  507MOL0     C68374   3.485   3.911   6.796  0.7802  0.0654 -0.2857
  507MOL0     C68375   4.144   4.394   6.649 -0.7556  0.4551 -0.0351
  507MOL0     C68376   4.212   4.515   6.666 -0.3936 -0.0884 -0.0323
  507MOL0     C68377   4.125   4.626   6.720  0.5088 -0.7326 -0.5539
  507MOL0     H68378   4.453   4.937   6.380 -0.5834  0.9392  0.6785
  507MOL0     H68379   4.596   5.132   6.408 -0.4137 -0.3307  0.6343
  507MOL0     H68380   4.868   5.149   6.365 -2.4538 -0.9655  1.0300
  507MOL0     H68381   4.861   5.304   6.446 -1.1141 -0.6584 -4.5415
  507MOL0     H68382   5.079   5.103   6.497  0.7088  1.0852  4.2666
  507MOL0     H68383   5.065   5.258   6.574 -0.0269  1.6979 -0.7873
  507MOL0     H68384   5.061   5.356   6.354  1.9387  2.1319  0.9247
  507MOL0     H68385   5.111   5.207   6.279 -2.5309 -0.4160  0.6537
  507MOL0     H68386   5.255   5.372   6.494  2.6849  0.7053 -0.4544
  507MOL0     H68387   5.324   5.228   6.424  2.4241  0.4864 -1.4119
  507MOL0     H68388   5.338   5.335   6.207 -0.6336  0.6014  0.1973
  507MOL0     H68389   5.243   5.469   6.271  0.4026  0.8104  3.1340
  507MOL0     H68390   5.442   5.485   6.459 -0.5205 -2.3133  0.4269
  507MOL0     H68391   5.527   5.389   6.345  1.0066  0.3484  1.7586
  507MOL0     H68392   5.377   5.655   6.292  0.2452  0.5975 -2.5985
  507MOL0     H68393   5.466   5.572   6.168 -0.7412  0.3393  0.1915
  507MOL0     H68394   5.598   5.749   6.232 -1.0353 -1.7587 -3.0574
  507MOL0     H68395   5.583   5.712   6.407  0.4506 -2.7857  1.3411
  507MOL0     H68396   5.730   5.535   6.082 -0.5617 -1.8823 -0.3456
  507MOL0     H68397   6.020   5.300   6.180 -2.5953 -1.6813 -0.8388
  507MOL0     H68398   5.955   5.377   6.036  2.5109 -0.7865 -0.4520
  507MOL0     H68399   6.085   5.580   6.086  2.1552  1.6821  2.0372
  507MOL0     H68400   6.143   5.507   6.233  1.3802 -3.1499  0.6280
  507MOL0     H68401   6.194   5.406   5.952  0.1333 -2.9821  0.1501
  507MOL0     H68402   6.262   5.325   6.097  0.0821  0.0983  1.6260
  507MOL0     H68403   6.414   5.503   6.161 -0.3842  2.1631  0.7079
  507MOL0     H68404   6.328   5.620   6.056  1.1104  0.1161 -1.2868
  507MOL0     H68405   6.664   5.379   5.851 -1.3501 -0.2520  3.6791
  507MOL0     H68406   6.868   5.514   5.808  2.1196  1.5619  3.6833
  507MOL0     H68407   7.198   5.805   5.950  0.0151  1.5675  1.0119
  507MOL0     H68408   7.413   5.913   5.871  0.8578  0.5162 -0.1201
  507MOL0     H68409   7.539   5.847   5.489 -2.2427 -0.7896  1.4638
  507MOL0     H68410   7.443   5.985   5.431  0.6552 -2.7798 -1.7519
  507MOL0     H68411   7.688   6.046   5.387  3.9639 -3.0719  2.1753
  507MOL0     H68412   7.618   6.147   5.509  2.6244  1.3793 -0.1463
  507MOL0     H68413   7.740   6.003   5.677  1.0410 -1.7428 -0.1494
  507MOL0     H68414   7.797   5.893   5.553  0.7664 -0.3476  3.5853
  507MOL0     H68415   7.856   6.198   5.566  2.4642 -0.2176  0.0628
  507MOL0     H68416   7.935   6.084   5.454  0.9654  0.6876 -0.2451
  507MOL0     H68417   8.009   5.958   5.678  0.8908  0.2856  3.2265
  507MOL0     H68418   7.929   6.086   5.765 -0.0122 -0.5374  0.4745
  507MOL0     H68419   8.173   6.106   5.577  2.0957  0.2696  0.7804
  507MOL0     H68420   8.082   6.247   5.641 -3.7857 -1.8788  0.2309
  507MOL0     H68421   8.312   6.177   5.762  0.6099 -1.7532 -1.1964
  507MOL0     H68422   8.224   6.039   5.821  1.9153  0.0047 -0.1237
  507MOL0     H68423   8.140   6.333   5.881  1.9551  0.5544 -1.1373
  507MOL0     H68424   8.054   6.183   5.928  0.0625 -1.1274 -1.6447
  507MOL0     H68425   7.243   5.913   5.475  0.1149  1.0150  0.6772
  507MOL0     H68426   7.059   5.794   5.541  0.0186 -2.1914  0.4718
  507MOL0     H68427   6.654   5.869   5.850  0.4616  0.3265  1.1691
  507MOL0     H68428   6.469   5.747   5.958  2.3164  0.7167  2.2172
  507MOL0     H68429   4.855   4.910   6.677  0.2006 -3.3937  0.2977
  507MOL0     H68430   4.709   4.713   6.644  1.7075  0.2635  1.5816
  507MOL0     H68431   4.518   4.446   6.547 -0.4419 -0.8012 -1.0363
  507MOL0     H68432   4.407   4.227   6.504 -1.0164 -0.8016 -0.4459
  507MOL0     H68433   3.983   4.084   6.471  2.4494 -0.2036 -0.2269
  507MOL0     H68434   3.959   4.241   6.535  2.5375  1.5769 -0.7958
  507MOL0     H68435   3.949   4.141   6.770 -2.4603  1.9177 -0.9753
  507MOL0     H68436   3.997   3.985   6.695 -1.5092 -1.6516  0.7846
  507MOL0     H68437   3.788   3.975   6.572 -0.7676  0.3596  0.3355
  507MOL0     H68438   3.728   4.131   6.634 -1.0372 -0.7664 -1.1590
  507MOL0     H68439   3.799   3.880   6.788 -0.3736 -0.6397  1.7729
  507MOL0     H68440   3.778   4.033   6.868 -1.1587 -1.7576  0.9457
  507MOL0     H68441   3.380   3.889   6.802  0.9192 -1.1808 -1.6373
  507MOL0     H68442   4.044   4.378   6.687 -0.0194  0.7012  2.1180
  507MOL0     H68443   4.023   4.611   6.683  0.3214 -0.7098 -0.0582
  507MOL0     H68444   4.126   4.641   6.828 -0.6531  0.9721 -0.7317
  507MOL0     H68445   4.165   4.721   6.684  2.2088 -1.5717 -0.9670
  508MOL0     O68446   0.823   4.087   8.495 -0.4205 -0.3190 -0.2925
  508MOL0     C68447   0.777   3.998   8.428  0.9720 -0.0685  1.3458
  508MOL0     O68448   0.842   3.938   8.327 -0.1265  0.4719 -0.2498
  508MOL0     C68449   0.976   3.919   8.309 -0.1106  0.4142  0.1197
  508MOL0     C68450   1.074   3.967   8.396  1.0994  0.4076 -0.6212
  508MOL0     C68451   1.205   3.950   8.367 -0.4200 -0.1841  0.3684
  508MOL0     C68452   1.253   3.887   8.251 -0.7083  0.2031 -0.0788
  508MOL0     O68453   1.391   3.876   8.236  0.3023 -0.5824  0.4548
  508MOL0     C68454   1.425   3.804   8.120 -0.3265 -0.0968 -0.2980
  508MOL0     C68455   1.579   3.819   8.094  0.4588  0.4717  0.2557
  508MOL0     C68456   1.628   3.770   7.951 -0.1846  0.3944 -0.4832
  508MOL0     C68457   1.772   3.816   7.930  0.1636  0.2595 -0.4055
  508MOL0     C68458   1.836   3.727   7.826 -0.4941 -0.1377 -0.2211
  508MOL0     C68459   1.980   3.776   7.803 -0.3119 -0.1975 -0.6449
  508MOL0     C68460   2.056   3.699   7.692  0.7176  0.5642  0.0750
  508MOL0     C68461   2.023   3.742   7.553  0.8319 -0.0442  0.4753
  508MOL0     N68462   2.076   3.879   7.518 -0.2099 -0.2708 -0.2021
  508MOL0     C68463   1.994   3.981   7.460 -0.7503  0.0457  0.0303
  508MOL0     C68464   2.076   4.084   7.451 -0.4769  0.3347 -0.2207
  508MOL0     C68465   2.038   4.225   7.401 -0.2780  0.1871  0.2863
  508MOL0     C68466   2.111   4.264   7.270 -0.1726  0.4955  0.9835
  508MOL0     C68467   2.063   4.188   7.142  0.0947 -0.6314 -0.4723
  508MOL0     C68468   2.173   4.206   7.032  0.7555 -0.6224 -0.4015
  508MOL0     O68469   2.288   4.133   7.068 -0.1581 -0.2200  0.6818
  508MOL0     C68470   2.413   4.190   7.090  0.6334  0.3495 -0.6607
  508MOL0     C68471   2.473   4.163   7.214 -0.5576  0.3227 -0.3492
  508MOL0     C68472   2.597   4.219   7.252 -0.7518 -0.2674  0.1661
  508MOL0     C68473   2.659   4.302   7.155 -0.9889 -0.4571 -1.3851
  508MOL0     C68474   2.796   4.362   7.192 -0.0580  0.0080  0.0916
  508MOL0     O68475   2.831   4.472   7.114  0.0200  0.3610 -0.0269
  508MOL0     C68476   2.954   4.517   7.121 -0.0749 -0.6340  0.3739
  508MOL0     C68477   3.023   4.562   7.234  0.7162 -0.2598 -0.2812
  508MOL0     C68478   3.149   4.628   7.227 -0.1140 -0.6351 -0.5688
  508MOL0     C68479   3.207   4.661   7.105  0.1951  0.2949 -0.8129
  508MOL0     O68480   3.341   4.705   7.107  0.0746 -0.0153  0.2890
  508MOL0     C68481   3.383   4.769   6.989 -0.9271  0.3705 -0.3952
  508MOL0     C68482   3.507   4.860   7.029 -0.1575 -0.1849  0.1271
  508MOL0     C68483   3.623   4.777   7.071 -1.0639 -0.1636 -0.7713
  508MOL0     C68484   3.748   4.869   7.095  0.0178 -0.8511  0.5091
  508MOL0     C68485   3.827   4.818   7.218 -0.3388  0.2141  0.1406
  508MOL0     C68486   3.974   4.872   7.220 -0.1346 -0.0294  1.0508
  508MOL0     C68487   4.068   4.811   7.106 -0.0432 -0.7344 -0.3520
  508MOL0     C68488   4.216   4.848   7.118 -0.1183 -0.1184  0.2224
  508MOL0    Cl68489   4.223   5.027   7.148  0.1708  0.0834  0.2105
  508MOL0     C68490   3.145   4.614   6.993  0.5694  0.8862 -0.1623
  508MOL0     C68491   3.022   4.543   6.999  0.0946  0.3962 -0.2035
  508MOL0     O68492   2.868   4.318   7.283 -0.0759  0.1940  0.3550
  508MOL0     C68493   2.594   4.335   7.034 -0.6875 -0.0310  0.4595
  508MOL0     C68494   2.475   4.268   7.001  0.3985  0.5499 -0.3543
  508MOL0     N68495   2.200   4.052   7.505 -0.0574  0.1606  0.4566
  508MOL0     N68496   2.198   3.932   7.551 -0.1538 -0.0860  0.3708
  508MOL0     C68497   1.154   3.814   8.175  0.3683  0.5347 -0.4752
  508MOL0     C68498   1.015   3.840   8.200 -0.0958  0.4947  0.5418
  508MOL0     C68499   0.631   3.974   8.449 -1.0043 -0.6598  0.1277
  508MOL0     C68500   0.550   4.048   8.362  0.2997 -0.1034 -0.4143
  508MOL0     C68501   0.417   4.041   8.378  0.4931 -0.4310 -0.2761
  508MOL0     C68502   0.358   3.969   8.481  0.2389  0.2554 -0.0887
  508MOL0     O68503   0.223   3.986   8.498 -0.1824  0.4051 -0.0709
  508MOL0     C68504   0.143   3.915   8.590  0.1661  0.5174 -0.5144
  508MOL0     C68505   0.070   3.807   8.513  0.2228  0.1486 -0.2994
  508MOL0     C68506   0.151   3.688   8.458  0.5783 -0.3403  0.3092
  508MOL0     C68507   0.168   3.576   8.562 -0.0990  1.0519 -0.6282
  508MOL0     C68508   0.039   3.500   8.596  0.0026 -0.0711  1.0048
  508MOL0     C68509  -0.065   3.438   8.612 -0.9744 -0.2759  0.4931
  508MOL0     C68510   0.444   3.895   8.566  0.0280  1.0374  0.7827
  508MOL0     C68511   0.584   3.902   8.551 -0.2078 -0.4782 -0.3385
  508MOL0     C68512   0.677   3.818   8.639  0.2287 -0.1380  0.9164
  508MOL0     H68513   1.051   4.015   8.491 -0.9355 -1.6135  0.0024
  508MOL0     H68514   1.269   3.999   8.440 -0.8547  0.3592  0.3944
  508MOL0     H68515   1.395   3.700   8.129 -0.0486 -0.0689  1.0985
  508MOL0     H68516   1.371   3.851   8.037  0.1240 -1.9832 -1.7395
  508MOL0     H68517   1.632   3.758   8.167  1.7228  1.7219  0.4194
  508MOL0     H68518   1.602   3.925   8.107 -2.8501  1.1680  1.3809
  508MOL0     H68519   1.577   3.818   7.867 -1.7699  0.5508  0.5285
  508MOL0     H68520   1.631   3.661   7.953 -0.0050  0.3872 -1.1349
  508MOL0     H68521   1.769   3.919   7.895 -1.4188  1.0437  1.8301
  508MOL0     H68522   1.825   3.810   8.025 -0.1721 -0.2342 -0.2438
  508MOL0     H68523   1.839   3.621   7.853  2.4955 -0.5261 -1.5878
  508MOL0     H68524   1.781   3.744   7.732 -0.5972 -0.5292 -0.2303
  508MOL0     H68525   1.984   3.884   7.787 -1.4986 -0.0047  0.1936
  508MOL0     H68526   2.023   3.756   7.902 -3.0207 -0.9284  0.4697
  508MOL0     H68527   2.026   3.595   7.709  1.2485  0.7495  2.5558
  508MOL0     H68528   2.162   3.719   7.712  0.3102  3.9422 -0.6217
  508MOL0     H68529   2.066   3.672   7.480  2.1811  0.1741  1.0323
  508MOL0     H68530   1.915   3.743   7.534  1.0234  0.4216 -0.6377
  508MOL0     H68531   1.893   3.960   7.425  0.0897 -3.0521 -0.8440
  508MOL0     H68532   1.928   4.222   7.396 -0.2951 -3.1610  0.5394
  508MOL0     H68533   2.071   4.294   7.479 -3.8718  2.3276  0.1615
  508MOL0     H68534   2.097   4.371   7.253  0.2974  0.5859  1.1408
  508MOL0     H68535   2.217   4.245   7.288 -0.2620  0.0283  1.0460
  508MOL0     H68536   1.963   4.202   7.099  1.4421 -0.0767 -3.7123
  508MOL0     H68537   2.059   4.085   7.179  0.9681  0.4614  2.9995
  508MOL0     H68538   2.191   4.314   7.029  0.5008 -0.5350  0.8734
  508MOL0     H68539   2.137   4.166   6.936  0.6531 -1.8520  0.1284
  508MOL0     H68540   2.425   4.102   7.290 -1.9395  0.9175 -0.7163
  508MOL0     H68541   2.637   4.196   7.350 -1.3181 -0.8971  0.2607
  508MOL0     H68542   2.974   4.551   7.331 -1.4464  0.7666 -1.1757
  508MOL0     H68543   3.199   4.655   7.319 -1.2689  0.8448 -0.3445
  508MOL0     H68544   3.410   4.686   6.923 -1.4787 -3.7668  4.0726
  508MOL0     H68545   3.303   4.832   6.948 -2.0592 -1.1463 -0.6042
  508MOL0     H68546   3.533   4.933   6.951  2.6795  1.3723  2.3490
  508MOL0     H68547   3.485   4.923   7.115  1.3539 -1.1177  1.2457
  508MOL0     H68548   3.598   4.725   7.164  0.6481  1.4345  0.6557
  508MOL0     H68549   3.656   4.698   7.002 -0.3507  0.3179 -0.9966
  508MOL0     H68550   3.718   4.973   7.111 -0.4507 -0.7970 -0.6109
  508MOL0     H68551   3.821   4.873   7.013 -1.0822 -1.1699 -0.5199
  508MOL0     H68552   3.827   4.709   7.229  0.8253  0.1011 -0.7317
  508MOL0     H68553   3.775   4.854   7.307 -0.0834  4.5378 -1.2107
  508MOL0     H68554   3.959   4.980   7.208  0.7910 -0.2311 -3.5651
  508MOL0     H68555   4.024   4.859   7.317  1.1407  1.1235  0.5736
  508MOL0     H68556   4.021   4.837   7.011 -1.1556  0.8868  0.5821
  508MOL0     H68557   4.070   4.703   7.121  2.0028 -0.8441 -1.1248
  508MOL0     H68558   4.264   4.803   7.206 -1.1500 -0.3810  0.6643
  508MOL0     H68559   4.268   4.820   7.026  1.3122 -0.4698  1.0892
  508MOL0     H68560   3.190   4.637   6.896 -1.2983 -2.0339 -1.8691
  508MOL0     H68561   2.978   4.496   6.912 -0.5844  0.8803 -0.1327
  508MOL0     H68562   2.650   4.407   6.975 -2.6387  1.2828  0.1217
  508MOL0     H68563   2.428   4.278   6.904  0.2351  2.3274 -0.1320
  508MOL0     H68564   1.181   3.743   8.098  0.9375  1.3566 -1.0481
  508MOL0     H68565   0.939   3.789   8.141 -0.4484  0.5781  0.9152
  508MOL0     H68566   0.578   4.114   8.281 -2.5331 -0.4148 -1.7809
  508MOL0     H68567   0.352   4.099   8.313 -0.9095 -0.5562  0.9550
  508MOL0     H68568   0.068   3.979   8.637  0.9793  2.2202 -1.4345
  508MOL0     H68569   0.202   3.865   8.667 -0.2601 -0.2355 -0.6706
  508MOL0     H68570   0.021   3.859   8.430  2.4053  1.4377 -0.8491
  508MOL0     H68571  -0.010   3.758   8.571 -1.2444  2.4280 -0.2795
  508MOL0     H68572   0.247   3.730   8.428  0.5470  0.1439  0.8565
  508MOL0     H68573   0.099   3.646   8.371 -0.2237  0.2689  0.4762
  508MOL0     H68574   0.240   3.502   8.528 -1.4095 -0.1004 -0.9808
  508MOL0     H68575   0.199   3.620   8.657  0.9311  2.5555 -1.6127
  508MOL0     H68576  -0.152   3.375   8.619 -1.7068  0.6640  0.1931
  508MOL0     H68577   0.403   3.834   8.645 -2.6660  1.8971  0.1622
  508MOL0     H68578   0.704   3.879   8.726  2.4470 -0.4737  0.5103
  508MOL0     H68579   0.630   3.723   8.665  0.6505 -0.5892  0.0493
  508MOL0     H68580   0.774   3.803   8.592  1.2505 -1.6781  3.3201
  509MOL0     O68581   4.081  11.086   2.712 -0.4427 -0.4020 -0.2508
  509MOL0     C68582   4.025  11.149   2.630  1.3088  0.1327 -0.0310
  509MOL0     O68583   4.077  11.261   2.560  0.7389 -0.0071 -0.3500
  509MOL0     C68584   4.202  11.312   2.557 -1.0952 -0.5845 -0.1075
  509MOL0     C68585   4.306  11.289   2.647  0.4262  1.1198 -0.0570
  509MOL0     C68586   4.437  11.330   2.626  1.0366  0.7468  0.1026
  509MOL0     C68587   4.464  11.421   2.523  0.5867  0.2029  0.2526
  509MOL0     O68588   4.580  11.487   2.491 -0.3842  0.5007 -0.8863
  509MOL0     C68589   4.693  11.454   2.576  0.0410  0.6195  0.1106
  509MOL0     C68590   4.832  11.477   2.509  0.4691  1.0133  0.1062
  509MOL0     C68591   4.848  11.363   2.411  0.4796  0.4378  0.4060
  509MOL0     C68592   4.953  11.401   2.309 -0.7914  0.9540  0.0789
  509MOL0     C68593   4.981  11.290   2.210  0.0644  0.1841 -0.6985
  509MOL0     C68594   5.038  11.335   2.079 -1.1621  0.1650 -0.6115
  509MOL0     C68595   5.187  11.392   2.094 -0.2180 -0.2098  0.2120
  509MOL0     C68596   5.278  11.311   2.195  0.1339 -0.6511  0.4981
  509MOL0     N68597   5.413  11.360   2.180  0.0540 -0.9316  0.0020
  509MOL0     C68598   5.450  11.497   2.201 -0.3287 -0.3430 -0.0111
  509MOL0     C68599   5.583  11.501   2.180 -0.0046  0.3307  1.1619
  509MOL0     C68600   5.669  11.615   2.188 -0.1541  0.7334 -0.3117
  509MOL0     C68601   5.800  11.592   2.277 -0.2570 -0.0104 -0.0548
  509MOL0     C68602   5.884  11.715   2.287  0.2071 -0.5683 -0.2208
  509MOL0     C68603   6.024  11.695   2.346  0.0492  0.8155  0.0930
  509MOL0     O68604   6.019  11.655   2.489  0.9654  0.2301 -0.5056
  509MOL0     C68605   6.141  11.628   2.550 -0.0652  0.3753 -0.4070
  509MOL0     C68606   6.149  11.654   2.688  0.0158  0.1771 -0.4599
  509MOL0     C68607   6.278  11.661   2.754  0.6118 -0.2522 -0.4913
  509MOL0     C68608   6.398  11.629   2.682 -0.4445 -0.3254 -0.3007
  509MOL0     C68609   6.537  11.631   2.731  0.0655 -0.5591 -0.9441
  509MOL0     O68610   6.632  11.579   2.658  0.3603 -0.1685  0.1899
  509MOL0     C68611   6.758  11.567   2.707  0.0631  0.1970 -0.6188
  509MOL0     C68612   6.859  11.635   2.655 -0.4882  0.3626  0.8933
  509MOL0     C68613   6.991  11.608   2.682  0.2034  0.5343  0.0687
  509MOL0     C68614   7.026  11.523   2.792  0.3929  0.0715 -0.0022
  509MOL0     O68615   7.158  11.508   2.821  0.6290  0.1958 -0.4415
  509MOL0     C68616   7.190  11.452   2.955  0.1618  0.4640 -0.0291
  509MOL0     C68617   7.335  11.400   2.959 -0.2492  0.3192 -0.1574
  509MOL0     C68618   7.370  11.347   3.101  0.0413 -0.7827 -0.0298
  509MOL0     C68619   7.524  11.369   3.127  0.5985  0.0403  0.5743
  509MOL0     C68620   7.578  11.288   3.250  0.4939  0.4947 -0.6932
  509MOL0     C68621   7.478  11.293   3.376  0.9213 -0.4320  0.1302
  509MOL0     C68622   7.457  11.425   3.432 -0.3751  0.5526  0.9411
  509MOL0     C68623   7.342  11.431   3.537 -0.5932  0.0441 -1.1088
  509MOL0    Cl68624   7.170  11.454   3.453 -0.1986  0.2346 -0.3110
  509MOL0     C68625   6.920  11.440   2.843 -0.0588  0.3489  0.1359
  509MOL0     C68626   6.788  11.467   2.800  0.0011  0.0577  0.2497
  509MOL0     O68627   6.553  11.678   2.843  0.3291  0.7097 -0.4604
  509MOL0     C68628   6.381  11.581   2.550 -0.0271  0.0585 -0.1748
  509MOL0     C68629   6.258  11.577   2.482  0.9207  0.1358 -0.2596
  509MOL0     N68630   5.621  11.376   2.143 -0.4806 -0.2210 -0.6791
  509MOL0     N68631   5.521  11.297   2.141  0.0870 -0.4958 -0.1019
  509MOL0     C68632   4.358  11.455   2.439  0.0919  0.2255  0.1340
  509MOL0     C68633   4.232  11.405   2.458  0.9623  0.1333 -0.2257
  509MOL0     C68634   3.877  11.123   2.612  0.3745  0.2260 -0.0982
  509MOL0     C68635   3.805  11.191   2.515 -0.5383  0.5381 -0.8684
  509MOL0     C68636   3.668  11.168   2.504 -0.1645 -1.7974  0.2102
  509MOL0     C68637   3.593  11.085   2.585 -0.5855  0.0316 -0.2266
  509MOL0     O68638   3.459  11.073   2.564  0.2078 -0.7279 -0.0391
  509MOL0     C68639   3.386  10.990   2.658 -0.4231 -1.3048  0.0391
  509MOL0     C68640   3.250  10.958   2.595  0.7948 -0.4807  0.3763
  509MOL0     C68641   3.133  11.055   2.629  0.1541  0.6212  0.5550
  509MOL0     C68642   3.008  10.997   2.572  0.6539 -0.3880 -0.0688
  509MOL0     C68643   3.005  10.923   2.447 -0.5146 -0.1010  0.3290
  509MOL0     C68644   3.005  10.860   2.341  0.2965  0.3873  0.1335
  509MOL0     C68645   3.670  11.016   2.679 -0.0571 -0.3204  0.1660
  509MOL0     C68646   3.811  11.023   2.689 -0.3780 -0.1985 -1.1761
  509MOL0     C68647   3.877  10.931   2.793  1.5217  0.3213 -0.7963
  509MOL0     H68648   4.299  11.220   2.730  2.1992  1.7781  0.7083
  509MOL0     H68649   4.519  11.305   2.692  0.9188  0.5472  0.1736
  509MOL0     H68650   4.677  11.514   2.667 -0.7032 -0.9833  1.0772
  509MOL0     H68651   4.691  11.353   2.619 -3.3415  0.2358 -0.6677
  509MOL0     H68652   4.905  11.476   2.590  1.1223  2.6823 -0.4125
  509MOL0     H68653   4.831  11.575   2.460 -2.4377  1.1883  0.3478
  509MOL0     H68654   4.753  11.356   2.356  0.7406  1.8958 -0.2884
  509MOL0     H68655   4.871  11.272   2.467 -2.1491 -0.9528 -0.5855
  509MOL0     H68656   4.920  11.494   2.263  1.5318  1.9172  0.2087
  509MOL0     H68657   5.044  11.427   2.364 -2.3767 -0.0212  3.4152
  509MOL0     H68658   5.044  11.214   2.256 -0.5590 -0.8612 -1.5388
  509MOL0     H68659   4.888  11.237   2.192  0.1473 -0.4185  0.5420
  509MOL0     H68660   5.055  11.250   2.013  1.1901 -0.0308  0.1752
  509MOL0     H68661   4.974  11.408   2.028 -0.7307 -0.0592 -1.4866
  509MOL0     H68662   5.187  11.497   2.123  1.3261 -0.1756  0.1480
  509MOL0     H68663   5.238  11.375   1.999 -0.9670 -0.4314 -0.1551
  509MOL0     H68664   5.254  11.315   2.302 -0.0470 -1.6014  0.5023
  509MOL0     H68665   5.273  11.207   2.164 -1.2716 -0.6031  0.5118
  509MOL0     H68666   5.387  11.576   2.242 -1.5700 -1.2775 -0.0400
  509MOL0     H68667   5.711  11.634   2.089 -0.1466  0.2843 -0.3963
  509MOL0     H68668   5.616  11.709   2.211  0.2153  0.5528  1.4806
  509MOL0     H68669   5.764  11.576   2.379  3.8148 -2.1679  1.2595
  509MOL0     H68670   5.851  11.502   2.242 -1.5611 -0.8893  0.2493
  509MOL0     H68671   5.834  11.797   2.339  1.5355 -0.7345  1.4197
  509MOL0     H68672   5.903  11.751   2.186 -0.0718 -0.4795 -0.2415
  509MOL0     H68673   6.079  11.789   2.348 -0.6637  1.2422  0.2290
  509MOL0     H68674   6.071  11.615   2.289 -1.8862 -1.6782  1.7673
  509MOL0     H68675   6.053  11.674   2.736 -0.3327 -3.6066  0.7673
  509MOL0     H68676   6.291  11.684   2.859 -2.2919 -1.4035  0.2168
  509MOL0     H68677   6.836  11.702   2.573  1.3286 -1.5756 -1.3640
  509MOL0     H68678   7.059  11.661   2.617  0.6678 -2.1102 -1.7575
  509MOL0     H68679   7.159  11.527   3.028 -3.0528 -2.4589  1.9501
  509MOL0     H68680   7.129  11.364   2.977  1.8229 -0.5732  0.6415
  509MOL0     H68681   7.346  11.310   2.898  0.5815  0.8297 -0.7774
  509MOL0     H68682   7.409  11.468   2.916  0.8427 -1.7154 -1.7021
  509MOL0     H68683   7.321  11.405   3.180  0.8728  2.3045 -1.5979
  509MOL0     H68684   7.349  11.240   3.093 -0.4259 -0.5581 -2.8672
  509MOL0     H68685   7.538  11.477   3.140 -2.2303  0.7880 -1.5896
  509MOL0     H68686   7.589  11.333   3.046  2.0431  0.8324  1.3548
  509MOL0     H68687   7.672  11.336   3.279  1.5924 -1.9271  0.0473
  509MOL0     H68688   7.585  11.184   3.217  0.4469  0.4233 -0.4846
  509MOL0     H68689   7.377  11.261   3.347  0.9098 -0.1439 -0.1536
  509MOL0     H68690   7.513  11.217   3.446  0.9716 -2.4140 -1.9509
  509MOL0     H68691   7.444  11.497   3.351 -1.0505 -1.1793 -0.5299
  509MOL0     H68692   7.555  11.450   3.475  0.5285 -1.5659  0.2504
  509MOL0     H68693   7.346  11.344   3.604 -0.9001 -2.8758 -4.5810
  509MOL0     H68694   7.361  11.510   3.611  2.0489  0.3791 -2.0689
  509MOL0     H68695   6.937  11.362   2.917 -1.1735  0.3201  0.3826
  509MOL0     H68696   6.701  11.410   2.832 -0.1579  0.3269  0.3047
  509MOL0     H68697   6.462  11.533   2.495 -0.7976 -0.2065 -1.1137
  509MOL0     H68698   6.252  11.558   2.375  0.0294  2.8556 -0.7824
  509MOL0     H68699   4.384  11.515   2.352  1.3951  2.5185  1.9596
  509MOL0     H68700   4.155  11.419   2.383 -0.0245 -4.9599 -0.5439
  509MOL0     H68701   3.858  11.264   2.455 -0.2114  0.7313 -0.3595
  509MOL0     H68702   3.623  11.211   2.415 -0.7387  0.0299  1.3285
  509MOL0     H68703   3.387  11.038   2.756 -0.9119 -1.2005 -0.0056
  509MOL0     H68704   3.432  10.891   2.668  1.7813 -0.6499 -2.3151
  509MOL0     H68705   3.218  10.858   2.626  0.2492 -1.3878 -2.7830
  509MOL0     H68706   3.256  10.945   2.487 -0.8837 -0.9696  0.3114
  509MOL0     H68707   3.154  11.153   2.585  1.3264  0.3438  0.4579
  509MOL0     H68708   3.127  11.062   2.738  0.0209 -2.2256  0.8059
  509MOL0     H68709   2.969  10.943   2.659  1.2833 -1.4400 -0.4241
  509MOL0     H68710   2.934  11.077   2.568  1.0183  0.0331  1.1026
  509MOL0     H68711   3.000  10.812   2.246 -0.5420 -0.7050  0.7050
  509MOL0     H68712   3.628  10.946   2.751  0.4160 -0.7853 -0.0003
  509MOL0     H68713   3.961  10.878   2.748  0.9113  1.0893 -2.9951
  509MOL0     H68714   3.920  10.982   2.880 -1.1873 -1.1108  1.5376
  509MOL0     H68715   3.798  10.864   2.829  1.2945  0.3235 -1.2753
  510MOL0     O68716   4.353   8.932   7.517 -0.4227  0.2875  0.3820
  510MOL0     C68717   4.332   9.000   7.415 -0.3117 -0.1594  0.5127
  510MOL0     O68718   4.423   9.076   7.347 -0.0989  0.3140 -0.4831
  510MOL0     C68719   4.561   9.035   7.340  0.9038 -0.3009 -1.4584
  510MOL0     C68720   4.629   9.063   7.222  0.0057 -0.1746  0.6647
  510MOL0     C68721   4.765   9.031   7.206  0.9908  0.7227 -0.4281
  510MOL0     C68722   4.833   8.964   7.307 -0.0325 -0.1793 -0.5171
  510MOL0     O68723   4.971   8.943   7.287  0.4929 -0.3488 -0.3998
  510MOL0     C68724   5.038   8.832   7.326 -0.2813  0.4179  1.0120
  510MOL0     C68725   5.185   8.824   7.284  0.6066  0.4955  0.1345
  510MOL0     C68726   5.275   8.925   7.352 -0.9829 -0.7859 -0.3062
  510MOL0     C68727   5.251   8.948   7.500  0.3632  0.1949 -0.1580
  510MOL0     C68728   5.338   9.069   7.533  0.4211  0.2724  0.1679
  510MOL0     C68729   5.491   9.035   7.541 -0.4261 -0.1236 -0.1342
  510MOL0     C68730   5.552   9.143   7.641  0.4212  0.4185  0.5031
  510MOL0     C68731   5.703   9.132   7.643  0.0826 -0.1473  0.2106
  510MOL0     N68732   5.742   9.002   7.702 -0.2338 -0.3925  0.3986
  510MOL0     C68733   5.800   8.990   7.828  0.3418  0.1066  0.4324
  510MOL0     C68734   5.856   8.870   7.831 -0.0732 -0.5417  0.6255
  510MOL0     C68735   5.936   8.804   7.938 -0.5616  0.3170  0.3371
  510MOL0     C68736   6.084   8.826   7.920 -0.2446 -0.0324  0.1129
  510MOL0     C68737   6.172   8.743   8.013 -0.1354 -0.6952  0.5512
  510MOL0     C68738   6.321   8.776   7.976  1.3984 -0.4631 -0.7602
  510MOL0     O68739   6.399   8.710   8.079 -0.9428 -0.4147  0.5180
  510MOL0     C68740   6.529   8.689   8.037  0.0180  0.4309 -0.3809
  510MOL0     C68741   6.604   8.761   7.946  0.4062 -0.5586 -0.6781
  510MOL0     C68742   6.744   8.745   7.927  0.2482 -0.5693  0.2771
  510MOL0     C68743   6.821   8.646   7.994  0.2308 -0.4967  0.0169
  510MOL0     C68744   6.969   8.628   7.988 -0.1364 -0.7344  1.1293
  510MOL0     O68745   7.033   8.720   7.915  0.3151 -0.5676  0.4346
  510MOL0     C68746   7.169   8.705   7.896  0.4524 -0.1272  0.1074
  510MOL0     C68747   7.217   8.681   7.765  1.0211 -0.5250 -0.0782
  510MOL0     C68748   7.345   8.679   7.740  0.3637 -0.0343  0.0683
  510MOL0     C68749   7.436   8.697   7.845 -0.1235 -0.4594 -0.8703
  510MOL0     O68750   7.574   8.712   7.819 -0.2028  0.3867 -0.1204
  510MOL0     C68751   7.628   8.597   7.760  0.4940  0.3296  0.3326
  510MOL0     C68752   7.768   8.615   7.723 -0.3673 -0.0718  0.3225
  510MOL0     C68753   7.851   8.646   7.849 -0.7663 -0.3449 -1.0751
  510MOL0     C68754   7.999   8.651   7.820 -0.0991 -0.2218 -0.4843
  510MOL0     C68755   8.097   8.690   7.932  0.5271  0.2692 -0.2533
  510MOL0     C68756   8.236   8.719   7.871 -0.1733  0.6993  0.1655
  510MOL0     C68757   8.333   8.730   7.986  0.4846 -0.3081 -0.5158
  510MOL0     C68758   8.474   8.729   7.945  0.5574  0.4863 -0.0881
  510MOL0    Cl68759   8.497   8.829   7.805 -0.1610  0.1678 -0.1024
  510MOL0     C68760   7.392   8.724   7.972 -0.7665 -0.0160 -0.4714
  510MOL0     C68761   7.256   8.728   8.002  0.1052 -0.8534  0.1796
  510MOL0     O68762   7.018   8.532   8.048  0.5687 -0.1206  0.1800
  510MOL0     C68763   6.744   8.567   8.076  0.6115  0.6076 -0.0936
  510MOL0     C68764   6.600   8.591   8.100 -1.1659 -0.9630 -0.1844
  510MOL0     N68765   5.835   8.813   7.705  0.0257  0.1287 -0.6689
  510MOL0     N68766   5.759   8.887   7.637 -0.2908  0.2120  0.0012
  510MOL0     C68767   4.766   8.918   7.422 -0.5321 -1.2192  1.1089
  510MOL0     C68768   4.633   8.964   7.445  0.1335  0.1764 -0.1292
  510MOL0     C68769   4.184   9.025   7.381 -0.1984 -0.1870 -0.7726
  510MOL0     C68770   4.158   9.132   7.298  0.5185  0.2308  0.2532
  510MOL0     C68771   4.022   9.163   7.268 -0.2544 -1.5161 -0.4914
  510MOL0     C68772   3.919   9.086   7.304  0.0798 -0.1635  0.3602
  510MOL0     O68773   3.796   9.127   7.260  0.5127  0.1978  0.1091
  510MOL0     C68774   3.684   9.049   7.316 -0.0406 -0.2187 -0.1571
  510MOL0     C68775   3.553   9.102   7.266  0.1326 -0.3328  0.3888
  510MOL0     C68776   3.451   9.043   7.362 -0.0165  0.1839 -0.1690
  510MOL0     C68777   3.320   9.107   7.339 -0.0090 -0.1298 -0.0161
  510MOL0     C68778   3.329   9.236   7.421  0.4273  0.2225  0.5178
  510MOL0     C68779   3.334   9.339   7.477 -0.2922  0.2813 -0.6984
  510MOL0     C68780   3.947   8.969   7.370 -0.1562  0.4178 -0.2016
  510MOL0     C68781   4.076   8.940   7.423  0.2927  0.5685  0.5827
  510MOL0     C68782   4.088   8.816   7.517 -0.6929 -0.3175 -0.3248
  510MOL0     H68783   4.590   9.120   7.138  2.5087  1.2337  0.3474
  510MOL0     H68784   4.809   9.069   7.115  2.0715 -2.6450 -1.4624
  510MOL0     H68785   5.015   8.798   7.428 -0.8283  0.4277  0.8985
  510MOL0     H68786   4.990   8.761   7.258  0.2779 -1.8158  2.8267
  510MOL0     H68787   5.204   8.826   7.177  3.2507 -3.0291  0.3546
  510MOL0     H68788   5.228   8.728   7.315  0.6355  0.5121  0.1452
  510MOL0     H68789   5.249   9.020   7.305  1.1250  0.0293  0.0449
  510MOL0     H68790   5.380   8.896   7.337 -0.8919 -1.6307  1.6415
  510MOL0     H68791   5.149   8.981   7.520 -0.2964 -1.1252 -1.1607
  510MOL0     H68792   5.281   8.856   7.550 -1.8543 -0.8226 -0.5787
  510MOL0     H68793   5.313   9.156   7.471 -0.3982  0.7692  1.1563
  510MOL0     H68794   5.303   9.092   7.635  0.6348 -1.1927  0.5860
  510MOL0     H68795   5.507   8.933   7.577 -1.7591 -0.9692 -1.8265
  510MOL0     H68796   5.536   9.047   7.442  0.0555  0.4525  0.1458
  510MOL0     H68797   5.526   9.118   7.744 -0.1707 -0.6846  0.1132
  510MOL0     H68798   5.514   9.238   7.604 -1.5612 -1.2578 -2.1542
  510MOL0     H68799   5.732   9.143   7.538 -1.4529 -1.5905 -0.4047
  510MOL0     H68800   5.738   9.216   7.703  1.2801 -1.6852  1.8011
  510MOL0     H68801   5.788   9.056   7.913 -2.8280 -1.0533  1.0241
  510MOL0     H68802   5.913   8.835   8.040 -0.2251 -3.1870  1.6224
  510MOL0     H68803   5.918   8.696   7.938  3.0252 -0.4572 -1.6135
  510MOL0     H68804   6.103   8.807   7.814  0.0611  1.1990 -0.0758
  510MOL0     H68805   6.104   8.933   7.935  0.8401 -0.3524  1.0463
  510MOL0     H68806   6.152   8.636   8.004  1.3623 -1.1728  2.2273
  510MOL0     H68807   6.140   8.774   8.113 -0.6086  1.3543 -0.1899
  510MOL0     H68808   6.343   8.883   7.977 -0.7173  0.0075 -1.1807
  510MOL0     H68809   6.351   8.733   7.879  1.2110 -0.6906 -0.7193
  510MOL0     H68810   6.570   8.845   7.886  0.4428 -1.3023 -1.7750
  510MOL0     H68811   6.790   8.810   7.854  0.0135  1.6295  1.9968
  510MOL0     H68812   7.149   8.671   7.680  0.5923  2.9209 -0.3031
  510MOL0     H68813   7.383   8.669   7.639 -3.2813  2.2907 -1.7364
  510MOL0     H68814   7.627   8.517   7.835  4.7355 -0.5425 -0.2746
  510MOL0     H68815   7.569   8.574   7.671 -1.6744  2.0702  1.2542
  510MOL0     H68816   7.820   8.533   7.674  3.7830  2.5220 -0.1769
  510MOL0     H68817   7.770   8.695   7.648 -0.2005 -0.8529 -0.5187
  510MOL0     H68818   7.812   8.741   7.887  0.6559 -0.0415 -0.2823
  510MOL0     H68819   7.839   8.566   7.923  0.4873  0.6291  0.2552
  510MOL0     H68820   8.016   8.724   7.741  1.3579 -0.0003  0.0067
  510MOL0     H68821   8.035   8.556   7.779  0.1697 -0.6947  0.8057
  510MOL0     H68822   8.103   8.603   7.998  1.7362  1.6193  1.5254
  510MOL0     H68823   8.060   8.766   8.002 -1.5753 -2.0846  1.3714
  510MOL0     H68824   8.275   8.643   7.803  0.2372  0.3706  0.7598
  510MOL0     H68825   8.238   8.812   7.814 -0.9935 -0.0753 -1.1869
  510MOL0     H68826   8.322   8.654   8.064  0.9174 -0.5973 -0.7332
  510MOL0     H68827   8.325   8.833   8.024  0.3348 -0.4002 -0.2990
  510MOL0     H68828   8.539   8.777   8.020 -0.5037  2.6819 -0.5014
  510MOL0     H68829   8.506   8.629   7.916 -1.8851  0.5622 -3.6867
  510MOL0     H68830   7.468   8.745   8.047 -0.0612  0.5960 -1.3335
  510MOL0     H68831   7.213   8.755   8.098 -3.8911 -0.1380 -1.6177
  510MOL0     H68832   6.783   8.479   8.126 -0.3623 -0.0497 -0.4579
  510MOL0     H68833   6.538   8.526   8.161 -4.4663 -0.8354 -3.0285
  510MOL0     H68834   4.818   8.865   7.501  0.8880  1.1786  1.8912
  510MOL0     H68835   4.598   8.945   7.546 -0.7473 -1.3051 -0.6833
  510MOL0     H68836   4.242   9.193   7.267  0.6796  0.3962  0.9804
  510MOL0     H68837   3.984   9.254   7.223 -0.4563 -1.1920  0.3201
  510MOL0     H68838   3.702   9.059   7.423  2.1199 -0.8583 -0.4171
  510MOL0     H68839   3.702   8.948   7.279 -0.4265 -0.6496  0.8123
  510MOL0     H68840   3.533   9.071   7.163  0.8579 -0.8364  0.3933
  510MOL0     H68841   3.553   9.211   7.265  0.7163 -0.3321 -0.7254
  510MOL0     H68842   3.476   9.051   7.468  0.6231  1.0792 -0.3695
  510MOL0     H68843   3.439   8.935   7.347 -0.0995 -0.1959  2.3049
  510MOL0     H68844   3.296   9.130   7.235  1.3910 -1.1011 -0.5940
  510MOL0     H68845   3.241   9.048   7.386  0.0800  1.3862  2.2140
  510MOL0     H68846   3.341   9.434   7.527  0.5879  0.2933 -0.8309
  510MOL0     H68847   3.872   8.893   7.390 -2.0722  2.2056 -0.3425
  510MOL0     H68848   4.136   8.835   7.613 -1.8040  2.9452 -0.2863
  510MOL0     H68849   3.989   8.773   7.534 -2.0174  2.3267 -0.7480
  510MOL0     H68850   4.159   8.741   7.481  2.0326  1.3939  1.1090
  511MOL0     O68851   2.472   8.991   7.150 -0.2075  0.2807  0.2450
  511MOL0     C68852   2.449   9.102   7.199 -0.0819 -0.2415 -0.1188
  511MOL0     O68853   2.540   9.199   7.225 -0.1725  0.5267 -0.0390
  511MOL0     C68854   2.676   9.168   7.196  0.9246  0.9596 -0.1397
  511MOL0     C68855   2.730   9.211   7.078 -0.5138 -0.0076 -0.5974
  511MOL0     C68856   2.866   9.186   7.040  0.1651 -0.6079 -1.0020
  511MOL0     C68857   2.939   9.095   7.110 -0.0675 -1.0251 -0.0168
  511MOL0     O68858   3.057   9.059   7.055  0.1540  0.1640  0.2075
  511MOL0     C68859   3.118   8.932   7.092  0.3312 -0.2114  0.3021
  511MOL0     C68860   3.239   8.941   7.001 -0.2259  0.2830  0.0795
  511MOL0     C68861   3.318   8.809   7.003  0.2629  0.3066 -0.0854
  511MOL0     C68862   3.437   8.825   6.910  0.3343  0.2662  0.1788
  511MOL0     C68863   3.538   8.702   6.924 -0.5923  0.3555  0.0078
  511MOL0     C68864   3.649   8.754   7.009  0.3318 -0.1628  0.7838
  511MOL0     C68865   3.771   8.669   7.030  0.1966 -0.4426  0.2514
  511MOL0     C68866   3.892   8.748   7.070  0.3934  0.1809  0.1652
  511MOL0     N68867   4.017   8.678   7.119  0.1667 -0.1627 -0.4205
  511MOL0     C68868   4.146   8.739   7.112  0.1777  0.0153  0.1908
  511MOL0     C68869   4.230   8.662   7.190  0.5763  0.1536 -0.0453
  511MOL0     C68870   4.383   8.679   7.187 -0.5531  0.0621  0.4367
  511MOL0     C68871   4.449   8.575   7.263  0.3283  0.5270  0.6418
  511MOL0     C68872   4.584   8.624   7.313 -0.2011 -0.1816 -0.9964
  511MOL0     C68873   4.684   8.663   7.199  0.4937  0.6980 -0.8095
  511MOL0     O68874   4.688   8.563   7.095  0.2614 -0.1304 -0.0159
  511MOL0     C68875   4.812   8.531   7.076  0.2550  0.7606 -0.4138
  511MOL0     C68876   4.857   8.397   7.097  0.2968  0.2570  0.3860
  511MOL0     C68877   4.987   8.355   7.072 -0.3354  0.2159  1.3663
  511MOL0     C68878   5.076   8.456   7.022  0.7076  1.0194  0.1461
  511MOL0     C68879   5.217   8.420   7.003  0.0531  0.2817  0.3810
  511MOL0     O68880   5.282   8.487   6.905 -0.4304  0.7115 -0.3184
  511MOL0     C68881   5.391   8.424   6.850 -0.3127 -0.4620  0.1028
  511MOL0     C68882   5.392   8.302   6.773  0.2743  0.0338  0.1909
  511MOL0     C68883   5.506   8.239   6.731 -0.0313  0.4877 -0.0870
  511MOL0     C68884   5.623   8.281   6.780 -0.7087 -0.5753  0.2610
  511MOL0     O68885   5.729   8.200   6.730  0.5362 -1.1278  0.4528
  511MOL0     C68886   5.863   8.240   6.758 -0.2930 -0.2383  0.0714
  511MOL0     C68887   5.902   8.364   6.690 -0.6749 -0.1397  0.3509
  511MOL0     C68888   6.045   8.396   6.677 -0.1198 -0.3164 -0.9695
  511MOL0     C68889   6.115   8.423   6.814 -0.8545  0.2497 -0.0450
  511MOL0     C68890   6.247   8.500   6.799 -0.6292  0.4652  0.0015
  511MOL0     C68891   6.333   8.436   6.685  0.0732  0.0226  0.3666
  511MOL0     C68892   6.482   8.479   6.690  0.7289 -0.2104  0.8674
  511MOL0     C68893   6.557   8.410   6.579 -0.2928  0.6024  0.2469
  511MOL0    Cl68894   6.721   8.465   6.562  0.0693  0.2272  0.1753
  511MOL0     C68895   5.634   8.389   6.862 -0.2302  0.5181 -0.5823
  511MOL0     C68896   5.519   8.460   6.897  0.0660 -0.4169 -0.1932
  511MOL0     O68897   5.256   8.321   7.062 -0.1099  0.0888  0.1975
  511MOL0     C68898   5.034   8.587   6.999 -0.3089  0.4555 -0.1204
  511MOL0     C68899   4.903   8.626   7.032 -0.2840  0.2000 -0.4621
  511MOL0     N68900   4.153   8.548   7.243  0.2663 -0.7882  0.1014
  511MOL0     N68901   4.024   8.569   7.202  0.9198 -0.9678 -0.3543
  511MOL0     C68902   2.880   9.046   7.232  0.3921  0.5340  0.4404
  511MOL0     C68903   2.756   9.091   7.277  0.1805  0.3447  0.7871
  511MOL0     C68904   2.304   9.146   7.197 -0.4812  0.1045  0.2763
  511MOL0     C68905   2.273   9.280   7.213 -0.0484 -0.6717  0.5501
  511MOL0     C68906   2.141   9.330   7.184  0.4519 -0.4614  0.2368
  511MOL0     C68907   2.037   9.245   7.148  0.0710 -0.2832 -0.3470
  511MOL0     O68908   1.910   9.288   7.114  0.2484 -0.6554 -0.0027
  511MOL0     C68909   1.822   9.333   7.216  0.9737  0.7564 -0.1324
  511MOL0     C68910   1.704   9.409   7.153  0.3576  0.5327  0.4340
  511MOL0     C68911   1.615   9.484   7.262 -0.0327 -0.7092  0.1340
  511MOL0     C68912   1.495   9.560   7.193 -0.7823  0.5563  0.4085
  511MOL0     C68913   1.381   9.475   7.151  0.0351 -0.8553  0.1080
  511MOL0     C68914   1.283   9.420   7.116 -0.4875 -0.2919 -1.2817
  511MOL0     C68915   2.066   9.109   7.148  1.0228  0.1006 -0.8603
  511MOL0     C68916   2.192   9.055   7.175 -0.1778  0.3609  0.7433
  511MOL0     C68917   2.204   8.911   7.151  0.2675 -0.3148  0.0828
  511MOL0     H68918   2.661   9.279   7.031 -3.1892 -1.7026  0.6355
  511MOL0     H68919   2.903   9.229   6.947 -1.5051  0.6507 -1.1389
  511MOL0     H68920   3.147   8.921   7.197 -0.9362  1.9208  0.9222
  511MOL0     H68921   3.060   8.844   7.062 -0.3025  0.6455 -1.0901
  511MOL0     H68922   3.305   9.015   7.049 -1.9349  0.9823  1.4407
  511MOL0     H68923   3.215   8.966   6.898  1.0026  1.4716  0.0367
  511MOL0     H68924   3.263   8.721   6.971  0.0999  0.2335  0.3903
  511MOL0     H68925   3.358   8.802   7.105  2.1215  2.6924 -0.5526
  511MOL0     H68926   3.399   8.834   6.808 -3.8484 -4.4401  0.9698
  511MOL0     H68927   3.491   8.919   6.930 -1.7648  1.0606  2.7273
  511MOL0     H68928   3.500   8.609   6.967  0.0551  0.4850  0.8832
  511MOL0     H68929   3.575   8.682   6.823 -0.4246 -0.4019  0.2144
  511MOL0     H68930   3.694   8.850   6.983 -0.7385  0.7120  1.9823
  511MOL0     H68931   3.604   8.785   7.104  0.6304 -0.1557  0.9233
  511MOL0     H68932   3.789   8.613   6.938 -0.1634  0.2297 -0.2298
  511MOL0     H68933   3.736   8.600   7.107  0.0833  1.5659  2.0949
  511MOL0     H68934   3.928   8.809   6.986  0.6717 -3.7700 -2.8699
  511MOL0     H68935   3.869   8.813   7.155 -2.0084 -0.6744  0.2384
  511MOL0     H68936   4.170   8.820   7.045  2.1162  0.2010  1.0328
  511MOL0     H68937   4.420   8.668   7.085 -1.6354  1.5503 -0.1530
  511MOL0     H68938   4.402   8.782   7.219  1.2770  0.3628 -1.4282
  511MOL0     H68939   4.385   8.547   7.347 -2.1195  0.1217 -1.2361
  511MOL0     H68940   4.471   8.489   7.198  0.4645  1.9426 -1.2667
  511MOL0     H68941   4.621   8.542   7.375 -1.6143 -0.0523  0.0513
  511MOL0     H68942   4.567   8.714   7.372  0.5367  0.1312 -1.2426
  511MOL0     H68943   4.779   8.671   7.253  0.0281  1.4636 -0.0699
  511MOL0     H68944   4.661   8.760   7.154 -0.7286  1.0391  0.4878
  511MOL0     H68945   4.784   8.336   7.150 -0.5320  1.0864  0.2113
  511MOL0     H68946   5.012   8.251   7.091 -4.2837 -1.3042 -0.5495
  511MOL0     H68947   5.296   8.259   6.745 -0.4498  0.7953  1.4189
  511MOL0     H68948   5.497   8.156   6.662 -0.2537  1.4618 -1.2600
  511MOL0     H68949   5.884   8.250   6.865 -0.8563 -0.8647  0.2428
  511MOL0     H68950   5.939   8.169   6.725  1.2835  1.7486 -0.8552
  511MOL0     H68951   5.870   8.350   6.586  1.8451 -0.0777 -0.5119
  511MOL0     H68952   5.845   8.450   6.728  0.8535  1.4611 -0.8117
  511MOL0     H68953   6.091   8.319   6.615 -1.6003 -2.5037  0.5250
  511MOL0     H68954   6.050   8.490   6.621  1.3130  0.1611 -0.1037
  511MOL0     H68955   6.142   8.327   6.859  0.1728 -0.0050 -1.1462
  511MOL0     H68956   6.047   8.473   6.884 -1.7806  1.5554 -1.7884
  511MOL0     H68957   6.305   8.499   6.892 -0.3183  0.5779 -0.1911
  511MOL0     H68958   6.232   8.607   6.784  0.7427  1.2655  3.2636
  511MOL0     H68959   6.332   8.328   6.700  2.0679 -0.1383 -0.3944
  511MOL0     H68960   6.289   8.463   6.588  0.1837 -5.2048 -1.4351
  511MOL0     H68961   6.523   8.448   6.787 -2.9383 -0.0650  2.6653
  511MOL0     H68962   6.492   8.587   6.680 -3.2123  0.3461  1.4578
  511MOL0     H68963   6.563   8.303   6.601 -4.7032  0.0597 -0.3359
  511MOL0     H68964   6.503   8.422   6.485 -1.2463 -2.3259  0.3053
  511MOL0     H68965   5.726   8.420   6.910 -0.3991  2.4022 -1.3844
  511MOL0     H68966   5.509   8.522   6.986  0.4792 -1.9059  0.9493
  511MOL0     H68967   5.106   8.656   6.957 -0.6307  0.8285 -0.0648
  511MOL0     H68968   4.865   8.727   7.016 -1.5317 -0.0172  0.9082
  511MOL0     H68969   2.935   8.984   7.302  2.8438  0.6661 -1.2560
  511MOL0     H68970   2.715   9.043   7.365 -0.1906 -0.5084  0.1629
  511MOL0     H68971   2.350   9.356   7.227 -0.1831 -0.3127 -0.5667
  511MOL0     H68972   2.119   9.437   7.186 -2.5318 -0.9947  3.2476
  511MOL0     H68973   1.876   9.399   7.284  0.2169  1.5008 -0.2377
  511MOL0     H68974   1.786   9.243   7.268 -0.0217 -0.4628 -2.7568
  511MOL0     H68975   1.637   9.340   7.100  0.9993 -0.1075  0.4416
  511MOL0     H68976   1.737   9.484   7.080 -0.9348 -0.5077 -1.3069
  511MOL0     H68977   1.669   9.557   7.323  1.0081 -1.3293 -0.0216
  511MOL0     H68978   1.565   9.414   7.328 -1.9791  0.9703  0.5213
  511MOL0     H68979   1.457   9.629   7.269  2.0774  0.8149  1.7198
  511MOL0     H68980   1.532   9.612   7.104  1.2109  0.3721  1.0681
  511MOL0     H68981   1.185   9.381   7.101 -0.1607 -0.5936 -2.7906
  511MOL0     H68982   1.979   9.045   7.135 -0.2142  1.7814 -1.2859
  511MOL0     H68983   2.107   8.862   7.139 -1.1565  2.5420 -1.1379
  511MOL0     H68984   2.266   8.893   7.062  2.5439  0.1449  1.4801
  511MOL0     H68985   2.250   8.862   7.236 -1.3683 -0.8805  0.6722
  512MOL0     O68986   6.778   3.135  10.921  0.5125 -0.2609  0.3751
  512MOL0     C68987   6.722   3.116  11.028 -0.0606  0.4914 -0.1080
  512MOL0     O68988   6.784   3.109  11.143  0.9950 -0.6485 -0.1927
  512MOL0     C68989   6.911   3.158  11.147 -0.5040  0.3311 -0.8616
  512MOL0     C68990   6.932   3.292  11.123  0.2192 -0.0645 -0.9806
  512MOL0     C68991   7.058   3.347  11.156  0.0665 -0.0848  0.1995
  512MOL0     C68992   7.165   3.273  11.205  0.2510  0.3422 -0.2368
  512MOL0     O68993   7.274   3.347  11.256  0.3315 -0.0386 -0.1204
  512MOL0     C68994   7.400   3.283  11.254  0.8244 -0.4533  0.0171
  512MOL0     C68995   7.514   3.390  11.286 -0.0978 -0.5221  0.2213
  512MOL0     C68996   7.655   3.326  11.299  0.4078 -0.5104 -0.1958
  512MOL0     C68997   7.730   3.404  11.409 -0.0973 -0.1393 -0.7583
  512MOL0     C68998   7.862   3.340  11.422 -0.8610 -1.0145  0.1763
  512MOL0     C68999   7.966   3.444  11.484  0.1259  0.0221 -0.0899
  512MOL0     C69000   8.095   3.381  11.521  0.2918 -0.5728  0.3245
  512MOL0     C69001   8.184   3.483  11.597  0.1163  0.7896 -0.2822
  512MOL0     N69002   8.317   3.435  11.639  0.1573 -0.1169 -0.5701
  512MOL0     C69003   8.366   3.310  11.654 -0.7715  0.0726 -0.7162
  512MOL0     C69004   8.499   3.323  11.698 -0.0089 -0.0605  0.2516
  512MOL0     C69005   8.596   3.206  11.710 -0.2161 -0.7098 -0.1926
  512MOL0     C69006   8.741   3.250  11.685 -0.2448  0.0975 -0.5346
  512MOL0     C69007   8.835   3.158  11.769  0.8307  0.2545 -0.0633
  512MOL0     C69008   8.980   3.209  11.757  0.4897  0.6638 -0.0756
  512MOL0     O69009   9.055   3.124  11.847  0.2585  0.0238 -0.3807
  512MOL0     C69010   9.192   3.131  11.841  0.1567 -0.5680 -1.1369
  512MOL0     C69011   9.259   3.046  11.927  0.0886 -0.0798 -0.8526
  512MOL0     C69012   9.397   3.040  11.922 -0.1103  0.9601 -0.5640
  512MOL0     C69013   9.479   3.119  11.842  0.4075  0.0546 -0.3363
  512MOL0     C69014   9.623   3.113  11.851 -0.0793 -0.1702 -0.1414
  512MOL0     O69015   9.679   3.004  11.919  0.4916 -0.0144 -0.9669
  512MOL0     C69016   9.807   3.023  11.959 -0.0413  0.4376 -0.0902
  512MOL0     C69017   9.833   2.994  12.096  0.3552  0.1854  0.3392
  512MOL0     C69018   9.959   2.980  12.150  0.2451 -0.2966  0.3224
  512MOL0     C69019  10.069   3.004  12.072  0.1614 -0.1077 -0.4854
  512MOL0     O69020  10.191   3.000  12.133 -0.0975 -0.2206 -0.1703
  512MOL0     C69021  10.311   2.998  12.055  0.1788 -0.7180  0.4858
  512MOL0     C69022  10.410   2.973  12.165 -0.2077  0.3141  0.5697
  512MOL0     C69023  10.549   2.954  12.102 -0.1672  0.1575 -0.3910
  512MOL0     C69024  10.601   3.087  12.067  0.3927  0.2204 -0.3361
  512MOL0     C69025  10.749   3.072  12.018  0.1185 -0.2891  0.5202
  512MOL0     C69026  10.840   3.095  12.138 -1.2825  0.2801  0.4809
  512MOL0     C69027  10.971   3.159  12.088  0.3226  0.5183 -0.2403
  512MOL0     C69028  11.075   3.196  12.186  0.0748  0.0826  0.4210
  512MOL0    Cl69029  11.142   3.035  12.244 -0.7574 -0.9216 -0.0222
  512MOL0     C69030  10.044   3.036  11.941 -0.4483 -0.3702  0.0397
  512MOL0     C69031   9.918   3.047  11.882 -0.6615  0.0970 -0.3677
  512MOL0     O69032   9.691   3.197  11.796  0.1712  0.1537 -0.6296
  512MOL0     C69033   9.405   3.211  11.757 -0.5454  0.7129 -0.8542
  512MOL0     C69034   9.262   3.209  11.749  0.5567 -0.4794  0.9700
  512MOL0     N69035   8.518   3.460  11.720  0.2310  0.1058 -0.1583
  512MOL0     N69036   8.417   3.526  11.669  1.1886  0.2255  0.4424
  512MOL0     C69037   7.145   3.134  11.217 -0.4984  0.7211  0.4314
  512MOL0     C69038   7.023   3.081  11.175 -0.2417  0.2013 -0.2319
  512MOL0     C69039   6.584   3.068  11.032  0.2116  0.0380  0.6112
  512MOL0     C69040   6.551   2.930  11.048 -0.4140 -0.6637 -0.5594
  512MOL0     C69041   6.414   2.896  11.071  0.3289  0.4375 -0.0749
  512MOL0     C69042   6.316   2.994  11.062 -0.3498  0.5311  0.1291
  512MOL0     O69043   6.188   2.947  11.082 -0.5025  0.1513 -0.1583
  512MOL0     C69044   6.081   3.031  11.045  0.9555  0.0350 -0.1917
  512MOL0     C69045   5.948   2.975  11.031  0.4377  0.1823 -0.5435
  512MOL0     C69046   5.891   2.949  11.177  0.0834 -0.0183 -0.6452
  512MOL0     C69047   5.743   2.905  11.175  0.6404 -0.3153 -0.5494
  512MOL0     C69048   5.729   2.798  11.277  0.4786 -0.5291  0.4322
  512MOL0     C69049   5.725   2.710  11.360  0.8231  0.5231 -0.9092
  512MOL0     C69050   6.353   3.126  11.042 -0.0250  0.0604 -0.2229
  512MOL0     C69051   6.482   3.165  11.023  1.0438 -0.1094  0.6321
  512MOL0     C69052   6.497   3.307  10.984 -0.2886  0.1537  0.4376
  512MOL0     H69053   6.841   3.348  11.101 -0.2754 -1.1806 -1.8595
  512MOL0     H69054   7.081   3.452  11.142 -1.5232 -0.0855 -3.6344
  512MOL0     H69055   7.401   3.195  11.318 -1.1503 -0.2026  0.4345
  512MOL0     H69056   7.419   3.256  11.150  3.6584  0.9030  0.0758
  512MOL0     H69057   7.492   3.436  11.383 -0.4705 -1.5331  0.6319
  512MOL0     H69058   7.526   3.465  11.208  0.1713  0.4372  1.1559
  512MOL0     H69059   7.688   3.346  11.197 -0.4444  2.0747 -0.0408
  512MOL0     H69060   7.643   3.223  11.335 -1.4067  0.7734  3.3350
  512MOL0     H69061   7.740   3.507  11.374 -0.0669  1.2015  2.8331
  512MOL0     H69062   7.681   3.411  11.507 -0.3625 -2.0450 -0.7232
  512MOL0     H69063   7.860   3.252  11.486  1.1104 -0.5829  0.8998
  512MOL0     H69064   7.906   3.306  11.328  0.0039  0.6090 -0.0486
  512MOL0     H69065   7.994   3.528  11.419 -0.3884  0.1303 -0.1772
  512MOL0     H69066   7.922   3.497  11.568 -1.1881  0.2921 -0.9124
  512MOL0     H69067   8.149   3.357  11.429  0.7585 -1.7970  0.8989
  512MOL0     H69068   8.075   3.294  11.584  0.9616 -1.7077 -0.9677
  512MOL0     H69069   8.198   3.567  11.529 -1.2487  1.1081 -0.1988
  512MOL0     H69070   8.140   3.520  11.691  1.3628 -0.1181  0.6867
  512MOL0     H69071   8.318   3.215  11.631 -0.7825 -0.7343  2.2213
  512MOL0     H69072   8.592   3.165  11.812  0.6929 -1.5598 -0.4812
  512MOL0     H69073   8.567   3.123  11.646  0.0229 -0.1852 -0.9931
  512MOL0     H69074   8.760   3.233  11.579  1.2836 -1.8121 -0.0186
  512MOL0     H69075   8.750   3.356  11.710 -1.6004  0.0830  0.1052
  512MOL0     H69076   8.813   3.057  11.734 -3.0878  0.2265  1.9914
  512MOL0     H69077   8.802   3.171  11.872 -2.1042  0.8125 -0.9776
  512MOL0     H69078   8.987   3.312  11.794  0.7640  1.0646 -1.2009
  512MOL0     H69079   9.012   3.216  11.653  1.2512 -0.7536  0.0476
  512MOL0     H69080   9.201   2.982  11.994 -2.2949 -0.0933 -2.7829
  512MOL0     H69081   9.450   2.975  11.991  1.1538  1.3998 -1.1068
  512MOL0     H69082   9.753   2.956  12.158 -1.3147 -1.0737 -2.3665
  512MOL0     H69083   9.982   2.958  12.254  3.9383  0.8098 -0.1141
  512MOL0     H69084  10.305   2.915  11.984  1.5417 -1.3810  1.1133
  512MOL0     H69085  10.322   3.093  12.003  0.9947 -0.8927  0.3323
  512MOL0     H69086  10.404   3.055  12.237 -0.5969 -0.5172  1.5059
  512MOL0     H69087  10.382   2.879  12.213 -0.8005 -0.5591 -1.4115
  512MOL0     H69088  10.620   2.912  12.174  1.9163  1.3467 -1.6314
  512MOL0     H69089  10.542   2.888  12.015  2.7059 -0.6527 -0.1087
  512MOL0     H69090  10.600   3.139  12.163  1.0116 -1.2502  0.5037
  512MOL0     H69091  10.546   3.148  11.995  0.9443  1.0889 -0.0342
  512MOL0     H69092  10.781   3.134  11.934 -0.9663 -0.5698 -0.1245
  512MOL0     H69093  10.773   2.969  11.989 -3.0911 -0.5703 -1.7919
  512MOL0     H69094  10.791   3.158  12.213 -2.1764 -2.0981  1.9918
  512MOL0     H69095  10.866   3.003  12.190  0.4818  1.2509  1.4126
  512MOL0     H69096  10.945   3.253  12.038  2.2585  0.7660 -0.8369
  512MOL0     H69097  11.011   3.090  12.013 -1.7064  0.8064 -1.6809
  512MOL0     H69098  11.160   3.250  12.141 -0.5442  0.4326 -0.3567
  512MOL0     H69099  11.028   3.250  12.268  0.7403  0.4552  0.5621
  512MOL0     H69100  10.125   3.064  11.874 -0.2138  0.0627  0.4944
  512MOL0     H69101   9.908   3.053  11.774  2.5136  3.2575 -0.6913
  512MOL0     H69102   9.460   3.289  11.705  0.8817  2.0350  2.3328
  512MOL0     H69103   9.221   3.279  11.678  0.6624  1.1484  2.4530
  512MOL0     H69104   7.210   3.061  11.264 -0.0635  0.3900 -0.6536
  512MOL0     H69105   7.016   2.973  11.178 -1.4721  0.2904  1.9987
  512MOL0     H69106   6.637   2.864  11.049  1.5047  1.6376  2.2056
  512MOL0     H69107   6.386   2.794  11.095 -0.4450  0.7788  0.5197
  512MOL0     H69108   6.102   3.066  10.944 -1.6771 -0.9319 -1.1515
  512MOL0     H69109   6.071   3.119  11.109 -0.0780 -0.6937  0.6858
  512MOL0     H69110   5.939   2.876  10.985 -1.4823  0.0146  0.1037
  512MOL0     H69111   5.887   3.038  10.966 -1.3126  0.9884  1.7507
  512MOL0     H69112   5.900   3.040  11.237  1.8210 -0.0033 -0.8952
  512MOL0     H69113   5.961   2.887  11.233  0.3115  2.2964  1.8140
  512MOL0     H69114   5.682   2.994  11.193  1.7642  0.4476 -0.3997
  512MOL0     H69115   5.713   2.868  11.077  0.3701  0.8756 -0.9264
  512MOL0     H69116   5.721   2.639  11.440 -0.7875 -1.5886 -2.7672
  512MOL0     H69117   6.271   3.197  11.039 -0.5794 -0.5886 -0.9093
  512MOL0     H69118   6.506   3.379  11.065 -1.0778  2.6189 -1.5471
  512MOL0     H69119   6.584   3.322  10.920 -0.5225  3.0884  0.6826
  512MOL0     H69120   6.412   3.330  10.920  1.1613  1.6339 -1.0685
  513MOL0     O69121   5.375   3.757   8.449 -0.4936  0.1546  0.1480
  513MOL0     C69122   5.283   3.807   8.507  0.7593  0.2501  0.2263
  513MOL0     O69123   5.277   3.940   8.541  0.2630  0.6114 -0.3134
  513MOL0     C69124   5.400   4.001   8.565 -0.5162 -0.0030  0.3938
  513MOL0     C69125   5.410   4.135   8.532  0.2044  0.3227 -0.3695
  513MOL0     C69126   5.534   4.207   8.551  0.5328  0.3230  1.2226
  513MOL0     C69127   5.647   4.137   8.590 -0.4635 -0.1885  0.0759
  513MOL0     O69128   5.758   4.211   8.605 -0.8256  0.1073 -0.6867
  513MOL0     C69129   5.871   4.142   8.567 -0.0791 -0.2617 -0.4517
  513MOL0     C69130   5.969   4.213   8.486 -0.1697  0.3413  0.1310
  513MOL0     C69131   6.098   4.131   8.465  0.1131  0.0757  0.4346
  513MOL0     C69132   6.207   4.223   8.425  0.0093  0.4793  0.1601
  513MOL0     C69133   6.342   4.150   8.388 -0.5863 -0.2722 -0.4838
  513MOL0     C69134   6.419   4.248   8.297  0.7721 -0.0858 -0.4534
  513MOL0     C69135   6.548   4.195   8.234 -0.5229  0.0896 -0.6949
  513MOL0     C69136   6.622   4.304   8.166 -0.9846 -0.1209 -0.3377
  513MOL0     N69137   6.672   4.405   8.263  0.3531  0.0258 -0.3161
  513MOL0     C69138   6.621   4.537   8.257 -0.5965 -0.5404 -0.0450
  513MOL0     C69139   6.705   4.607   8.336 -0.1921  0.3591  0.1201
  513MOL0     C69140   6.706   4.764   8.347 -0.5017  0.4063  0.4049
  513MOL0     C69141   6.833   4.833   8.281 -0.2484  0.6889  0.8494
  513MOL0     C69142   6.866   4.974   8.322  0.4074 -0.5130 -0.1227
  513MOL0     C69143   7.014   5.006   8.317 -0.5213 -0.2893  0.5582
  513MOL0     O69144   7.029   5.140   8.371  0.7862 -1.3538  0.5600
  513MOL0     C69145   7.162   5.190   8.369  0.6721  1.0756 -0.4032
  513MOL0     C69146   7.273   5.116   8.324  0.3363 -0.1260 -0.4542
  513MOL0     C69147   7.399   5.176   8.324  0.7875 -0.0711  0.4266
  513MOL0     C69148   7.417   5.323   8.350 -0.3974  0.1362 -0.7715
  513MOL0     C69149   7.552   5.367   8.331  0.5546  0.3686  0.1624
  513MOL0     O69150   7.643   5.282   8.294 -0.2691 -0.0399  0.1447
  513MOL0     C69151   7.776   5.314   8.306  0.2409 -0.0347 -0.2988
  513MOL0     C69152   7.859   5.326   8.198  0.3681  0.2582  0.2988
  513MOL0     C69153   8.001   5.329   8.210 -0.3168  0.6860  0.2526
  513MOL0     C69154   8.059   5.327   8.344 -0.1755  0.5006  0.1562
  513MOL0     O69155   8.191   5.327   8.378 -0.3892  0.4666  0.8569
  513MOL0     C69156   8.296   5.344   8.274  0.0426  0.7056 -0.5504
  513MOL0     C69157   8.432   5.302   8.336  0.4701  0.5385  0.0578
  513MOL0     C69158   8.545   5.332   8.236  0.0081 -0.1818 -0.5714
  513MOL0     C69159   8.682   5.287   8.276  0.2579  0.1542 -0.2358
  513MOL0     C69160   8.738   5.360   8.403 -0.3611  0.1613  0.2761
  513MOL0     C69161   8.878   5.303   8.420  0.3591 -0.1362  0.7199
  513MOL0     C69162   8.942   5.333   8.551  0.3888  0.0040  0.9714
  513MOL0     C69163   9.093   5.322   8.546 -0.2840  0.0479  0.0489
  513MOL0    Cl69164   9.148   5.173   8.467  0.5227 -0.1592  0.5724
  513MOL0     C69165   7.970   5.324   8.451 -0.2800 -0.6022  0.4558
  513MOL0     C69166   7.835   5.321   8.437  0.3357 -0.4312  1.1351
  513MOL0     O69167   7.566   5.490   8.347 -0.1269 -0.2074 -0.1827
  513MOL0     C69168   7.306   5.393   8.397  0.6012  0.4475 -0.5542
  513MOL0     C69169   7.178   5.324   8.401  0.3961 -0.3820 -0.4148
  513MOL0     N69170   6.791   4.511   8.398  0.5260  0.9271  0.4178
  513MOL0     N69171   6.765   4.390   8.353 -1.2210 -0.1433 -0.5697
  513MOL0     C69172   5.635   4.006   8.630 -0.2121 -0.6373  0.1998
  513MOL0     C69173   5.510   3.938   8.626  0.6473 -0.2527 -0.8449
  513MOL0     C69174   5.185   3.709   8.553 -0.1270 -0.2439  0.0668
  513MOL0     C69175   5.227   3.622   8.654 -0.0798 -0.5718 -0.2656
  513MOL0     C69176   5.143   3.527   8.711  0.3383  0.3625 -0.3942
  513MOL0     C69177   5.009   3.516   8.664 -0.6017 -0.7341  0.1222
  513MOL0     O69178   4.916   3.427   8.704 -0.0256  0.5549 -0.1187
  513MOL0     C69179   4.961   3.325   8.791 -0.0842 -0.4310  0.9598
  513MOL0     C69180   4.843   3.230   8.818 -0.2060 -0.2587  0.3783
  513MOL0     C69181   4.781   3.187   8.678  0.5601 -0.2584 -0.4748
  513MOL0     C69182   4.716   3.047   8.684  0.6005  0.3514  0.2923
  513MOL0     C69183   4.683   3.008   8.547 -0.3891  0.2849  0.3064
  513MOL0     C69184   4.657   2.971   8.431 -0.4966 -0.1543 -0.0240
  513MOL0     C69185   4.966   3.616   8.577  0.2803  0.6260 -0.5068
  513MOL0     C69186   5.052   3.710   8.522 -0.2100 -0.3959  0.5297
  513MOL0     C69187   4.992   3.805   8.428 -0.0126  0.2705  0.6502
  513MOL0     H69188   5.339   4.205   8.489 -0.3457 -0.0942 -0.1415
  513MOL0     H69189   5.528   4.315   8.542  1.9289  0.3996  0.9764
  513MOL0     H69190   5.920   4.104   8.657 -2.5964 -1.4101  0.5286
  513MOL0     H69191   5.841   4.062   8.499 -0.5524 -0.5647  0.1079
  513MOL0     H69192   5.994   4.301   8.546  0.9998 -0.8510  1.4582
  513MOL0     H69193   5.928   4.251   8.392  0.8313  0.4721 -0.2737
  513MOL0     H69194   6.094   4.064   8.378  1.4331  0.7111 -0.1596
  513MOL0     H69195   6.131   4.080   8.556 -0.4582  0.7824  1.0484
  513MOL0     H69196   6.174   4.274   8.334  1.3537 -1.3259 -1.4197
  513MOL0     H69197   6.217   4.301   8.501  0.7456  1.1493 -0.5936
  513MOL0     H69198   6.401   4.132   8.478  0.5178 -2.1375 -1.5164
  513MOL0     H69199   6.320   4.058   8.332 -1.5852 -1.3996  1.6476
  513MOL0     H69200   6.354   4.278   8.214  0.1036 -1.6415 -0.5254
  513MOL0     H69201   6.436   4.332   8.366  0.7461 -1.3063  1.0986
  513MOL0     H69202   6.532   4.109   8.169 -0.0955  0.5048 -1.3720
  513MOL0     H69203   6.616   4.162   8.313  0.7992  1.6577 -1.0973
  513MOL0     H69204   6.709   4.265   8.113  2.1940  3.6792  1.5505
  513MOL0     H69205   6.559   4.360   8.096 -0.0413  2.7966  0.9678
  513MOL0     H69206   6.553   4.575   8.182  1.5444  0.6614 -1.4932
  513MOL0     H69207   6.630   4.815   8.286  1.3561 -0.6986 -3.1579
  513MOL0     H69208   6.707   4.796   8.451  0.0376  1.2895  0.1382
  513MOL0     H69209   6.920   4.770   8.303 -0.4667 -0.5507 -1.5275
  513MOL0     H69210   6.830   4.838   8.172 -0.4484 -0.0382  0.8170
  513MOL0     H69211   6.830   4.988   8.425  1.7975  0.8294  0.2099
  513MOL0     H69212   6.810   5.045   8.260 -1.2535 -0.5782  1.2144
  513MOL0     H69213   7.046   4.997   8.213 -0.2576 -1.2102  0.7101
  513MOL0     H69214   7.081   4.942   8.374  0.7623  0.0579 -0.5226
  513MOL0     H69215   7.268   5.013   8.290 -3.2287 -0.2285  0.0381
  513MOL0     H69216   7.482   5.116   8.287  0.1962  0.7550 -2.4422
  513MOL0     H69217   7.818   5.341   8.099  0.4822  1.4643  0.4172
  513MOL0     H69218   8.066   5.341   8.124 -1.5202  4.9276 -0.2926
  513MOL0     H69219   8.262   5.273   8.198 -2.3796  1.0910  0.1004
  513MOL0     H69220   8.293   5.449   8.244  0.2499  1.2310  1.1931
  513MOL0     H69221   8.446   5.361   8.427  0.0258  1.8309 -0.6898
  513MOL0     H69222   8.442   5.198   8.369 -0.6096 -0.0767 -1.4588
  513MOL0     H69223   8.524   5.267   8.150 -2.9630 -0.2284  0.0507
  513MOL0     H69224   8.537   5.437   8.209 -0.1841 -0.3881 -1.3193
  513MOL0     H69225   8.744   5.302   8.186 -0.2627  0.8468 -0.4875
  513MOL0     H69226   8.672   5.179   8.292  2.1228 -0.2997 -1.6869
  513MOL0     H69227   8.676   5.334   8.489  1.7367 -4.7189  0.6778
  513MOL0     H69228   8.736   5.468   8.391 -1.4973  0.0651 -0.6093
  513MOL0     H69229   8.867   5.195   8.405 -0.5652 -0.0540  0.7578
  513MOL0     H69230   8.945   5.348   8.346 -0.3333  2.2971  1.4818
  513MOL0     H69231   8.898   5.263   8.622  0.7091 -3.6200 -2.1095
  513MOL0     H69232   8.916   5.434   8.584 -0.2985  0.3700 -0.6034
  513MOL0     H69233   9.126   5.407   8.485 -1.3872  0.3992 -0.0857
  513MOL0     H69234   9.138   5.337   8.644 -1.8192  0.1408  0.7643
  513MOL0     H69235   8.006   5.308   8.552  0.3515  0.5402  0.4337
  513MOL0     H69236   7.763   5.311   8.519 -0.7523  1.0154  0.4000
  513MOL0     H69237   7.319   5.492   8.439  2.3577 -0.1542  0.4446
  513MOL0     H69238   7.099   5.380   8.449 -0.8469 -2.1524 -0.3382
  513MOL0     H69239   5.714   3.962   8.690 -0.1740 -2.1249 -0.8644
  513MOL0     H69240   5.497   3.843   8.676  2.4277  0.5624  1.3734
  513MOL0     H69241   5.328   3.622   8.692  0.7273  1.9676 -2.1330
  513MOL0     H69242   5.188   3.453   8.777 -1.0266  1.8177  2.3519
  513MOL0     H69243   4.997   3.360   8.888  0.9930 -1.5312  0.9827
  513MOL0     H69244   5.052   3.276   8.756  0.3435  2.2200 -2.1208
  513MOL0     H69245   4.773   3.287   8.880  1.8720 -0.5546  3.2165
  513MOL0     H69246   4.879   3.144   8.876 -0.5089  0.1104  1.1217
  513MOL0     H69247   4.867   3.180   8.611  1.0813 -2.8553  0.3151
  513MOL0     H69248   4.704   3.254   8.639 -1.3122 -1.4618  0.9715
  513MOL0     H69249   4.782   2.971   8.727 -0.3775  0.1497  1.5128
  513MOL0     H69250   4.628   3.057   8.749 -0.7094  0.8860 -1.5004
  513MOL0     H69251   4.628   2.934   8.335  0.8316 -1.9601  0.2197
  513MOL0     H69252   4.861   3.607   8.552 -0.3317 -1.3067  2.2099
  513MOL0     H69253   5.002   3.750   8.334  1.8889  0.1322  0.8956
  513MOL0     H69254   4.888   3.827   8.457  0.9304  1.5891  3.4102
  513MOL0     H69255   5.047   3.899   8.419  0.9975 -0.4379 -0.9735
  514MOL0     O69256  10.342   4.324   0.265 -0.9750  0.5728  0.1294
  514MOL0     C69257  10.296   4.351   0.154 -0.4146  0.2436 -0.3796
  514MOL0     O69258  10.350   4.328   0.031  0.6367 -0.3629 -0.3407
  514MOL0     C69259  10.484   4.297   0.018 -0.1208 -0.4705 -0.4249
  514MOL0     C69260  10.549   4.187   0.070 -0.9629  0.7632  0.6019
  514MOL0     C69261  10.688   4.178   0.037 -0.5399 -0.0894 -0.8394
  514MOL0     C69262  10.761   4.269  -0.040 -0.2904 -0.4737 -0.3152
  514MOL0     O69263  10.892   4.250  -0.067 -0.3890 -0.9033 -0.1802
  514MOL0     C69264  10.969   4.371  -0.058 -0.2449 -0.0929  0.2120
  514MOL0     C69265  11.120   4.337  -0.026  0.6785 -0.7580  0.4823
  514MOL0     C69266  11.195   4.461   0.026  0.2646  0.3970  0.0425
  514MOL0     C69267  11.185   4.467   0.181  1.1748 -0.3093  0.5699
  514MOL0     C69268  11.294   4.558   0.229 -0.3157 -0.3350  0.8314
  514MOL0     C69269  11.263   4.603   0.376  0.2738  0.1448 -0.6774
  514MOL0     C69270  11.370   4.684   0.430  0.2993  0.3546  0.3132
  514MOL0     C69271  11.369   4.719   0.580  0.5737  0.2443  0.7809
  514MOL0     N69272  11.481   4.802   0.610  0.2322 -0.4576  0.0266
  514MOL0     C69273  11.494   4.927   0.554 -0.8722 -0.2718 -0.1489
  514MOL0     C69274  11.611   4.979   0.598  0.2756 -0.0666 -0.3947
  514MOL0     C69275  11.667   5.116   0.582  0.2773 -0.0884 -0.1904
  514MOL0     C69276  11.821   5.116   0.591  0.4049  0.2797 -0.2500
  514MOL0     C69277  11.852   5.257   0.555 -0.0169 -0.4532 -0.2184
  514MOL0     C69278  12.006   5.272   0.559 -0.0617  0.1294  0.6806
  514MOL0     O69279  12.030   5.397   0.615  0.0902 -0.2585  0.1641
  514MOL0     C69280  12.150   5.451   0.572  0.0050  0.9429 -0.1384
  514MOL0     C69281  12.270   5.378   0.560  0.0099  0.1462 -1.0642
  514MOL0     C69282  12.392   5.432   0.516  0.1921  0.6087  0.5663
  514MOL0     C69283  12.391   5.562   0.465  0.0727 -0.3747 -0.1961
  514MOL0     C69284  12.510   5.625   0.403 -0.3289  0.5183 -0.5796
  514MOL0     O69285  12.491   5.720   0.313  0.2812 -0.0322 -1.2558
  514MOL0     C69286  12.599   5.768   0.246  0.2994  0.6234  0.3257
  514MOL0     C69287  12.631   5.731   0.115 -0.8548 -0.5020  0.4620
  514MOL0     C69288  12.743   5.776   0.045 -0.3573 -0.5217  0.4002
  514MOL0     C69289  12.840   5.853   0.112  0.1888 -0.5108 -0.5688
  514MOL0     O69290  12.949   5.903   0.055 -0.4066  0.0336 -0.0919
  514MOL0     C69291  12.977   5.894  -0.086  0.0729 -0.0655  0.1471
  514MOL0     C69292  13.074   6.004  -0.136  0.2610  0.1324 -0.0375
  514MOL0     C69293  13.105   5.989  -0.287 -0.7512  0.2018 -0.1933
  514MOL0     C69294  12.993   6.040  -0.375  0.5221  0.3024  0.8627
  514MOL0     C69295  13.041   6.026  -0.520 -0.6190  0.1245 -0.3938
  514MOL0     C69296  12.943   6.076  -0.620 -0.0575 -0.3717 -0.0383
  514MOL0     C69297  13.004   6.098  -0.756 -0.1943 -0.1444  0.3417
  514MOL0     C69298  12.889   6.122  -0.858 -1.1881  0.0356 -0.0334
  514MOL0    Cl69299  12.810   6.280  -0.830 -0.3337 -0.3875 -0.2515
  514MOL0     C69300  12.810   5.894   0.243 -0.3730 -0.2838 -0.0284
  514MOL0     C69301  12.693   5.862   0.309  0.8344  1.0206  0.3622
  514MOL0     O69302  12.615   5.572   0.432 -0.4946  0.2407  0.1273
  514MOL0     C69303  12.272   5.638   0.477  0.1978 -0.4030 -0.1230
  514MOL0     C69304  12.154   5.584   0.531  0.3708  0.1663  0.8523
  514MOL0     N69305  11.672   4.884   0.677  0.4034  0.8212 -0.0439
  514MOL0     N69306  11.589   4.778   0.688 -0.1972 -0.1992 -0.4411
  514MOL0     C69307  10.685   4.371  -0.104  0.3967 -0.2029 -0.3766
  514MOL0     C69308  10.551   4.384  -0.072 -0.0736 -1.2326  0.1009
  514MOL0     C69309  10.161   4.410   0.148 -0.2766  0.2667  0.0034
  514MOL0     C69310  10.120   4.481   0.028 -0.0785 -0.2216 -0.7391
  514MOL0     C69311   9.991   4.539   0.014 -1.1818  0.7865  0.0398
  514MOL0     C69312   9.900   4.528   0.114  0.5167  0.2460  0.2280
  514MOL0     O69313   9.783   4.592   0.082 -0.6086  0.2987  0.3553
  514MOL0     C69314   9.675   4.575   0.170  0.2456  0.2342  0.2946
  514MOL0     C69315   9.563   4.679   0.144  0.3922  0.8457  0.1557
  514MOL0     C69316   9.622   4.818   0.147 -0.0413  0.4595  0.4727
  514MOL0     C69317   9.511   4.918   0.136  0.7034 -0.9907  0.2737
  514MOL0     C69318   9.557   5.052   0.105 -0.2134  0.6971 -0.7601
  514MOL0     C69319   9.619   5.151   0.078  0.4331 -0.6718  0.1108
  514MOL0     C69320   9.928   4.441   0.230  0.8330 -0.0631 -0.0476
  514MOL0     C69321  10.059   4.390   0.248 -0.0791  0.5297  1.0716
  514MOL0     C69322  10.097   4.308   0.378  0.6685  0.0314 -0.0198
  514MOL0     H69323  10.504   4.112   0.134  1.8025 -0.9144  0.7309
  514MOL0     H69324  10.735   4.088   0.077 -1.1051 -1.3521 -2.8745
  514MOL0     H69325  10.956   4.413  -0.158 -1.1476 -0.1783  0.2789
  514MOL0     H69326  10.919   4.445   0.005  0.4566 -0.2722  0.9957
  514MOL0     H69327  11.160   4.298  -0.120 -1.4685  0.1358 -0.8720
  514MOL0     H69328  11.128   4.256   0.047 -0.0782  0.2360  1.7222
  514MOL0     H69329  11.157   4.556  -0.014  0.8071 -0.3508 -2.3964
  514MOL0     H69330  11.300   4.446   0.001  0.2297  1.6046 -0.9201
  514MOL0     H69331  11.088   4.509   0.206  1.7955  1.3761  0.3114
  514MOL0     H69332  11.202   4.368   0.224 -0.6249 -1.2902 -0.8642
  514MOL0     H69333  11.388   4.503   0.229  2.4280  3.7059 -2.9908
  514MOL0     H69334  11.317   4.638   0.157 -0.2491 -0.7460  0.3891
  514MOL0     H69335  11.166   4.655   0.372 -0.6259 -1.4612 -0.6166
  514MOL0     H69336  11.261   4.512   0.437  1.3846 -0.9574 -2.2336
  514MOL0     H69337  11.353   4.779   0.379 -0.6665  0.9328  1.6625
  514MOL0     H69338  11.474   4.653   0.413  1.7589  2.4317  4.1497
  514MOL0     H69339  11.274   4.762   0.613  0.7336 -0.7850  2.7652
  514MOL0     H69340  11.380   4.621   0.628 -0.2558 -0.1651  0.1713
  514MOL0     H69341  11.440   4.975   0.474  0.9299 -0.8402 -1.7891
  514MOL0     H69342  11.636   5.158   0.486 -2.2620 -0.2537  0.4889
  514MOL0     H69343  11.610   5.182   0.648 -0.8414 -0.5185 -0.6995
  514MOL0     H69344  11.855   5.090   0.692 -1.8854 -0.1537  0.4662
  514MOL0     H69345  11.868   5.050   0.518  1.1239 -0.4138  0.8005
  514MOL0     H69346  11.803   5.323   0.627 -1.1944 -1.5907  0.0601
  514MOL0     H69347  11.815   5.285   0.455 -1.1274 -1.2887 -0.0675
  514MOL0     H69348  12.051   5.259   0.460 -0.4705  3.9193 -0.1749
  514MOL0     H69349  12.047   5.200   0.629  1.8518  0.0225 -0.4861
  514MOL0     H69350  12.272   5.270   0.575  0.6832  0.2329 -0.4455
  514MOL0     H69351  12.480   5.369   0.523 -0.4651 -0.5775 -1.2259
  514MOL0     H69352  12.571   5.653   0.070 -0.7128 -0.8349  0.8538
  514MOL0     H69353  12.769   5.740  -0.054 -2.0921 -2.1627  0.4850
  514MOL0     H69354  13.019   5.795  -0.105  1.5624  0.5800 -0.1217
  514MOL0     H69355  12.890   5.905  -0.150  1.3395  0.2488 -1.5961
  514MOL0     H69356  13.032   6.102  -0.113  2.4887  1.6962 -2.0805
  514MOL0     H69357  13.169   5.982  -0.085  1.1391  1.3032 -1.0884
  514MOL0     H69358  13.184   6.062  -0.303 -0.8750  0.4967  0.5173
  514MOL0     H69359  13.116   5.887  -0.327 -0.3066  0.0224  0.3761
  514MOL0     H69360  12.976   6.145  -0.352 -1.5149 -0.2989  2.4708
  514MOL0     H69361  12.900   5.982  -0.383  2.1798 -2.2795 -1.8661
  514MOL0     H69362  13.045   5.918  -0.535 -0.9440  0.3706 -2.5580
  514MOL0     H69363  13.142   6.063  -0.540 -1.3745  1.6395 -1.5912
  514MOL0     H69364  12.867   5.998  -0.634 -2.2860  1.0712  2.7803
  514MOL0     H69365  12.897   6.170  -0.586 -1.4376 -0.6435 -1.0684
  514MOL0     H69366  13.066   6.016  -0.793 -1.9498 -1.1041 -0.6463
  514MOL0     H69367  13.071   6.185  -0.759  0.7427 -0.8442 -2.5303
  514MOL0     H69368  12.922   6.121  -0.962 -2.4874 -1.3138 -0.4563
  514MOL0     H69369  12.813   6.046  -0.836 -0.6856 -0.3993  0.2343
  514MOL0     H69370  12.885   5.953   0.296  0.6742 -1.2614 -0.3709
  514MOL0     H69371  12.668   5.899   0.408  0.6233 -0.4136  0.8731
  514MOL0     H69372  12.270   5.738   0.435 -1.2697 -1.6470 -3.3477
  514MOL0     H69373  12.068   5.650   0.536 -1.0241 -1.5344  0.3009
  514MOL0     H69374  10.730   4.449  -0.164 -2.6151  0.1029 -2.4824
  514MOL0     H69375  10.503   4.474  -0.110  0.1071 -1.0162  0.3824
  514MOL0     H69376  10.193   4.484  -0.052  1.5542 -2.0760  0.5684
  514MOL0     H69377   9.960   4.589  -0.077 -0.7159  1.0471  0.0257
  514MOL0     H69378   9.714   4.583   0.272  0.6058  0.3360  0.1521
  514MOL0     H69379   9.648   4.469   0.163  0.2115  0.3083 -0.8001
  514MOL0     H69380   9.488   4.666   0.223  1.0996  1.8344  1.0142
  514MOL0     H69381   9.515   4.651   0.050 -1.2247 -0.1573  1.2115
  514MOL0     H69382   9.699   4.835   0.072  0.9047 -1.3167  0.9818
  514MOL0     H69383   9.660   4.833   0.249  1.3474 -0.1148  0.0717
  514MOL0     H69384   9.441   4.898   0.054  1.3132 -1.4056 -0.1491
  514MOL0     H69385   9.452   4.927   0.228  0.2619  1.3041 -0.1565
  514MOL0     H69386   9.680   5.235   0.049  0.5310 -1.2277 -1.3526
  514MOL0     H69387   9.850   4.424   0.303  0.2964  0.6808 -0.4361
  514MOL0     H69388  10.108   4.205   0.342  0.0468  0.3171 -1.0883
  514MOL0     H69389  10.184   4.347   0.432  2.1170 -2.4837 -0.3654
  514MOL0     H69390  10.017   4.301   0.452  0.6627 -0.7595 -0.0894
  515MOL0     O69391   9.438   8.979   4.525 -0.0557  0.6343 -0.0508
  515MOL0     C69392   9.409   9.049   4.625  0.1919 -0.5434  0.2604
  515MOL0     O69393   9.433   9.185   4.630 -0.0859  0.5542  0.2609
  515MOL0     C69394   9.511   9.245   4.528  0.9781  0.0065  0.2276
  515MOL0     C69395   9.446   9.292   4.413  0.1232  0.4142 -0.3199
  515MOL0     C69396   9.520   9.360   4.311 -0.0301  1.4488 -0.3137
  515MOL0     C69397   9.661   9.368   4.324 -0.9620  0.1313 -0.1012
  515MOL0     O69398   9.740   9.428   4.227 -0.2504 -0.3403  0.8715
  515MOL0     C69399   9.732   9.567   4.206  0.5799 -0.3640  0.6616
  515MOL0     C69400   9.809   9.639   4.321 -0.4361  0.0989  0.0415
  515MOL0     C69401   9.954   9.613   4.336 -0.2646  0.2726 -0.4402
  515MOL0     C69402  10.007   9.733   4.421 -0.1260  0.4619  0.5239
  515MOL0     C69403  10.140   9.698   4.482 -0.7393  0.3024 -0.3839
  515MOL0     C69404  10.255   9.697   4.372  0.6568  0.8668 -0.8006
  515MOL0     C69405  10.387   9.660   4.432 -0.8815 -0.0473  0.0921
  515MOL0     C69406  10.514   9.655   4.342  0.7338 -0.6425 -0.4241
  515MOL0     N69407  10.643   9.662   4.405  0.3353 -1.0562 -0.0128
  515MOL0     C69408  10.678   9.733   4.522 -0.1252  0.5322 -0.3767
  515MOL0     C69409  10.796   9.679   4.558  0.2735  0.3288  0.1818
  515MOL0     C69410  10.883   9.705   4.673  0.0902 -0.2661 -0.4339
  515MOL0     C69411  11.017   9.756   4.640 -0.2881 -1.1628 -0.4385
  515MOL0     C69412  11.024   9.912   4.624  0.0438  0.6808  0.3784
  515MOL0     C69413  11.164   9.940   4.579  0.6682 -1.0374 -0.7336
  515MOL0     O69414  11.255   9.917   4.691  0.1815  0.0088  0.1740
  515MOL0     C69415  11.388   9.948   4.676 -0.2360 -0.2207 -0.4328
  515MOL0     C69416  11.460   9.929   4.558  0.0429  0.1764  0.3234
  515MOL0     C69417  11.588   9.952   4.542  0.0546  0.5318  0.7890
  515MOL0     C69418  11.659  10.006   4.649 -0.5064 -0.5315 -0.5995
  515MOL0     C69419  11.806  10.036   4.634 -0.5588  0.1689  0.3589
  515MOL0     O69420  11.867  10.126   4.714  0.4190  0.1199 -0.1780
  515MOL0     C69421  11.988  10.184   4.705  0.3838 -0.4145  0.0591
  515MOL0     C69422  12.101  10.103   4.679  0.0482 -0.9061  0.2056
  515MOL0     C69423  12.231  10.159   4.667  0.9961  0.1688 -0.5807
  515MOL0     C69424  12.247  10.294   4.686 -0.1551 -1.2728  0.5768
  515MOL0     O69425  12.366  10.355   4.660  0.5830 -0.3493 -0.1649
  515MOL0     C69426  12.351  10.452   4.549 -0.6258  0.2147  0.3509
  515MOL0     C69427  12.439  10.575   4.578 -0.5167 -0.3412 -0.5717
  515MOL0     C69428  12.408  10.690   4.478  0.0567  0.8396  0.7542
  515MOL0     C69429  12.303  10.788   4.533 -0.6688  0.0411 -0.8803
  515MOL0     C69430  12.159  10.772   4.476 -0.4139  0.1049 -0.0086
  515MOL0     C69431  12.128  10.824   4.335 -0.2392  0.6586  0.0160
  515MOL0     C69432  12.180  10.731   4.224  0.4405 -0.0566  0.2232
  515MOL0     C69433  12.131  10.586   4.229  0.1921 -0.2468 -0.4399
  515MOL0    Cl69434  12.219  10.501   4.104  0.1007 -0.0621 -0.2359
  515MOL0     C69435  12.131  10.372   4.718 -0.7941  0.3105 -0.2466
  515MOL0     C69436  12.010  10.319   4.740  0.3777 -0.2881  0.2149
  515MOL0     O69437  11.869   9.965   4.544 -0.3421 -0.3642 -0.9766
  515MOL0     C69438  11.594  10.042   4.765  0.8961 -0.6407  0.2746
  515MOL0     C69439  11.457  10.021   4.779  0.6625 -0.4743  0.0648
  515MOL0     N69440  10.828   9.576   4.466  0.6211  0.3423 -0.1885
  515MOL0     N69441  10.740   9.580   4.372  0.8874  0.1888  0.2279
  515MOL0     C69442   9.722   9.322   4.436 -0.0504  0.4050  0.4472
  515MOL0     C69443   9.648   9.265   4.540 -0.8765  0.7742 -0.5269
  515MOL0     C69444   9.352   8.981   4.744  0.1111 -0.6339 -0.4563
  515MOL0     C69445   9.287   9.066   4.835 -0.0325  0.6285 -0.4834
  515MOL0     C69446   9.217   9.004   4.943 -0.2262 -0.2257 -0.2454
  515MOL0     C69447   9.226   8.871   4.976 -0.9182 -0.2543  0.3490
  515MOL0     O69448   9.155   8.841   5.085  0.3155 -0.2585  0.0494
  515MOL0     C69449   9.141   8.705   5.114 -0.3397  0.3008 -0.0654
  515MOL0     C69450   9.051   8.639   5.010  0.3194 -0.4202 -0.5819
  515MOL0     C69451   9.021   8.499   5.058  0.7198 -0.3943 -0.0730
  515MOL0     C69452   8.940   8.442   4.940 -0.1210 -0.0067 -0.3221
  515MOL0     C69453   8.867   8.336   5.007 -0.4601  0.4876 -0.1483
  515MOL0     C69454   8.788   8.259   5.059 -0.3319 -0.4189 -0.3649
  515MOL0     C69455   9.301   8.791   4.890 -0.3741 -0.3489  0.0059
  515MOL0     C69456   9.360   8.839   4.772  0.0868  0.0300 -0.5885
  515MOL0     C69457   9.437   8.740   4.686  0.9656 -0.9220  0.6014
  515MOL0     H69458   9.340   9.284   4.391 -0.4688  0.2297  2.2435
  515MOL0     H69459   9.454   9.389   4.229  1.8338  3.0792 -1.3042
  515MOL0     H69460   9.772   9.605   4.112 -0.8468  0.7316  0.4750
  515MOL0     H69461   9.628   9.600   4.207  0.3268 -1.1377  0.5938
  515MOL0     H69462   9.762   9.623   4.419  1.3764 -0.9982  0.7872
  515MOL0     H69463   9.799   9.746   4.302 -0.5425 -0.1731 -1.5164
  515MOL0     H69464   9.999   9.616   4.236 -0.5427  0.8647 -0.5476
  515MOL0     H69465   9.962   9.510   4.373  2.4356 -0.1960 -2.0290
  515MOL0     H69466  10.008   9.827   4.365 -1.0860  0.0980 -0.1363
  515MOL0     H69467   9.930   9.741   4.499 -1.6578  1.1952 -1.0057
  515MOL0     H69468  10.159   9.762   4.570  0.1515  0.7304 -0.8680
  515MOL0     H69469  10.129   9.599   4.526  0.6249  0.3231  0.0372
  515MOL0     H69470  10.230   9.629   4.290 -0.3079  1.9800 -1.4513
  515MOL0     H69471  10.262   9.798   4.330 -3.5510  2.3272  1.4786
  515MOL0     H69472  10.379   9.559   4.472  1.0689  0.1533  1.1467
  515MOL0     H69473  10.404   9.726   4.518  0.9313 -0.6131  0.2207
  515MOL0     H69474  10.502   9.558   4.293 -0.7627 -0.1793 -1.0428
  515MOL0     H69475  10.510   9.734   4.266  1.7706 -1.2949 -1.1811
  515MOL0     H69476  10.640   9.814   4.583  0.4150  0.1640  0.4688
  515MOL0     H69477  10.837   9.771   4.747  0.9955 -1.7933  1.5460
  515MOL0     H69478  10.903   9.611   4.723 -0.2244  0.5192  1.2331
  515MOL0     H69479  11.081   9.726   4.723 -0.0659  1.7903  0.5712
  515MOL0     H69480  11.057   9.715   4.546  0.5402  0.8687 -1.0178
  515MOL0     H69481  11.003   9.964   4.718  0.5214  2.2576 -0.3509
  515MOL0     H69482  10.953   9.943   4.547 -1.2335 -1.1106  0.7508
  515MOL0     H69483  11.184  10.045   4.555  0.8143 -1.0616 -0.7220
  515MOL0     H69484  11.185   9.885   4.486 -1.8165  0.5599 -2.3497
  515MOL0     H69485  11.400   9.896   4.473 -1.8757 -1.7106  2.2888
  515MOL0     H69486  11.627   9.940   4.441 -0.0594 -0.4494  0.8555
  515MOL0     H69487  12.093   9.995   4.680  1.5706 -1.0521 -0.5359
  515MOL0     H69488  12.319  10.101   4.642  0.5763 -0.0978 -1.4813
  515MOL0     H69489  12.392  10.403   4.460 -0.4905  0.7766  0.0977
  515MOL0     H69490  12.249  10.481   4.522 -0.0721 -0.4647 -2.9527
  515MOL0     H69491  12.425  10.604   4.682  2.5137 -0.0455 -0.1458
  515MOL0     H69492  12.543  10.546   4.562  0.2374  1.4431  0.8322
  515MOL0     H69493  12.499  10.744   4.450  0.3474  0.5974  1.2166
  515MOL0     H69494  12.376  10.642   4.384  2.6250  0.3484  0.0243
  515MOL0     H69495  12.347  10.883   4.503  2.0404 -0.6890  0.5238
  515MOL0     H69496  12.295  10.780   4.642  0.2546 -1.4114 -0.8915
  515MOL0     H69497  12.085  10.819   4.542 -2.4487 -0.2806 -1.9186
  515MOL0     H69498  12.128  10.668   4.491  0.4806  0.2177  3.7694
  515MOL0     H69499  12.021  10.838   4.317 -0.1699  0.3274 -0.6793
  515MOL0     H69500  12.188  10.916   4.341  2.0503 -0.8040  1.4153
  515MOL0     H69501  12.289  10.730   4.220  0.4325  0.5639 -0.3196
  515MOL0     H69502  12.149  10.768   4.126 -2.0612 -0.4137  0.8145
  515MOL0     H69503  12.152  10.531   4.321 -0.9180  0.3768  0.2118
  515MOL0     H69504  12.023  10.580   4.211  0.2022  0.3892 -0.7476
  515MOL0     H69505  12.137  10.478   4.744 -1.7581 -0.0744  1.6982
  515MOL0     H69506  11.922  10.376   4.768 -0.4469 -0.8328 -1.1974
  515MOL0     H69507  11.651  10.098   4.838  3.1432 -3.1886  0.6170
  515MOL0     H69508  11.400  10.055   4.865  1.2380  0.7933 -0.0347
  515MOL0     H69509   9.829   9.340   4.445 -0.5386  3.8287  0.5788
  515MOL0     H69510   9.701   9.242   4.632  1.4299 -0.0599 -1.9499
  515MOL0     H69511   9.288   9.173   4.821  2.5475  0.8497  0.8023
  515MOL0     H69512   9.171   9.069   5.017 -0.0075 -0.4458  0.0884
  515MOL0     H69513   9.095   8.689   5.212  0.9996  1.5446  0.8041
  515MOL0     H69514   9.236   8.650   5.117 -0.8994 -0.7256  3.6565
  515MOL0     H69515   9.092   8.662   4.912  1.5540  0.7463  0.1710
  515MOL0     H69516   8.955   8.691   5.024  0.0887 -0.7888 -0.7947
  515MOL0     H69517   8.963   8.502   5.150  0.8467  1.0426 -0.0147
  515MOL0     H69518   9.113   8.445   5.080  1.6654  0.5893 -1.4552
  515MOL0     H69519   8.865   8.512   4.901 -0.6217  0.8618  2.0028
  515MOL0     H69520   8.994   8.401   4.855 -1.7293  2.9678 -3.0052
  515MOL0     H69521   8.729   8.182   5.103  2.3582 -2.0812  0.5929
  515MOL0     H69522   9.303   8.683   4.892  0.9699 -0.3383  0.4758
  515MOL0     H69523   9.532   8.785   4.654 -0.5779  1.5782 -0.8609
  515MOL0     H69524   9.469   8.645   4.728  1.1333 -1.0111  0.2731
  515MOL0     H69525   9.378   8.717   4.597  0.6587  0.8902  0.2980
  516MOL0     O69526  10.195   8.752   2.730 -0.1765  0.3107  0.1809
  516MOL0     C69527  10.196   8.745   2.604  0.5304  0.7666 -0.2125
  516MOL0     O69528  10.284   8.813   2.521 -0.1006 -0.4175  0.2628
  516MOL0     C69529  10.395   8.857   2.590 -0.6132 -0.1472  0.1276
  516MOL0     C69530  10.412   8.986   2.633  1.2939  0.1256  0.1098
  516MOL0     C69531  10.528   9.034   2.685 -0.7402  0.0341 -0.0813
  516MOL0     C69532  10.640   8.945   2.707  0.1275 -0.0331  0.3247
  516MOL0     O69533  10.759   8.977   2.766  0.0695 -0.0687  0.2577
  516MOL0     C69534  10.802   9.117   2.767  0.9856 -0.2599  0.5360
  516MOL0     C69535  10.946   9.127   2.798  0.8357  0.3474  0.1131
  516MOL0     C69536  11.047   9.048   2.702 -1.1435  0.3263 -0.1671
  516MOL0     C69537  11.185   9.026   2.756  0.2060  0.8500  0.0485
  516MOL0     C69538  11.265   9.159   2.751  0.1877  0.8120 -0.6432
  516MOL0     C69539  11.390   9.130   2.830  0.6654 -1.2221  0.9780
  516MOL0     C69540  11.503   9.236   2.812  0.5673 -0.4291  0.0563
  516MOL0     C69541  11.624   9.201   2.899  0.9196  0.5546 -0.2783
  516MOL0     N69542  11.686   9.069   2.866 -0.2268 -0.2855  0.0826
  516MOL0     C69543  11.756   9.034   2.748 -0.5113 -0.0551 -0.5638
  516MOL0     C69544  11.827   8.921   2.763  1.4042 -0.1433 -0.3342
  516MOL0     C69545  11.891   8.840   2.650 -0.1921 -0.5052 -0.6757
  516MOL0     C69546  12.041   8.846   2.661 -0.1898 -0.3475  0.2349
  516MOL0     C69547  12.098   8.748   2.761  0.2897  0.5875 -0.4115
  516MOL0     C69548  12.248   8.751   2.773  0.7797 -0.2758 -0.5344
  516MOL0     O69549  12.299   8.631   2.828  0.0365  0.3206  0.5361
  516MOL0     C69550  12.433   8.602   2.846 -0.0917 -0.1185 -0.1010
  516MOL0     C69551  12.470   8.466   2.862 -0.1836  1.0029  0.2998
  516MOL0     C69552  12.615   8.439   2.879  0.2383 -0.3081  0.0902
  516MOL0     C69553  12.705   8.539   2.895 -0.2288  0.0374 -0.1465
  516MOL0     C69554  12.846   8.506   2.922 -0.4446 -0.2886  0.1743
  516MOL0     O69555  12.918   8.579   3.016  0.4962 -0.5495 -0.9123
  516MOL0     C69556  13.053   8.554   3.029  0.2389 -0.0586 -0.1315
  516MOL0     C69557  13.097   8.569   3.167 -0.4597 -0.2940 -0.0883
  516MOL0     C69558  13.235   8.556   3.188 -0.4146 -0.6708 -0.3017
  516MOL0     C69559  13.324   8.534   3.079 -0.2709  0.2269 -0.5476
  516MOL0     O69560  13.454   8.526   3.088  0.1953  0.7373 -0.3079
  516MOL0     C69561  13.514   8.515   3.212  0.3874  0.0207 -0.4236
  516MOL0     C69562  13.663   8.459   3.185 -0.0360  0.2868 -0.0487
  516MOL0     C69563  13.752   8.521   3.295 -0.0752  0.0180 -0.6030
  516MOL0     C69564  13.886   8.467   3.270  0.2994  0.0279  0.9789
  516MOL0     C69565  13.983   8.533   3.371 -0.4281  0.1416  0.7205
  516MOL0     C69566  14.125   8.470   3.383  0.2776  0.3334  0.2849
  516MOL0     C69567  14.210   8.562   3.468 -0.2322 -0.8100  0.2138
  516MOL0     C69568  14.350   8.509   3.471  0.0508  0.3090 -0.0352
  516MOL0    Cl69569  14.453   8.606   3.579 -0.2155 -0.0686  0.1172
  516MOL0     C69570  13.275   8.519   2.954 -0.1027  0.0298  0.6048
  516MOL0     C69571  13.139   8.528   2.923 -0.3063 -0.5981  0.1693
  516MOL0     O69572  12.891   8.401   2.872  0.7204 -0.8329 -0.1154
  516MOL0     C69573  12.664   8.673   2.884  0.8110  0.2517  0.8423
  516MOL0     C69574  12.529   8.707   2.854 -0.0424 -0.2870 -0.6126
  516MOL0     N69575  11.796   8.884   2.889  0.3996  0.8590  0.1455
  516MOL0     N69576  11.711   8.966   2.951 -0.0794 -0.4572  0.2773
  516MOL0     C69577  10.624   8.819   2.651 -0.7684  0.2817  0.5543
  516MOL0     C69578  10.506   8.771   2.592  1.1585 -0.1473 -0.5193
  516MOL0     C69579  10.079   8.670   2.543 -0.1363  0.0006 -0.0336
  516MOL0     C69580  10.000   8.589   2.619 -0.1647 -0.2293 -0.5946
  516MOL0     C69581   9.900   8.510   2.578  0.4136  0.0776  0.3370
  516MOL0     C69582   9.866   8.508   2.446  0.4340  0.4198 -0.6407
  516MOL0     O69583   9.771   8.419   2.409  0.0923 -0.9369 -0.9198
  516MOL0     C69584   9.727   8.400   2.275  0.3296  0.3785 -0.8043
  516MOL0     C69585   9.621   8.505   2.239  0.4825 -0.9022 -0.0857
  516MOL0     C69586   9.484   8.493   2.323  1.3900 -0.4260  1.0251
  516MOL0     C69587   9.373   8.430   2.244  0.2247 -0.0523 -0.3182
  516MOL0     C69588   9.253   8.455   2.316 -0.0285  0.3347 -0.4898
  516MOL0     C69589   9.150   8.494   2.369  0.2378 -1.2597 -1.2752
  516MOL0     C69590   9.921   8.601   2.358 -0.1075  0.2726  0.2044
  516MOL0     C69591  10.043   8.665   2.401  0.2186  0.2265  0.6179
  516MOL0     C69592  10.113   8.748   2.295  0.0149  0.4670  0.5901
  516MOL0     H69593  10.331   9.058   2.619  0.0157 -1.1012  0.9676
  516MOL0     H69594  10.539   9.139   2.708  1.1471 -0.6757  2.7907
  516MOL0     H69595  10.784   9.163   2.669  2.2396 -3.3955 -1.3160
  516MOL0     H69596  10.748   9.157   2.853  0.3230 -1.2625  0.5959
  516MOL0     H69597  10.955   9.084   2.898  0.7094 -1.4752 -0.6267
  516MOL0     H69598  10.980   9.230   2.813  0.6657  0.1588  2.0211
  516MOL0     H69599  11.053   9.112   2.613 -0.8424  2.8077  1.5266
  516MOL0     H69600  11.009   8.948   2.682  0.4215 -0.1043 -1.1295
  516MOL0     H69601  11.183   8.984   2.857 -1.2536 -0.4000 -0.4639
  516MOL0     H69602  11.227   8.946   2.693  0.6003  0.1170  1.2135
  516MOL0     H69603  11.285   9.176   2.645  4.0862 -2.3818 -0.6600
  516MOL0     H69604  11.217   9.247   2.795 -1.4967  1.1691 -2.9808
  516MOL0     H69605  11.356   9.128   2.934 -0.8297 -0.4615  0.5311
  516MOL0     H69606  11.438   9.040   2.791 -0.0880  0.1746 -3.6938
  516MOL0     H69607  11.466   9.335   2.840 -1.9268 -1.5926  1.1605
  516MOL0     H69608  11.534   9.246   2.707 -0.0308  0.2861 -0.0614
  516MOL0     H69609  11.701   9.277   2.885 -0.1324  1.2650 -2.7156
  516MOL0     H69610  11.600   9.200   3.006 -2.2930 -0.5125 -0.8966
  516MOL0     H69611  11.765   9.087   2.654  0.1276 -1.5126 -1.3535
  516MOL0     H69612  11.848   8.741   2.666 -2.0261  0.2494 -0.6404
  516MOL0     H69613  11.864   8.884   2.554  0.9420 -1.2042 -1.3248
  516MOL0     H69614  12.076   8.818   2.561  1.7123  0.4399  0.6333
  516MOL0     H69615  12.067   8.948   2.691 -1.4553 -0.5525  2.2060
  516MOL0     H69616  12.071   8.646   2.732 -0.6795  1.1581 -1.6341
  516MOL0     H69617  12.057   8.775   2.859 -1.2068 -0.5665 -0.6768
  516MOL0     H69618  12.259   8.836   2.841  0.9167  0.2555 -1.2084
  516MOL0     H69619  12.296   8.774   2.677 -0.3199  0.9438 -0.8203
  516MOL0     H69620  12.393   8.391   2.844  1.0217 -0.8040  2.1502
  516MOL0     H69621  12.638   8.333   2.889  0.4100 -0.0637  3.0708
  516MOL0     H69622  13.028   8.570   3.251 -1.2826  0.0360 -0.7547
  516MOL0     H69623  13.271   8.556   3.291  0.0784  2.2358 -0.3897
  516MOL0     H69624  13.516   8.616   3.254 -0.6170 -0.6485  1.3579
  516MOL0     H69625  13.470   8.449   3.288  0.4760  1.5793  1.0452
  516MOL0     H69626  13.663   8.351   3.199 -0.2573  0.1379 -1.1018
  516MOL0     H69627  13.707   8.493   3.091  0.4038 -1.1810 -0.3975
  516MOL0     H69628  13.760   8.630   3.299 -1.2883  0.0995 -0.1545
  516MOL0     H69629  13.719   8.501   3.397  1.4562  1.4114  0.2049
  516MOL0     H69630  13.923   8.482   3.169  0.0503 -0.6375  0.7852
  516MOL0     H69631  13.888   8.365   3.308  1.9663  0.7428  3.0117
  516MOL0     H69632  13.945   8.521   3.473 -1.1927 -4.4202  0.1236
  516MOL0     H69633  13.994   8.638   3.344 -0.4348 -0.2599 -0.9436
  516MOL0     H69634  14.117   8.372   3.433 -0.7587  0.5435  0.5543
  516MOL0     H69635  14.174   8.466   3.285 -0.6770  2.0167 -0.3016
  516MOL0     H69636  14.167   8.576   3.567  0.7051 -1.5578  0.7423
  516MOL0     H69637  14.221   8.662   3.425  4.1440 -1.0469  0.3652
  516MOL0     H69638  14.355   8.405   3.507 -0.2107  0.2047 -0.2939
  516MOL0     H69639  14.401   8.519   3.375 -1.3416 -0.6185 -0.9013
  516MOL0     H69640  13.343   8.511   2.869 -0.2104 -0.3441  0.5519
  516MOL0     H69641  13.103   8.509   2.823  1.2152 -1.2680 -0.2768
  516MOL0     H69642  12.741   8.746   2.906  0.1021  0.8466  1.3737
  516MOL0     H69643  12.507   8.813   2.849 -0.9367 -0.3288  1.3211
  516MOL0     H69644  10.706   8.750   2.665 -0.4575  0.6247  0.4207
  516MOL0     H69645  10.506   8.669   2.556 -1.8660  0.4011 -2.4244
  516MOL0     H69646  10.037   8.573   2.720 -0.1319 -1.3943 -0.7801
  516MOL0     H69647   9.851   8.445   2.649  2.0390 -0.3409  1.1221
  516MOL0     H69648   9.686   8.299   2.269  2.6743 -0.6704 -0.2557
  516MOL0     H69649   9.808   8.395   2.201 -0.0730 -5.1145 -1.2857
  516MOL0     H69650   9.600   8.499   2.131  1.6793  5.8838 -1.1774
  516MOL0     H69651   9.662   8.605   2.256 -2.1480 -0.1183  2.1529
  516MOL0     H69652   9.443   8.587   2.362  1.5376  0.7310 -1.4061
  516MOL0     H69653   9.507   8.427   2.407  1.4537 -3.8560 -1.4940
  516MOL0     H69654   9.365   8.476   2.145  0.4640 -0.5987 -0.5982
  516MOL0     H69655   9.394   8.325   2.223  2.3257  0.8600 -3.5255
  516MOL0     H69656   9.057   8.523   2.413 -0.1389 -2.5592 -1.1915
  516MOL0     H69657   9.875   8.614   2.260  0.9187 -0.7774 -0.4449
  516MOL0     H69658  10.059   8.745   2.200 -1.2796 -2.7091  1.2800
  516MOL0     H69659  10.124   8.853   2.325 -3.3515  1.2727 -0.6011
  516MOL0     H69660  10.213   8.709   2.274  0.3792  2.6690 -2.4470
  517MOL0     O69661   0.749   6.003   9.611 -0.0704  0.2590  0.6845
  517MOL0     C69662   0.723   6.120   9.636  0.1228  0.0862  0.2463
  517MOL0     O69663   0.817   6.213   9.657  0.3242  0.4600  0.0648
  517MOL0     C69664   0.943   6.168   9.670 -0.2081 -0.6102  0.2099
  517MOL0     C69665   1.019   6.131   9.557 -0.6827  0.5686  0.1958
  517MOL0     C69666   1.150   6.089   9.588  0.3927  0.0585  0.1061
  517MOL0     C69667   1.221   6.100   9.712  0.3845  0.4084  0.5332
  517MOL0     O69668   1.346   6.055   9.718 -0.0106 -0.5918  0.9060
  517MOL0     C69669   1.426   6.088   9.833  0.2525 -0.2424 -0.2462
  517MOL0     C69670   1.574   6.059   9.787 -0.1090  0.5578 -0.1512
  517MOL0     C69671   1.648   6.052   9.919 -0.1444 -0.2483  0.3066
  517MOL0     C69672   1.638   5.923  10.001  0.1373  0.5879 -0.0437
  517MOL0     C69673   1.775   5.868  10.048 -0.0028  0.3659  0.5888
  517MOL0     C69674   1.831   5.948  10.163  1.1290  0.0573 -0.7723
  517MOL0     C69675   1.941   5.883  10.237 -0.4543  0.1988  0.3436
  517MOL0     C69676   2.070   5.869  10.149  0.2494  0.0526  0.0151
  517MOL0     N69677   2.177   5.791  10.221 -0.2540  0.7583  0.1542
  517MOL0     C69678   2.216   5.668  10.176  0.2065  0.3282 -0.3264
  517MOL0     C69679   2.300   5.619  10.273 -0.1930 -0.6831 -0.1088
  517MOL0     C69680   2.346   5.477  10.277 -0.1723  0.5790  0.0611
  517MOL0     C69681   2.495   5.461  10.223  0.6211 -0.1442  0.3371
  517MOL0     C69682   2.594   5.548  10.312 -1.3378  0.4378 -0.1396
  517MOL0     C69683   2.746   5.501  10.291  0.4663 -0.7354 -0.5805
  517MOL0     O69684   2.756   5.358  10.329 -0.1315 -0.0875 -0.2804
  517MOL0     C69685   2.886   5.310  10.324 -0.1208  0.8985 -0.9344
  517MOL0     C69686   3.007   5.378  10.308  0.5834  0.6145 -0.7550
  517MOL0     C69687   3.129   5.307  10.306 -0.5003  0.3327  0.1476
  517MOL0     C69688   3.137   5.169  10.348 -0.2317 -0.1899 -0.4058
  517MOL0     C69689   3.271   5.106  10.383 -0.1853  0.1190 -0.0928
  517MOL0     O69690   3.379   5.176  10.342  0.3020 -0.0702  0.1647
  517MOL0     C69691   3.504   5.125  10.367 -0.6797 -0.0580  0.4717
  517MOL0     C69692   3.562   5.030  10.286  0.3777  0.3720  0.1160
  517MOL0     C69693   3.695   4.981  10.290 -0.0507 -0.0578 -0.0797
  517MOL0     C69694   3.775   5.028  10.392 -0.1577  0.3948  0.3795
  517MOL0     O69695   3.898   4.969  10.402 -0.3827 -0.4068 -0.3979
  517MOL0     C69696   3.987   5.040  10.478 -0.1942 -0.5873 -0.3541
  517MOL0     C69697   4.099   4.942  10.500  1.1843  0.4611  0.0964
  517MOL0     C69698   4.210   5.003  10.588  0.0887 -0.0291  0.6450
  517MOL0     C69699   4.326   4.906  10.605  0.2835 -0.1331  0.2212
  517MOL0     C69700   4.439   4.925  10.508 -0.2343 -0.0519  0.1742
  517MOL0     C69701   4.532   5.028  10.581  0.4666 -0.4447 -0.0147
  517MOL0     C69702   4.641   5.084  10.490  0.0477 -0.1118  0.4084
  517MOL0     C69703   4.758   5.163  10.566  0.0787 -0.5422  0.3080
  517MOL0    Cl69704   4.911   5.177  10.463  0.1290  0.1297 -0.0532
  517MOL0     C69705   3.723   5.131  10.484 -0.4316 -0.1258 -0.2922
  517MOL0     C69706   3.586   5.174  10.470 -1.0144 -0.7240  0.3596
  517MOL0     O69707   3.272   4.998  10.442 -0.0753 -0.0103  0.4785
  517MOL0     C69708   3.016   5.101  10.363  0.5135  0.3092  0.4910
  517MOL0     C69709   2.891   5.169  10.354  1.0048  0.8454  0.4340
  517MOL0     N69710   2.323   5.725  10.366 -0.3852  0.9582  0.1982
  517MOL0     N69711   2.246   5.828  10.326 -0.0233 -0.3852 -0.1872
  517MOL0     C69712   1.148   6.152   9.817 -0.6925 -0.1730  0.3782
  517MOL0     C69713   1.015   6.185   9.801  0.1551  0.8094 -0.5270
  517MOL0     C69714   0.585   6.171   9.643 -0.3321  0.3624 -0.4814
  517MOL0     C69715   0.557   6.249   9.751  0.0360  0.3619  0.3815
  517MOL0     C69716   0.437   6.312   9.757 -0.2774 -0.2614 -0.9120
  517MOL0     C69717   0.338   6.295   9.664 -0.1652 -1.2800  0.2055
  517MOL0     O69718   0.219   6.347   9.701 -0.3888 -0.1453  0.7241
  517MOL0     C69719   0.110   6.338   9.617  0.4907 -0.4168  1.4352
  517MOL0     C69720  -0.005   6.394   9.691 -0.0141  0.1672 -0.0736
  517MOL0     C69721  -0.043   6.545   9.671  0.0268  0.7947 -0.2032
  517MOL0     C69722  -0.164   6.585   9.753 -0.0263 -0.2898  0.1354
  517MOL0     C69723  -0.227   6.711   9.703 -1.2883  0.2011 -0.6674
  517MOL0     C69724  -0.275   6.811   9.664  0.2278 -0.3143  0.5604
  517MOL0     C69725   0.370   6.225   9.549  0.5715  0.7339  0.2617
  517MOL0     C69726   0.492   6.160   9.539  0.1603  0.0344  0.8477
  517MOL0     C69727   0.517   6.072   9.416 -0.1512  0.5639 -0.8905
  517MOL0     H69728   0.978   6.112   9.458 -0.6777 -1.2388  0.5017
  517MOL0     H69729   1.202   6.049   9.501 -0.9001  1.0334 -1.1513
  517MOL0     H69730   1.415   6.195   9.852 -1.4095 -0.2643 -0.8929
  517MOL0     H69731   1.379   6.036   9.917 -3.0692  2.6633 -0.1016
  517MOL0     H69732   1.620   6.135   9.723 -2.2807  0.8028 -1.5361
  517MOL0     H69733   1.576   5.967   9.728  0.3629  0.9802 -0.8078
  517MOL0     H69734   1.616   6.140   9.976 -0.6557  0.9022 -1.6647
  517MOL0     H69735   1.754   6.066   9.894 -0.3590 -1.7513 -1.6354
  517MOL0     H69736   1.576   5.944  10.089 -0.5013  0.5111 -0.4698
  517MOL0     H69737   1.596   5.838   9.947  1.3090 -1.8035  2.5347
  517MOL0     H69738   1.783   5.760  10.062 -0.3510 -0.1994 -2.6832
  517MOL0     H69739   1.844   5.879   9.964 -1.0195  1.1551 -0.1655
  517MOL0     H69740   1.851   6.052  10.139 -0.4746  0.4857 -0.3354
  517MOL0     H69741   1.750   5.944  10.237 -1.4685  0.9985 -3.4092
  517MOL0     H69742   1.911   5.785  10.276 -0.3379  0.4135  0.9888
  517MOL0     H69743   1.963   5.948  10.322 -3.0791 -0.8776  1.9692
  517MOL0     H69744   2.051   5.826  10.050 -1.5082  1.6647 -0.3982
  517MOL0     H69745   2.102   5.971  10.126  1.7190 -0.5006 -0.5699
  517MOL0     H69746   2.188   5.614  10.085  1.5219 -0.4552 -0.2939
  517MOL0     H69747   2.335   5.454  10.383 -1.1966  1.0833  0.0826
  517MOL0     H69748   2.274   5.402  10.242  0.2257 -0.2813  1.0498
  517MOL0     H69749   2.521   5.355  10.233 -0.8536 -0.3878  2.1160
  517MOL0     H69750   2.516   5.490  10.119  0.6040 -0.2086  0.3152
  517MOL0     H69751   2.574   5.543  10.419 -1.3897  3.1474  0.0547
  517MOL0     H69752   2.592   5.652  10.276  1.7575 -0.2478 -2.8087
  517MOL0     H69753   2.813   5.557  10.358  0.1539  0.5927 -1.3512
  517MOL0     H69754   2.781   5.524  10.190 -1.1669 -0.4930 -1.1202
  517MOL0     H69755   2.992   5.482  10.282 -4.4980  0.2674 -0.1588
  517MOL0     H69756   3.220   5.362  10.285  0.1867 -0.9951 -0.4482
  517MOL0     H69757   3.493   4.993  10.210  0.2846 -2.8750  1.5950
  517MOL0     H69758   3.725   4.916  10.209 -0.2754 -0.2838  0.0186
  517MOL0     H69759   4.024   5.128  10.426 -0.9340  0.0251  0.1302
  517MOL0     H69760   3.944   5.047  10.579 -2.5148  0.8216 -1.3700
  517MOL0     H69761   4.061   4.851  10.546 -3.0243  2.2811  0.6561
  517MOL0     H69762   4.137   4.912  10.401  1.0359 -1.2450  0.5248
  517MOL0     H69763   4.245   5.096  10.543  0.9404  0.0343  1.4082
  517MOL0     H69764   4.162   5.034  10.681 -0.6241  3.3946 -0.6940
  517MOL0     H69765   4.292   4.802  10.599 -1.0718  0.2839  0.3617
  517MOL0     H69766   4.371   4.922  10.703  1.6549  1.3206 -0.6017
  517MOL0     H69767   4.404   4.984  10.423  0.2849  2.0825  1.3605
  517MOL0     H69768   4.494   4.836  10.478  3.8497  2.0314  0.8289
  517MOL0     H69769   4.475   5.116  10.611 -0.1279  0.1243 -2.5291
  517MOL0     H69770   4.580   4.973  10.662  0.7266 -0.8244 -0.4201
  517MOL0     H69771   4.596   5.145  10.410  2.1974  1.3779  0.2466
  517MOL0     H69772   4.679   4.998  10.435 -0.7056 -0.3741  0.2791
  517MOL0     H69773   4.724   5.263  10.595  0.7296 -0.6578  1.5099
  517MOL0     H69774   4.785   5.103  10.653 -1.0900 -1.8825 -0.2099
  517MOL0     H69775   3.782   5.173  10.565 -0.6522 -0.3578 -0.0059
  517MOL0     H69776   3.542   5.252  10.530 -4.4385 -1.8047 -0.5493
  517MOL0     H69777   3.008   4.994  10.379  1.5642 -0.3411 -2.5742
  517MOL0     H69778   2.801   5.114  10.377  0.9921  1.0161  0.7964
  517MOL0     H69779   1.185   6.168   9.918 -1.8656  2.1029  0.5101
  517MOL0     H69780   0.964   6.235   9.883  2.2102  0.9355  0.7491
  517MOL0     H69781   0.633   6.262   9.828  0.3702 -3.0077  0.7965
  517MOL0     H69782   0.405   6.367   9.846  0.5536  0.2525 -0.9224
  517MOL0     H69783   0.088   6.234   9.591 -0.1831 -0.3662  1.7791
  517MOL0     H69784   0.126   6.396   9.526 -1.6886  1.3094  2.0581
  517MOL0     H69785   0.009   6.387   9.799 -0.1362  0.3452 -0.0460
  517MOL0     H69786  -0.091   6.332   9.664  0.6074  0.3446 -2.7842
  517MOL0     H69787  -0.073   6.555   9.567  1.4107 -0.6500 -0.7759
  517MOL0     H69788   0.039   6.614   9.690 -0.4179  1.3160 -0.1463
  517MOL0     H69789  -0.234   6.500   9.753 -2.4768  1.6241 -0.0331
  517MOL0     H69790  -0.124   6.599   9.854  0.5823  3.3683 -0.5031
  517MOL0     H69791  -0.320   6.902   9.630  0.6127  1.4795  4.3650
  517MOL0     H69792   0.296   6.206   9.472  0.1405 -1.4980  1.1642
  517MOL0     H69793   0.617   6.092   9.376  1.6724 -1.0561  2.4990
  517MOL0     H69794   0.515   5.969   9.451 -1.4370  0.2634 -1.7399
  517MOL0     H69795   0.435   6.092   9.345 -1.5547  0.7812  0.7357
  518MOL0     O69796   5.879   5.822  10.966 -0.7278  0.1649 -0.4668
  518MOL0     C69797   5.818   5.840  10.860  0.2574 -0.8159 -0.3492
  518MOL0     O69798   5.870   5.914  10.756 -0.3030  0.1640 -0.1203
  518MOL0     C69799   5.973   5.991  10.775  0.3430 -0.0087  0.7572
  518MOL0     C69800   6.099   5.943  10.791 -1.3666 -0.0455 -0.0206
  518MOL0     C69801   6.209   6.028  10.822  0.5909 -0.1912 -0.0149
  518MOL0     C69802   6.181   6.164  10.841  0.5754  0.1022 -0.6673
  518MOL0     O69803   6.288   6.248  10.882  0.5958 -0.4429  0.0082
  518MOL0     C69804   6.272   6.391  10.868  0.2616 -0.3031 -0.1115
  518MOL0     C69805   6.403   6.469  10.884 -1.0301  0.3896 -0.0740
  518MOL0     C69806   6.505   6.437  10.775  0.4567  0.9502 -0.5820
  518MOL0     C69807   6.640   6.472  10.823 -0.9174  0.0826  0.3534
  518MOL0     C69808   6.751   6.455  10.713  0.5487  0.0860  0.4473
  518MOL0     C69809   6.890   6.495  10.778 -0.1983 -0.0597  0.9086
  518MOL0     C69810   7.004   6.471  10.682  0.7032 -0.6461  0.3561
  518MOL0     C69811   6.988   6.556  10.559  0.3418 -0.3495  0.6367
  518MOL0     N69812   7.106   6.562  10.475  0.3870 -0.4323  0.5115
  518MOL0     C69813   7.097   6.573  10.338  0.3688 -0.3833  1.1049
  518MOL0     C69814   7.219   6.622  10.303 -0.2636 -0.3179  1.0102
  518MOL0     C69815   7.250   6.652  10.164  1.2143  0.3100  0.1940
  518MOL0     C69816   7.396   6.699  10.151 -0.2569 -0.5778 -0.1053
  518MOL0     C69817   7.441   6.711  10.001 -0.0642 -0.3565 -0.4448
  518MOL0     C69818   7.587   6.664   9.988  0.6244 -0.1351  0.0768
  518MOL0     O69819   7.672   6.730  10.085  0.5629 -0.0516  0.1765
  518MOL0     C69820   7.805   6.702  10.051 -0.4520 -1.0921 -0.0781
  518MOL0     C69821   7.865   6.750   9.927 -0.1699 -0.0827 -0.6483
  518MOL0     C69822   7.998   6.713   9.902  0.0069  0.4729  0.5469
  518MOL0     C69823   8.075   6.622   9.982 -0.2583 -0.2524  0.3817
  518MOL0     C69824   8.213   6.583   9.941 -0.1749 -0.4270  0.3349
  518MOL0     O69825   8.274   6.644   9.830  0.1780 -0.1186 -0.4474
  518MOL0     C69826   8.415   6.652   9.829  0.3250  1.3383 -0.4988
  518MOL0     C69827   8.483   6.542   9.788  0.1825  0.1322  0.5121
  518MOL0     C69828   8.622   6.535   9.783  1.7749 -0.7935 -0.2652
  518MOL0     C69829   8.695   6.645   9.827  0.4026 -0.6318  0.0364
  518MOL0     O69830   8.828   6.642   9.826  0.4307 -0.0925 -0.0019
  518MOL0     C69831   8.894   6.548   9.911  0.8361  0.2308 -0.4136
  518MOL0     C69832   9.041   6.590   9.901  0.8133  0.1125  0.0584
  518MOL0     C69833   9.136   6.497   9.979 -0.8918  0.0444 -0.9082
  518MOL0     C69834   9.288   6.539   9.967 -0.0171  0.4259  0.1264
  518MOL0     C69835   9.375   6.411   9.998 -0.3739  0.0252 -0.5348
  518MOL0     C69836   9.514   6.448  10.050  0.4186  0.1256 -1.2391
  518MOL0     C69837   9.590   6.565   9.982 -0.4799  1.1230  0.1006
  518MOL0     C69838   9.739   6.575  10.028 -0.0244  0.2427  0.1541
  518MOL0    Cl69839   9.714   6.637  10.194  0.3349  0.3610 -0.1581
  518MOL0     C69840   8.627   6.770   9.852 -0.5556  0.0256 -0.9039
  518MOL0     C69841   8.488   6.769   9.858 -0.4381 -0.7838  0.8365
  518MOL0     O69842   8.269   6.510  10.021 -0.0815 -0.0357 -0.1996
  518MOL0     C69843   8.017   6.593  10.112 -0.1259 -0.1407 -0.3925
  518MOL0     C69844   7.887   6.634  10.147  0.3996  0.3320  0.4351
  518MOL0     N69845   7.285   6.663  10.410 -0.1080 -0.3114 -0.2972
  518MOL0     N69846   7.222   6.618  10.517  0.4864  0.5057 -0.1040
  518MOL0     C69847   6.055   6.220  10.812  0.1447  0.3577 -0.7397
  518MOL0     C69848   5.949   6.133  10.776  0.1799  0.8063  0.6493
  518MOL0     C69849   5.691   5.760  10.846  0.4285 -0.0247 -0.2281
  518MOL0     C69850   5.660   5.668  10.946  0.2280  0.3297 -0.0525
  518MOL0     C69851   5.546   5.585  10.944  0.2278  0.4179 -0.2516
  518MOL0     C69852   5.449   5.603  10.848 -0.0737  0.0686 -0.2560
  518MOL0     O69853   5.329   5.539  10.835 -0.3221  0.1737 -0.0008
  518MOL0     C69854   5.299   5.448  10.947 -0.2137  0.8394  0.0600
  518MOL0     C69855   5.182   5.366  10.922  0.1387  1.3111 -0.2619
  518MOL0     C69856   5.052   5.452  10.889 -0.5267  0.4034 -1.3559
  518MOL0     C69857   4.931   5.365  10.838  0.0207  0.3964 -0.2735
  518MOL0     C69858   4.823   5.457  10.801 -0.4508  0.0825  0.2540
  518MOL0     C69859   4.740   5.541  10.775 -0.1521  0.0612 -0.4304
  518MOL0     C69860   5.477   5.694  10.749  0.3545  0.2573 -0.3814
  518MOL0     C69861   5.593   5.774  10.753  0.1177  0.2586  0.5078
  518MOL0     C69862   5.599   5.875  10.645  0.2662  0.2976  0.1832
  518MOL0     H69863   6.118   5.838  10.774 -2.8386 -0.0229 -2.1211
  518MOL0     H69864   6.311   5.989  10.823  0.5573 -0.3020 -0.5471
  518MOL0     H69865   6.233   6.418  10.769  0.4610  0.5932  0.0476
  518MOL0     H69866   6.205   6.446  10.935  0.1134  1.0651 -1.3426
  518MOL0     H69867   6.454   6.449  10.979 -1.3677 -2.1998 -0.3677
  518MOL0     H69868   6.386   6.576  10.867  1.8002  0.7809 -0.9912
  518MOL0     H69869   6.487   6.486  10.678 -0.3705  0.1791 -0.8323
  518MOL0     H69870   6.496   6.329  10.758 -2.1917  1.3315 -2.3310
  518MOL0     H69871   6.642   6.578  10.850  0.0031 -0.0221  0.7373
  518MOL0     H69872   6.661   6.416  10.914 -2.9213  3.1015  2.8860
  518MOL0     H69873   6.748   6.351  10.677  0.6295  0.9635 -2.3081
  518MOL0     H69874   6.731   6.517  10.625 -0.4791  0.8551  1.2129
  518MOL0     H69875   6.885   6.599  10.813 -3.4289 -0.0306  0.6396
  518MOL0     H69876   6.907   6.428  10.862  0.5198 -1.6015 -0.4201
  518MOL0     H69877   6.998   6.367  10.649 -0.0481  0.4525 -3.5056
  518MOL0     H69878   7.096   6.498  10.734  1.0932  0.1134 -0.6993
  518MOL0     H69879   6.916   6.511  10.490  2.3160 -4.5410  0.9946
  518MOL0     H69880   6.963   6.657  10.592  0.8076 -0.0962  0.2428
  518MOL0     H69881   7.016   6.566  10.266  0.3157  3.3864  0.5618
  518MOL0     H69882   7.238   6.562  10.103  0.8942  1.6208 -1.7956
  518MOL0     H69883   7.182   6.724  10.118 -0.4308 -2.0271 -1.2358
  518MOL0     H69884   7.416   6.801  10.187  2.6472 -0.6719 -1.2078
  518MOL0     H69885   7.462   6.631  10.205  1.2882  2.1495  1.6702
  518MOL0     H69886   7.432   6.813   9.963  1.1621 -0.1094 -0.1290
  518MOL0     H69887   7.387   6.649   9.930  2.4289  0.8278 -3.5935
  518MOL0     H69888   7.610   6.678   9.882 -1.3593 -1.9717 -0.6690
  518MOL0     H69889   7.586   6.555   9.993 -1.0365 -0.3024 -2.2746
  518MOL0     H69890   7.795   6.803   9.863  0.7019 -0.4089 -1.9070
  518MOL0     H69891   8.048   6.748   9.812  0.4754 -0.4459  0.4422
  518MOL0     H69892   8.423   6.458   9.755  0.7556  0.2266 -0.8357
  518MOL0     H69893   8.671   6.442   9.755  0.5718 -1.6472  0.3644
  518MOL0     H69894   8.854   6.563  10.012 -2.2144 -2.4131 -1.0857
  518MOL0     H69895   8.885   6.442   9.887  1.1624 -0.0165  0.4747
  518MOL0     H69896   9.068   6.599   9.795  0.2802 -1.2161 -0.2167
  518MOL0     H69897   9.055   6.692   9.938  1.9755 -0.3923  1.0751
  518MOL0     H69898   9.110   6.490  10.085 -0.7599 -1.3701 -0.9539
  518MOL0     H69899   9.118   6.400   9.933 -1.5913  0.7034 -2.0834
  518MOL0     H69900   9.316   6.623  10.031 -3.2515 -0.0535  2.4263
  518MOL0     H69901   9.304   6.572   9.864 -3.1256  1.4311 -0.1307
  518MOL0     H69902   9.386   6.347   9.910 -2.2158 -0.3484 -0.5229
  518MOL0     H69903   9.322   6.351  10.072  1.4904 -1.6727 -0.4847
  518MOL0     H69904   9.489   6.486  10.149  3.4226  0.6010 -0.5801
  518MOL0     H69905   9.558   6.349  10.058 -1.4185 -0.5478  2.9199
  518MOL0     H69906   9.541   6.661  10.002 -0.4632  1.1905 -0.1768
  518MOL0     H69907   9.598   6.550   9.874  1.2659  1.4991  0.1472
  518MOL0     H69908   9.781   6.474  10.031  0.6237  0.5236  0.9753
  518MOL0     H69909   9.801   6.643   9.969  1.3296 -0.7326  0.4128
  518MOL0     H69910   8.676   6.857   9.894 -0.6324 -1.3758  2.4686
  518MOL0     H69911   8.438   6.864   9.876  2.3092  1.5934 -2.7692
  518MOL0     H69912   8.084   6.538  10.177  2.3363 -0.0147 -2.6605
  518MOL0     H69913   7.838   6.609  10.240 -1.0658 -0.8602 -0.6053
  518MOL0     H69914   6.038   6.327  10.814  0.4150  0.4141  1.4784
  518MOL0     H69915   5.857   6.184  10.748 -0.4278 -0.1579  0.8232
  518MOL0     H69916   5.730   5.653  11.028  2.0608 -2.9791 -1.9912
  518MOL0     H69917   5.537   5.506  11.018  1.3225  0.8754  0.4065
  518MOL0     H69918   5.280   5.506  11.037 -1.7807 -2.3265  1.9252
  518MOL0     H69919   5.383   5.384  10.975 -0.8829  0.5945  1.6020
  518MOL0     H69920   5.166   5.308  11.013  1.0471 -2.8048 -2.4685
  518MOL0     H69921   5.201   5.290  10.845 -2.1809 -0.8912  1.2099
  518MOL0     H69922   5.082   5.513  10.803 -1.1714  3.1426  0.2496
  518MOL0     H69923   5.031   5.520  10.972  2.4502  0.1936 -0.2916
  518MOL0     H69924   4.953   5.299  10.754  0.3261 -0.0380  0.1429
  518MOL0     H69925   4.899   5.291  10.912 -2.1070  0.2883 -1.2323
  518MOL0     H69926   4.672   5.611  10.730 -1.7660  0.0191  1.7830
  518MOL0     H69927   5.405   5.716  10.671  0.2346 -0.0648 -0.3639
  518MOL0     H69928   5.638   5.966  10.690 -1.4056  0.5124  1.2818
  518MOL0     H69929   5.653   5.854  10.552  1.2879  0.6310  0.6808
  518MOL0     H69930   5.500   5.894  10.603  1.5009 -0.8440 -3.7708
  519MOL0     O69931   8.103   0.558   8.094 -0.6095 -0.7075  0.3258
  519MOL0     C69932   8.123   0.442   8.073 -0.4137  0.3579  0.7331
  519MOL0     O69933   8.254   0.381   8.051  0.2371  0.0255  0.3609
  519MOL0     C69934   8.364   0.457   8.084  0.0410 -0.3982 -0.7079
  519MOL0     C69935   8.460   0.478   7.990 -0.0762 -0.2516 -0.2004
  519MOL0     C69936   8.569   0.561   8.018  0.4956 -0.5500 -0.1757
  519MOL0     C69937   8.588   0.622   8.146 -0.2120  0.2143 -0.0214
  519MOL0     O69938   8.700   0.708   8.166  0.3231 -0.0466  0.8274
  519MOL0     C69939   8.764   0.708   8.292 -0.3693 -0.2588  0.0230
  519MOL0     C69940   8.722   0.825   8.381  0.3603 -0.3667 -0.2050
  519MOL0     C69941   8.758   0.962   8.326 -0.7078  0.4737 -0.4139
  519MOL0     C69942   8.902   1.003   8.336 -0.0827 -0.7182  0.1097
  519MOL0     C69943   8.923   1.153   8.307 -0.3302  0.9355 -0.4612
  519MOL0     C69944   9.067   1.210   8.319  0.5792 -0.7306  0.3736
  519MOL0     C69945   9.165   1.125   8.233  0.5362  0.8741 -0.5763
  519MOL0     C69946   9.315   1.150   8.275 -0.0381 -0.8455 -0.0455
  519MOL0     N69947   9.350   1.300   8.293 -0.5459 -0.2130  0.2861
  519MOL0     C69948   9.412   1.380   8.202  0.0612 -0.9703 -0.5659
  519MOL0     C69949   9.410   1.503   8.262 -0.5302 -0.2807 -0.8919
  519MOL0     C69950   9.440   1.639   8.202  0.0133  0.1535 -0.5088
  519MOL0     C69951   9.333   1.693   8.107  0.5870  0.5890 -0.5887
  519MOL0     C69952   9.191   1.684   8.156  0.3583  0.6856  0.3598
  519MOL0     C69953   9.149   1.796   8.257  0.3335 -0.5411 -0.2630
  519MOL0     O69954   9.008   1.806   8.263  0.1314 -0.3618 -0.0099
  519MOL0     C69955   8.952   1.724   8.352 -0.7535  0.2594 -0.5738
  519MOL0     C69956   9.014   1.606   8.406 -0.0148  0.7819 -0.3001
  519MOL0     C69957   8.936   1.519   8.483 -0.0406 -0.0185  0.0230
  519MOL0     C69958   8.803   1.548   8.521 -0.0344 -0.1302 -0.3656
  519MOL0     C69959   8.718   1.447   8.589  0.9614  0.2609  0.5412
  519MOL0     O69960   8.590   1.481   8.606 -0.1853 -0.6608  0.5593
  519MOL0     C69961   8.503   1.410   8.677  0.5878  0.0832  0.0081
  519MOL0     C69962   8.492   1.262   8.675 -0.3799  0.2218 -0.0191
  519MOL0     C69963   8.385   1.197   8.745  0.7645  0.6827 -0.4981
  519MOL0     C69964   8.284   1.267   8.812  0.1040 -0.5981 -0.3907
  519MOL0     O69965   8.174   1.215   8.874  0.5997 -1.0914 -0.6568
  519MOL0     C69966   8.157   1.071   8.868  0.3971  0.0609  0.3534
  519MOL0     C69967   8.035   1.040   8.958 -0.4982 -0.4455  0.3857
  519MOL0     C69968   7.992   0.890   8.922  0.5802  0.3769 -0.4972
  519MOL0     C69969   7.902   0.832   9.037  1.2899  0.3117 -0.5680
  519MOL0     C69970   7.837   0.698   9.005 -0.1102 -1.2346  1.4502
  519MOL0     C69971   7.758   0.658   9.132 -0.3468 -1.0534 -0.6810
  519MOL0     C69972   7.662   0.542   9.083 -0.2569 -0.4448 -0.1119
  519MOL0     C69973   7.588   0.465   9.191  0.2516 -0.3926 -0.1017
  519MOL0    Cl69974   7.473   0.577   9.278  0.0452 -0.4673 -0.2775
  519MOL0     C69975   8.297   1.407   8.808  0.9150 -0.2978 -0.6163
  519MOL0     C69976   8.399   1.477   8.743  0.1612 -0.6386  0.3948
  519MOL0     O69977   8.771   1.339   8.620  0.1506  0.3058 -0.2232
  519MOL0     C69978   8.754   1.680   8.488 -0.2106  0.2955 -0.2436
  519MOL0     C69979   8.827   1.759   8.402 -0.7971 -0.9964 -0.2164
  519MOL0     N69980   9.372   1.486   8.396 -0.3478  0.0122 -0.0888
  519MOL0     N69981   9.330   1.369   8.408 -0.4135  0.5532 -0.9079
  519MOL0     C69982   8.499   0.579   8.249  0.2898  0.0748  1.0352
  519MOL0     C69983   8.385   0.504   8.214 -0.1705 -0.1817 -0.7352
  519MOL0     C69984   7.997   0.355   8.061  0.0926  0.2784  0.1332
  519MOL0     C69985   8.008   0.236   7.988 -0.3794  0.1058 -0.5631
  519MOL0     C69986   7.898   0.158   7.956  0.4915  0.7268 -0.7140
  519MOL0     C69987   7.773   0.185   8.015  0.1579 -1.1479 -0.7839
  519MOL0     O69988   7.686   0.077   8.010 -0.2001 -0.2332 -0.3958
  519MOL0     C69989   7.553   0.075   8.075  0.0998 -0.5644 -0.6687
  519MOL0     C69990   7.439   0.112   7.976  0.1537 -0.6614  0.5095
  519MOL0     C69991   7.437   0.009   7.866 -0.2872 -0.0634 -0.0500
  519MOL0     C69992   7.310   0.043   7.788  0.6905  0.3973  0.2785
  519MOL0     C69993   7.321   0.015   7.638 -0.0706  0.7072  0.0853
  519MOL0     C69994   7.325  -0.012   7.521  0.2151  0.2209 -0.2926
  519MOL0     C69995   7.761   0.296   8.098 -0.6325  1.1640 -0.7715
  519MOL0     C69996   7.870   0.381   8.116  0.1539 -0.6224 -0.4772
  519MOL0     C69997   7.843   0.495   8.205  0.6536 -0.2356  0.4027
  519MOL0     H69998   8.467   0.435   7.890  1.1539  1.5391 -0.9407
  519MOL0     H69999   8.643   0.586   7.942 -0.5636 -1.3288 -1.4950
  519MOL0     H70000   8.741   0.614   8.343  0.2795 -1.2524 -1.4608
  519MOL0     H70001   8.873   0.717   8.283 -0.3604  2.1813  1.4239
  519MOL0     H70002   8.754   0.823   8.486 -1.4172  3.4050  0.5932
  519MOL0     H70003   8.613   0.828   8.380  0.3344  3.5461 -0.9058
  519MOL0     H70004   8.691   1.034   8.374 -0.2452 -0.0156  1.0330
  519MOL0     H70005   8.727   0.963   8.221  1.2459 -1.1638 -1.0828
  519MOL0     H70006   8.945   0.980   8.434 -0.8223  1.8921  1.1287
  519MOL0     H70007   8.945   0.942   8.256  0.4447  3.5167 -3.2354
  519MOL0     H70008   8.901   1.172   8.202  1.6279 -1.3200 -1.3477
  519MOL0     H70009   8.860   1.213   8.374  1.2190 -0.2244  2.2102
  519MOL0     H70010   9.082   1.313   8.285  0.3834 -1.4976 -2.3005
  519MOL0     H70011   9.083   1.211   8.427 -0.2437 -0.8273  0.5008
  519MOL0     H70012   9.154   1.150   8.127 -1.5329 -0.1679 -0.6598
  519MOL0     H70013   9.155   1.017   8.246  0.5259  1.0987  1.8262
  519MOL0     H70014   9.346   1.105   8.370  0.8644 -1.0108 -0.3990
  519MOL0     H70015   9.376   1.106   8.195  2.4028  0.8164  0.7554
  519MOL0     H70016   9.432   1.366   8.096 -2.0030  2.6264 -1.6146
  519MOL0     H70017   9.437   1.705   8.289  1.0690 -0.6316  0.1598
  519MOL0     H70018   9.542   1.645   8.162  0.9736  0.2325  1.7904
  519MOL0     H70019   9.356   1.793   8.068 -0.1489  1.0976  0.2432
  519MOL0     H70020   9.344   1.636   8.014 -0.2590  2.3536 -1.8335
  519MOL0     H70021   9.178   1.583   8.195  0.9274  0.9192  1.1952
  519MOL0     H70022   9.119   1.683   8.074  0.4293 -2.2467  0.2241
  519MOL0     H70023   9.182   1.894   8.220  2.1169 -0.7439  0.6806
  519MOL0     H70024   9.200   1.776   8.351  2.1049 -2.7209 -1.5742
  519MOL0     H70025   9.112   1.573   8.376 -1.0881 -2.2461 -0.7959
  519MOL0     H70026   8.973   1.422   8.516 -1.3725 -0.4710  0.2603
  519MOL0     H70027   8.571   1.200   8.634  0.8359  0.5264  1.7449
  519MOL0     H70028   8.382   1.089   8.748 -1.4404  0.7314  1.7506
  519MOL0     H70029   8.137   1.050   8.762 -1.1779 -0.6846  0.7737
  519MOL0     H70030   8.249   1.016   8.890  0.4858 -0.2952 -0.8304
  519MOL0     H70031   8.072   1.045   9.061  0.2980  1.4092  0.0487
  519MOL0     H70032   7.961   1.118   8.936  1.3912  2.1108  2.4498
  519MOL0     H70033   7.934   0.885   8.830  0.2964 -1.6055 -0.2716
  519MOL0     H70034   8.083   0.832   8.904 -0.8030 -2.1686  0.2104
  519MOL0     H70035   7.827   0.906   9.068  1.7446  0.2577  0.7255
  519MOL0     H70036   7.959   0.812   9.128 -0.2208  0.9005  0.5404
  519MOL0     H70037   7.893   0.611   8.971 -1.5691 -1.0441 -1.8129
  519MOL0     H70038   7.768   0.715   8.922 -0.4757 -0.5657  1.8712
  519MOL0     H70039   7.827   0.632   9.213 -0.5708  0.0488 -0.1201
  519MOL0     H70040   7.701   0.736   9.183 -0.8496 -3.6137  3.0854
  519MOL0     H70041   7.724   0.463   9.040 -0.7633 -1.6822  1.3333
  519MOL0     H70042   7.595   0.580   9.006  1.0112 -1.4871 -1.8126
  519MOL0     H70043   7.531   0.378   9.159  1.4521 -1.8626  1.5549
  519MOL0     H70044   7.653   0.417   9.265 -1.6867 -1.7504  0.7942
  519MOL0     H70045   8.210   1.461   8.846  0.2800 -0.0209 -2.3688
  519MOL0     H70046   8.383   1.584   8.737 -3.1145 -0.8395  2.7379
  519MOL0     H70047   8.653   1.711   8.511 -1.3128 -0.6471 -3.3454
  519MOL0     H70048   8.795   1.860   8.379  2.3205  0.8690  2.8086
  519MOL0     H70049   8.509   0.606   8.354 -0.0732 -0.4935  1.2213
  519MOL0     H70050   8.311   0.481   8.291  1.2412  0.1294  0.7790
  519MOL0     H70051   8.100   0.202   7.943 -0.9111 -1.1110 -0.7868
  519MOL0     H70052   7.916   0.072   7.892  1.2041 -0.4893  1.0497
  519MOL0     H70053   7.538   0.151   8.152 -1.4193 -2.5381  1.0914
  519MOL0     H70054   7.539  -0.025   8.118  2.3459 -0.5063  0.3317
  519MOL0     H70055   7.474   0.208   7.936  0.8423 -1.1080  0.0060
  519MOL0     H70056   7.341   0.114   8.024 -0.0764  1.3152  0.0131
  519MOL0     H70057   7.439  -0.094   7.903  0.4842 -0.5332 -1.3466
  519MOL0     H70058   7.527   0.022   7.806  0.2197  3.7578  1.2551
  519MOL0     H70059   7.221  -0.016   7.814  0.9983  0.2507  1.0149
  519MOL0     H70060   7.293   0.151   7.795 -1.0682  0.0752  1.5653
  519MOL0     H70061   7.327  -0.024   7.415  0.0219 -2.0541 -0.0734
  519MOL0     H70062   7.669   0.315   8.152 -2.1185 -1.9833 -1.9928
  519MOL0     H70063   7.879   0.590   8.165  0.0063  0.7414  2.0507
  519MOL0     H70064   7.736   0.507   8.224  1.1010  1.2476  2.2931
  519MOL0     H70065   7.888   0.477   8.303  1.1043  1.2411  0.4981
  520MOL0     O70066   4.468   3.732   8.715  0.5828 -0.1241  0.0271
  520MOL0     C70067   4.417   3.640   8.649  0.9249 -0.2713 -0.1100
  520MOL0     O70068   4.364   3.646   8.524 -0.1783  0.2881  0.1767
  520MOL0     C70069   4.408   3.740   8.439 -0.0884 -0.2825  0.2553
  520MOL0     C70070   4.308   3.801   8.362  0.4289  0.3605 -1.1542
  520MOL0     C70071   4.343   3.912   8.280 -0.2271  0.6318  0.0280
  520MOL0     C70072   4.473   3.946   8.272 -0.5028  0.2895  0.3568
  520MOL0     O70073   4.504   4.059   8.206  0.2861 -0.0349 -0.0798
  520MOL0     C70074   4.613   4.078   8.111  0.2115  0.0383 -0.0768
  520MOL0     C70075   4.594   4.228   8.089 -0.1992 -0.0150 -0.5115
  520MOL0     C70076   4.676   4.300   7.981 -0.8180 -0.0581  0.2525
  520MOL0     C70077   4.830   4.270   7.996  0.1440 -0.6421 -0.2147
  520MOL0     C70078   4.922   4.360   7.910  0.8368  0.3739 -0.6571
  520MOL0     C70079   5.061   4.296   7.882 -0.2378 -0.1682 -0.2528
  520MOL0     C70080   5.125   4.374   7.762  0.9380  0.0520  0.7543
  520MOL0     C70081   5.133   4.527   7.767 -0.7968 -0.5841  0.5049
  520MOL0     N70082   5.252   4.557   7.682 -0.4535  0.3888 -0.0885
  520MOL0     C70083   5.260   4.543   7.546  0.7664 -0.5624 -0.4031
  520MOL0     C70084   5.385   4.565   7.506 -0.4125 -0.3575  0.4034
  520MOL0     C70085   5.441   4.567   7.365  0.2228  0.3000  0.2937
  520MOL0     C70086   5.454   4.721   7.317 -0.1998  0.6109  0.3959
  520MOL0     C70087   5.539   4.727   7.194  0.0888  0.1923  0.1374
  520MOL0     C70088   5.571   4.869   7.148  0.4128 -0.5428 -0.1077
  520MOL0     O70089   5.626   4.885   7.015  0.2135 -0.2549 -0.8235
  520MOL0     C70090   5.746   4.816   6.977 -0.2166 -0.5009 -0.0803
  520MOL0     C70091   5.769   4.796   6.840 -0.2337  0.3038  0.5340
  520MOL0     C70092   5.893   4.739   6.802 -0.5304  0.5477 -0.4131
  520MOL0     C70093   5.992   4.702   6.900 -0.1020  0.3663 -0.8541
  520MOL0     C70094   6.114   4.623   6.868 -0.9107 -0.7245  0.4209
  520MOL0     O70095   6.192   4.580   6.977  0.5557  0.0533 -0.0331
  520MOL0     C70096   6.286   4.485   6.961 -0.9736  0.2120  0.7121
  520MOL0     C70097   6.284   4.388   6.861 -0.2823 -0.0683  0.4445
  520MOL0     C70098   6.376   4.285   6.863  0.3416 -0.1032  0.0039
  520MOL0     C70099   6.478   4.278   6.963 -0.4646 -0.3952 -0.2088
  520MOL0     O70100   6.582   4.184   6.960  0.5999 -0.9033  0.3014
  520MOL0     C70101   6.563   4.063   6.905  1.2816  1.2149 -0.3396
  520MOL0     C70102   6.639   4.034   6.781  0.1227  0.5112 -0.1537
  520MOL0     C70103   6.786   3.994   6.817  0.3513  0.6152  0.0960
  520MOL0     C70104   6.871   3.989   6.690 -0.0181  0.2364  0.6435
  520MOL0     C70105   7.016   3.980   6.734  0.5566  0.3622 -0.6082
  520MOL0     C70106   7.062   3.863   6.811 -0.3548  0.0042 -0.2674
  520MOL0     C70107   7.217   3.856   6.843  0.6830 -0.3566  0.0102
  520MOL0     C70108   7.307   3.902   6.730  1.1805  1.1699  0.5870
  520MOL0    Cl70109   7.298   3.811   6.578 -0.4320 -0.2206 -0.0346
  520MOL0     C70110   6.486   4.378   7.056  0.1739 -0.7223  0.3877
  520MOL0     C70111   6.392   4.479   7.051 -0.5441 -0.5219  0.5290
  520MOL0     O70112   6.128   4.602   6.750 -0.3542 -0.2128 -0.2135
  520MOL0     C70113   5.966   4.731   7.036  0.1460  0.0397 -0.3000
  520MOL0     C70114   5.846   4.785   7.069  0.3587  0.3262  0.3269
  520MOL0     N70115   5.461   4.604   7.621  0.0805 -0.0644  0.3280
  520MOL0     N70116   5.378   4.596   7.720 -0.4270  0.5774 -0.4953
  520MOL0     C70117   4.575   3.880   8.341 -0.2734  0.2160 -0.1844
  520MOL0     C70118   4.542   3.777   8.425 -0.2057  0.0600  0.0659
  520MOL0     C70119   4.403   3.518   8.730  0.5480  0.0204 -0.4236
  520MOL0     C70120   4.294   3.427   8.692 -0.0613  0.9916  0.0011
  520MOL0     C70121   4.280   3.306   8.748  0.3919 -0.4973  1.0075
  520MOL0     C70122   4.367   3.250   8.843  0.6016 -0.5229  0.1262
  520MOL0     O70123   4.359   3.114   8.882 -0.5136 -0.3010  0.0970
  520MOL0     C70124   4.261   3.014   8.828  0.0091 -0.3085 -1.0840
  520MOL0     C70125   4.299   2.988   8.675  0.2072  1.3651 -0.2765
  520MOL0     C70126   4.217   2.872   8.615  0.5956 -0.2438 -0.2457
  520MOL0     C70127   4.253   2.858   8.468  0.3065 -1.2993  0.5211
  520MOL0     C70128   4.218   2.740   8.398  0.8363  0.6165  0.0598
  520MOL0     C70129   4.207   2.630   8.361 -0.1311  0.2765  0.3070
  520MOL0     C70130   4.472   3.332   8.886 -0.7598 -0.6017  0.1200
  520MOL0     C70131   4.483   3.463   8.839  0.1893 -0.1708  0.3794
  520MOL0     C70132   4.598   3.542   8.892  0.4248  0.9802 -0.3222
  520MOL0     H70133   4.209   3.758   8.372  0.3102  0.4904 -1.7329
  520MOL0     H70134   4.265   3.972   8.235 -2.4105 -1.2338  1.1063
  520MOL0     H70135   4.714   4.073   8.153  0.3599  2.9703  0.1866
  520MOL0     H70136   4.602   4.018   8.021 -0.5645  2.4796 -1.6997
  520MOL0     H70137   4.628   4.272   8.183 -1.5530  2.1716 -0.9728
  520MOL0     H70138   4.489   4.260   8.087  0.4736  2.3238 -0.8937
  520MOL0     H70139   4.656   4.406   7.996 -1.7103 -0.4987  2.7222
  520MOL0     H70140   4.633   4.273   7.884  0.9670 -3.3231  0.2075
  520MOL0     H70141   4.865   4.288   8.099 -3.6029  1.7976  0.8349
  520MOL0     H70142   4.852   4.165   7.977  1.7874 -0.2724 -0.4961
  520MOL0     H70143   4.871   4.379   7.815 -0.0123  0.0465 -0.2747
  520MOL0     H70144   4.932   4.458   7.958  2.7246 -0.2178  0.2462
  520MOL0     H70145   5.125   4.292   7.971 -0.3315 -1.4913 -0.2324
  520MOL0     H70146   5.050   4.194   7.844 -0.8157  0.0531 -0.6977
  520MOL0     H70147   5.082   4.350   7.665  0.1188  0.6032  0.9755
  520MOL0     H70148   5.224   4.326   7.754 -0.3388 -2.6529 -0.1558
  520MOL0     H70149   5.042   4.574   7.731 -0.4758  1.0005  1.6295
  520MOL0     H70150   5.143   4.562   7.870  0.0232  2.2225 -0.4331
  520MOL0     H70151   5.169   4.522   7.490 -1.4637 -0.6223  2.9621
  520MOL0     H70152   5.540   4.520   7.362 -0.0057 -0.1373 -1.6154
  520MOL0     H70153   5.380   4.515   7.292  1.2868 -1.4551  0.6002
  520MOL0     H70154   5.358   4.762   7.286  0.2915  1.3496 -0.1794
  520MOL0     H70155   5.513   4.771   7.394  1.9847 -0.8457 -0.2523
  520MOL0     H70156   5.489   4.670   7.115  2.2147 -1.1080 -0.3603
  520MOL0     H70157   5.634   4.674   7.208 -0.5835 -1.2825 -0.6449
  520MOL0     H70158   5.629   4.927   7.221  0.2950  1.5859 -1.6255
  520MOL0     H70159   5.474   4.919   7.150  1.2134  1.0222  0.4950
  520MOL0     H70160   5.709   4.832   6.756  1.4695 -2.0224 -1.8545
  520MOL0     H70161   5.915   4.738   6.696  0.8101 -0.0069 -0.1545
  520MOL0     H70162   6.207   4.389   6.784  2.5119  0.6726 -2.5230
  520MOL0     H70163   6.369   4.209   6.785 -2.3400  1.1869 -1.1518
  520MOL0     H70164   6.586   3.991   6.983  0.5959  1.6490  0.2811
  520MOL0     H70165   6.455   4.046   6.896  1.3633 -0.9447  1.8838
  520MOL0     H70166   6.600   3.944   6.734  2.6204 -1.6848  1.6885
  520MOL0     H70167   6.634   4.115   6.708 -1.0620  0.8940  0.3268
  520MOL0     H70168   6.820   4.076   6.880  0.8580 -1.4138  2.6560
  520MOL0     H70169   6.786   3.897   6.869  2.0844  0.1547 -0.6837
  520MOL0     H70170   6.860   4.082   6.634  0.8536  0.1029  0.2393
  520MOL0     H70171   6.848   3.899   6.633 -0.5992  1.9577 -1.9932
  520MOL0     H70172   7.024   4.065   6.803  0.0433 -1.0321  1.2422
  520MOL0     H70173   7.066   3.992   6.637 -2.2461  0.8893 -2.0813
  520MOL0     H70174   6.994   3.873   6.896 -2.0587  0.5724 -1.6369
  520MOL0     H70175   7.027   3.770   6.765  0.3746 -0.2333 -0.3465
  520MOL0     H70176   7.244   3.752   6.862  1.7739 -0.4096 -1.6275
  520MOL0     H70177   7.243   3.920   6.928  1.2192 -0.2177 -0.2588
  520MOL0     H70178   7.285   4.005   6.702  1.3421  1.7731  2.5422
  520MOL0     H70179   7.414   3.907   6.754  1.6049  0.3485 -0.9844
  520MOL0     H70180   6.563   4.378   7.132  2.3211  0.2161 -1.6694
  520MOL0     H70181   6.402   4.559   7.123 -0.2207 -1.1049  1.1369
  520MOL0     H70182   6.038   4.728   7.117  1.4889  1.8140 -1.3303
  520MOL0     H70183   5.838   4.821   7.171  1.0212  1.7626 -0.1032
  520MOL0     H70184   4.681   3.901   8.327 -0.1804  0.5007  0.8480
  520MOL0     H70185   4.627   3.731   8.476  0.0917  0.6349  0.0967
  520MOL0     H70186   4.244   3.447   8.598  2.0567  2.3272 -0.9143
  520MOL0     H70187   4.209   3.238   8.701  1.1672  0.0831 -1.1034
  520MOL0     H70188   4.164   3.064   8.824  1.2276  2.4421  0.6489
  520MOL0     H70189   4.263   2.928   8.895  3.2647  0.7899  0.4076
  520MOL0     H70190   4.405   2.963   8.676 -0.2449 -1.3377 -3.0339
  520MOL0     H70191   4.300   3.073   8.606 -0.2365 -0.1705 -2.2867
  520MOL0     H70192   4.111   2.895   8.629  0.5575  1.9319 -3.0702
  520MOL0     H70193   4.240   2.778   8.666  0.2487 -1.1781 -1.7450
  520MOL0     H70194   4.191   2.936   8.423 -1.0181 -1.9589  1.1510
  520MOL0     H70195   4.361   2.867   8.449  0.0435 -0.5258 -0.7650
  520MOL0     H70196   4.202   2.527   8.332 -1.0079  0.7979 -1.5486
  520MOL0     H70197   4.545   3.293   8.957 -1.8654 -0.2392  1.5104
  520MOL0     H70198   4.657   3.489   8.968  2.5107  2.3472 -0.9102
  520MOL0     H70199   4.659   3.564   8.805  2.3352 -0.9771  0.4165
  520MOL0     H70200   4.559   3.633   8.939 -2.4632 -1.4301  2.4712
  521MOL0     O70201   7.096   9.738   6.529 -0.8413  0.7072 -0.0236
  521MOL0     C70202   7.030   9.633   6.522 -1.0288  0.0910  0.1555
  521MOL0     O70203   7.079   9.507   6.496  0.3773  0.4485 -0.7567
  521MOL0     C70204   7.210   9.488   6.496  0.0031 -0.0507  0.7093
  521MOL0     C70205   7.278   9.465   6.618  0.7320  0.3496 -0.3016
  521MOL0     C70206   7.423   9.467   6.621  0.1579  0.1094 -0.7373
  521MOL0     C70207   7.503   9.474   6.502  0.0268  0.1858  0.7652
  521MOL0     O70208   7.641   9.463   6.507 -0.2301 -0.1541  0.4146
  521MOL0     C70209   7.724   9.479   6.389 -0.2347  1.1727 -0.1104
  521MOL0     C70210   7.865   9.485   6.433 -0.1471 -0.0990  0.0157
  521MOL0     C70211   7.964   9.445   6.325 -0.7065 -0.1471  0.2865
  521MOL0     C70212   8.072   9.555   6.322  0.2298  0.1173  0.1122
  521MOL0     C70213   8.189   9.513   6.229  0.1068  0.6910 -0.2226
  521MOL0     C70214   8.147   9.524   6.081  0.4310 -0.0548  0.1768
  521MOL0     C70215   8.263   9.497   5.991 -0.9919 -0.7584 -0.1675
  521MOL0     C70216   8.227   9.437   5.860 -0.3268  0.3236 -0.3477
  521MOL0     N70217   8.354   9.430   5.788  0.0928  0.5695  1.2604
  521MOL0     C70218   8.414   9.532   5.714  0.4221  0.4678 -0.4492
  521MOL0     C70219   8.529   9.477   5.667 -0.8188 -0.1789 -0.4125
  521MOL0     C70220   8.636   9.551   5.590 -0.5937  0.2718  0.1647
  521MOL0     C70221   8.772   9.522   5.632 -1.0109  0.7616  0.6851
  521MOL0     C70222   8.869   9.611   5.551 -0.1642  0.0330  0.0481
  521MOL0     C70223   9.001   9.544   5.567 -0.9205  0.2281 -0.4749
  521MOL0     O70224   9.089   9.606   5.477  0.3778 -0.3637 -0.3241
  521MOL0     C70225   9.220   9.603   5.477 -0.4576  0.1513  0.0034
  521MOL0     C70226   9.277   9.698   5.397 -0.7606 -0.1481 -0.0577
  521MOL0     C70227   9.413   9.728   5.389  0.6652 -0.9009 -0.0474
  521MOL0     C70228   9.501   9.654   5.467  0.7444  0.1233  0.5912
  521MOL0     C70229   9.643   9.692   5.455  0.0979  0.5031 -0.2208
  521MOL0     O70230   9.680   9.781   5.365  0.1505 -0.2437  0.1018
  521MOL0     C70231   9.810   9.802   5.339  0.4348  0.0173 -0.6567
  521MOL0     C70232   9.862   9.777   5.205  0.5598 -1.0031 -0.4327
  521MOL0     C70233   9.983   9.818   5.168 -0.3407  0.3548  0.5883
  521MOL0     C70234  10.069   9.882   5.259  0.5160 -1.1567  0.0732
  521MOL0     O70235  10.194   9.925   5.222  0.2391  0.4733 -0.0674
  521MOL0     C70236  10.229   9.915   5.083 -0.2372 -0.3957  0.0994
  521MOL0     C70237  10.288   9.777   5.068  0.3780 -0.5550 -0.6951
  521MOL0     C70238  10.344   9.744   4.928 -0.1164  1.2570  0.0217
  521MOL0     C70239  10.408   9.602   4.940 -0.3554 -0.2275  0.6078
  521MOL0     C70240  10.451   9.558   4.794 -0.4525  1.0477  0.5492
  521MOL0     C70241  10.556   9.445   4.812 -0.8164 -0.2204  0.1084
  521MOL0     C70242  10.594   9.389   4.672  0.1066  0.0425 -0.3497
  521MOL0     C70243  10.743   9.334   4.687  0.1088 -0.3051 -0.0434
  521MOL0    Cl70244  10.748   9.189   4.792  0.3081  0.1514  0.3306
  521MOL0     C70245  10.023   9.921   5.386 -0.1305  0.3580 -0.8948
  521MOL0     C70246   9.896   9.878   5.418  0.4924 -0.3473 -0.2338
  521MOL0     O70247   9.718   9.635   5.532 -0.5539  0.0664 -1.0349
  521MOL0     C70248   9.445   9.551   5.547 -0.4283 -1.0404 -0.2227
  521MOL0     C70249   9.309   9.533   5.561  0.2751  0.0891  0.9104
  521MOL0     N70250   8.551   9.353   5.741 -0.1089 -0.4878  1.2314
  521MOL0     N70251   8.440   9.333   5.813 -0.7478  0.4987 -0.0942
  521MOL0     C70252   7.427   9.508   6.382 -0.0261  0.5192  0.1492
  521MOL0     C70253   7.288   9.514   6.377 -0.1553 -1.0203 -0.7406
  521MOL0     C70254   6.882   9.642   6.548  0.4487 -0.1584 -0.7788
  521MOL0     C70255   6.801   9.555   6.484  1.0643  0.3627  0.0705
  521MOL0     C70256   6.664   9.565   6.485  0.1733  0.4194  0.1690
  521MOL0     C70257   6.605   9.670   6.558 -0.5684  0.4078  0.4289
  521MOL0     O70258   6.474   9.705   6.545  0.6831  0.0103  1.1633
  521MOL0     C70259   6.379   9.623   6.478 -0.3524  0.0300  1.0786
  521MOL0     C70260   6.244   9.687   6.475 -0.5938  0.0474  0.0721
  521MOL0     C70261   6.154   9.581   6.425 -0.1287  0.0601 -1.0010
  521MOL0     C70262   6.013   9.644   6.408 -0.0920  0.1237  0.6798
  521MOL0     C70263   5.918   9.543   6.369  0.1020  0.2875  0.1562
  521MOL0     C70264   5.831   9.460   6.342  0.0765 -0.5132  0.3549
  521MOL0     C70265   6.683   9.745   6.636  0.0074  0.8723 -0.6370
  521MOL0     C70266   6.823   9.738   6.632 -0.8606  0.4854 -0.1927
  521MOL0     C70267   6.895   9.840   6.710  0.2449 -0.3150  0.0633
  521MOL0     H70268   7.222   9.443   6.708 -1.6847  0.3775 -1.7312
  521MOL0     H70269   7.486   9.443   6.706  1.0581 -0.0905 -1.4389
  521MOL0     H70270   7.704   9.391   6.327 -0.2154  0.8002  0.4053
  521MOL0     H70271   7.699   9.571   6.335 -1.7852  0.6943 -0.2541
  521MOL0     H70272   7.874   9.418   6.520  2.3777 -1.1196 -0.9359
  521MOL0     H70273   7.877   9.587   6.471 -2.4355  1.7786 -3.6777
  521MOL0     H70274   7.911   9.451   6.229  2.4456  0.1222 -1.5817
  521MOL0     H70275   8.003   9.343   6.329 -0.8107 -0.1535  1.6984
  521MOL0     H70276   8.033   9.650   6.286 -2.4773 -0.1893  1.9051
  521MOL0     H70277   8.110   9.569   6.424 -0.7570  1.1569  0.3484
  521MOL0     H70278   8.276   9.578   6.237  1.4194 -0.5644 -2.9480
  521MOL0     H70279   8.212   9.407   6.248 -1.9824 -0.3403 -2.7346
  521MOL0     H70280   8.057   9.467   6.054 -0.0409  0.5721  0.3943
  521MOL0     H70281   8.121   9.629   6.068  0.9227  0.3291  2.0872
  521MOL0     H70282   8.344   9.446   6.043  1.8855 -0.3271 -3.7661
  521MOL0     H70283   8.296   9.595   5.957 -2.6911 -0.5692 -1.4141
  521MOL0     H70284   8.175   9.343   5.880  0.9067 -0.4233 -0.5370
  521MOL0     H70285   8.162   9.509   5.810 -0.8761  0.8711  1.0842
  521MOL0     H70286   8.381   9.630   5.679 -0.1512  0.1825 -0.7306
  521MOL0     H70287   8.614   9.524   5.486  4.5420  1.7466 -1.5694
  521MOL0     H70288   8.617   9.656   5.612 -0.9508 -0.2557  2.6023
  521MOL0     H70289   8.782   9.530   5.741  4.1146 -4.5111  1.1021
  521MOL0     H70290   8.793   9.416   5.617 -1.3729  0.6525  0.9335
  521MOL0     H70291   8.869   9.709   5.601  1.0645 -0.4326  1.0072
  521MOL0     H70292   8.842   9.612   5.445  0.1777  2.3104 -0.0745
  521MOL0     H70293   9.002   9.438   5.541  0.8150 -0.1885  1.0668
  521MOL0     H70294   9.027   9.556   5.673 -0.6289 -0.6833 -0.4299
  521MOL0     H70295   9.221   9.760   5.327  0.1110  1.9129  0.9793
  521MOL0     H70296   9.449   9.800   5.316  0.3098  0.4646  1.0777
  521MOL0     H70297   9.799   9.737   5.127 -0.7863  3.2924 -1.8257
  521MOL0     H70298  10.016   9.775   5.074 -1.9334 -2.5715  1.2562
  521MOL0     H70299  10.150   9.934   5.010  1.3659 -3.5954 -2.7671
  521MOL0     H70300  10.307   9.987   5.056  0.6698 -1.4606 -0.1999
  521MOL0     H70301  10.361   9.767   5.148  0.5254  1.3647 -0.5381
  521MOL0     H70302  10.217   9.696   5.086 -0.8221  0.6887  0.4153
  521MOL0     H70303  10.259   9.743   4.859  0.9093  1.7619 -1.3069
  521MOL0     H70304  10.414   9.815   4.882  0.3599 -1.2214 -3.5003
  521MOL0     H70305  10.334   9.529   4.974 -0.6310 -0.8824 -1.2778
  521MOL0     H70306  10.495   9.613   5.005  0.5570 -0.4048 -0.5391
  521MOL0     H70307  10.492   9.644   4.739 -3.1667  1.2281 -1.3973
  521MOL0     H70308  10.370   9.508   4.740  1.7207 -2.4163  0.1839
  521MOL0     H70309  10.642   9.489   4.863 -2.3206  1.8093  1.0940
  521MOL0     H70310  10.514   9.364   4.871 -3.2481 -1.1714 -2.6974
  521MOL0     H70311  10.586   9.466   4.593  0.7220 -1.0675 -1.5276
  521MOL0     H70312  10.531   9.306   4.640 -0.1647  0.7529 -1.7569
  521MOL0     H70313  10.788   9.305   4.592  0.5323  0.0121  0.0580
  521MOL0     H70314  10.801   9.412   4.736 -0.3517 -1.4612  2.5792
  521MOL0     H70315  10.097   9.961   5.455 -0.3047  1.4238 -1.3109
  521MOL0     H70316   9.856   9.910   5.514 -1.9282  0.1822 -1.3360
  521MOL0     H70317   9.515   9.498   5.612  1.2114  0.9741 -0.2500
  521MOL0     H70318   9.259   9.465   5.629 -0.6607  0.6721  0.8242
  521MOL0     H70319   7.464   9.529   6.282 -0.7184  0.7532 -0.0632
  521MOL0     H70320   7.250   9.548   6.282  1.8366  0.4298 -1.0929
  521MOL0     H70321   6.840   9.470   6.429  1.1528  0.3596  0.1375
  521MOL0     H70322   6.618   9.500   6.412  0.2545  1.4807 -0.8686
  521MOL0     H70323   6.373   9.524   6.524 -0.2296 -1.4893 -1.9897
  521MOL0     H70324   6.422   9.606   6.379  1.8417 -1.3312  2.1810
  521MOL0     H70325   6.239   9.775   6.411 -2.5034  1.1859  1.6653
  521MOL0     H70326   6.224   9.714   6.579  1.8709 -1.7450  1.1133
  521MOL0     H70327   6.154   9.492   6.489  1.7297 -0.7433 -2.0244
  521MOL0     H70328   6.185   9.546   6.326  0.6677  0.7814 -1.0246
  521MOL0     H70329   5.996   9.687   6.507  1.3399  0.8946  0.6123
  521MOL0     H70330   6.015   9.723   6.331  3.0573 -0.8362 -0.3666
  521MOL0     H70331   5.758   9.391   6.303 -1.6360  1.5797 -0.3643
  521MOL0     H70332   6.641   9.829   6.690 -3.9123 -0.6228 -0.9977
  521MOL0     H70333   6.812   9.893   6.759  0.2515 -0.5132  0.2864
  521MOL0     H70334   6.967   9.808   6.786  2.2684 -0.4213 -1.7951
  521MOL0     H70335   6.958   9.912   6.655  1.9990 -0.1681  2.1500
  522MOL0     O70336   7.923   2.272   9.163 -0.1821  0.7578 -1.0751
  522MOL0     C70337   7.850   2.278   9.060  0.1411 -0.8288 -0.5033
  522MOL0     O70338   7.892   2.339   8.938  1.4031 -0.5610 -0.2621
  522MOL0     C70339   8.026   2.355   8.901 -0.2529 -0.1827 -0.3845
  522MOL0     C70340   8.134   2.270   8.957  0.5418  0.1270  0.2668
  522MOL0     C70341   8.262   2.282   8.912 -0.2913 -0.0181 -0.2341
  522MOL0     C70342   8.297   2.367   8.803 -0.3963  0.5740 -0.5133
  522MOL0     O70343   8.419   2.371   8.742 -0.3448  0.0656 -0.7106
  522MOL0     C70344   8.532   2.319   8.812  0.4245  0.2577  0.2393
  522MOL0     C70345   8.666   2.376   8.764  0.7062 -0.2691 -0.6553
  522MOL0     C70346   8.787   2.295   8.778  0.5448  0.4418  0.2948
  522MOL0     C70347   8.872   2.318   8.915  0.0433  0.0634  0.7225
  522MOL0     C70348   8.970   2.441   8.897 -0.2119 -0.3824  0.2058
  522MOL0     C70349   9.046   2.470   9.023 -0.2152 -0.3044 -0.4083
  522MOL0     C70350   9.116   2.606   9.008 -0.5221  0.4100 -0.2377
  522MOL0     C70351   9.191   2.655   9.137  0.2933 -0.0916  0.3661
  522MOL0     N70352   9.320   2.588   9.151  0.5810 -0.5075  0.0478
  522MOL0     C70353   9.439   2.653   9.137  0.7884 -0.3942  0.1560
  522MOL0     C70354   9.533   2.562   9.169  0.3079 -0.3929  0.2188
  522MOL0     C70355   9.684   2.582   9.162 -0.1840  0.4827 -0.3156
  522MOL0     C70356   9.735   2.550   9.300 -0.8182 -0.1011  0.4578
  522MOL0     C70357   9.869   2.636   9.302  0.4049  0.1833 -0.1496
  522MOL0     C70358   9.941   2.600   9.426 -0.5178 -0.0627  0.0118
  522MOL0     O70359  10.069   2.665   9.426 -0.0603  0.9220 -0.3964
  522MOL0     C70360  10.175   2.601   9.361 -0.5324  0.4823  0.3491
  522MOL0     C70361  10.276   2.687   9.314 -0.5264  0.6507  0.7779
  522MOL0     C70362  10.393   2.636   9.255 -0.2785  0.8925 -0.6104
  522MOL0     C70363  10.399   2.499   9.217  0.1811 -0.4213 -0.1283
  522MOL0     C70364  10.524   2.455   9.154  0.3472 -0.2676 -0.9417
  522MOL0     O70365  10.625   2.547   9.161 -0.2252 -0.8259 -0.2990
  522MOL0     C70366  10.747   2.529   9.104 -0.4689  0.5730 -1.2560
  522MOL0     C70367  10.800   2.633   9.030  0.6885  0.6362  0.6710
  522MOL0     C70368  10.928   2.622   8.967 -0.0996  0.3957  0.8253
  522MOL0     C70369  11.007   2.517   8.997  0.1682 -0.0422  0.5785
  522MOL0     O70370  11.132   2.506   8.946 -0.0131 -0.0023  0.0786
  522MOL0     C70371  11.234   2.551   9.037  0.6646 -0.6294  0.1851
  522MOL0     C70372  11.357   2.464   9.010  0.0386  0.1051 -0.4268
  522MOL0     C70373  11.476   2.488   9.095  0.0825 -0.6306  0.0842
  522MOL0     C70374  11.584   2.376   9.079 -0.5283 -0.5974  0.4238
  522MOL0     C70375  11.729   2.412   9.125 -0.4477 -0.0977 -0.0172
  522MOL0     C70376  11.813   2.487   9.019  1.1808  0.0250 -0.5213
  522MOL0     C70377  11.955   2.524   9.064 -0.1722 -0.4544 -0.9239
  522MOL0     C70378  12.056   2.571   8.962  0.5955  0.0306 -0.2059
  522MOL0    Cl70379  11.983   2.722   8.898  0.1501  0.0002  0.3049
  522MOL0     C70380  10.964   2.419   9.084 -0.3643  0.2938  0.3238
  522MOL0     C70381  10.834   2.412   9.131 -0.6187  0.0988  0.0777
  522MOL0     O70382  10.535   2.346   9.105  0.5117  0.0347  0.3958
  522MOL0     C70383  10.293   2.410   9.258  0.3359 -0.9694 -0.1773
  522MOL0     C70384  10.182   2.463   9.335 -0.9095  0.0994  0.5876
  522MOL0     N70385   9.474   2.437   9.189 -0.8156  0.1463  0.1209
  522MOL0     N70386   9.345   2.452   9.167 -0.0877  0.0525  0.2203
  522MOL0     C70387   8.199   2.448   8.748 -0.9963  0.1892  0.7426
  522MOL0     C70388   8.066   2.443   8.802 -0.4275 -0.2881  0.3607
  522MOL0     C70389   7.708   2.236   9.059  0.5418  0.2816 -1.3861
  522MOL0     C70390   7.633   2.280   8.954  0.7687 -0.7152  0.8154
  522MOL0     C70391   7.495   2.254   8.944  0.1847 -0.4402 -0.3753
  522MOL0     C70392   7.429   2.187   9.048  0.5737  0.0916 -0.0204
  522MOL0     O70393   7.287   2.159   9.056 -1.1746  0.3218  0.0137
  522MOL0     C70394   7.209   2.220   8.952 -0.2407  0.7311  0.7256
  522MOL0     C70395   7.063   2.204   8.988  0.7365 -0.2382  0.0869
  522MOL0     C70396   6.976   2.232   8.862  0.7145  0.3984  0.3697
  522MOL0     C70397   6.821   2.233   8.889  0.1542 -0.0366  0.3342
  522MOL0     C70398   6.725   2.273   8.784 -0.5802 -0.6604  0.1831
  522MOL0     C70399   6.647   2.304   8.698 -0.1572  0.6097 -0.2354
  522MOL0     C70400   7.498   2.154   9.169  0.0460  0.0518 -0.6161
  522MOL0     C70401   7.642   2.170   9.169  0.4615 -0.7689 -0.1176
  522MOL0     C70402   7.711   2.128   9.302  0.1029  0.4857  0.0085
  522MOL0     H70403   8.115   2.199   9.037 -0.7731  0.7800  0.5723
  522MOL0     H70404   8.335   2.219   8.962  1.4583  0.2605 -2.2856
  522MOL0     H70405   8.527   2.342   8.919  1.6155  1.9811 -0.0231
  522MOL0     H70406   8.537   2.211   8.795  0.1926 -0.1888  2.5971
  522MOL0     H70407   8.673   2.477   8.806 -1.3271 -0.5481  0.5050
  522MOL0     H70408   8.656   2.394   8.657 -1.5056 -1.2387 -0.6693
  522MOL0     H70409   8.855   2.323   8.697 -1.6556  1.8417 -1.1643
  522MOL0     H70410   8.753   2.191   8.770  0.1933  0.1506  3.8550
  522MOL0     H70411   8.805   2.313   9.002 -1.0277 -0.5745 -0.1111
  522MOL0     H70412   8.930   2.225   8.920 -2.2878 -1.4687  1.0675
  522MOL0     H70413   9.030   2.425   8.807 -1.7185 -1.6664 -0.6450
  522MOL0     H70414   8.913   2.534   8.885  1.2988  0.8649  2.2129
  522MOL0     H70415   8.987   2.453   9.113  2.8759  1.9525  2.2798
  522MOL0     H70416   9.130   2.399   9.023  1.6493  1.7744 -1.0435
  522MOL0     H70417   9.041   2.683   8.987 -2.4803 -1.2573  0.3329
  522MOL0     H70418   9.187   2.605   8.925  0.6976  1.3434  0.7515
  522MOL0     H70419   9.201   2.762   9.119  0.5755 -0.4428 -1.8120
  522MOL0     H70420   9.140   2.638   9.232  5.0652  0.9753  3.4522
  522MOL0     H70421   9.455   2.756   9.105  1.1200 -0.5069 -0.0488
  522MOL0     H70422   9.735   2.520   9.087 -0.0408  0.4907 -0.2269
  522MOL0     H70423   9.708   2.687   9.148 -0.4442  0.3554 -1.8257
  522MOL0     H70424   9.673   2.580   9.385  1.7557  2.1813  1.6947
  522MOL0     H70425   9.747   2.442   9.306 -1.3009 -0.1377  0.7560
  522MOL0     H70426   9.838   2.740   9.319  0.6817  0.2602 -0.1083
  522MOL0     H70427   9.924   2.624   9.208 -2.1771 -1.7595 -1.5443
  522MOL0     H70428   9.947   2.493   9.447 -0.1075 -0.0257  0.0834
  522MOL0     H70429   9.881   2.638   9.509 -1.8673  1.8111 -1.7182
  522MOL0     H70430  10.254   2.790   9.339 -0.8641 -0.0544  3.7633
  522MOL0     H70431  10.472   2.706   9.233 -1.0273  1.0171 -3.3704
  522MOL0     H70432  10.729   2.713   9.010 -0.0999 -0.1745  0.1214
  522MOL0     H70433  10.965   2.703   8.904  0.0535 -1.0830 -1.1135
  522MOL0     H70434  11.247   2.656   9.011 -1.8747 -0.2771  0.0270
  522MOL0     H70435  11.206   2.550   9.143  2.2094  0.0291  0.6204
  522MOL0     H70436  11.331   2.359   9.032  0.5681  0.1556  0.4640
  522MOL0     H70437  11.385   2.470   8.905  1.3713 -1.4691 -0.2059
  522MOL0     H70438  11.522   2.583   9.066  2.1457 -1.4901  0.3354
  522MOL0     H70439  11.444   2.486   9.200  2.0569  1.5553  0.8029
  522MOL0     H70440  11.597   2.351   8.974  1.5762  3.3300 -0.4566
  522MOL0     H70441  11.560   2.286   9.137 -3.6347 -1.0992 -1.4656
  522MOL0     H70442  11.773   2.314   9.145  0.5022  0.6482  1.7695
  522MOL0     H70443  11.726   2.473   9.216 -3.0415 -1.6523  1.0535
  522MOL0     H70444  11.806   2.433   8.925 -0.4075 -2.1166  0.7339
  522MOL0     H70445  11.750   2.577   9.014  1.6827  0.5439  1.4878
  522MOL0     H70446  12.005   2.432   9.096 -1.0618  0.1771  2.7361
  522MOL0     H70447  11.945   2.599   9.143 -1.0536 -2.3793  0.9026
  522MOL0     H70448  12.148   2.604   9.012  1.7561  0.4718 -2.5014
  522MOL0     H70449  12.073   2.497   8.884  1.2270 -0.0131 -0.0323
  522MOL0     H70450  11.038   2.340   9.090 -0.3495 -0.1258 -3.0337
  522MOL0     H70451  10.799   2.340   9.205  1.7432  0.7128  1.9042
  522MOL0     H70452  10.295   2.303   9.242  2.6416 -0.9363 -0.4707
  522MOL0     H70453  10.106   2.390   9.365 -0.5886 -1.1796 -1.4833
  522MOL0     H70454   8.222   2.515   8.666 -1.0219  1.1738  1.5187
  522MOL0     H70455   7.985   2.497   8.755 -2.2912 -2.2558  1.1824
  522MOL0     H70456   7.674   2.327   8.865  0.6760  4.4970  3.1796
  522MOL0     H70457   7.441   2.301   8.862  0.5243  0.3103 -0.1823
  522MOL0     H70458   7.223   2.157   8.864  2.0929  1.4130  0.5431
  522MOL0     H70459   7.240   2.321   8.924  5.3143 -1.0543 -0.7905
  522MOL0     H70460   7.043   2.264   9.077 -2.9463 -1.7668  0.4794
  522MOL0     H70461   7.038   2.101   9.014  1.1557 -0.1338  0.9362
  522MOL0     H70462   6.986   2.165   8.777 -0.3530 -0.5052  0.9369
  522MOL0     H70463   7.000   2.336   8.836 -0.1768  1.1923  2.4954
  522MOL0     H70464   6.795   2.131   8.920  0.1083 -0.1830 -0.1800
  522MOL0     H70465   6.803   2.307   8.969 -2.0470  0.6240 -0.6839
  522MOL0     H70466   6.576   2.308   8.618  0.0807 -0.7728 -0.5418
  522MOL0     H70467   7.444   2.103   9.248 -2.1513 -3.5881 -4.0540
  522MOL0     H70468   7.786   2.051   9.281 -1.0545 -0.7860  0.3702
  522MOL0     H70469   7.754   2.213   9.354  2.0823  0.6764 -1.8362
  522MOL0     H70470   7.633   2.089   9.369 -0.2883 -2.4076 -1.9477
  523MOL0     O70471   1.184   3.531   3.241 -0.8612  1.0655  0.1288
  523MOL0     C70472   1.103   3.624   3.242  0.3681  0.0392  0.2582
  523MOL0     O70473   1.136   3.745   3.286  0.3795 -0.5691 -0.2803
  523MOL0     C70474   1.266   3.765   3.335 -0.1298  1.0760 -0.8817
  523MOL0     C70475   1.346   3.867   3.278  0.0038  0.0122 -0.5639
  523MOL0     C70476   1.478   3.892   3.339  0.4085  1.4507  0.4810
  523MOL0     C70477   1.529   3.810   3.450  0.6829 -0.3325  0.2742
  523MOL0     O70478   1.639   3.852   3.512 -0.0831  0.1153  0.3306
  523MOL0     C70479   1.727   3.738   3.540  0.2685  0.2495 -0.0213
  523MOL0     C70480   1.864   3.761   3.483  0.4593 -0.0024  0.1413
  523MOL0     C70481   1.961   3.863   3.561  0.9686 -0.6718  0.5858
  523MOL0     C70482   2.094   3.876   3.492  0.1025  0.3661  0.4815
  523MOL0     C70483   2.212   3.945   3.571  0.6182 -0.3257  0.2881
  523MOL0     C70484   2.168   4.071   3.645  0.0807 -0.1264 -0.0374
  523MOL0     C70485   2.286   4.138   3.708  0.0830  0.1826  0.1541
  523MOL0     C70486   2.362   4.045   3.805  0.1655 -0.0792  0.6583
  523MOL0     N70487   2.494   4.105   3.832 -0.3775 -1.0738  0.8257
  523MOL0     C70488   2.513   4.229   3.893  0.2375  0.1162 -0.0438
  523MOL0     C70489   2.648   4.240   3.884 -0.2654 -0.1824 -0.3640
  523MOL0     C70490   2.719   4.357   3.942 -0.2272  0.1267  0.8865
  523MOL0     C70491   2.871   4.371   3.922 -0.1403 -0.0337  0.1081
  523MOL0     C70492   2.901   4.449   3.791  0.3620 -0.9254 -0.4715
  523MOL0     C70493   3.053   4.503   3.788  0.1983  0.0165  0.0656
  523MOL0     O70494   3.059   4.615   3.874 -0.6727  0.7251 -0.1580
  523MOL0     C70495   3.151   4.703   3.822 -0.0424  0.0183 -0.3895
  523MOL0     C70496   3.275   4.717   3.882  0.8999  0.0529 -0.6581
  523MOL0     C70497   3.374   4.791   3.820 -0.0918 -0.5316  0.1392
  523MOL0     C70498   3.351   4.872   3.706  1.0674 -0.2931  0.1400
  523MOL0     C70499   3.465   4.941   3.632  0.1627  0.0906  0.3488
  523MOL0     O70500   3.522   5.056   3.684 -0.5851  0.2999 -0.5421
  523MOL0     C70501   3.613   5.121   3.605 -0.1668 -0.0987 -0.4343
  523MOL0     C70502   3.566   5.231   3.524  0.0840 -0.1153  0.4405
  523MOL0     C70503   3.657   5.295   3.432  0.5840 -0.0679  0.1701
  523MOL0     C70504   3.791   5.253   3.426 -0.0519  0.3044  0.5819
  523MOL0     O70505   3.879   5.324   3.339 -0.0307  0.5065 -0.1383
  523MOL0     C70506   4.010   5.283   3.326 -0.2961 -0.9156  0.0015
  523MOL0     C70507   4.071   5.362   3.205 -0.0762 -0.1068 -0.0206
  523MOL0     C70508   4.220   5.340   3.175  0.4258 -0.2215 -0.0994
  523MOL0     C70509   4.316   5.315   3.305  0.8200 -0.3299  0.3971
  523MOL0     C70510   4.465   5.300   3.264  0.0724 -0.4070  0.3659
  523MOL0     C70511   4.550   5.281   3.393 -0.2710  0.5424 -0.1073
  523MOL0     C70512   4.699   5.291   3.378  0.0540  0.0863 -0.0228
  523MOL0     C70513   4.764   5.237   3.500 -0.1826 -0.1166  1.0099
  523MOL0    Cl70514   4.718   5.331   3.649 -0.3390 -0.0445  0.0988
  523MOL0     C70515   3.832   5.142   3.515  0.4582  0.0609 -0.3284
  523MOL0     C70516   3.743   5.071   3.597 -0.9813  0.2281  0.3340
  523MOL0     O70517   3.490   4.894   3.523 -0.1309 -0.1880  0.1928
  523MOL0     C70518   3.217   4.870   3.651 -1.0316  0.3258  0.5665
  523MOL0     C70519   3.120   4.783   3.709  0.1769 -0.0965  0.6138
  523MOL0     N70520   2.705   4.145   3.808  0.0680  0.0940 -0.7715
  523MOL0     N70521   2.615   4.062   3.777  0.2642  0.2895 -0.2171
  523MOL0     C70522   1.440   3.710   3.488 -0.6106 -0.0718  0.0480
  523MOL0     C70523   1.316   3.691   3.442  0.0884 -0.0710 -0.2348
  523MOL0     C70524   0.959   3.592   3.191 -0.2378 -0.3379 -0.5175
  523MOL0     C70525   0.869   3.701   3.192 -0.4897 -0.3653 -0.4789
  523MOL0     C70526   0.738   3.684   3.144 -0.3264 -0.6902 -0.3978
  523MOL0     C70527   0.701   3.555   3.095 -0.4113  0.6159  0.0573
  523MOL0     O70528   0.582   3.530   3.026 -0.0780 -0.4602 -0.0701
  523MOL0     C70529   0.465   3.627   3.052 -0.1248 -0.0264  1.3874
  523MOL0     C70530   0.399   3.609   3.188  0.1040  0.9263 -0.0048
  523MOL0     C70531   0.395   3.461   3.229  0.5659 -0.5412  0.0264
  523MOL0     C70532   0.281   3.431   3.330 -0.1147 -0.3307 -0.2991
  523MOL0     C70533   0.204   3.322   3.290 -0.1177  0.0605  0.4723
  523MOL0     C70534   0.147   3.224   3.266  0.9850  0.3522 -0.0247
  523MOL0     C70535   0.789   3.450   3.101 -0.0525  0.2390 -0.8495
  523MOL0     C70536   0.923   3.465   3.144  0.4005  0.6206  0.3733
  523MOL0     C70537   1.016   3.354   3.111  0.0808  0.0613 -0.4390
  523MOL0     H70538   1.304   3.917   3.192 -0.6681 -1.3310 -1.0424
  523MOL0     H70539   1.542   3.974   3.308  1.5583  1.0244  1.6632
  523MOL0     H70540   1.734   3.709   3.646  0.4648  1.3246  0.2674
  523MOL0     H70541   1.696   3.650   3.482 -1.5251  0.3235  0.7381
  523MOL0     H70542   1.855   3.790   3.378 -0.5507  0.0015  0.2217
  523MOL0     H70543   1.913   3.663   3.487  3.3185  1.2195 -1.2877
  523MOL0     H70544   1.961   3.833   3.666 -0.2443 -1.6106  0.3475
  523MOL0     H70545   1.911   3.959   3.549  4.8404  1.3338 -1.4403
  523MOL0     H70546   2.127   3.776   3.466  1.9978  1.3362 -1.0910
  523MOL0     H70547   2.072   3.935   3.403 -2.5010  0.7861  1.3201
  523MOL0     H70548   2.248   3.867   3.638  1.3924 -0.1485  0.0823
  523MOL0     H70549   2.287   3.986   3.503  1.5128 -0.2462  1.2962
  523MOL0     H70550   2.121   4.134   3.569 -1.5436 -1.3186 -0.0664
  523MOL0     H70551   2.098   4.056   3.727  1.3753  3.0860  1.8322
  523MOL0     H70552   2.252   4.227   3.763 -1.5142 -1.3225  1.7224
  523MOL0     H70553   2.339   4.174   3.620 -0.8086 -0.1924 -0.5465
  523MOL0     H70554   2.296   4.020   3.889 -0.3606 -0.5420  0.1176
  523MOL0     H70555   2.391   3.947   3.767  0.2190  0.2289 -0.1196
  523MOL0     H70556   2.438   4.294   3.936  0.7202  0.1848  0.7111
  523MOL0     H70557   2.675   4.450   3.903  1.0502  0.0425 -0.8601
  523MOL0     H70558   2.703   4.362   4.050  0.7250  2.2205  0.9888
  523MOL0     H70559   2.907   4.434   4.004 -1.6468  2.6348 -1.1156
  523MOL0     H70560   2.928   4.278   3.923  0.6225  0.4338  0.5773
  523MOL0     H70561   2.840   4.539   3.781  2.4524  0.5227 -0.9712
  523MOL0     H70562   2.890   4.375   3.711 -1.8388 -1.7830  0.5578
  523MOL0     H70563   3.079   4.512   3.683 -2.8285  0.1742 -0.7558
  523MOL0     H70564   3.124   4.426   3.818  1.4490  0.0714 -2.5139
  523MOL0     H70565   3.294   4.678   3.981  0.1931  2.6864  0.6021
  523MOL0     H70566   3.474   4.792   3.862  1.3867 -0.4963 -3.0909
  523MOL0     H70567   3.460   5.253   3.521  0.1040  0.0708 -2.4167
  523MOL0     H70568   3.630   5.378   3.367  3.6076  0.7197 -0.2317
  523MOL0     H70569   4.067   5.300   3.418 -1.0795  0.5697  0.2491
  523MOL0     H70570   4.007   5.175   3.311  0.8946 -0.7825 -1.4878
  523MOL0     H70571   4.011   5.321   3.123 -1.1605  0.3025  0.5539
  523MOL0     H70572   4.060   5.469   3.224  2.7735  0.3668 -0.5977
  523MOL0     H70573   4.233   5.265   3.095 -2.1957  1.0291 -1.8493
  523MOL0     H70574   4.249   5.432   3.124 -1.2916  1.2445  1.4717
  523MOL0     H70575   4.294   5.223   3.359  0.7582 -0.1635  0.6555
  523MOL0     H70576   4.315   5.397   3.377  1.3039 -1.8015  2.1420
  523MOL0     H70577   4.499   5.395   3.221 -1.8918  1.7135  3.0746
  523MOL0     H70578   4.467   5.218   3.192 -2.2559 -0.5445  0.3573
  523MOL0     H70579   4.509   5.354   3.463 -2.6672 -1.7094  1.0255
  523MOL0     H70580   4.520   5.182   3.429 -1.2737  1.0222  0.4351
  523MOL0     H70581   4.731   5.395   3.374  0.3821  0.0065  0.4077
  523MOL0     H70582   4.726   5.241   3.284  0.9383 -0.2378  0.3980
  523MOL0     H70583   4.729   5.135   3.510 -0.9779 -0.0851 -1.1094
  523MOL0     H70584   4.873   5.236   3.488 -0.2736 -0.2254  0.1767
  523MOL0     H70585   3.929   5.094   3.513  0.2600 -0.3339 -2.1134
  523MOL0     H70586   3.781   4.987   3.654  2.4445 -0.2815 -2.3745
  523MOL0     H70587   3.196   4.917   3.556  0.0471  1.3882  0.8293
  523MOL0     H70588   3.019   4.773   3.670  0.3985 -0.5560  0.1572
  523MOL0     H70589   1.463   3.647   3.574 -1.4170  1.2847  1.2951
  523MOL0     H70590   1.262   3.608   3.485  4.6546 -2.9236  0.7189
  523MOL0     H70591   0.897   3.799   3.230 -0.0271  0.0826 -1.9034
  523MOL0     H70592   0.665   3.764   3.154 -0.9233 -1.2905  0.2031
  523MOL0     H70593   0.382   3.593   2.989 -1.4278  1.9734  1.9188
  523MOL0     H70594   0.479   3.730   3.019  1.9518 -1.3087 -2.3983
  523MOL0     H70595   0.294   3.638   3.177 -1.1029 -2.2487  1.6323
  523MOL0     H70596   0.462   3.667   3.256  0.1584 -0.4227  1.1555
  523MOL0     H70597   0.497   3.439   3.264  1.5266  2.2246 -0.7543
  523MOL0     H70598   0.386   3.400   3.138 -0.7050  2.4254 -1.9826
  523MOL0     H70599   0.329   3.434   3.428 -1.6436  0.5892  0.4420
  523MOL0     H70600   0.217   3.520   3.333  2.0308  1.2810  1.8284
  523MOL0     H70601   0.099   3.132   3.239  0.8939  0.6186 -0.8000
  523MOL0     H70602   0.755   3.355   3.060 -3.2775  0.2426  1.4309
  523MOL0     H70603   0.980   3.266   3.058  2.1181 -1.5820  0.7738
  523MOL0     H70604   1.091   3.397   3.044  0.0047  1.1442  0.1504
  523MOL0     H70605   1.075   3.323   3.198 -1.4747 -2.6302 -0.2672
  524MOL0     O70606   9.188   1.111   3.787  0.2188 -0.2232  0.9057
  524MOL0     C70607   9.130   1.200   3.722 -0.0963 -0.7275  0.3907
  524MOL0     O70608   9.195   1.318   3.672 -0.5589  0.1340  0.4226
  524MOL0     C70609   9.321   1.368   3.718  0.2615 -0.2163 -1.2433
  524MOL0     C70610   9.348   1.505   3.702  0.1781  0.4796  0.1295
  524MOL0     C70611   9.463   1.565   3.762  1.2726  0.2915 -0.2086
  524MOL0     C70612   9.561   1.484   3.817 -0.4757  1.1449 -0.1579
  524MOL0     O70613   9.676   1.535   3.869  0.2082  0.3279 -0.6967
  524MOL0     C70614   9.717   1.667   3.823  0.2239  0.8464 -0.4242
  524MOL0     C70615   9.856   1.691   3.874  0.5604  0.6353  0.1402
  524MOL0     C70616   9.915   1.821   3.832  0.5722  0.1925  0.4793
  524MOL0     C70617   9.932   1.844   3.679 -0.3154  0.1584 -0.2402
  524MOL0     C70618   9.996   1.983   3.650  0.5306 -0.4114 -0.8703
  524MOL0     C70619  10.144   1.977   3.687  0.8230 -0.5869 -0.1418
  524MOL0     C70620  10.193   2.124   3.704 -0.5601 -0.6992 -0.7131
  524MOL0     C70621  10.148   2.170   3.849  0.1875  0.6668 -0.0266
  524MOL0     N70622  10.229   2.289   3.893  0.1126  0.1456  0.7143
  524MOL0     C70623  10.304   2.292   4.007  0.3544 -0.1473  0.7940
  524MOL0     C70624  10.357   2.414   4.013 -0.0190  0.1218 -0.1729
  524MOL0     C70625  10.438   2.474   4.134  0.5281  1.7676  0.6400
  524MOL0     C70626  10.593   2.457   4.110 -0.3290 -0.4811  0.2434
  524MOL0     C70627  10.649   2.563   4.013  0.7898  0.1004 -0.2798
  524MOL0     C70628  10.806   2.545   3.988 -0.3562 -0.1361 -0.0085
  524MOL0     O70629  10.898   2.555   4.095 -0.4576  0.4731  0.5148
  524MOL0     C70630  11.032   2.541   4.063 -0.2804 -0.1553 -1.1519
  524MOL0     C70631  11.114   2.587   4.165 -0.7763 -1.2013 -0.0799
  524MOL0     C70632  11.253   2.589   4.146  0.1525 -0.5923 -0.0428
  524MOL0     C70633  11.315   2.547   4.031 -0.6962  0.1074  0.4563
  524MOL0     C70634  11.462   2.555   4.017 -1.0128  0.0345 -0.7765
  524MOL0     O70635  11.511   2.535   3.888  0.2709  0.4930 -0.0435
  524MOL0     C70636  11.644   2.540   3.871  0.6325  0.8386  0.0213
  524MOL0     C70637  11.721   2.433   3.817 -0.3017  0.4003  0.9091
  524MOL0     C70638  11.856   2.447   3.793 -0.6445  0.7082 -0.5676
  524MOL0     C70639  11.926   2.559   3.822 -0.9101  0.1861 -0.0973
  524MOL0     O70640  12.056   2.585   3.797 -0.1689  0.5025 -1.3433
  524MOL0     C70641  12.104   2.577   3.665 -0.1436  0.4523 -0.6976
  524MOL0     C70642  12.219   2.677   3.643 -0.3177 -1.1337  0.3591
  524MOL0     C70643  12.349   2.617   3.692 -0.4015 -1.0116  0.7035
  524MOL0     C70644  12.438   2.728   3.745  0.4023  0.4848  0.6278
  524MOL0     C70645  12.561   2.684   3.822  0.1389  0.4578  0.0977
  524MOL0     C70646  12.640   2.802   3.865  0.4343 -0.3693  0.0972
  524MOL0     C70647  12.744   2.764   3.964  0.2933 -0.6912  0.6778
  524MOL0     C70648  12.832   2.884   4.009  0.0588  0.2232  0.6561
  524MOL0    Cl70649  12.920   2.940   3.868 -0.5201 -0.2820 -0.0812
  524MOL0     C70650  11.855   2.663   3.889  0.3730 -0.2668 -0.1342
  524MOL0     C70651  11.716   2.653   3.907 -0.5532 -0.4933 -0.1973
  524MOL0     O70652  11.530   2.579   4.113 -0.3481 -0.6534 -0.4339
  524MOL0     C70653  11.224   2.509   3.923  0.9251  0.2296  0.3327
  524MOL0     C70654  11.088   2.507   3.939  0.6763 -0.5492 -0.0366
  524MOL0     N70655  10.315   2.482   3.898 -0.3109 -0.1986  0.4622
  524MOL0     N70656  10.245   2.408   3.819 -0.3030  0.3670 -0.0754
  524MOL0     C70657   9.542   1.350   3.824 -0.3239 -0.5190  0.1211
  524MOL0     C70658   9.422   1.286   3.772 -0.2590  0.0118  0.5133
  524MOL0     C70659   8.981   1.190   3.704  0.3294  0.3691  0.8449
  524MOL0     C70660   8.918   1.284   3.624  0.6826 -0.5096 -0.2151
  524MOL0     C70661   8.779   1.290   3.591  1.0109  0.8348  0.6043
  524MOL0     C70662   8.696   1.187   3.631 -0.3472  0.9930 -0.1467
  524MOL0     O70663   8.566   1.160   3.597  0.0211  0.0130  0.0380
  524MOL0     C70664   8.494   1.252   3.506 -0.8850 -0.4403  0.8835
  524MOL0     C70665   8.347   1.220   3.494 -0.1119  0.1407  0.8375
  524MOL0     C70666   8.266   1.223   3.616  0.0509  0.2056  0.3482
  524MOL0     C70667   8.258   1.357   3.682 -0.1381  0.0439  0.0649
  524MOL0     C70668   8.160   1.357   3.798  0.5308 -0.0737  0.3531
  524MOL0     C70669   8.086   1.372   3.886 -0.2679  0.3861  0.2435
  524MOL0     C70670   8.749   1.095   3.716 -0.6292  0.6085  0.8649
  524MOL0     C70671   8.887   1.085   3.749 -0.4185 -0.3847 -0.1171
  524MOL0     C70672   8.925   0.966   3.842 -0.2615  0.2741 -0.3728
  524MOL0     H70673   9.289   1.577   3.646  1.4882  0.1373 -1.7574
  524MOL0     H70674   9.470   1.673   3.774 -0.2910  0.5913 -1.6189
  524MOL0     H70675   9.694   1.692   3.719  1.0481 -0.3948 -0.9274
  524MOL0     H70676   9.658   1.738   3.882  2.1104  2.0434  0.1126
  524MOL0     H70677   9.916   1.609   3.832  1.3070  0.7089  1.0298
  524MOL0     H70678   9.853   1.685   3.983 -2.3235 -5.3736  0.1637
  524MOL0     H70679  10.003   1.839   3.895  0.0938 -1.6269  1.7313
  524MOL0     H70680   9.843   1.895   3.869 -2.5954 -1.9531 -0.9324
  524MOL0     H70681   9.996   1.765   3.640 -1.3285 -1.7386  1.7595
  524MOL0     H70682   9.837   1.838   3.624 -0.0209  0.5365 -0.8004
  524MOL0     H70683   9.984   2.018   3.547 -0.4929  1.4550 -0.1621
  524MOL0     H70684   9.947   2.054   3.718 -1.3591 -1.9439 -0.5242
  524MOL0     H70685  10.167   1.916   3.776 -2.3125 -1.6617  0.0593
  524MOL0     H70686  10.186   1.928   3.599  0.3770 -1.3195  0.0423
  524MOL0     H70687  10.153   2.194   3.630 -3.6532 -1.4473  0.1068
  524MOL0     H70688  10.302   2.129   3.694 -0.7127  0.2574 -2.2607
  524MOL0     H70689  10.043   2.197   3.837 -0.2943 -1.1490 -0.2255
  524MOL0     H70690  10.147   2.083   3.916 -1.0399  0.2263 -0.5837
  524MOL0     H70691  10.315   2.213   4.080 -1.8090  0.1622  1.5271
  524MOL0     H70692  10.406   2.578   4.150  1.5396  2.4539 -1.4495
  524MOL0     H70693  10.419   2.410   4.221 -0.1247 -0.0335 -0.7774
  524MOL0     H70694  10.642   2.478   4.206  0.5478  6.6535 -1.2152
  524MOL0     H70695  10.609   2.355   4.073 -0.5924 -0.8776  1.1830
  524MOL0     H70696  10.632   2.667   4.043  1.1906 -0.3351  1.6324
  524MOL0     H70697  10.610   2.552   3.912  3.1570  0.6500 -1.3286
  524MOL0     H70698  10.838   2.623   3.918 -0.2759 -0.1454  0.0180
  524MOL0     H70699  10.828   2.451   3.936  1.2042  1.3100 -2.1509
  524MOL0     H70700  11.073   2.631   4.255 -0.9799 -0.3032 -0.6021
  524MOL0     H70701  11.301   2.626   4.236 -2.3829  0.0584  1.1389
  524MOL0     H70702  11.680   2.338   3.785 -0.2658  0.8410 -0.5317
  524MOL0     H70703  11.912   2.363   3.752 -1.6543 -0.2482 -0.0347
  524MOL0     H70704  12.145   2.479   3.638  1.9537  1.2406 -0.4765
  524MOL0     H70705  12.033   2.614   3.590  0.4971  2.9629 -0.1445
  524MOL0     H70706  12.234   2.708   3.539 -0.5051 -3.1239 -0.3002
  524MOL0     H70707  12.185   2.765   3.698 -2.6459 -0.1148 -2.4265
  524MOL0     H70708  12.319   2.553   3.776  0.6237 -1.5764  0.6491
  524MOL0     H70709  12.395   2.555   3.615  0.4325 -1.0616  1.2313
  524MOL0     H70710  12.378   2.788   3.814  0.8728  0.6110  0.9284
  524MOL0     H70711  12.464   2.804   3.670 -1.4505  0.5367 -0.0167
  524MOL0     H70712  12.617   2.614   3.760  2.8630  3.0433 -0.6030
  524MOL0     H70713  12.522   2.638   3.913  2.0434  1.0488  1.2747
  524MOL0     H70714  12.688   2.846   3.777 -1.6703  1.2959 -0.3095
  524MOL0     H70715  12.583   2.884   3.909  3.4118  1.3091  1.0936
  524MOL0     H70716  12.813   2.683   3.939  0.4969 -0.2118 -0.3642
  524MOL0     H70717  12.688   2.736   4.054 -1.7452  0.0434 -0.3117
  524MOL0     H70718  12.765   2.960   4.049 -2.6088 -1.8598  0.4468
  524MOL0     H70719  12.909   2.860   4.082  0.7322 -1.3075 -0.5073
  524MOL0     H70720  11.905   2.750   3.930 -1.1112  0.9397 -0.8156
  524MOL0     H70721  11.661   2.733   3.956 -1.4797 -1.4362  0.3301
  524MOL0     H70722  11.266   2.472   3.830 -2.2007 -2.0223 -0.3201
  524MOL0     H70723  11.020   2.485   3.858  1.3917  0.7744 -1.0286
  524MOL0     H70724   9.627   1.293   3.861 -0.9706 -1.6106 -0.0533
  524MOL0     H70725   9.407   1.179   3.758 -2.1276  0.3418 -0.4043
  524MOL0     H70726   8.970   1.360   3.567 -0.1872  0.4181  0.1826
  524MOL0     H70727   8.762   1.369   3.519 -1.2625 -1.3173 -1.3783
  524MOL0     H70728   8.540   1.253   3.407 -1.6043 -1.0560  0.5317
  524MOL0     H70729   8.510   1.357   3.535 -1.0166 -0.1875  0.0606
  524MOL0     H70730   8.330   1.118   3.457 -1.9146  0.3092  1.1148
  524MOL0     H70731   8.313   1.277   3.407  0.3874  1.3064  1.3851
  524MOL0     H70732   8.301   1.149   3.688 -1.5824 -3.6489 -2.4466
  524MOL0     H70733   8.165   1.192   3.586  0.3353  1.4366 -2.1643
  524MOL0     H70734   8.357   1.390   3.714 -1.5875  3.5312  1.5195
  524MOL0     H70735   8.225   1.434   3.611 -1.3245  0.1933  0.7353
  524MOL0     H70736   8.044   1.384   3.985 -1.8339 -1.1592 -0.1650
  524MOL0     H70737   8.684   1.017   3.755  1.4287 -1.6676  0.0488
  524MOL0     H70738   8.910   0.879   3.778 -3.4271 -1.3415  2.2463
  524MOL0     H70739   9.030   0.955   3.868 -1.1050 -3.3644  2.3233
  524MOL0     H70740   8.858   0.955   3.928  1.9594  2.5413  1.7997
  525MOL0     O70741   0.810   5.757  10.575 -0.3211  0.6892 -0.4532
  525MOL0     C70742   0.748   5.670  10.508  0.8016  0.2651 -0.3261
  525MOL0     O70743   0.806   5.558  10.450  0.1277 -0.6137 -0.1141
  525MOL0     C70744   0.944   5.544  10.466  0.3564 -0.6653 -0.9999
  525MOL0     C70745   1.023   5.534  10.351 -0.2948 -0.6891 -1.1743
  525MOL0     C70746   1.164   5.514  10.361  0.9031 -0.2322  0.9389
  525MOL0     C70747   1.215   5.503  10.491 -0.0753 -0.0105 -0.3076
  525MOL0     O70748   1.354   5.473  10.512  0.7137  0.4811  0.3206
  525MOL0     C70749   1.414   5.381  10.409 -0.3484  0.1026 -0.3552
  525MOL0     C70750   1.545   5.313  10.461 -0.2356 -0.4290 -1.0278
  525MOL0     C70751   1.524   5.248  10.594 -0.5688  0.6150  0.3902
  525MOL0     C70752   1.665   5.215  10.651 -0.7768  0.3624 -0.1087
  525MOL0     C70753   1.670   5.163  10.798  0.3342 -0.1881  0.5762
  525MOL0     C70754   1.810   5.161  10.849 -0.5692  0.2877  0.5957
  525MOL0     C70755   1.811   5.119  10.994 -0.7822 -0.7570 -0.2488
  525MOL0     C70756   1.781   4.966  11.014  0.3194 -0.6130  0.0378
  525MOL0     N70757   1.707   4.957  11.138  0.5133  0.5887  0.0515
  525MOL0     C70758   1.761   4.964  11.261  0.0381  0.3177 -1.0168
  525MOL0     C70759   1.660   4.968  11.347 -0.4097  0.2961 -0.0044
  525MOL0     C70760   1.671   4.967  11.495  0.5160  0.2476 -0.5002
  525MOL0     C70761   1.787   5.054  11.553  0.8553 -0.2913 -0.6406
  525MOL0     C70762   1.880   4.980  11.644 -0.2106  0.8953 -0.1269
  525MOL0     C70763   2.027   5.031  11.627  0.0316 -0.5675  0.7054
  525MOL0     O70764   2.044   5.157  11.700 -0.2974  0.1719 -0.2821
  525MOL0     C70765   2.161   5.232  11.672 -0.2007  0.0583 -0.1883
  525MOL0     C70766   2.143   5.369  11.649  0.3530 -0.1811  0.2448
  525MOL0     C70767   2.259   5.447  11.635 -0.7360 -0.8746  0.3152
  525MOL0     C70768   2.390   5.403  11.648 -0.5310 -0.3042 -0.9051
  525MOL0     C70769   2.501   5.494  11.639  0.3456 -0.4347  0.9194
  525MOL0     O70770   2.610   5.451  11.704 -0.5262 -0.3336 -0.1660
  525MOL0     C70771   2.739   5.502  11.707  0.8984  0.1775  0.1130
  525MOL0     C70772   2.831   5.428  11.766  0.1054  0.3572 -0.4332
  525MOL0     C70773   2.962   5.471  11.769  0.0332  0.0094 -0.0345
  525MOL0     C70774   2.998   5.598  11.720  0.0524  0.1621 -0.1958
  525MOL0     O70775   3.123   5.635  11.753 -0.6604 -0.5501 -0.0061
  525MOL0     C70776   3.183   5.722  11.657  0.5672  0.5928 -0.2786
  525MOL0     C70777   3.333   5.733  11.690 -1.0726 -0.1619  0.2598
  525MOL0     C70778   3.392   5.859  11.633 -0.1329 -0.4935  0.3426
  525MOL0     C70779   3.539   5.869  11.690  0.0801  0.6006 -0.8149
  525MOL0     C70780   3.608   6.006  11.645 -0.6285  0.0257  0.0727
  525MOL0     C70781   3.749   6.029  11.715  0.1182  1.3719  0.0545
  525MOL0     C70782   3.839   6.102  11.621  0.4466 -0.8675 -0.3083
  525MOL0     C70783   3.819   6.260  11.631 -0.0351 -0.4762 -0.2054
  525MOL0    Cl70784   3.887   6.339  11.783  0.1329 -0.0948  0.2402
  525MOL0     C70785   2.897   5.680  11.659 -0.7532 -0.1239  0.0625
  525MOL0     C70786   2.768   5.624  11.648 -0.9166 -0.0513  0.1978
  525MOL0     O70787   2.497   5.590  11.557 -0.6645  0.1719 -0.4682
  525MOL0     C70788   2.401   5.268  11.679 -0.1337 -0.0465  0.2043
  525MOL0     C70789   2.291   5.186  11.679 -0.6827 -0.6506 -0.0687
  525MOL0     N70790   1.547   4.973  11.270  0.7091  0.3135 -0.2217
  525MOL0     N70791   1.574   4.958  11.146 -0.1302 -0.5596  0.0492
  525MOL0     C70792   1.137   5.518  10.606  0.1477  0.9645 -0.1756
  525MOL0     C70793   1.000   5.536  10.595  0.1377 -0.1026 -0.5495
  525MOL0     C70794   0.609   5.704  10.466 -0.3142  0.0214 -0.5599
  525MOL0     C70795   0.549   5.620  10.370  0.1710 -0.4003 -0.3022
  525MOL0     C70796   0.414   5.635  10.349 -0.0560 -0.0677 -0.5244
  525MOL0     C70797   0.340   5.742  10.403 -0.6062  0.0595  0.1945
  525MOL0     O70798   0.211   5.755  10.358  0.2839  0.5299 -0.1676
  525MOL0     C70799   0.113   5.770  10.466  0.5771  0.0416  0.1519
  525MOL0     C70800   0.008   5.664  10.473 -0.2111  0.5608  0.3185
  525MOL0     C70801  -0.081   5.624  10.351  0.4765 -0.0161  0.4432
  525MOL0     C70802  -0.163   5.741  10.289  0.4998 -0.3669 -0.8215
  525MOL0     C70803  -0.277   5.678  10.219  0.3454  0.0058 -0.5732
  525MOL0     C70804  -0.375   5.645  10.155 -0.1152 -0.0400 -0.4522
  525MOL0     C70805   0.401   5.820  10.500  0.1852 -0.0335 -0.5957
  525MOL0     C70806   0.535   5.799  10.542 -1.0168  0.1541  0.9406
  525MOL0     C70807   0.589   5.903  10.645  0.8739  0.2862  0.4714
  525MOL0     H70808   0.984   5.569  10.256  0.0933  1.1501 -0.6929
  525MOL0     H70809   1.238   5.505  10.282  0.9921 -0.3605  1.0367
  525MOL0     H70810   1.346   5.298  10.389  0.3014 -1.1253  2.1386
  525MOL0     H70811   1.437   5.438  10.319  0.2542  2.3148  1.1225
  525MOL0     H70812   1.627   5.385  10.467 -1.3848  0.8263  0.4686
  525MOL0     H70813   1.565   5.238  10.384  0.0074 -1.7336  0.2631
  525MOL0     H70814   1.460   5.163  10.566 -0.8164  0.5271  1.1919
  525MOL0     H70815   1.484   5.311  10.674  2.3154  0.0698  2.3941
  525MOL0     H70816   1.714   5.139  10.589 -2.1359 -1.2094  0.6667
  525MOL0     H70817   1.726   5.306  10.656  1.9221 -1.3747  1.0520
  525MOL0     H70818   1.607   5.216  10.870 -1.0666 -2.3052  0.9758
  525MOL0     H70819   1.620   5.067  10.792 -1.3269  0.5468  1.8765
  525MOL0     H70820   1.876   5.097  10.790  2.2093  3.6089 -0.2041
  525MOL0     H70821   1.850   5.262  10.839 -0.4116  0.0079 -2.2488
  525MOL0     H70822   1.744   5.178  11.055  1.0217 -0.6693  1.7612
  525MOL0     H70823   1.912   5.140  11.030 -0.3053 -1.4204 -1.1259
  525MOL0     H70824   1.718   4.934  10.931 -2.0171  1.4401  0.8798
  525MOL0     H70825   1.877   4.913  11.018  1.2698  1.0290 -0.0780
  525MOL0     H70826   1.867   4.956  11.284 -0.3154  0.7298  0.8902
  525MOL0     H70827   1.577   4.992  11.546  0.6864 -0.8413  0.3934
  525MOL0     H70828   1.674   4.864  11.532 -0.3058 -0.9824 -3.5913
  525MOL0     H70829   1.836   5.092  11.463 -1.5273 -0.5729 -2.1207
  525MOL0     H70830   1.752   5.140  11.611 -1.0677  0.6916 -3.0863
  525MOL0     H70831   1.877   4.874  11.617 -0.6714  0.6203  0.9703
  525MOL0     H70832   1.858   4.983  11.751  1.4959 -0.6541  0.3230
  525MOL0     H70833   2.047   5.050  11.521  1.5263 -1.5567  0.7869
  525MOL0     H70834   2.095   4.951  11.655  3.0788  0.9703 -1.7111
  525MOL0     H70835   2.046   5.417  11.646  0.8291  1.0020  2.0895
  525MOL0     H70836   2.252   5.554  11.620 -3.2677 -0.5281  3.0686
  525MOL0     H70837   2.794   5.334  11.806 -0.7673 -1.1509 -4.2896
  525MOL0     H70838   3.030   5.418  11.835 -1.5845 -0.7365  1.0947
  525MOL0     H70839   3.154   5.691  11.556 -4.1609  3.3395 -0.0432
  525MOL0     H70840   3.139   5.821  11.671  2.1052  1.2959 -0.2253
  525MOL0     H70841   3.343   5.721  11.798  1.3776 -0.0584  0.0868
  525MOL0     H70842   3.379   5.645  11.645  1.3377 -0.9026  3.8320
  525MOL0     H70843   3.410   5.858  11.525 -0.9469 -0.2024  0.1988
  525MOL0     H70844   3.338   5.949  11.663 -2.6367 -1.4992 -0.8493
  525MOL0     H70845   3.601   5.788  11.651 -2.0171  0.2079 -3.6360
  525MOL0     H70846   3.535   5.860  11.799 -1.7872  2.0321 -0.7069
  525MOL0     H70847   3.549   6.092  11.678 -0.3558 -0.2394  1.2797
  525MOL0     H70848   3.603   5.995  11.536  0.8192 -0.1664  0.0023
  525MOL0     H70849   3.730   6.091  11.803  2.2745  1.8268  0.2558
  525MOL0     H70850   3.792   5.934  11.746 -0.9814  1.5586  2.3470
  525MOL0     H70851   3.816   6.073  11.519  0.0835  2.0439 -1.1440
  525MOL0     H70852   3.941   6.072  11.647 -0.2653 -1.3106  2.3215
  525MOL0     H70853   3.879   6.300  11.548 -0.5249 -1.9864 -1.3302
  525MOL0     H70854   3.716   6.295  11.619  0.1715  0.2732  0.1568
  525MOL0     H70855   2.918   5.775  11.613  1.3947 -0.8831 -0.6334
  525MOL0     H70856   2.696   5.682  11.593  0.0953  0.1560 -0.9682
  525MOL0     H70857   2.495   5.223  11.708  0.0963  0.0164 -0.4433
  525MOL0     H70858   2.314   5.083  11.705  4.0786  0.4895  1.1802
  525MOL0     H70859   1.170   5.504  10.709 -0.5468 -1.6477 -0.2546
  525MOL0     H70860   0.935   5.524  10.681  0.3783 -0.0694 -0.3632
  525MOL0     H70861   0.606   5.541  10.322  0.3021 -0.7225  0.3585
  525MOL0     H70862   0.353   5.571  10.286 -1.5859 -1.7845  2.5040
  525MOL0     H70863   0.058   5.864  10.458  0.4614 -0.0536 -0.2013
  525MOL0     H70864   0.162   5.772  10.564  0.8715  0.3610  0.0038
  525MOL0     H70865  -0.062   5.689  10.553  0.0648  0.2563  0.6610
  525MOL0     H70866   0.053   5.568  10.500 -1.8759  0.2713  2.2996
  525MOL0     H70867  -0.146   5.547  10.394  2.0667  0.1798  3.4753
  525MOL0     H70868  -0.016   5.585  10.273  2.3568 -1.5283  2.6372
  525MOL0     H70869  -0.198   5.805  10.370 -2.5026 -1.3890 -1.1698
  525MOL0     H70870  -0.111   5.797  10.211  2.1361 -2.9107 -1.7126
  525MOL0     H70871  -0.467   5.630  10.102 -0.4855  0.0054  0.1740
  525MOL0     H70872   0.341   5.898  10.546  0.8020 -1.6714  3.3746
  525MOL0     H70873   0.663   5.967  10.596  0.7818 -0.1208 -0.2153
  525MOL0     H70874   0.504   5.962  10.681 -0.0826 -0.4714 -0.4858
  525MOL0     H70875   0.636   5.856  10.731 -0.8925 -0.0627  1.2896
  526MOL0     O70876   3.568   9.001  10.697  0.0995 -0.2353  0.1776
  526MOL0     C70877   3.515   8.917  10.767  0.6595 -0.3786 -0.1749
  526MOL0     O70878   3.558   8.788  10.780  0.1636  0.1420 -0.8452
  526MOL0     C70879   3.683   8.772  10.744 -0.1199  0.7883  0.3634
  526MOL0     C70880   3.786   8.847  10.809 -0.2478  0.7941 -0.0354
  526MOL0     C70881   3.925   8.822  10.762  0.4496  0.0051 -0.7844
  526MOL0     C70882   3.954   8.722  10.672  0.1424 -0.1641 -0.3781
  526MOL0     O70883   4.092   8.703  10.655  0.5576  0.0148  0.1232
  526MOL0     C70884   4.123   8.580  10.586  0.0752 -0.5971 -0.2939
  526MOL0     C70885   4.273   8.550  10.622  0.7643 -1.1032 -0.8308
  526MOL0     C70886   4.330   8.437  10.545 -0.2200 -0.3639 -1.2342
  526MOL0     C70887   4.276   8.297  10.576  0.5907 -0.0001  0.3548
  526MOL0     C70888   4.379   8.183  10.585  0.0325 -0.4076  0.2941
  526MOL0     C70889   4.479   8.165  10.474 -0.3042 -0.5960  0.2855
  526MOL0     C70890   4.410   8.166  10.333  0.2112  0.0427 -0.5294
  526MOL0     C70891   4.510   8.138  10.219  0.7178  0.9414 -0.1570
  526MOL0     N70892   4.443   8.060  10.113 -0.0448  0.6822 -0.5207
  526MOL0     C70893   4.346   8.096  10.026 -0.9026 -0.3772 -0.2041
  526MOL0     C70894   4.314   7.990   9.949  0.0836 -0.7251  0.3646
  526MOL0     C70895   4.192   7.984   9.866  0.7014  0.9778  0.7751
  526MOL0     C70896   4.074   8.010   9.961  1.2066  0.4891 -1.1247
  526MOL0     C70897   3.939   7.957   9.916  0.2284  0.3714 -0.2447
  526MOL0     C70898   3.824   7.983  10.017  0.1194 -0.2857 -0.1444
  526MOL0     O70899   3.749   8.097   9.972 -0.2383 -0.6527 -0.4869
  526MOL0     C70900   3.621   8.129  10.026 -0.0827  0.0040  0.3452
  526MOL0     C70901   3.563   8.233   9.954 -0.2131 -0.2823  0.0506
  526MOL0     C70902   3.440   8.272  10.002 -0.4250  0.2359  0.1989
  526MOL0     C70903   3.380   8.215  10.121 -0.1694 -0.3212 -0.6710
  526MOL0     C70904   3.247   8.257  10.161  0.2354  0.0413  0.1065
  526MOL0     O70905   3.194   8.355  10.083 -0.0699 -0.2294 -0.5930
  526MOL0     C70906   3.068   8.412  10.100  0.0738 -0.3517 -0.0947
  526MOL0     C70907   3.018   8.468   9.976  0.2133  1.1814 -0.1344
  526MOL0     C70908   2.892   8.536   9.975 -0.1550 -0.2682  0.0063
  526MOL0     C70909   2.816   8.544  10.092 -0.3081 -0.0228 -0.1279
  526MOL0     O70910   2.687   8.594  10.102 -0.0043 -0.2797 -0.9783
  526MOL0     C70911   2.635   8.673   9.994  0.2188  0.1412 -0.5423
  526MOL0     C70912   2.550   8.584   9.899  0.4684 -0.6921 -0.1669
  526MOL0     C70913   2.452   8.495   9.976  0.2744  0.1642  0.2174
  526MOL0     C70914   2.338   8.583  10.019  0.0287  0.4063  0.8490
  526MOL0     C70915   2.221   8.502  10.076  0.1105  0.6179  0.0459
  526MOL0     C70916   2.140   8.449   9.961  0.6099  0.0162 -0.2912
  526MOL0     C70917   2.074   8.311   9.991 -0.1149 -1.0648  0.3073
  526MOL0     C70918   1.993   8.251   9.879 -0.4227  0.8657 -0.5329
  526MOL0    Cl70919   2.102   8.203   9.739  0.1739 -0.1551 -0.0634
  526MOL0     C70920   2.868   8.484  10.214  0.6025  0.1292  0.3701
  526MOL0     C70921   2.989   8.422  10.213 -0.8080 -0.0428 -0.4248
  526MOL0     O70922   3.193   8.198  10.253  0.2511 -0.5239  0.2951
  526MOL0     C70923   3.448   8.113  10.183  0.5963 -0.3068  0.0391
  526MOL0     C70924   3.562   8.066  10.134 -0.7131 -0.7274 -0.1790
  526MOL0     N70925   4.398   7.885   9.989  0.2484  0.2059  0.8136
  526MOL0     N70926   4.472   7.923  10.094  0.4483  0.2808 -0.4482
  526MOL0     C70927   3.854   8.647  10.608 -0.5474  0.5542 -0.4184
  526MOL0     C70928   3.719   8.678  10.644  0.3398  0.4597  0.0333
  526MOL0     C70929   3.384   8.938  10.830 -0.2636 -0.3024  1.1759
  526MOL0     C70930   3.283   8.842  10.815  0.4802 -0.0856 -0.2569
  526MOL0     C70931   3.152   8.859  10.856  0.4611  0.0412  0.0393
  526MOL0     C70932   3.114   8.970  10.924  0.0970 -1.1792 -0.9052
  526MOL0     O70933   2.984   8.976  10.969  0.4094  0.2820 -0.3313
  526MOL0     C70934   2.937   9.101  11.003  0.2829  0.2578  0.7865
  526MOL0     C70935   2.909   9.186  10.875 -0.4535  0.0999 -0.3187
  526MOL0     C70936   2.769   9.144  10.826 -0.4462  0.3140  0.3327
  526MOL0     C70937   2.751   9.198  10.682  0.3693  0.6994  0.1427
  526MOL0     C70938   2.720   9.342  10.680  0.3515 -0.1412  0.3051
  526MOL0     C70939   2.711   9.458  10.684  0.4106 -0.6357 -0.9554
  526MOL0     C70940   3.208   9.075  10.933  0.2441 -0.3713  0.1792
  526MOL0     C70941   3.339   9.062  10.886  0.2580  1.6699 -0.3727
  526MOL0     C70942   3.426   9.173  10.906 -0.1821  0.6523 -0.1409
  526MOL0     H70943   3.769   8.915  10.891  3.0619  1.6470  0.0637
  526MOL0     H70944   4.005   8.875  10.811 -1.4333  0.5202  1.9758
  526MOL0     H70945   4.067   8.492  10.619  1.8855 -1.7799 -0.2133
  526MOL0     H70946   4.124   8.604  10.480 -0.7377 -0.2961 -0.2356
  526MOL0     H70947   4.273   8.535  10.730  0.1318  3.6010  0.0255
  526MOL0     H70948   4.333   8.639  10.601 -1.9522  1.3428  0.9710
  526MOL0     H70949   4.437   8.426  10.562 -0.1574  1.6487  0.0221
  526MOL0     H70950   4.330   8.464  10.439  1.6942 -2.0192 -1.7162
  526MOL0     H70951   4.233   8.303  10.676  1.9931 -1.2035  1.0575
  526MOL0     H70952   4.192   8.261  10.515 -0.7555  1.8436  1.0411
  526MOL0     H70953   4.433   8.190  10.680 -1.5025 -1.6633  1.3103
  526MOL0     H70954   4.323   8.089  10.589 -0.0703 -0.3241  0.9438
  526MOL0     H70955   4.550   8.248  10.478 -1.2305  0.1945  0.7170
  526MOL0     H70956   4.521   8.065  10.488  2.9228  0.2450 -2.1517
  526MOL0     H70957   4.360   8.262  10.313 -1.7851 -0.1969  2.6393
  526MOL0     H70958   4.331   8.091  10.334  0.1462  0.0527  2.2435
  526MOL0     H70959   4.551   8.230  10.176  0.7989 -0.2922 -2.9156
  526MOL0     H70960   4.593   8.084  10.265  0.6067  0.2471 -0.7633
  526MOL0     H70961   4.304   8.196  10.040  0.8648  0.2256  1.2364
  526MOL0     H70962   4.195   8.051   9.780  0.6207  0.4928  0.3942
  526MOL0     H70963   4.177   7.882   9.830  1.5274  1.2335 -0.3311
  526MOL0     H70964   4.087   7.961  10.058  0.9274  1.7760 -0.4255
  526MOL0     H70965   4.063   8.117   9.979  2.8441  0.2885  1.4620
  526MOL0     H70966   3.945   7.849   9.900 -1.4552  0.4060 -1.3575
  526MOL0     H70967   3.900   8.009   9.828 -1.6885  3.2634  2.1039
  526MOL0     H70968   3.862   7.989  10.120 -0.4371  0.3562  0.0281
  526MOL0     H70969   3.760   7.895  10.010 -0.5300  0.1804 -0.1438
  526MOL0     H70970   3.609   8.284   9.870  0.0932  2.0677  1.5462
  526MOL0     H70971   3.395   8.353   9.945 -0.3140 -0.4502 -0.9020
  526MOL0     H70972   3.064   8.460   9.878 -3.2805  2.3493 -2.0511
  526MOL0     H70973   2.863   8.582   9.882  1.4913  1.9448  0.5021
  526MOL0     H70974   2.584   8.763  10.028 -0.8296 -0.7662  0.3684
  526MOL0     H70975   2.718   8.708   9.932  1.9516 -0.7387  1.1888
  526MOL0     H70976   2.512   8.650   9.821  2.9682  0.4590 -0.5034
  526MOL0     H70977   2.627   8.520   9.856  0.2615 -1.3599  0.4414
  526MOL0     H70978   2.426   8.424   9.897  1.8233  2.8680 -2.9960
  526MOL0     H70979   2.499   8.440  10.058  0.4285  0.8311  0.5881
  526MOL0     H70980   2.306   8.648   9.937 -0.5996 -0.8596  0.0555
  526MOL0     H70981   2.372   8.658  10.091 -2.0939  1.4677  0.8353
  526MOL0     H70982   2.156   8.561  10.142 -1.3700  0.8395 -1.5322
  526MOL0     H70983   2.268   8.423  10.135 -0.5235 -0.1459 -0.4636
  526MOL0     H70984   2.050   8.510   9.954  0.8182  0.1225 -4.3210
  526MOL0     H70985   2.177   8.457   9.858 -1.9376  3.9298 -1.1327
  526MOL0     H70986   2.011   8.330  10.078  0.5029  1.1756  0.3311
  526MOL0     H70987   2.158   8.247  10.022 -1.4139 -2.9328  0.1092
  526MOL0     H70988   1.953   8.156   9.916  0.5789  0.9817  0.9379
  526MOL0     H70989   1.902   8.302   9.845 -2.1451 -0.9525  1.0494
  526MOL0     H70990   2.801   8.478  10.300  0.0670  2.1038  0.1510
  526MOL0     H70991   3.020   8.381  10.308  0.2624 -1.6037 -1.4066
  526MOL0     H70992   3.405   8.079  10.277  1.7474  2.3622  1.6724
  526MOL0     H70993   3.618   7.992  10.190  1.0912 -0.5349 -1.6364
  526MOL0     H70994   3.877   8.578  10.528  0.3769  2.2121 -1.6369
  526MOL0     H70995   3.642   8.616  10.600 -0.5497  0.9790  0.8134
  526MOL0     H70996   3.308   8.753  10.759  0.6230 -0.7573  0.8364
  526MOL0     H70997   3.070   8.789  10.842  0.2016  0.4693 -0.6263
  526MOL0     H70998   3.003   9.161  11.066  0.0182  0.3115  1.0162
  526MOL0     H70999   2.856   9.080  11.074  1.4238 -1.9028  1.5318
  526MOL0     H71000   2.984   9.172  10.797 -0.0265  0.9530 -0.0712
  526MOL0     H71001   2.894   9.292  10.898 -1.1532 -0.4051  1.8274
  526MOL0     H71002   2.692   9.181  10.894 -0.2915 -0.9299  1.2001
  526MOL0     H71003   2.765   9.036  10.811  1.0168  0.0658  1.5443
  526MOL0     H71004   2.835   9.169  10.618  0.4402 -2.9961  1.6888
  526MOL0     H71005   2.668   9.143  10.639  0.9810  0.6403 -1.0048
  526MOL0     H71006   2.731   9.564  10.685 -1.7192 -0.1870  0.6822
  526MOL0     H71007   3.186   9.171  10.978 -1.4905  0.0220 -1.3763
  526MOL0     H71008   3.469   9.204  10.810 -1.3494 -3.3883 -2.2093
  526MOL0     H71009   3.377   9.255  10.958  3.0711  1.6551  1.6626
  526MOL0     H71010   3.502   9.133  10.974 -1.8788  0.7819  1.9349
  527MOL0     O71011   8.452   0.818   4.595  0.5041  0.5744 -0.4546
  527MOL0     C71012   8.417   0.702   4.567  0.4693  0.1517  0.5744
  527MOL0     O71013   8.502   0.607   4.538 -0.1603 -1.0627  0.2975
  527MOL0     C71014   8.611   0.591   4.620 -0.6433 -0.7685  0.9989
  527MOL0     C71015   8.743   0.607   4.559  0.2817 -0.1196 -0.0025
  527MOL0     C71016   8.855   0.570   4.635 -0.1845  0.0428 -0.3072
  527MOL0     C71017   8.848   0.543   4.772 -0.5255  0.6223 -0.2765
  527MOL0     O71018   8.970   0.520   4.837 -0.9030  0.0850  0.2693
  527MOL0     C71019   8.962   0.438   4.952 -0.2666 -1.0408 -0.4806
  527MOL0     C71020   9.100   0.410   5.003 -0.0454  0.6223  0.2161
  527MOL0     C71021   9.182   0.318   4.913  0.3240 -0.0649 -0.8858
  527MOL0     C71022   9.307   0.277   4.994  0.0619 -0.0012 -0.0498
  527MOL0     C71023   9.289   0.136   5.050 -0.1826 -0.3892  0.4341
  527MOL0     C71024   9.382   0.120   5.172 -0.4929  0.0366  0.7823
  527MOL0     C71025   9.524   0.096   5.130 -0.2839  0.3504 -0.3622
  527MOL0     C71026   9.617   0.112   5.253  0.3058  0.9810  0.1472
  527MOL0     N71027   9.754   0.077   5.225  0.0709  0.4769  0.0654
  527MOL0     C71028   9.828  -0.022   5.289  0.1299  0.1181 -0.4227
  527MOL0     C71029   9.954   0.017   5.263 -0.0554  0.1869  0.1240
  527MOL0     C71030  10.063  -0.068   5.326 -1.3945  0.0510 -0.2556
  527MOL0     C71031  10.194   0.008   5.302 -0.4518 -0.0256  0.9325
  527MOL0     C71032  10.309  -0.059   5.373 -0.1453 -0.6006  0.0112
  527MOL0     C71033  10.445   0.008   5.351  1.1855 -0.2495  0.1886
  527MOL0     O71034  10.545  -0.060   5.426  0.5935 -0.1730  0.5310
  527MOL0     C71035  10.673  -0.015   5.422 -0.3729  0.6909  0.3967
  527MOL0     C71036  10.739   0.050   5.313 -0.1768 -0.0100 -0.3945
  527MOL0     C71037  10.876   0.086   5.320 -0.0701 -0.7580 -0.2789
  527MOL0     C71038  10.950   0.044   5.428 -0.2665 -1.1100 -0.6739
  527MOL0     C71039  11.101   0.058   5.447 -0.2057 -0.3406  0.8060
  527MOL0     O71040  11.160   0.050   5.571  0.2955 -0.0359  0.0925
  527MOL0     C71041  11.287   0.101   5.600  0.3262 -0.1171  1.1235
  527MOL0     C71042  11.364   0.024   5.686 -0.4862 -1.0670 -1.3387
  527MOL0     C71043  11.489   0.072   5.726 -0.1396  0.1604 -0.0972
  527MOL0     C71044  11.556   0.185   5.659  0.1673 -0.5011 -0.8548
  527MOL0     O71045  11.685   0.233   5.677  0.0801  0.0011 -0.1206
  527MOL0     C71046  11.771   0.158   5.761  1.2699  0.3594  0.1741
  527MOL0     C71047  11.910   0.219   5.733 -1.0537  0.1811 -0.5015
  527MOL0     C71048  12.001   0.169   5.844  0.7396  0.6313  0.6354
  527MOL0     C71049  12.142   0.194   5.808  1.0663 -0.5033  0.9259
  527MOL0     C71050  12.247   0.157   5.929 -0.5746  0.4839  0.3486
  527MOL0     C71051  12.390   0.202   5.892  0.0230 -0.4913  0.4938
  527MOL0     C71052  12.499   0.182   5.995  0.2428 -0.5321  0.0802
  527MOL0     C71053  12.505   0.306   6.088 -0.2385 -0.4791  0.2711
  527MOL0    Cl71054  12.650   0.289   6.191 -0.3577  0.3407  0.0926
  527MOL0     C71055  11.472   0.258   5.573  0.7054 -0.8537 -0.8830
  527MOL0     C71056  11.341   0.215   5.544  0.3220 -0.5126  0.2217
  527MOL0     O71057  11.164   0.083   5.349  0.7542 -0.1501  0.7531
  527MOL0     C71058  10.879  -0.006   5.541  0.0302 -0.3949 -0.6070
  527MOL0     C71059  10.743  -0.040   5.530 -0.2081 -0.6334  0.1418
  527MOL0     N71060   9.960   0.131   5.189 -0.3139  0.2803  0.2700
  527MOL0     N71061   9.837   0.167   5.166 -0.5002 -1.5833 -0.1364
  527MOL0     C71062   8.726   0.535   4.829  0.0680 -0.7490 -0.3113
  527MOL0     C71063   8.618   0.559   4.753 -0.6706  0.2037 -0.6902
  527MOL0     C71064   8.273   0.656   4.543 -0.3085  0.1682  0.1582
  527MOL0     C71065   8.235   0.518   4.571  0.3699 -0.6785 -0.6550
  527MOL0     C71066   8.107   0.467   4.556  0.1195 -0.0769  0.2627
  527MOL0     C71067   8.011   0.554   4.491 -0.6228  0.1975  0.3492
  527MOL0     O71068   7.884   0.507   4.484  0.1988 -0.8583 -0.1311
  527MOL0     C71069   7.840   0.484   4.354 -0.0626  0.0705  0.7678
  527MOL0     C71070   7.873   0.339   4.316 -0.0588  1.0667 -0.1387
  527MOL0     C71071   7.817   0.290   4.183 -0.9063 -0.0740  0.1591
  527MOL0     C71072   7.873   0.145   4.155 -0.2467 -0.1247 -0.0907
  527MOL0     C71073   8.014   0.140   4.147  0.8201  0.4727  0.6411
  527MOL0     C71074   8.131   0.165   4.136 -0.6011  0.2597  0.4423
  527MOL0     C71075   8.044   0.692   4.463 -0.1437 -0.2472  1.2119
  527MOL0     C71076   8.173   0.742   4.483 -0.2193  0.2418 -0.1750
  527MOL0     C71077   8.198   0.890   4.453  0.4281  0.5413  0.1645
  527MOL0     H71078   8.740   0.645   4.457 -0.6097  0.8588  0.3645
  527MOL0     H71079   8.951   0.583   4.586 -0.6011  1.0543 -0.8897
  527MOL0     H71080   8.930   0.506   5.030  0.9055  0.3367 -1.1481
  527MOL0     H71081   8.899   0.350   4.933 -1.6125 -0.0808 -0.5534
  527MOL0     H71082   9.092   0.366   5.103 -0.1792  0.8438  0.3022
  527MOL0     H71083   9.145   0.509   5.014  0.0503  0.6444 -0.3600
  527MOL0     H71084   9.207   0.371   4.821 -1.5322  2.2213 -0.1951
  527MOL0     H71085   9.125   0.229   4.885  0.5681 -0.5163  0.0002
  527MOL0     H71086   9.387   0.278   4.920 -1.9497 -2.1181 -2.4578
  527MOL0     H71087   9.331   0.354   5.068  2.7298 -0.6857 -0.1266
  527MOL0     H71088   9.188   0.116   5.087 -0.2252 -3.0563 -0.9429
  527MOL0     H71089   9.310   0.067   4.968 -2.5470  1.7245 -2.1625
  527MOL0     H71090   9.380   0.211   5.232  1.2032  0.6990 -0.0890
  527MOL0     H71091   9.346   0.032   5.227 -1.2139 -0.0882  0.1349
  527MOL0     H71092   9.546   0.176   5.058  3.4415  1.4479  1.7070
  527MOL0     H71093   9.532   0.002   5.075  1.6792 -0.0937  0.6003
  527MOL0     H71094   9.613   0.215   5.290  0.4868  1.7437 -1.8574
  527MOL0     H71095   9.587   0.034   5.324 -1.6343 -0.4765 -2.1226
  527MOL0     H71096   9.795  -0.115   5.335  0.7549 -0.7289 -1.6352
  527MOL0     H71097  10.046  -0.073   5.434  0.1560  2.5772  0.1986
  527MOL0     H71098  10.074  -0.166   5.279  1.9617  1.1583 -2.1933
  527MOL0     H71099  10.212   0.021   5.195 -0.9765  1.2364  0.9812
  527MOL0     H71100  10.183   0.107   5.347  1.8956  1.7503 -2.0915
  527MOL0     H71101  10.306  -0.167   5.354 -1.4995 -1.1453  2.8298
  527MOL0     H71102  10.294  -0.055   5.481 -0.6038 -1.5266 -0.0091
  527MOL0     H71103  10.442   0.112   5.386  0.1214  0.2607 -1.2744
  527MOL0     H71104  10.468   0.009   5.244  0.9102  1.9079  0.0996
  527MOL0     H71105  10.673   0.083   5.233 -2.7030  1.6005  2.1751
  527MOL0     H71106  10.927   0.120   5.230 -1.2749 -0.7647 -0.9804
  527MOL0     H71107  11.328  -0.053   5.754 -1.7155  0.5863 -0.0065
  527MOL0     H71108  11.553   0.009   5.786  0.5389 -1.1707 -2.1356
  527MOL0     H71109  11.746   0.172   5.866 -0.7149 -2.8915  0.2721
  527MOL0     H71110  11.762   0.051   5.741 -2.4434 -0.1344  3.3458
  527MOL0     H71111  11.933   0.177   5.635  1.6118 -0.6915  0.4151
  527MOL0     H71112  11.907   0.329   5.732  1.4920  0.3050 -0.6973
  527MOL0     H71113  11.995   0.220   5.940  1.8722  2.1620 -0.0504
  527MOL0     H71114  11.987   0.063   5.866  0.6638  0.8220  1.5057
  527MOL0     H71115  12.150   0.301   5.784 -1.2683 -0.4791 -0.0046
  527MOL0     H71116  12.161   0.127   5.723 -2.6175  1.5527 -1.8333
  527MOL0     H71117  12.243   0.058   5.974  0.1325 -0.3068 -1.2408
  527MOL0     H71118  12.230   0.219   6.018 -1.5215  0.0026  0.5080
  527MOL0     H71119  12.424   0.151   5.801  1.1691  2.1105 -0.6457
  527MOL0     H71120  12.388   0.307   5.861 -1.5636 -0.4681  0.6062
  527MOL0     H71121  12.594   0.167   5.944  1.2066 -0.1527  1.6874
  527MOL0     H71122  12.486   0.083   6.041  0.0397  1.0378  3.7371
  527MOL0     H71123  12.507   0.394   6.023 -0.7110 -0.8686 -0.2726
  527MOL0     H71124  12.412   0.297   6.145 -2.0674 -4.3228 -2.8684
  527MOL0     H71125  11.501   0.348   5.520 -1.7483 -0.6574 -2.0173
  527MOL0     H71126  11.289   0.270   5.466  0.4190 -0.6845  0.0321
  527MOL0     H71127  10.927  -0.035   5.634 -1.7776 -0.5141  0.3360
  527MOL0     H71128  10.700  -0.107   5.604  0.5492 -0.4501  0.7567
  527MOL0     H71129   8.724   0.507   4.933 -2.2504  1.7048  0.4281
  527MOL0     H71130   8.522   0.552   4.802 -0.5829  0.9752 -0.4035
  527MOL0     H71131   8.308   0.446   4.607  0.3432 -1.4578 -2.1042
  527MOL0     H71132   8.078   0.366   4.584  1.3606 -0.1206  1.5144
  527MOL0     H71133   7.879   0.557   4.282  2.1101 -1.0606  0.7020
  527MOL0     H71134   7.732   0.500   4.352 -0.2109 -0.8901 -0.0586
  527MOL0     H71135   7.834   0.272   4.393 -0.2726 -0.7494 -1.7606
  527MOL0     H71136   7.980   0.324   4.303 -0.5697 -1.6887 -2.1327
  527MOL0     H71137   7.855   0.360   4.108  3.7816  1.0272  3.1199
  527MOL0     H71138   7.708   0.289   4.185 -0.9084 -1.6985  0.2211
  527MOL0     H71139   7.831   0.080   4.233 -1.9297  1.5146  0.4348
  527MOL0     H71140   7.833   0.122   4.055 -0.5138 -0.2927  0.0527
  527MOL0     H71141   8.231   0.204   4.139 -0.4357 -0.2172  2.3176
  527MOL0     H71142   7.970   0.754   4.414  0.2061 -1.9357 -1.7225
  527MOL0     H71143   8.118   0.929   4.389  1.4303  0.5110 -1.1528
  527MOL0     H71144   8.207   0.955   4.540  0.0154  0.7963  0.0213
  527MOL0     H71145   8.286   0.895   4.388 -0.4942  0.6913 -1.1178
  528MOL0     O71146   3.122   4.597   0.236 -0.4227 -0.1219 -0.6878
  528MOL0     C71147   3.128   4.617   0.114 -0.1566 -0.3006  0.6240
  528MOL0     O71148   3.245   4.615   0.044  0.3137 -0.4633  0.6776
  528MOL0     C71149   3.359   4.643   0.108 -0.3478 -0.3611  0.2789
  528MOL0     C71150   3.380   4.758   0.176 -0.0599 -0.7424  0.3803
  528MOL0     C71151   3.501   4.774   0.255 -0.0433  0.3741 -0.6396
  528MOL0     C71152   3.596   4.677   0.263 -0.8136 -0.3000  0.3975
  528MOL0     O71153   3.704   4.705   0.338 -0.3237 -1.2540 -1.1687
  528MOL0     C71154   3.810   4.613   0.350 -0.8784 -0.0555 -0.2448
  528MOL0     C71155   3.917   4.680   0.436  0.3050 -0.6793 -0.1655
  528MOL0     C71156   4.065   4.632   0.421 -0.2951 -0.1864 -0.5643
  528MOL0     C71157   4.142   4.637   0.548  0.1711 -0.8370  0.2206
  528MOL0     C71158   4.287   4.590   0.517  0.0335 -0.5866 -0.3196
  528MOL0     C71159   4.351   4.558   0.647 -0.0844 -0.4115  0.1143
  528MOL0     C71160   4.496   4.540   0.626 -0.6061 -0.2664 -0.0890
  528MOL0     C71161   4.567   4.514   0.763  0.6779  0.2752  0.0120
  528MOL0     N71162   4.556   4.635   0.840  0.4153 -0.7539 -0.0175
  528MOL0     C71163   4.620   4.760   0.820  0.4809 -0.3394 -0.8691
  528MOL0     C71164   4.563   4.842   0.910 -0.5021  0.0205  0.2768
  528MOL0     C71165   4.589   4.983   0.947 -0.6144 -0.0528  0.6532
  528MOL0     C71166   4.710   4.977   1.033 -0.2807  0.2069  0.1321
  528MOL0     C71167   4.849   4.976   0.965  0.6016 -0.4772 -0.1384
  528MOL0     C71168   4.959   4.989   1.079 -0.2138 -0.4957 -0.0432
  528MOL0     O71169   5.086   5.020   1.015 -0.2571  0.6860  0.6845
  528MOL0     C71170   5.135   5.151   1.008  0.2915 -0.4264 -0.2302
  528MOL0     C71171   5.062   5.266   1.038 -0.6473 -0.4464 -0.0675
  528MOL0     C71172   5.111   5.393   1.016 -0.6416 -0.0825  0.5396
  528MOL0     C71173   5.234   5.419   0.963  0.2959 -0.2354  0.2877
  528MOL0     C71174   5.273   5.562   0.931  1.3077 -0.3601  0.6465
  528MOL0     O71175   5.228   5.655   1.013 -0.6553  0.0669  0.5519
  528MOL0     C71176   5.189   5.780   0.962 -0.4109 -0.2048 -0.5015
  528MOL0     C71177   5.076   5.797   0.885  0.3191  0.0385 -0.0776
  528MOL0     C71178   5.039   5.923   0.839 -0.3990 -0.5697  0.4693
  528MOL0     C71179   5.114   6.038   0.875 -0.3951 -0.3791  0.0443
  528MOL0     O71180   5.081   6.168   0.852  0.2234 -0.0551 -0.0650
  528MOL0     C71181   4.959   6.197   0.769  0.5260  0.2288  0.4170
  528MOL0     C71182   4.971   6.332   0.686 -0.3401 -0.0971 -0.4270
  528MOL0     C71183   5.071   6.313   0.567 -0.2404 -0.1871 -0.3851
  528MOL0     C71184   5.010   6.240   0.455 -0.6407  0.2474 -0.1124
  528MOL0     C71185   5.080   6.260   0.320  0.2892 -0.8112  0.3071
  528MOL0     C71186   5.044   6.138   0.233  0.1741  0.1645 -0.3441
  528MOL0     C71187   4.901   6.141   0.182 -0.9092  0.8813 -1.2711
  528MOL0     C71188   4.876   6.042   0.077 -0.1622  0.0960 -0.3594
  528MOL0    Cl71189   4.882   5.872   0.137 -0.3964  0.2386 -0.0684
  528MOL0     C71190   5.225   6.021   0.958 -0.6551  0.4092  0.0227
  528MOL0     C71191   5.261   5.892   0.997  0.3117  0.7535  0.2422
  528MOL0     O71192   5.332   5.580   0.826 -0.5132  0.3343  0.6486
  528MOL0     C71193   5.315   5.305   0.937 -0.2737  1.0393  0.1783
  528MOL0     C71194   5.269   5.171   0.957 -0.5247 -0.1238 -0.5674
  528MOL0     N71195   4.463   4.770   0.974  0.3105 -0.1330  0.0730
  528MOL0     N71196   4.473   4.647   0.943  0.2625 -0.1638 -0.1828
  528MOL0     C71197   3.572   4.560   0.190 -0.4468 -0.2433  0.0611
  528MOL0     C71198   3.458   4.544   0.114  0.5777  0.2987 -0.0750
  528MOL0     C71199   3.008   4.614   0.028  0.5877 -0.1687 -0.6922
  528MOL0     C71200   3.022   4.630  -0.108  0.1086 -0.7679  0.4163
  528MOL0     C71201   2.912   4.627  -0.198  0.0967  0.9297  0.5771
  528MOL0     C71202   2.781   4.607  -0.155  0.6664 -0.0668 -0.2623
  528MOL0     O71203   2.672   4.627  -0.244  0.6058 -0.9029 -0.0402
  528MOL0     C71204   2.550   4.555  -0.220  0.0411  0.8675 -0.5010
  528MOL0     C71205   2.436   4.637  -0.268 -0.5633  0.1569  0.9197
  528MOL0     C71206   2.454   4.681  -0.417 -0.5647  0.2422  0.4175
  528MOL0     C71207   2.312   4.717  -0.487 -0.3632  0.0575  0.0127
  528MOL0     C71208   2.240   4.814  -0.405  0.2153 -1.2500  0.2360
  528MOL0     C71209   2.169   4.898  -0.355  0.7669 -0.6594  0.1793
  528MOL0     C71210   2.764   4.592  -0.009 -0.3417 -0.6750 -0.2324
  528MOL0     C71211   2.880   4.586   0.074 -0.1554 -0.8795  0.1293
  528MOL0     C71212   2.852   4.569   0.226  0.0301 -0.1940  1.6143
  528MOL0     H71213   3.296   4.826   0.165 -0.6239 -1.7010 -1.9908
  528MOL0     H71214   3.526   4.867   0.304  1.8479 -1.0257  1.2955
  528MOL0     H71215   3.768   4.520   0.389 -2.2014  1.8693  3.4636
  528MOL0     H71216   3.843   4.593   0.248  0.1257  0.9267 -0.1399
  528MOL0     H71217   3.888   4.681   0.541 -0.1118 -0.4725 -0.2788
  528MOL0     H71218   3.928   4.784   0.402  0.4265 -0.2376  1.1486
  528MOL0     H71219   4.114   4.698   0.348  1.1753 -0.7012 -0.0812
  528MOL0     H71220   4.066   4.526   0.394  1.0166 -0.1384 -0.7730
  528MOL0     H71221   4.142   4.738   0.590  0.8734 -0.6177 -0.2765
  528MOL0     H71222   4.089   4.577   0.622  0.1094  0.8318  1.6081
  528MOL0     H71223   4.276   4.496   0.463 -3.7020  0.0540 -0.9262
  528MOL0     H71224   4.330   4.670   0.455 -0.0157 -1.2820 -1.2822
  528MOL0     H71225   4.352   4.639   0.720  2.7667  0.3358 -0.6166
  528MOL0     H71226   4.297   4.472   0.689  1.2714 -0.8034  1.1032
  528MOL0     H71227   4.533   4.630   0.576  1.9244 -0.9769  0.4034
  528MOL0     H71228   4.521   4.458   0.558 -1.1555  0.6756 -1.4826
  528MOL0     H71229   4.518   4.438   0.826 -0.8960  2.0503  1.0307
  528MOL0     H71230   4.669   4.479   0.749  0.0938 -1.5470  0.0196
  528MOL0     H71231   4.694   4.790   0.746 -0.9151  0.3884 -2.0252
  528MOL0     H71232   4.605   5.045   0.858  2.0946 -0.9691  0.4119
  528MOL0     H71233   4.504   5.029   0.997  0.2192 -0.0176  2.0945
  528MOL0     H71234   4.707   5.071   1.089 -0.4193 -1.6550  3.5068
  528MOL0     H71235   4.687   4.894   1.100 -2.1127  0.5002 -0.0773
  528MOL0     H71236   4.859   5.062   0.899 -0.7187 -0.2540 -0.0834
  528MOL0     H71237   4.858   4.881   0.912  1.5952 -1.3996  1.5783
  528MOL0     H71238   4.946   4.894   1.131 -0.1187  0.1533  1.1950
  528MOL0     H71239   4.933   5.059   1.158 -0.5399 -0.0305 -0.5563
  528MOL0     H71240   4.967   5.242   1.084 -1.0839  0.5879 -0.3852
  528MOL0     H71241   5.052   5.479   1.047  1.1641  1.1040  0.8908
  528MOL0     H71242   5.010   5.716   0.857  1.3445 -0.2764 -1.6676
  528MOL0     H71243   4.951   5.928   0.774  0.1821  0.0754 -0.2899
  528MOL0     H71244   4.936   6.121   0.693  0.6184  1.4179 -0.8418
  528MOL0     H71245   4.875   6.206   0.839  1.6187 -4.0030  2.5833
  528MOL0     H71246   4.874   6.354   0.641 -0.1220  1.7307 -0.0758
  528MOL0     H71247   4.989   6.421   0.747  0.7711  0.3435 -1.3579
  528MOL0     H71248   5.097   6.413   0.531  0.7068 -0.3706 -0.2486
  528MOL0     H71249   5.170   6.275   0.596  0.3416  0.6687 -1.1770
  528MOL0     H71250   4.905   6.269   0.451 -1.4578 -2.0410  1.9194
  528MOL0     H71251   5.009   6.136   0.490 -1.5820 -0.8307 -3.0097
  528MOL0     H71252   5.188   6.268   0.335  0.2124  1.4260  0.1032
  528MOL0     H71253   5.040   6.353   0.277  2.4242  1.0634  2.0796
  528MOL0     H71254   5.107   6.147   0.144  0.3363  4.8923 -0.0106
  528MOL0     H71255   5.066   6.046   0.287 -2.3325  0.5574  1.5072
  528MOL0     H71256   4.877   6.236   0.134 -0.5125  1.9479  0.5482
  528MOL0     H71257   4.843   6.114   0.271  1.0104  0.1698 -0.1790
  528MOL0     H71258   4.772   6.058   0.046 -1.7894 -2.5882  3.0317
  528MOL0     H71259   4.952   6.052  -0.001  2.1377  1.5306  1.9060
  528MOL0     H71260   5.290   6.103   0.989 -0.4061 -0.4551  1.9312
  528MOL0     H71261   5.348   5.871   1.058 -0.7764 -1.3600  1.1817
  528MOL0     H71262   5.419   5.315   0.906  0.4914  0.3005  2.2777
  528MOL0     H71263   5.328   5.083   0.932 -2.4736 -1.1384 -1.8692
  528MOL0     H71264   3.648   4.484   0.204 -1.4412 -1.0066  1.5668
  528MOL0     H71265   3.430   4.451   0.067 -0.1889  0.4912 -0.0123
  528MOL0     H71266   3.113   4.662  -0.158 -2.4828  2.9406 -2.4754
  528MOL0     H71267   2.932   4.646  -0.303  0.3245 -3.9399 -0.4674
  528MOL0     H71268   2.526   4.521  -0.119  3.2388 -1.4655 -0.3549
  528MOL0     H71269   2.549   4.460  -0.274 -1.3883 -2.1414  4.1638
  528MOL0     H71270   2.433   4.723  -0.201 -1.0198 -0.0226  1.1351
  528MOL0     H71271   2.342   4.583  -0.255  0.6078 -1.5810  2.7150
  528MOL0     H71272   2.503   4.599  -0.470  0.1273  1.1058 -0.3041
  528MOL0     H71273   2.522   4.766  -0.422 -0.4387  0.1534  0.5829
  528MOL0     H71274   2.335   4.752  -0.588  0.5858 -2.2448 -0.6339
  528MOL0     H71275   2.259   4.622  -0.493  1.8580 -1.2195 -0.8566
  528MOL0     H71276   2.106   4.975  -0.316  0.1284 -0.6203 -0.9044
  528MOL0     H71277   2.659   4.595   0.019 -0.8712 -1.6775 -1.9655
  528MOL0     H71278   2.858   4.669   0.271  1.9788  0.4535  0.0592
  528MOL0     H71279   2.753   4.528   0.250 -0.3446  0.6042  1.4673
  528MOL0     H71280   2.925   4.501   0.269  0.8090  0.0191  0.6614
  529MOL0     O71281   3.869   6.615   5.694  0.0337  0.0634 -0.2858
  529MOL0     C71282   3.765   6.569   5.646  0.4296 -0.9768  1.1507
  529MOL0     O71283   3.736   6.561   5.510 -0.8196  0.1794  0.2063
  529MOL0     C71284   3.816   6.599   5.410  0.2704 -0.3105  0.6666
  529MOL0     C71285   3.945   6.644   5.412 -0.5042  0.1317  0.5390
  529MOL0     C71286   4.023   6.665   5.289  0.3974 -1.2367  0.6800
  529MOL0     C71287   3.959   6.650   5.166 -0.5207 -0.6446 -0.7104
  529MOL0     O71288   4.030   6.665   5.047 -0.4687 -0.4445  0.3339
  529MOL0     C71289   4.124   6.772   5.020 -0.7213 -0.3473 -0.2212
  529MOL0     C71290   4.233   6.723   4.932  0.5124  0.4496  0.2921
  529MOL0     C71291   4.352   6.821   4.920 -0.4144 -0.0351 -0.8463
  529MOL0     C71292   4.470   6.748   4.862 -0.2562  0.4347 -0.3428
  529MOL0     C71293   4.431   6.684   4.720 -0.2055  0.1641 -0.0253
  529MOL0     C71294   4.556   6.618   4.658 -0.1053  0.5094  0.0056
  529MOL0     C71295   4.592   6.495   4.735 -0.2776  0.5626 -0.5803
  529MOL0     C71296   4.695   6.414   4.660 -0.2496 -0.1390 -0.0011
  529MOL0     N71297   4.785   6.342   4.753  0.3584 -0.0564  0.3365
  529MOL0     C71298   4.760   6.217   4.796  0.0228 -0.6068  0.0043
  529MOL0     C71299   4.864   6.187   4.878  0.0512  0.6076  0.4424
  529MOL0     C71300   4.894   6.056   4.943 -0.3358 -0.2792 -0.2443
  529MOL0     C71301   4.780   6.010   5.032 -0.0335 -0.1173 -1.5026
  529MOL0     C71302   4.825   5.906   5.143  0.3954 -0.2203  0.9272
  529MOL0     C71303   4.930   5.805   5.095  0.1618 -1.2051 -0.2745
  529MOL0     O71304   4.921   5.691   5.178  0.2272  0.3339  0.2909
  529MOL0     C71305   5.017   5.595   5.160 -0.2319 -0.1557  0.0461
  529MOL0     C71306   5.117   5.593   5.063  0.2162 -0.1064  0.8933
  529MOL0     C71307   5.202   5.484   5.059 -0.6631 -1.0504  0.1275
  529MOL0     C71308   5.209   5.388   5.161  0.1624  0.0057 -1.2084
  529MOL0     C71309   5.323   5.301   5.165 -0.3883 -0.6657 -0.3957
  529MOL0     O71310   5.435   5.343   5.097  0.3913 -0.2072 -0.4773
  529MOL0     C71311   5.556   5.283   5.092  1.5087  0.7106  0.0768
  529MOL0     C71312   5.595   5.163   5.148 -0.0932  0.4033  0.6355
  529MOL0     C71313   5.728   5.116   5.140  0.2675  0.1686 -0.3093
  529MOL0     C71314   5.829   5.196   5.084  0.1930  0.0178 -0.6759
  529MOL0     O71315   5.960   5.151   5.080  0.0051  0.2306  0.5833
  529MOL0     C71316   6.063   5.225   5.009  0.7335 -0.1749  0.2495
  529MOL0     C71317   6.038   5.222   4.857  0.2317 -0.1629  0.0886
  529MOL0     C71318   6.045   5.089   4.797  1.2415 -0.0167  0.8661
  529MOL0     C71319   6.185   5.049   4.759  0.0371  0.1052  0.2215
  529MOL0     C71320   6.188   4.922   4.669  0.6691  0.0890  0.2796
  529MOL0     C71321   6.329   4.891   4.640 -0.0705  0.1313 -0.6821
  529MOL0     C71322   6.358   4.739   4.632 -0.0225  0.1994  0.1738
  529MOL0     C71323   6.311   4.698   4.493 -0.4602  0.9836 -0.0743
  529MOL0    Cl71324   6.414   4.768   4.368 -0.0198 -0.4092 -0.4016
  529MOL0     C71325   5.793   5.333   5.050 -0.5353  0.0388  0.2471
  529MOL0     C71326   5.656   5.368   5.044  0.4652  0.2469 -0.8151
  529MOL0     O71327   5.314   5.200   5.236  0.1051  0.2745  0.0962
  529MOL0     C71328   5.102   5.391   5.255 -0.2072 -0.1513 -0.3844
  529MOL0     C71329   5.010   5.496   5.256 -0.4615  0.3447 -0.5629
  529MOL0     N71330   4.947   6.291   4.876 -0.7779  0.7301 -0.6149
  529MOL0     N71331   4.898   6.387   4.810  0.2693 -0.0085  0.1800
  529MOL0     C71332   3.822   6.616   5.169  0.2839 -0.2418  0.0388
  529MOL0     C71333   3.751   6.594   5.288  0.1915 -1.2888 -0.0807
  529MOL0     C71334   3.657   6.524   5.732  0.0956  0.3147 -0.3715
  529MOL0     C71335   3.551   6.463   5.673  0.6041  0.4465  0.1268
  529MOL0     C71336   3.443   6.408   5.735 -0.4067  0.6707  0.2133
  529MOL0     C71337   3.425   6.432   5.875  0.2376  0.1035 -0.2200
  529MOL0     O71338   3.331   6.379   5.961 -0.4356 -0.0688 -0.3328
  529MOL0     C71339   3.208   6.338   5.902 -0.1731 -0.3624 -0.4365
  529MOL0     C71340   3.122   6.470   5.877 -0.4975  0.1670  0.5552
  529MOL0     C71341   2.973   6.433   5.852 -0.6768  0.1538 -0.1557
  529MOL0     C71342   2.901   6.569   5.848 -0.2587  0.6088  0.2810
  529MOL0     C71343   2.759   6.553   5.876  0.8048 -1.1516  0.5670
  529MOL0     C71344   2.638   6.532   5.876  0.1361 -0.6533 -1.1110
  529MOL0     C71345   3.521   6.516   5.937 -0.0462 -0.2424 -0.0530
  529MOL0     C71346   3.643   6.554   5.872  0.2729  0.3487 -0.0616
  529MOL0     C71347   3.754   6.605   5.964  0.5403 -0.0836  0.1833
  529MOL0     H71348   3.997   6.649   5.507 -3.3667 -0.3325  2.2361
  529MOL0     H71349   4.128   6.692   5.289 -0.0697  0.8081 -1.0079
  529MOL0     H71350   4.071   6.850   4.963 -0.4078 -0.7292 -1.0521
  529MOL0     H71351   4.165   6.808   5.114  1.7002 -3.5298  0.0808
  529MOL0     H71352   4.189   6.696   4.836  0.1094 -2.4958  1.1983
  529MOL0     H71353   4.258   6.621   4.963 -1.8124 -1.2534 -2.8606
  529MOL0     H71354   4.369   6.854   5.023 -1.3073 -1.0233 -0.3569
  529MOL0     H71355   4.318   6.910   4.867  1.7228  3.1380  2.5539
  529MOL0     H71356   4.555   6.816   4.854 -0.4418  1.1401  2.6056
  529MOL0     H71357   4.504   6.678   4.939  0.9062 -0.3473 -1.5150
  529MOL0     H71358   4.347   6.615   4.712  0.5143 -0.7264 -0.1830
  529MOL0     H71359   4.418   6.767   4.650  3.1334 -0.1522 -1.2344
  529MOL0     H71360   4.546   6.603   4.550 -0.5685  0.9358 -0.0102
  529MOL0     H71361   4.635   6.694   4.662  1.0360 -0.6692  1.7283
  529MOL0     H71362   4.500   6.436   4.747  0.4821 -0.9636 -1.8600
  529MOL0     H71363   4.624   6.512   4.838  0.2141 -0.1470 -0.6103
  529MOL0     H71364   4.637   6.343   4.600 -2.5234 -0.1651  2.0826
  529MOL0     H71365   4.762   6.476   4.599 -0.2629 -1.3511 -1.3082
  529MOL0     H71366   4.685   6.143   4.770 -1.1789  1.2313 -2.0842
  529MOL0     H71367   4.927   5.983   4.869 -2.3573  0.1827 -1.6637
  529MOL0     H71368   4.982   6.072   5.007  0.5672 -1.3578 -1.1703
  529MOL0     H71369   4.733   6.096   5.079 -0.3449 -0.2978 -1.4779
  529MOL0     H71370   4.708   5.971   4.959 -1.7542  2.9241 -1.6006
  529MOL0     H71371   4.742   5.839   5.167  2.5947 -3.1387  0.8736
  529MOL0     H71372   4.863   5.956   5.233  0.5593 -0.4452  0.9830
  529MOL0     H71373   5.031   5.847   5.101 -0.1233 -0.5458  0.0177
  529MOL0     H71374   4.900   5.772   4.996  0.2778  0.1541 -0.7814
  529MOL0     H71375   5.118   5.664   4.980 -0.2983  1.8458  2.4764
  529MOL0     H71376   5.288   5.489   4.994 -0.6846 -0.0616  0.1491
  529MOL0     H71377   5.530   5.102   5.210  2.4091 -5.2666 -1.6597
  529MOL0     H71378   5.752   5.018   5.180  0.6409  0.6398  0.6372
  529MOL0     H71379   6.082   5.326   5.048 -0.9839  1.1265 -2.0335
  529MOL0     H71380   6.161   5.178   5.022  1.1255  0.9542  1.6118
  529MOL0     H71381   5.938   5.261   4.836  0.2708  0.0796  0.3498
  529MOL0     H71382   6.109   5.279   4.797 -1.5760  1.6471 -0.4347
  529MOL0     H71383   5.992   5.020   4.863  1.3934 -0.2031  0.7938
  529MOL0     H71384   5.989   5.096   4.704  1.1025  0.1578  0.9617
  529MOL0     H71385   6.242   5.021   4.848 -1.3823 -2.7181  0.3931
  529MOL0     H71386   6.245   5.126   4.710 -0.5923  0.8817  0.6610
  529MOL0     H71387   6.128   4.935   4.578 -2.3063 -0.5002  2.0355
  529MOL0     H71388   6.139   4.840   4.722  1.1197 -0.0945  0.4131
  529MOL0     H71389   6.361   4.952   4.556  1.8250  4.5964  2.8377
  529MOL0     H71390   6.384   4.924   4.729  1.7539 -3.2899 -0.3698
  529MOL0     H71391   6.300   4.691   4.711 -3.6166  1.1419 -1.6735
  529MOL0     H71392   6.464   4.718   4.650  0.2619  1.3066 -0.1103
  529MOL0     H71393   6.315   4.589   4.484  2.0370  1.1654 -2.4628
  529MOL0     H71394   6.207   4.730   4.481 -1.2003 -0.9840  0.7096
  529MOL0     H71395   5.873   5.398   5.015  3.2092 -2.7083  2.9528
  529MOL0     H71396   5.641   5.466   5.001  0.5622  0.5482 -0.1735
  529MOL0     H71397   5.101   5.315   5.333 -1.0717  1.0902  0.8559
  529MOL0     H71398   4.926   5.491   5.325 -1.8401 -1.7147 -2.2330
  529MOL0     H71399   3.782   6.622   5.069  2.5114 -0.7996 -0.9550
  529MOL0     H71400   3.645   6.573   5.284 -0.0823  0.2374 -2.8391
  529MOL0     H71401   3.555   6.452   5.565 -2.0951  1.3681 -0.1314
  529MOL0     H71402   3.377   6.350   5.671  0.1315  0.2748  0.0011
  529MOL0     H71403   3.161   6.272   5.976  1.4062  1.1890  2.0944
  529MOL0     H71404   3.214   6.283   5.808  1.8724 -1.1014  0.0681
  529MOL0     H71405   3.154   6.531   5.792 -0.1824  0.4486  0.8740
  529MOL0     H71406   3.122   6.525   5.972 -3.7707 -1.3576  1.6116
  529MOL0     H71407   2.928   6.375   5.934 -0.3046  1.1680  0.7925
  529MOL0     H71408   2.949   6.383   5.758 -0.7087  0.6288 -0.4010
  529MOL0     H71409   2.939   6.631   5.930  0.0129 -0.5955  1.0872
  529MOL0     H71410   2.910   6.622   5.753 -2.1265  0.4491 -0.0339
  529MOL0     H71411   2.541   6.499   5.909  0.3067 -0.7960 -0.7556
  529MOL0     H71412   3.510   6.512   6.045  0.7204  0.8467  0.0878
  529MOL0     H71413   3.728   6.601   6.070  1.2003 -0.9014  0.3240
  529MOL0     H71414   3.841   6.541   5.946 -0.2031 -0.4093 -3.0006
  529MOL0     H71415   3.771   6.712   5.956 -1.8845  0.4384  1.1710
  530MOL0     O71416   4.264   6.615   2.627  1.0850  0.2931  0.1615
  530MOL0     C71417   4.266   6.526   2.538  0.3435 -0.0221  0.2128
  530MOL0     O71418   4.380   6.451   2.501 -0.5061 -0.3493 -0.3271
  530MOL0     C71419   4.497   6.444   2.569 -1.2156 -0.1774 -0.0187
  530MOL0     C71420   4.603   6.361   2.517  0.5749 -0.1478  0.9256
  530MOL0     C71421   4.717   6.329   2.592  0.3870  0.7928  0.7160
  530MOL0     C71422   4.737   6.384   2.718  0.7666 -0.2971  0.4282
  530MOL0     O71423   4.845   6.372   2.803  0.1554 -0.1788 -0.3086
  530MOL0     C71424   4.970   6.317   2.757 -0.0034 -0.1477 -0.1511
  530MOL0     C71425   5.084   6.341   2.867 -0.6803  0.4706  0.3120
  530MOL0     C71426   5.201   6.243   2.840  1.0093 -0.9149  0.3113
  530MOL0     C71427   5.277   6.219   2.976  0.6372 -0.3323  0.1341
  530MOL0     C71428   5.433   6.202   2.971 -0.1775 -0.4554 -0.0181
  530MOL0     C71429   5.478   6.090   2.876  0.1793  0.9050 -0.8181
  530MOL0     C71430   5.629   6.081   2.877 -0.5617 -0.2581 -0.9176
  530MOL0     C71431   5.663   5.996   3.003  0.7828 -0.5016 -0.8587
  530MOL0     N71432   5.806   6.007   3.032 -0.7012 -0.3234  0.8546
  530MOL0     C71433   5.855   6.091   3.127  0.0498 -0.4016 -0.2235
  530MOL0     C71434   5.988   6.067   3.120  0.6677 -0.0298  0.3193
  530MOL0     C71435   6.073   6.134   3.231  0.1419 -0.1314 -0.1786
  530MOL0     C71436   6.217   6.162   3.181 -0.1906  0.2531  0.1883
  530MOL0     C71437   6.221   6.254   3.057  0.0394 -0.2297 -0.9728
  530MOL0     C71438   6.362   6.252   2.978  0.3945 -0.6560  0.3685
  530MOL0     O71439   6.469   6.255   3.071 -0.2780  0.0276  0.2901
  530MOL0     C71440   6.596   6.257   3.019  0.2492 -0.0566  0.6352
  530MOL0     C71441   6.687   6.160   3.056  0.0043  0.8103 -0.1627
  530MOL0     C71442   6.821   6.167   3.013  0.3930  0.7332 -0.0706
  530MOL0     C71443   6.870   6.276   2.926  0.7368  0.1718 -0.0343
  530MOL0     C71444   7.009   6.289   2.905  0.8587  0.2124 -0.4342
  530MOL0     O71445   7.089   6.193   2.962 -0.2054 -0.7878  0.0448
  530MOL0     C71446   7.222   6.204   2.932 -0.5188 -0.0504 -0.4271
  530MOL0     C71447   7.314   6.271   3.017  0.0061 -0.7533 -0.5030
  530MOL0     C71448   7.452   6.276   2.980 -0.3987 -0.1372 -0.3827
  530MOL0     C71449   7.498   6.220   2.854  0.2808 -0.4335  0.4763
  530MOL0     O71450   7.629   6.249   2.810  0.2570 -0.6046 -0.2968
  530MOL0     C71451   7.672   6.197   2.682 -0.0446 -0.6929  0.5135
  530MOL0     C71452   7.823   6.209   2.650 -0.6990  0.2607 -0.8246
  530MOL0     C71453   7.921   6.149   2.761  0.8727  0.2205  0.1425
  530MOL0     C71454   8.048   6.098   2.690  0.4375 -1.0182 -0.3290
  530MOL0     C71455   8.125   6.225   2.638 -0.1729  0.2027 -1.2052
  530MOL0     C71456   8.261   6.188   2.584 -0.6646 -0.7627  0.4856
  530MOL0     C71457   8.259   6.180   2.423  0.2251  0.2874 -0.5434
  530MOL0     C71458   8.252   6.322   2.369  1.1396 -0.1120  0.7033
  530MOL0    Cl71459   8.231   6.317   2.188  0.0143 -0.0730 -0.0312
  530MOL0     C71460   7.402   6.145   2.783  0.1426 -0.7302  0.4074
  530MOL0     C71461   7.266   6.142   2.813 -0.5380 -0.8606 -0.2575
  530MOL0     O71462   7.049   6.387   2.843 -0.0176 -0.5016  0.3252
  530MOL0     C71463   6.777   6.377   2.893  0.2594 -0.4885  0.1386
  530MOL0     C71464   6.644   6.371   2.941  0.4604 -0.1008  0.6749
  530MOL0     N71465   6.014   5.966   3.020  0.5468 -0.5990 -0.1977
  530MOL0     N71466   5.902   5.930   2.969 -0.7121 -0.3993  0.1872
  530MOL0     C71467   4.639   6.473   2.764 -0.9700 -0.3662  0.1567
  530MOL0     C71468   4.521   6.499   2.697  0.0533 -0.4290  0.4372
  530MOL0     C71469   4.139   6.505   2.454 -0.1317 -0.0838 -0.8900
  530MOL0     C71470   4.157   6.455   2.330  1.0433  0.0243  0.6125
  530MOL0     C71471   4.049   6.424   2.248  0.0668 -0.0319 -0.1133
  530MOL0     C71472   3.918   6.464   2.291  0.2698 -0.2602  0.0420
  530MOL0     O71473   3.807   6.416   2.228 -0.5735 -0.7212  1.4287
  530MOL0     C71474   3.689   6.489   2.219 -1.3605 -0.3459  0.3356
  530MOL0     C71475   3.644   6.482   2.065  0.2026 -0.7313 -0.2951
  530MOL0     C71476   3.552   6.361   2.047  1.3014 -0.1372 -0.1257
  530MOL0     C71477   3.435   6.341   2.140  0.0340  0.1567  0.2671
  530MOL0     C71478   3.346   6.451   2.159  0.0754  0.0151  0.2357
  530MOL0     C71479   3.270   6.541   2.157 -0.5903 -0.3704  0.5184
  530MOL0     C71480   3.911   6.533   2.408  0.8087 -0.3765 -0.4388
  530MOL0     C71481   4.014   6.555   2.494  0.7146 -0.7802 -0.4721
  530MOL0     C71482   3.985   6.611   2.636  0.0850 -0.2410  0.0832
  530MOL0     H71483   4.587   6.315   2.420  0.8335 -0.3514  0.9802
  530MOL0     H71484   4.788   6.262   2.545  0.0123  0.3618  0.7509
  530MOL0     H71485   4.967   6.208   2.746 -0.9773 -0.1258 -0.1222
  530MOL0     H71486   5.003   6.370   2.667 -3.0851 -0.2343 -1.4518
  530MOL0     H71487   5.051   6.301   2.964  0.5396 -0.8957  0.1959
  530MOL0     H71488   5.106   6.448   2.879 -1.0825  0.5135  0.7333
  530MOL0     H71489   5.254   6.293   2.758 -1.6803  0.5593 -0.6557
  530MOL0     H71490   5.167   6.146   2.803  0.0196 -0.0001 -1.3309
  530MOL0     H71491   5.257   6.306   3.038 -0.4819  0.2065 -0.9255
  530MOL0     H71492   5.237   6.131   3.027 -0.5786  0.1147 -0.0217
  530MOL0     H71493   5.478   6.296   2.940  1.5303 -1.5103 -0.8912
  530MOL0     H71494   5.476   6.177   3.069  0.1165  1.9203  0.5060
  530MOL0     H71495   5.434   5.994   2.907  0.2777  1.5022  1.3541
  530MOL0     H71496   5.446   6.112   2.774  1.7051  1.4928 -1.1929
  530MOL0     H71497   5.660   6.186   2.881  1.7483 -0.9226  0.6197
  530MOL0     H71498   5.671   6.027   2.792 -1.4432 -0.5817 -1.1684
  530MOL0     H71499   5.618   6.037   3.095  1.8923  1.5895 -1.1791
  530MOL0     H71500   5.640   5.890   2.993 -0.5689 -0.0948 -2.4567
  530MOL0     H71501   5.794   6.157   3.188  0.1538 -0.5614  0.0555
  530MOL0     H71502   6.030   6.227   3.269 -0.1050 -1.8773  4.5045
  530MOL0     H71503   6.070   6.067   3.318 -0.6372  2.2409  1.7260
  530MOL0     H71504   6.268   6.214   3.262 -0.4313  1.9261 -0.6934
  530MOL0     H71505   6.269   6.069   3.156  0.2568  0.9061 -1.4145
  530MOL0     H71506   6.206   6.354   3.097 -1.1921 -1.0518  0.7307
  530MOL0     H71507   6.142   6.234   2.984  0.0723  0.7865 -1.2972
  530MOL0     H71508   6.361   6.340   2.913 -0.2108 -1.2314 -0.4258
  530MOL0     H71509   6.376   6.168   2.909 -1.2132 -2.4257  2.0844
  530MOL0     H71510   6.650   6.082   3.122 -0.5217  1.7007  0.6153
  530MOL0     H71511   6.894   6.097   3.054 -0.7496 -1.1418 -1.1246
  530MOL0     H71512   7.290   6.322   3.110 -0.5403 -1.7915 -0.0650
  530MOL0     H71513   7.528   6.332   3.035 -0.6413 -0.1901  0.0149
  530MOL0     H71514   7.647   6.090   2.685 -0.9187 -0.4760  1.7789
  530MOL0     H71515   7.606   6.235   2.603 -0.4929  1.3694  1.8113
  530MOL0     H71516   7.844   6.171   2.549 -0.2633  1.7515 -1.3235
  530MOL0     H71517   7.857   6.313   2.652  1.7934 -0.4881  0.0708
  530MOL0     H71518   7.930   6.226   2.838 -3.2564  1.2728 -0.1825
  530MOL0     H71519   7.870   6.063   2.806  0.6826  0.4933  0.4505
  530MOL0     H71520   8.023   6.032   2.606 -0.9073 -0.2092 -0.5920
  530MOL0     H71521   8.115   6.055   2.765 -1.1918  2.3824  3.4160
  530MOL0     H71522   8.138   6.299   2.718 -1.1995 -1.6669  0.8083
  530MOL0     H71523   8.060   6.274   2.565 -2.6997 -1.0137  0.0972
  530MOL0     H71524   8.329   6.268   2.615 -2.1582  0.7106  0.1283
  530MOL0     H71525   8.290   6.091   2.625  1.7502 -0.4975 -0.4450
  530MOL0     H71526   8.176   6.114   2.398 -0.6681  1.3448 -0.4701
  530MOL0     H71527   8.354   6.132   2.399 -0.3895 -2.0733  1.3824
  530MOL0     H71528   8.170   6.379   2.415  1.1215  2.1152 -1.8501
  530MOL0     H71529   8.341   6.383   2.386  1.8700 -1.0307  0.2602
  530MOL0     H71530   7.433   6.091   2.694  2.6489  0.1385  0.6804
  530MOL0     H71531   7.193   6.097   2.747  1.5496 -3.6757 -0.8419
  530MOL0     H71532   6.806   6.458   2.827  0.8190 -2.6895 -2.4675
  530MOL0     H71533   6.580   6.458   2.924  4.8832  3.4072  0.0781
  530MOL0     H71534   4.654   6.519   2.861 -1.0185 -0.2789  0.1225
  530MOL0     H71535   4.444   6.545   2.757 -1.9828 -2.8227 -0.1941
  530MOL0     H71536   4.254   6.424   2.294  2.0067  0.4080  2.7431
  530MOL0     H71537   4.067   6.368   2.156  0.9530  0.1243 -0.0405
  530MOL0     H71538   3.714   6.591   2.251 -2.5475 -0.9532  3.6368
  530MOL0     H71539   3.610   6.453   2.285 -2.2144  0.4308 -0.2395
  530MOL0     H71540   3.728   6.456   2.001  0.2940 -1.0579 -0.0430
  530MOL0     H71541   3.595   6.575   2.032  0.8443 -0.5660 -0.8107
  530MOL0     H71542   3.623   6.278   2.047  2.2986  0.5963 -2.6977
  530MOL0     H71543   3.516   6.354   1.944 -0.3812 -1.4479  0.4989
  530MOL0     H71544   3.370   6.260   2.103 -2.3719  1.6723  0.9378
  530MOL0     H71545   3.481   6.303   2.232  0.8407 -1.1269 -0.6182
  530MOL0     H71546   3.186   6.607   2.157 -0.9991 -0.8731  1.0787
  530MOL0     H71547   3.811   6.534   2.449  1.3119  0.2603  0.8093
  530MOL0     H71548   3.877   6.612   2.652  0.3327  0.4196  1.8880
  530MOL0     H71549   4.034   6.553   2.714 -0.2147  2.6567  2.6020
  530MOL0     H71550   4.030   6.711   2.634  0.0706 -0.2394 -0.3201
  531MOL0     O71551   4.206   6.073   9.519  0.0392 -0.0626 -0.3493
  531MOL0     C71552   4.090   6.055   9.480 -0.7900  0.0376  0.0223
  531MOL0     O71553   4.039   5.949   9.412 -0.0238  0.3727 -0.1254
  531MOL0     C71554   4.130   5.852   9.389  0.2689  1.2085 -0.3375
  531MOL0     C71555   4.218   5.865   9.283  0.1817 -0.4756 -0.8721
  531MOL0     C71556   4.331   5.785   9.272  0.1297 -0.3312  0.3614
  531MOL0     C71557   4.355   5.681   9.364 -0.4977  0.0364 -0.2328
  531MOL0     O71558   4.451   5.598   9.320  0.4204 -0.1683 -0.5575
  531MOL0     C71559   4.494   5.498   9.421  0.4152 -0.5269  0.4114
  531MOL0     C71560   4.631   5.446   9.376 -0.1702 -0.4104 -0.6455
  531MOL0     C71561   4.681   5.350   9.495 -0.2444 -0.1767  0.4643
  531MOL0     C71562   4.819   5.290   9.454 -0.0561 -0.3258 -0.6787
  531MOL0     C71563   4.870   5.178   9.553 -0.3690 -0.5977  0.7890
  531MOL0     C71564   4.990   5.109   9.484 -0.0624 -0.4133 -1.2053
  531MOL0     C71565   5.120   5.196   9.492 -0.1086  0.5157  0.6862
  531MOL0     C71566   5.249   5.108   9.483  0.1084  0.3125  0.1594
  531MOL0     N71567   5.365   5.200   9.487 -0.7528  0.2778  0.4752
  531MOL0     C71568   5.425   5.235   9.604 -0.0707  0.4504 -0.2882
  531MOL0     C71569   5.527   5.313   9.570 -0.3800  0.0731  0.2354
  531MOL0     C71570   5.637   5.373   9.656 -0.0276  0.5958 -0.4164
  531MOL0     C71571   5.745   5.438   9.580  0.3890  0.3070 -1.1545
  531MOL0     C71572   5.848   5.515   9.666 -0.6388 -0.3915  0.9266
  531MOL0     C71573   5.960   5.578   9.579 -0.7029 -0.2391  0.8660
  531MOL0     O71574   6.082   5.615   9.655 -0.1559 -0.7959  0.0337
  531MOL0     C71575   6.175   5.689   9.584  0.5951  0.2862  0.4596
  531MOL0     C71576   6.177   5.697   9.442  0.0347  0.2791 -0.0938
  531MOL0     C71577   6.259   5.786   9.380  0.2325 -0.7334 -0.2371
  531MOL0     C71578   6.326   5.883   9.458 -1.3130  0.8541  0.3830
  531MOL0     C71579   6.408   5.985   9.389  0.1556 -0.1574 -0.2196
  531MOL0     O71580   6.460   6.083   9.454 -0.1583  0.0098 -0.0563
  531MOL0     C71581   6.529   6.177   9.385  0.6025  0.2490  0.5398
  531MOL0     C71582   6.465   6.267   9.298 -0.3997  1.2446 -0.4530
  531MOL0     C71583   6.546   6.361   9.237 -0.2895 -0.3929 -0.0532
  531MOL0     C71584   6.681   6.372   9.263 -0.3231 -0.5086 -0.8011
  531MOL0     O71585   6.744   6.477   9.202 -0.0474 -0.3320  0.5325
  531MOL0     C71586   6.887   6.494   9.222  0.3777  0.0490  0.6620
  531MOL0     C71587   6.959   6.585   9.120  0.1012 -0.2891  0.7910
  531MOL0     C71588   7.112   6.560   9.143 -0.3803 -0.6617  0.2499
  531MOL0     C71589   7.202   6.579   9.016  0.1502  0.3392 -0.2863
  531MOL0     C71590   7.356   6.558   9.046 -0.1752 -0.3823  0.5776
  531MOL0     C71591   7.407   6.661   9.158 -0.0955 -0.3030  0.6897
  531MOL0     C71592   7.558   6.690   9.146  0.3738 -0.0269  0.1250
  531MOL0     C71593   7.601   6.825   9.076  1.7337 -0.3335  0.4279
  531MOL0    Cl71594   7.487   6.860   8.939  0.4583 -0.1936 -0.1831
  531MOL0     C71595   6.744   6.280   9.344  0.3107 -0.2458 -0.4157
  531MOL0     C71596   6.666   6.188   9.411  0.8412 -0.0871 -0.8624
  531MOL0     O71597   6.420   5.963   9.269 -0.4539  0.6328 -0.4098
  531MOL0     C71598   6.338   5.865   9.596 -0.0422 -0.2762 -0.5963
  531MOL0     C71599   6.259   5.772   9.657  0.4742  1.1049 -0.2841
  531MOL0     N71600   5.520   5.336   9.434  0.1065 -0.0811 -0.3716
  531MOL0     N71601   5.416   5.265   9.380 -0.2120 -0.2959 -1.1015
  531MOL0     C71602   4.262   5.660   9.467 -0.9570 -0.4893 -0.6083
  531MOL0     C71603   4.149   5.742   9.477  0.0875  0.3658  0.2521
  531MOL0     C71604   3.984   6.160   9.523 -0.6502 -0.1993 -0.5619
  531MOL0     C71605   3.849   6.123   9.526  0.1038  0.0232 -0.9736
  531MOL0     C71606   3.752   6.208   9.566  0.9895 -0.3067 -0.0036
  531MOL0     C71607   3.781   6.335   9.627 -0.2362 -0.1174 -0.2487
  531MOL0     O71608   3.693   6.431   9.661 -1.3394 -0.4565 -0.0123
  531MOL0     C71609   3.550   6.396   9.658 -0.1695 -0.2819  0.0742
  531MOL0     C71610   3.522   6.324   9.792  1.2185 -0.0908 -0.2449
  531MOL0     C71611   3.538   6.415   9.909 -0.3967 -0.5301  0.8154
  531MOL0     C71612   3.530   6.352  10.046 -0.1336 -0.3504  0.3367
  531MOL0     C71613   3.530   6.458  10.147  0.1507 -0.0703  0.2893
  531MOL0     C71614   3.530   6.543  10.239  0.4170  0.2369  0.2682
  531MOL0     C71615   3.914   6.377   9.625 -0.8366 -0.5359 -0.1271
  531MOL0     C71616   4.018   6.297   9.564  0.0901  0.5061  0.2389
  531MOL0     C71617   4.157   6.347   9.572  0.3298 -0.4371 -0.1139
  531MOL0     H71618   4.213   5.952   9.218 -0.6420 -0.5529 -0.9292
  531MOL0     H71619   4.411   5.811   9.203 -1.2313  0.3587 -1.0138
  531MOL0     H71620   4.505   5.540   9.521 -1.5463  0.7987  0.1164
  531MOL0     H71621   4.435   5.406   9.416 -1.6040  0.6925  0.5921
  531MOL0     H71622   4.693   5.531   9.348 -0.1087  0.2968  1.4658
  531MOL0     H71623   4.610   5.395   9.281  0.2314  0.2413 -1.0922
  531MOL0     H71624   4.614   5.266   9.512 -0.6685  0.2031  0.6968
  531MOL0     H71625   4.692   5.413   9.584  0.6128  1.8123 -0.9692
  531MOL0     H71626   4.815   5.261   9.349  2.0576  2.6881 -1.7327
  531MOL0     H71627   4.893   5.371   9.464  0.7258 -1.2832  2.5115
  531MOL0     H71628   4.904   5.219   9.648  2.5973  2.5717 -1.4207
  531MOL0     H71629   4.788   5.105   9.562  0.0570 -1.3808 -1.1505
  531MOL0     H71630   5.018   5.017   9.536  0.6736  1.6307  2.3704
  531MOL0     H71631   4.961   5.078   9.383 -1.6253 -0.1548 -0.8702
  531MOL0     H71632   5.125   5.243   9.591  0.7172  0.9896  0.4297
  531MOL0     H71633   5.104   5.278   9.422 -3.9013  1.4610  2.4041
  531MOL0     H71634   5.251   5.047   9.574  0.2035 -1.6879 -1.1144
  531MOL0     H71635   5.248   5.040   9.397 -0.4878  1.5014 -0.7938
  531MOL0     H71636   5.401   5.208   9.707  1.2368 -0.0352 -0.0941
  531MOL0     H71637   5.585   5.445   9.719 -1.5842 -0.1675 -0.7819
  531MOL0     H71638   5.678   5.291   9.715 -1.7350 -0.6648 -0.8968
  531MOL0     H71639   5.797   5.358   9.525  1.7325 -0.2601  0.8402
  531MOL0     H71640   5.692   5.504   9.510 -1.9265  0.0839  0.2860
  531MOL0     H71641   5.884   5.434   9.730  0.2124 -0.5459  0.2642
  531MOL0     H71642   5.800   5.587   9.733  1.3834 -1.2766  3.4855
  531MOL0     H71643   5.931   5.672   9.532 -0.8645 -0.4296  0.5884
  531MOL0     H71644   5.986   5.504   9.504  0.1892  1.9614 -1.1143
  531MOL0     H71645   6.115   5.626   9.388  0.8690  0.6319 -1.5636
  531MOL0     H71646   6.261   5.785   9.272  1.8109  0.6986 -0.2758
  531MOL0     H71647   6.358   6.268   9.279 -0.3007 -0.8671 -1.4730
  531MOL0     H71648   6.504   6.430   9.164 -2.4948 -1.2734  0.3184
  531MOL0     H71649   6.911   6.530   9.323  1.6821 -0.3974  0.5244
  531MOL0     H71650   6.936   6.397   9.217  2.7933  1.2376 -0.2348
  531MOL0     H71651   6.933   6.560   9.017  1.0930  0.0260  0.4557
  531MOL0     H71652   6.931   6.686   9.152 -1.7057 -1.5781  3.6986
  531MOL0     H71653   7.146   6.633   9.217  2.0056  1.0427 -2.3340
  531MOL0     H71654   7.130   6.463   9.191  0.1411 -1.0582 -0.7149
  531MOL0     H71655   7.192   6.683   8.984 -0.4421  0.0979 -0.9217
  531MOL0     H71656   7.167   6.512   8.937 -1.8230 -1.2623  1.8333
  531MOL0     H71657   7.415   6.585   8.958  0.6800 -3.1041  0.2342
  531MOL0     H71658   7.372   6.453   9.073  0.4279 -0.6761 -0.8354
  531MOL0     H71659   7.350   6.754   9.147 -2.8195 -1.8680  0.6606
  531MOL0     H71660   7.377   6.624   9.256 -1.7152  1.4841  0.9425
  531MOL0     H71661   7.602   6.602   9.098  0.8360  1.1656 -1.7774
  531MOL0     H71662   7.604   6.691   9.245 -1.4844 -2.5455  1.1258
  531MOL0     H71663   7.580   6.899   9.154  0.2130 -2.3429  2.0458
  531MOL0     H71664   7.707   6.823   9.052  1.1951 -1.9661 -2.2536
  531MOL0     H71665   6.850   6.299   9.361  0.2239  3.1598 -2.6131
  531MOL0     H71666   6.709   6.130   9.493  1.7454  0.5338 -0.8724
  531MOL0     H71667   6.402   5.925   9.660 -2.3809  0.4076  1.2332
  531MOL0     H71668   6.258   5.750   9.763  1.0421 -2.9493 -0.9555
  531MOL0     H71669   4.269   5.578   9.538 -0.3409 -1.3107 -1.6030
  531MOL0     H71670   4.073   5.725   9.553 -0.1381 -0.4388 -0.1447
  531MOL0     H71671   3.811   6.027   9.493  0.8549 -0.2628 -1.0239
  531MOL0     H71672   3.648   6.175   9.569 -0.6559  4.1806  2.6645
  531MOL0     H71673   3.510   6.335   9.577 -2.3052  1.2710 -0.1233
  531MOL0     H71674   3.497   6.492   9.662  1.3672  0.5826  0.8137
  531MOL0     H71675   3.583   6.234   9.796  0.3572 -0.6672  0.3659
  531MOL0     H71676   3.416   6.298   9.798  1.0801  0.7661  1.2712
  531MOL0     H71677   3.460   6.492   9.907  2.0214  2.1253  2.0127
  531MOL0     H71678   3.634   6.467   9.901 -0.5267 -0.4508 -0.4734
  531MOL0     H71679   3.441   6.289  10.049 -0.5970  0.1311 -1.8674
  531MOL0     H71680   3.622   6.296  10.065 -0.0432 -1.0936 -1.9990
  531MOL0     H71681   3.539   6.620  10.313  0.4824  0.7333 -0.2494
  531MOL0     H71682   3.931   6.480   9.657 -0.3734  0.4427 -3.2116
  531MOL0     H71683   4.157   6.455   9.588 -0.7466 -0.2979 -0.9047
  531MOL0     H71684   4.219   6.300   9.649  0.8850  1.1608  0.4571
  531MOL0     H71685   4.213   6.336   9.479  1.0834  0.9068  0.1470
  532MOL0     O71686  10.913   7.404   3.072  0.0983  0.1982 -0.1487
  532MOL0     C71687  10.962   7.504   3.026  1.4692  0.4861  0.3999
  532MOL0     O71688  10.880   7.606   2.977  1.1546  0.7382 -0.9357
  532MOL0     C71689  10.754   7.588   3.009 -0.2970 -0.4768 -0.3944
  532MOL0     C71690  10.656   7.572   2.908 -0.8912  0.2101 -0.0794
  532MOL0     C71691  10.529   7.542   2.937 -0.1411  1.2373 -1.0037
  532MOL0     C71692  10.484   7.547   3.068 -0.7730  0.0051  0.3722
  532MOL0     O71693  10.353   7.512   3.077  0.4085 -0.2161 -0.4401
  532MOL0     C71694  10.286   7.551   3.200 -0.8214 -0.9746  0.3411
  532MOL0     C71695  10.132   7.523   3.197  0.3433  0.3215 -0.5440
  532MOL0     C71696  10.068   7.544   3.055  0.0227  0.4222  0.2779
  532MOL0     C71697   9.914   7.523   3.046 -0.2904  0.3185  0.2357
  532MOL0     C71698   9.835   7.618   3.134 -0.7058  0.2416  0.6941
  532MOL0     C71699   9.688   7.565   3.150  0.5692  0.0598 -0.7622
  532MOL0     C71700   9.582   7.667   3.169  0.1180 -0.8089 -0.3001
  532MOL0     C71701   9.451   7.609   3.218 -0.2201  0.9484  0.3797
  532MOL0     N71702   9.351   7.704   3.271  0.8894  0.3416 -0.9710
  532MOL0     C71703   9.305   7.809   3.204  0.1454  0.2608  0.0949
  532MOL0     C71704   9.205   7.854   3.280 -0.4304 -0.7057 -0.1790
  532MOL0     C71705   9.109   7.956   3.242  0.1890 -0.7607  0.0124
  532MOL0     C71706   9.159   8.089   3.292 -0.0047  0.4630 -0.2316
  532MOL0     C71707   9.232   8.180   3.199  0.2172 -0.8103  0.4696
  532MOL0     C71708   9.318   8.289   3.265 -0.9204 -0.2027  0.0207
  532MOL0     O71709   9.408   8.223   3.356 -0.3500 -0.0811  0.7658
  532MOL0     C71710   9.532   8.185   3.302 -0.1551  0.0525  0.2170
  532MOL0     C71711   9.614   8.271   3.236 -0.3777 -0.8340  0.2114
  532MOL0     C71712   9.743   8.225   3.194  0.2365 -0.1144  0.7420
  532MOL0     C71713   9.798   8.094   3.214  0.6377 -0.1782 -0.3986
  532MOL0     C71714   9.938   8.068   3.169  0.5101  0.0951  0.9592
  532MOL0     O71715   9.981   7.934   3.163 -0.5551 -0.0873  0.0284
  532MOL0     C71716  10.105   7.923   3.114  0.7755  0.1398  0.1705
  532MOL0     C71717  10.205   7.933   3.204  0.0700  0.1330 -0.4639
  532MOL0     C71718  10.342   7.919   3.161 -0.2393  0.9100  1.2807
  532MOL0     C71719  10.368   7.895   3.021 -0.9923  0.2170 -0.2132
  532MOL0     O71720  10.502   7.903   2.994  0.0859  0.2040 -0.8292
  532MOL0     C71721  10.544   7.899   2.859 -0.0096  0.3696 -0.1935
  532MOL0     C71722  10.692   7.933   2.834  0.2841  0.3969  0.4407
  532MOL0     C71723  10.730   7.894   2.690  0.2089  0.0094  0.1035
  532MOL0     C71724  10.864   7.961   2.648  0.6727 -0.3205  0.2488
  532MOL0     C71725  10.830   8.099   2.571 -0.4541  0.2208 -0.2423
  532MOL0     C71726  10.955   8.193   2.550 -0.6853 -1.0769  0.6142
  532MOL0     C71727  10.914   8.325   2.476 -0.1715 -0.2210 -0.2899
  532MOL0     C71728  11.044   8.379   2.417 -0.4759 -0.7520 -0.6440
  532MOL0    Cl71729  11.009   8.533   2.340  0.1566 -0.3634  0.1351
  532MOL0     C71730  10.257   7.888   2.928  0.4233 -0.4038 -0.0666
  532MOL0     C71731  10.125   7.897   2.979  1.2168 -0.2903 -0.8086
  532MOL0     O71732  10.001   8.162   3.128 -0.0105 -0.8273 -0.2349
  532MOL0     C71733   9.716   8.012   3.286 -0.1341  0.6935  0.5591
  532MOL0     C71734   9.584   8.053   3.321  1.0964  0.3692  0.4890
  532MOL0     N71735   9.193   7.772   3.388  0.4476  0.2230  0.2639
  532MOL0     N71736   9.281   7.678   3.384 -0.2070 -0.3338  0.5964
  532MOL0     C71737  10.571   7.589   3.170 -0.0102 -0.4867  0.4274
  532MOL0     C71738  10.709   7.601   3.144 -0.1747 -0.3858 -0.3459
  532MOL0     C71739  11.108   7.511   2.996  0.7116  0.6644  0.1631
  532MOL0     C71740  11.193   7.399   3.034 -0.1825  0.0754 -0.4598
  532MOL0     C71741  11.333   7.400   3.013 -0.8878 -0.6016  0.3230
  532MOL0     C71742  11.391   7.512   2.954 -0.9561  0.3247 -0.2254
  532MOL0     O71743  11.530   7.508   2.957 -0.1244  0.4620 -0.3140
  532MOL0     C71744  11.596   7.614   2.890  0.1194 -0.0220  0.3306
  532MOL0     C71745  11.579   7.608   2.741 -0.0126  0.3651 -0.5055
  532MOL0     C71746  11.658   7.485   2.686  0.3122  0.0601  0.9112
  532MOL0     C71747  11.596   7.454   2.546  0.3069  0.1112 -0.3176
  532MOL0     C71748  11.468   7.382   2.553  0.1736 -0.0492  0.2744
  532MOL0     C71749  11.363   7.328   2.559 -1.4539  0.8193 -0.3489
  532MOL0     C71750  11.316   7.627   2.928  0.7896  0.8005 -0.2424
  532MOL0     C71751  11.175   7.629   2.948  0.3909 -0.3084  0.6846
  532MOL0     C71752  11.106   7.758   2.913  0.4377 -0.4738  0.2409
  532MOL0     H71753  10.694   7.562   2.807  1.4145  1.3077  0.6287
  532MOL0     H71754  10.461   7.518   2.857 -0.1207 -1.5659 -0.2918
  532MOL0     H71755  10.332   7.494   3.281  1.2128 -0.3212 -0.2899
  532MOL0     H71756  10.300   7.657   3.221 -0.4908 -0.1930 -3.2012
  532MOL0     H71757  10.092   7.590   3.273 -1.0156 -0.6076 -0.4027
  532MOL0     H71758  10.116   7.422   3.237 -2.2091  0.6023 -0.6902
  532MOL0     H71759  10.123   7.483   2.983 -2.3093  0.1706 -1.4197
  532MOL0     H71760  10.076   7.648   3.020 -0.7002  0.2946 -0.2965
  532MOL0     H71761   9.877   7.528   2.943 -1.3949 -2.2829  0.4230
  532MOL0     H71762   9.900   7.420   3.080 -1.2698 -0.9081 -3.4710
  532MOL0     H71763   9.883   7.634   3.231  0.2045 -1.6858  0.6118
  532MOL0     H71764   9.850   7.716   3.087  0.2594  0.3723  1.2369
  532MOL0     H71765   9.666   7.521   3.052 -0.3128 -1.2917  0.0122
  532MOL0     H71766   9.699   7.494   3.232  0.0236  0.4829 -0.3161
  532MOL0     H71767   9.565   7.726   3.079  3.6214 -0.6449 -1.0207
  532MOL0     H71768   9.618   7.733   3.248  0.6842 -0.1156 -1.1269
  532MOL0     H71769   9.397   7.562   3.135 -2.0567 -0.1606  2.1154
  532MOL0     H71770   9.464   7.525   3.287 -1.8270  1.0393  0.8408
  532MOL0     H71771   9.357   7.862   3.124  2.1918  0.0715  1.2100
  532MOL0     H71772   9.094   7.954   3.133 -3.1466  0.5184  0.3312
  532MOL0     H71773   9.010   7.940   3.285 -0.0248 -0.3610 -0.3232
  532MOL0     H71774   9.074   8.148   3.329  0.4084  0.5221  0.6524
  532MOL0     H71775   9.224   8.075   3.378 -0.8619  2.5715  0.8583
  532MOL0     H71776   9.157   8.224   3.132 -2.3036 -1.2782  2.8072
  532MOL0     H71777   9.295   8.107   3.147  1.6374 -0.9495  2.2763
  532MOL0     H71778   9.243   8.353   3.313 -1.3342 -0.6322 -0.0441
  532MOL0     H71779   9.362   8.351   3.187  0.0675  2.5619  2.5826
  532MOL0     H71780   9.593   8.376   3.219  0.8730 -0.6520 -0.2436
  532MOL0     H71781   9.797   8.302   3.141 -3.2519  1.7272 -0.4391
  532MOL0     H71782  10.184   7.956   3.308  3.0670 -1.2115  0.5393
  532MOL0     H71783  10.418   7.939   3.236  1.1168 -2.3144  0.9047
  532MOL0     H71784  10.521   7.794   2.837  0.4935  0.3590 -0.6796
  532MOL0     H71785  10.488   7.959   2.787 -0.4210 -2.9302 -2.8411
  532MOL0     H71786  10.732   8.032   2.857 -0.1412  0.3430  1.4500
  532MOL0     H71787  10.755   7.877   2.904 -1.8581  1.1003  3.0918
  532MOL0     H71788  10.749   7.786   2.693 -1.7869 -0.3780 -0.2999
  532MOL0     H71789  10.649   7.916   2.620  0.4334  0.3718 -0.0406
  532MOL0     H71790  10.923   7.894   2.584  1.9755  1.6539 -0.7214
  532MOL0     H71791  10.923   7.982   2.737  2.6581 -1.3605 -0.7544
  532MOL0     H71792  10.763   8.151   2.640  0.1997  0.2798  0.3495
  532MOL0     H71793  10.777   8.079   2.477 -1.7808  0.3713  0.4500
  532MOL0     H71794  11.001   8.227   2.643 -0.0861  2.4299 -0.8033
  532MOL0     H71795  11.018   8.132   2.486 -4.1120 -3.2247 -1.0070
  532MOL0     H71796  10.876   8.404   2.541  1.4752  0.7412 -0.4355
  532MOL0     H71797  10.845   8.295   2.397 -0.1626 -0.8118 -0.0766
  532MOL0     H71798  11.115   8.404   2.496 -1.7472  2.4936 -0.3923
  532MOL0     H71799  11.092   8.309   2.348  2.4891  0.6794 -0.1788
  532MOL0     H71800  10.273   7.869   2.822  0.5739  1.0043 -0.3217
  532MOL0     H71801  10.033   7.875   2.926 -0.5223  1.7592  1.1767
  532MOL0     H71802   9.747   7.914   3.322  0.2281  0.1432 -1.1493
  532MOL0     H71803   9.511   7.981   3.357  0.6331  0.9200  0.6657
  532MOL0     H71804  10.540   7.593   3.274  2.0964 -3.0640  1.2403
  532MOL0     H71805  10.777   7.630   3.224 -1.1220 -1.3781  0.8586
  532MOL0     H71806  11.150   7.313   3.085  3.0285 -1.4256 -0.0341
  532MOL0     H71807  11.397   7.322   3.053  1.3525  0.9046 -0.1774
  532MOL0     H71808  11.706   7.617   2.896  0.1367  1.7680 -0.3862
  532MOL0     H71809  11.558   7.712   2.920 -0.0152  0.1288 -0.3287
  532MOL0     H71810  11.631   7.692   2.693  0.9468  1.0789  1.6820
  532MOL0     H71811  11.472   7.596   2.718 -0.8364  1.9649  2.0852
  532MOL0     H71812  11.652   7.396   2.750 -1.9296  1.0670  2.1791
  532MOL0     H71813  11.762   7.514   2.668 -0.3593  1.8915 -0.3176
  532MOL0     H71814  11.585   7.539   2.477 -0.6795  0.7504  0.6094
  532MOL0     H71815  11.668   7.392   2.491  1.3044  1.0907 -0.1601
  532MOL0     H71816  11.276   7.267   2.576  1.5009 -3.4849  0.7344
  532MOL0     H71817  11.352   7.720   2.885 -0.2529  1.8599  1.0997
  532MOL0     H71818  11.056   7.810   2.995 -0.5831 -1.3215  0.1864
  532MOL0     H71819  11.181   7.819   2.863 -1.0104  0.8802 -0.3630
  532MOL0     H71820  11.028   7.733   2.840  0.2240  1.2273 -0.1444
  533MOL0     O71821   2.805  10.490   7.212  0.0316 -0.6376  0.2736
  533MOL0     C71822   2.806  10.576   7.303  0.3348  0.9602  0.4548
  533MOL0     O71823   2.913  10.602   7.384 -0.0229  0.4462  0.1810
  533MOL0     C71824   3.040  10.555   7.365  0.3654  0.3397  0.5196
  533MOL0     C71825   3.074  10.429   7.309 -0.4751  0.5328 -0.5030
  533MOL0     C71826   3.204  10.386   7.312 -0.2620 -0.7034  0.8193
  533MOL0     C71827   3.304  10.460   7.378 -0.1812 -0.0145  0.2419
  533MOL0     O71828   3.421  10.390   7.390  0.5061 -0.3995  0.6605
  533MOL0     C71829   3.533  10.447   7.460  0.0046 -0.3613 -0.2530
  533MOL0     C71830   3.641  10.339   7.457 -0.2816 -0.3048  0.3941
  533MOL0     C71831   3.761  10.380   7.540  0.4667 -0.3116  0.3319
  533MOL0     C71832   3.859  10.264   7.565 -0.7095 -0.3674  0.3758
  533MOL0     C71833   3.944  10.214   7.442  0.0597 -0.7284  0.5389
  533MOL0     C71834   4.024  10.099   7.497  0.5857  0.0674 -0.5692
  533MOL0     C71835   4.088  10.024   7.379  0.5127 -0.4784  0.2993
  533MOL0     C71836   4.230  10.080   7.353  0.4140 -0.0917 -0.1241
  533MOL0     N71837   4.263  10.034   7.221 -0.0400 -0.5757  0.0739
  533MOL0     C71838   4.346  10.099   7.129 -0.1283  0.2836  0.4661
  533MOL0     C71839   4.375  10.010   7.030 -0.3689  0.6183  0.0225
  533MOL0     C71840   4.465  10.014   6.911 -0.5023  0.1758 -0.0976
  533MOL0     C71841   4.440   9.912   6.794 -0.0122 -0.5776 -0.5803
  533MOL0     C71842   4.526   9.957   6.669 -0.0660  0.4211  0.5682
  533MOL0     C71843   4.603   9.830   6.611  0.0718 -0.1621  0.7022
  533MOL0     O71844   4.661   9.758   6.716 -0.1498 -0.1279 -0.0443
  533MOL0     C71845   4.793   9.761   6.743 -0.3153  0.4067 -0.6698
  533MOL0     C71846   4.839   9.664   6.826 -0.5147  0.3026 -0.7555
  533MOL0     C71847   4.975   9.667   6.860  0.0783  0.6089  0.3053
  533MOL0     C71848   5.070   9.744   6.798 -0.1728 -0.2683  0.5455
  533MOL0     C71849   5.209   9.736   6.835  0.2657 -0.2676 -0.3202
  533MOL0     O71850   5.218   9.672   6.953 -0.0160 -1.0859  0.8528
  533MOL0     C71851   5.345   9.690   7.009 -0.4872 -0.0068  0.1181
  533MOL0     C71852   5.372   9.789   7.101  0.6017 -0.0020 -0.1324
  533MOL0     C71853   5.503   9.805   7.155  0.3010  0.1070  0.5141
  533MOL0     C71854   5.606   9.725   7.101 -1.0320 -0.7195 -0.4080
  533MOL0     O71855   5.739   9.761   7.135 -0.2163  0.1184  0.3329
  533MOL0     C71856   5.851   9.675   7.104 -0.1942  0.8654  0.2131
  533MOL0     C71857   5.981   9.736   7.174  0.1748 -0.3098  0.5211
  533MOL0     C71858   6.094   9.633   7.166  0.1535  0.1487 -0.2314
  533MOL0     C71859   6.220   9.678   7.220  0.5639 -0.5611 -0.4600
  533MOL0     C71860   6.322   9.569   7.201 -1.5830  0.5968  0.0700
  533MOL0     C71861   6.454   9.607   7.265 -0.8534 -0.0065 -0.0345
  533MOL0     C71862   6.559   9.510   7.231 -0.0610 -0.3842  0.2103
  533MOL0     C71863   6.673   9.503   7.333 -0.2747  0.2418 -0.3112
  533MOL0    Cl71864   6.741   9.336   7.336 -0.1575 -0.0654  0.4099
  533MOL0     C71865   5.580   9.623   7.011 -0.3813  0.1130 -0.1894
  533MOL0     C71866   5.447   9.600   6.976 -0.4284  0.5328  1.1631
  533MOL0     O71867   5.299   9.797   6.777  0.0502 -0.2842 -0.3297
  533MOL0     C71868   5.025   9.836   6.701 -0.1195  0.5020  0.0016
  533MOL0     C71869   4.887   9.848   6.687 -0.2207 -0.1531  0.0689
  533MOL0     N71870   4.338   9.886   7.083  0.5742 -0.2085  0.4297
  533MOL0     N71871   4.278   9.900   7.197 -0.6337 -0.2324 -0.2497
  533MOL0     C71872   3.273  10.586   7.430 -0.0208 -0.3216 -0.9022
  533MOL0     C71873   3.136  10.631   7.432  0.1534 -0.5360  0.4532
  533MOL0     C71874   2.673  10.641   7.340  0.1755 -0.4890 -0.0536
  533MOL0     C71875   2.676  10.715   7.468  0.5218  0.1663  0.2174
  533MOL0     C71876   2.558  10.762   7.526 -0.5503 -0.8756  0.4398
  533MOL0     C71877   2.439  10.749   7.464  0.1158 -0.2013  0.0890
  533MOL0     O71878   2.335  10.803   7.528  0.2270 -0.2194  0.0649
  533MOL0     C71879   2.197  10.769   7.506 -0.0866  0.8840 -0.1017
  533MOL0     C71880   2.110  10.868   7.424 -0.9447 -0.6193 -0.1015
  533MOL0     C71881   1.971  10.811   7.396  0.6831  0.8319 -0.3079
  533MOL0     C71882   1.982  10.707   7.271 -1.4050 -0.1508 -0.6973
  533MOL0     C71883   1.964  10.787   7.149  0.2153 -0.1041 -0.5304
  533MOL0     C71884   1.945  10.846   7.043  0.5964  0.0125 -0.0813
  533MOL0     C71885   2.431  10.688   7.346 -0.1136  0.8563  1.0630
  533MOL0     C71886   2.543  10.632   7.277 -0.0128 -0.7466 -0.6686
  533MOL0     C71887   2.525  10.570   7.135 -0.2686  0.5341 -0.0183
  533MOL0     H71888   2.996  10.366   7.267 -1.5540  1.1017  0.5805
  533MOL0     H71889   3.233  10.288   7.276  1.5430  0.8493 -2.3849
  533MOL0     H71890   3.569  10.536   7.408 -0.7911 -1.3600 -2.6359
  533MOL0     H71891   3.504  10.463   7.564  2.4439  1.2002  0.2655
  533MOL0     H71892   3.676  10.337   7.353 -1.7650  3.0063 -0.2937
  533MOL0     H71893   3.597  10.245   7.492 -2.1159 -0.1100 -1.2099
  533MOL0     H71894   3.730  10.422   7.636 -0.4338  3.5806 -1.4754
  533MOL0     H71895   3.810  10.464   7.492  0.1009 -2.1265 -3.5811
  533MOL0     H71896   3.933  10.298   7.638 -1.3202  1.8195  0.0738
  533MOL0     H71897   3.794  10.188   7.608 -1.0037 -0.1362  0.3487
  533MOL0     H71898   3.876  10.196   7.359  2.3429 -0.2465 -1.5568
  533MOL0     H71899   4.012  10.294   7.411 -0.8405  0.2837  1.0724
  533MOL0     H71900   4.089  10.125   7.581 -1.8713 -0.1795  1.5160
  533MOL0     H71901   3.953  10.025   7.533  0.9290  0.6411  1.4489
  533MOL0     H71902   4.012  10.027   7.300 -1.5946  1.1814  2.2431
  533MOL0     H71903   4.107   9.921   7.410 -2.0276 -0.2175  3.3057
  533MOL0     H71904   4.217  10.188   7.361 -2.0320 -0.4504  2.3507
  533MOL0     H71905   4.306  10.057   7.428 -1.7922 -1.2592  1.8849
  533MOL0     H71906   4.389  10.199   7.139  1.2646 -0.2056 -0.2148
  533MOL0     H71907   4.463  10.117   6.874  0.8249  0.6844  1.1644
  533MOL0     H71908   4.561   9.993   6.958 -1.0124  1.2080  1.4934
  533MOL0     H71909   4.441   9.810   6.833 -0.7417 -0.6782 -0.8014
  533MOL0     H71910   4.335   9.931   6.768  0.0188 -0.7176 -0.8119
  533MOL0     H71911   4.596  10.038   6.693 -0.6464  0.8351  0.8933
  533MOL0     H71912   4.472   9.998   6.583  1.4840  1.1449 -0.1137
  533MOL0     H71913   4.676   9.867   6.539  0.6707  2.3153  2.4484
  533MOL0     H71914   4.536   9.758   6.563 -2.4312  1.6469  1.2556
  533MOL0     H71915   4.768   9.592   6.863  1.3873 -1.5688 -0.5684
  533MOL0     H71916   5.001   9.591   6.934  0.9197  0.8501  0.2582
  533MOL0     H71917   5.289   9.849   7.134  1.9448  1.3189  0.9931
  533MOL0     H71918   5.537   9.883   7.222  0.5231 -1.0654  1.8110
  533MOL0     H71919   5.829   9.575   7.145  0.5109  1.4908  2.2732
  533MOL0     H71920   5.872   9.662   6.998  2.4193 -3.6421  1.0170
  533MOL0     H71921   6.005   9.827   7.118 -3.2998  1.6699  1.9512
  533MOL0     H71922   5.954   9.758   7.278 -0.5367 -0.0889  0.2928
  533MOL0     H71923   6.061   9.540   7.212 -0.2134 -1.1148 -2.8689
  533MOL0     H71924   6.107   9.610   7.059 -1.2234 -0.4960 -0.2865
  533MOL0     H71925   6.201   9.706   7.324 -0.8984 -0.3749 -0.7561
  533MOL0     H71926   6.247   9.766   7.161  0.3625  0.0942  0.4095
  533MOL0     H71927   6.340   9.579   7.093  1.8858  1.4284  0.6230
  533MOL0     H71928   6.291   9.467   7.225 -1.6107 -0.5642 -4.0352
  533MOL0     H71929   6.488   9.704   7.228 -1.1924  0.1050 -0.0529
  533MOL0     H71930   6.452   9.625   7.373 -0.7817 -2.1517  0.3660
  533MOL0     H71931   6.602   9.536   7.135 -2.4879  0.4473 -0.7293
  533MOL0     H71932   6.509   9.413   7.241 -0.2392 -0.1777  1.5699
  533MOL0     H71933   6.754   9.564   7.290 -1.7040  0.4323 -2.9900
  533MOL0     H71934   6.634   9.536   7.429 -0.2692 -0.1685 -0.1698
  533MOL0     H71935   5.655   9.554   6.975 -0.6113  0.5875 -1.6804
  533MOL0     H71936   5.419   9.521   6.908  2.3942  0.3757  0.0520
  533MOL0     H71937   5.089   9.911   6.656 -2.1500  2.4475  0.1365
  533MOL0     H71938   4.838   9.933   6.642  0.3741  1.2826  2.0046
  533MOL0     H71939   3.349  10.638   7.487  1.7443  0.5355 -3.8356
  533MOL0     H71940   3.109  10.718   7.490  2.9787  0.9580 -0.2874
  533MOL0     H71941   2.772  10.728   7.518 -0.5826  0.6811  2.2947
  533MOL0     H71942   2.559  10.810   7.624  0.7058  0.4182 -0.1690
  533MOL0     H71943   2.152  10.753   7.604  4.6269  1.9027  2.5288
  533MOL0     H71944   2.178  10.667   7.470 -2.7241  1.2479  0.0158
  533MOL0     H71945   2.154  10.905   7.331  0.2036  0.1967  0.7265
  533MOL0     H71946   2.102  10.946   7.501  1.9118 -1.2678  0.9754
  533MOL0     H71947   1.913  10.900   7.372 -0.4836  0.1295 -0.1726
  533MOL0     H71948   1.928  10.751   7.477 -0.9072  2.0961 -0.1637
  533MOL0     H71949   2.082  10.664   7.263  0.0887  2.8397  0.3111
  533MOL0     H71950   1.904  10.631   7.266  1.1624 -2.9613 -0.8914
  533MOL0     H71951   1.922  10.899   6.953 -0.3892 -0.7989 -0.3224
  533MOL0     H71952   2.330  10.683   7.307  0.2979  0.3728  0.0007
  533MOL0     H71953   2.544  10.463   7.132  2.9685  1.0196 -0.2666
  533MOL0     H71954   2.421  10.590   7.109 -0.1270  2.8424  0.8774
  533MOL0     H71955   2.591  10.599   7.053  0.2231 -2.7569 -0.9021
  534MOL0     O71956   3.991   3.699   2.586 -0.0605  0.3589  0.2821
  534MOL0     C71957   3.914   3.605   2.577 -0.3823  0.5724 -0.4085
  534MOL0     O71958   3.945   3.473   2.581 -0.0626  0.2891 -0.4232
  534MOL0     C71959   4.076   3.442   2.598 -0.0010 -1.3051 -0.8220
  534MOL0     C71960   4.145   3.393   2.488 -0.4940  0.6491 -0.1675
  534MOL0     C71961   4.275   3.336   2.511  0.3172  0.0718 -0.2690
  534MOL0     C71962   4.327   3.335   2.643  1.4311  0.4340 -0.2654
  534MOL0     O71963   4.459   3.289   2.673  0.0049 -0.6337  0.5490
  534MOL0     C71964   4.536   3.212   2.593 -0.2054  0.3124  0.6594
  534MOL0     C71965   4.670   3.272   2.556 -0.6862  0.0701 -0.0047
  534MOL0     C71966   4.764   3.168   2.485 -1.1127 -0.1682  0.1618
  534MOL0     C71967   4.900   3.234   2.482 -0.1196 -0.2623  0.2859
  534MOL0     C71968   4.985   3.185   2.366 -0.1163  0.1480  0.4496
  534MOL0     C71969   5.123   3.239   2.375  0.0413 -0.8256 -0.2750
  534MOL0     C71970   5.214   3.189   2.259 -0.0957  0.5115 -0.5535
  534MOL0     C71971   5.313   3.298   2.218  0.8154 -0.5260  0.3953
  534MOL0     N71972   5.429   3.293   2.307 -0.4633  0.7279  0.7971
  534MOL0     C71973   5.427   3.304   2.443 -0.2056 -0.1806 -0.2217
  534MOL0     C71974   5.562   3.313   2.469  0.0300  0.3781  0.7082
  534MOL0     C71975   5.626   3.337   2.603  0.3192 -0.2503  0.7634
  534MOL0     C71976   5.751   3.256   2.624  0.2641  0.4589 -0.1362
  534MOL0     C71977   5.777   3.231   2.770 -0.1723  0.5045 -0.4712
  534MOL0     C71978   5.778   3.351   2.860 -0.3791 -0.3050 -0.5832
  534MOL0     O71979   5.849   3.460   2.791 -0.8608  0.1001  0.0109
  534MOL0     C71980   5.988   3.444   2.762  0.5267 -1.0397 -0.1839
  534MOL0     C71981   6.078   3.378   2.846  0.5013 -0.3099  0.3712
  534MOL0     C71982   6.217   3.368   2.827  0.6305  0.4805 -0.6684
  534MOL0     C71983   6.280   3.436   2.719  0.1186  0.5693  0.1117
  534MOL0     C71984   6.421   3.434   2.695 -0.5311 -0.3864 -0.5025
  534MOL0     O71985   6.471   3.495   2.584 -0.3047 -0.3900  0.7022
  534MOL0     C71986   6.606   3.494   2.568  0.3606  0.9875  0.3118
  534MOL0     C71987   6.677   3.617   2.555 -0.3369 -0.5656 -0.4758
  534MOL0     C71988   6.811   3.619   2.515  0.0839  0.0202 -0.5598
  534MOL0     C71989   6.889   3.506   2.505  0.0958  0.4908 -0.3090
  534MOL0     O71990   7.024   3.533   2.499 -0.1523 -0.5497  0.5719
  534MOL0     C71991   7.115   3.425   2.478 -0.0599 -0.3133 -0.0125
  534MOL0     C71992   7.265   3.451   2.527 -0.4571  0.3878 -0.6999
  534MOL0     C71993   7.318   3.376   2.654  0.0691 -0.7321 -0.2963
  534MOL0     C71994   7.469   3.403   2.670  0.2517 -0.2318 -0.4200
  534MOL0     C71995   7.544   3.316   2.762 -0.5178  0.3080  0.1267
  534MOL0     C71996   7.668   3.376   2.828  0.2189 -0.2959 -0.1118
  534MOL0     C71997   7.709   3.270   2.931 -0.3029  0.4220  0.3689
  534MOL0     C71998   7.829   3.315   3.013  0.5038 -0.7349 -0.1944
  534MOL0    Cl71999   7.983   3.349   2.920 -0.2049  0.2328 -0.1728
  534MOL0     C72000   6.823   3.381   2.519 -0.6148 -0.9859  0.1191
  534MOL0     C72001   6.687   3.374   2.548  1.3267 -0.2639 -0.7097
  534MOL0     O72002   6.496   3.382   2.775  0.1479 -0.6174 -0.2358
  534MOL0     C72003   6.187   3.499   2.630 -0.2269  0.4384  0.4641
  534MOL0     C72004   6.044   3.497   2.641 -0.5818 -0.4573 -0.2291
  534MOL0     N72005   5.632   3.289   2.347  0.1194  0.0508  0.3036
  534MOL0     N72006   5.546   3.269   2.252 -0.6012 -0.1200  0.8152
  534MOL0     C72007   4.259   3.399   2.745  0.8647  0.6801 -0.0892
  534MOL0     C72008   4.128   3.445   2.722 -0.7760  0.0884  0.0894
  534MOL0     C72009   3.768   3.632   2.571 -0.2877 -0.7411 -1.1661
  534MOL0     C72010   3.683   3.540   2.626  0.4020  0.0672 -0.3499
  534MOL0     C72011   3.545   3.571   2.630 -0.2064 -0.0920  0.2469
  534MOL0     C72012   3.493   3.686   2.580  0.7736 -0.0214 -0.2028
  534MOL0     O72013   3.363   3.710   2.561 -0.3974  0.1420  0.0002
  534MOL0     C72014   3.280   3.592   2.590  0.4393  0.0171 -0.8101
  534MOL0     C72015   3.148   3.601   2.522 -0.0368 -0.3382 -0.5065
  534MOL0     C72016   3.054   3.499   2.591  0.6717 -0.6303  0.1273
  534MOL0     C72017   2.909   3.538   2.543 -0.0821 -0.2198 -0.5953
  534MOL0     C72018   2.825   3.421   2.555 -0.1380 -0.3191  0.4962
  534MOL0     C72019   2.764   3.319   2.578  0.4233  0.5519  0.2913
  534MOL0     C72020   3.579   3.778   2.526 -0.4722 -0.1217 -0.0407
  534MOL0     C72021   3.718   3.752   2.522 -0.3141 -0.2444 -0.2367
  534MOL0     C72022   3.801   3.854   2.448  0.2082 -0.6337  0.0569
  534MOL0     H72023   4.110   3.381   2.386 -0.4349 -3.4787  0.1352
  534MOL0     H72024   4.320   3.278   2.431  0.4209  1.8913 -1.5758
  534MOL0     H72025   4.557   3.119   2.645  0.7468  0.2283  0.1488
  534MOL0     H72026   4.493   3.174   2.499 -2.2165 -1.0379  2.0380
  534MOL0     H72027   4.715   3.319   2.644 -0.2848  1.2028 -0.7899
  534MOL0     H72028   4.637   3.349   2.485 -0.1255  0.3379  0.0221
  534MOL0     H72029   4.729   3.135   2.387  1.0888 -1.6468 -0.2233
  534MOL0     H72030   4.764   3.086   2.558 -1.1590 -1.7488 -1.5369
  534MOL0     H72031   4.883   3.340   2.465 -0.0384 -0.1946  0.6195
  534MOL0     H72032   4.960   3.224   2.574 -0.8606 -0.3891  0.7664
  534MOL0     H72033   4.996   3.076   2.357  0.0501  0.2138 -0.2687
  534MOL0     H72034   4.937   3.216   2.272 -1.7167 -1.7944  0.5495
  534MOL0     H72035   5.128   3.348   2.386 -3.2704 -0.5494 -0.4324
  534MOL0     H72036   5.169   3.191   2.461  2.7546  1.3676 -0.3573
  534MOL0     H72037   5.154   3.171   2.169 -1.5754 -1.4907  0.7441
  534MOL0     H72038   5.252   3.092   2.292 -3.3508 -0.5724  0.4863
  534MOL0     H72039   5.346   3.277   2.116 -1.0800  2.3740 -0.9518
  534MOL0     H72040   5.275   3.400   2.229 -0.0621 -0.8185  0.0800
  534MOL0     H72041   5.343   3.332   2.506 -1.0728  0.4914 -1.6131
  534MOL0     H72042   5.658   3.438   2.628  2.1790 -0.7348  0.4402
  534MOL0     H72043   5.553   3.304   2.678  1.4201 -0.8653  1.5940
  534MOL0     H72044   5.740   3.159   2.574 -1.0950  0.7272 -0.3995
  534MOL0     H72045   5.838   3.306   2.580  1.3318  0.2757  1.6868
  534MOL0     H72046   5.879   3.191   2.777  0.4361  1.7046 -1.9414
  534MOL0     H72047   5.701   3.162   2.808  0.0713 -0.1284 -1.1198
  534MOL0     H72048   5.825   3.329   2.957  2.1362 -0.6696 -1.7962
  534MOL0     H72049   5.676   3.377   2.890 -0.9134 -2.9491  0.1598
  534MOL0     H72050   6.037   3.330   2.935 -1.7801 -1.8827 -1.3896
  534MOL0     H72051   6.275   3.312   2.900  0.7526  0.4017 -0.8248
  534MOL0     H72052   6.625   3.712   2.546 -1.1940 -1.0435 -0.7218
  534MOL0     H72053   6.855   3.718   2.507 -1.2526  0.7379  0.5299
  534MOL0     H72054   7.084   3.338   2.537  0.4050 -0.8109 -0.4829
  534MOL0     H72055   7.126   3.408   2.371 -0.3570  0.5978 -0.1936
  534MOL0     H72056   7.336   3.436   2.445  0.2953  1.2533 -0.2224
  534MOL0     H72057   7.269   3.557   2.555  2.4163  0.6674 -1.8908
  534MOL0     H72058   7.259   3.416   2.738 -0.3425  1.0171 -1.3643
  534MOL0     H72059   7.304   3.268   2.648 -1.3991 -0.6229  0.5155
  534MOL0     H72060   7.461   3.503   2.714 -3.4313 -0.7011  0.2887
  534MOL0     H72061   7.521   3.410   2.574  0.9855  0.2397  0.0002
  534MOL0     H72062   7.569   3.227   2.703 -1.6898  1.8371 -2.8842
  534MOL0     H72063   7.476   3.285   2.842  1.0089  0.5342  1.5672
  534MOL0     H72064   7.747   3.395   2.756 -1.3789  0.8807 -1.6485
  534MOL0     H72065   7.654   3.475   2.873  0.8119  1.4789 -3.5181
  534MOL0     H72066   7.732   3.183   2.869 -2.1669 -0.2536  0.5771
  534MOL0     H72067   7.632   3.241   3.003 -1.1825  1.4318 -0.1323
  534MOL0     H72068   7.805   3.407   3.068 -0.5976 -1.0072 -0.1986
  534MOL0     H72069   7.836   3.232   3.084 -5.3641  0.2847  2.1258
  534MOL0     H72070   6.880   3.290   2.503 -1.2470 -0.8937 -3.8022
  534MOL0     H72071   6.642   3.275   2.552 -0.7865  0.6659  0.0751
  534MOL0     H72072   6.231   3.556   2.549 -1.2807 -2.2049 -2.1293
  534MOL0     H72073   5.987   3.551   2.566  1.6999  1.0900 -0.9551
  534MOL0     H72074   4.293   3.402   2.848  0.7145  0.3371 -0.0288
  534MOL0     H72075   4.060   3.472   2.803 -1.1544  0.1711 -0.2569
  534MOL0     H72076   3.709   3.442   2.664  1.1947 -1.1445 -3.6403
  534MOL0     H72077   3.495   3.486   2.676  2.4225 -2.4859 -1.0005
  534MOL0     H72078   3.265   3.586   2.698  1.8211 -2.0939 -0.6711
  534MOL0     H72079   3.327   3.503   2.549  0.5716 -0.8879  1.1925
  534MOL0     H72080   3.165   3.578   2.417 -1.9655 -0.0034 -0.9319
  534MOL0     H72081   3.107   3.702   2.526  1.1187  0.1273  0.1676
  534MOL0     H72082   3.066   3.515   2.698  0.2382  1.7958 -0.1259
  534MOL0     H72083   3.073   3.394   2.565  0.4149 -0.3662 -1.2025
  534MOL0     H72084   2.870   3.626   2.596  0.3940  0.1725 -0.8928
  534MOL0     H72085   2.913   3.556   2.435  0.2962 -4.7515 -1.5274
  534MOL0     H72086   2.718   3.224   2.591  0.2080  0.7581  1.1264
  534MOL0     H72087   3.542   3.872   2.487  3.0483  0.7535 -1.6563
  534MOL0     H72088   3.848   3.921   2.521 -2.0448  0.5470  0.5213
  534MOL0     H72089   3.877   3.797   2.393 -0.6483 -1.7586  0.0079
  534MOL0     H72090   3.745   3.909   2.372  2.1545 -1.7672 -2.3369
  535MOL0     O72091   5.853   4.810   1.428  0.2380 -0.4833  0.3068
  535MOL0     C72092   5.865   4.746   1.321 -0.5076  0.6738 -0.6607
  535MOL0     O72093   5.982   4.698   1.263 -0.5713 -0.9603  0.3532
  535MOL0     C72094   6.110   4.727   1.311  0.4353  0.1762  0.0056
  535MOL0     C72095   6.207   4.665   1.230 -0.1984  0.2125 -1.2403
  535MOL0     C72096   6.344   4.700   1.243 -0.8795 -0.1749  0.4820
  535MOL0     C72097   6.382   4.808   1.320  0.0112  0.0165 -0.0566
  535MOL0     O72098   6.510   4.839   1.309 -0.8794  0.1288 -0.0381
  535MOL0     C72099   6.534   4.980   1.286 -0.4888  0.1567  0.2804
  535MOL0     C72100   6.680   5.016   1.289  0.2042 -0.5428  0.0521
  535MOL0     C72101   6.734   5.013   1.435 -0.5090 -0.4204  0.5481
  535MOL0     C72102   6.892   4.984   1.418  0.2079 -0.1045  0.0800
  535MOL0     C72103   6.958   4.980   1.560  0.5702 -0.2599  0.0358
  535MOL0     C72104   7.110   4.984   1.553 -0.5796  0.3561  0.1116
  535MOL0     C72105   7.180   4.997   1.691  0.5689  0.5582  0.3059
  535MOL0     C72106   7.212   5.144   1.719  0.2865 -0.2357  0.0868
  535MOL0     N72107   7.354   5.184   1.692  0.4891  0.7652 -0.6423
  535MOL0     C72108   7.391   5.242   1.575 -0.1403 -0.3682 -0.0065
  535MOL0     C72109   7.519   5.278   1.595 -0.8734  0.7907  0.0341
  535MOL0     C72110   7.594   5.349   1.488 -0.5366 -0.5115  0.1441
  535MOL0     C72111   7.750   5.354   1.517 -0.1593  0.2987 -0.5026
  535MOL0     C72112   7.821   5.430   1.415  1.0855 -0.0999 -0.5800
  535MOL0     C72113   7.970   5.433   1.438  0.7355  0.0190 -0.0618
  535MOL0     O72114   8.027   5.520   1.345 -0.4889  0.1952 -0.1637
  535MOL0     C72115   8.160   5.551   1.368 -0.8233  0.3735  0.4707
  535MOL0     C72116   8.239   5.514   1.482  0.3527 -0.0859 -0.3701
  535MOL0     C72117   8.368   5.551   1.493  0.3877 -0.5704 -0.1095
  535MOL0     C72118   8.426   5.635   1.400 -0.9341 -0.2511 -0.4762
  535MOL0     C72119   8.564   5.680   1.416 -0.3266 -0.1121  0.1040
  535MOL0     O72120   8.623   5.662   1.544  0.8669 -0.3154  0.3066
  535MOL0     C72121   8.754   5.699   1.558 -0.6846  0.3371  0.5787
  535MOL0     C72122   8.860   5.616   1.516 -0.3516 -0.5280  1.1128
  535MOL0     C72123   8.995   5.660   1.532 -0.3322 -0.4163 -0.3135
  535MOL0     C72124   9.029   5.790   1.600  0.3008  0.1008  0.5135
  535MOL0     O72125   9.155   5.824   1.635  0.8523  0.5563  0.4935
  535MOL0     C72126   9.251   5.728   1.622 -0.6976 -0.3724 -0.3887
  535MOL0     C72127   9.393   5.768   1.666 -0.2286  0.5292  0.2467
  535MOL0     C72128   9.427   5.900   1.591 -0.5656 -0.1569  0.2592
  535MOL0     C72129   9.583   5.916   1.602  0.3609 -0.5240  0.4980
  535MOL0     C72130   9.647   5.892   1.466 -0.6814 -0.2551 -0.1127
  535MOL0     C72131   9.798   5.917   1.478 -0.7694 -0.5844  0.3543
  535MOL0     C72132   9.875   5.871   1.353  1.1107 -0.9415 -0.1424
  535MOL0     C72133  10.025   5.912   1.368  0.6740 -0.7516 -0.1803
  535MOL0    Cl72134  10.085   5.840   1.520 -0.3177  0.4487 -0.0686
  535MOL0     C72135   8.925   5.865   1.639 -0.0093  0.4203  0.8285
  535MOL0     C72136   8.794   5.816   1.626  0.2923  0.4899 -0.3884
  535MOL0     O72137   8.625   5.727   1.320  0.1071 -0.4092 -0.6935
  535MOL0     C72138   8.350   5.676   1.292  0.2744  0.5148  0.6650
  535MOL0     C72139   8.217   5.637   1.275 -0.3307  0.0720  0.6705
  535MOL0     N72140   7.561   5.237   1.720 -1.0920  0.0457 -0.0241
  535MOL0     N72141   7.460   5.173   1.774 -0.9165  0.2397 -0.6659
  535MOL0     C72142   6.282   4.872   1.400 -0.3042  0.0070  0.2416
  535MOL0     C72143   6.151   4.822   1.401  1.1233 -0.4611  0.0708
  535MOL0     C72144   5.735   4.727   1.241 -0.3419 -0.5990 -0.1246
  535MOL0     C72145   5.626   4.783   1.299  0.4060 -0.3898 -0.0178
  535MOL0     C72146   5.500   4.772   1.243 -0.7382 -0.0198 -0.1934
  535MOL0     C72147   5.481   4.695   1.129 -0.6705  0.6438  0.1052
  535MOL0     O72148   5.358   4.656   1.080 -0.0701  0.2602 -0.0363
  535MOL0     C72149   5.248   4.711   1.150  0.4234  0.6813  0.2397
  535MOL0     C72150   5.129   4.628   1.124 -1.0005  0.3810  0.7882
  535MOL0     C72151   5.084   4.622   0.984  0.6681  0.5074  0.4620
  535MOL0     C72152   4.967   4.523   0.972  0.3449 -0.2696  0.4533
  535MOL0     C72153   4.843   4.554   1.035 -0.2226  0.2902 -0.2970
  535MOL0     C72154   4.742   4.561   1.103  0.3979 -0.1747 -0.5749
  535MOL0     C72155   5.599   4.636   1.068 -0.1134  0.1671  0.3426
  535MOL0     C72156   5.721   4.656   1.122  0.4497  0.4212  0.5995
  535MOL0     C72157   5.830   4.574   1.056 -0.1750  1.0181  0.3196
  535MOL0     H72158   6.167   4.592   1.160  0.6705  0.3548 -1.9134
  535MOL0     H72159   6.407   4.643   1.176 -3.3070 -2.3971 -0.0793
  535MOL0     H72160   6.505   4.988   1.180  0.4818  0.9574  0.0595
  535MOL0     H72161   6.474   5.048   1.348  0.3009  0.4508  0.7346
  535MOL0     H72162   6.711   5.114   1.252  2.3942 -0.2834  2.2941
  535MOL0     H72163   6.732   4.941   1.229  2.6183  0.2862  0.9794
  535MOL0     H72164   6.696   4.928   1.492  0.4163 -1.6166 -0.5584
  535MOL0     H72165   6.715   5.109   1.484  1.7767 -0.5754  1.8993
  535MOL0     H72166   6.921   4.896   1.360  0.0856  0.8007 -1.4255
  535MOL0     H72167   6.942   5.066   1.366  3.8327 -0.9237  1.9785
  535MOL0     H72168   6.912   5.064   1.613 -2.1910 -0.3365 -2.0073
  535MOL0     H72169   6.928   4.887   1.609 -3.4814 -0.3168 -2.1077
  535MOL0     H72170   7.158   4.896   1.510  1.4298  1.5974 -0.3203
  535MOL0     H72171   7.141   5.067   1.490  0.8254  1.2609  1.9005
  535MOL0     H72172   7.269   4.934   1.692 -0.7987 -1.4578  0.2424
  535MOL0     H72173   7.119   4.949   1.768  2.7835 -1.6888  0.7905
  535MOL0     H72174   7.139   5.212   1.674 -0.0305  1.0423  2.4022
  535MOL0     H72175   7.199   5.165   1.825  2.5538  1.0039  0.1880
  535MOL0     H72176   7.320   5.267   1.497 -0.9144 -0.2590  0.7155
  535MOL0     H72177   7.576   5.302   1.391 -2.0716 -0.1177  0.2159
  535MOL0     H72178   7.561   5.453   1.487 -0.4223 -0.4500  1.1779
  535MOL0     H72179   7.789   5.382   1.616  0.3770  1.5997 -1.0709
  535MOL0     H72180   7.788   5.251   1.512  2.7320  1.2125  0.2198
  535MOL0     H72181   7.790   5.535   1.422  2.8482  0.4005  0.2322
  535MOL0     H72182   7.794   5.382   1.320  0.8617  1.4102 -1.3048
  535MOL0     H72183   8.010   5.333   1.425  3.6133  1.0834 -0.0001
  535MOL0     H72184   7.984   5.459   1.544  4.4777 -1.6659  0.0062
  535MOL0     H72185   8.192   5.443   1.549 -1.8308  0.1956 -1.5310
  535MOL0     H72186   8.434   5.515   1.571  0.4392 -2.1934 -0.8696
  535MOL0     H72187   8.840   5.515   1.480  1.9007 -1.3103  1.8397
  535MOL0     H72188   9.077   5.599   1.498  0.3444  0.1436  0.2750
  535MOL0     H72189   9.225   5.637   1.677 -0.5137 -1.3481 -1.8643
  535MOL0     H72190   9.265   5.697   1.518  1.4890 -1.0471  0.0508
  535MOL0     H72191   9.390   5.794   1.772  1.9070 -0.2538  0.5418
  535MOL0     H72192   9.463   5.690   1.635  1.4702  2.1870 -0.2334
  535MOL0     H72193   9.408   5.896   1.484  3.6212  0.1448 -0.6915
  535MOL0     H72194   9.370   5.981   1.638  0.1133  0.5523 -0.1109
  535MOL0     H72195   9.636   5.839   1.659 -0.1545 -3.0259 -2.2179
  535MOL0     H72196   9.607   6.019   1.631 -2.6668  0.8824 -1.4755
  535MOL0     H72197   9.601   5.955   1.390  0.0152  0.5240  0.1046
  535MOL0     H72198   9.622   5.793   1.425 -0.4100 -0.4993  0.2950
  535MOL0     H72199   9.821   6.022   1.498  2.2055 -1.4683  2.1625
  535MOL0     H72200   9.832   5.867   1.568 -3.2330  0.9094  2.2512
  535MOL0     H72201   9.837   5.916   1.261 -0.6653 -2.9584 -0.4649
  535MOL0     H72202   9.869   5.762   1.348 -2.9824 -0.9732  1.7118
  535MOL0     H72203  10.080   5.875   1.282  0.5640  1.2229 -1.1627
  535MOL0     H72204  10.039   6.021   1.374  0.0822 -0.7501  3.1448
  535MOL0     H72205   8.942   5.960   1.690 -0.3169  0.5246  0.7377
  535MOL0     H72206   8.720   5.884   1.668  0.3470 -0.2589  0.9757
  535MOL0     H72207   8.393   5.746   1.221 -1.5477 -0.0205 -1.0315
  535MOL0     H72208   8.160   5.678   1.193  0.7513  2.1500  0.9013
  535MOL0     H72209   6.300   4.960   1.460  0.4398 -0.5982  0.9266
  535MOL0     H72210   6.075   4.880   1.453 -0.2563 -0.4426 -1.8994
  535MOL0     H72211   5.628   4.832   1.396  0.2687 -4.8646  2.4933
  535MOL0     H72212   5.425   4.820   1.306 -0.0630  0.5716  0.1733
  535MOL0     H72213   5.236   4.816   1.124  0.5517  0.4667 -0.7036
  535MOL0     H72214   5.271   4.695   1.256  1.7059 -1.7314 -0.3216
  535MOL0     H72215   5.045   4.651   1.190 -1.6226  0.4327 -0.0212
  535MOL0     H72216   5.161   4.524   1.141 -0.4299  0.0405 -1.9655
  535MOL0     H72217   5.155   4.588   0.909 -1.8521 -3.2163 -0.4722
  535MOL0     H72218   5.044   4.717   0.946 -1.7876 -1.0089 -1.0822
  535MOL0     H72219   4.942   4.508   0.867 -1.7895 -2.9090  1.2400
  535MOL0     H72220   5.000   4.427   1.012  2.1257  1.3038  3.1707
  535MOL0     H72221   4.646   4.576   1.147 -0.6947 -2.0094 -2.1628
  535MOL0     H72222   5.585   4.570   0.983  0.7755  3.1479 -2.3040
  535MOL0     H72223   5.800   4.505   0.976  2.7848  1.3085 -1.1603
  535MOL0     H72224   5.906   4.630   1.002 -1.0535  0.1243 -1.9557
  535MOL0     H72225   5.883   4.511   1.128 -1.4729 -2.0864 -1.2411
  536MOL0     O72226   3.896   8.029   3.550 -0.2054  0.4949 -0.5405
  536MOL0     C72227   3.880   7.994   3.665 -0.2516  0.7506  0.6089
  536MOL0     O72228   3.784   7.910   3.704 -0.3776 -0.6311  0.1746
  536MOL0     C72229   3.692   7.847   3.617  0.5253  0.2928 -0.4363
  536MOL0     C72230   3.576   7.804   3.682  0.6600  0.5908 -0.0450
  536MOL0     C72231   3.475   7.753   3.609  1.3103  0.0482  0.2382
  536MOL0     C72232   3.479   7.731   3.476  0.5901  0.8522  0.0399
  536MOL0     O72233   3.376   7.670   3.405  0.1436  0.6928 -0.1632
  536MOL0     C72234   3.239   7.713   3.429 -0.3799 -0.1494  0.2016
  536MOL0     C72235   3.160   7.682   3.304  0.6329  0.1382  0.2429
  536MOL0     C72236   3.092   7.545   3.318 -0.5844 -0.3948  0.0561
  536MOL0     C72237   3.016   7.499   3.195  0.9184  0.2271  0.6779
  536MOL0     C72238   2.876   7.565   3.185  0.6718 -0.4539  0.9923
  536MOL0     C72239   2.804   7.535   3.051  0.5354 -0.8572  0.2908
  536MOL0     C72240   2.747   7.383   3.041 -0.6728  0.3471  0.0725
  536MOL0     C72241   2.651   7.362   2.926 -0.4829 -0.0583  0.0395
  536MOL0     N72242   2.719   7.371   2.796 -0.2936 -0.4307  0.9311
  536MOL0     C72243   2.838   7.323   2.759  0.7579  0.0512 -1.4055
  536MOL0     C72244   2.849   7.347   2.629  0.2790  0.4838 -0.8103
  536MOL0     C72245   2.971   7.318   2.538  0.3568  0.3542  0.7106
  536MOL0     C72246   3.088   7.405   2.584  0.1550 -0.1093  0.3460
  536MOL0     C72247   3.192   7.358   2.488 -0.0608  0.4301  0.4634
  536MOL0     C72248   3.319   7.417   2.530 -1.1628 -0.0154  0.0498
  536MOL0     O72249   3.418   7.349   2.464 -0.6010  0.2726 -0.1198
  536MOL0     C72250   3.554   7.371   2.485 -0.0098 -0.0720 -0.4666
  536MOL0     C72251   3.607   7.437   2.593  0.8108 -0.4631 -0.0586
  536MOL0     C72252   3.737   7.458   2.616 -0.8098  0.1535  0.4450
  536MOL0     C72253   3.838   7.410   2.525  0.9938 -0.3672  0.3893
  536MOL0     C72254   3.982   7.448   2.538 -0.5367  0.0949  0.7728
  536MOL0     O72255   4.017   7.500   2.658 -0.4029 -0.6680 -0.2182
  536MOL0     C72256   4.143   7.550   2.669 -1.0577 -0.5759 -0.9829
  536MOL0     C72257   4.170   7.678   2.642  0.1608 -0.1502  0.4485
  536MOL0     C72258   4.302   7.733   2.647 -0.7026 -0.3437 -0.4271
  536MOL0     C72259   4.405   7.645   2.695 -0.7200  0.7212  0.6746
  536MOL0     O72260   4.539   7.669   2.725 -0.1274 -0.0641 -0.3431
  536MOL0     C72261   4.595   7.797   2.716 -0.2740 -0.5426  0.3648
  536MOL0     C72262   4.747   7.805   2.736 -0.2656  0.0462  1.0096
  536MOL0     C72263   4.774   7.778   2.883 -0.0429 -0.2664 -0.5697
  536MOL0     C72264   4.919   7.758   2.903  0.5352  0.5253  0.4113
  536MOL0     C72265   4.960   7.734   3.051  0.3054  0.4640  0.1993
  536MOL0     C72266   5.093   7.675   3.064 -0.3794  0.2809 -0.1344
  536MOL0     C72267   5.133   7.671   3.209 -0.7788 -0.0733  0.4863
  536MOL0     C72268   5.280   7.683   3.227 -0.4332  0.3332 -0.0046
  536MOL0    Cl72269   5.339   7.840   3.176  0.2395  0.2158 -0.0467
  536MOL0     C72270   4.372   7.515   2.744  0.3905  0.4064  0.3754
  536MOL0     C72271   4.241   7.472   2.732 -0.1366  0.2317 -0.7615
  536MOL0     O72272   4.053   7.448   2.434 -0.5668 -0.6453  0.0073
  536MOL0     C72273   3.782   7.329   2.413  0.1793 -0.2091  0.0518
  536MOL0     C72274   3.646   7.308   2.398  0.2999  0.0468 -0.6843
  536MOL0     N72275   2.733   7.406   2.587 -0.4622  0.4190 -0.4714
  536MOL0     N72276   2.657   7.432   2.694  0.4661  0.0140  0.3185
  536MOL0     C72277   3.607   7.757   3.415 -0.0069 -0.4303  0.4399
  536MOL0     C72278   3.713   7.807   3.488  0.0554 -0.7900  1.3135
  536MOL0     C72279   3.991   8.041   3.757  0.4654  0.3836  0.6352
  536MOL0     C72280   3.985   7.985   3.888  0.6070 -0.2840  0.0395
  536MOL0     C72281   4.080   8.016   3.982 -0.0570 -0.0638  0.5399
  536MOL0     C72282   4.188   8.107   3.954  1.0497 -0.0901  0.1162
  536MOL0     O72283   4.291   8.152   4.039  0.4035 -0.1468 -0.2714
  536MOL0     C72284   4.294   8.101   4.170 -0.2512 -0.6530 -0.1617
  536MOL0     C72285   4.203   8.193   4.246 -0.1923  0.4171 -0.6995
  536MOL0     C72286   4.228   8.189   4.397  0.2626  1.2783 -0.1844
  536MOL0     C72287   4.237   8.047   4.460  0.1154  0.2931  0.3789
  536MOL0     C72288   4.104   7.986   4.444 -0.0090  0.2659 -0.6191
  536MOL0     C72289   3.998   7.935   4.418  0.4010 -0.8973  0.3806
  536MOL0     C72290   4.194   8.149   3.826  0.3422 -0.7741  0.3141
  536MOL0     C72291   4.102   8.121   3.724  0.2909  0.1075  0.1744
  536MOL0     C72292   4.121   8.179   3.590  0.2334  0.3718  0.6955
  536MOL0     H72293   3.567   7.808   3.790 -0.3877  0.8152 -0.1313
  536MOL0     H72294   3.385   7.731   3.665  1.2223  0.1024  0.1195
  536MOL0     H72295   3.192   7.666   3.516  0.1963  2.5698  2.1174
  536MOL0     H72296   3.234   7.820   3.451  2.3945 -0.1067  0.8939
  536MOL0     H72297   3.233   7.684   3.222  0.8489  2.7250  0.4325
  536MOL0     H72298   3.084   7.760   3.299  0.4585  0.1679  2.4998
  536MOL0     H72299   3.022   7.541   3.402 -1.8042 -0.5864 -0.9430
  536MOL0     H72300   3.173   7.476   3.344  0.5156  0.5280 -0.8218
  536MOL0     H72301   3.070   7.515   3.102 -3.2229 -1.0652 -2.2495
  536MOL0     H72302   3.002   7.390   3.193  0.0424  0.3325  0.3220
  536MOL0     H72303   2.814   7.516   3.261 -2.1142 -0.6232 -1.2007
  536MOL0     H72304   2.878   7.674   3.198 -2.4560 -0.3309  1.1462
  536MOL0     H72305   2.718   7.602   3.051  2.3116  1.5908 -2.0336
  536MOL0     H72306   2.871   7.570   2.973 -2.7476  1.6566 -1.6655
  536MOL0     H72307   2.696   7.365   3.136  0.4030  0.5183  0.6943
  536MOL0     H72308   2.827   7.308   3.039 -0.6869  0.3347 -1.6617
  536MOL0     H72309   2.613   7.259   2.930  0.1189 -0.2493  2.0822
  536MOL0     H72310   2.557   7.417   2.918 -1.2835 -1.5693 -1.8349
  536MOL0     H72311   2.916   7.285   2.825 -0.3859 -1.2159 -0.7446
  536MOL0     H72312   2.991   7.210   2.541  0.4777  0.3302 -0.4610
  536MOL0     H72313   2.950   7.345   2.434  1.7360 -0.5898  0.1527
  536MOL0     H72314   3.068   7.512   2.582  0.0782 -0.1024  1.0693
  536MOL0     H72315   3.107   7.380   2.689  0.7356 -1.1128  0.0190
  536MOL0     H72316   3.177   7.388   2.384 -0.9866  0.7931  0.6950
  536MOL0     H72317   3.195   7.249   2.482 -0.1961  0.3079  2.2613
  536MOL0     H72318   3.347   7.411   2.636  4.0063  0.1138 -1.0259
  536MOL0     H72319   3.322   7.523   2.505 -1.2418 -0.4993 -2.1559
  536MOL0     H72320   3.556   7.492   2.671  0.3331 -2.1698  0.8639
  536MOL0     H72321   3.756   7.513   2.707 -1.0999  2.0698 -0.5992
  536MOL0     H72322   4.092   7.735   2.592  1.9655 -0.0255 -2.3991
  536MOL0     H72323   4.333   7.832   2.618 -3.2294  0.2564 -1.4096
  536MOL0     H72324   4.568   7.842   2.620 -2.0008 -1.3494  0.4303
  536MOL0     H72325   4.544   7.854   2.795 -0.7694 -1.8051  0.9836
  536MOL0     H72326   4.785   7.733   2.663 -3.2232  0.1076 -0.7429
  536MOL0     H72327   4.795   7.901   2.714  1.4802 -0.1637  3.4520
  536MOL0     H72328   4.736   7.860   2.945 -1.5456 -1.3846  0.0341
  536MOL0     H72329   4.727   7.682   2.905 -0.9177  0.5783  1.5313
  536MOL0     H72330   4.962   7.855   2.876 -0.9664  1.2113  0.4234
  536MOL0     H72331   4.963   7.685   2.834  4.1361  4.3615 -1.7841
  536MOL0     H72332   4.895   7.659   3.097 -0.1497 -1.9517 -3.9296
  536MOL0     H72333   4.966   7.831   3.103  1.0553  0.6033 -0.1465
  536MOL0     H72334   5.096   7.573   3.025  0.7858 -0.2264  1.2050
  536MOL0     H72335   5.167   7.729   3.005  0.9557 -2.1253 -0.7714
  536MOL0     H72336   5.093   7.575   3.242  0.4755 -1.7176 -2.3849
  536MOL0     H72337   5.085   7.753   3.263 -2.4363 -0.6912  0.0172
  536MOL0     H72338   5.294   7.653   3.331  1.0927  4.8882  1.3137
  536MOL0     H72339   5.332   7.608   3.166 -2.7616 -1.6984  0.3497
  536MOL0     H72340   4.456   7.454   2.772  0.0612 -1.9443 -3.1282
  536MOL0     H72341   4.219   7.373   2.771 -0.0201  0.0811 -1.0758
  536MOL0     H72342   3.849   7.291   2.336 -1.3048 -1.1035 -0.8634
  536MOL0     H72343   3.595   7.246   2.324 -1.8350 -0.8492  1.4088
  536MOL0     H72344   3.609   7.730   3.310 -0.1702 -1.3754  0.6700
  536MOL0     H72345   3.809   7.815   3.438 -1.5278  0.7682 -1.6927
  536MOL0     H72346   3.901   7.926   3.926 -0.8713  1.7789  0.1357
  536MOL0     H72347   4.068   7.966   4.077 -0.2236 -1.5262 -0.2090
  536MOL0     H72348   4.397   8.107   4.208 -0.6854  1.8845  0.8074
  536MOL0     H72349   4.260   7.997   4.177  1.0951 -1.0379  1.6950
  536MOL0     H72350   4.097   8.172   4.226 -0.2507  1.0714 -1.0847
  536MOL0     H72351   4.229   8.295   4.219  1.1434  1.0585  2.5907
  536MOL0     H72352   4.160   8.250   4.458 -0.3487 -2.9419  3.9995
  536MOL0     H72353   4.322   8.241   4.415  1.3322 -0.6917  0.2125
  536MOL0     H72354   4.316   7.983   4.418  1.2428  1.7870  0.1372
  536MOL0     H72355   4.256   8.062   4.566 -0.9992  1.0028  0.4841
  536MOL0     H72356   3.899   7.899   4.395  1.0598 -5.2168  3.0661
  536MOL0     H72357   4.287   8.201   3.805  0.3912 -1.5794 -1.7027
  536MOL0     H72358   4.124   8.096   3.519  4.8037  1.1417 -0.3313
  536MOL0     H72359   4.046   8.257   3.572  2.5895  2.5192 -0.4838
  536MOL0     H72360   4.222   8.220   3.580 -0.9027  3.0886 -0.5636
  537MOL0     O72361   9.709   5.607   5.396 -0.1792 -0.4916  0.0949
  537MOL0     C72362   9.728   5.521   5.479  0.6431 -0.6438 -0.8025
  537MOL0     O72363   9.813   5.421   5.468 -0.4112  0.1356  0.4949
  537MOL0     C72364   9.905   5.418   5.364 -0.3095  0.5051  0.2330
  537MOL0     C72365   9.890   5.353   5.242  0.0324  0.1273  0.9382
  537MOL0     C72366   9.995   5.339   5.144 -0.2453  0.2193 -0.2437
  537MOL0     C72367  10.122   5.391   5.181 -0.1377  0.8689 -0.3882
  537MOL0     O72368  10.235   5.371   5.106 -0.0222  0.0456  0.3442
  537MOL0     C72369  10.229   5.436   4.978  0.1586  0.0433 -0.4908
  537MOL0     C72370  10.353   5.406   4.902  0.6547  0.2334  1.1302
  537MOL0     C72371  10.473   5.467   4.977 -0.4339  0.0852  0.7555
  537MOL0     C72372  10.617   5.450   4.905 -0.3065 -0.2356  0.1542
  537MOL0     C72373  10.720   5.511   4.999  0.4841  0.4416  0.1528
  537MOL0     C72374  10.746   5.413   5.117 -0.7838 -0.1854  0.4113
  537MOL0     C72375  10.888   5.430   5.177  0.8227  0.0785  0.2663
  537MOL0     C72376  10.904   5.329   5.289  0.3281 -0.3847  0.1201
  537MOL0     N72377  11.039   5.346   5.345 -0.8011  0.5264 -0.1776
  537MOL0     C72378  11.100   5.452   5.412 -0.2534  0.3317 -0.4763
  537MOL0     C72379  11.218   5.403   5.452  0.4852  0.4197  0.2716
  537MOL0     C72380  11.336   5.467   5.532  0.7106 -0.0354 -0.2523
  537MOL0     C72381  11.448   5.508   5.434  0.3958  0.0144 -0.3358
  537MOL0     C72382  11.574   5.528   5.518 -0.8611 -0.2098  0.3777
  537MOL0     C72383  11.581   5.668   5.578 -0.0286  0.2681 -0.6456
  537MOL0     O72384  11.675   5.665   5.684 -0.2177 -0.0260  0.6159
  537MOL0     C72385  11.814   5.673   5.656  0.0030 -0.6546  0.5366
  537MOL0     C72386  11.895   5.686   5.770  0.0404 -0.2291 -0.7524
  537MOL0     C72387  12.036   5.673   5.763 -0.6469  0.6093  0.3132
  537MOL0     C72388  12.096   5.675   5.634 -0.1721 -0.0127 -0.1892
  537MOL0     C72389  12.237   5.643   5.620 -0.5097  0.0837  0.0360
  537MOL0     O72390  12.282   5.608   5.495 -0.1916 -0.3739  0.0234
  537MOL0     C72391  12.413   5.617   5.454  1.1151 -0.0536 -0.8659
  537MOL0     C72392  12.449   5.553   5.340 -0.7032  0.0410 -0.2466
  537MOL0     C72393  12.580   5.536   5.296 -0.2219 -0.2667 -0.5229
  537MOL0     C72394  12.688   5.600   5.366 -0.5304 -0.5562  0.4196
  537MOL0     O72395  12.816   5.569   5.335  0.4038  0.1036  0.1593
  537MOL0     C72396  12.875   5.644   5.238  0.2481  0.2739 -0.8075
  537MOL0     C72397  13.032   5.644   5.248  0.3142  0.1849  0.8103
  537MOL0     C72398  13.096   5.632   5.107  0.3164  0.0778 -0.6895
  537MOL0     C72399  13.245   5.593   5.110  0.5206 -0.1629 -0.5705
  537MOL0     C72400  13.344   5.704   5.164 -0.2379  0.1644  0.5233
  537MOL0     C72401  13.389   5.814   5.061 -0.5531  0.2189  0.3239
  537MOL0     C72402  13.522   5.881   5.102  0.2678 -0.0418  0.7258
  537MOL0     C72403  13.513   5.945   5.242 -1.0234 -0.0902 -0.1998
  537MOL0    Cl72404  13.665   6.042   5.264 -0.4383  0.4840 -0.4634
  537MOL0     C72405  12.654   5.678   5.485 -0.3530 -0.4048  1.1449
  537MOL0     C72406  12.515   5.685   5.524  0.0228 -0.3884  0.3864
  537MOL0     O72407  12.307   5.656   5.719  0.1494  0.2011 -0.0964
  537MOL0     C72408  12.014   5.697   5.516 -0.1892 -0.6104 -0.6204
  537MOL0     C72409  11.877   5.679   5.536  0.2840 -0.5093 -0.3877
  537MOL0     N72410  11.229   5.274   5.399 -0.8533 -0.7819  0.3334
  537MOL0     N72411  11.121   5.242   5.334  0.1049  0.2077 -0.4853
  537MOL0     C72412  10.137   5.443   5.305  0.0831 -0.4625  1.0467
  537MOL0     C72413  10.031   5.460   5.395 -0.1900 -0.0142  0.1171
  537MOL0     C72414   9.636   5.523   5.598 -0.0505  0.3222 -0.0308
  537MOL0     C72415   9.499   5.505   5.572  0.7042  0.7109 -0.9806
  537MOL0     C72416   9.404   5.504   5.686  0.1930 -0.3100  0.0552
  537MOL0     C72417   9.445   5.527   5.817  0.3240 -0.4649 -0.0705
  537MOL0     O72418   9.345   5.526   5.909 -0.0964  0.8379 -0.4906
  537MOL0     C72419   9.384   5.453   6.027 -0.3397  0.2080 -0.4441
  537MOL0     C72420   9.282   5.340   6.076 -0.6805 -0.2389  0.2672
  537MOL0     C72421   9.237   5.255   5.959 -0.0331 -0.8593 -0.5927
  537MOL0     C72422   9.135   5.151   6.011  0.2032  0.3266  0.5051
  537MOL0     C72423   9.199   5.044   6.089  0.1357  0.1214 -0.2312
  537MOL0     C72424   9.242   4.945   6.144 -0.5849 -0.3297 -0.1711
  537MOL0     C72425   9.588   5.549   5.835 -0.2915  0.4433 -0.4556
  537MOL0     C72426   9.681   5.556   5.728 -0.1847  0.2989 -0.2641
  537MOL0     C72427   9.829   5.590   5.758 -0.8238  0.1527  0.4698
  537MOL0     H72428   9.791   5.310   5.228  0.3435 -1.2843  2.6531
  537MOL0     H72429   9.981   5.281   5.054 -0.7574  0.0144 -0.0366
  537MOL0     H72430  10.143   5.400   4.921 -1.0199 -0.3220  1.4470
  537MOL0     H72431  10.217   5.541   5.004  1.2933  0.0503  0.0784
  537MOL0     H72432  10.344   5.424   4.794  0.4124 -2.2474  0.6702
  537MOL0     H72433  10.366   5.297   4.901 -2.2989 -0.2630 -1.5417
  537MOL0     H72434  10.471   5.425   5.078  1.1461  0.1966  0.8531
  537MOL0     H72435  10.458   5.574   4.992  2.7861  1.1126 -2.0396
  537MOL0     H72436  10.637   5.347   4.874  1.0058 -0.3402  1.2515
  537MOL0     H72437  10.617   5.515   4.817 -2.6603  0.7285  0.8052
  537MOL0     H72438  10.815   5.517   4.945 -0.1756  0.5738 -1.0136
  537MOL0     H72439  10.685   5.604   5.044 -0.5971 -0.0651  0.4066
  537MOL0     H72440  10.679   5.446   5.197  0.4400  1.2812  0.8747
  537MOL0     H72441  10.729   5.307   5.094 -0.7201 -0.0690 -0.1656
  537MOL0     H72442  10.905   5.533   5.211 -1.9730  0.3690  1.0328
  537MOL0     H72443  10.961   5.409   5.098  0.7816 -1.7080  0.6781
  537MOL0     H72444  10.824   5.345   5.362 -1.1859 -0.8428 -1.3641
  537MOL0     H72445  10.903   5.229   5.244  2.3161 -0.5789  0.4028
  537MOL0     H72446  11.070   5.555   5.428 -1.2815 -0.0684  0.2002
  537MOL0     H72447  11.308   5.555   5.591 -1.3371 -0.3463 -0.6579
  537MOL0     H72448  11.376   5.395   5.603 -0.1347 -0.4771 -0.2073
  537MOL0     H72449  11.453   5.423   5.365 -0.6536 -1.2784  1.1143
  537MOL0     H72450  11.428   5.597   5.373  0.7892  1.7673  1.9468
  537MOL0     H72451  11.650   5.534   5.439 -1.5200 -0.5764 -0.2930
  537MOL0     H72452  11.590   5.448   5.590  2.3143 -2.4912 -2.5624
  537MOL0     H72453  11.482   5.693   5.617 -0.1626 -0.2105 -0.6669
  537MOL0     H72454  11.598   5.749   5.507 -0.1705  1.7445  0.9629
  537MOL0     H72455  11.845   5.689   5.866 -1.6007  0.2570 -1.5924
  537MOL0     H72456  12.107   5.676   5.844  2.0152  2.5686 -1.8827
  537MOL0     H72457  12.369   5.501   5.289 -0.2358  0.7360 -1.7501
  537MOL0     H72458  12.599   5.480   5.205 -2.2477 -1.6924 -0.1450
  537MOL0     H72459  12.835   5.608   5.143  0.3699  1.4597 -1.3264
  537MOL0     H72460  12.834   5.745   5.246 -1.4198 -0.3471 -1.1729
  537MOL0     H72461  13.072   5.733   5.295 -1.0935  1.9061 -1.0330
  537MOL0     H72462  13.064   5.557   5.306  1.6141 -2.5964 -3.5138
  537MOL0     H72463  13.043   5.560   5.046  0.6065  0.3397 -1.2612
  537MOL0     H72464  13.097   5.731   5.060 -0.1250 -1.1625 -3.4781
  537MOL0     H72465  13.289   5.578   5.011 -1.0711 -0.0892 -1.3235
  537MOL0     H72466  13.257   5.503   5.171 -5.3777 -1.4699 -0.7182
  537MOL0     H72467  13.432   5.653   5.205 -1.6510 -2.8673  0.0280
  537MOL0     H72468  13.294   5.763   5.242  0.7435  3.0390 -0.8577
  537MOL0     H72469  13.407   5.765   4.965  0.5220 -0.3163  0.7803
  537MOL0     H72470  13.310   5.889   5.044 -1.6234 -1.1312 -0.9858
  537MOL0     H72471  13.548   5.957   5.028  0.9501 -1.6559 -0.7480
  537MOL0     H72472  13.601   5.805   5.096 -0.6197 -0.8379 -2.1056
  537MOL0     H72473  13.431   6.018   5.245 -0.1309  0.9012  0.4706
  537MOL0     H72474  13.508   5.871   5.323 -0.1891 -0.4575 -0.4723
  537MOL0     H72475  12.737   5.729   5.533 -0.1569 -0.5093  0.9194
  537MOL0     H72476  12.493   5.737   5.616 -1.3157  1.6030 -0.9856
  537MOL0     H72477  12.063   5.698   5.420  0.0686  0.3416 -0.4863
  537MOL0     H72478  11.814   5.669   5.448  0.8655 -0.3271 -0.8331
  537MOL0     H72479  10.237   5.474   5.333 -0.2443  2.1361 -0.3050
  537MOL0     H72480  10.048   5.515   5.486 -1.2782  0.0354  0.3023
  537MOL0     H72481   9.459   5.502   5.471  0.1556 -3.3374 -0.8421
  537MOL0     H72482   9.298   5.489   5.668  0.3183  1.4616 -2.8424
  537MOL0     H72483   9.396   5.530   6.103  2.3319 -0.5934  0.0412
  537MOL0     H72484   9.482   5.404   6.020 -1.5193 -2.4249  0.1498
  537MOL0     H72485   9.198   5.385   6.131  0.1138  0.0046  1.3254
  537MOL0     H72486   9.337   5.275   6.145 -1.3135 -1.1819 -0.1139
  537MOL0     H72487   9.325   5.207   5.914  1.5944  1.5914 -0.2330
  537MOL0     H72488   9.184   5.312   5.883  0.4078 -1.6191 -1.4901
  537MOL0     H72489   9.064   5.206   6.074 -0.1441  1.9116 -1.1613
  537MOL0     H72490   9.088   5.101   5.926  3.1132 -1.6702 -0.0756
  537MOL0     H72491   9.274   4.867   6.211  2.7562  1.7837  0.9816
  537MOL0     H72492   9.620   5.569   5.937  1.3243 -0.6421 -0.7085
  537MOL0     H72493   9.886   5.641   5.680 -0.5525 -2.0380 -0.8582
  537MOL0     H72494   9.822   5.661   5.841 -0.7947  1.6267 -0.7415
  537MOL0     H72495   9.886   5.505   5.796  0.2032  0.5814 -0.0710
  538MOL0     O72496   9.924   2.468   7.262  0.0197 -0.0755 -0.0609
  538MOL0     C72497   9.892   2.400   7.364  0.1569 -0.2336  0.1635
  538MOL0     O72498   9.983   2.360   7.453  0.0392  0.1842 -0.4309
  538MOL0     C72499  10.120   2.357   7.418 -0.9764 -0.2001 -0.3378
  538MOL0     C72500  10.164   2.285   7.300 -0.4304 -0.1232 -0.7159
  538MOL0     C72501  10.294   2.295   7.252  0.0330 -0.7194 -0.0019
  538MOL0     C72502  10.391   2.367   7.330 -0.2882 -0.4570  0.2080
  538MOL0     O72503  10.522   2.366   7.304  0.1197 -0.5427  0.3597
  538MOL0     C72504  10.556   2.265   7.206  0.5321 -1.0614  0.0232
  538MOL0     C72505  10.705   2.268   7.200 -0.4913 -0.2432 -0.5095
  538MOL0     C72506  10.779   2.278   7.334  0.7171 -0.8226  0.1877
  538MOL0     C72507  10.927   2.247   7.323  0.7158  0.0326 -0.4439
  538MOL0     C72508  10.989   2.280   7.461 -0.4061  0.7734  0.4013
  538MOL0     C72509  11.133   2.225   7.465 -0.1042 -0.4757  0.9680
  538MOL0     C72510  11.204   2.251   7.597  0.1647 -0.4109  0.1524
  538MOL0     C72511  11.253   2.392   7.609 -0.3813  0.3334  0.8513
  538MOL0     N72512  11.320   2.433   7.730 -0.2157  0.3999 -0.3445
  538MOL0     C72513  11.368   2.362   7.839 -0.4692 -0.2504 -0.3741
  538MOL0     C72514  11.404   2.454   7.928  0.3009 -0.4296 -0.2223
  538MOL0     C72515  11.465   2.420   8.058  0.4440 -0.1980 -0.0177
  538MOL0     C72516  11.602   2.348   8.037 -0.3206  0.1033  0.0142
  538MOL0     C72517  11.709   2.447   7.992 -0.0926  0.4012 -0.3676
  538MOL0     C72518  11.855   2.384   7.979 -0.1794 -0.4948 -0.1815
  538MOL0     O72519  11.935   2.496   7.952 -0.0241 -0.2402  0.0913
  538MOL0     C72520  12.051   2.515   8.024 -0.3163  0.0750  1.8687
  538MOL0     C72521  12.096   2.644   8.056  0.1024 -0.3128 -0.9370
  538MOL0     C72522  12.229   2.661   8.097 -0.0346 -0.2492  0.3174
  538MOL0     C72523  12.315   2.554   8.117 -0.1734  0.2033 -0.4288
  538MOL0     C72524  12.450   2.569   8.167 -1.2798  0.3513  0.5464
  538MOL0     O72525  12.487   2.697   8.204  0.3079  0.7133 -0.3186
  538MOL0     C72526  12.610   2.734   8.238  0.3538  0.2880  0.1315
  538MOL0     C72527  12.688   2.659   8.332  0.0658 -0.3477 -0.1804
  538MOL0     C72528  12.822   2.700   8.364 -0.2516 -1.0305 -0.5134
  538MOL0     C72529  12.869   2.821   8.308 -0.5568  0.2936 -0.8358
  538MOL0     O72530  12.990   2.877   8.343  0.1262 -0.1863  0.5244
  538MOL0     C72531  13.046   2.828   8.458 -0.4686 -0.5049  0.3634
  538MOL0     C72532  13.151   2.929   8.498  0.0906  0.1905  0.3383
  538MOL0     C72533  13.264   2.933   8.379  0.4302  0.1436  0.8132
  538MOL0     C72534  13.369   3.037   8.417 -0.1463  0.0630  0.7136
  538MOL0     C72535  13.458   3.076   8.298  0.1151 -0.2468 -0.8843
  538MOL0     C72536  13.592   3.147   8.331  0.3506  0.1773  1.0098
  538MOL0     C72537  13.565   3.261   8.430 -0.0180 -0.0968  0.2934
  538MOL0     C72538  13.700   3.324   8.461 -0.5474 -0.1957  0.1527
  538MOL0    Cl72539  13.732   3.444   8.323 -0.0911 -0.0846 -0.1069
  538MOL0     C72540  12.787   2.889   8.221 -0.0956  0.3312 -0.8097
  538MOL0     C72541  12.656   2.849   8.185 -0.0312 -0.2408 -0.6803
  538MOL0     O72542  12.527   2.474   8.153 -0.4133  0.6411 -0.7714
  538MOL0     C72543  12.262   2.424   8.095 -0.4764 -0.5942  0.8586
  538MOL0     C72544  12.129   2.407   8.049  0.3013  0.0749 -0.7522
  538MOL0     N72545  11.383   2.580   7.869  0.2520 -0.0358  0.1217
  538MOL0     N72546  11.326   2.566   7.755 -0.2785 -0.6405  0.8357
  538MOL0     C72547  10.351   2.428   7.454  1.2044  0.2064 -0.2759
  538MOL0     C72548  10.215   2.419   7.491 -0.1640 -0.9066 -0.9158
  538MOL0     C72549   9.751   2.371   7.402 -0.9383 -0.3133 -0.1613
  538MOL0     C72550   9.732   2.274   7.506  0.4488 -0.0000 -0.0555
  538MOL0     C72551   9.599   2.232   7.546 -0.6259 -0.6848 -0.4702
  538MOL0     C72552   9.489   2.282   7.483  0.0813 -0.7256 -0.2318
  538MOL0     O72553   9.374   2.238   7.515 -0.0673 -0.0835  0.1730
  538MOL0     C72554   9.263   2.322   7.489 -0.1760 -0.3853 -0.1862
  538MOL0     C72555   9.140   2.253   7.551  0.3939  0.1548 -0.5575
  538MOL0     C72556   9.011   2.353   7.545  0.4713  0.2943  0.3728
  538MOL0     C72557   8.883   2.271   7.568  0.0712  0.3916  0.1138
  538MOL0     C72558   8.782   2.367   7.558  0.5174 -0.5443  0.3631
  538MOL0     C72559   8.688   2.439   7.540 -0.4615  0.1072 -0.2798
  538MOL0     C72560   9.513   2.371   7.377  0.1123  0.0606 -0.7667
  538MOL0     C72561   9.636   2.415   7.337  0.0347 -0.3872 -1.3301
  538MOL0     C72562   9.642   2.512   7.219  0.0619 -0.4773 -0.7487
  538MOL0     H72563  10.080   2.238   7.249 -1.1001 -1.9865  1.8661
  538MOL0     H72564  10.314   2.246   7.158  1.3309  0.8794 -0.5994
  538MOL0     H72565  10.520   2.174   7.254 -0.9300 -0.2657  0.4905
  538MOL0     H72566  10.523   2.283   7.103 -0.2165  0.5199  0.5133
  538MOL0     H72567  10.741   2.357   7.149  1.4917  0.3202  1.7238
  538MOL0     H72568  10.739   2.172   7.159  0.3237 -1.3274  2.4879
  538MOL0     H72569  10.725   2.216   7.406  2.7924 -1.0529  1.6350
  538MOL0     H72570  10.766   2.381   7.369  0.7746 -0.5365 -0.5997
  538MOL0     H72571  10.931   2.141   7.295 -1.1590 -0.4737  0.9569
  538MOL0     H72572  10.968   2.319   7.252  0.7986  1.2211  0.7782
  538MOL0     H72573  10.978   2.388   7.477  0.2713  0.5863  2.5727
  538MOL0     H72574  10.940   2.231   7.546  0.8076  0.2916  0.8526
  538MOL0     H72575  11.134   2.117   7.448  0.9312 -0.1744 -1.2303
  538MOL0     H72576  11.206   2.262   7.392  2.4231 -1.0575  3.0358
  538MOL0     H72577  11.286   2.180   7.609 -1.9117 -2.7996  1.1774
  538MOL0     H72578  11.121   2.231   7.665 -2.7656  1.0407 -2.7485
  538MOL0     H72579  11.313   2.417   7.521 -0.4516 -0.3809  0.5883
  538MOL0     H72580  11.163   2.454   7.610 -0.0832  0.7761  0.5184
  538MOL0     H72581  11.381   2.257   7.865  3.1106  1.1692  5.3704
  538MOL0     H72582  11.483   2.513   8.114  1.5313 -0.9326  0.8778
  538MOL0     H72583  11.402   2.356   8.121  0.6200 -1.2641 -0.8927
  538MOL0     H72584  11.627   2.298   8.131  0.8312  1.2093  0.3356
  538MOL0     H72585  11.605   2.265   7.966  1.3938  0.8011 -0.7993
  538MOL0     H72586  11.708   2.532   8.060  0.1652  1.3485 -1.5111
  538MOL0     H72587  11.673   2.485   7.896 -0.4892  3.7755  0.9899
  538MOL0     H72588  11.863   2.303   7.906  0.6299 -0.6225  0.0356
  538MOL0     H72589  11.871   2.345   8.080 -2.1130 -3.0524 -0.7664
  538MOL0     H72590  12.032   2.730   8.042  2.8083  1.7595 -1.3811
  538MOL0     H72591  12.267   2.760   8.121 -0.8692  0.1391  0.0831
  538MOL0     H72592  12.662   2.566   8.382  1.0127 -0.0802  0.8485
  538MOL0     H72593  12.882   2.642   8.434 -2.2955  0.6189  2.8934
  538MOL0     H72594  12.991   2.835   8.552  2.5334  2.0334  2.1456
  538MOL0     H72595  13.079   2.724   8.450  4.7666  0.4110  4.2108
  538MOL0     H72596  13.107   3.027   8.519 -2.9387 -1.2368  1.2919
  538MOL0     H72597  13.200   2.888   8.586 -0.6796 -3.4316 -0.7584
  538MOL0     H72598  13.310   2.834   8.373  1.3493  0.5938  0.3449
  538MOL0     H72599  13.218   2.953   8.282 -0.7727  1.3381  1.5944
  538MOL0     H72600  13.438   2.984   8.484  1.9923 -0.4805 -1.7371
  538MOL0     H72601  13.323   3.116   8.476  2.0828 -0.2312  3.0610
  538MOL0     H72602  13.410   3.150   8.235  0.2638 -0.3621 -1.1341
  538MOL0     H72603  13.481   2.988   8.237  2.2006  0.2763 -0.9128
  538MOL0     H72604  13.668   3.079   8.371 -0.7756 -1.1444  0.9752
  538MOL0     H72605  13.636   3.185   8.238  1.3996 -2.9530  0.1236
  538MOL0     H72606  13.542   3.206   8.521 -1.1123 -0.7790 -0.3772
  538MOL0     H72607  13.490   3.335   8.402  0.0199 -0.3104 -0.4010
  538MOL0     H72608  13.699   3.387   8.551 -1.4385  2.1614 -1.4068
  538MOL0     H72609  13.775   3.247   8.478  1.5634  1.7312  0.1776
  538MOL0     H72610  12.819   2.981   8.174 -1.9951  1.0434 -0.7846
  538MOL0     H72611  12.596   2.898   8.109 -2.9784 -0.1986  1.4830
  538MOL0     H72612  12.326   2.338   8.112 -1.4325 -2.1015 -2.4595
  538MOL0     H72613  12.095   2.307   8.023  1.4769 -0.6214  0.2871
  538MOL0     H72614  10.417   2.483   7.520 -0.4481  0.4070  1.2940
  538MOL0     H72615  10.176   2.473   7.577 -0.5042 -1.6197 -0.6211
  538MOL0     H72616   9.816   2.228   7.556 -0.0253 -0.7549  0.0545
  538MOL0     H72617   9.577   2.168   7.631  0.2154 -1.3212 -0.7155
  538MOL0     H72618   9.253   2.344   7.383 -0.9850 -0.4188 -0.1241
  538MOL0     H72619   9.273   2.418   7.540  0.8939 -0.7980  0.4122
  538MOL0     H72620   9.164   2.235   7.656 -0.6374  1.9258  0.0290
  538MOL0     H72621   9.130   2.156   7.501  1.8116 -1.2698  1.7826
  538MOL0     H72622   9.005   2.405   7.449  1.7608 -1.5987 -0.7852
  538MOL0     H72623   9.014   2.429   7.624 -1.2941 -0.4119  1.1838
  538MOL0     H72624   8.855   2.192   7.497 -1.5340  1.6537 -0.7083
  538MOL0     H72625   8.875   2.221   7.665 -1.9079  0.5072  0.0396
  538MOL0     H72626   8.608   2.506   7.514 -0.5365  0.6345  1.2123
  538MOL0     H72627   9.431   2.407   7.315  0.4774  0.8711 -0.7976
  538MOL0     H72628   9.544   2.538   7.179 -0.4955  0.7566  1.2620
  538MOL0     H72629   9.698   2.603   7.243  0.8577 -0.7550 -1.5071
  538MOL0     H72630   9.693   2.477   7.128 -2.4308 -0.6378 -2.1695
  539MOL0     O72631   1.392   2.147   2.392 -0.0783  0.0717 -0.2551
  539MOL0     C72632   1.349   2.245   2.448  0.9827  0.2346  1.0620
  539MOL0     O72633   1.420   2.340   2.508 -0.2855  0.4823 -0.0788
  539MOL0     C72634   1.557   2.314   2.518  0.2526  0.0085 -0.0660
  539MOL0     C72635   1.606   2.206   2.592  0.1276  0.0983  0.3743
  539MOL0     C72636   1.741   2.185   2.606 -0.3171  0.0269 -0.1473
  539MOL0     C72637   1.830   2.284   2.555 -0.2755 -0.4226 -0.2174
  539MOL0     O72638   1.964   2.258   2.582 -0.0377  0.4385  0.2580
  539MOL0     C72639   2.056   2.345   2.514  0.9299  1.1254  0.0539
  539MOL0     C72640   2.204   2.302   2.545  0.6417  0.0718  0.4549
  539MOL0     C72641   2.305   2.423   2.534  0.3646 -0.0120 -0.5100
  539MOL0     C72642   2.441   2.366   2.490  0.0104 -1.0575  0.2805
  539MOL0     C72643   2.536   2.481   2.463 -1.0185  0.1448 -0.2174
  539MOL0     C72644   2.674   2.417   2.446  0.1788  0.0533  0.5052
  539MOL0     C72645   2.788   2.523   2.417 -0.0349 -0.0103 -0.5853
  539MOL0     C72646   2.928   2.475   2.441  0.0496 -1.0205  0.5798
  539MOL0     N72647   3.020   2.588   2.414  0.5783  0.6225 -0.0377
  539MOL0     C72648   3.152   2.593   2.466  0.1355  0.1985  0.6241
  539MOL0     C72649   3.200   2.705   2.407 -0.1237 -0.6245 -0.5118
  539MOL0     C72650   3.338   2.775   2.423  0.7742 -0.4075  0.4634
  539MOL0     C72651   3.454   2.682   2.389 -0.4242  0.4739  0.6145
  539MOL0     C72652   3.589   2.720   2.465 -0.8464  0.3129  0.9141
  539MOL0     C72653   3.713   2.642   2.420 -0.2144  0.0509  0.3593
  539MOL0     O72654   3.749   2.673   2.285 -0.1294  0.1290  0.4567
  539MOL0     C72655   3.867   2.623   2.238  0.2138  0.6996  0.5218
  539MOL0     C72656   3.989   2.671   2.279 -0.5343 -0.0447 -0.9803
  539MOL0     C72657   4.107   2.616   2.234 -0.4438  0.3638  0.5351
  539MOL0     C72658   4.102   2.520   2.139  1.1218 -0.1827 -0.1309
  539MOL0     C72659   4.233   2.474   2.092  0.6871 -1.0506  0.0172
  539MOL0     O72660   4.340   2.507   2.174 -0.4218  0.1736  0.0869
  539MOL0     C72661   4.468   2.450   2.154  0.5003  0.5252  0.3718
  539MOL0     C72662   4.526   2.429   2.031 -0.3943  0.4194 -0.2475
  539MOL0     C72663   4.661   2.383   2.028 -0.8322  0.2671  0.4524
  539MOL0     C72664   4.723   2.326   2.144  0.3754  0.1811 -0.5602
  539MOL0     O72665   4.850   2.264   2.138 -0.3659 -0.5826 -0.1517
  539MOL0     C72666   4.835   2.121   2.134 -0.3434  0.1245  0.0241
  539MOL0     C72667   4.968   2.054   2.108  0.0564 -0.4682  0.6986
  539MOL0     C72668   5.038   2.105   1.980  0.0198 -0.6189 -0.4715
  539MOL0     C72669   5.146   2.013   1.920  0.2907 -0.0273 -0.3690
  539MOL0     C72670   5.242   1.960   2.023 -1.1350  0.5493 -0.2123
  539MOL0     C72671   5.368   1.895   1.961 -0.1712 -1.1861  0.5900
  539MOL0     C72672   5.459   1.842   2.072  0.4013 -0.0788  0.1403
  539MOL0     C72673   5.591   1.799   1.995  0.4043 -0.2323  0.0081
  539MOL0    Cl72674   5.679   1.937   1.938  0.1457 -0.5001 -0.0554
  539MOL0     C72675   4.662   2.346   2.267 -0.3287 -0.4658 -0.1268
  539MOL0     C72676   4.539   2.419   2.267  0.0026  0.1285 -0.5717
  539MOL0     O72677   4.233   2.399   1.995  0.8428 -0.1624  0.6895
  539MOL0     C72678   3.980   2.475   2.085  1.0323 -1.1232 -0.0087
  539MOL0     C72679   3.860   2.526   2.141 -0.9890 -0.2649 -0.9801
  539MOL0     N72680   3.101   2.770   2.332  0.1157 -0.7703  0.4472
  539MOL0     N72681   2.994   2.686   2.333 -0.0449 -0.0138 -0.3840
  539MOL0     C72682   1.780   2.397   2.477  0.5324  0.0794  0.1010
  539MOL0     C72683   1.639   2.402   2.459 -0.5038 -0.2536 -0.0568
  539MOL0     C72684   1.199   2.244   2.464  0.4272 -0.6809  0.5764
  539MOL0     C72685   1.140   2.376   2.457 -0.8241  0.6200 -0.4182
  539MOL0     C72686   1.007   2.398   2.491  0.2377 -0.7067 -0.8294
  539MOL0     C72687   0.916   2.293   2.496 -0.1389  0.0098  0.4626
  539MOL0     O72688   0.783   2.329   2.513  0.1450  0.2364  0.0881
  539MOL0     C72689   0.682   2.229   2.533  0.2397  0.4360  0.0854
  539MOL0     C72690   0.573   2.296   2.617 -0.0390 -1.3390 -0.7121
  539MOL0     C72691   0.497   2.402   2.541 -0.1172 -1.2476  0.1832
  539MOL0     C72692   0.380   2.465   2.613  0.8052 -0.2508 -0.4635
  539MOL0     C72693   0.243   2.431   2.582 -0.3425  0.1754 -0.5543
  539MOL0     C72694   0.136   2.377   2.556  0.2475 -0.3110 -0.1916
  539MOL0     C72695   0.971   2.165   2.490  0.9466 -0.2065 -0.3083
  539MOL0     C72696   1.108   2.137   2.490 -0.3563  0.4422  0.0742
  539MOL0     C72697   1.160   1.998   2.518  0.4235  0.1188  0.1555
  539MOL0     H72698   1.550   2.126   2.640  1.2233 -2.1529 -1.8248
  539MOL0     H72699   1.771   2.095   2.658  0.5737  0.2408 -0.2813
  539MOL0     H72700   2.032   2.332   2.408  0.1713 -1.6837  0.4759
  539MOL0     H72701   2.042   2.450   2.540 -1.7598  0.5885  1.1813
  539MOL0     H72702   2.236   2.231   2.468  3.0198  0.0089  1.4117
  539MOL0     H72703   2.209   2.244   2.638  1.8085 -1.2734 -0.4160
  539MOL0     H72704   2.312   2.470   2.632 -0.4486  2.2611 -1.4669
  539MOL0     H72705   2.282   2.495   2.455  3.0444 -0.6616 -2.0322
  539MOL0     H72706   2.481   2.302   2.569 -1.0753  1.4000  3.0431
  539MOL0     H72707   2.436   2.298   2.404  2.1058 -0.0753 -0.6736
  539MOL0     H72708   2.507   2.544   2.378 -0.0448  0.6930 -0.1692
  539MOL0     H72709   2.541   2.554   2.544 -2.5947  2.4536 -2.0496
  539MOL0     H72710   2.690   2.376   2.546 -2.5161  1.2751  1.5290
  539MOL0     H72711   2.667   2.338   2.370  2.4360 -1.7238  2.0176
  539MOL0     H72712   2.757   2.600   2.488 -2.2320 -0.1049 -1.3710
  539MOL0     H72713   2.782   2.570   2.318 -2.5819 -0.8954 -0.9280
  539MOL0     H72714   2.943   2.437   2.542 -2.0545 -2.1217  0.5355
  539MOL0     H72715   2.943   2.391   2.371 -1.6193  0.6951 -2.0157
  539MOL0     H72716   3.196   2.535   2.547  1.5034  2.5014  1.6084
  539MOL0     H72717   3.341   2.871   2.371 -2.9083 -0.0751  0.6104
  539MOL0     H72718   3.347   2.806   2.528  3.8436 -0.9861  0.4551
  539MOL0     H72719   3.421   2.579   2.407 -1.1315  0.4058 -0.9438
  539MOL0     H72720   3.484   2.701   2.285  0.0150 -0.9108  0.4683
  539MOL0     H72721   3.582   2.708   2.573  1.4489 -2.9105  0.8452
  539MOL0     H72722   3.600   2.826   2.441 -0.2210  0.2412  0.8679
  539MOL0     H72723   3.688   2.535   2.417 -0.3302  0.0357  1.3988
  539MOL0     H72724   3.799   2.687   2.471 -0.8299 -0.5827  2.0496
  539MOL0     H72725   4.001   2.755   2.347  1.9567 -1.2615  0.2490
  539MOL0     H72726   4.198   2.668   2.263 -1.0678  1.5540  0.4579
  539MOL0     H72727   4.475   2.460   1.940  0.5569 -0.8110 -1.2619
  539MOL0     H72728   4.701   2.364   1.929 -1.4416 -0.2931  0.3031
  539MOL0     H72729   4.806   2.089   2.234 -0.8698 -1.0611 -0.4807
  539MOL0     H72730   4.756   2.088   2.065  0.9238 -1.9469 -0.5387
  539MOL0     H72731   5.035   2.062   2.194 -1.5911 -0.7344  2.0539
  539MOL0     H72732   4.938   1.950   2.091  0.8391 -0.2257 -2.9437
  539MOL0     H72733   4.963   2.127   1.904 -1.9727 -2.6344  0.7766
  539MOL0     H72734   5.086   2.193   2.025 -3.2836  1.0439  0.1311
  539MOL0     H72735   5.203   2.075   1.851  0.3431 -0.0988 -0.3888
  539MOL0     H72736   5.099   1.924   1.877 -1.6281 -0.0554  1.6297
  539MOL0     H72737   5.186   1.891   2.087 -0.0770  0.1682  0.3114
  539MOL0     H72738   5.286   2.039   2.084  2.8248 -1.3888 -0.2322
  539MOL0     H72739   5.335   1.805   1.907 -2.2350  1.1597 -2.3912
  539MOL0     H72740   5.418   1.965   1.894 -0.2294 -1.2438  0.4853
  539MOL0     H72741   5.405   1.759   2.118 -1.0738  0.3390 -0.7413
  539MOL0     H72742   5.483   1.915   2.149  1.1919  2.0057 -1.9649
  539MOL0     H72743   5.651   1.727   2.051  0.5377  0.2837  0.5446
  539MOL0     H72744   5.564   1.739   1.908  1.3186 -0.4922 -0.0976
  539MOL0     H72745   4.710   2.305   2.356 -3.9751 -3.1102  0.8666
  539MOL0     H72746   4.495   2.444   2.363 -0.7001 -1.9163 -0.3137
  539MOL0     H72747   3.981   2.393   2.013  0.3598 -2.4916  1.4645
  539MOL0     H72748   3.764   2.485   2.110 -1.3877  0.5493 -0.8376
  539MOL0     H72749   1.842   2.470   2.427 -0.0853  0.1093 -0.6437
  539MOL0     H72750   1.602   2.493   2.412  2.6446  1.6755  0.8608
  539MOL0     H72751   1.196   2.462   2.422 -0.0177  0.1968 -0.1840
  539MOL0     H72752   0.975   2.501   2.491  2.4866  0.0871  1.3689
  539MOL0     H72753   0.718   2.136   2.578  2.1603  0.7901 -0.6144
  539MOL0     H72754   0.636   2.197   2.439  0.1213 -4.5936  1.5451
  539MOL0     H72755   0.614   2.332   2.712 -1.6233  1.5402 -1.0286
  539MOL0     H72756   0.505   2.213   2.642 -1.0605 -0.1297  0.6934
  539MOL0     H72757   0.465   2.349   2.451 -2.7484 -3.7806  2.3884
  539MOL0     H72758   0.563   2.485   2.516  0.2738 -2.5143 -3.4981
  539MOL0     H72759   0.390   2.461   2.722  2.5683 -1.6832 -0.6239
  539MOL0     H72760   0.378   2.571   2.589  0.2819 -0.1095  0.1943
  539MOL0     H72761   0.034   2.346   2.543  0.6563 -1.4958 -0.7024
  539MOL0     H72762   0.899   2.084   2.495  0.4533  0.1848 -1.0184
  539MOL0     H72763   1.221   1.951   2.440  0.8837  2.0669 -0.7185
  539MOL0     H72764   1.221   2.001   2.609 -2.1559  1.7822  1.9469
  539MOL0     H72765   1.074   1.931   2.529  0.3943 -0.4109 -2.6229
  540MOL0     O72766   4.562   0.083  10.956 -0.4865  0.6420  0.5409
  540MOL0     C72767   4.473   0.110  10.876  0.3440  0.2330 -0.6960
  540MOL0     O72768   4.483   0.121  10.746  0.5608  0.2651  0.0507
  540MOL0     C72769   4.602   0.141  10.680 -0.4570  0.7766 -0.5017
  540MOL0     C72770   4.720   0.191  10.743 -1.0112  0.6091 -0.5502
  540MOL0     C72771   4.822   0.253  10.668  0.0004 -0.5860  0.0487
  540MOL0     C72772   4.806   0.260  10.526  0.7222 -0.2208 -0.7874
  540MOL0     O72773   4.906   0.324  10.454 -0.0376  0.3119 -0.0552
  540MOL0     C72774   4.933   0.276  10.324 -0.2493  0.1831 -0.2811
  540MOL0     C72775   5.084   0.288  10.287 -0.5719 -0.4626 -0.5663
  540MOL0     C72776   5.138   0.424  10.324 -0.0682 -0.3864  0.2916
  540MOL0     C72777   5.279   0.454  10.260  0.4180 -0.0574  0.1297
  540MOL0     C72778   5.332   0.587  10.310  0.7892  0.2578 -0.0044
  540MOL0     C72779   5.360   0.607  10.466 -0.5037  0.9350  0.6463
  540MOL0     C72780   5.400   0.751  10.496  0.4762  0.7313  0.4073
  540MOL0     C72781   5.408   0.759  10.643 -0.4605 -0.6485 -0.1107
  540MOL0     N72782   5.432   0.891  10.699  0.4005 -0.2251  0.2257
  540MOL0     C72783   5.468   0.907  10.828  0.6588 -0.4567  0.4518
  540MOL0     C72784   5.492   1.039  10.848 -0.2736 -0.2367 -0.0427
  540MOL0     C72785   5.535   1.103  10.976  0.6687 -0.2927  0.0798
  540MOL0     C72786   5.465   1.231  11.002 -0.4847 -0.1863  0.4309
  540MOL0     C72787   5.533   1.311  11.113  0.4598  0.3173 -0.2653
  540MOL0     C72788   5.467   1.442  11.146 -0.4516  0.0731  0.4864
  540MOL0     O72789   5.474   1.530  11.028  0.3538  0.2136 -0.1139
  540MOL0     C72790   5.425   1.660  11.035  0.5243  0.4637 -0.5480
  540MOL0     C72791   5.447   1.749  10.929 -0.1351  0.8838 -0.0805
  540MOL0     C72792   5.422   1.886  10.937  0.5104  0.3562  0.4874
  540MOL0     C72793   5.353   1.936  11.041  0.0541 -0.3643 -0.3727
  540MOL0     C72794   5.318   2.080  11.041  0.2567 -0.4190 -0.1862
  540MOL0     O72795   5.289   2.140  11.159  0.4065  0.9299 -0.4048
  540MOL0     C72796   5.284   2.275  11.165  0.0416 -0.3705  0.8593
  540MOL0     C72797   5.169   2.347  11.117  0.0356  0.5226  0.1400
  540MOL0     C72798   5.165   2.484  11.114  0.1591  0.1186 -0.0025
  540MOL0     C72799   5.273   2.550  11.167 -0.4732 -0.3823 -0.0384
  540MOL0     O72800   5.256   2.688  11.174 -0.0979  0.0703 -0.2309
  540MOL0     C72801   5.364   2.773  11.122 -0.5927  0.6459 -0.1663
  540MOL0     C72802   5.318   2.911  11.122 -0.3983  0.9148 -0.5061
  540MOL0     C72803   5.295   2.984  11.257  0.1736  0.0303 -0.2136
  540MOL0     C72804   5.433   3.025  11.320 -0.7481  0.4447  0.0209
  540MOL0     C72805   5.405   3.095  11.458  0.0273 -0.8397 -0.1042
  540MOL0     C72806   5.530   3.120  11.542 -0.0620 -0.7904  0.6883
  540MOL0     C72807   5.583   2.988  11.603  0.0304 -0.2491  0.8118
  540MOL0     C72808   5.680   3.010  11.708  0.3997 -0.2296  0.1770
  540MOL0    Cl72809   5.840   3.080  11.665  0.0598 -0.1493 -0.3309
  540MOL0     C72810   5.390   2.485  11.220  0.0075 -0.2548 -0.1433
  540MOL0     C72811   5.399   2.345  11.211  0.1141 -1.1901  0.3795
  540MOL0     O72812   5.343   2.142  10.938  0.3573  0.2127  0.6403
  540MOL0     C72813   5.314   1.853  11.145  0.0330 -0.4712 -0.3170
  540MOL0     C72814   5.347   1.715  11.139  0.6744  0.7484 -0.1257
  540MOL0     N72815   5.495   1.100  10.723  0.4996 -0.8942  0.5679
  540MOL0     N72816   5.460   1.005  10.637 -0.0931 -0.3201  0.3675
  540MOL0     C72817   4.687   0.213  10.464 -0.6888  0.7225  0.0258
  540MOL0     C72818   4.589   0.153  10.545  0.4603  0.0062 -0.7617
  540MOL0     C72819   4.339   0.133  10.939  0.0614 -0.2706 -0.0097
  540MOL0     C72820   4.245   0.215  10.872  0.3474  0.1106  0.4368
  540MOL0     C72821   4.121   0.247  10.920  0.1432  0.5370  0.0396
  540MOL0     C72822   4.088   0.212  11.053  0.2268 -0.1604  1.0766
  540MOL0     O72823   3.973   0.245  11.119  0.9719  0.6133 -0.0652
  540MOL0     C72824   3.895   0.363  11.069  0.1180 -0.0771  0.6259
  540MOL0     C72825   3.783   0.394  11.175 -0.3505  0.0938  0.2286
  540MOL0     C72826   3.846   0.435  11.309  0.0443  0.5755 -0.4195
  540MOL0     C72827   3.731   0.446  11.412  0.0066 -0.1947 -0.9860
  540MOL0     C72828   3.779   0.445  11.552  0.0753 -0.0241 -0.1247
  540MOL0     C72829   3.827   0.445  11.664 -0.9389  0.1656  1.0986
  540MOL0     C72830   4.170   0.132  11.117 -0.0979  0.1128 -0.2642
  540MOL0     C72831   4.287   0.080  11.058 -0.0397 -0.4683 -0.3699
  540MOL0     C72832   4.352  -0.034  11.138 -0.2640  0.1610 -0.1575
  540MOL0     H72833   4.741   0.185  10.849  1.1209  1.8771 -0.8297
  540MOL0     H72834   4.902   0.296  10.728  2.0228 -2.8879 -0.8374
  540MOL0     H72835   4.904   0.171  10.311 -3.8210  0.8911  0.6282
  540MOL0     H72836   4.878   0.337  10.252  0.2202 -2.3101 -2.9114
  540MOL0     H72837   5.096   0.269  10.180 -1.4128 -3.1335 -0.2645
  540MOL0     H72838   5.140   0.210  10.340 -1.8639  0.6689  2.7772
  540MOL0     H72839   5.139   0.427  10.433 -0.2930 -1.2239  0.3252
  540MOL0     H72840   5.067   0.501  10.291  0.3040  0.2621  0.9813
  540MOL0     H72841   5.355   0.377  10.275  2.0583  1.6894  1.0770
  540MOL0     H72842   5.264   0.465  10.152  0.1318  0.9264  0.2601
  540MOL0     H72843   5.420   0.620  10.254  0.9314  3.3867  1.7816
  540MOL0     H72844   5.247   0.653  10.290 -0.7116 -1.4369  0.5135
  540MOL0     H72845   5.267   0.585  10.519  0.8548 -1.5052  2.2352
  540MOL0     H72846   5.444   0.539  10.488 -0.5745  0.6960  0.1933
  540MOL0     H72847   5.317   0.817  10.468 -0.6299 -1.3173 -1.4662
  540MOL0     H72848   5.496   0.783  10.453  0.4728  0.1238 -0.0705
  540MOL0     H72849   5.315   0.725  10.690 -0.3772 -1.8855 -0.7960
  540MOL0     H72850   5.488   0.691  10.673 -0.5373 -0.4317  0.6088
  540MOL0     H72851   5.475   0.833  10.907  0.0022  1.1954  2.1395
  540MOL0     H72852   5.530   1.032  11.058  1.5824  0.2387  0.6054
  540MOL0     H72853   5.642   1.123  10.975  0.9765 -1.7994  1.0619
  540MOL0     H72854   5.455   1.292  10.911 -1.2060 -1.6562 -0.5152
  540MOL0     H72855   5.363   1.210  11.034 -0.7556 -0.9052 -0.8187
  540MOL0     H72856   5.640   1.325  11.100  0.7685  0.8827  2.2345
  540MOL0     H72857   5.519   1.239  11.195 -1.5087 -1.8414 -2.3375
  540MOL0     H72858   5.511   1.484  11.237  0.8955 -2.1620  0.9378
  540MOL0     H72859   5.359   1.428  11.160 -0.9540 -2.8876 -4.1180
  540MOL0     H72860   5.489   1.702  10.841  2.2258  1.5636  0.6177
  540MOL0     H72861   5.444   1.944  10.848  2.2377  1.5877  1.6572
  540MOL0     H72862   5.094   2.279  11.078  2.3689 -3.3715  1.8594
  540MOL0     H72863   5.078   2.529  11.067  0.3441 -0.1562 -0.6180
  540MOL0     H72864   5.448   2.755  11.190 -0.7606 -1.3619 -0.4445
  540MOL0     H72865   5.393   2.739  11.023  0.0366 -2.0679  0.8688
  540MOL0     H72866   5.393   2.973  11.071  1.2188 -0.8191 -0.3457
  540MOL0     H72867   5.224   2.913  11.066 -0.8651  2.5303  0.2829
  540MOL0     H72868   5.232   3.066  11.224 -0.1269  0.2246  0.7992
  540MOL0     H72869   5.238   2.924  11.329 -2.5651 -2.5995 -4.2080
  540MOL0     H72870   5.487   3.091  11.252 -0.8560  2.7978  2.0844
  540MOL0     H72871   5.497   2.939  11.338 -1.3277  0.3494  1.8425
  540MOL0     H72872   5.334   3.035  11.515  0.0014 -0.3035  0.4386
  540MOL0     H72873   5.358   3.194  11.450 -2.6872 -2.0396 -0.2830
  540MOL0     H72874   5.612   3.164  11.484  0.0285  0.5342  1.7978
  540MOL0     H72875   5.511   3.197  11.616  0.1015 -1.0612  1.0168
  540MOL0     H72876   5.623   2.918  11.529  0.4919  2.7440 -2.0219
  540MOL0     H72877   5.496   2.931  11.637 -1.4505  0.8508 -0.8944
  540MOL0     H72878   5.628   3.068  11.785  3.7443  1.5177  1.3431
  540MOL0     H72879   5.699   2.911  11.748 -0.3096 -0.5339 -0.2160
  540MOL0     H72880   5.467   2.553  11.257 -1.2653 -0.5510  3.4488
  540MOL0     H72881   5.480   2.286  11.252 -1.6580 -2.6348  2.0241
  540MOL0     H72882   5.243   1.897  11.215 -0.9705  1.5263 -2.4727
  540MOL0     H72883   5.307   1.650  11.216 -1.0967  1.0097 -0.7736
  540MOL0     H72884   4.683   0.223  10.356 -0.3016  0.6700  0.0055
  540MOL0     H72885   4.497   0.117  10.500  0.1687 -0.6036  0.2731
  540MOL0     H72886   4.274   0.240  10.771  0.8916  1.0598  0.8184
  540MOL0     H72887   4.047   0.297  10.858  0.7431  0.0897 -1.0681
  540MOL0     H72888   3.848   0.342  10.973  0.0703  2.2081  0.0954
  540MOL0     H72889   3.954   0.453  11.045  0.8788 -0.8311 -0.4040
  540MOL0     H72890   3.724   0.302  11.182 -1.6143  0.7259 -1.4652
  540MOL0     H72891   3.726   0.481  11.140  1.1922  1.3034  0.5735
  540MOL0     H72892   3.910   0.523  11.301  2.8219 -1.3022 -0.5031
  540MOL0     H72893   3.910   0.350  11.335 -1.3467 -0.5436 -0.4939
  540MOL0     H72894   3.676   0.538  11.394 -3.2575 -1.9958 -0.9746
  540MOL0     H72895   3.654   0.369  11.399  0.3796 -0.7072 -0.2254
  540MOL0     H72896   3.882   0.471  11.752  1.6950 -0.0088 -0.3724
  540MOL0     H72897   4.139   0.100  11.216 -1.4284  0.0622 -0.6768
  540MOL0     H72898   4.372   0.009  11.237 -0.4295  0.7591 -0.3806
  540MOL0     H72899   4.290  -0.124  11.151 -0.6225  0.6316  1.7748
  540MOL0     H72900   4.441  -0.074  11.089 -0.0446  0.8369 -0.3197
  541MOL0     O72901   8.220   8.599   0.194 -0.3400  0.1747 -0.5736
  541MOL0     C72902   8.177   8.669   0.288 -0.6017  0.1746  0.1084
  541MOL0     O72903   8.235   8.785   0.341  0.1012 -0.1056 -0.2858
  541MOL0     C72904   8.355   8.816   0.290  0.8213  0.2939  0.1001
  541MOL0     C72905   8.358   8.850   0.156  0.5139  1.0200 -0.4433
  541MOL0     C72906   8.488   8.883   0.104  0.4214  0.0746 -0.0982
  541MOL0     C72907   8.609   8.883   0.189 -0.0782 -0.1538  0.5193
  541MOL0     O72908   8.730   8.929   0.157  0.5905  0.3449 -0.5960
  541MOL0     C72909   8.747   8.987   0.025 -0.3349  0.1777  1.1429
  541MOL0     C72910   8.859   9.088   0.011  0.1479  0.2282 -0.0515
  541MOL0     C72911   8.998   9.031  -0.010 -0.3157  0.2898 -0.8045
  541MOL0     C72912   9.108   9.142   0.010  0.1045 -0.2376 -0.2351
  541MOL0     C72913   9.257   9.092  -0.025  0.9262  0.2134  0.2073
  541MOL0     C72914   9.353   9.204  -0.045  0.0588 -0.2351 -0.3184
  541MOL0     C72915   9.466   9.220   0.064  0.8409 -0.2599  0.2789
  541MOL0     C72916   9.598   9.167   0.005  0.1436 -0.0904 -0.6428
  541MOL0     N72917   9.712   9.180   0.093  0.4811  0.1594  0.0531
  541MOL0     C72918   9.750   9.300   0.149 -0.7611  0.5392 -0.1118
  541MOL0     C72919   9.857   9.262   0.229 -0.0712 -1.0578  0.0228
  541MOL0     C72920   9.943   9.356   0.313 -0.7984 -0.4645 -0.6428
  541MOL0     C72921   9.983   9.483   0.237 -0.3929  0.3336  0.5062
  541MOL0     C72922  10.101   9.548   0.309 -0.4447 -0.4393  0.5154
  541MOL0     C72923  10.109   9.696   0.294 -0.3316  0.1081  0.0240
  541MOL0     O72924  10.220   9.747   0.369  0.0970  0.1737 -0.9753
  541MOL0     C72925  10.347   9.751   0.326  0.0325 -0.7382 -0.0761
  541MOL0     C72926  10.399   9.684   0.207  0.0711 -0.0523 -0.2124
  541MOL0     C72927  10.532   9.688   0.182 -0.1434  0.2473 -0.2791
  541MOL0     C72928  10.615   9.775   0.249 -0.0125  0.5028  0.6176
  541MOL0     C72929  10.754   9.801   0.205  0.4003  0.0112 -0.3471
  541MOL0     O72930  10.790   9.768   0.077  0.6625  0.0595  0.4760
  541MOL0     C72931  10.913   9.797   0.040 -0.2558  0.2506 -0.6047
  541MOL0     C72932  10.998   9.688   0.018  0.3858 -0.1424 -0.3960
  541MOL0     C72933  11.129   9.699  -0.033  0.1607 -0.0994  0.2160
  541MOL0     C72934  11.185   9.828  -0.032  0.7029 -0.6534  0.3798
  541MOL0     O72935  11.316   9.836  -0.068  0.6988 -0.0785 -1.0845
  541MOL0     C72936  11.370   9.968  -0.037 -0.4013  0.7614 -0.2622
  541MOL0     C72937  11.390  10.002   0.113  0.5344 -0.4002  0.2480
  541MOL0     C72938  11.499   9.923   0.177 -0.1118  0.2699 -1.5830
  541MOL0     C72939  11.518   9.965   0.325  0.3847  0.2036  0.2671
  541MOL0     C72940  11.639   9.899   0.386  0.1996  0.0838 -0.3863
  541MOL0     C72941  11.637   9.926   0.546 -0.0408 -0.2302  0.7786
  541MOL0     C72942  11.635  10.079   0.576 -0.4181 -0.0777  0.4203
  541MOL0     C72943  11.659  10.109   0.722  0.7155  0.3148 -0.1194
  541MOL0    Cl72944  11.833  10.066   0.763  0.0520  0.0739 -0.2550
  541MOL0     C72945  11.100   9.937  -0.004  0.6929  0.2290  0.8872
  541MOL0     C72946  10.963   9.920   0.033 -0.8700  0.3524 -0.1298
  541MOL0     O72947  10.826   9.857   0.292 -0.0575  0.2744  0.0810
  541MOL0     C72948  10.560   9.843   0.359 -1.0386 -0.1393 -0.2528
  541MOL0     C72949  10.435   9.833   0.397 -0.4865 -0.0688 -0.6412
  541MOL0     N72950   9.882   9.120   0.221  0.4112 -0.4853 -0.2859
  541MOL0     N72951   9.785   9.082   0.138  0.3376  0.1810 -0.3626
  541MOL0     C72952   8.597   8.851   0.326 -0.7411 -0.0504 -0.2340
  541MOL0     C72953   8.470   8.811   0.369 -0.0383  0.2122 -0.1620
  541MOL0     C72954   8.044   8.638   0.329  0.8571 -0.2379 -0.2581
  541MOL0     C72955   7.952   8.735   0.330 -0.0266 -1.2374  0.2465
  541MOL0     C72956   7.817   8.711   0.363  0.0209  1.2598  0.6710
  541MOL0     C72957   7.773   8.582   0.402 -0.0895 -0.1601 -0.8883
  541MOL0     O72958   7.645   8.574   0.435 -0.3386  0.6737  0.7508
  541MOL0     C72959   7.596   8.441   0.479 -1.1445 -0.4114  1.1700
  541MOL0     C72960   7.440   8.444   0.487 -0.1516 -0.2964  0.3144
  541MOL0     C72961   7.393   8.580   0.531 -0.3610  0.4072  0.1061
  541MOL0     C72962   7.245   8.576   0.579  0.9592 -0.3006 -0.3076
  541MOL0     C72963   7.155   8.524   0.468  0.6791 -0.1141 -0.4768
  541MOL0     C72964   7.082   8.467   0.394  0.4006  1.1595  0.0931
  541MOL0     C72965   7.872   8.482   0.417 -0.1921 -0.1346  0.0509
  541MOL0     C72966   8.000   8.509   0.383 -1.5676 -0.4775  0.3341
  541MOL0     C72967   8.104   8.396   0.402  0.3858 -0.4295  0.3705
  541MOL0     H72968   8.271   8.847   0.092  0.6293 -1.5964 -0.5878
  541MOL0     H72969   8.498   8.910  -0.001 -0.0013 -0.7629 -0.3618
  541MOL0     H72970   8.770   8.914  -0.052  3.4711  2.3042  0.0173
  541MOL0     H72971   8.657   9.042  -0.005  0.1565  0.7076  0.6092
  541MOL0     H72972   8.858   9.163   0.091  0.1455  1.4884 -1.1981
  541MOL0     H72973   8.829   9.146  -0.077 -0.1722  0.2435  0.0639
  541MOL0     H72974   9.008   8.998  -0.114  0.3746  0.0427 -0.6651
  541MOL0     H72975   9.017   8.946   0.056  1.3161  0.8590 -0.5053
  541MOL0     H72976   9.092   9.232  -0.049  0.7433  0.8579  1.1839
  541MOL0     H72977   9.100   9.170   0.116  0.9398 -0.7455 -0.0289
  541MOL0     H72978   9.297   9.022   0.049 -2.8490 -2.1201  0.3191
  541MOL0     H72979   9.251   9.026  -0.112  2.1067  1.7708 -1.1085
  541MOL0     H72980   9.403   9.199  -0.142  1.3355 -0.0889  0.3137
  541MOL0     H72981   9.297   9.298  -0.050  0.5374 -0.0053 -1.6044
  541MOL0     H72982   9.443   9.157   0.150 -0.2194  1.0285  0.9832
  541MOL0     H72983   9.476   9.323   0.100  1.6276 -1.3741  3.6228
  541MOL0     H72984   9.586   9.063  -0.030 -0.8325  0.5640 -2.3892
  541MOL0     H72985   9.617   9.220  -0.089 -0.3604 -0.5763 -1.0289
  541MOL0     H72986   9.712   9.399   0.124 -0.3255  0.5623 -0.7116
  541MOL0     H72987   9.893   9.381   0.407  1.3181 -5.0206  2.0241
  541MOL0     H72988  10.036   9.307   0.340  0.8274  2.0692 -1.2553
  541MOL0     H72989  10.000   9.452   0.134 -1.6920 -1.8373  0.8825
  541MOL0     H72990   9.898   9.552   0.241 -1.1887 -0.6350  0.8580
  541MOL0     H72991  10.190   9.509   0.257 -0.8260  1.1836 -1.4970
  541MOL0     H72992  10.107   9.531   0.417 -0.5120 -2.3726  0.2401
  541MOL0     H72993  10.018   9.746   0.327  0.6561  2.1629 -0.2508
  541MOL0     H72994  10.122   9.715   0.187 -3.0295  0.5984 -0.2840
  541MOL0     H72995  10.335   9.625   0.143 -0.0331  1.1721 -1.2711
  541MOL0     H72996  10.574   9.632   0.099 -0.1726  1.9315 -1.4792
  541MOL0     H72997  10.955   9.590   0.036  2.8705 -0.9397  1.9270
  541MOL0     H72998  11.188   9.610  -0.048  0.2848 -0.5742  2.9963
  541MOL0     H72999  11.468   9.973  -0.086 -0.5969 -0.1356 -0.7678
  541MOL0     H73000  11.308  10.039  -0.092 -0.3430  0.3193 -0.8987
  541MOL0     H73001  11.417  10.108   0.124  1.4577 -0.5899 -0.0630
  541MOL0     H73002  11.293   9.992   0.163 -0.7827  0.5350 -1.9356
  541MOL0     H73003  11.467   9.819   0.166  2.4767 -0.8671  0.2934
  541MOL0     H73004  11.598   9.922   0.130 -0.0458 -0.2347 -1.4411
  541MOL0     H73005  11.426   9.946   0.381 -0.4923  1.1817 -0.7721
  541MOL0     H73006  11.539  10.072   0.335 -0.1764  0.4988 -1.3549
  541MOL0     H73007  11.730   9.935   0.337  0.7845  2.3503  2.0898
  541MOL0     H73008  11.632   9.791   0.375 -1.4150  0.1546 -0.3672
  541MOL0     H73009  11.552   9.872   0.590 -0.0082 -0.3421  0.7065
  541MOL0     H73010  11.732   9.894   0.589  0.4305  0.3641  0.2009
  541MOL0     H73011  11.538  10.117   0.543 -0.9728 -1.6832  0.1241
  541MOL0     H73012  11.719  10.127   0.524 -0.6016  1.3090  1.3398
  541MOL0     H73013  11.635  10.210   0.757  2.2938  0.6090  0.2100
  541MOL0     H73014  11.597  10.046   0.785 -0.6755 -0.8688 -2.5493
  541MOL0     H73015  11.134  10.039  -0.022  1.5010 -0.4474 -1.9150
  541MOL0     H73016  10.891  10.000   0.049  0.7180  1.4676  1.9417
  541MOL0     H73017  10.625   9.905   0.419 -2.5603  0.6636  0.6299
  541MOL0     H73018  10.401   9.879   0.489  2.3119  0.3419  0.2665
  541MOL0     H73019   8.679   8.846   0.396  0.5568 -0.8892 -1.7467
  541MOL0     H73020   8.465   8.777   0.472 -0.0326  0.1218 -0.1914
  541MOL0     H73021   7.983   8.831   0.293  0.1200 -1.8243 -1.2130
  541MOL0     H73022   7.744   8.789   0.342 -0.5853  0.1678 -1.6026
  541MOL0     H73023   7.630   8.424   0.582  2.3088  0.1369  0.2352
  541MOL0     H73024   7.629   8.362   0.412 -0.0778  2.0628 -1.4265
  541MOL0     H73025   7.412   8.365   0.557 -0.5695 -0.2387  0.2131
  541MOL0     H73026   7.396   8.417   0.391 -1.4917  0.2365  0.7579
  541MOL0     H73027   7.402   8.651   0.449  0.0279 -1.7881 -1.8584
  541MOL0     H73028   7.459   8.611   0.613 -0.1540  2.2704 -0.7276
  541MOL0     H73029   7.241   8.521   0.674 -1.9845  1.6010  0.8100
  541MOL0     H73030   7.213   8.679   0.601  0.7169  0.0450 -2.1271
  541MOL0     H73031   7.021   8.420   0.319  2.1941 -0.8349 -0.2250
  541MOL0     H73032   7.853   8.380   0.449 -0.2365 -0.5324 -1.1754
  541MOL0     H73033   8.049   8.302   0.402 -0.5381  0.0627  1.9393
  541MOL0     H73034   8.172   8.406   0.317 -1.8537  1.7262 -1.2820
  541MOL0     H73035   8.168   8.404   0.491  3.0733  0.4646 -1.5187
  542MOL0     O73036   4.781   1.183  10.755  0.5905 -0.0232 -0.3692
  542MOL0     C73037   4.737   1.267  10.837 -0.1554  0.5049  0.1512
  542MOL0     O73038   4.800   1.382  10.866  0.0996  0.3420  0.2149
  542MOL0     C73039   4.924   1.399  10.803 -0.1018 -0.0428 -0.2122
  542MOL0     C73040   5.028   1.448  10.885  0.1805  0.3260 -0.4089
  542MOL0     C73041   5.146   1.479  10.826  0.4891  0.0023 -0.0545
  542MOL0     C73042   5.169   1.461  10.692 -0.0102 -0.9213 -0.5798
  542MOL0     O73043   5.291   1.498  10.646  0.5794  1.2010  0.2552
  542MOL0     C73044   5.349   1.384  10.580  0.4172 -0.2212 -0.1935
  542MOL0     C73045   5.493   1.413  10.559  0.1517  0.0440  0.3732
  542MOL0     C73046   5.529   1.497  10.432 -0.3120  0.2331  0.8840
  542MOL0     C73047   5.679   1.510  10.412 -0.7726  0.3619 -0.3355
  542MOL0     C73048   5.760   1.592  10.519  0.4382 -0.7705  0.4990
  542MOL0     C73049   5.909   1.543  10.528 -0.4686 -0.3990  0.0116
  542MOL0     C73050   5.982   1.623  10.636  0.2139 -0.7712 -1.4903
  542MOL0     C73051   6.020   1.768  10.602 -0.6485  0.7137  0.2607
  542MOL0     N73052   6.098   1.792  10.475  0.8318  0.6829 -1.0179
  542MOL0     C73053   6.218   1.743  10.429  0.3387 -0.2084 -0.0894
  542MOL0     C73054   6.252   1.827  10.329 -0.2744 -0.2860  0.3146
  542MOL0     C73055   6.379   1.827  10.255  0.0982 -0.4731  0.4675
  542MOL0     C73056   6.467   1.950  10.281 -0.4459 -0.0301 -0.5535
  542MOL0     C73057   6.613   1.930  10.224  0.5494 -0.4942  0.4512
  542MOL0     C73058   6.720   1.997  10.308 -0.8094  0.9162 -0.8668
  542MOL0     O73059   6.704   2.141  10.315 -0.3975  0.8967 -0.4309
  542MOL0     C73060   6.797   2.217  10.375  0.5308 -0.1790  0.2392
  542MOL0     C73061   6.771   2.353  10.406 -0.0068 -0.2854  0.1257
  542MOL0     C73062   6.873   2.424  10.469 -1.1889 -0.5350  0.1364
  542MOL0     C73063   6.998   2.372  10.505 -1.2397  0.5240  0.2528
  542MOL0     C73064   7.110   2.448  10.562  0.8040  0.1595 -0.1162
  542MOL0     O73065   7.236   2.404  10.567  0.2062  0.2822  0.5217
  542MOL0     C73066   7.340   2.479  10.612  0.3211 -0.4125 -0.5559
  542MOL0     C73067   7.400   2.447  10.736 -0.2803  0.1561 -0.4404
  542MOL0     C73068   7.504   2.522  10.799  0.4075  0.6221  0.5226
  542MOL0     C73069   7.538   2.642  10.743  0.1023 -0.0312  0.4374
  542MOL0     O73070   7.637   2.716  10.803  0.1421  0.2286 -0.4492
  542MOL0     C73071   7.696   2.830  10.739  0.0913  0.9935 -0.0498
  542MOL0     C73072   7.803   2.878  10.840  0.4206 -0.1492  0.0836
  542MOL0     C73073   7.914   2.771  10.879 -0.7361 -0.3025  0.1192
  542MOL0     C73074   8.018   2.838  10.967  0.3816 -0.2385 -0.0656
  542MOL0     C73075   8.137   2.747  10.992  0.7669 -0.1379  0.0033
  542MOL0     C73076   8.122   2.646  11.113  1.1972 -0.0940  0.9499
  542MOL0     C73077   8.233   2.539  11.100 -0.6978  0.0968 -0.5018
  542MOL0     C73078   8.209   2.431  11.200  0.5029 -0.3763  0.1663
  542MOL0    Cl73079   8.180   2.494  11.363  0.0747 -0.1045 -0.4031
  542MOL0     C73080   7.481   2.678  10.622  0.7894  0.3149  0.0860
  542MOL0     C73081   7.383   2.594  10.559 -0.4537 -0.1821 -0.7042
  542MOL0     O73082   7.069   2.549  10.610  0.0567 -0.4897 -0.3375
  542MOL0     C73083   7.025   2.241  10.462  0.3324 -0.2508  0.1366
  542MOL0     C73084   6.924   2.167  10.399  0.0720 -0.5984  0.0720
  542MOL0     N73085   6.155   1.920  10.312  0.5279 -0.0198  0.1430
  542MOL0     N73086   6.066   1.899  10.402  0.6873 -0.8441  0.2107
  542MOL0     C73087   5.070   1.411  10.609 -0.3648 -1.0655 -0.2477
  542MOL0     C73088   4.947   1.379  10.669 -0.1564 -0.4004 -0.5147
  542MOL0     C73089   4.621   1.239  10.931 -0.0998 -0.6958 -0.0667
  542MOL0     C73090   4.578   1.349  11.021  0.0525  0.2211  0.7278
  542MOL0     C73091   4.478   1.333  11.111  0.0227  0.4749 -0.2140
  542MOL0     C73092   4.399   1.219  11.108 -0.5276  0.2592  0.4047
  542MOL0     O73093   4.297   1.220  11.194  0.5080  0.6631 -0.0875
  542MOL0     C73094   4.201   1.110  11.206 -0.0218  0.2550  0.3423
  542MOL0     C73095   4.094   1.155  11.309 -0.5974  0.6461  0.5113
  542MOL0     C73096   3.991   1.254  11.262 -0.8845  0.1390  0.3364
  542MOL0     C73097   3.889   1.298  11.367  0.2455 -0.6458 -0.2257
  542MOL0     C73098   3.819   1.190  11.432  0.2094  0.0499 -0.4211
  542MOL0     C73099   3.768   1.106  11.503 -0.1149  0.5537 -0.5249
  542MOL0     C73100   4.425   1.115  11.016 -0.8553  0.1241  0.2608
  542MOL0     C73101   4.539   1.123  10.929 -0.4272  0.1979  0.4587
  542MOL0     C73102   4.573   1.007  10.839  0.6269  0.2939  0.1475
  542MOL0     H73103   5.026   1.462  10.993 -0.3271 -0.1154 -0.3550
  542MOL0     H73104   5.229   1.526  10.878  1.2989 -0.4422 -0.9196
  542MOL0     H73105   5.327   1.295  10.640 -0.2084  0.9911  1.4309
  542MOL0     H73106   5.303   1.374  10.482 -3.5624  2.2559  1.1866
  542MOL0     H73107   5.550   1.320  10.549  1.5275  0.8201  0.6503
  542MOL0     H73108   5.535   1.460  10.649  0.4898  0.3565  0.0546
  542MOL0     H73109   5.487   1.595  10.458  1.1765  1.1564 -0.0427
  542MOL0     H73110   5.479   1.455  10.344  3.0977  0.6527 -1.4440
  542MOL0     H73111   5.725   1.411  10.412 -1.2290  0.0689  2.7160
  542MOL0     H73112   5.704   1.547  10.312  0.3066 -2.1108 -1.0573
  542MOL0     H73113   5.754   1.695  10.482  1.0837 -0.4838  1.1557
  542MOL0     H73114   5.713   1.586  10.618 -0.7699  0.5068  0.0318
  542MOL0     H73115   5.894   1.439  10.559 -2.8758 -0.1331 -0.0390
  542MOL0     H73116   5.960   1.551  10.432  4.0144 -1.1511  2.0991
  542MOL0     H73117   6.069   1.566  10.668  1.3105  1.7287  0.2153
  542MOL0     H73118   5.916   1.621  10.723  1.7595 -1.4273 -0.2978
  542MOL0     H73119   5.921   1.811  10.583 -0.8184  1.1817  2.0436
  542MOL0     H73120   6.069   1.822  10.683 -0.7866  2.5570 -0.8215
  542MOL0     H73121   6.280   1.658  10.459 -0.9396 -0.3627  2.3598
  542MOL0     H73122   6.435   1.736  10.280 -1.6242 -1.4681  0.8375
  542MOL0     H73123   6.365   1.822  10.147  0.0394 -0.4029  0.4722
  542MOL0     H73124   6.422   2.034  10.227 -2.0441  0.0775  0.8654
  542MOL0     H73125   6.460   1.977  10.387 -0.3477  1.1565 -0.8403
  542MOL0     H73126   6.620   1.966  10.121  1.4091 -2.0440 -0.0628
  542MOL0     H73127   6.641   1.826  10.204 -0.0860 -0.2831 -1.8194
  542MOL0     H73128   6.816   1.964  10.266 -1.2005 -1.5375 -0.0293
  542MOL0     H73129   6.715   1.954  10.409  0.7084 -1.2773 -1.6478
  542MOL0     H73130   6.673   2.388  10.376 -0.2155 -0.8335  0.1462
  542MOL0     H73131   6.850   2.526  10.499 -0.0718 -0.4450  0.7375
  542MOL0     H73132   7.385   2.358  10.797 -1.4282  1.3491  1.0857
  542MOL0     H73133   7.534   2.494  10.900 -0.4593  1.4805  1.0364
  542MOL0     H73134   7.740   2.802  10.644 -0.6800  1.0093 -0.4211
  542MOL0     H73135   7.623   2.912  10.732  0.7641  1.4806 -1.6167
  542MOL0     H73136   7.847   2.975  10.816 -0.4418 -0.2762 -2.2920
  542MOL0     H73137   7.743   2.897  10.930 -3.1147  1.4325 -2.3927
  542MOL0     H73138   7.867   2.690  10.936 -0.1088 -0.3458  0.5895
  542MOL0     H73139   7.961   2.735  10.787  2.6329  2.3686  0.5827
  542MOL0     H73140   7.962   2.859  11.059  1.2245  0.7069  0.2535
  542MOL0     H73141   8.052   2.935  10.927  0.4066  1.4385  3.6327
  542MOL0     H73142   8.233   2.796  11.007 -1.2876  4.1145  0.5765
  542MOL0     H73143   8.142   2.689  10.899  0.0295  0.9017 -0.7118
  542MOL0     H73144   8.129   2.697  11.210  0.6713  0.4692  0.6931
  542MOL0     H73145   8.030   2.588  11.106  2.5218 -2.0901 -2.7303
  542MOL0     H73146   8.325   2.594  11.126  1.0819 -1.1229 -3.7335
  542MOL0     H73147   8.239   2.495  11.000  1.4865 -1.5472  0.2667
  542MOL0     H73148   8.130   2.363  11.165  1.6882 -0.9436 -1.5594
  542MOL0     H73149   8.303   2.376  11.206 -0.5699 -2.5273 -1.3187
  542MOL0     H73150   7.492   2.770  10.565 -3.4843  0.6446 -0.5043
  542MOL0     H73151   7.324   2.628  10.475 -1.3281  2.6495  0.9424
  542MOL0     H73152   7.122   2.194  10.478 -0.4015 -1.4927  1.1305
  542MOL0     H73153   6.954   2.069  10.365  0.2678 -0.6320  0.3357
  542MOL0     H73154   5.095   1.387  10.507  0.8276  0.9557 -0.4893
  542MOL0     H73155   4.869   1.327  10.615  0.1187 -3.3540  1.6546
  542MOL0     H73156   4.642   1.436  11.034  1.8999 -0.4235 -2.8126
  542MOL0     H73157   4.452   1.412  11.181  1.2618  0.0805  0.7161
  542MOL0     H73158   4.248   1.014  11.228 -1.1298 -0.1500  1.0723
  542MOL0     H73159   4.146   1.106  11.111 -2.3710 -2.2429  1.6560
  542MOL0     H73160   4.144   1.199  11.395  0.2493 -0.9204  0.8616
  542MOL0     H73161   4.042   1.067  11.349 -0.5673  0.5887  0.4236
  542MOL0     H73162   3.938   1.202  11.182  0.6521  0.7111 -1.1216
  542MOL0     H73163   4.037   1.341  11.214 -2.7677  1.6818  1.1877
  542MOL0     H73164   3.941   1.371  11.429  1.6151  0.2648 -2.3208
  542MOL0     H73165   3.815   1.362  11.318  0.8539 -0.4863 -0.9671
  542MOL0     H73166   3.723   1.033  11.567  1.7418 -0.7824 -0.6567
  542MOL0     H73167   4.360   1.029  11.021 -2.1312  1.1162  1.5038
  542MOL0     H73168   4.673   0.964  10.849  1.8342  3.0842  1.0383
  542MOL0     H73169   4.511   0.919  10.859  2.8680 -2.1735 -2.7479
  542MOL0     H73170   4.561   1.038  10.735  1.0280  3.5031  0.9696
  543MOL0     O73171   4.894   1.753   8.297  0.3379  0.2190 -0.2231
  543MOL0     C73172   4.822   1.703   8.210 -0.8775  0.0454  0.9625
  543MOL0     O73173   4.686   1.686   8.208  0.5733  0.0098 -0.2036
  543MOL0     C73174   4.608   1.770   8.287  0.2505 -1.1103  0.3397
  543MOL0     C73175   4.482   1.722   8.302 -0.0054  0.0177 -0.6402
  543MOL0     C73176   4.380   1.790   8.368 -0.4750 -0.0583  0.5337
  543MOL0     C73177   4.412   1.914   8.425 -0.0219 -0.5729 -0.4152
  543MOL0     O73178   4.325   1.987   8.499  0.1383  0.1784 -0.4170
  543MOL0     C73179   4.239   2.068   8.429  0.6194  1.0682  0.0834
  543MOL0     C73180   4.133   2.143   8.498 -0.4620 -0.7398 -0.1420
  543MOL0     C73181   4.189   2.256   8.585  0.1568  0.3648  0.3322
  543MOL0     C73182   4.077   2.318   8.674 -0.6104 -0.6555 -0.3084
  543MOL0     C73183   4.115   2.450   8.735 -0.1102 -0.4273 -0.6243
  543MOL0     C73184   3.993   2.513   8.807  0.2714  0.4647  0.0565
  543MOL0     C73185   4.010   2.654   8.856 -0.6942  0.2506  0.3073
  543MOL0     C73186   3.882   2.696   8.925  0.2378 -0.0904  0.0054
  543MOL0     N73187   3.880   2.845   8.943  0.4109 -0.0477  0.1111
  543MOL0     C73188   3.860   2.899   9.064 -0.0724  0.3744 -0.2109
  543MOL0     C73189   3.897   3.024   9.075  0.1028  0.7519 -0.0655
  543MOL0     C73190   3.899   3.116   9.200  0.3036 -0.0111  0.2174
  543MOL0     C73191   4.018   3.096   9.297  0.9259  0.5900  0.3617
  543MOL0     C73192   4.152   3.097   9.227 -1.1460  0.5917  0.3775
  543MOL0     C73193   4.178   3.222   9.140  0.1505  0.4499 -0.0558
  543MOL0     O73194   4.172   3.339   9.217 -0.2664 -0.1587  0.0054
  543MOL0     C73195   4.125   3.455   9.152 -0.2651 -0.1403 -0.4245
  543MOL0     C73196   3.991   3.492   9.150 -0.4177 -0.1884 -0.0458
  543MOL0     C73197   3.948   3.597   9.070  0.6984 -0.6232 -0.9355
  543MOL0     C73198   4.038   3.657   8.985 -0.0247  0.7740  0.1033
  543MOL0     C73199   3.980   3.759   8.888 -0.5982  1.1442  0.2446
  543MOL0     O73200   4.054   3.766   8.780 -0.0540  0.0630 -0.2770
  543MOL0     C73201   4.015   3.847   8.681 -0.3771  0.0526  0.4792
  543MOL0     C73202   4.114   3.908   8.610  0.8422 -0.2505  0.6771
  543MOL0     C73203   4.078   3.995   8.503  0.3242 -0.6437 -0.6299
  543MOL0     C73204   3.953   4.013   8.460  0.6132 -0.4811 -0.1123
  543MOL0     O73205   3.931   4.099   8.356  0.0112  0.0418 -0.0677
  543MOL0     C73206   3.795   4.142   8.329 -0.2223 -0.3281  0.3470
  543MOL0     C73207   3.740   4.040   8.219 -0.9360  0.6796  0.3187
  543MOL0     C73208   3.589   4.007   8.240 -0.4539  0.4529  0.1890
  543MOL0     C73209   3.517   3.935   8.117 -0.1544  0.4036 -1.0168
  543MOL0     C73210   3.368   3.941   8.142  0.8372  0.6829  0.2461
  543MOL0     C73211   3.287   3.899   8.014  0.2760  0.1443 -0.1121
  543MOL0     C73212   3.137   3.893   8.037  1.0036  0.2101  0.0960
  543MOL0     C73213   3.066   3.763   7.975 -0.0276 -0.0207 -0.8881
  543MOL0    Cl73214   3.162   3.608   8.001 -0.2407 -0.1575 -0.1017
  543MOL0     C73215   3.848   3.948   8.527  0.3527  0.2528  0.0689
  543MOL0     C73216   3.881   3.869   8.637  0.2613 -0.9990  0.0376
  543MOL0     O73217   3.887   3.832   8.928 -0.1475 -0.2451  0.1035
  543MOL0     C73218   4.176   3.622   8.989 -0.4259 -0.0568  0.3662
  543MOL0     C73219   4.220   3.529   9.076  0.0511  0.1466 -1.0505
  543MOL0     N73220   3.928   3.059   8.947  0.8441  0.0609  0.7310
  543MOL0     N73221   3.914   2.952   8.867 -0.7951 -0.3723  0.3956
  543MOL0     C73222   4.544   1.966   8.420 -0.2534 -0.4466 -0.6034
  543MOL0     C73223   4.636   1.895   8.346  0.0399 -0.9624  0.9683
  543MOL0     C73224   4.891   1.634   8.092  0.1109 -0.5337  0.1947
  543MOL0     C73225   5.035   1.626   8.088  0.4565 -0.7895 -0.3090
  543MOL0     C73226   5.096   1.568   7.980 -0.6373  0.2272  0.0605
  543MOL0     C73227   5.024   1.512   7.872 -0.8377  0.5132 -0.3596
  543MOL0     O73228   5.082   1.463   7.760 -0.0328 -0.6798  0.2631
  543MOL0     C73229   5.207   1.496   7.713 -0.2856 -0.2656 -0.4578
  543MOL0     C73230   5.211   1.443   7.572  0.1949  0.4063  1.3336
  543MOL0     C73231   5.115   1.493   7.469  1.0255  0.8784  0.7827
  543MOL0     C73232   5.069   1.386   7.365  0.5552  0.5621  0.9466
  543MOL0     C73233   4.985   1.428   7.251 -0.6301  0.1659 -0.4585
  543MOL0     C73234   4.921   1.447   7.150 -0.8349 -0.5047 -0.1352
  543MOL0     C73235   4.886   1.502   7.886 -0.2170 -0.2785 -0.1987
  543MOL0     C73236   4.814   1.576   7.986  0.0647  0.4097  1.1261
  543MOL0     C73237   4.662   1.567   7.978 -0.2441 -0.2037  0.2809
  543MOL0     H73238   4.463   1.622   8.264  1.7617 -0.1200 -1.2555
  543MOL0     H73239   4.281   1.748   8.373 -1.0002  1.0723  0.0132
  543MOL0     H73240   4.310   2.135   8.378  4.2885 -2.5862 -0.1107
  543MOL0     H73241   4.189   2.010   8.351 -0.4777  1.8040  0.2173
  543MOL0     H73242   4.081   2.068   8.558  0.0944  0.2331  1.6146
  543MOL0     H73243   4.063   2.180   8.423 -1.1107 -1.3770  0.1347
  543MOL0     H73244   4.231   2.330   8.517  2.0873 -0.4553  0.5510
  543MOL0     H73245   4.275   2.229   8.647  0.6276  1.4674  0.1731
  543MOL0     H73246   3.981   2.338   8.625  0.3454 -0.1080 -2.0429
  543MOL0     H73247   4.069   2.246   8.756  3.8632 -1.1859 -0.0946
  543MOL0     H73248   4.200   2.446   8.804 -0.4261  2.9305  0.1107
  543MOL0     H73249   4.134   2.521   8.653 -1.1875  0.1934 -0.3456
  543MOL0     H73250   3.908   2.529   8.739 -0.5405 -3.0446  0.0650
  543MOL0     H73251   3.965   2.448   8.890 -2.2070  0.5686 -0.6232
  543MOL0     H73252   4.023   2.715   8.766  0.0002  0.0787  0.2853
  543MOL0     H73253   4.097   2.661   8.920 -0.3938 -2.5916  0.3310
  543MOL0     H73254   3.794   2.664   8.869 -1.1571  1.4956  1.1886
  543MOL0     H73255   3.873   2.637   9.016 -1.7156  0.8992  0.4912
  543MOL0     H73256   3.824   2.850   9.154  2.0236  0.7633  0.9165
  543MOL0     H73257   3.898   3.217   9.157 -1.2903 -0.4128 -0.7878
  543MOL0     H73258   3.810   3.117   9.264  1.4786  2.7145  1.9950
  543MOL0     H73259   4.017   3.163   9.384 -0.5433 -0.1395  0.9443
  543MOL0     H73260   4.009   2.997   9.342  1.5198 -0.2320 -1.2585
  543MOL0     H73261   4.173   3.016   9.157  0.0645  3.7885 -3.3076
  543MOL0     H73262   4.226   3.093   9.307 -1.1845 -0.1341  0.3830
  543MOL0     H73263   4.102   3.226   9.061  1.4797 -1.1993 -1.5113
  543MOL0     H73264   4.274   3.224   9.087 -0.7388  1.2749 -1.7139
  543MOL0     H73265   3.917   3.440   9.209 -3.0409  3.6480  0.4585
  543MOL0     H73266   3.843   3.626   9.069  0.8646 -0.0165 -0.9695
  543MOL0     H73267   4.218   3.903   8.640  0.6402  0.3975  1.5294
  543MOL0     H73268   4.163   4.046   8.458 -1.0667  0.5765 -2.0247
  543MOL0     H73269   3.724   4.144   8.412 -1.0915  0.2317 -0.3938
  543MOL0     H73270   3.793   4.239   8.278  3.1955  0.2543  1.0695
  543MOL0     H73271   3.744   4.087   8.120  0.6999  0.1620  0.1048
  543MOL0     H73272   3.796   3.946   8.216 -2.2586 -0.1152 -0.3943
  543MOL0     H73273   3.576   3.940   8.326 -1.3749 -1.0715 -1.0807
  543MOL0     H73274   3.540   4.102   8.262 -1.5322  0.1736 -0.9155
  543MOL0     H73275   3.541   3.828   8.112  1.2654  0.4774  2.1873
  543MOL0     H73276   3.541   3.975   8.018  2.1312 -3.4320 -2.2327
  543MOL0     H73277   3.329   4.040   8.166 -1.6322  0.2718 -1.6609
  543MOL0     H73278   3.349   3.876   8.228 -2.0336 -2.2679 -2.3354
  543MOL0     H73279   3.305   3.967   7.930 -0.0062  0.6607  0.2308
  543MOL0     H73280   3.328   3.804   7.979  3.6620 -0.2045  3.9639
  543MOL0     H73281   3.087   3.986   8.007 -0.8418 -0.8708 -0.3200
  543MOL0     H73282   3.121   3.892   8.145  0.2128  1.4684  0.0163
  543MOL0     H73283   2.966   3.747   8.014 -0.2680  2.0098 -0.5424
  543MOL0     H73284   3.058   3.767   7.866 -0.0797  1.4255 -0.8598
  543MOL0     H73285   3.745   3.947   8.491 -0.1135 -0.7621  1.3497
  543MOL0     H73286   3.803   3.807   8.680 -1.5779  1.2182  0.0951
  543MOL0     H73287   4.249   3.677   8.931  1.5599  1.5125  4.0105
  543MOL0     H73288   4.326   3.505   9.084 -0.2274 -1.7500 -2.4337
  543MOL0     H73289   4.565   2.061   8.469 -0.0996 -1.2932  1.0285
  543MOL0     H73290   4.725   1.948   8.314 -1.3012  0.6208 -0.3300
  543MOL0     H73291   5.095   1.663   8.171 -0.2234  1.9824 -0.9371
  543MOL0     H73292   5.204   1.571   7.987 -0.6190  0.5169 -0.3362
  543MOL0     H73293   5.284   1.447   7.774  0.3304  1.3889  0.1433
  543MOL0     H73294   5.212   1.605   7.717 -1.1286 -0.2547  0.7549
  543MOL0     H73295   5.207   1.333   7.576  0.9828  0.2358 -0.9003
  543MOL0     H73296   5.313   1.467   7.542 -0.0150 -0.5529 -0.3038
  543MOL0     H73297   5.153   1.583   7.418  2.2457 -0.0565 -0.0036
  543MOL0     H73298   5.029   1.522   7.530  1.5631 -2.2624  3.3072
  543MOL0     H73299   5.161   1.343   7.325 -0.8157 -0.5258 -1.2862
  543MOL0     H73300   5.020   1.305   7.419  0.8693 -0.3078 -0.0354
  543MOL0     H73301   4.848   1.452   7.071 -2.1782  1.7967  1.1350
  543MOL0     H73302   4.827   1.451   7.811 -0.0252  2.0111 -2.0093
  543MOL0     H73303   4.626   1.670   7.977  0.6320  0.1139  0.8080
  543MOL0     H73304   4.625   1.514   7.889  1.8930 -0.5084 -0.4847
  543MOL0     H73305   4.633   1.510   8.067  1.3420  0.4990  1.2963
  544MOL0     O73306   7.493   5.429   4.253 -0.3095  0.0766 -0.5137
  544MOL0     C73307   7.469   5.324   4.304 -0.0095 -0.8616 -0.0727
  544MOL0     O73308   7.555   5.222   4.317 -0.3729  0.2332  0.1057
  544MOL0     C73309   7.685   5.249   4.301  0.5243 -0.2944  0.2425
  544MOL0     C73310   7.762   5.316   4.393 -0.2425  0.3260 -0.3178
  544MOL0     C73311   7.897   5.331   4.364 -0.4576  1.2929 -0.5992
  544MOL0     C73312   7.947   5.278   4.245  0.2512 -0.1340  0.2554
  544MOL0     O73313   8.080   5.298   4.234  0.1659  0.1897 -0.0970
  544MOL0     C73314   8.150   5.253   4.122  0.0081  0.1037  0.0129
  544MOL0     C73315   8.297   5.289   4.156  0.1924 -0.3637 -0.1459
  544MOL0     C73316   8.411   5.236   4.059 -0.5493  0.0189 -0.0812
  544MOL0     C73317   8.549   5.275   4.106  0.0606 -0.2394 -0.3931
  544MOL0     C73318   8.664   5.211   4.027 -0.2386  0.2596  0.1231
  544MOL0     C73319   8.783   5.290   4.083  0.6041  0.2892  0.8873
  544MOL0     C73320   8.928   5.248   4.019  0.0227 -0.7122  0.1894
  544MOL0     C73321   9.033   5.336   4.071  0.1897 -0.2587  0.1999
  544MOL0     N73322   9.178   5.312   4.032 -0.2674 -0.1311 -0.4793
  544MOL0     C73323   9.227   5.303   3.906  0.2143 -0.5918 -0.4395
  544MOL0     C73324   9.357   5.296   3.918  0.4328  0.6995 -0.5093
  544MOL0     C73325   9.452   5.269   3.807 -0.6878 -0.5244 -0.2222
  544MOL0     C73326   9.604   5.290   3.840  1.2316  0.8828  0.0273
  544MOL0     C73327   9.692   5.242   3.730  0.1117 -0.3031  0.3978
  544MOL0     C73328   9.834   5.238   3.778  0.6355 -0.1600  0.4164
  544MOL0     O73329   9.901   5.163   3.674 -0.3099  0.0348  0.0745
  544MOL0     C73330  10.036   5.137   3.676 -0.2459  0.2585  0.2137
  544MOL0     C73331  10.121   5.184   3.776 -0.2684 -0.3412  0.2548
  544MOL0     C73332  10.257   5.148   3.787 -0.2014 -0.2060 -0.7234
  544MOL0     C73333  10.302   5.045   3.706  0.3888 -0.6572  0.2340
  544MOL0     C73334  10.443   5.006   3.708 -0.7633  0.1068 -0.1566
  544MOL0     O73335  10.496   4.930   3.603 -0.6515 -0.1869  0.2413
  544MOL0     C73336  10.624   4.879   3.632 -0.1300 -0.8675 -0.6485
  544MOL0     C73337  10.663   4.824   3.754  1.1015 -0.4356  0.1239
  544MOL0     C73338  10.782   4.754   3.768 -0.0974 -0.2250 -0.9430
  544MOL0     C73339  10.878   4.758   3.671  0.2961  0.3719  0.5618
  544MOL0     O73340  11.007   4.715   3.693  0.0113 -0.4335 -0.5901
  544MOL0     C73341  11.082   4.810   3.773  0.2827  0.5018 -0.2161
  544MOL0     C73342  11.218   4.754   3.800 -0.8114  0.8616  1.0252
  544MOL0     C73343  11.303   4.753   3.667  0.5132  0.1289  0.1966
  544MOL0     C73344  11.403   4.634   3.677 -0.3757  0.3130 -0.1984
  544MOL0     C73345  11.484   4.635   3.552 -0.4411  0.8319  0.6225
  544MOL0     C73346  11.607   4.541   3.580 -0.2237  0.0006  0.2388
  544MOL0     C73347  11.697   4.519   3.454 -0.1190  0.0410 -0.3090
  544MOL0     C73348  11.631   4.403   3.362 -0.1834 -0.5240 -0.0490
  544MOL0    Cl73349  11.633   4.259   3.453  0.1934 -0.0774 -0.2178
  544MOL0     C73350  10.848   4.813   3.548  0.1484 -0.0890  0.2094
  544MOL0     C73351  10.719   4.882   3.528  0.2699 -0.6902 -0.3503
  544MOL0     O73352  10.512   5.057   3.801  0.1573  0.2601  0.2260
  544MOL0     C73353  10.212   4.988   3.609  0.7406  0.7231 -0.5166
  544MOL0     C73354  10.082   5.032   3.596 -0.3578 -0.2904  0.5882
  544MOL0     N73355   9.392   5.333   4.048  0.5832  0.2238  0.2393
  544MOL0     N73356   9.282   5.347   4.107  0.3819  0.1694 -0.5966
  544MOL0     C73357   7.869   5.216   4.148 -0.2394  0.1079 -0.0692
  544MOL0     C73358   7.733   5.210   4.175  0.4116 -0.0232 -0.5417
  544MOL0     C73359   7.322   5.310   4.360 -1.1238 -0.5776 -0.4936
  544MOL0     C73360   7.278   5.188   4.421  0.2479 -0.5186 -0.3076
  544MOL0     C73361   7.153   5.170   4.483 -0.1110  0.4928 -0.5774
  544MOL0     C73362   7.054   5.262   4.463  1.0150  0.0767 -0.0227
  544MOL0     O73363   6.935   5.221   4.523  0.4782 -0.7433  0.0846
  544MOL0     C73364   6.842   5.322   4.567  0.3379  0.9379 -0.0267
  544MOL0     C73365   6.742   5.245   4.654 -0.3775  0.1884 -0.2578
  544MOL0     C73366   6.626   5.330   4.721  0.6879 -0.0093  0.1113
  544MOL0     C73367   6.531   5.245   4.812 -0.4469 -0.0234  1.1103
  544MOL0     C73368   6.435   5.324   4.883  0.1624  0.0581  0.1452
  544MOL0     C73369   6.344   5.394   4.932 -0.8693 -0.0259 -1.2528
  544MOL0     C73370   7.086   5.382   4.399 -0.1050  0.5412 -0.0140
  544MOL0     C73371   7.217   5.409   4.346 -0.3650 -0.1388  0.2463
  544MOL0     C73372   7.225   5.540   4.290  0.3928 -0.9726 -0.2391
  544MOL0     H73373   7.726   5.348   4.491  1.0011 -0.7653  0.5216
  544MOL0     H73374   7.966   5.379   4.433 -0.6546  2.0449 -0.9154
  544MOL0     H73375   8.143   5.149   4.090 -1.3246  0.0634  0.3982
  544MOL0     H73376   8.117   5.314   4.037 -2.2491  2.7668  2.5993
  544MOL0     H73377   8.321   5.228   4.243 -1.3401 -0.3675  0.3039
  544MOL0     H73378   8.301   5.397   4.173 -3.1834 -0.2782  0.6735
  544MOL0     H73379   8.399   5.280   3.959  1.1217 -1.4270 -0.9888
  544MOL0     H73380   8.412   5.128   4.047  1.6204  0.1868 -2.1224
  544MOL0     H73381   8.567   5.383   4.103  2.4987 -0.4357  2.3731
  544MOL0     H73382   8.556   5.248   4.212  1.0331 -2.7213 -1.0320
  544MOL0     H73383   8.673   5.102   4.031  0.5544  0.1834 -2.2871
  544MOL0     H73384   8.665   5.240   3.922 -0.0678  0.4597  0.1800
  544MOL0     H73385   8.768   5.390   4.041  1.0037  0.1045  0.2752
  544MOL0     H73386   8.787   5.293   4.192  1.6104  0.2358  0.8687
  544MOL0     H73387   8.927   5.262   3.911  2.0803 -1.3982  0.0260
  544MOL0     H73388   8.943   5.146   4.054 -0.8122 -1.5421 -1.7159
  544MOL0     H73389   9.013   5.433   4.025  1.9897 -0.8810 -2.0753
  544MOL0     H73390   9.020   5.351   4.179 -2.3342 -0.3276 -0.0378
  544MOL0     H73391   9.171   5.286   3.815  0.8888  0.2059 -1.0132
  544MOL0     H73392   9.449   5.163   3.779  3.1896 -1.1841  1.1610
  544MOL0     H73393   9.432   5.344   3.730  0.2268  0.5565  0.5619
  544MOL0     H73394   9.624   5.393   3.873 -3.0585  1.6935  0.7078
  544MOL0     H73395   9.625   5.229   3.928  0.9921  0.7460 -0.0074
  544MOL0     H73396   9.684   5.312   3.646 -1.2608 -1.3629 -0.4072
  544MOL0     H73397   9.660   5.142   3.700  1.4081 -0.7729  0.5220
  544MOL0     H73398   9.847   5.194   3.878  0.7555 -1.6866 -0.2360
  544MOL0     H73399   9.865   5.342   3.768 -2.7415  1.0847  1.4325
  544MOL0     H73400  10.101   5.260   3.850 -0.1425  0.1639 -0.2236
  544MOL0     H73401  10.321   5.190   3.864 -1.0467 -1.7066  0.8608
  544MOL0     H73402  10.593   4.816   3.836 -0.8076  4.7516 -0.6488
  544MOL0     H73403  10.805   4.696   3.857 -1.0007  0.1246 -0.4742
  544MOL0     H73404  11.098   4.900   3.714  0.2176 -0.2733 -1.4372
  544MOL0     H73405  11.027   4.825   3.867 -2.9973  0.5955 -1.9864
  544MOL0     H73406  11.257   4.813   3.883 -0.6750 -0.0639  1.6314
  544MOL0     H73407  11.208   4.652   3.836  2.0851 -0.5350 -1.6294
  544MOL0     H73408  11.246   4.739   3.575 -1.0877  0.5454  1.0788
  544MOL0     H73409  11.362   4.844   3.653  1.4466 -0.6880 -1.4948
  544MOL0     H73410  11.360   4.535   3.695  0.0497 -0.1971 -1.8592
  544MOL0     H73411  11.474   4.653   3.759 -0.4754  0.1159 -0.0637
  544MOL0     H73412  11.523   4.736   3.532  0.1181  0.9936  2.3325
  544MOL0     H73413  11.426   4.597   3.467 -0.8038  0.6469  0.9517
  544MOL0     H73414  11.676   4.583   3.654  0.4004 -0.4752 -0.0641
  544MOL0     H73415  11.572   4.444   3.616  1.4048 -1.0970 -1.0463
  544MOL0     H73416  11.797   4.491   3.487 -0.6476 -0.7923  0.6749
  544MOL0     H73417  11.707   4.612   3.399  1.3107  0.2460  0.2631
  544MOL0     H73418  11.534   4.429   3.319 -0.0542 -0.8366 -0.5426
  544MOL0     H73419  11.700   4.396   3.277 -0.3514  0.1117 -0.2428
  544MOL0     H73420  10.927   4.818   3.475  1.2937  2.6243  1.4938
  544MOL0     H73421  10.687   4.936   3.439 -1.3102  1.1625  1.2498
  544MOL0     H73422  10.231   4.907   3.540 -0.3615 -0.2998  0.3387
  544MOL0     H73423  10.015   4.991   3.522  2.6453 -0.8555 -2.0365
  544MOL0     H73424   7.906   5.180   4.052  1.3392  1.8162 -0.1546
  544MOL0     H73425   7.665   5.160   4.108 -2.0623  1.7518  0.4960
  544MOL0     H73426   7.353   5.109   4.425  2.3671  1.4097  2.0889
  544MOL0     H73427   7.127   5.078   4.534 -0.1687  0.4335 -0.7153
  544MOL0     H73428   6.791   5.364   4.480  1.0521  1.0878 -0.3828
  544MOL0     H73429   6.880   5.408   4.622 -0.4364  0.5104  1.2127
  544MOL0     H73430   6.794   5.182   4.727  0.6962 -2.9870 -3.4863
  544MOL0     H73431   6.707   5.163   4.591  0.1332 -0.9167  0.8520
  544MOL0     H73432   6.573   5.374   4.636  1.2550 -1.8284 -1.2494
  544MOL0     H73433   6.673   5.396   4.795  1.6457  0.1629 -0.6336
  544MOL0     H73434   6.477   5.166   4.760 -0.0065 -1.1763  2.3337
  544MOL0     H73435   6.589   5.192   4.889  0.1595 -0.4997  0.3388
  544MOL0     H73436   6.262   5.450   4.971 -1.0797  0.2536 -2.0719
  544MOL0     H73437   7.008   5.455   4.376  2.0125  1.7849 -4.3098
  544MOL0     H73438   7.306   5.581   4.351  1.0033 -0.8656 -1.1073
  544MOL0     H73439   7.250   5.535   4.184 -0.4180 -0.7447 -0.4511
  544MOL0     H73440   7.136   5.603   4.301  0.5833 -0.4970 -1.2758
  545MOL0     O73441   4.434   2.000   0.537 -0.2768  0.8934  0.2679
  545MOL0     C73442   4.326   1.947   0.502  0.3929  0.4643  0.0341
  545MOL0     O73443   4.306   1.856   0.400 -0.3680 -0.1393 -0.2553
  545MOL0     C73444   4.402   1.784   0.325  0.7036  0.1686 -0.0464
  545MOL0     C73445   4.348   1.708   0.220 -0.2298  0.3800 -0.1040
  545MOL0     C73446   4.440   1.641   0.137  0.7477  0.0431  0.4668
  545MOL0     C73447   4.578   1.629   0.155 -0.1095 -0.9089  0.4133
  545MOL0     O73448   4.640   1.530   0.083 -0.0843 -0.4679  0.1379
  545MOL0     C73449   4.777   1.519   0.097  0.2959 -0.3898 -0.3521
  545MOL0     C73450   4.834   1.421  -0.014 -0.0246 -0.2071 -0.8296
  545MOL0     C73451   4.979   1.381   0.023  0.7836  0.0599  0.2334
  545MOL0     C73452   5.005   1.235  -0.002  0.1519  1.1279 -0.3528
  545MOL0     C73453   5.143   1.190   0.056 -0.0176 -0.4190  0.2920
  545MOL0     C73454   5.184   1.042   0.046  0.2356 -0.5122 -0.5807
  545MOL0     C73455   5.334   1.015   0.064  0.2215  0.2469  0.6228
  545MOL0     C73456   5.375   1.014   0.210  0.4592 -0.1003 -0.7718
  545MOL0     N73457   5.524   0.997   0.229 -0.1557  0.6754  0.2143
  545MOL0     C73458   5.580   0.887   0.290  0.1574 -0.0564 -0.3603
  545MOL0     C73459   5.720   0.919   0.306  0.2803 -0.0368 -0.7231
  545MOL0     C73460   5.816   0.818   0.367 -0.7996  0.0440  0.2222
  545MOL0     C73461   5.950   0.855   0.311 -0.2382  0.7295  0.0428
  545MOL0     C73462   6.062   0.764   0.363  0.5786  0.1520 -0.3450
  545MOL0     C73463   6.074   0.771   0.516 -0.1572  0.6366  0.4300
  545MOL0     O73464   6.192   0.704   0.574  0.4936  0.2600  0.3871
  545MOL0     C73465   6.323   0.753   0.542 -0.1448 -0.2284  0.5001
  545MOL0     C73466   6.426   0.671   0.570 -0.6595  0.9668  0.3345
  545MOL0     C73467   6.553   0.708   0.558 -0.0638 -0.7691  0.3185
  545MOL0     C73468   6.589   0.840   0.508  0.2714 -0.2580 -0.6979
  545MOL0     C73469   6.723   0.890   0.489  0.4094  0.4025 -0.8640
  545MOL0     O73470   6.818   0.788   0.519 -0.0230  0.1657 -0.0691
  545MOL0     C73471   6.949   0.795   0.490  0.4058  0.0427 -0.6507
  545MOL0     C73472   7.025   0.705   0.556 -0.5655  1.1650  0.8625
  545MOL0     C73473   7.164   0.693   0.532 -0.2058 -0.6881 -0.8994
  545MOL0     C73474   7.231   0.779   0.446 -1.0205  0.6768  0.0070
  545MOL0     O73475   7.368   0.758   0.437 -0.1223  0.0092  0.2625
  545MOL0     C73476   7.438   0.878   0.414 -0.2105 -0.2680  0.7456
  545MOL0     C73477   7.582   0.827   0.454 -0.0237 -0.0617  0.2553
  545MOL0     C73478   7.702   0.928   0.426  0.4018  0.2184 -0.1340
  545MOL0     C73479   7.683   1.042   0.529 -0.4031 -0.1391  0.3729
  545MOL0     C73480   7.774   1.015   0.648 -0.5570 -0.3644 -0.0695
  545MOL0     C73481   7.767   1.125   0.754  0.8661  0.0786 -0.0303
  545MOL0     C73482   7.896   1.117   0.829 -0.4976 -0.2329  0.0617
  545MOL0     C73483   7.892   0.987   0.917  0.2429 -0.2858  0.5584
  545MOL0    Cl73484   8.058   0.919   0.952 -0.1287 -0.0908 -0.5575
  545MOL0     C73485   7.156   0.883   0.387  1.3630 -0.0947  0.1332
  545MOL0     C73486   7.016   0.887   0.414  0.8147  0.2000 -0.2992
  545MOL0     O73487   6.744   1.009   0.454  0.4734 -0.0942 -0.0638
  545MOL0     C73488   6.481   0.933   0.494 -0.3237 -0.1692 -0.1398
  545MOL0     C73489   6.348   0.887   0.502 -0.1123 -0.1454 -0.1607
  545MOL0     N73490   5.735   1.046   0.243 -0.4919 -0.2183 -1.1283
  545MOL0     N73491   5.619   1.091   0.199  0.0436 -0.2918 -0.3823
  545MOL0     C73492   4.627   1.700   0.273  0.0004  0.2780  0.2710
  545MOL0     C73493   4.540   1.781   0.344  0.0468 -0.1432  0.2662
  545MOL0     C73494   4.192   1.986   0.567 -1.3978  0.2935  0.1129
  545MOL0     C73495   4.079   2.009   0.489 -0.0891  0.4607  1.1381
  545MOL0     C73496   3.953   2.043   0.543  0.3719 -0.2223  0.2407
  545MOL0     C73497   3.946   2.056   0.687  0.0218 -0.0893 -0.1687
  545MOL0     O73498   3.835   2.107   0.748  0.0142  0.0695 -0.3544
  545MOL0     C73499   3.720   2.148   0.671  0.8557  0.5477 -0.4451
  545MOL0     C73500   3.638   2.225   0.779  0.1510  0.2997  0.0423
  545MOL0     C73501   3.510   2.284   0.714 -0.2562  0.1337  0.0640
  545MOL0     C73502   3.451   2.388   0.794 -0.3885  0.0667 -0.0630
  545MOL0     C73503   3.519   2.520   0.783 -0.3431  0.8364 -0.0143
  545MOL0     C73504   3.565   2.632   0.771  0.8160  0.6041  0.3067
  545MOL0     C73505   4.055   2.042   0.762 -0.4739  0.4696 -0.1044
  545MOL0     C73506   4.182   2.002   0.709 -0.0528  0.3860 -0.1564
  545MOL0     C73507   4.299   1.983   0.802  0.1056  0.4122  0.0485
  545MOL0     H73508   4.241   1.721   0.205 -0.7351 -0.4644  2.2847
  545MOL0     H73509   4.402   1.591   0.048  1.5448  2.6885 -1.4984
  545MOL0     H73510   4.821   1.619   0.097  1.4063 -0.8561 -1.4762
  545MOL0     H73511   4.808   1.477   0.193  0.1210  0.2215 -0.0206
  545MOL0     H73512   4.839   1.483  -0.104 -1.3364  0.3727 -0.5234
  545MOL0     H73513   4.769   1.337  -0.039 -0.7368 -0.5524  1.8654
  545MOL0     H73514   4.990   1.394   0.131 -0.7261  0.1436  0.3976
  545MOL0     H73515   5.060   1.431  -0.031 -0.2624 -0.1953 -1.6346
  545MOL0     H73516   4.931   1.173   0.050  2.3809 -0.9395  0.6080
  545MOL0     H73517   5.005   1.196  -0.104  1.1695  0.4206 -0.1036
  545MOL0     H73518   5.216   1.251   0.003  0.7867 -0.3372  1.4577
  545MOL0     H73519   5.148   1.222   0.160  0.9520  1.6703 -0.3578
  545MOL0     H73520   5.140   0.974   0.119  1.2574 -2.2489 -1.5171
  545MOL0     H73521   5.139   1.002  -0.045 -1.8266  1.8510 -0.7088
  545MOL0     H73522   5.394   1.092   0.014  0.8654 -0.7641 -0.2084
  545MOL0     H73523   5.362   0.922   0.014  1.8860  2.1004 -2.2059
  545MOL0     H73524   5.356   1.111   0.259  3.2914  1.3924 -2.3801
  545MOL0     H73525   5.326   0.927   0.255  1.2004  0.9532  2.3847
  545MOL0     H73526   5.524   0.806   0.335  0.8084  0.2840  1.1534
  545MOL0     H73527   5.815   0.839   0.474 -2.7288  0.0073  0.2484
  545MOL0     H73528   5.786   0.715   0.346  0.3593 -1.1408  3.6728
  545MOL0     H73529   5.945   0.857   0.202  1.0492 -0.9112 -0.0805
  545MOL0     H73530   5.975   0.957   0.342  0.8796  1.1388 -2.0642
  545MOL0     H73531   6.157   0.795   0.318  0.3799 -1.7834 -2.2205
  545MOL0     H73532   6.039   0.660   0.338 -0.1660 -0.0865  1.2066
  545MOL0     H73533   5.980   0.728   0.552 -0.8857  1.3181 -0.6113
  545MOL0     H73534   6.076   0.875   0.551  1.0251  0.8605 -0.2559
  545MOL0     H73535   6.409   0.564   0.572 -1.6320  1.0184 -1.9028
  545MOL0     H73536   6.632   0.638   0.582  0.3962  0.5794  3.1418
  545MOL0     H73537   6.982   0.635   0.627  2.4060  0.7949  2.4620
  545MOL0     H73538   7.214   0.623   0.597  0.8594 -0.3944 -1.3845
  545MOL0     H73539   7.430   0.903   0.308 -1.0109  0.6670  1.0134
  545MOL0     H73540   7.398   0.957   0.479 -2.1596  0.6440 -1.4393
  545MOL0     H73541   7.574   0.803   0.560 -1.3926  1.2960  0.4930
  545MOL0     H73542   7.615   0.743   0.393 -0.1955 -1.4128  1.9537
  545MOL0     H73543   7.801   0.882   0.439  0.9905  1.5522  0.2422
  545MOL0     H73544   7.688   0.975   0.328  1.3692 -2.5020 -1.6832
  545MOL0     H73545   7.578   1.040   0.559 -0.7417 -2.7477 -0.7412
  545MOL0     H73546   7.695   1.140   0.482 -2.1796 -0.1452 -0.1472
  545MOL0     H73547   7.876   1.000   0.614 -0.5703 -1.9045  0.5168
  545MOL0     H73548   7.751   0.915   0.685 -0.0847 -0.2423  0.5838
  545MOL0     H73549   7.746   1.224   0.712  1.5142  1.1763  2.0981
  545MOL0     H73550   7.692   1.095   0.827  1.5857 -2.1074 -0.1025
  545MOL0     H73551   7.910   1.200   0.899  0.1687 -2.1982  2.4082
  545MOL0     H73552   7.986   1.123   0.768 -1.6441  0.7929 -1.6190
  545MOL0     H73553   7.846   1.014   1.012 -0.6685  0.8545 -0.1660
  545MOL0     H73554   7.835   0.903   0.876  0.2399  0.0164 -0.0779
  545MOL0     H73555   7.190   0.960   0.319 -1.0585 -0.7016 -1.9161
  545MOL0     H73556   6.956   0.962   0.363 -1.0752  0.3566  2.0151
  545MOL0     H73557   6.502   1.038   0.481  0.1391 -0.0530  1.3443
  545MOL0     H73558   6.266   0.955   0.481 -0.2951  0.4220  2.1360
  545MOL0     H73559   4.722   1.700   0.326 -1.0472  1.1822  2.2259
  545MOL0     H73560   4.576   1.828   0.434  0.4411 -1.6560  0.9155
  545MOL0     H73561   4.096   1.995   0.383  4.6697 -1.8892  1.9169
  545MOL0     H73562   3.863   2.073   0.490 -0.0993  0.0563  1.1782
  545MOL0     H73563   3.663   2.058   0.648 -0.6870  0.9628  1.4163
  545MOL0     H73564   3.748   2.213   0.588 -1.5393  1.9023 -0.2735
  545MOL0     H73565   3.701   2.306   0.817  0.6102 -0.7237  1.5314
  545MOL0     H73566   3.615   2.159   0.863  1.2995 -2.0893 -1.3690
  545MOL0     H73567   3.445   2.197   0.701 -0.0251 -0.0342  0.0299
  545MOL0     H73568   3.536   2.336   0.621  1.1862 -0.6342  0.0104
  545MOL0     H73569   3.344   2.401   0.772 -0.2616  3.6370  0.7715
  545MOL0     H73570   3.458   2.360   0.899 -0.7074  0.7130  0.1341
  545MOL0     H73571   3.613   2.728   0.777  0.4321  0.7444  1.3117
  545MOL0     H73572   4.040   2.073   0.865 -1.2166  3.1030 -0.9375
  545MOL0     H73573   4.368   2.064   0.777 -1.4759  2.2735  1.3757
  545MOL0     H73574   4.257   1.982   0.903 -4.0915  2.2672 -1.4502
  545MOL0     H73575   4.348   1.887   0.785  0.1444 -0.1432  2.9228
  546MOL0     O73576   8.408   7.862   2.027  0.4710 -0.0844 -0.3544
  546MOL0     C73577   8.287   7.859   1.988 -1.3528 -0.1858 -0.3295
  546MOL0     O73578   8.247   7.872   1.852 -0.4340  0.2814  0.3752
  546MOL0     C73579   8.345   7.905   1.762 -0.0534  0.1423 -0.4128
  546MOL0     C73580   8.342   8.031   1.708  0.3990 -0.2336  0.0336
  546MOL0     C73581   8.421   8.057   1.592  0.0029  0.3785  0.0542
  546MOL0     C73582   8.505   7.959   1.542 -0.1209 -0.5087 -0.0145
  546MOL0     O73583   8.556   7.991   1.415  0.0860  0.0404  0.0390
  546MOL0     C73584   8.644   7.899   1.361  0.0416 -0.8188  0.2601
  546MOL0     C73585   8.788   7.907   1.413  0.0147 -0.5579  0.8966
  546MOL0     C73586   8.855   8.041   1.386  0.2793 -0.3195  0.0511
  546MOL0     C73587   9.002   8.063   1.411  0.7603 -0.1010  0.0242
  546MOL0     C73588   9.038   8.196   1.365 -0.0729  0.6460 -0.0727
  546MOL0     C73589   9.187   8.218   1.357 -0.3464  0.0962  0.2665
  546MOL0     C73590   9.253   8.222   1.493 -0.4903  0.1404 -0.4288
  546MOL0     C73591   9.405   8.225   1.472  0.0363 -0.3041  0.1146
  546MOL0     N73592   9.453   8.350   1.407 -0.1309 -0.4809 -0.1489
  546MOL0     C73593   9.421   8.484   1.450 -0.7507  0.4684 -0.0643
  546MOL0     C73594   9.449   8.562   1.339 -0.2871  0.7446 -0.2381
  546MOL0     C73595   9.443   8.714   1.337 -0.2924 -0.0437 -0.0903
  546MOL0     C73596   9.515   8.785   1.448  0.0081  0.1414 -0.8985
  546MOL0     C73597   9.655   8.732   1.460 -0.5496  0.7993  0.5231
  546MOL0     C73598   9.753   8.832   1.533  0.2542  0.1500 -0.2876
  546MOL0     O73599   9.865   8.753   1.572 -0.2181 -0.1210  0.1428
  546MOL0     C73600   9.986   8.775   1.524 -1.6728  0.5990  0.4804
  546MOL0     C73601  10.079   8.679   1.561  0.3411 -0.0606 -0.7388
  546MOL0     C73602  10.214   8.714   1.539 -0.0455 -0.1206  0.0150
  546MOL0     C73603  10.262   8.831   1.471  0.6388  0.3695  0.8831
  546MOL0     C73604  10.403   8.848   1.433 -0.3326  0.1914  0.6879
  546MOL0     O73605  10.440   8.951   1.352  0.4404 -0.6817 -0.1974
  546MOL0     C73606  10.574   8.972   1.315  0.6637  0.3098  0.1383
  546MOL0     C73607  10.641   9.080   1.370  0.3809  0.1223 -0.4245
  546MOL0     C73608  10.770   9.116   1.334 -0.5543  0.5907 -0.4992
  546MOL0     C73609  10.844   9.018   1.268 -0.2076 -0.2269  0.7410
  546MOL0     O73610  10.977   9.054   1.253  0.1991 -0.2489 -0.0623
  546MOL0     C73611  11.073   8.961   1.310 -0.1214 -0.3440 -0.1746
  546MOL0     C73612  11.095   8.995   1.463  1.0487 -0.3504  1.1269
  546MOL0     C73613  11.152   9.131   1.483 -1.0527 -1.1000 -0.1602
  546MOL0     C73614  11.278   9.157   1.391  0.3730  0.2820  0.0561
  546MOL0     C73615  11.358   9.282   1.422  0.4421 -0.0362  0.1651
  546MOL0     C73616  11.485   9.289   1.343  0.0103 -0.0801 -0.0988
  546MOL0     C73617  11.567   9.415   1.384  0.3240  0.0572 -0.1566
  546MOL0     C73618  11.669   9.458   1.275 -0.7247  0.1631  0.3182
  546MOL0    Cl73619  11.796   9.570   1.331 -0.0323 -0.2479  0.6816
  546MOL0     C73620  10.785   8.898   1.217  0.4620  0.1350  0.0343
  546MOL0     C73621  10.645   8.890   1.229  0.3921  0.2698 -0.3642
  546MOL0     O73622  10.475   8.755   1.474 -0.3075 -0.5676 -0.0279
  546MOL0     C73623  10.163   8.922   1.448 -0.4817  0.1960  0.4953
  546MOL0     C73624  10.029   8.898   1.473  0.3001 -0.8852  0.2055
  546MOL0     N73625   9.514   8.473   1.244  0.3551  0.2109  0.1471
  546MOL0     N73626   9.517   8.355   1.283 -0.0813 -0.2577 -0.3320
  546MOL0     C73627   8.525   7.841   1.611  0.6233  0.7439 -0.5605
  546MOL0     C73628   8.438   7.807   1.715 -0.3246  0.0790 -0.3850
  546MOL0     C73629   8.188   7.839   2.101 -0.7401  1.4191 -0.5791
  546MOL0     C73630   8.232   7.808   2.233 -0.0795 -0.3516  0.5841
  546MOL0     C73631   8.132   7.795   2.328 -0.3353  0.5916  1.2123
  546MOL0     C73632   7.998   7.817   2.311  0.2944  0.1306 -0.1435
  546MOL0     O73633   7.925   7.802   2.421 -0.3049 -0.0129  0.0828
  546MOL0     C73634   7.793   7.859   2.419 -0.3347  0.6396 -0.4158
  546MOL0     C73635   7.753   7.891   2.565 -0.5744  0.5877 -0.0460
  546MOL0     C73636   7.805   7.783   2.667 -0.1134 -0.7927 -0.3140
  546MOL0     C73637   7.729   7.784   2.803  0.2375  0.3463 -0.2195
  546MOL0     C73638   7.731   7.913   2.877  0.8258 -0.0902  0.5478
  546MOL0     C73639   7.740   8.023   2.927 -0.1715  0.2100  0.5865
  546MOL0     C73640   7.956   7.844   2.181 -0.1968 -0.2581  0.0446
  546MOL0     C73641   8.044   7.857   2.075 -0.7094  1.1972 -0.5688
  546MOL0     C73642   7.982   7.905   1.945  0.2728  0.4403 -0.3551
  546MOL0     H73643   8.279   8.115   1.736  3.1239  2.1788 -0.5489
  546MOL0     H73644   8.412   8.150   1.538  2.9275  1.4038  1.1137
  546MOL0     H73645   8.601   7.800   1.378 -1.7110 -0.1012  0.1711
  546MOL0     H73646   8.634   7.908   1.252  2.3049  0.5201  0.1032
  546MOL0     H73647   8.849   7.832   1.363  0.1425  0.0079  0.1973
  546MOL0     H73648   8.784   7.888   1.521 -2.2866 -1.9791  0.6437
  546MOL0     H73649   8.787   8.117   1.425 -1.4319 -1.5082 -0.4816
  546MOL0     H73650   8.853   8.050   1.277 -2.8357 -0.6433 -0.0006
  546MOL0     H73651   9.001   8.047   1.519 -2.6843  0.6887  0.2211
  546MOL0     H73652   9.051   7.984   1.353 -2.5362 -2.0817 -0.3097
  546MOL0     H73653   8.994   8.220   1.268 -3.0056 -2.1357  0.4161
  546MOL0     H73654   8.990   8.261   1.439 -1.5276  2.9458 -2.8479
  546MOL0     H73655   9.225   8.132   1.300 -1.3075 -0.7246  0.8324
  546MOL0     H73656   9.198   8.320   1.319 -4.1726  1.0362  1.1951
  546MOL0     H73657   9.224   8.129   1.542  0.4599 -0.6636 -1.3759
  546MOL0     H73658   9.215   8.305   1.555 -2.3375 -0.9824  0.0093
  546MOL0     H73659   9.464   8.196   1.559 -0.4174 -2.6419 -0.2845
  546MOL0     H73660   9.439   8.143   1.408  2.1866 -2.1902  3.3921
  546MOL0     H73661   9.391   8.516   1.549 -2.1490 -1.3572  0.1522
  546MOL0     H73662   9.489   8.741   1.241 -1.4102  0.6876 -0.4397
  546MOL0     H73663   9.341   8.752   1.327  0.1216  1.4473  0.9403
  546MOL0     H73664   9.521   8.894   1.439  1.4651  0.7633  4.2065
  546MOL0     H73665   9.461   8.761   1.540 -4.6133 -0.8140 -3.5585
  546MOL0     H73666   9.704   8.703   1.367  0.2091  5.2044 -0.6568
  546MOL0     H73667   9.654   8.643   1.524  0.0555  0.5634  0.2168
  546MOL0     H73668   9.720   8.888   1.620  1.4095  1.6826 -0.7897
  546MOL0     H73669   9.762   8.921   1.469 -0.6317 -0.3958 -1.2114
  546MOL0     H73670  10.053   8.590   1.618  1.5740  1.3715  2.2913
  546MOL0     H73671  10.286   8.637   1.567 -1.6274 -2.0945 -1.0331
  546MOL0     H73672  10.594   9.155   1.433 -3.8838  0.5291 -3.6373
  546MOL0     H73673  10.820   9.205   1.371  0.9003 -0.6483  0.6297
  546MOL0     H73674  11.027   8.862   1.313 -2.7668  0.7488 -1.6546
  546MOL0     H73675  11.167   8.961   1.254 -0.2983 -0.7096 -0.4719
  546MOL0     H73676  10.999   8.989   1.514  0.4287  0.1150  0.0623
  546MOL0     H73677  11.160   8.918   1.505  0.6802 -2.8540 -2.3729
  546MOL0     H73678  11.079   9.208   1.459  0.7501  0.1730 -2.0074
  546MOL0     H73679  11.188   9.140   1.586 -2.4479 -0.3027  0.2842
  546MOL0     H73680  11.243   9.163   1.288  3.3697 -1.9785 -1.2583
  546MOL0     H73681  11.340   9.067   1.386  1.1973  0.8054  0.6307
  546MOL0     H73682  11.385   9.284   1.528 -0.4123 -0.3846  0.3993
  546MOL0     H73683  11.296   9.370   1.402 -1.1956 -0.9468  1.0626
  546MOL0     H73684  11.545   9.200   1.364  1.0411  1.0629  2.1219
  546MOL0     H73685  11.462   9.288   1.236  1.1487  0.5190 -0.3642
  546MOL0     H73686  11.620   9.386   1.474  0.1999  1.1416  0.2853
  546MOL0     H73687  11.508   9.505   1.407 -0.4343 -0.2280 -0.9201
  546MOL0     H73688  11.715   9.368   1.234 -1.3430  0.3078 -0.7281
  546MOL0     H73689  11.615   9.510   1.195 -1.8615 -0.7732  0.4387
  546MOL0     H73690  10.833   8.819   1.160  1.5985  1.2121 -0.5388
  546MOL0     H73691  10.587   8.816   1.175 -0.1804  0.1638  0.3796
  546MOL0     H73692  10.194   9.013   1.398  1.0030 -0.8656 -0.6229
  546MOL0     H73693   9.955   8.976   1.456  0.3694 -0.6864  0.7972
  546MOL0     H73694   8.610   7.778   1.587  0.7737 -0.1123  1.9418
  546MOL0     H73695   8.445   7.720   1.779 -1.3112  1.6885  2.0603
  546MOL0     H73696   8.338   7.790   2.250 -0.2599 -1.4100  0.6487
  546MOL0     H73697   8.162   7.768   2.428 -1.0047 -0.7822  1.0633
  546MOL0     H73698   7.717   7.796   2.372 -0.5127  1.7032 -1.5753
  546MOL0     H73699   7.787   7.952   2.363 -0.6315 -0.1969 -1.8140
  546MOL0     H73700   7.644   7.882   2.560 -0.5701 -0.4579  1.1668
  546MOL0     H73701   7.781   7.990   2.602  1.8619 -0.9497  2.6565
  546MOL0     H73702   7.913   7.787   2.685 -0.4167 -0.7411  1.6376
  546MOL0     H73703   7.784   7.684   2.625 -2.3747 -0.4993 -0.0212
  546MOL0     H73704   7.624   7.758   2.784  0.1181  0.3949  0.3516
  546MOL0     H73705   7.771   7.712   2.874  0.7762  0.6120 -0.2622
  546MOL0     H73706   7.754   8.127   2.947 -1.4482  1.0497 -2.2627
  546MOL0     H73707   7.849   7.851   2.161 -0.2340  0.3624  0.4251
  546MOL0     H73708   8.019   8.008   1.945  0.2801  0.4988  2.1238
  546MOL0     H73709   8.024   7.844   1.865 -0.0025  1.1719 -1.0856
  546MOL0     H73710   7.874   7.893   1.954  0.4007 -0.8929 -0.4902
  547MOL0     O73711   7.822   0.135   1.747  0.1146 -0.7671 -0.4845
  547MOL0     C73712   7.786   0.028   1.800 -0.6616 -0.8985 -0.8651
  547MOL0     O73713   7.868  -0.066   1.859 -0.1689 -0.3005  0.0491
  547MOL0     C73714   8.002  -0.034   1.870  0.1720 -0.4403 -0.1904
  547MOL0     C73715   8.052  -0.022   2.001  0.0428 -0.0237  0.5736
  547MOL0     C73716   8.183  -0.004   2.019 -0.7210 -0.5300  0.4918
  547MOL0     C73717   8.277  -0.004   1.918  0.3503 -0.1302 -0.4712
  547MOL0     O73718   8.405  -0.007   1.949 -0.0462  0.4396  0.4463
  547MOL0     C73719   8.498  -0.040   1.843 -0.1026 -0.3811 -0.2973
  547MOL0     C73720   8.623  -0.072   1.916  0.0402 -0.8844 -0.1706
  547MOL0     C73721   8.746  -0.052   1.825 -0.2028  0.1278 -0.1627
  547MOL0     C73722   8.846  -0.163   1.858  0.4391 -0.1217  1.4266
  547MOL0     C73723   8.962  -0.160   1.764 -0.1984 -0.0759 -0.1309
  547MOL0     C73724   9.058  -0.054   1.817 -0.5828  0.3658  0.5767
  547MOL0     C73725   9.198  -0.078   1.746  0.1403  0.8629 -0.4044
  547MOL0     C73726   9.315   0.007   1.797  0.3346 -0.1817  0.6713
  547MOL0     N73727   9.443  -0.040   1.740 -0.0254  0.1221 -0.9128
  547MOL0     C73728   9.561   0.031   1.726 -0.8986  0.1131  0.3693
  547MOL0     C73729   9.649  -0.052   1.666 -0.4678  0.5593 -0.4334
  547MOL0     C73730   9.786  -0.032   1.622  0.2194 -1.0509 -0.5569
  547MOL0     C73731   9.776   0.078   1.514 -0.7043 -0.1058  0.3353
  547MOL0     C73732   9.900   0.103   1.429  0.3545 -0.2420  0.3586
  547MOL0     C73733  10.027   0.175   1.481 -0.3574 -0.3448  0.0968
  547MOL0     O73734  10.126   0.184   1.376  0.0702 -0.4236 -0.0758
  547MOL0     C73735  10.203   0.298   1.379  0.9184 -0.4084  0.1120
  547MOL0     C73736  10.138   0.424   1.383 -0.4799  1.1060 -0.5394
  547MOL0     C73737  10.215   0.538   1.377 -0.1213  1.1597 -0.0366
  547MOL0     C73738  10.350   0.538   1.368  0.0763 -0.1590  0.1682
  547MOL0     C73739  10.426   0.661   1.370 -0.5574 -0.2334  0.0259
  547MOL0     O73740  10.567   0.649   1.359 -0.0326 -0.2912 -0.0575
  547MOL0     C73741  10.645   0.760   1.333 -0.2662  0.6606 -0.4101
  547MOL0     C73742  10.620   0.896   1.303  0.1926 -0.6736  0.3790
  547MOL0     C73743  10.717   0.991   1.284  0.2064 -0.5092 -0.2479
  547MOL0     C73744  10.853   0.941   1.279  1.4131 -0.6570  0.2886
  547MOL0     O73745  10.959   1.010   1.221  0.5901 -0.7081  0.2238
  547MOL0     C73746  10.933   1.131   1.151 -0.2960 -0.6970 -0.1656
  547MOL0     C73747  10.929   1.261   1.231  0.0846 -0.4049  0.2897
  547MOL0     C73748  11.022   1.271   1.347 -0.2176 -0.2822 -0.3893
  547MOL0     C73749  11.176   1.265   1.328  0.2661 -1.1404  0.3441
  547MOL0     C73750  11.240   1.298   1.456 -0.0904 -0.1822 -0.6128
  547MOL0     C73751  11.392   1.291   1.430  0.1849 -0.7173 -0.7884
  547MOL0     C73752  11.448   1.148   1.442  0.4107 -0.0055  0.0469
  547MOL0     C73753  11.597   1.155   1.442  0.2819 -0.5957  1.0264
  547MOL0    Cl73754  11.634   1.188   1.266  0.0980  0.3936 -0.1928
  547MOL0     C73755  10.886   0.808   1.301  0.2766 -0.2603  0.8206
  547MOL0     C73756  10.781   0.719   1.320 -0.2623 -0.2965  0.0889
  547MOL0     O73757  10.365   0.768   1.393  0.2043 -0.0528 -1.2306
  547MOL0     C73758  10.415   0.412   1.386  0.3112  0.2254 -0.7131
  547MOL0     C73759  10.340   0.295   1.392  0.3330 -0.3700  0.2942
  547MOL0     N73760   9.577  -0.158   1.626  0.5519 -0.3040 -0.6506
  547MOL0     N73761   9.461  -0.159   1.672  0.0231  0.2756  0.4939
  547MOL0     C73762   8.230  -0.005   1.784  0.4465  0.2767 -0.8293
  547MOL0     C73763   8.090  -0.017   1.765 -0.1003 -0.1198  0.5415
  547MOL0     C73764   7.641   0.032   1.819  0.0634 -0.1410 -0.2780
  547MOL0     C73765   7.560   0.071   1.711 -0.5070  0.4893 -0.6495
  547MOL0     C73766   7.424   0.090   1.731 -0.3517  0.7674 -0.5072
  547MOL0     C73767   7.361   0.061   1.846  0.0106  0.4125  0.2365
  547MOL0     O73768   7.226   0.097   1.851  0.2964  0.9236  0.3619
  547MOL0     C73769   7.145   0.065   1.966  0.5495  0.4307 -0.1734
  547MOL0     C73770   7.027   0.168   1.974  0.0014  0.1989  0.1718
  547MOL0     C73771   6.953   0.165   1.844 -0.9035  0.1452 -0.4216
  547MOL0     C73772   6.841   0.268   1.837 -0.0140 -0.3142  0.3563
  547MOL0     C73773   6.770   0.241   1.715  0.3541  0.0281  0.7122
  547MOL0     C73774   6.702   0.232   1.618  0.3438  0.5627 -0.5326
  547MOL0     C73775   7.440   0.003   1.951 -0.0433 -0.4058 -0.1250
  547MOL0     C73776   7.577  -0.002   1.944  0.2718  0.1263  0.6800
  547MOL0     C73777   7.645  -0.043   2.066  0.2011 -0.1679  0.0705
  547MOL0     H73778   8.005  -0.050   2.095  1.7799 -0.9853  1.1939
  547MOL0     H73779   8.218  -0.004   2.122 -1.1328  0.0116  0.6351
  547MOL0     H73780   8.456  -0.123   1.785 -0.1658 -0.0957 -0.6660
  547MOL0     H73781   8.504   0.048   1.778 -1.2129 -0.2406 -0.2236
  547MOL0     H73782   8.623  -0.175   1.954  1.5203 -1.0669 -0.5951
  547MOL0     H73783   8.637  -0.007   2.003 -1.8004 -0.6298 -0.0363
  547MOL0     H73784   8.775   0.052   1.842  1.1661  0.0544 -1.7871
  547MOL0     H73785   8.716  -0.063   1.720 -0.5391  2.4826 -0.3680
  547MOL0     H73786   8.887  -0.167   1.959  1.6284  0.2783  0.9766
  547MOL0     H73787   8.791  -0.255   1.838 -3.5078  2.5441 -1.5841
  547MOL0     H73788   9.004  -0.261   1.766 -0.3002 -0.1207 -0.3071
  547MOL0     H73789   8.933  -0.136   1.662 -3.6050 -0.8130  0.5259
  547MOL0     H73790   9.026   0.051   1.814  1.9290  1.2158  0.5204
  547MOL0     H73791   9.079  -0.074   1.922 -0.7448 -0.9452  0.3753
  547MOL0     H73792   9.181  -0.075   1.638 -1.2566 -2.9787 -0.4306
  547MOL0     H73793   9.233  -0.177   1.778  2.1500  1.4035 -0.8030
  547MOL0     H73794   9.296   0.111   1.771 -0.2202 -0.4851 -0.1731
  547MOL0     H73795   9.323  -0.018   1.903  1.5088 -0.0477  0.6226
  547MOL0     H73796   9.594   0.123   1.772  3.6459 -0.7865 -0.6285
  547MOL0     H73797   9.851   0.009   1.700 -0.9639  0.0808 -0.1440
  547MOL0     H73798   9.826  -0.124   1.576 -0.9947 -0.9079 -1.9718
  547MOL0     H73799   9.697   0.072   1.438  1.1574  2.8997 -2.0873
  547MOL0     H73800   9.767   0.178   1.556  2.5048  1.1858 -1.6520
  547MOL0     H73801   9.863   0.165   1.346  0.2099  1.1634  1.4467
  547MOL0     H73802   9.935   0.008   1.387  0.6645 -0.7257  1.6881
  547MOL0     H73803  10.073   0.116   1.562  0.4333 -1.7180 -1.3008
  547MOL0     H73804  10.002   0.273   1.522 -0.9991 -0.7262  0.6444
  547MOL0     H73805  10.031   0.423   1.398 -0.3325 -1.5732  1.0487
  547MOL0     H73806  10.160   0.631   1.383 -0.7794  0.8450 -0.9789
  547MOL0     H73807  10.517   0.927   1.315  0.0502 -0.5242 -1.0506
  547MOL0     H73808  10.694   1.094   1.258 -0.8076 -1.1820 -2.1841
  547MOL0     H73809  11.023   1.133   1.089 -1.0150 -1.7462 -1.2846
  547MOL0     H73810  10.839   1.123   1.095 -1.4839  2.3290  1.1825
  547MOL0     H73811  10.942   1.339   1.155  0.9305  0.1662  1.0027
  547MOL0     H73812  10.828   1.280   1.268 -0.9692 -1.0885 -2.0335
  547MOL0     H73813  11.005   1.363   1.405 -3.0016 -1.2968  0.5947
  547MOL0     H73814  10.991   1.195   1.419  0.7449  1.1017  1.5865
  547MOL0     H73815  11.206   1.333   1.247 -2.1824  0.2240  0.4869
  547MOL0     H73816  11.204   1.161   1.308 -1.5981 -1.1503 -2.8288
  547MOL0     H73817  11.212   1.220   1.527  1.2247 -0.5400 -0.4639
  547MOL0     H73818  11.222   1.400   1.491 -0.7862 -1.2220  2.3372
  547MOL0     H73819  11.419   1.340   1.336  3.1837  1.7891  1.1984
  547MOL0     H73820  11.419   1.354   1.515 -2.4703  0.9356 -1.0294
  547MOL0     H73821  11.420   1.086   1.356 -0.0433  0.0718  0.1370
  547MOL0     H73822  11.411   1.102   1.534  1.9227 -0.9506  0.2147
  547MOL0     H73823  11.649   1.223   1.510  1.3793  1.4519 -1.6741
  547MOL0     H73824  11.633   1.056   1.473  0.2322 -0.5386  1.2672
  547MOL0     H73825  10.986   0.766   1.300  0.2281 -0.3762 -0.1653
  547MOL0     H73826  10.808   0.615   1.331  2.4781  0.4843  1.7047
  547MOL0     H73827  10.521   0.406   1.410 -0.0566 -2.5409  0.6439
  547MOL0     H73828  10.373   0.196   1.420 -0.1917 -0.5858  0.1789
  547MOL0     H73829   8.306   0.005   1.706  1.7744 -1.7296  0.1305
  547MOL0     H73830   8.050  -0.003   1.665  0.7648  1.9590  0.4553
  547MOL0     H73831   7.607   0.092   1.616 -1.0403  0.8947 -0.8245
  547MOL0     H73832   7.373   0.140   1.650  1.4375  1.4707 -1.2348
  547MOL0     H73833   7.210   0.072   2.053  0.1716  0.0585  0.1419
  547MOL0     H73834   7.090  -0.029   1.957  0.1208  0.7147 -0.5671
  547MOL0     H73835   7.060   0.272   1.975 -0.3837  0.3922 -2.0643
  547MOL0     H73836   6.969   0.145   2.064  3.1410 -2.7299  1.6934
  547MOL0     H73837   6.916   0.063   1.829 -0.7067 -0.6104  3.1967
  547MOL0     H73838   7.017   0.186   1.758  0.5349 -0.3164  0.5076
  547MOL0     H73839   6.767   0.245   1.914 -0.9742 -0.9089 -0.7123
  547MOL0     H73840   6.880   0.370   1.849  0.1105 -0.2209 -0.7125
  547MOL0     H73841   6.634   0.210   1.538 -0.3651 -0.0064  0.2132
  547MOL0     H73842   7.397  -0.023   2.048 -1.1527 -2.1826 -1.0373
  547MOL0     H73843   7.716  -0.125   2.050 -0.3422 -0.4859 -0.7420
  547MOL0     H73844   7.705   0.034   2.115  2.1112 -2.8179  2.2008
  547MOL0     H73845   7.578  -0.071   2.147  2.6229  1.3146  2.7870
  548MOL0     O73846   1.263   1.032   2.732  0.5278  0.2049  0.1490
  548MOL0     C73847   1.200   1.022   2.627 -0.0408 -0.2769 -0.4348
  548MOL0     O73848   1.256   0.984   2.501  0.1779 -0.3584  0.2738
  548MOL0     C73849   1.367   0.902   2.495 -0.3048 -0.1627 -0.2036
  548MOL0     C73850   1.360   0.776   2.430  0.4614  0.0402 -0.2487
  548MOL0     C73851   1.469   0.694   2.414 -0.1870 -0.6941  0.1212
  548MOL0     C73852   1.597   0.734   2.456 -1.0447  0.2886 -0.6892
  548MOL0     O73853   1.705   0.652   2.450 -0.1679  0.2323 -0.7232
  548MOL0     C73854   1.727   0.570   2.337 -0.8463  0.0342  0.2717
  548MOL0     C73855   1.882   0.537   2.339 -0.6472  0.3348 -0.5557
  548MOL0     C73856   1.919   0.442   2.212 -0.1723  0.0154 -1.0958
  548MOL0     C73857   2.059   0.378   2.236  0.7624  0.8348 -0.6114
  548MOL0     C73858   2.056   0.278   2.357  1.2027  0.4284  0.1950
  548MOL0     C73859   2.157   0.162   2.340  0.4367  0.4191 -0.1851
  548MOL0     C73860   2.301   0.206   2.331 -0.8322 -0.1531 -0.1959
  548MOL0     C73861   2.352   0.293   2.445 -0.2685  0.0515  0.0788
  548MOL0     N73862   2.491   0.333   2.433 -0.3160 -0.0340  0.4666
  548MOL0     C73863   2.550   0.445   2.485 -0.0257 -0.0557  0.3782
  548MOL0     C73864   2.684   0.431   2.475 -0.2408 -0.1743 -0.4294
  548MOL0     C73865   2.787   0.508   2.548  0.5801  0.3659 -0.0103
  548MOL0     C73866   2.932   0.450   2.535  0.1673 -0.1371 -0.4739
  548MOL0     C73867   2.989   0.478   2.391 -0.4574  0.3181 -0.2065
  548MOL0     C73868   3.138   0.467   2.398 -0.6788 -0.0910 -0.5860
  548MOL0     O73869   3.184   0.605   2.392 -0.1090  0.2168  0.3014
  548MOL0     C73870   3.307   0.635   2.436  0.1718 -0.0812 -0.0813
  548MOL0     C73871   3.335   0.767   2.471  0.4887  0.6675  0.2263
  548MOL0     C73872   3.457   0.814   2.515  0.2902  0.1200  0.1514
  548MOL0     C73873   3.568   0.732   2.518 -0.2376  0.5483 -0.2758
  548MOL0     C73874   3.703   0.775   2.554  0.0708 -0.0940  0.2500
  548MOL0     O73875   3.723   0.905   2.594 -0.3930 -0.6791 -0.2856
  548MOL0     C73876   3.837   0.939   2.658 -0.1273 -0.4559  0.0043
  548MOL0     C73877   3.896   0.864   2.756  0.1311 -0.6266 -0.3833
  548MOL0     C73878   4.021   0.913   2.817 -0.5188 -0.3393 -0.0012
  548MOL0     C73879   4.086   1.014   2.765 -0.0837 -0.4930  0.3046
  548MOL0     O73880   4.197   1.053   2.831  0.1777 -0.4458 -0.4647
  548MOL0     C73881   4.307   1.074   2.759 -0.1902 -0.2375  0.4466
  548MOL0     C73882   4.363   0.947   2.695  0.5196  0.3223  0.1147
  548MOL0     C73883   4.516   0.960   2.695 -0.7990 -0.4240  0.4220
  548MOL0     C73884   4.575   0.926   2.828 -0.5310 -0.8138  0.2388
  548MOL0     C73885   4.736   0.938   2.826  0.6751 -0.8432  0.1398
  548MOL0     C73886   4.793   0.988   2.961 -0.1135  0.6362  0.7677
  548MOL0     C73887   4.776   0.893   3.082  0.2437  0.1960 -0.6394
  548MOL0     C73888   4.787   0.743   3.065  0.5435  0.6590 -0.7186
  548MOL0    Cl73889   4.953   0.714   2.995  0.0116  0.3209  0.1554
  548MOL0     C73890   4.024   1.087   2.659  0.9026  0.0025  0.9082
  548MOL0     C73891   3.901   1.049   2.599  0.3880  0.5824 -0.9943
  548MOL0     O73892   3.793   0.695   2.535  0.1374  0.4204 -0.2350
  548MOL0     C73893   3.544   0.590   2.478 -0.7016 -0.0989  0.0050
  548MOL0     C73894   3.415   0.542   2.439  0.4102 -0.7839 -0.1479
  548MOL0     N73895   2.706   0.314   2.401  0.2885  0.9858 -0.7913
  548MOL0     N73896   2.590   0.259   2.375  0.4286 -0.3415 -0.3096
  548MOL0     C73897   1.606   0.851   2.542  0.4487  0.2389  0.2038
  548MOL0     C73898   1.489   0.934   2.559 -0.4523 -0.2399  0.5112
  548MOL0     C73899   1.059   1.078   2.627 -0.0445  0.3682  0.2193
  548MOL0     C73900   1.014   1.147   2.510  0.3899 -0.2043 -0.6058
  548MOL0     C73901   0.890   1.209   2.504  0.5950  0.1554 -0.0209
  548MOL0     C73902   0.793   1.182   2.611 -0.1454  0.1325 -0.0774
  548MOL0     O73903   0.672   1.236   2.594 -0.5144 -0.1690  0.5133
  548MOL0     C73904   0.586   1.246   2.703 -0.1368 -0.2247  0.4247
  548MOL0     C73905   0.448   1.299   2.650 -0.3247 -0.0547  0.1750
  548MOL0     C73906   0.461   1.448   2.615 -0.2319 -0.0850  0.4401
  548MOL0     C73907   0.327   1.493   2.556  0.1487  0.2101 -0.2088
  548MOL0     C73908   0.312   1.635   2.525  0.2726  0.0614 -0.0140
  548MOL0     C73909   0.292   1.746   2.489 -0.5304  0.4607  0.2267
  548MOL0     C73910   0.843   1.118   2.724  0.3872  0.0784  0.5289
  548MOL0     C73911   0.970   1.070   2.737  0.0462 -0.1343 -0.3206
  548MOL0     C73912   1.007   1.007   2.868 -0.2478  1.1053  0.5166
  548MOL0     H73913   1.270   0.728   2.392  2.9155 -2.3442 -3.5445
  548MOL0     H73914   1.454   0.599   2.364  0.9336  0.7960 -3.4199
  548MOL0     H73915   1.672   0.476   2.336  0.5689 -0.9068  2.6312
  548MOL0     H73916   1.712   0.625   2.244 -3.6095 -3.5703 -1.6484
  548MOL0     H73917   1.899   0.480   2.431 -1.1853  2.7280  1.1192
  548MOL0     H73918   1.939   0.631   2.344 -0.6496  0.3339 -0.5165
  548MOL0     H73919   1.929   0.503   2.122 -0.5063  2.3972  0.3909
  548MOL0     H73920   1.838   0.370   2.196 -2.9406  2.5098  0.7367
  548MOL0     H73921   2.080   0.321   2.145  2.6511  0.8452 -0.2380
  548MOL0     H73922   2.132   0.458   2.255 -1.3616  2.8949 -0.7365
  548MOL0     H73923   2.071   0.326   2.453 -0.7347 -1.1376  1.3625
  548MOL0     H73924   1.961   0.224   2.361  1.7026 -0.5839 -0.8067
  548MOL0     H73925   2.152   0.085   2.417 -2.2141  0.1686 -0.5052
  548MOL0     H73926   2.137   0.118   2.242  1.8962 -0.3661 -0.1452
  548MOL0     H73927   2.321   0.257   2.236  3.3520 -1.1458 -0.0437
  548MOL0     H73928   2.368   0.121   2.334 -0.1383  0.4118  2.3138
  548MOL0     H73929   2.291   0.385   2.442 -0.9220 -0.3881 -0.5950
  548MOL0     H73930   2.328   0.247   2.541  1.1069 -1.0390 -0.0809
  548MOL0     H73931   2.500   0.515   2.552 -1.0250 -0.4929  0.1118
  548MOL0     H73932   2.789   0.616   2.531  1.3672  0.8259  2.4990
  548MOL0     H73933   2.751   0.512   2.652 -4.7396 -0.7179 -1.4865
  548MOL0     H73934   2.998   0.494   2.611 -2.0134 -1.0046  2.0896
  548MOL0     H73935   2.925   0.342   2.550 -0.9264 -0.3685 -2.3507
  548MOL0     H73936   2.953   0.574   2.355  0.1059  0.3118 -0.8181
  548MOL0     H73937   2.957   0.399   2.323 -0.4262  0.5408 -0.4829
  548MOL0     H73938   3.166   0.407   2.311  1.5830 -0.6235  0.4461
  548MOL0     H73939   3.172   0.414   2.487 -1.2857 -1.3649 -1.0827
  548MOL0     H73940   3.252   0.836   2.467  0.3206  0.7625  3.1465
  548MOL0     H73941   3.471   0.917   2.546 -1.0019  1.6022 -3.5953
  548MOL0     H73942   3.850   0.777   2.802  0.5463 -0.2242  0.8497
  548MOL0     H73943   4.056   0.862   2.906  0.1335  0.1457  0.0251
  548MOL0     H73944   4.282   1.149   2.683  2.5832 -1.9111 -2.3395
  548MOL0     H73945   4.384   1.115   2.825 -0.7168 -0.7962  1.4270
  548MOL0     H73946   4.332   0.865   2.761 -2.8529  0.4796 -1.0572
  548MOL0     H73947   4.320   0.933   2.596  0.6919 -1.5175  0.2665
  548MOL0     H73948   4.555   0.899   2.613 -0.9502  0.4005 -0.2787
  548MOL0     H73949   4.554   1.062   2.683 -2.8488  0.3741  0.4011
  548MOL0     H73950   4.550   0.822   2.852 -3.0560  0.0768  1.8120
  548MOL0     H73951   4.519   0.978   2.907 -1.5361 -1.8157  0.2143
  548MOL0     H73952   4.773   0.996   2.741  2.0655 -2.1629 -0.2117
  548MOL0     H73953   4.780   0.838   2.821  0.9075 -0.8878  2.2679
  548MOL0     H73954   4.902   0.994   2.947 -0.2416 -0.5150 -1.0711
  548MOL0     H73955   4.749   1.085   2.986  1.1686  2.1773 -2.3417
  548MOL0     H73956   4.677   0.911   3.125  0.0864  0.9958 -1.3134
  548MOL0     H73957   4.831   0.925   3.170 -0.0075  1.8713 -1.0685
  548MOL0     H73958   4.770   0.695   3.162 -3.6046 -1.1062 -2.0700
  548MOL0     H73959   4.708   0.699   3.002  0.5090  0.7132 -0.7127
  548MOL0     H73960   4.073   1.171   2.611  0.7476 -1.3504 -1.8126
  548MOL0     H73961   3.855   1.098   2.513  1.0547  1.8047 -0.6853
  548MOL0     H73962   3.631   0.524   2.483  0.8938  1.9916  2.3850
  548MOL0     H73963   3.402   0.439   2.408  2.4191 -0.7323 -1.3809
  548MOL0     H73964   1.700   0.870   2.592  0.6351  1.2243 -0.4923
  548MOL0     H73965   1.507   1.029   2.608 -0.6183  1.1552 -1.9934
  548MOL0     H73966   1.089   1.153   2.432  0.8316  3.5898 -0.0669
  548MOL0     H73967   0.850   1.261   2.417 -2.2314 -0.7697  0.6080
  548MOL0     H73968   0.624   1.314   2.780  0.9349 -0.2567 -0.0630
  548MOL0     H73969   0.570   1.149   2.751 -1.6232 -1.1697 -1.8158
  548MOL0     H73970   0.377   1.284   2.732 -0.4867  2.6159  0.5959
  548MOL0     H73971   0.424   1.239   2.561  2.2862 -0.4177 -0.3497
  548MOL0     H73972   0.536   1.459   2.536 -2.0213  1.0315 -1.2109
  548MOL0     H73973   0.497   1.503   2.702 -0.9619  0.0483  0.6603
  548MOL0     H73974   0.323   1.428   2.467 -0.2551  2.0174 -1.5663
  548MOL0     H73975   0.248   1.466   2.626 -0.3837  0.8201 -0.5643
  548MOL0     H73976   0.289   1.845   2.450  2.4807  0.8569  0.7190
  548MOL0     H73977   0.776   1.103   2.808 -2.6715  3.4814 -1.0195
  548MOL0     H73978   1.075   1.065   2.930  2.4203  0.7199 -1.8638
  548MOL0     H73979   0.923   0.972   2.929 -0.8160 -0.8567 -1.2656
  548MOL0     H73980   1.067   0.917   2.848  0.7003  2.1805 -1.8654
  549MOL0     O73981   9.451   2.860   9.534 -0.1570  0.7090 -0.4897
  549MOL0     C73982   9.412   2.916   9.633 -1.0490  0.3618 -0.9079
  549MOL0     O73983   9.491   2.926   9.750  0.2514  0.2151  0.6699
  549MOL0     C73984   9.604   2.846   9.767 -0.2381 -0.6411 -0.1364
  549MOL0     C73985   9.607   2.705   9.749 -0.3724 -0.7084  0.4759
  549MOL0     C73986   9.727   2.638   9.756 -0.0525 -0.4744 -0.3752
  549MOL0     C73987   9.849   2.703   9.783  0.4152  0.0918 -0.6752
  549MOL0     O73988   9.957   2.621   9.774 -0.4312 -0.0333  0.1835
  549MOL0     C73989  10.090   2.677   9.756 -0.5837 -0.3715 -0.2032
  549MOL0     C73990  10.182   2.555   9.770  0.4168 -0.4016 -0.3506
  549MOL0     C73991  10.325   2.596   9.727 -0.0805 -0.5663 -0.0835
  549MOL0     C73992  10.424   2.481   9.726 -0.3490  0.0097  0.2285
  549MOL0     C73993  10.421   2.382   9.608 -0.0131 -0.4250  0.6604
  549MOL0     C73994  10.529   2.266   9.631  0.6602 -0.8779 -0.8572
  549MOL0     C73995  10.547   2.178   9.507 -1.0026 -0.4058 -0.9280
  549MOL0     C73996  10.649   2.058   9.531  0.3246 -0.7045 -0.2119
  549MOL0     N73997  10.701   2.002   9.403 -0.3444  0.0316  0.2135
  549MOL0     C73998  10.646   2.026   9.281  0.3116  0.5868 -0.0500
  549MOL0     C73999  10.740   1.989   9.185  0.6972  0.5626 -0.9398
  549MOL0     C74000  10.716   2.017   9.039  0.3746 -0.2607  0.5943
  549MOL0     C74001  10.819   1.948   8.951  0.3630  0.4543  0.0095
  549MOL0     C74002  10.819   1.989   8.798  0.7459  0.3645 -0.3730
  549MOL0     C74003  10.883   1.884   8.721 -0.2904 -0.6650  0.6113
  549MOL0     O74004  10.914   1.932   8.589  0.4727  0.4280 -0.1170
  549MOL0     C74005  11.022   2.008   8.569 -0.5962  0.0623 -0.3646
  549MOL0     C74006  11.062   2.038   8.434 -0.2448  0.5284  0.2373
  549MOL0     C74007  11.168   2.125   8.404 -0.5359  0.4350  0.3509
  549MOL0     C74008  11.259   2.168   8.506  0.1121 -0.2890  0.7332
  549MOL0     C74009  11.379   2.243   8.482 -0.0440  0.5239  0.0030
  549MOL0     O74010  11.423   2.329   8.576 -0.5177  0.6709 -0.2192
  549MOL0     C74011  11.506   2.440   8.548  0.6411 -0.6676  0.0085
  549MOL0     C74012  11.579   2.507   8.645  0.3492  0.0750 -0.4505
  549MOL0     C74013  11.650   2.619   8.609 -0.1241  0.0124 -0.0752
  549MOL0     C74014  11.651   2.672   8.483  0.3746  0.4096  0.0202
  549MOL0     O74015  11.715   2.790   8.449 -0.0890  0.1940 -0.3977
  549MOL0     C74016  11.837   2.783   8.375 -0.3958  0.4675 -0.0262
  549MOL0     C74017  11.926   2.903   8.406  0.3178  0.4014  0.0589
  549MOL0     C74018  12.061   2.897   8.330 -0.2257 -0.1418 -0.2389
  549MOL0     C74019  12.157   2.993   8.408 -0.0671 -0.3670  0.3113
  549MOL0     C74020  12.306   2.981   8.365 -0.0661 -0.3170  0.3865
  549MOL0     C74021  12.390   3.060   8.474  0.4599 -0.6109 -0.1748
  549MOL0     C74022  12.538   3.038   8.443  0.2980  1.1493  1.1144
  549MOL0     C74023  12.630   3.102   8.552  0.0051  0.7961  0.2648
  549MOL0    Cl74024  12.586   3.278   8.555  0.1434  0.7894  0.0321
  549MOL0     C74025  11.580   2.604   8.385 -0.0729  0.6043  0.7916
  549MOL0     C74026  11.511   2.489   8.421 -0.6962 -0.1347  1.1692
  549MOL0     O74027  11.432   2.223   8.375 -0.8279 -0.6126  0.6937
  549MOL0     C74028  11.225   2.133   8.639 -0.2003  0.8100  0.2953
  549MOL0     C74029  11.110   2.053   8.670  0.5863 -0.0938  0.0877
  549MOL0     N74030  10.847   1.941   9.260  0.3021  0.5088 -0.8001
  549MOL0     N74031  10.819   1.945   9.385 -0.0721  0.0421 -0.4536
  549MOL0     C74032   9.840   2.835   9.818 -0.9525 -0.3500  0.2791
  549MOL0     C74033   9.719   2.906   9.808 -0.3701 -0.1101 -0.5976
  549MOL0     C74034   9.299   3.015   9.637  0.6194 -0.0432  1.0352
  549MOL0     C74035   9.296   3.123   9.730 -0.0502  0.1201 -0.7892
  549MOL0     C74036   9.181   3.199   9.747  1.3259 -0.0014 -0.4373
  549MOL0     C74037   9.058   3.165   9.684  0.0482 -1.4771  0.3453
  549MOL0     O74038   8.953   3.243   9.708  0.1609 -0.4763  0.8263
  549MOL0     C74039   8.821   3.180   9.726  0.0218 -0.6301  0.5635
  549MOL0     C74040   8.732   3.194   9.591 -0.6303  0.3630  0.4783
  549MOL0     C74041   8.610   3.101   9.599  0.0145  0.1636  0.5025
  549MOL0     C74042   8.523   3.109   9.477  0.8730  0.4276  0.2187
  549MOL0     C74043   8.396   3.038   9.493 -0.4331  0.0708  0.5519
  549MOL0     C74044   8.283   3.000   9.521 -0.4477 -0.0442 -0.4488
  549MOL0     C74045   9.055   3.060   9.596 -0.6393  0.4899 -0.0164
  549MOL0     C74046   9.175   2.988   9.563 -0.7923 -0.3609 -0.0249
  549MOL0     C74047   9.162   2.887   9.457 -0.0309  0.3111  0.3223
  549MOL0     H74048   9.515   2.657   9.717 -0.4425 -1.2627  1.4673
  549MOL0     H74049   9.714   2.531   9.742 -1.0978 -0.4526  0.3510
  549MOL0     H74050  10.098   2.720   9.655  0.5546 -0.7672 -0.2957
  549MOL0     H74051  10.103   2.750   9.836  1.1220  1.0163 -1.6647
  549MOL0     H74052  10.146   2.469   9.713 -0.1755 -0.8086  0.6142
  549MOL0     H74053  10.169   2.520   9.873 -0.0914 -0.6093 -0.4857
  549MOL0     H74054  10.366   2.671   9.795  0.8718 -2.9387  2.1054
  549MOL0     H74055  10.315   2.635   9.625 -0.1941 -2.1139 -0.6942
  549MOL0     H74056  10.522   2.528   9.717  0.5390 -1.6916  0.6190
  549MOL0     H74057  10.411   2.428   9.821 -1.7652 -0.8728 -0.4085
  549MOL0     H74058  10.326   2.330   9.593  0.4901 -1.2312  0.2153
  549MOL0     H74059  10.442   2.441   9.519  1.5831 -1.4353  0.3220
  549MOL0     H74060  10.621   2.314   9.666  0.5390 -0.3386 -1.2634
  549MOL0     H74061  10.496   2.196   9.709  0.0288  1.0497  0.6764
  549MOL0     H74062  10.579   2.234   9.418  1.4604  1.1498  0.8273
  549MOL0     H74063  10.452   2.128   9.483 -1.1006 -1.2534  1.0615
  549MOL0     H74064  10.734   2.093   9.591 -2.0976  2.8601  1.5273
  549MOL0     H74065  10.603   1.981   9.594 -0.0986  0.8092  1.4240
  549MOL0     H74066  10.548   2.072   9.268  0.2895  0.3894 -0.6122
  549MOL0     H74067  10.612   1.988   9.020  0.4505  0.2633 -0.6978
  549MOL0     H74068  10.721   2.125   9.027 -0.1281 -0.2951  0.0154
  549MOL0     H74069  10.916   1.972   8.995 -0.1504  0.3056  1.2399
  549MOL0     H74070  10.820   1.839   8.949 -0.8608  0.4329 -0.4658
  549MOL0     H74071  10.862   2.089   8.785 -0.3617  0.9898  0.5523
  549MOL0     H74072  10.715   1.981   8.766  0.6433 -0.7625  0.2022
  549MOL0     H74073  10.815   1.798   8.713 -1.0566  0.0751 -1.5497
  549MOL0     H74074  10.974   1.847   8.768 -1.0560 -1.8992  1.1910
  549MOL0     H74075  11.004   1.991   8.355  2.0910 -0.2107 -1.1464
  549MOL0     H74076  11.191   2.145   8.300  1.5303  0.0118  0.6832
  549MOL0     H74077  11.577   2.476   8.749  0.3030 -0.2042 -0.5330
  549MOL0     H74078  11.701   2.671   8.689  1.1752  0.7731 -1.3445
  549MOL0     H74079  11.881   2.690   8.410 -1.7802  0.5717  2.2438
  549MOL0     H74080  11.806   2.784   8.270 -1.2055  0.9907  0.2018
  549MOL0     H74081  11.879   2.998   8.377 -0.1368  0.2241  0.2052
  549MOL0     H74082  11.948   2.897   8.513 -1.6556  1.4295  0.5878
  549MOL0     H74083  12.095   2.793   8.334 -1.6661 -0.6039  0.7913
  549MOL0     H74084  12.051   2.915   8.222  1.3411 -1.8711 -0.7320
  549MOL0     H74085  12.150   2.976   8.515 -0.7724  0.8128  0.4713
  549MOL0     H74086  12.117   3.092   8.387  0.2820  0.1582  1.9999
  549MOL0     H74087  12.332   3.017   8.265  0.8867  1.2712  1.1643
  549MOL0     H74088  12.340   2.877   8.359  0.4381 -0.0906 -0.7931
  549MOL0     H74089  12.365   3.166   8.471  2.9581  0.0170 -2.5168
  549MOL0     H74090  12.357   3.029   8.573  2.5577  0.7428  1.0225
  549MOL0     H74091  12.556   3.083   8.346 -1.2052  1.9017  1.1524
  549MOL0     H74092  12.564   2.932   8.435 -1.2486  0.8317 -0.2162
  549MOL0     H74093  12.606   3.044   8.642 -1.0471 -0.4391 -0.7830
  549MOL0     H74094  12.734   3.089   8.522  0.6617  0.6020  2.4360
  549MOL0     H74095  11.561   2.643   8.286 -0.4573 -2.4282 -0.4044
  549MOL0     H74096  11.452   2.445   8.340  2.2480  1.0553 -1.8315
  549MOL0     H74097  11.294   2.162   8.718 -1.3892  0.3591  1.5476
  549MOL0     H74098  11.095   2.027   8.774 -2.0996  1.7606  0.2945
  549MOL0     H74099   9.925   2.888   9.861 -2.3335 -0.0881  2.8610
  549MOL0     H74100   9.737   3.013   9.815 -1.5052  0.1132 -1.0188
  549MOL0     H74101   9.388   3.137   9.785 -1.1732  1.5208  0.8423
  549MOL0     H74102   9.176   3.283   9.814 -0.6480 -0.1387 -0.3500
  549MOL0     H74103   8.772   3.233   9.808 -1.1779  0.2782 -0.6845
  549MOL0     H74104   8.837   3.075   9.752 -1.0701 -0.5033  1.8347
  549MOL0     H74105   8.798   3.166   9.509 -0.9551  1.3078 -0.1167
  549MOL0     H74106   8.706   3.298   9.570 -1.1652  0.2528  0.5885
  549MOL0     H74107   8.554   3.135   9.687  1.1204  3.0685  0.1967
  549MOL0     H74108   8.647   3.000   9.619  0.8312  0.3655  0.0742
  549MOL0     H74109   8.493   3.212   9.457 -0.9686 -0.3510 -1.2845
  549MOL0     H74110   8.569   3.073   9.385 -1.3598 -0.7998 -0.4812
  549MOL0     H74111   8.182   2.981   9.551 -0.4201  0.7956  0.2180
  549MOL0     H74112   8.959   3.048   9.548 -2.8728  3.6561  3.0742
  549MOL0     H74113   9.171   2.798   9.520 -0.8883  0.0922  0.1496
  549MOL0     H74114   9.066   2.891   9.405  1.0664  1.1996 -1.7587
  549MOL0     H74115   9.242   2.899   9.383 -1.6845  0.2272 -1.5380
  550MOL0     O74116   2.767   4.935   2.406 -0.1911  0.0126 -0.4454
  550MOL0     C74117   2.719   4.998   2.316 -0.1627  0.3459  0.4683
  550MOL0     O74118   2.769   5.019   2.195  0.4483 -0.2068 -0.2613
  550MOL0     C74119   2.905   4.998   2.187 -0.0969 -0.4999 -0.6638
  550MOL0     C74120   2.991   5.101   2.219 -0.7119 -0.3372  0.3547
  550MOL0     C74121   3.128   5.079   2.228 -0.2247 -0.7165  0.9234
  550MOL0     C74122   3.175   4.953   2.202 -0.8965 -0.3430  0.0299
  550MOL0     O74123   3.311   4.919   2.189  0.4181 -0.1444 -0.5682
  550MOL0     C74124   3.394   4.993   2.100  0.2227 -0.2321 -0.4248
  550MOL0     C74125   3.538   5.002   2.124  0.5466 -0.8095  0.4913
  550MOL0     C74126   3.614   5.104   2.027  0.5157 -0.0013 -0.1680
  550MOL0     C74127   3.757   5.058   2.013 -0.7501  0.7581 -0.0154
  550MOL0     C74128   3.830   5.140   1.900 -0.3987 -0.3886  0.0850
  550MOL0     C74129   3.976   5.092   1.876 -0.4042  0.9784  0.3278
  550MOL0     C74130   3.959   4.950   1.802 -0.0674 -0.4090 -0.1661
  550MOL0     C74131   4.089   4.907   1.730  0.2864 -0.1153  0.1220
  550MOL0     N74132   4.208   4.908   1.821 -0.3447 -0.6694  0.2347
  550MOL0     C74133   4.280   5.016   1.880  0.3446 -0.4217  0.0422
  550MOL0     C74134   4.353   4.957   1.973  0.2315 -0.8973 -0.1492
  550MOL0     C74135   4.444   5.038   2.063  0.4023  0.6723 -0.4626
  550MOL0     C74136   4.595   5.015   2.019  0.3228 -1.2198  0.3007
  550MOL0     C74137   4.637   5.074   1.877  0.9550  0.2427  0.6933
  550MOL0     C74138   4.789   5.086   1.867  0.7432  0.4748  0.9669
  550MOL0     O74139   4.831   5.212   1.918  0.2900  0.4191  0.2440
  550MOL0     C74140   4.953   5.261   1.890 -0.6346  0.3871 -0.6044
  550MOL0     C74141   5.059   5.180   1.842 -0.7514  0.5892  0.6673
  550MOL0     C74142   5.184   5.231   1.807 -0.2160  0.1743  0.7018
  550MOL0     C74143   5.217   5.365   1.829  0.6636 -0.1354 -0.1563
  550MOL0     C74144   5.353   5.411   1.796  0.0801  0.3734 -0.7794
  550MOL0     O74145   5.422   5.347   1.700  0.2584 -0.5442  0.1371
  550MOL0     C74146   5.555   5.370   1.690  0.0996  0.0417  0.6687
  550MOL0     C74147   5.637   5.316   1.781  0.7993 -0.3179 -0.8203
  550MOL0     C74148   5.777   5.345   1.784 -0.3738  0.1922  0.5668
  550MOL0     C74149   5.830   5.428   1.684  0.3126  0.3859 -0.0267
  550MOL0     O74150   5.964   5.439   1.691  0.6932  0.3024  0.4928
  550MOL0     C74151   6.029   5.540   1.620  0.9543 -0.0497  0.3913
  550MOL0     C74152   6.176   5.505   1.630  0.0910 -0.6367  0.0794
  550MOL0     C74153   6.226   5.417   1.510  0.4975  0.6787  0.7215
  550MOL0     C74154   6.288   5.291   1.558 -0.8224 -0.4218 -0.2160
  550MOL0     C74155   6.427   5.315   1.628 -0.5953  0.9586 -0.8549
  550MOL0     C74156   6.494   5.184   1.695  0.1342  0.0539  0.4218
  550MOL0     C74157   6.638   5.206   1.746 -0.3926  0.2188 -0.0764
  550MOL0     C74158   6.686   5.075   1.800 -0.4684  0.1774 -0.1201
  550MOL0    Cl74159   6.832   5.112   1.894  0.1663  0.0241  0.1180
  550MOL0     C74160   5.742   5.485   1.593  0.0723 -0.3046  0.0575
  550MOL0     C74161   5.610   5.451   1.585 -0.2354  1.0373  0.4640
  550MOL0     O74162   5.393   5.503   1.866  0.8527  0.3399 -0.4439
  550MOL0     C74163   5.117   5.446   1.882  0.0039  0.0415 -0.5360
  550MOL0     C74164   4.986   5.395   1.907 -0.2955  0.4753 -0.3367
  550MOL0     N74165   4.314   4.823   1.983  0.5417 -0.2186 -0.6361
  550MOL0     N74166   4.238   4.792   1.888  0.8133  0.1142 -0.6330
  550MOL0     C74167   3.088   4.846   2.180 -0.1716  0.0573 -0.4143
  550MOL0     C74168   2.952   4.873   2.153 -0.0047 -0.1274 -0.4972
  550MOL0     C74169   2.577   5.051   2.325 -0.8016 -0.3373 -0.0816
  550MOL0     C74170   2.476   5.010   2.223  0.4312 -0.1714  0.4957
  550MOL0     C74171   2.348   5.060   2.230 -0.0409  0.8210  0.1517
  550MOL0     C74172   2.306   5.141   2.330  0.4235  0.4682 -0.6487
  550MOL0     O74173   2.172   5.174   2.322 -0.8708 -0.0997 -0.1943
  550MOL0     C74174   2.118   5.278   2.408  0.7290  0.6170  0.1521
  550MOL0     C74175   1.968   5.292   2.383  0.1967 -0.7392 -0.2545
  550MOL0     C74176   1.921   5.262   2.244 -0.0231 -0.0068 -0.3551
  550MOL0     C74177   1.801   5.344   2.197  0.5532  0.8202 -0.9553
  550MOL0     C74178   1.671   5.320   2.266 -0.6242 -0.3321  0.4913
  550MOL0     C74179   1.563   5.318   2.324 -0.4329 -0.3211  0.4743
  550MOL0     C74180   2.396   5.176   2.435  0.0921  1.6325 -0.4104
  550MOL0     C74181   2.536   5.135   2.430 -0.1941 -0.4820 -0.2836
  550MOL0     C74182   2.629   5.168   2.549 -0.9365 -0.3043  0.3376
  550MOL0     H74183   2.955   5.193   2.264  1.6690  0.4818  0.7364
  550MOL0     H74184   3.201   5.158   2.246  2.1941 -2.2013 -1.5533
  550MOL0     H74185   3.386   4.934   2.008  2.3568 -2.3662  0.6391
  550MOL0     H74186   3.365   5.097   2.087  1.1604  0.3606  1.7560
  550MOL0     H74187   3.578   4.901   2.134 -1.9337 -1.7372  2.1414
  550MOL0     H74188   3.557   5.042   2.224  0.2508 -1.2213  0.7116
  550MOL0     H74189   3.599   5.205   2.066  0.1859 -0.1786  0.1683
  550MOL0     H74190   3.566   5.106   1.929  0.0378  0.8932  0.0663
  550MOL0     H74191   3.804   5.056   2.111 -0.2222  1.2720 -0.2508
  550MOL0     H74192   3.759   4.954   1.981  2.7971  0.9299 -0.8015
  550MOL0     H74193   3.771   5.143   1.808 -0.7612  2.2155  0.3208
  550MOL0     H74194   3.841   5.247   1.922 -2.3106 -0.3256  0.9618
  550MOL0     H74195   4.032   5.152   1.803  1.5250  0.9155  1.6750
  550MOL0     H74196   4.037   5.089   1.968  0.4959 -2.6538 -0.2294
  550MOL0     H74197   3.877   4.959   1.729  1.0822  3.5278 -1.2111
  550MOL0     H74198   3.936   4.878   1.881 -2.6483  1.4675  0.9559
  550MOL0     H74199   4.083   4.802   1.698  1.5808  0.2075 -1.3025
  550MOL0     H74200   4.105   4.969   1.641  0.0626  2.4257  1.7586
  550MOL0     H74201   4.282   5.117   1.841 -1.7199 -0.9174 -1.5530
  550MOL0     H74202   4.407   5.141   2.062 -0.1971  0.4712  0.1182
  550MOL0     H74203   4.423   4.998   2.163  4.3370  0.4230  0.4380
  550MOL0     H74204   4.663   5.069   2.086  2.0629  0.9428 -2.9621
  550MOL0     H74205   4.616   4.908   2.026  0.4219 -1.5476 -3.2909
  550MOL0     H74206   4.590   5.172   1.860 -0.2233 -0.0275  2.1258
  550MOL0     H74207   4.601   5.005   1.801  2.0508  0.1844  0.2137
  550MOL0     H74208   4.817   5.087   1.761  0.7929  1.6550  0.9707
  550MOL0     H74209   4.841   5.002   1.913  2.0444 -0.4394 -1.9390
  550MOL0     H74210   5.042   5.073   1.835 -1.4959  0.7430 -0.0672
  550MOL0     H74211   5.276   5.175   1.789  0.9680  1.5564  2.1268
  550MOL0     H74212   5.598   5.239   1.847  0.1665  0.1214 -0.6788
  550MOL0     H74213   5.857   5.296   1.838 -0.5521 -3.8874 -2.3643
  550MOL0     H74214   6.005   5.557   1.514 -0.0923 -2.5203  0.1570
  550MOL0     H74215   6.013   5.632   1.676  2.4787 -1.0784  2.6730
  550MOL0     H74216   6.227   5.602   1.632  0.3125 -0.7555  0.2227
  550MOL0     H74217   6.195   5.458   1.726  0.3818  0.2706  0.4779
  550MOL0     H74218   6.138   5.378   1.458  3.8153 -2.8948 -2.8656
  550MOL0     H74219   6.280   5.477   1.437 -1.3797  1.1454 -0.3357
  550MOL0     H74220   6.311   5.227   1.472  1.0682 -0.1010  0.0253
  550MOL0     H74221   6.221   5.238   1.627  1.5518 -0.5891  2.1081
  550MOL0     H74222   6.422   5.388   1.709  1.3604  0.8085 -0.5534
  550MOL0     H74223   6.492   5.349   1.547 -0.7598 -0.4412 -1.5980
  550MOL0     H74224   6.437   5.139   1.777 -1.3396  3.2421  1.2979
  550MOL0     H74225   6.502   5.107   1.617 -0.1631  1.8712 -1.4976
  550MOL0     H74226   6.636   5.287   1.819  2.6378  0.4517 -0.1379
  550MOL0     H74227   6.708   5.245   1.672  3.5103 -3.3731  1.2838
  550MOL0     H74228   6.606   5.028   1.858  1.5865 -2.0343  1.0848
  550MOL0     H74229   6.714   5.005   1.721  0.9698  0.5398  0.0373
  550MOL0     H74230   5.778   5.555   1.518  0.2445 -0.1947  0.2401
  550MOL0     H74231   5.541   5.484   1.508 -1.1683  1.4414  1.4593
  550MOL0     H74232   5.140   5.549   1.905  0.4042 -0.0700 -0.4223
  550MOL0     H74233   4.907   5.461   1.941 -2.6196 -2.8962  1.4780
  550MOL0     H74234   3.128   4.746   2.169 -0.8307 -0.4689  1.5759
  550MOL0     H74235   2.879   4.799   2.122 -1.0629  1.0517 -0.9247
  550MOL0     H74236   2.503   4.931   2.154 -0.0997 -1.1413  1.3491
  550MOL0     H74237   2.283   5.020   2.153  0.2490 -1.6978  1.1010
  550MOL0     H74238   2.168   5.371   2.380  1.6985 -0.9515 -4.1579
  550MOL0     H74239   2.145   5.252   2.511  1.2730  0.1766 -0.0971
  550MOL0     H74240   1.932   5.389   2.417  1.2963 -0.8989  1.4913
  550MOL0     H74241   1.917   5.218   2.445  2.2510 -1.7588  0.3018
  550MOL0     H74242   1.899   5.155   2.240  2.2070 -0.4734 -1.9864
  550MOL0     H74243   2.002   5.272   2.172 -1.5338 -1.7247 -2.4393
  550MOL0     H74244   1.830   5.449   2.194  0.3479  0.8924 -0.5179
  550MOL0     H74245   1.792   5.301   2.097  2.2545 -0.2649 -0.6895
  550MOL0     H74246   1.468   5.301   2.370 -1.8172 -0.8128 -2.3586
  550MOL0     H74247   2.367   5.222   2.528 -0.7686 -1.9019  1.2633
  550MOL0     H74248   2.619   5.273   2.578  0.8042 -0.2079  0.7035
  550MOL0     H74249   2.603   5.108   2.637 -0.0757  2.8281  2.9208
  550MOL0     H74250   2.734   5.158   2.521 -0.1328  4.2086  0.9809
  551MOL0     O74251  11.132   2.680   6.583 -0.3800  0.5951 -0.5526
  551MOL0     C74252  11.098   2.789   6.626  0.0096  0.0337 -0.6517
  551MOL0     O74253  11.175   2.856   6.714  0.4481 -0.5025 -0.4291
  551MOL0     C74254  11.268   2.780   6.779 -0.1265 -0.6193  1.2272
  551MOL0     C74255  11.232   2.702   6.892  0.4758  0.2969  0.2406
  551MOL0     C74256  11.329   2.634   6.956  0.0400  0.7697 -0.0856
  551MOL0     C74257  11.469   2.649   6.919  0.0816  1.4937  0.2432
  551MOL0     O74258  11.559   2.568   6.997  0.0067 -0.2134  0.5349
  551MOL0     C74259  11.700   2.567   6.965  0.3499  0.3372  0.6902
  551MOL0     C74260  11.763   2.432   7.001  0.0414  0.5001 -0.0014
  551MOL0     C74261  11.689   2.308   6.951 -0.2973  0.3413  0.2197
  551MOL0     C74262  11.728   2.174   7.020 -0.4673  0.0203 -0.7088
  551MOL0     C74263  11.668   2.059   6.955 -1.2968  0.2959 -0.7174
  551MOL0     C74264  11.715   1.928   7.025 -0.0263  0.0833 -0.4561
  551MOL0     C74265  11.632   1.807   6.974 -0.3140 -0.0461  1.0729
  551MOL0     C74266  11.637   1.683   7.059 -0.0244 -0.5384  0.1009
  551MOL0     N74267  11.558   1.574   7.005 -0.9667 -0.1448  1.1400
  551MOL0     C74268  11.560   1.524   6.878 -0.1711 -0.4482  0.1245
  551MOL0     C74269  11.491   1.405   6.888 -0.3194 -1.0648  0.7792
  551MOL0     C74270  11.471   1.307   6.774  0.3807 -0.8296  0.1232
  551MOL0     C74271  11.453   1.374   6.634  0.6650  0.8878 -0.1851
  551MOL0     C74272  11.439   1.268   6.513 -0.6572 -0.7504 -1.0624
  551MOL0     C74273  11.350   1.149   6.528 -0.0394 -0.1956 -0.6184
  551MOL0     O74274  11.229   1.198   6.572 -0.9768  0.0301  0.4258
  551MOL0     C74275  11.122   1.110   6.580 -1.4059  0.2266  0.0472
  551MOL0     C74276  11.120   0.968   6.549  0.0644  0.3372  0.6672
  551MOL0     C74277  11.004   0.893   6.555  0.6205 -0.2589  0.1600
  551MOL0     C74278  10.885   0.943   6.604 -0.8008  0.2012  0.6879
  551MOL0     C74279  10.764   0.870   6.614  0.0683 -0.2357 -0.2895
  551MOL0     O74280  10.766   0.753   6.681  0.9057  0.7133  0.1061
  551MOL0     C74281  10.643   0.701   6.694 -0.3334  0.5084 -0.3835
  551MOL0     C74282  10.592   0.692   6.832  0.4130  0.2760  0.5594
  551MOL0     C74283  10.474   0.626   6.861  0.7193 -0.1161  0.4609
  551MOL0     C74284  10.398   0.576   6.752  0.4162 -1.3603  0.3790
  551MOL0     O74285  10.271   0.527   6.774 -0.3050  0.1717  1.0211
  551MOL0     C74286  10.273   0.426   6.876  0.4848 -0.2683 -0.7136
  551MOL0     C74287  10.162   0.324   6.870 -0.1237 -0.1933  0.1740
  551MOL0     C74288  10.140   0.258   6.732  0.5196 -0.1615 -0.4905
  551MOL0     C74289  10.046   0.140   6.746  0.3391  0.2574 -0.0447
  551MOL0     C74290  10.041   0.072   6.605 -0.1348  0.4188 -0.5445
  551MOL0     C74291   9.924  -0.034   6.613 -0.3925  0.5043 -0.1354
  551MOL0     C74292   9.930  -0.087   6.476 -0.0287  0.2416 -0.7611
  551MOL0     C74293   9.807  -0.180   6.443 -0.9525  0.5216  0.2389
  551MOL0    Cl74294   9.647  -0.113   6.489  0.1117 -0.1143 -0.1521
  551MOL0     C74295  10.436   0.592   6.622 -0.7958  0.3357  0.1569
  551MOL0     C74296  10.559   0.656   6.590 -0.4867  0.5152 -0.5526
  551MOL0     O74297  10.671   0.921   6.556  0.5727  0.3310  0.5992
  551MOL0     C74298  10.888   1.084   6.645  0.5113  0.4968 -0.4974
  551MOL0     C74299  11.002   1.159   6.622  0.4131 -0.5866  0.0104
  551MOL0     N74300  11.439   1.395   7.015 -0.9030  0.5671 -0.2267
  551MOL0     N74301  11.485   1.491   7.083  0.0291 -0.1308 -0.4660
  551MOL0     C74302  11.494   2.740   6.822 -0.4372 -0.1108  0.2739
  551MOL0     C74303  11.399   2.810   6.747 -0.2594 -0.0357 -0.5908
  551MOL0     C74304  10.982   2.864   6.568  0.2272 -0.1635 -0.3362
  551MOL0     C74305  10.953   2.993   6.627  0.1946 -0.5117  0.2928
  551MOL0     C74306  10.837   3.057   6.586 -0.6157 -0.0531  0.0044
  551MOL0     C74307  10.758   3.015   6.475 -0.3543  0.2210 -0.4018
  551MOL0     O74308  10.653   3.096   6.434 -0.0161  0.1749 -0.5516
  551MOL0     C74309  10.565   3.045   6.335 -0.2423 -0.6500 -0.4652
  551MOL0     C74310  10.433   3.128   6.316 -0.9001  0.8889  0.6637
  551MOL0     C74311  10.463   3.266   6.260  0.4040  0.8700 -1.3479
  551MOL0     C74312  10.331   3.349   6.231  0.1208  0.7382 -0.4583
  551MOL0     C74313  10.245   3.281   6.135  0.3692 -0.1553  0.1902
  551MOL0     C74314  10.178   3.218   6.052  0.2514  0.6953 -0.3496
  551MOL0     C74315  10.790   2.898   6.417 -0.7596  0.0228  0.3158
  551MOL0     C74316  10.898   2.815   6.457 -0.1234 -0.4193 -1.1614
  551MOL0     C74317  10.928   2.700   6.371  0.8529 -0.1089 -0.0764
  551MOL0     H74318  11.125   2.683   6.903  0.3772  1.2774  1.1717
  551MOL0     H74319  11.304   2.556   7.026  1.1975 -0.9831 -1.5140
  551MOL0     H74320  11.738   2.589   6.864 -0.9932 -2.2793 -0.4946
  551MOL0     H74321  11.746   2.641   7.032  2.6484  2.5533 -2.9586
  551MOL0     H74322  11.770   2.412   7.108 -1.3638 -4.6342 -0.5748
  551MOL0     H74323  11.862   2.424   6.955  0.2918 -1.9738  0.7880
  551MOL0     H74324  11.705   2.293   6.844 -0.9048  0.1972  0.1484
  551MOL0     H74325  11.584   2.322   6.976  0.0733  1.5798  1.1821
  551MOL0     H74326  11.837   2.169   7.015 -0.2308  1.2103  1.6472
  551MOL0     H74327  11.695   2.166   7.123  0.2182 -1.1973 -0.5664
  551MOL0     H74328  11.560   2.079   6.952 -1.1811  0.9855 -0.2783
  551MOL0     H74329  11.701   2.056   6.851 -0.5641  1.9443 -0.5645
  551MOL0     H74330  11.823   1.918   7.010 -0.1761 -1.0170 -0.8931
  551MOL0     H74331  11.688   1.939   7.131 -0.5885  0.0565 -0.5968
  551MOL0     H74332  11.673   1.784   6.876 -0.1394 -0.9353  1.3449
  551MOL0     H74333  11.528   1.843   6.972  0.5322  2.6181  1.1737
  551MOL0     H74334  11.739   1.645   7.064  0.0244 -0.2544  1.7043
  551MOL0     H74335  11.596   1.720   7.153  0.2739  1.0362 -0.3581
  551MOL0     H74336  11.620   1.559   6.795  0.7717  0.3880  1.1187
  551MOL0     H74337  11.558   1.240   6.780  1.4792  0.4913 -0.6242
  551MOL0     H74338  11.379   1.251   6.794 -2.2928  2.7618 -1.2000
  551MOL0     H74339  11.366   1.439   6.631  3.1387  4.4534 -2.2725
  551MOL0     H74340  11.543   1.435   6.619  0.3435  1.8293  1.4711
  551MOL0     H74341  11.535   1.220   6.491 -0.8475 -0.6737 -2.0920
  551MOL0     H74342  11.430   1.337   6.429  0.3849  1.8132  0.7904
  551MOL0     H74343  11.395   1.081   6.601  0.0498  0.0595 -0.4316
  551MOL0     H74344  11.344   1.098   6.432  3.1141 -2.1772  0.0650
  551MOL0     H74345  11.205   0.920   6.501 -0.0000  0.7792  0.0979
  551MOL0     H74346  11.002   0.794   6.512 -1.2081  0.5614 -1.8451
  551MOL0     H74347  10.651   0.718   6.919  2.1578  3.3284 -1.3397
  551MOL0     H74348  10.439   0.621   6.963  1.4654 -0.6833  0.6968
  551MOL0     H74349  10.367   0.371   6.879 -0.4846 -2.1125  3.3617
  551MOL0     H74350  10.268   0.486   6.968  1.3106  0.8021 -1.3382
  551MOL0     H74351  10.205   0.250   6.938  1.0517  1.2291  1.0607
  551MOL0     H74352  10.071   0.374   6.905  0.2060 -0.3278  1.2604
  551MOL0     H74353  10.093   0.323   6.657 -2.2870 -0.0430  1.2240
  551MOL0     H74354  10.232   0.215   6.690 -0.5647 -3.2496  0.0495
  551MOL0     H74355   9.951   0.186   6.773  2.6224  5.9243 -0.2030
  551MOL0     H74356  10.082   0.076   6.827  0.0768  3.2532  2.6528
  551MOL0     H74357  10.132   0.020   6.574  0.4652  1.6673 -0.9317
  551MOL0     H74358  10.034   0.149   6.528  0.6747 -1.3370 -2.4688
  551MOL0     H74359   9.964  -0.104   6.686 -1.1649 -0.6345 -0.7783
  551MOL0     H74360   9.824   0.006   6.632  0.1428  1.3886  0.9352
  551MOL0     H74361  10.022  -0.144   6.460 -1.6740 -2.5405 -0.9418
  551MOL0     H74362   9.930  -0.005   6.403  0.7941 -1.4413 -2.7551
  551MOL0     H74363   9.808  -0.185   6.334 -2.6040  2.5267  0.0553
  551MOL0     H74364   9.824  -0.276   6.493 -4.7899  0.7096  2.2907
  551MOL0     H74365  10.376   0.541   6.547  2.1572 -0.2916 -1.9679
  551MOL0     H74366  10.587   0.662   6.485 -0.4636  1.9875 -0.4889
  551MOL0     H74367  10.797   1.128   6.685 -1.2757 -1.5789 -1.9961
  551MOL0     H74368  11.008   1.265   6.643  2.7132 -0.7594  0.5023
  551MOL0     H74369  11.596   2.744   6.785 -1.0245  0.1137 -1.4084
  551MOL0     H74370  11.437   2.876   6.670 -1.0661 -1.0520 -1.9056
  551MOL0     H74371  11.009   3.031   6.712 -1.4058 -0.4903  1.3881
  551MOL0     H74372  10.793   3.140   6.641 -0.1075  0.8172 -0.8687
  551MOL0     H74373  10.538   2.943   6.361  2.9555 -1.8904 -1.5256
  551MOL0     H74374  10.628   3.041   6.245 -0.1981 -2.3049 -0.3938
  551MOL0     H74375  10.381   3.144   6.411 -1.3594 -3.0223  1.2425
  551MOL0     H74376  10.377   3.064   6.247  3.2480 -0.6803 -1.5655
  551MOL0     H74377  10.525   3.261   6.170  0.1952  1.0796 -1.5062
  551MOL0     H74378  10.521   3.315   6.339 -1.0616  0.9675 -0.2928
  551MOL0     H74379  10.281   3.379   6.324  0.4512  1.4379 -0.5009
  551MOL0     H74380  10.358   3.444   6.185 -1.7168  2.1415  1.1877
  551MOL0     H74381  10.127   3.135   6.008 -0.5395 -0.8450  3.1618
  551MOL0     H74382  10.743   2.861   6.326  3.3602 -0.0392 -2.0109
  551MOL0     H74383  10.854   2.680   6.293 -0.7374 -0.5014  1.4694
  551MOL0     H74384  11.022   2.717   6.319  1.1380 -0.2145  0.4019
  551MOL0     H74385  10.941   2.608   6.429 -1.1157 -0.0519  0.5230
  552MOL0     O74386   4.280   4.692   5.886 -0.3796  0.7494 -0.3552
  552MOL0     C74387   4.224   4.787   5.835 -0.6650 -0.7755  0.5748
  552MOL0     O74388   4.292   4.907   5.810  0.3579 -0.0813  0.7270
  552MOL0     C74389   4.422   4.915   5.831 -0.2964  0.2995  1.0267
  552MOL0     C74390   4.461   4.894   5.963 -0.4950  0.0369 -0.3143
  552MOL0     C74391   4.591   4.923   6.002  0.1440 -0.0026  0.6543
  552MOL0     C74392   4.689   4.974   5.912  0.3228  0.5482 -0.3174
  552MOL0     O74393   4.818   4.996   5.959  0.2796  0.0450  0.1164
  552MOL0     C74394   4.924   5.042   5.873 -0.2430  0.2199  0.0098
  552MOL0     C74395   5.033   5.096   5.955 -0.1113 -0.0844  0.0668
  552MOL0     C74396   5.147   5.146   5.871  0.1821 -0.8044 -0.1176
  552MOL0     C74397   5.264   5.189   5.967  0.4323 -0.4849 -1.1366
  552MOL0     C74398   5.392   5.236   5.901 -1.1092  0.0885 -0.3244
  552MOL0     C74399   5.524   5.247   5.991 -0.2054  0.6990 -0.4746
  552MOL0     C74400   5.654   5.266   5.915 -0.0332 -0.3737 -0.3224
  552MOL0     C74401   5.694   5.148   5.838 -0.6252  0.8639 -0.1651
  552MOL0     N74402   5.839   5.154   5.801  0.4335 -0.2321 -0.1152
  552MOL0     C74403   5.940   5.078   5.852 -0.4443  0.3913  0.2562
  552MOL0     C74404   6.055   5.132   5.809  0.2084 -0.6104 -0.2110
  552MOL0     C74405   6.199   5.104   5.864  0.4550 -0.8781  0.0814
  552MOL0     C74406   6.250   4.962   5.831 -0.3876 -0.3841 -0.5110
  552MOL0     C74407   6.398   4.952   5.872  0.0084 -0.1397  0.4079
  552MOL0     C74408   6.490   5.039   5.778 -0.6153 -0.4539  0.4695
  552MOL0     O74409   6.627   5.009   5.817 -0.3256 -0.4758 -0.5479
  552MOL0     C74410   6.721   5.089   5.757 -0.4580  0.2150 -0.9841
  552MOL0     C74411   6.849   5.071   5.798 -0.1365  0.0450  0.4249
  552MOL0     C74412   6.961   5.136   5.744 -0.4484 -0.2362 -0.3614
  552MOL0     C74413   6.947   5.234   5.641 -0.3918  0.5311 -0.2443
  552MOL0     C74414   7.067   5.291   5.574 -0.7166 -0.4280 -0.2223
  552MOL0     O74415   7.179   5.292   5.646  0.4506 -0.2381  0.1305
  552MOL0     C74416   7.293   5.301   5.575 -0.4268  0.3720 -1.1628
  552MOL0     C74417   7.366   5.191   5.539  0.4900 -0.2037 -0.5230
  552MOL0     C74418   7.492   5.200   5.488  0.0039  0.2832 -0.2337
  552MOL0     C74419   7.564   5.316   5.482  0.2574 -0.1699 -0.4994
  552MOL0     O74420   7.695   5.334   5.459 -0.9940  0.0526 -0.4970
  552MOL0     C74421   7.772   5.219   5.431 -0.0859 -0.3339  0.5805
  552MOL0     C74422   7.907   5.253   5.377 -0.5675 -1.0164 -0.2212
  552MOL0     C74423   7.998   5.311   5.476  0.8575  0.1965  0.3834
  552MOL0     C74424   8.146   5.316   5.438 -0.7816  0.3483  0.1615
  552MOL0     C74425   8.204   5.179   5.404 -0.2990 -0.5602 -0.3000
  552MOL0     C74426   8.324   5.149   5.497 -0.3516  0.7922  0.0685
  552MOL0     C74427   8.440   5.076   5.427  0.3491 -0.0816  0.1275
  552MOL0     C74428   8.567   5.079   5.511  0.0777  0.4893 -0.6154
  552MOL0    Cl74429   8.686   4.968   5.442 -0.5844 -0.1532 -0.1871
  552MOL0     C74430   7.499   5.430   5.533 -0.1893  0.6589  0.4253
  552MOL0     C74431   7.364   5.418   5.576  0.2239 -0.7232 -0.0618
  552MOL0     O74432   7.054   5.358   5.472  0.3614 -0.2413  0.2626
  552MOL0     C74433   6.815   5.250   5.588 -0.5896  0.0215 -0.5888
  552MOL0     C74434   6.707   5.184   5.649 -0.0205  0.6356 -0.2355
  552MOL0     N74435   6.024   5.248   5.738 -0.2787  0.5471 -0.0355
  552MOL0     N74436   5.899   5.258   5.732 -0.9565 -0.2367 -0.1962
  552MOL0     C74437   4.646   5.001   5.783 -0.1368 -0.3791 -0.1269
  552MOL0     C74438   4.516   4.968   5.742  0.5822 -0.4532  0.0778
  552MOL0     C74439   4.075   4.767   5.824 -0.2703 -0.2595  0.1996
  552MOL0     C74440   4.020   4.639   5.845  0.7218 -0.9654 -0.0588
  552MOL0     C74441   3.885   4.627   5.850  0.0024 -0.2184  0.1304
  552MOL0     C74442   3.793   4.733   5.836 -0.2762  0.2096  0.2344
  552MOL0     O74443   3.660   4.725   5.853  0.6830  0.2765 -0.1116
  552MOL0     C74444   3.590   4.608   5.907  0.8006  1.2029  0.9668
  552MOL0     C74445   3.435   4.637   5.908  0.1210  0.0118 -0.7099
  552MOL0     C74446   3.360   4.540   5.986 -0.2780  0.8769  0.1337
  552MOL0     C74447   3.217   4.576   5.988 -0.5968  0.4767 -0.0638
  552MOL0     C74448   3.158   4.489   6.089  0.4994 -0.1715  0.3561
  552MOL0     C74449   3.127   4.435   6.195 -0.8395  0.1578 -0.1643
  552MOL0     C74450   3.846   4.863   5.812 -0.5121 -0.4677  0.1236
  552MOL0     C74451   3.987   4.880   5.807 -0.0250 -0.1431  0.1923
  552MOL0     C74452   4.030   5.026   5.809 -0.0517 -0.5853  0.1091
  552MOL0     H74453   4.382   4.864   6.031 -0.5360  2.3071  0.7203
  552MOL0     H74454   4.631   4.902   6.101  0.3076  0.7915  0.7659
  552MOL0     H74455   4.971   4.961   5.816  0.4959  2.4520 -2.7787
  552MOL0     H74456   4.883   5.112   5.800 -1.1525  1.2870  1.4960
  552MOL0     H74457   5.075   5.015   6.015 -0.9765 -2.5837 -2.4256
  552MOL0     H74458   4.979   5.172   6.012  0.8491  1.3943 -0.9326
  552MOL0     H74459   5.117   5.237   5.818 -0.1913  0.4132  2.0853
  552MOL0     H74460   5.179   5.066   5.803 -2.0021 -1.1659 -0.8073
  552MOL0     H74461   5.230   5.269   6.034  1.4536 -0.9000 -0.1002
  552MOL0     H74462   5.280   5.099   6.027 -2.0555 -0.7189 -0.7166
  552MOL0     H74463   5.425   5.164   5.826  0.8779  1.0558 -0.4496
  552MOL0     H74464   5.371   5.329   5.848  0.4083  0.3456 -0.5130
  552MOL0     H74465   5.507   5.330   6.060  0.6709  0.8816 -0.4646
  552MOL0     H74466   5.529   5.150   6.042 -1.1766 -0.4046 -2.3804
  552MOL0     H74467   5.721   5.292   5.997 -2.2221  0.9445  1.1483
  552MOL0     H74468   5.655   5.355   5.850 -4.6665  0.2731  0.1738
  552MOL0     H74469   5.681   5.057   5.897 -0.2001  0.1285 -1.1763
  552MOL0     H74470   5.637   5.136   5.746 -2.5421 -0.5183  1.1374
  552MOL0     H74471   5.931   4.987   5.910 -0.9378  0.7548  0.7624
  552MOL0     H74472   6.264   5.170   5.806  1.5131 -1.5161  0.5083
  552MOL0     H74473   6.211   5.132   5.969 -1.5562  0.0436  0.1073
  552MOL0     H74474   6.197   4.880   5.882  1.4114 -0.9387  0.5719
  552MOL0     H74475   6.247   4.941   5.724  1.2434 -0.4951 -0.5538
  552MOL0     H74476   6.434   4.849   5.864  2.4457  0.8209 -2.9853
  552MOL0     H74477   6.409   4.983   5.976 -1.3829  1.0830  0.2178
  552MOL0     H74478   6.484   5.147   5.797  3.9087  0.1158 -0.1064
  552MOL0     H74479   6.462   5.020   5.674  0.3856  1.4701 -0.1958
  552MOL0     H74480   6.860   4.999   5.878  0.6060  1.0771  1.2861
  552MOL0     H74481   7.059   5.121   5.789 -0.0267  4.0916  0.5690
  552MOL0     H74482   7.326   5.091   5.552 -1.2329  0.5852  0.7174
  552MOL0     H74483   7.548   5.111   5.462  1.2967  0.9938 -0.0066
  552MOL0     H74484   7.790   5.161   5.522  2.5594 -0.6724 -0.1041
  552MOL0     H74485   7.716   5.155   5.362  0.0425  0.9651 -0.7899
  552MOL0     H74486   7.961   5.162   5.350  1.2947 -0.0795  0.1773
  552MOL0     H74487   7.904   5.312   5.285 -0.8564 -0.3699  0.2032
  552MOL0     H74488   7.961   5.413   5.491  2.2838  0.8202 -0.1390
  552MOL0     H74489   7.992   5.250   5.566 -1.9926 -0.0305  0.1354
  552MOL0     H74490   8.201   5.355   5.524 -0.1033 -0.2225  0.0019
  552MOL0     H74491   8.159   5.388   5.357  0.5170  0.2262  0.2375
  552MOL0     H74492   8.237   5.185   5.300 -1.3474  1.8820 -0.5440
  552MOL0     H74493   8.134   5.097   5.422  0.2300 -1.1310 -0.7894
  552MOL0     H74494   8.365   5.245   5.530 -0.8869  0.7663  0.8265
  552MOL0     H74495   8.291   5.080   5.574  2.1818 -3.2463 -2.1026
  552MOL0     H74496   8.469   5.120   5.331  0.2171 -0.1266  0.0657
  552MOL0     H74497   8.421   4.970   5.406 -0.7678  0.7657 -4.0945
  552MOL0     H74498   8.600   5.183   5.512 -0.7406  0.8052  1.6746
  552MOL0     H74499   8.531   5.051   5.611 -1.1586 -4.1732 -2.1265
  552MOL0     H74500   7.546   5.527   5.529  0.2176  0.4240 -1.5463
  552MOL0     H74501   7.327   5.514   5.611 -1.9896 -1.7636  0.6304
  552MOL0     H74502   6.814   5.314   5.500  0.1030  0.0985 -0.5405
  552MOL0     H74503   6.604   5.195   5.616 -0.7804 -1.0227  1.3870
  552MOL0     H74504   4.709   5.042   5.705  1.8174 -0.5683  1.2578
  552MOL0     H74505   4.477   5.000   5.646  2.0892  0.4760 -0.2527
  552MOL0     H74506   4.084   4.551   5.844 -1.5640 -2.7361  0.6550
  552MOL0     H74507   3.845   4.528   5.871 -0.1487  0.2344  2.2882
  552MOL0     H74508   3.628   4.577   6.005  0.5504 -0.6383  0.5137
  552MOL0     H74509   3.606   4.524   5.839  1.9070  1.0166  1.4390
  552MOL0     H74510   3.398   4.638   5.805  0.5760 -1.3771 -0.8949
  552MOL0     H74511   3.404   4.731   5.955 -2.8964 -0.3756 -1.7049
  552MOL0     H74512   3.404   4.538   6.086  0.2554  1.3503 -0.0815
  552MOL0     H74513   3.366   4.441   5.939  0.4714  0.1023  1.7772
  552MOL0     H74514   3.205   4.682   6.015 -1.2656  0.3204  0.2492
  552MOL0     H74515   3.178   4.557   5.888  0.3961 -1.5420 -0.1105
  552MOL0     H74516   3.093   4.393   6.287  0.4868 -2.7194 -0.8885
  552MOL0     H74517   3.780   4.949   5.808  0.2601  0.1908  1.0940
  552MOL0     H74518   3.948   5.096   5.790  1.5596  2.0135  2.0225
  552MOL0     H74519   4.070   5.051   5.908 -0.4547  2.1852 -0.3521
  552MOL0     H74520   4.111   5.044   5.738  0.2095 -1.3672  0.1991
  553MOL0     O74521  11.094   8.760   1.055  0.9216  0.5626  0.3700
  553MOL0     C74522  11.060   8.764   0.935  0.1187  0.8006 -0.2452
  553MOL0     O74523  11.120   8.843   0.839  0.0411  0.1571 -0.0170
  553MOL0     C74524  11.242   8.902   0.873  0.3794  0.5467 -0.4015
  553MOL0     C74525  11.356   8.859   0.798  0.0638 -0.6274 -0.4983
  553MOL0     C74526  11.481   8.918   0.816 -0.1060 -0.7198 -0.8786
  553MOL0     C74527  11.487   9.012   0.923 -0.4917  0.4093  0.0258
  553MOL0     O74528  11.601   9.068   0.976 -0.5538  0.9133  0.5541
  553MOL0     C74529  11.732   9.016   0.938 -0.9790  0.1662  0.2557
  553MOL0     C74530  11.847   9.108   0.987 -0.4807  0.2695  0.0550
  553MOL0     C74531  11.876   9.082   1.143 -0.8980 -0.5946  0.4416
  553MOL0     C74532  11.976   9.185   1.202  0.1158  0.0187 -0.4988
  553MOL0     C74533  11.997   9.163   1.351 -1.3807 -0.8949  0.5121
  553MOL0     C74534  11.884   9.205   1.440  0.0023  0.0247  0.4207
  553MOL0     C74535  11.887   9.130   1.563  0.2395  0.6707 -0.5075
  553MOL0     C74536  12.010   9.162   1.659 -0.3864  0.0277 -0.2751
  553MOL0     N74537  12.032   9.308   1.671  0.7637  0.1013  0.7802
  553MOL0     C74538  11.969   9.392   1.762  0.1944  0.8488 -0.0013
  553MOL0     C74539  12.037   9.511   1.749 -0.5181  0.1046  0.4203
  553MOL0     C74540  12.026   9.632   1.841  0.5898  0.3034 -0.3768
  553MOL0     C74541  12.150   9.721   1.831  0.0820  0.4116 -0.6630
  553MOL0     C74542  12.166   9.814   1.950  0.0636 -0.8348 -0.4352
  553MOL0     C74543  12.315   9.860   1.973 -0.8733  0.6235 -0.2689
  553MOL0     O74544  12.392   9.749   2.007  0.2973  0.6165  0.4608
  553MOL0     C74545  12.516   9.773   2.055 -0.1223 -0.3417 -1.0892
  553MOL0     C74546  12.592   9.663   2.103  0.9190 -0.5738 -0.7479
  553MOL0     C74547  12.725   9.674   2.142  0.6036 -0.2747  0.0725
  553MOL0     C74548  12.789   9.805   2.153 -0.6085  1.0578  0.7822
  553MOL0     C74549  12.927   9.813   2.205 -0.5099 -0.5221 -0.4495
  553MOL0     O74550  12.980   9.932   2.200  0.4223 -0.1985  0.1317
  553MOL0     C74551  13.113   9.953   2.224 -0.0816  0.1639 -0.0025
  553MOL0     C74552  13.194   9.880   2.317  0.1782 -0.3688  0.2401
  553MOL0     C74553  13.327   9.908   2.339  1.5650  0.2936  0.3379
  553MOL0     C74554  13.385  10.021   2.281 -0.0478  0.1428 -0.6695
  553MOL0     O74555  13.515  10.052   2.301  0.5396 -0.4129  0.1175
  553MOL0     C74556  13.599  10.120   2.201 -0.2845  0.6964 -0.5752
  553MOL0     C74557  13.729  10.105   2.277  0.2511  0.0826  0.4602
  553MOL0     C74558  13.783   9.962   2.289  0.8745 -0.2528  0.3430
  553MOL0     C74559  13.899   9.964   2.377 -0.1704 -0.2769 -0.0589
  553MOL0     C74560  13.985   9.838   2.357  0.6520 -0.0598  0.4099
  553MOL0     C74561  14.085   9.813   2.473  1.2067 -0.5891 -0.6804
  553MOL0     C74562  14.186   9.699   2.445 -0.3912 -0.2408  0.1908
  553MOL0     C74563  14.314   9.736   2.527  0.4164  0.5418 -0.1607
  553MOL0    Cl74564  14.405   9.580   2.543 -0.0698 -0.2231  0.4109
  553MOL0     C74565  13.301  10.104   2.199 -0.4513 -0.3102 -1.0308
  553MOL0     C74566  13.168  10.069   2.166 -0.3230 -0.4421 -0.1103
  553MOL0     O74567  12.988   9.709   2.202  0.5988  0.3353  0.2288
  553MOL0     C74568  12.715   9.914   2.107  0.7009  0.0595 -0.3497
  553MOL0     C74569  12.583   9.898   2.062 -0.4470  0.2008 -0.7157
  553MOL0     N74570  12.139   9.503   1.647  1.4315 -0.4589  0.7908
  553MOL0     N74571  12.130   9.380   1.601 -0.6956 -0.6682  0.3359
  553MOL0     C74572  11.376   9.052   0.992  0.7299 -1.1131  0.7036
  553MOL0     C74573  11.251   9.000   0.971 -0.0225 -0.4825  0.2699
  553MOL0     C74574  10.935   8.708   0.887  0.3512  1.1608  0.8112
  553MOL0     C74575  10.856   8.777   0.796 -0.2268  0.1387 -0.0148
  553MOL0     C74576  10.734   8.727   0.744  0.1094  0.8245  0.3920
  553MOL0     C74577  10.685   8.602   0.783  0.6794  0.2141  0.1879
  553MOL0     O74578  10.570   8.557   0.731  0.6092 -0.8903  0.2936
  553MOL0     C74579  10.469   8.516   0.824  0.0912 -0.8210  0.2243
  553MOL0     C74580  10.372   8.421   0.752  0.0340  0.2815 -0.0566
  553MOL0     C74581  10.445   8.301   0.692  0.0161  0.2185  0.1442
  553MOL0     C74582  10.351   8.212   0.618  0.2341  1.0693 -0.4085
  553MOL0     C74583  10.296   8.252   0.493 -0.1419  0.4792  0.3179
  553MOL0     C74584  10.257   8.303   0.389  0.1649 -0.0780 -0.5254
  553MOL0     C74585  10.769   8.522   0.865  0.0682  0.2727 -0.2052
  553MOL0     C74586  10.893   8.575   0.920  0.4246  0.0937 -0.0860
  553MOL0     C74587  10.983   8.489   1.005 -0.3604 -0.7675  0.6373
  553MOL0     H74588  11.340   8.771   0.736 -3.2659  0.5029 -1.4838
  553MOL0     H74589  11.572   8.865   0.788 -0.0458 -0.8043 -0.5246
  553MOL0     H74590  11.749   8.915   0.976 -1.4366 -0.3791 -0.9161
  553MOL0     H74591  11.744   9.009   0.829  2.0372  5.4654 -0.0874
  553MOL0     H74592  11.831   9.214   0.964 -0.2933  0.0721 -1.0472
  553MOL0     H74593  11.942   9.086   0.937  0.5357  2.9066  0.6641
  553MOL0     H74594  11.914   8.981   1.163 -2.7709 -1.6601 -0.9631
  553MOL0     H74595  11.782   9.098   1.196 -1.4015 -0.3619 -0.5000
  553MOL0     H74596  12.065   9.182   1.139  0.0549 -1.5191 -0.5595
  553MOL0     H74597  11.939   9.288   1.202  1.1225  0.4775  2.3049
  553MOL0     H74598  12.013   9.056   1.370 -0.3603 -0.9233 -0.3721
  553MOL0     H74599  12.082   9.225   1.383 -0.0975 -1.0497 -2.2634
  553MOL0     H74600  11.879   9.312   1.461 -1.1650 -0.4630  2.9205
  553MOL0     H74601  11.789   9.186   1.389  0.8087  0.8653 -1.5210
  553MOL0     H74602  11.884   9.022   1.546  3.1089  0.1375  1.6817
  553MOL0     H74603  11.799   9.157   1.623 -0.3169 -1.2221 -0.3963
  553MOL0     H74604  11.996   9.118   1.758 -0.6164 -0.3153 -0.4593
  553MOL0     H74605  12.098   9.120   1.610  0.3296  1.0490  0.1052
  553MOL0     H74606  11.884   9.368   1.824 -0.0128  0.3705 -0.4609
  553MOL0     H74607  11.932   9.683   1.819  0.2031 -0.2357  0.0047
  553MOL0     H74608  12.008   9.593   1.941 -2.1737 -2.7732 -1.8685
  553MOL0     H74609  12.240   9.657   1.829 -0.9565 -1.1834  0.7633
  553MOL0     H74610  12.151   9.777   1.737 -2.5849  1.8231  0.0834
  553MOL0     H74611  12.135   9.764   2.042 -1.5263 -0.4957 -0.7540
  553MOL0     H74612  12.106   9.905   1.936 -0.8375 -1.5227 -1.2190
  553MOL0     H74613  12.329   9.941   2.045 -1.8822  0.2482  0.3748
  553MOL0     H74614  12.359   9.899   1.881  0.0983 -0.1725 -0.1628
  553MOL0     H74615  12.532   9.573   2.091 -0.5013 -0.0162  1.4824
  553MOL0     H74616  12.782   9.587   2.174 -0.0648 -0.9560 -0.5668
  553MOL0     H74617  13.161   9.796   2.378  1.8456 -1.5138 -0.3760
  553MOL0     H74618  13.390   9.848   2.404  0.9036 -3.2684 -2.0374
  553MOL0     H74619  13.592  10.060   2.110  1.0720 -1.7122  0.7778
  553MOL0     H74620  13.565  10.223   2.194 -1.3530  0.3437 -0.7515
  553MOL0     H74621  13.801  10.165   2.222 -0.1513 -1.6393 -2.1183
  553MOL0     H74622  13.725  10.141   2.380  0.6195 -2.5547  1.4952
  553MOL0     H74623  13.705   9.896   2.329 -1.1201  0.7267 -1.7264
  553MOL0     H74624  13.796   9.928   2.186 -1.8296 -2.5986  0.6473
  553MOL0     H74625  13.866   9.978   2.481 -0.2365  1.5069 -0.2763
  553MOL0     H74626  13.961  10.051   2.353  0.6413 -1.4606 -2.4387
  553MOL0     H74627  14.048   9.861   2.270  2.2004  0.3618  1.5813
  553MOL0     H74628  13.919   9.755   2.330 -0.1039  1.1945 -1.9069
  553MOL0     H74629  14.139   9.906   2.494  2.0125 -0.2237 -3.8976
  553MOL0     H74630  14.031   9.785   2.564 -1.5182 -0.3999 -2.1191
  553MOL0     H74631  14.207   9.700   2.338  1.6564  0.3063  0.5548
  553MOL0     H74632  14.150   9.597   2.463 -0.2934 -0.3265 -0.1079
  553MOL0     H74633  14.364   9.824   2.485 -0.1047  0.7632 -0.3363
  553MOL0     H74634  14.296   9.765   2.631 -1.7674 -1.2206  0.0195
  553MOL0     H74635  13.348  10.194   2.162  3.1044 -2.0466 -1.1082
  553MOL0     H74636  13.110  10.134   2.101  0.6267  0.7660  0.2045
  553MOL0     H74637  12.769  10.008   2.097  3.8062 -1.6192 -0.5250
  553MOL0     H74638  12.549   9.992   2.019  1.3454  1.3389  0.2168
  553MOL0     H74639  11.387   9.121   1.074 -2.0376  0.3549 -0.0554
  553MOL0     H74640  11.169   9.029   1.035  1.2061 -0.2560  1.7920
  553MOL0     H74641  10.881   8.878   0.764  0.9093 -1.2788 -4.3766
  553MOL0     H74642  10.678   8.791   0.676  1.5637 -0.2311 -1.9237
  553MOL0     H74643  10.411   8.604   0.854 -1.2220 -1.8849  0.9139
  553MOL0     H74644  10.513   8.468   0.912 -0.1353 -1.1281  0.1690
  553MOL0     H74645  10.328   8.475   0.668  0.1435 -0.7965 -0.8256
  553MOL0     H74646  10.289   8.401   0.821 -1.7747  0.7606 -1.9934
  553MOL0     H74647  10.496   8.232   0.760 -0.7876 -3.2603 -2.5578
  553MOL0     H74648  10.519   8.349   0.627  0.9976 -0.3473  0.8060
  553MOL0     H74649  10.404   8.118   0.598 -1.7344 -0.4304  1.0169
  553MOL0     H74650  10.269   8.178   0.682  1.8760 -2.2925  0.1961
  553MOL0     H74651  10.217   8.358   0.306  0.8497  1.2134 -0.0282
  553MOL0     H74652  10.746   8.422   0.898  1.1941  0.8963  2.8267
  553MOL0     H74653  10.990   8.540   1.101  2.4545 -0.1628  0.2100
  553MOL0     H74654  10.942   8.388   1.017  1.3116 -1.7180 -1.0713
  553MOL0     H74655  11.082   8.479   0.960 -0.3724 -0.6251  0.5786
  554MOL0     O74656   4.512   2.851  10.694 -0.2525  0.1090 -0.0287
  554MOL0     C74657   4.616   2.782  10.679  0.9798 -0.1265 -0.0709
  554MOL0     O74658   4.615   2.652  10.647  0.3564  0.3708 -0.2383
  554MOL0     C74659   4.491   2.595  10.625 -0.0563 -0.1466 -0.0122
  554MOL0     C74660   4.386   2.609  10.716 -0.2318  0.5103  0.2014
  554MOL0     C74661   4.253   2.556  10.691 -0.6568 -0.3289  0.2854
  554MOL0     C74662   4.232   2.482  10.577 -0.6913 -0.2130 -0.1295
  554MOL0     O74663   4.120   2.427  10.533 -0.1489 -0.4360 -0.6343
  554MOL0     C74664   4.002   2.435  10.617 -0.9671 -0.2761  0.7586
  554MOL0     C74665   3.909   2.343  10.547  0.3860  0.6392 -0.0223
  554MOL0     C74666   3.783   2.312  10.630 -0.1180  0.3865 -0.4947
  554MOL0     C74667   3.681   2.425  10.635  0.1960  0.8034 -0.0715
  554MOL0     C74668   3.546   2.406  10.704 -0.8118 -1.2973  0.2758
  554MOL0     C74669   3.478   2.535  10.732  0.1285 -0.5001  0.4055
  554MOL0     C74670   3.340   2.508  10.797 -0.6229  0.6167 -0.7566
  554MOL0     C74671   3.269   2.631  10.859  0.0375 -0.1913 -0.2935
  554MOL0     N74672   3.136   2.583  10.904 -0.0762 -0.5108 -0.8105
  554MOL0     C74673   3.120   2.544  11.036  0.5452  0.1329 -0.2033
  554MOL0     C74674   2.987   2.510  11.039 -0.4772 -0.3595 -0.5597
  554MOL0     C74675   2.914   2.458  11.154  0.5616 -0.0669  0.1114
  554MOL0     C74676   2.798   2.546  11.195  0.0065 -0.3476  0.0763
  554MOL0     C74677   2.688   2.554  11.100 -0.4059 -0.1253  0.4354
  554MOL0     C74678   2.643   2.423  11.035  0.5401  0.7165 -0.5216
  554MOL0     O74679   2.605   2.324  11.127  0.0799 -0.0485  0.4109
  554MOL0     C74680   2.474   2.295  11.155  0.7467 -0.2331  0.4844
  554MOL0     C74681   2.439   2.163  11.185 -0.2148  0.3833 -0.6009
  554MOL0     C74682   2.312   2.123  11.205 -0.2326 -0.1685  0.4974
  554MOL0     C74683   2.211   2.217  11.217  0.1644  0.9025 -0.5508
  554MOL0     C74684   2.074   2.173  11.236  1.1439  0.1017 -0.2909
  554MOL0     O74685   1.980   2.273  11.236 -0.1680 -0.3274 -0.2808
  554MOL0     C74686   1.858   2.252  11.302  0.5240  0.5668  0.2019
  554MOL0     C74687   1.744   2.262  11.229  0.2884  0.3971  0.4474
  554MOL0     C74688   1.620   2.221  11.292  0.6274  0.1207 -0.2375
  554MOL0     C74689   1.621   2.177  11.425 -0.2307 -0.0185 -0.1700
  554MOL0     O74690   1.505   2.143  11.492  0.1371 -0.7930  0.1854
  554MOL0     C74691   1.426   2.045  11.432 -0.1111 -0.2527  0.8866
  554MOL0     C74692   1.378   1.950  11.540 -0.2799 -1.0422  0.2199
  554MOL0     C74693   1.286   1.847  11.490  0.2051 -0.7815  0.3184
  554MOL0     C74694   1.231   1.759  11.602 -0.4397  0.2505 -0.4665
  554MOL0     C74695   1.108   1.676  11.570  0.1406  0.9142  0.1076
  554MOL0     C74696   0.987   1.777  11.570  0.9755 -0.3241  0.6374
  554MOL0     C74697   0.853   1.708  11.532  0.5241 -0.5863  0.4260
  554MOL0     C74698   0.738   1.804  11.547  0.6474 -0.1918  0.7027
  554MOL0    Cl74699   0.582   1.719  11.533 -0.0242  0.3154 -0.0807
  554MOL0     C74700   1.738   2.184  11.504  0.0538 -0.3833  0.8859
  554MOL0     C74701   1.861   2.218  11.446  1.0019  0.4688  0.3536
  554MOL0     O74702   2.043   2.055  11.218  1.0963 -0.2808 -0.1533
  554MOL0     C74703   2.234   2.352  11.187 -1.1592  0.3876 -0.0223
  554MOL0     C74704   2.368   2.390  11.145 -0.6191 -0.2803  0.5738
  554MOL0     N74705   2.933   2.509  10.910 -1.1400  0.3461 -0.0195
  554MOL0     N74706   3.024   2.567  10.834  0.3393  0.3044  0.0572
  554MOL0     C74707   4.341   2.466  10.487 -0.8176 -0.5257 -0.0822
  554MOL0     C74708   4.470   2.515  10.513 -0.4497  0.1226  0.1833
  554MOL0     C74709   4.744   2.851  10.715 -1.0514 -0.0530 -0.2255
  554MOL0     C74710   4.846   2.760  10.757 -0.0831  0.7983 -0.5196
  554MOL0     C74711   4.981   2.798  10.754  0.2561  0.1060  0.2230
  554MOL0     C74712   5.009   2.933  10.728 -0.5585 -1.1483 -0.1991
  554MOL0     O74713   5.140   2.983  10.737 -0.5952  0.3104  0.2934
  554MOL0     C74714   5.262   2.910  10.707  0.5576  0.2065 -0.8217
  554MOL0     C74715   5.348   3.000  10.628  0.7327  0.8276 -0.1406
  554MOL0     C74716   5.492   2.935  10.606  0.2668 -0.2598  0.1426
  554MOL0     C74717   5.572   2.887  10.728 -0.3935  0.1998 -0.3382
  554MOL0     C74718   5.722   2.874  10.706  0.1519  0.7023  0.1403
  554MOL0     C74719   5.837   2.836  10.678 -0.2439  0.0806 -0.5090
  554MOL0     C74720   4.904   3.027  10.716 -0.6024 -0.1664  0.4662
  554MOL0     C74721   4.777   2.991  10.701 -0.8116 -0.1133  0.2284
  554MOL0     C74722   4.678   3.101  10.683 -0.3794 -0.3332 -0.2805
  554MOL0     H74723   4.400   2.661  10.810  1.4423  0.8236 -0.1809
  554MOL0     H74724   4.168   2.560  10.759 -0.4371  1.7803  0.5064
  554MOL0     H74725   4.029   2.402  10.718 -0.9457  2.6106  1.7820
  554MOL0     H74726   3.961   2.536  10.614 -2.5322 -0.8394  2.1379
  554MOL0     H74727   3.966   2.253  10.521  1.0718  1.2670 -0.7636
  554MOL0     H74728   3.878   2.384  10.451  0.7035  0.3248 -0.2620
  554MOL0     H74729   3.814   2.291  10.733 -1.5022 -2.1006 -0.5083
  554MOL0     H74730   3.744   2.217  10.591  0.0510 -0.3020  0.9288
  554MOL0     H74731   3.733   2.501  10.694  1.3878 -1.6417  2.2198
  554MOL0     H74732   3.665   2.458  10.532 -0.0192 -2.0860 -1.0594
  554MOL0     H74733   3.481   2.340  10.646 -2.5149 -0.0894  0.7515
  554MOL0     H74734   3.572   2.354  10.797  0.2650 -1.1793  0.0627
  554MOL0     H74735   3.531   2.601  10.801 -0.4831  0.1885  0.2324
  554MOL0     H74736   3.454   2.592  10.641  2.0447  0.2655  0.3473
  554MOL0     H74737   3.343   2.430  10.874 -0.3729  1.4746  0.1184
  554MOL0     H74738   3.272   2.469  10.720 -2.2486  1.5522  0.1463
  554MOL0     H74739   3.317   2.676  10.947  2.3095  0.0843 -1.5828
  554MOL0     H74740   3.240   2.702  10.782 -1.4288 -1.5847 -1.0609
  554MOL0     H74741   3.188   2.544  11.120  0.6674  0.2987 -0.3020
  554MOL0     H74742   2.876   2.357  11.135 -0.1046 -0.1629  1.7766
  554MOL0     H74743   2.975   2.427  11.239 -1.7509 -4.6403  0.4168
  554MOL0     H74744   2.762   2.509  11.291  0.7908 -3.4223 -0.7021
  554MOL0     H74745   2.831   2.648  11.219  0.0110 -0.5289  0.8644
  554MOL0     H74746   2.718   2.612  11.012  0.3303 -0.8120  0.2146
  554MOL0     H74747   2.609   2.618  11.139  0.5333  2.0096 -0.9948
  554MOL0     H74748   2.722   2.385  10.970  0.4890 -2.4129  1.1003
  554MOL0     H74749   2.554   2.440  10.973  0.6789  2.5873 -0.2784
  554MOL0     H74750   2.509   2.081  11.197 -2.1916 -1.2045  0.6820
  554MOL0     H74751   2.300   2.015  11.209  0.2111 -0.2608 -0.4646
  554MOL0     H74752   1.765   2.304  11.131  2.7449  1.0815  1.1911
  554MOL0     H74753   1.534   2.222  11.226 -0.0894 -0.8543  0.6614
  554MOL0     H74754   1.339   2.091  11.383  2.0069  2.0268 -0.9840
  554MOL0     H74755   1.469   1.987  11.350 -0.1994  0.8673  0.0324
  554MOL0     H74756   1.464   1.892  11.574  1.1875 -0.2440 -1.9266
  554MOL0     H74757   1.334   2.016  11.615 -0.5042 -1.0803  0.1216
  554MOL0     H74758   1.197   1.897  11.448  0.7551  2.0851  2.2711
  554MOL0     H74759   1.322   1.785  11.407 -1.7975 -0.6039 -0.7621
  554MOL0     H74760   1.208   1.832  11.680  0.8904  0.8333 -0.5970
  554MOL0     H74761   1.300   1.682  11.637  0.4112  1.5834  0.9000
  554MOL0     H74762   1.101   1.598  11.647 -1.2753  2.4793  1.6605
  554MOL0     H74763   1.113   1.635  11.469 -1.8500  0.2599  0.2361
  554MOL0     H74764   0.973   1.817  11.671  1.3754 -0.1584  0.6293
  554MOL0     H74765   0.997   1.866  11.508 -1.1973 -0.1947  0.3904
  554MOL0     H74766   0.829   1.618  11.590 -3.3318 -1.2718 -1.8742
  554MOL0     H74767   0.866   1.677  11.428 -1.4592  0.4812 -0.1973
  554MOL0     H74768   0.744   1.846  11.647  2.1812 -0.5968  0.7935
  554MOL0     H74769   0.747   1.884  11.473 -1.2424  0.2797  0.9322
  554MOL0     H74770   1.731   2.161  11.609 -1.9232 -1.4856  0.5519
  554MOL0     H74771   1.956   2.228  11.497  1.1294  2.1086 -0.1569
  554MOL0     H74772   2.162   2.432  11.206 -0.3121  0.6854  2.3319
  554MOL0     H74773   2.383   2.492  11.111  1.3923 -1.2610 -1.7736
  554MOL0     H74774   4.327   2.418  10.391  2.9618 -1.4569 -0.3286
  554MOL0     H74775   4.549   2.503  10.440 -0.1736 -2.0285  0.7666
  554MOL0     H74776   4.822   2.654  10.750 -1.1178  0.9465  0.4903
  554MOL0     H74777   5.060   2.728  10.778  1.6923  1.4988 -0.3151
  554MOL0     H74778   5.237   2.826  10.642 -3.0629  1.2471 -1.0219
  554MOL0     H74779   5.308   2.884  10.803 -1.4241  1.7511  0.6577
  554MOL0     H74780   5.371   3.090  10.686  2.1099  0.4263 -0.0063
  554MOL0     H74781   5.305   3.038  10.535  0.8834  2.3123  0.3726
  554MOL0     H74782   5.549   3.017  10.562 -0.5227 -0.5072 -1.3915
  554MOL0     H74783   5.498   2.858  10.529 -2.0117  1.4187 -1.8726
  554MOL0     H74784   5.565   2.964  10.806  0.1819 -0.0844 -0.0012
  554MOL0     H74785   5.532   2.791  10.762  0.2359  0.0892  0.1164
  554MOL0     H74786   5.935   2.795  10.670  0.6729  1.3212  2.7041
  554MOL0     H74787   4.937   3.130  10.715  0.5035 -0.4305  2.7960
  554MOL0     H74788   4.620   3.079  10.592 -0.4274 -2.8917  0.2922
  554MOL0     H74789   4.605   3.090  10.764 -0.7797 -0.8236 -0.6998
  554MOL0     H74790   4.719   3.202  10.692  0.1380 -0.4314 -1.4043
  555MOL0     O74791   5.735  10.511   3.333  0.0758 -0.2737  0.5960
  555MOL0     C74792   5.685  10.495   3.444  0.3917 -0.6997 -0.2130
  555MOL0     O74793   5.752  10.498   3.560 -0.3930 -0.2987 -0.4130
  555MOL0     C74794   5.883  10.528   3.543 -1.1618 -0.1354 -0.3244
  555MOL0     C74795   5.975  10.425   3.555 -0.7241  0.3733  0.4043
  555MOL0     C74796   6.116  10.443   3.557  0.4579  0.7378 -0.6243
  555MOL0     C74797   6.164  10.575   3.555  0.4292 -0.0724 -0.5332
  555MOL0     O74798   6.295  10.608   3.578 -0.8090 -0.1077  0.0993
  555MOL0     C74799   6.397  10.519   3.602  0.7656  0.1505  0.0528
  555MOL0     C74800   6.525  10.585   3.657 -0.0984 -0.7365  0.1713
  555MOL0     C74801   6.633  10.477   3.701  0.3377  0.1801 -0.2105
  555MOL0     C74802   6.723  10.535   3.802 -0.4995 -0.3213 -0.1086
  555MOL0     C74803   6.816  10.642   3.735 -0.1938 -0.2567  0.7388
  555MOL0     C74804   6.953  10.664   3.812 -0.7917  0.1056  0.1260
  555MOL0     C74805   6.929  10.724   3.949  1.1589 -0.6510 -0.1775
  555MOL0     C74806   7.059  10.743   4.029  0.3937 -0.3980 -0.8176
  555MOL0     N74807   7.145  10.843   3.963  0.2096  0.7856  0.2152
  555MOL0     C74808   7.114  10.969   3.935  0.9104  0.1959 -0.8786
  555MOL0     C74809   7.232  11.026   3.902  0.4818 -0.2870 -0.6253
  555MOL0     C74810   7.244  11.171   3.869  0.3811 -0.3276 -0.0504
  555MOL0     C74811   7.352  11.234   3.962  0.0363 -0.1396 -0.0315
  555MOL0     C74812   7.416  11.354   3.881 -0.9303  1.1381 -0.3511
  555MOL0     C74813   7.534  11.412   3.962  0.1850  0.1363 -0.4899
  555MOL0     O74814   7.606  11.497   3.873  0.2287 -0.0341  0.0853
  555MOL0     C74815   7.687  11.459   3.767  0.4943 -0.2907  0.2817
  555MOL0     C74816   7.751  11.561   3.697 -0.4902 -0.0904  0.0841
  555MOL0     C74817   7.833  11.536   3.581  0.7151 -0.3885 -0.4029
  555MOL0     C74818   7.853  11.403   3.547 -0.1230  0.3445  1.1074
  555MOL0     C74819   7.934  11.359   3.431  0.4132  0.9011 -0.0529
  555MOL0     O74820   7.984  11.230   3.431  0.1098  0.4488  0.5485
  555MOL0     C74821   8.068  11.197   3.325  0.3905 -0.1920 -0.5007
  555MOL0     C74822   8.205  11.211   3.319 -0.0984  0.5965  0.0806
  555MOL0     C74823   8.281  11.164   3.213  0.4408 -0.1630 -1.1530
  555MOL0     C74824   8.221  11.093   3.117 -0.3447  0.5062  0.2653
  555MOL0     O74825   8.307  11.046   3.021 -0.2934  0.8219 -0.3317
  555MOL0     C74826   8.267  10.945   2.933  0.3192  0.3973  0.6718
  555MOL0     C74827   8.396  10.881   2.897  0.0308 -0.4013  0.1693
  555MOL0     C74828   8.377  10.740   2.831  0.0328  0.6293 -0.1120
  555MOL0     C74829   8.518  10.676   2.813  0.9512 -1.0413  0.0736
  555MOL0     C74830   8.590  10.644   2.947 -0.3460 -1.0632  0.0382
  555MOL0     C74831   8.716  10.559   2.927  0.4369  0.3041 -0.0289
  555MOL0     C74832   8.830  10.650   2.874 -0.5570 -0.1179 -0.1792
  555MOL0     C74833   8.961  10.569   2.855 -0.0953  0.4043  0.2292
  555MOL0    Cl74834   9.104  10.672   2.808  0.1313  0.1446  0.0183
  555MOL0     C74835   8.081  11.089   3.112  0.0117  0.2416  0.0102
  555MOL0     C74836   8.001  11.147   3.213 -0.9101 -0.4658 -0.3299
  555MOL0     O74837   7.971  11.442   3.347  0.6174 -0.6802  0.2713
  555MOL0     C74838   7.791  11.298   3.615  0.5816 -0.0627 -0.1299
  555MOL0     C74839   7.716  11.329   3.730  0.5029 -0.2608  1.5623
  555MOL0     N74840   7.327  10.935   3.899 -0.2296 -0.6944 -0.4350
  555MOL0     N74841   7.277  10.819   3.929  0.4428  0.2348 -0.1924
  555MOL0     C74842   6.074  10.682   3.551  0.7391  0.9812  0.2209
  555MOL0     C74843   5.936  10.658   3.546  0.6614  0.0297  0.6975
  555MOL0     C74844   5.533  10.496   3.456 -0.6164 -0.1912 -0.3258
  555MOL0     C74845   5.473  10.516   3.586 -0.6701  0.1898  0.3042
  555MOL0     C74846   5.341  10.518   3.595  0.3894  0.4111  0.0783
  555MOL0     C74847   5.254  10.495   3.488  0.5394 -0.8668 -0.1089
  555MOL0     O74848   5.117  10.503   3.501  0.0087 -1.0971 -0.3564
  555MOL0     C74849   5.044  10.388   3.542 -0.1122 -0.2795 -0.0494
  555MOL0     C74850   5.073  10.343   3.690 -0.2599 -0.2359 -0.7087
  555MOL0     C74851   5.009  10.202   3.718 -0.1394  0.0348 -0.1884
  555MOL0     C74852   4.860  10.186   3.670 -0.1419  0.3719  0.8911
  555MOL0     C74853   4.763  10.280   3.722  0.4862  0.2591 -0.5974
  555MOL0     C74854   4.671  10.354   3.754 -0.3274  0.2731 -0.4157
  555MOL0     C74855   5.310  10.463   3.366 -0.2825  0.2449 -0.3033
  555MOL0     C74856   5.448  10.467   3.347  0.2490 -0.7975 -0.3819
  555MOL0     C74857   5.488  10.445   3.202  0.3292  0.3242 -0.4899
  555MOL0     H74858   5.946  10.322   3.569 -0.3856  0.4244  1.6245
  555MOL0     H74859   6.174  10.354   3.581 -2.9242 -1.6824 -0.5910
  555MOL0     H74860   6.352  10.454   3.678 -1.1453  2.2505  0.8257
  555MOL0     H74861   6.425  10.455   3.517  1.0145 -1.0218  0.9812
  555MOL0     H74862   6.502  10.645   3.746  0.1343 -2.0488  1.1532
  555MOL0     H74863   6.572  10.647   3.581 -2.1720 -1.5425 -1.8854
  555MOL0     H74864   6.694  10.448   3.614  0.2552 -0.0003 -0.2093
  555MOL0     H74865   6.584  10.386   3.738 -0.0997  0.8814  0.9973
  555MOL0     H74866   6.679  10.567   3.897 -1.4442 -1.4997 -0.1351
  555MOL0     H74867   6.792  10.453   3.825 -1.9319 -1.1191  1.5008
  555MOL0     H74868   6.841  10.611   3.633  2.9159  0.1587  1.2882
  555MOL0     H74869   6.763  10.738   3.729 -0.6774 -0.6032 -1.8182
  555MOL0     H74870   7.011  10.571   3.820  0.8210  1.0560 -0.0793
  555MOL0     H74871   7.012  10.729   3.747  1.9158 -0.5370  1.7964
  555MOL0     H74872   6.867  10.654   4.006  2.6240  0.0112  2.3974
  555MOL0     H74873   6.882  10.822   3.940  0.7084 -0.9592 -1.3452
  555MOL0     H74874   7.027  10.772   4.130  1.9222 -2.0623  0.2265
  555MOL0     H74875   7.113  10.647   4.030  0.6103 -0.2742 -0.4977
  555MOL0     H74876   7.017  11.017   3.942  0.4297 -0.9405  0.9947
  555MOL0     H74877   7.271  11.178   3.764  0.7570 -1.2017 -0.0239
  555MOL0     H74878   7.150  11.219   3.900  0.0594 -0.2052 -1.1670
  555MOL0     H74879   7.298  11.268   4.051 -0.1165  0.5614 -0.3849
  555MOL0     H74880   7.431  11.162   3.983  1.2463  0.5748 -1.8755
  555MOL0     H74881   7.346  11.436   3.863 -1.8797  0.6000  0.7643
  555MOL0     H74882   7.453  11.305   3.791 -0.0233  1.9028 -0.4148
  555MOL0     H74883   7.595  11.333   4.007 -0.0439  0.1998 -0.0628
  555MOL0     H74884   7.497  11.474   4.044  2.2937  1.7753 -0.6985
  555MOL0     H74885   7.726  11.659   3.736 -2.3415 -0.9812  1.3092
  555MOL0     H74886   7.885  11.619   3.534  1.3820 -1.1842 -1.1021
  555MOL0     H74887   8.270  11.244   3.400  1.1660 -1.1734 -0.1348
  555MOL0     H74888   8.387  11.188   3.202  0.4325  1.7192  1.7957
  555MOL0     H74889   8.199  10.872   2.976  0.0718  0.1138 -0.1781
  555MOL0     H74890   8.222  10.987   2.843  1.0095 -0.4298 -0.0889
  555MOL0     H74891   8.455  10.949   2.834  0.1333  0.1059  0.8076
  555MOL0     H74892   8.459  10.867   2.985  1.7877  0.4025 -0.9073
  555MOL0     H74893   8.317  10.672   2.891  2.2335 -1.6119 -0.3022
  555MOL0     H74894   8.331  10.755   2.733 -2.4893  2.3087  1.2126
  555MOL0     H74895   8.585  10.734   2.750 -0.9830  0.5367 -0.6520
  555MOL0     H74896   8.509  10.583   2.756 -0.5058 -0.1989 -1.1599
  555MOL0     H74897   8.531  10.591   3.023  0.6063 -0.9265  0.9056
  555MOL0     H74898   8.616  10.737   2.999 -3.5516 -0.0593  0.1185
  555MOL0     H74899   8.739  10.511   3.022  0.5542 -0.8180 -0.5983
  555MOL0     H74900   8.701  10.487   2.846  1.9002  0.2150 -0.2495
  555MOL0     H74901   8.854  10.724   2.951 -0.4381 -0.4632  0.1227
  555MOL0     H74902   8.816  10.705   2.781  0.5014  1.4097  0.5270
  555MOL0     H74903   8.971  10.505   2.943 -0.5004 -2.8198 -1.9091
  555MOL0     H74904   8.940  10.504   2.770 -1.5496  2.3581 -0.9807
  555MOL0     H74905   8.039  11.036   3.026 -0.7068 -0.9941  1.0897
  555MOL0     H74906   7.893  11.139   3.210 -1.1438  1.0527  1.7552
  555MOL0     H74907   7.815  11.195   3.593 -0.6154 -0.2476 -0.7010
  555MOL0     H74908   7.682  11.240   3.781  0.7695 -1.0446  0.4109
  555MOL0     H74909   6.105  10.786   3.545  0.3708  1.2186  1.8992
  555MOL0     H74910   5.865  10.740   3.539 -1.4431 -1.7443  0.3876
  555MOL0     H74911   5.538  10.526   3.672 -0.3362 -0.1023  0.0925
  555MOL0     H74912   5.293  10.549   3.687  1.6473 -1.4745  1.4625
  555MOL0     H74913   5.061  10.300   3.479 -0.4927 -0.2144 -0.2492
  555MOL0     H74914   4.938  10.413   3.528 -0.7372 -1.6269  1.8937
  555MOL0     H74915   5.039  10.424   3.755  0.4835  0.4879 -1.1996
  555MOL0     H74916   5.180  10.328   3.705 -0.5142 -0.0525  1.6678
  555MOL0     H74917   5.024  10.184   3.825 -1.2438 -0.7937 -0.1568
  555MOL0     H74918   5.071  10.136   3.657 -0.8764  2.0578 -3.3922
  555MOL0     H74919   4.854  10.182   3.561  0.3006  0.9618  0.8329
  555MOL0     H74920   4.830  10.087   3.704 -0.3800  0.0256 -0.2869
  555MOL0     H74921   4.582  10.412   3.770 -1.1088 -0.5321 -1.6725
  555MOL0     H74922   5.234  10.454   3.290  0.8304  1.7211 -1.6669
  555MOL0     H74923   5.407  10.399   3.146 -0.4851  1.6117 -0.4217
  555MOL0     H74924   5.511  10.536   3.146 -2.0935  0.7120 -0.9765
  555MOL0     H74925   5.573  10.378   3.192 -0.2335 -0.0523 -3.6873
  556MOL0     O74926   7.013  10.218   0.139 -0.3953  0.4789  1.0320
  556MOL0     C74927   7.029  10.218   0.260  0.1666  0.7681  0.1561
  556MOL0     O74928   7.138  10.265   0.333 -0.0892  0.3205 -0.8208
  556MOL0     C74929   7.249  10.317   0.274 -0.3902 -0.3747  0.4193
  556MOL0     C74930   7.253  10.394   0.157 -0.0117 -0.3190 -0.1626
  556MOL0     C74931   7.382  10.431   0.110 -0.7240  0.0824 -0.0952
  556MOL0     C74932   7.497  10.404   0.186  0.1449 -0.2396  0.4226
  556MOL0     O74933   7.620  10.455   0.148 -0.2014  0.7009 -0.0547
  556MOL0     C74934   7.745  10.440   0.220  0.0615 -1.4422  0.1149
  556MOL0     C74935   7.844  10.530   0.148 -0.5510  0.5200  0.3992
  556MOL0     C74936   7.971  10.558   0.228  0.1802  0.7063 -0.1910
  556MOL0     C74937   8.074  10.656   0.151  0.6316  0.4736 -0.8937
  556MOL0     C74938   8.122  10.594   0.021  0.2791 -0.3246  0.0830
  556MOL0     C74939   8.253  10.658  -0.015 -0.4020  1.0532 -0.5467
  556MOL0     C74940   8.297  10.611  -0.155  0.6087 -0.0173 -0.9993
  556MOL0     C74941   8.386  10.721  -0.220  0.1883 -0.0564  0.7130
  556MOL0     N74942   8.511  10.734  -0.144 -0.5795 -0.5604  0.3660
  556MOL0     C74943   8.626  10.727  -0.210 -0.1873 -0.7206 -0.2735
  556MOL0     C74944   8.720  10.772  -0.122  0.3736  0.1340  0.0194
  556MOL0     C74945   8.866  10.771  -0.154 -0.0184  0.0104  0.6250
  556MOL0     C74946   8.915  10.895  -0.227 -0.5853 -0.0142 -0.1217
  556MOL0     C74947   8.910  11.019  -0.139  0.2221 -0.1681 -0.1954
  556MOL0     C74948   9.015  11.118  -0.173  0.5048  1.4879  0.3150
  556MOL0     O74949   8.997  11.250  -0.123 -0.2301  0.8605  0.0871
  556MOL0     C74950   9.094  11.340  -0.154 -0.1387 -0.7440  0.4068
  556MOL0     C74951   9.217  11.308  -0.218 -0.4296 -0.8921  0.6178
  556MOL0     C74952   9.319  11.410  -0.218  0.2246  0.6309  1.0682
  556MOL0     C74953   9.293  11.539  -0.185  0.9197 -0.2569 -0.2865
  556MOL0     C74954   9.401  11.646  -0.206  0.3873 -0.0572 -0.4547
  556MOL0     O74955   9.356  11.769  -0.187 -0.0187 -0.3377  0.1641
  556MOL0     C74956   9.448  11.869  -0.186 -0.2621 -1.4014 -0.0024
  556MOL0     C74957   9.483  11.938  -0.309 -0.6442 -0.2497 -0.8538
  556MOL0     C74958   9.582  12.037  -0.298 -0.1333  0.7955  0.8698
  556MOL0     C74959   9.649  12.074  -0.178 -0.0260 -0.2421 -0.2507
  556MOL0     O74960   9.736  12.179  -0.170  0.3096  0.0217 -0.3137
  556MOL0     C74961   9.846  12.172  -0.256  0.9028  0.0800 -0.2728
  556MOL0     C74962   9.966  12.107  -0.177  0.5531 -0.9718  0.6007
  556MOL0     C74963   9.955  11.948  -0.166 -0.0942 -0.5104 -0.5367
  556MOL0     C74964  10.096  11.896  -0.123  0.5255  0.1803  0.3987
  556MOL0     C74965  10.098  11.746  -0.121 -1.1903  0.2282  0.8067
  556MOL0     C74966  10.201  11.683  -0.025 -0.2498 -0.1097 -1.0889
  556MOL0     C74967  10.193  11.533   0.008  0.3481  0.8839 -0.3979
  556MOL0     C74968  10.301  11.478   0.106  0.3182  0.0815 -1.1002
  556MOL0    Cl74969  10.459  11.570   0.090 -0.0979 -0.0466  0.3635
  556MOL0     C74970   9.615  12.000  -0.068 -0.4116 -0.7072 -0.5878
  556MOL0     C74971   9.523  11.898  -0.067  0.4880  0.9380  0.3401
  556MOL0     O74972   9.513  11.613  -0.239 -0.1324 -0.8141 -0.1048
  556MOL0     C74973   9.169  11.565  -0.125 -0.9000 -1.2722 -0.4186
  556MOL0     C74974   9.073  11.469  -0.111 -0.8258  0.4390 -0.2663
  556MOL0     N74975   8.656  10.806   0.002  0.9516 -0.1417  0.7718
  556MOL0     N74976   8.529  10.791  -0.016 -0.0243 -0.5127  0.5496
  556MOL0     C74977   7.487  10.322   0.294 -0.8457 -0.3544  0.3097
  556MOL0     C74978   7.370  10.275   0.341 -0.4806  0.4445 -0.3724
  556MOL0     C74979   6.911  10.198   0.347  0.3465 -1.4772 -0.3839
  556MOL0     C74980   6.909  10.259   0.483 -0.4847  0.2254  0.1720
  556MOL0     C74981   6.789  10.249   0.554 -0.4971  0.0787  0.4533
  556MOL0     C74982   6.668  10.199   0.510 -0.6990  0.5907  0.5914
  556MOL0     O74983   6.558  10.219   0.587  0.1349  0.5238 -1.4191
  556MOL0     C74984   6.433  10.183   0.522 -0.1978  0.0944  0.0420
  556MOL0     C74985   6.318  10.262   0.603 -0.6875 -0.4031  0.5641
  556MOL0     C74986   6.313  10.186   0.742 -0.2447  0.1756  0.1805
  556MOL0     C74987   6.234  10.265   0.841 -0.6656 -0.3937 -0.7467
  556MOL0     C74988   6.095  10.239   0.819  0.1593  0.2598 -0.4258
  556MOL0     C74989   5.977  10.216   0.816 -0.0067  0.3332 -0.0524
  556MOL0     C74990   6.674  10.130   0.388  0.1397  0.1390 -0.1091
  556MOL0     C74991   6.789  10.124   0.306 -0.4025 -0.1879 -0.5283
  556MOL0     C74992   6.786  10.029   0.183  0.2189 -0.8334 -0.3256
  556MOL0     H74993   7.163  10.435   0.112  0.7605  2.0515  0.3043
  556MOL0     H74994   7.393  10.489   0.018 -1.6894  1.1082  0.4087
  556MOL0     H74995   7.733  10.479   0.322  2.2114  0.9993 -0.4668
  556MOL0     H74996   7.791  10.340   0.222  0.5424 -1.2228  0.1705
  556MOL0     H74997   7.793  10.624   0.127 -0.4665  0.8568  1.6263
  556MOL0     H74998   7.875  10.480   0.056  1.3809 -0.3716  1.4851
  556MOL0     H74999   8.025  10.467   0.255 -0.6831  0.8496  2.1849
  556MOL0     H75000   7.941  10.598   0.325 -2.7215 -1.6788  0.0341
  556MOL0     H75001   8.034  10.756   0.129 -0.2138 -0.1783 -2.5174
  556MOL0     H75002   8.158  10.662   0.220  1.9217  0.5623 -2.4186
  556MOL0     H75003   8.141  10.487   0.036 -1.2920 -0.4404  1.5581
  556MOL0     H75004   8.051  10.615  -0.059  0.2226 -0.1685  0.1736
  556MOL0     H75005   8.232  10.765  -0.021 -2.7204  0.5920 -1.7562
  556MOL0     H75006   8.328  10.635   0.061 -2.5224 -1.0599  1.0802
  556MOL0     H75007   8.217  10.607  -0.230  1.9813  2.6777 -2.8002
  556MOL0     H75008   8.347  10.514  -0.148 -0.3803 -0.4766 -0.0746
  556MOL0     H75009   8.393  10.690  -0.325  1.0090 -0.3030  0.8364
  556MOL0     H75010   8.327  10.813  -0.215  1.1745  0.6956 -0.7462
  556MOL0     H75011   8.647  10.690  -0.310  0.4040 -0.2151 -0.3436
  556MOL0     H75012   8.923  10.758  -0.061  0.2323 -1.0598  0.3319
  556MOL0     H75013   8.881  10.683  -0.217  0.3739 -1.3900  2.5622
  556MOL0     H75014   9.010  10.872  -0.276 -1.3386 -1.8036 -0.8113
  556MOL0     H75015   8.852  10.919  -0.314  1.3734  0.0865 -1.5888
  556MOL0     H75016   8.943  10.980  -0.042  1.3441  2.7436  0.6802
  556MOL0     H75017   8.809  11.059  -0.132  0.3607 -0.0771  2.2816
  556MOL0     H75018   9.032  11.112  -0.281 -0.1328  0.1533  0.2712
  556MOL0     H75019   9.112  11.080  -0.138  0.8032  2.7939  0.9880
  556MOL0     H75020   9.246  11.212  -0.258 -1.9926 -1.1024 -0.0828
  556MOL0     H75021   9.418  11.385  -0.254  0.5079  0.7729  1.7398
  556MOL0     H75022   9.422  11.912  -0.395 -0.5027 -2.0048 -0.4696
  556MOL0     H75023   9.591  12.102  -0.385 -1.1107  0.9033  0.8394
  556MOL0     H75024   9.815  12.121  -0.348  4.0616 -0.9476 -0.9010
  556MOL0     H75025   9.872  12.273  -0.287  0.1578  0.6691  0.9503
  556MOL0     H75026  10.047  12.140  -0.243  0.3947  1.8200  1.6802
  556MOL0     H75027   9.985  12.145  -0.077  1.0455 -2.5264  1.1284
  556MOL0     H75028   9.883  11.919  -0.089  1.9884 -0.2664  1.6202
  556MOL0     H75029   9.923  11.900  -0.259 -0.1376 -1.1325 -0.2045
  556MOL0     H75030  10.105  11.930  -0.019 -0.9970  0.5931  0.4190
  556MOL0     H75031  10.176  11.933  -0.188  0.1912 -0.0009 -0.1203
  556MOL0     H75032  10.119  11.715  -0.223  0.9232 -1.7091  1.7500
  556MOL0     H75033   9.998  11.703  -0.110 -1.6157  1.0387  0.2567
  556MOL0     H75034  10.301  11.709  -0.060 -0.7664  0.7360 -1.9956
  556MOL0     H75035  10.193  11.737   0.070  3.3720 -0.3482 -0.5170
  556MOL0     H75036  10.194  11.481  -0.089 -1.5205 -1.4541  0.7374
  556MOL0     H75037  10.094  11.502   0.044  1.5847 -0.7803  1.7776
  556MOL0     H75038  10.265  11.498   0.207 -0.8143 -2.8538 -0.8458
  556MOL0     H75039  10.315  11.370   0.105 -0.5853 -0.0492 -0.3157
  556MOL0     H75040   9.665  12.044   0.017  0.4169  1.4800 -2.1245
  556MOL0     H75041   9.498  11.845   0.023 -1.9259 -0.6301 -1.1502
  556MOL0     H75042   9.170  11.663  -0.077  2.9855 -1.4886  0.2471
  556MOL0     H75043   8.977  11.497  -0.068  0.1701 -1.7834  3.8388
  556MOL0     H75044   7.576  10.281   0.341 -0.9938 -3.8451 -2.0885
  556MOL0     H75045   7.366  10.209   0.427 -0.7893  1.4121  0.3802
  556MOL0     H75046   6.992  10.313   0.527 -0.1680 -1.2505  1.4741
  556MOL0     H75047   6.775  10.299   0.649  3.1385  0.8912  0.7124
  556MOL0     H75048   6.403  10.078   0.525 -0.7182  0.1362 -1.9535
  556MOL0     H75049   6.425  10.216   0.418 -2.2291  1.6679  0.6199
  556MOL0     H75050   6.226  10.278   0.546  0.2092  0.0801 -0.7706
  556MOL0     H75051   6.344  10.367   0.619 -0.6854 -0.3471  0.1898
  556MOL0     H75052   6.405  10.179   0.799 -0.4118  0.4958  0.4942
  556MOL0     H75053   6.275  10.084   0.735  0.0570  0.0355  0.5930
  556MOL0     H75054   6.247  10.236   0.945 -1.9853  0.3201 -0.3676
  556MOL0     H75055   6.271  10.366   0.825  3.3138 -1.7489 -1.2907
  556MOL0     H75056   5.871  10.203   0.817  0.2444 -2.4230  0.7339
  556MOL0     H75057   6.593  10.072   0.346  3.0750 -1.9069 -3.4899
  556MOL0     H75058   6.741  10.081   0.097  1.3310 -0.0786 -0.4663
  556MOL0     H75059   6.889   9.999   0.161  0.7158 -1.1221  2.1058
  556MOL0     H75060   6.726   9.941   0.207 -2.8102  1.6867  2.2509
  557MOL0     O75061   5.376  10.541   1.663  0.2959 -0.5924 -0.1281
  557MOL0     C75062   5.361  10.559   1.541 -0.0392  1.0214 -0.3961
  557MOL0     O75063   5.459  10.551   1.454  0.0843 -0.4959 -0.2509
  557MOL0     C75064   5.579  10.520   1.500  0.3117 -0.1046 -0.1980
  557MOL0     C75065   5.628  10.391   1.511 -0.1681 -0.2300  0.3229
  557MOL0     C75066   5.757  10.363   1.559  0.1609 -0.0007 -0.2467
  557MOL0     C75067   5.848  10.470   1.565  0.5564 -0.0501 -0.6220
  557MOL0     O75068   5.988  10.450   1.561  0.8621  0.4453 -0.1583
  557MOL0     C75069   6.060  10.372   1.655 -0.4949  0.1947 -0.0489
  557MOL0     C75070   6.204  10.413   1.653 -0.0068  0.5339  0.4131
  557MOL0     C75071   6.287  10.318   1.745 -0.9600 -0.1242 -0.1599
  557MOL0     C75072   6.426  10.394   1.768 -0.0295 -0.7929 -0.4785
  557MOL0     C75073   6.508  10.292   1.848 -0.1734  0.0831  0.0902
  557MOL0     C75074   6.650  10.350   1.868  0.0539  0.5769 -1.0706
  557MOL0     C75075   6.734  10.267   1.960 -0.6699  0.4400 -1.2056
  557MOL0     C75076   6.702  10.252   2.101  0.2868  1.3240 -0.1028
  557MOL0     N75077   6.808  10.171   2.162  0.3475 -0.5925 -0.5824
  557MOL0     C75078   6.934  10.221   2.191  0.8312 -0.6297 -0.1274
  557MOL0     C75079   6.992  10.119   2.252  1.0426  0.2705 -0.9264
  557MOL0     C75080   7.130  10.127   2.294 -0.2645  0.0086  0.0944
  557MOL0     C75081   7.182  10.048   2.426 -0.1783  0.2364 -0.3385
  557MOL0     C75082   7.173   9.895   2.418  1.2358  0.6657 -0.0941
  557MOL0     C75083   7.223   9.825   2.546 -0.1253 -0.7371 -0.4061
  557MOL0     O75084   7.229   9.683   2.535 -0.1295 -0.0621  0.3147
  557MOL0     C75085   7.317   9.643   2.436  0.9315  0.0862  0.1983
  557MOL0     C75086   7.305   9.519   2.385  0.1230 -0.3644  0.1357
  557MOL0     C75087   7.394   9.464   2.289  0.1285 -0.2941 -0.3064
  557MOL0     C75088   7.496   9.545   2.247 -0.7643 -0.2613  0.0461
  557MOL0     C75089   7.587   9.495   2.137 -1.1385  0.1226  0.3442
  557MOL0     O75090   7.647   9.588   2.054  0.8936  0.0755  0.8013
  557MOL0     C75091   7.708   9.541   1.935 -0.2672  0.0290  0.4097
  557MOL0     C75092   7.647   9.458   1.845  0.3847  0.5180  0.6853
  557MOL0     C75093   7.710   9.417   1.726 -0.1280 -0.4227  0.0518
  557MOL0     C75094   7.842   9.468   1.701  0.0380  0.3322 -0.0004
  557MOL0     O75095   7.918   9.427   1.593 -0.1310 -0.5137 -0.2689
  557MOL0     C75096   7.867   9.319   1.517 -0.1309 -0.3423  0.1488
  557MOL0     C75097   7.980   9.281   1.415  0.2382 -1.1022  0.7155
  557MOL0     C75098   8.040   9.416   1.349  0.0846  0.2779 -0.1016
  557MOL0     C75099   8.154   9.375   1.249 -0.2055 -0.3119  0.5539
  557MOL0     C75100   8.187   9.484   1.140  0.6618  0.5105  0.7993
  557MOL0     C75101   8.315   9.559   1.169  0.6055  0.6246 -0.4185
  557MOL0     C75102   8.350   9.681   1.075 -0.4131 -0.0565  0.6145
  557MOL0     C75103   8.418   9.781   1.166  0.0160  0.8777  1.0043
  557MOL0    Cl75104   8.580   9.729   1.212  0.6846  0.0317  0.4536
  557MOL0     C75105   7.900   9.557   1.794 -0.6408  0.6040  0.0794
  557MOL0     C75106   7.837   9.596   1.913  0.8554 -0.7118  1.0989
  557MOL0     O75107   7.604   9.376   2.138  0.0884 -0.0355  0.3765
  557MOL0     C75108   7.511   9.673   2.299  0.0568  0.8892  0.0232
  557MOL0     C75109   7.427   9.719   2.400  0.4551  0.2998  0.3749
  557MOL0     N75110   6.902  10.006   2.264  0.8340 -0.4420 -0.8731
  557MOL0     N75111   6.791  10.044   2.206 -0.0940 -0.5432 -0.2195
  557MOL0     C75112   5.801  10.605   1.560  0.0700  0.2464  0.8934
  557MOL0     C75113   5.668  10.622   1.534 -0.2532  0.3059  0.3218
  557MOL0     C75114   5.222  10.591   1.497 -0.4422  0.1445  0.1158
  557MOL0     C75115   5.118  10.621   1.597 -0.8673 -0.4599  0.0946
  557MOL0     C75116   4.988  10.658   1.554  1.0229 -0.0937  0.1816
  557MOL0     C75117   4.949  10.650   1.422  0.4667  0.2155 -0.2378
  557MOL0     O75118   4.814  10.681   1.404 -0.9708  0.6370 -0.4286
  557MOL0     C75119   4.756  10.611   1.297 -0.5062  0.5175 -0.0549
  557MOL0     C75120   4.616  10.562   1.332  0.4954  0.1750 -0.2644
  557MOL0     C75121   4.632  10.463   1.450  0.1547  0.0378  0.1644
  557MOL0     C75122   4.486  10.422   1.495  0.4358 -0.6557 -0.2853
  557MOL0     C75123   4.422  10.515   1.595  0.0788  0.4642 -0.3444
  557MOL0     C75124   4.355  10.583   1.674 -0.4744 -0.5240  0.6784
  557MOL0     C75125   5.045  10.622   1.327 -0.6825  0.1132 -0.4567
  557MOL0     C75126   5.183  10.588   1.359  0.1286  0.5160 -0.7923
  557MOL0     C75127   5.276  10.543   1.245  0.3655  0.5525 -0.0049
  557MOL0     H75128   5.565  10.308   1.482 -0.0141  0.0469 -0.8527
  557MOL0     H75129   5.796  10.261   1.559  0.1090 -0.0566 -2.3468
  557MOL0     H75130   6.015  10.394   1.752 -0.0400  1.1374 -0.0412
  557MOL0     H75131   6.049  10.264   1.641 -1.2459  0.3935 -1.0754
  557MOL0     H75132   6.216  10.519   1.675 -0.3439  0.2947  1.8282
  557MOL0     H75133   6.244  10.402   1.552 -1.8188  0.5858 -0.3526
  557MOL0     H75134   6.298  10.218   1.701 -5.0146 -0.6651 -0.3756
  557MOL0     H75135   6.231  10.303   1.838 -1.3864  1.3682 -0.1582
  557MOL0     H75136   6.469  10.417   1.670 -1.0765 -0.1483 -0.8029
  557MOL0     H75137   6.412  10.493   1.813 -0.9910  0.8612 -4.0147
  557MOL0     H75138   6.462  10.283   1.947 -1.6526  0.1901 -0.5678
  557MOL0     H75139   6.516  10.194   1.799  1.9964  1.0271 -1.6187
  557MOL0     H75140   6.698  10.352   1.770 -0.4322 -3.4587 -1.5856
  557MOL0     H75141   6.640  10.453   1.903 -3.0177  0.4934 -1.3910
  557MOL0     H75142   6.836  10.303   1.944 -1.3518  1.6343 -3.2173
  557MOL0     H75143   6.748  10.169   1.913  2.8694  0.7852 -1.1565
  557MOL0     H75144   6.683  10.350   2.147  0.3523  1.7065 -0.8790
  557MOL0     H75145   6.616  10.184   2.101 -0.6233  2.4004  1.6273
  557MOL0     H75146   6.976  10.318   2.168 -0.8047  0.6464  1.8762
  557MOL0     H75147   7.200  10.106   2.214  1.4506 -1.6737  1.9070
  557MOL0     H75148   7.149  10.229   2.329 -1.3704  0.3113 -0.1557
  557MOL0     H75149   7.287  10.070   2.445 -0.1257 -0.1899 -0.1347
  557MOL0     H75150   7.120  10.090   2.506 -1.6300 -2.0979 -0.1493
  557MOL0     H75151   7.225   9.873   2.325 -3.8948 -1.4579 -2.8966
  557MOL0     H75152   7.068   9.867   2.401  0.6118  2.3610  0.6916
  557MOL0     H75153   7.144   9.853   2.616  0.6935 -1.4464  0.8535
  557MOL0     H75154   7.322   9.864   2.571  2.2651 -5.2748 -1.6787
  557MOL0     H75155   7.223   9.463   2.429 -1.6543  2.1351  0.1854
  557MOL0     H75156   7.364   9.369   2.247 -2.3088  0.2894 -0.0554
  557MOL0     H75157   7.541   9.435   1.857 -0.4671  4.2926  1.5109
  557MOL0     H75158   7.655   9.355   1.656 -1.1998  0.7326 -0.1735
  557MOL0     H75159   7.836   9.238   1.584 -0.9661 -0.2158 -0.0702
  557MOL0     H75160   7.787   9.346   1.448  0.7209  0.8306 -0.4222
  557MOL0     H75161   8.053   9.222   1.470  2.7556  1.7597  0.6990
  557MOL0     H75162   7.943   9.225   1.328  0.0940  1.2062 -0.8085
  557MOL0     H75163   7.956   9.459   1.294 -0.2820  2.9951  2.3314
  557MOL0     H75164   8.075   9.483   1.427 -0.3008 -1.1111  1.3145
  557MOL0     H75165   8.110   9.293   1.191 -0.3557 -3.6018  4.8214
  557MOL0     H75166   8.246   9.330   1.286  0.9039  0.6497 -0.8838
  557MOL0     H75167   8.107   9.558   1.126  0.5095  0.3934  1.0661
  557MOL0     H75168   8.196   9.422   1.050 -1.6540 -0.1554  0.9674
  557MOL0     H75169   8.293   9.598   1.269 -1.7010 -0.4987 -0.4220
  557MOL0     H75170   8.403   9.494   1.174  1.0436  1.3045  1.0990
  557MOL0     H75171   8.270   9.728   1.017  2.8295 -0.8696 -5.4025
  557MOL0     H75172   8.414   9.640   0.996  1.1182 -1.8131  2.6603
  557MOL0     H75173   8.423   9.876   1.112  1.5523 -0.0688 -0.6192
  557MOL0     H75174   8.354   9.801   1.252  0.0057  1.1170  0.9414
  557MOL0     H75175   8.004   9.572   1.767 -0.5291  0.7443  0.5925
  557MOL0     H75176   7.893   9.659   1.981 -0.2269 -1.8765  3.1575
  557MOL0     H75177   7.591   9.735   2.258 -0.4960 -1.0905 -4.8010
  557MOL0     H75178   7.454   9.821   2.426 -0.0794  0.8980 -1.2558
  557MOL0     H75179   5.869  10.690   1.558 -1.0761  1.2075 -1.2237
  557MOL0     H75180   5.639  10.727   1.525  1.9232  1.1950  2.5886
  557MOL0     H75181   5.131  10.621   1.705  1.8555 -0.7933 -0.1739
  557MOL0     H75182   4.916  10.685   1.630  0.9712 -0.3151  0.2132
  557MOL0     H75183   4.821  10.532   1.256  0.6730  1.3692  0.1318
  557MOL0     H75184   4.749  10.680   1.213  0.9353  0.7627  0.0032
  557MOL0     H75185   4.556  10.519   1.252 -1.5405  0.1927  1.1756
  557MOL0     H75186   4.566  10.651   1.371  0.5838  0.6376 -1.1729
  557MOL0     H75187   4.687  10.508   1.534 -1.6046  1.5404  0.5932
  557MOL0     H75188   4.682  10.375   1.410 -0.5702  0.3978 -1.6675
  557MOL0     H75189   4.425  10.417   1.405  0.6500  1.4546 -0.5981
  557MOL0     H75190   4.498  10.315   1.517 -0.2742 -1.2949 -2.7053
  557MOL0     H75191   4.305  10.648   1.743 -1.4716  1.4552 -1.7635
  557MOL0     H75192   5.017  10.609   1.223 -1.4591  1.7721 -0.4741
  557MOL0     H75193   5.328  10.636   1.219 -1.4940  1.7221  0.2523
  557MOL0     H75194   5.336  10.456   1.273 -2.8518 -1.6212  0.6411
  557MOL0     H75195   5.220  10.502   1.160  0.9406 -2.6657  1.0181
  558MOL0     O75196  10.303   6.201   6.967 -0.0445  0.3366 -0.0373
  558MOL0     C75197  10.208   6.202   6.884  0.0768 -0.8108 -0.2138
  558MOL0     O75198  10.187   6.296   6.783  0.4938  0.6235  0.2867
  558MOL0     C75199  10.279   6.397   6.782  0.1877 -0.4123  1.0044
  558MOL0     C75200  10.237   6.529   6.810  0.1604  0.1404  0.6592
  558MOL0     C75201  10.333   6.627   6.825 -0.3814 -0.1817  0.0721
  558MOL0     C75202  10.468   6.606   6.785  0.4600  0.1015 -0.5898
  558MOL0     O75203  10.559   6.703   6.805 -0.0678 -0.3775 -0.3247
  558MOL0     C75204  10.689   6.700   6.755  0.3452  0.5631  0.4910
  558MOL0     C75205  10.785   6.799   6.804 -0.2770 -0.2717  0.0068
  558MOL0     C75206  10.767   6.838   6.953 -0.1692  0.2067 -0.4526
  558MOL0     C75207  10.792   6.737   7.062  0.1992 -0.0045 -0.0781
  558MOL0     C75208  10.697   6.763   7.184 -0.8870  0.1664  0.4924
  558MOL0     C75209  10.741   6.881   7.279 -1.3146 -0.4468  0.2643
  558MOL0     C75210  10.870   6.851   7.353 -0.0856  0.0970  1.2589
  558MOL0     C75211  10.886   6.938   7.474  0.3483  0.2232  0.5320
  558MOL0     N75212  11.024   6.935   7.525 -0.0747 -0.7136 -0.6737
  558MOL0     C75213  11.078   6.823   7.579  0.1737 -0.7846  0.0626
  558MOL0     C75214  11.212   6.847   7.582 -0.1192 -0.2388  0.4799
  558MOL0     C75215  11.312   6.753   7.643 -0.4346 -0.1946 -0.4848
  558MOL0     C75216  11.300   6.603   7.617 -0.3342 -0.3572  0.0803
  558MOL0     C75217  11.356   6.528   7.742 -0.2603 -1.2383 -0.6050
  558MOL0     C75218  11.507   6.504   7.734  0.0249 -0.4578  0.3230
  558MOL0     O75219  11.582   6.625   7.755  0.2734 -0.0501  0.1144
  558MOL0     C75220  11.715   6.622   7.775  0.2058 -0.0984 -0.5164
  558MOL0     C75221  11.800   6.509   7.765 -0.7118  0.3535 -0.1959
  558MOL0     C75222  11.942   6.533   7.763 -0.3757 -0.2959  0.4381
  558MOL0     C75223  11.997   6.667   7.755  0.1196  0.3284 -0.7782
  558MOL0     C75224  12.146   6.690   7.739 -1.2083  0.4924 -0.2478
  558MOL0     O75225  12.190   6.812   7.763  0.4085  0.3335 -0.0163
  558MOL0     C75226  12.324   6.835   7.774  0.0873  0.7829  0.0301
  558MOL0     C75227  12.374   6.947   7.713  0.5871 -0.2743  0.2882
  558MOL0     C75228  12.510   6.976   7.698  0.3714  0.8162 -0.8050
  558MOL0     C75229  12.603   6.894   7.763  0.5586 -0.6189 -0.4821
  558MOL0     O75230  12.730   6.926   7.779 -0.0320 -0.1130 -0.7906
  558MOL0     C75231  12.821   6.932   7.662  0.0976  0.3236 -0.4227
  558MOL0     C75232  12.960   6.950   7.715  0.5579 -0.4160 -0.8336
  558MOL0     C75233  13.077   6.974   7.614 -0.0342  0.1658 -0.0991
  558MOL0     C75234  13.093   7.122   7.585  0.7951  0.0010 -0.2645
  558MOL0     C75235  13.207   7.155   7.489  0.1266  0.0788  0.5794
  558MOL0     C75236  13.336   7.144   7.562 -0.0093 -0.1524 -0.0032
  558MOL0     C75237  13.364   7.276   7.632  0.3083  0.3056 -0.4075
  558MOL0     C75238  13.506   7.269   7.700 -0.3227 -0.1977  0.2308
  558MOL0    Cl75239  13.522   7.182   7.849  0.5427 -0.0133 -0.9107
  558MOL0     C75240  12.558   6.786   7.838  0.1465  1.0325  0.3345
  558MOL0     C75241  12.420   6.751   7.834  0.1119  0.3016  0.4434
  558MOL0     O75242  12.219   6.594   7.723  0.0583 -0.0019  0.0725
  558MOL0     C75243  11.911   6.770   7.784 -0.1288  0.3615  0.0667
  558MOL0     C75244  11.775   6.745   7.797 -0.5754 -0.3875 -0.0908
  558MOL0     N75245  11.236   6.977   7.550  0.2461 -0.5663  0.2647
  558MOL0     N75246  11.124   7.033   7.512  0.2154  0.0434  0.7426
  558MOL0     C75247  10.503   6.475   6.764  0.0942  0.1686 -0.0875
  558MOL0     C75248  10.414   6.371   6.751 -0.3111  0.3497 -0.5268
  558MOL0     C75249  10.102   6.096   6.893 -0.4272  0.6690  0.5939
  558MOL0     C75250  10.020   6.074   6.779  0.9560  0.3679  0.6726
  558MOL0     C75251   9.925   5.973   6.769 -0.5392  1.2161 -0.4233
  558MOL0     C75252   9.906   5.892   6.881 -1.0704  0.0954 -0.2143
  558MOL0     O75253   9.799   5.810   6.881  0.1987  0.4055 -0.0325
  558MOL0     C75254   9.743   5.766   7.006  0.6732  0.2046  0.0680
  558MOL0     C75255   9.611   5.690   6.978  0.1490  0.0300 -0.1493
  558MOL0     C75256   9.504   5.772   6.899 -0.4156 -0.3606 -0.9381
  558MOL0     C75257   9.371   5.699   6.904  0.7604 -0.4288 -0.1340
  558MOL0     C75258   9.267   5.792   6.850 -0.3372 -0.0368 -0.3971
  558MOL0     C75259   9.165   5.849   6.819 -0.8816  0.6635 -0.4061
  558MOL0     C75260   9.993   5.911   6.992  0.3117  0.9690  0.4502
  558MOL0     C75261  10.087   6.012   7.000  0.2539 -0.2956  0.2231
  558MOL0     C75262  10.156   6.024   7.123 -0.2558 -0.7749  0.8377
  558MOL0     H75263  10.132   6.550   6.827  0.0555  0.0637  0.1025
  558MOL0     H75264  10.311   6.731   6.847  3.0397  1.2750 -2.5524
  558MOL0     H75265  10.730   6.600   6.770 -3.6420 -1.4745 -0.6500
  558MOL0     H75266  10.679   6.708   6.646  0.5119 -2.0632  0.2053
  558MOL0     H75267  10.772   6.893   6.749 -0.1083  0.5397  1.3251
  558MOL0     H75268  10.884   6.755   6.785 -0.2683 -0.0746 -0.4251
  558MOL0     H75269  10.672   6.890   6.967  0.3771  0.8678  1.0236
  558MOL0     H75270  10.841   6.915   6.976 -0.8735  0.2619  1.8734
  558MOL0     H75271  10.775   6.633   7.030 -1.5661  1.0182 -2.8047
  558MOL0     H75272  10.893   6.732   7.105 -1.2336 -3.6862  3.5769
  558MOL0     H75273  10.596   6.782   7.145 -1.0239 -2.3574 -0.5490
  558MOL0     H75274  10.693   6.669   7.240  0.0672 -0.9051 -1.1509
  558MOL0     H75275  10.744   6.975   7.224 -0.4462 -1.4121 -1.4089
  558MOL0     H75276  10.663   6.901   7.353  0.0948 -1.7557  2.2143
  558MOL0     H75277  10.954   6.867   7.285 -0.9017  2.3837  0.7104
  558MOL0     H75278  10.868   6.746   7.387 -1.1647 -1.0191 -1.9135
  558MOL0     H75279  10.844   7.034   7.441 -1.7561 -1.0828 -0.8502
  558MOL0     H75280  10.837   6.907   7.566  2.3544  1.2054  2.0170
  558MOL0     H75281  11.022   6.739   7.620  1.3054 -0.8744  1.4987
  558MOL0     H75282  11.417   6.766   7.615 -0.3206 -0.3565 -0.1385
  558MOL0     H75283  11.317   6.776   7.749  0.3439  1.9859 -0.9413
  558MOL0     H75284  11.197   6.574   7.597 -0.4141 -0.1838  0.2400
  558MOL0     H75285  11.347   6.567   7.525 -0.3171 -1.1864  0.4051
  558MOL0     H75286  11.301   6.434   7.748 -1.5247 -0.5102 -0.4211
  558MOL0     H75287  11.327   6.578   7.836 -1.5511 -1.7451 -0.7068
  558MOL0     H75288  11.531   6.463   7.635 -0.3208 -0.8819  0.4135
  558MOL0     H75289  11.535   6.430   7.810  2.1159  1.0041  1.0570
  558MOL0     H75290  11.773   6.404   7.764  0.8030 -0.0784  0.4814
  558MOL0     H75291  12.009   6.447   7.758  0.4865  0.2890  1.3634
  558MOL0     H75292  12.301   7.014   7.668 -1.4035 -1.5674  1.4612
  558MOL0     H75293  12.534   7.073   7.655 -1.2996  1.6085 -0.0278
  558MOL0     H75294  12.830   6.835   7.612 -0.5790  0.2597 -0.4299
  558MOL0     H75295  12.790   7.015   7.598 -0.1807 -0.1731 -0.9365
  558MOL0     H75296  12.970   7.032   7.786  2.7869 -1.9714  0.7942
  558MOL0     H75297  12.978   6.856   7.768 -2.3340 -1.5185 -1.6190
  558MOL0     H75298  13.167   6.937   7.665  0.4158  1.1239 -0.1619
  558MOL0     H75299  13.059   6.925   7.518  2.4365 -3.9667  1.2665
  558MOL0     H75300  13.111   7.174   7.679  2.2854  1.0343 -1.0704
  558MOL0     H75301  13.004   7.167   7.541  0.5483 -1.3208 -1.1667
  558MOL0     H75302  13.190   7.245   7.429 -1.6198 -0.8479 -0.3894
  558MOL0     H75303  13.206   7.076   7.414 -2.2089 -0.1161  0.7451
  558MOL0     H75304  13.350   7.057   7.627 -0.7812  0.1340  0.5536
  558MOL0     H75305  13.414   7.138   7.486  2.8795  1.6136  2.6015
  558MOL0     H75306  13.282   7.305   7.699 -1.7366 -2.5718 -1.4331
  558MOL0     H75307  13.371   7.353   7.555 -0.4506  0.1237 -0.6699
  558MOL0     H75308  13.563   7.220   7.620 -0.2396  0.8974 -0.3967
  558MOL0     H75309  13.555   7.364   7.720  0.2891 -0.4259 -0.1585
  558MOL0     H75310  12.631   6.720   7.883 -0.8472 -2.2642 -2.4884
  558MOL0     H75311  12.376   6.671   7.892 -1.7134  0.2060 -0.9934
  558MOL0     H75312  11.939   6.875   7.792 -0.6693  0.4629  0.8023
  558MOL0     H75313  11.717   6.835   7.815  1.4463  1.2044 -1.1543
  558MOL0     H75314  10.609   6.452   6.754 -0.3269 -2.0564  0.0643
  558MOL0     H75315  10.456   6.274   6.726 -0.5360 -0.0638  0.6415
  558MOL0     H75316  10.051   6.120   6.686  1.9408  0.6691  1.1249
  558MOL0     H75317   9.869   5.951   6.679  1.4952  2.0907 -1.9800
  558MOL0     H75318   9.715   5.851   7.069  2.3500  1.5872 -0.9891
  558MOL0     H75319   9.809   5.696   7.057 -0.4447 -0.5739  0.4858
  558MOL0     H75320   9.576   5.661   7.078 -0.8280 -2.4761 -1.1238
  558MOL0     H75321   9.632   5.598   6.921 -2.3974 -1.5769  1.3218
  558MOL0     H75322   9.543   5.793   6.799  2.3609  0.6142  0.2516
  558MOL0     H75323   9.492   5.873   6.939  0.0878  0.3939 -2.6098
  558MOL0     H75324   9.372   5.600   6.858 -2.2407 -1.3656  1.5518
  558MOL0     H75325   9.337   5.687   7.007  2.3005  2.5300  0.8341
  558MOL0     H75326   9.072   5.898   6.797 -2.2471 -1.3736  0.5161
  558MOL0     H75327   9.976   5.850   7.080  3.2331 -1.0014 -0.1736
  558MOL0     H75328  10.115   5.968   7.208  0.9683  0.2731  2.1669
  558MOL0     H75329  10.253   5.980   7.097 -0.5878 -0.8723 -0.3057
  558MOL0     H75330  10.150   6.128   7.155 -2.9669 -1.8312  4.4143
  559MOL0     O75331   6.548  11.203   2.819 -0.1440 -0.1083 -0.3151
  559MOL0     C75332   6.471  11.250   2.901  0.1928 -0.3114  0.0140
  559MOL0     O75333   6.509  11.269   3.038 -0.2600 -0.4879  0.2913
  559MOL0     C75334   6.637  11.249   3.080 -0.0536 -0.4897  0.4965
  559MOL0     C75335   6.718  11.355   3.137 -0.1967 -0.6850 -0.4256
  559MOL0     C75336   6.850  11.323   3.176  0.2155 -0.6509 -0.1943
  559MOL0     C75337   6.895  11.190   3.163  0.2034 -0.8005 -1.1107
  559MOL0     O75338   7.019  11.179   3.210 -0.7398  0.1545 -0.2869
  559MOL0     C75339   7.041  11.060   3.287 -0.1186 -0.8033  0.0850
  559MOL0     C75340   7.143  11.086   3.396 -0.4485  0.6062 -0.2594
  559MOL0     C75341   7.199  10.966   3.472 -1.3662 -0.3050  0.1359
  559MOL0     C75342   7.345  10.981   3.498 -0.0439  0.5954  0.8448
  559MOL0     C75343   7.433  10.905   3.393  0.4199 -0.3559 -0.0897
  559MOL0     C75344   7.590  10.932   3.420  0.3613 -0.3327 -0.7142
  559MOL0     C75345   7.685  10.815   3.374 -0.2187  0.0281 -0.0498
  559MOL0     C75346   7.816  10.839   3.443 -0.6290 -0.2931 -0.0744
  559MOL0     N75347   7.936  10.778   3.371 -0.0801  0.7323  0.3297
  559MOL0     C75348   8.049  10.832   3.324 -0.8728 -0.1438 -0.2791
  559MOL0     C75349   8.131  10.738   3.274  0.2026 -0.4320 -0.2643
  559MOL0     C75350   8.262  10.754   3.215 -0.1002  0.3317 -0.4184
  559MOL0     C75351   8.382  10.715   3.302  0.1716  0.4751 -0.6887
  559MOL0     C75352   8.393  10.562   3.302 -0.0552 -0.7191  0.5357
  559MOL0     C75353   8.515  10.509   3.362  0.2407 -0.0605  0.3511
  559MOL0     O75354   8.623  10.569   3.299 -0.1950  0.6284  0.1654
  559MOL0     C75355   8.756  10.544   3.343 -0.2152  0.2702 -0.1576
  559MOL0     C75356   8.783  10.473   3.459  0.2343  0.1550  0.0636
  559MOL0     C75357   8.918  10.443   3.487 -0.3803  0.1928 -0.0112
  559MOL0     C75358   9.028  10.473   3.406 -0.0335  0.5496 -0.2392
  559MOL0     C75359   9.163  10.419   3.444 -0.0269 -1.0199  0.2383
  559MOL0     O75360   9.184  10.380   3.574  0.4425 -0.1765 -0.4472
  559MOL0     C75361   9.313  10.339   3.603  0.2428  0.3147 -0.4142
  559MOL0     C75362   9.388  10.418   3.697 -0.2472 -0.0370  0.0527
  559MOL0     C75363   9.519  10.387   3.720 -0.4347 -0.8202  0.7461
  559MOL0     C75364   9.586  10.284   3.654  0.3014  0.7280  0.8905
  559MOL0     O75365   9.719  10.242   3.678  0.5970  0.4233 -0.2638
  559MOL0     C75366   9.775  10.247   3.807 -0.0332 -0.2027 -0.5877
  559MOL0     C75367   9.917  10.174   3.792  0.4518  0.1349  0.2483
  559MOL0     C75368  10.012  10.266   3.717  0.0524  0.4650  0.2719
  559MOL0     C75369  10.144  10.199   3.686  0.6402  0.1945  0.4887
  559MOL0     C75370  10.251  10.289   3.616  0.3044  0.6579  0.1791
  559MOL0     C75371  10.365  10.204   3.581  0.5188  0.4851  1.4632
  559MOL0     C75372  10.442  10.138   3.708 -0.7218 -0.9414 -0.0208
  559MOL0     C75373  10.590  10.135   3.673  0.2445 -0.2841 -0.6390
  559MOL0    Cl75374  10.676  10.060   3.810 -0.3439 -0.0421 -0.1612
  559MOL0     C75375   9.502  10.198   3.568  0.0109 -0.1630  0.2435
  559MOL0     C75376   9.375  10.236   3.541 -0.3005  0.2823 -0.0972
  559MOL0     O75377   9.251  10.431   3.357  0.0817  0.3059 -0.2573
  559MOL0     C75378   9.004  10.551   3.292 -1.0203  0.2992 -0.4662
  559MOL0     C75379   8.871  10.582   3.260  0.4465  0.1751 -0.1368
  559MOL0     N75380   8.070  10.623   3.294 -0.7258 -0.0477 -1.1119
  559MOL0     N75381   7.955  10.646   3.344  0.2139  0.5299 -0.4366
  559MOL0     C75382   6.815  11.091   3.113  0.5002  0.4707 -0.4725
  559MOL0     C75383   6.686  11.120   3.080  0.0080 -0.1687 -0.0223
  559MOL0     C75384   6.330  11.274   2.859  0.2742 -0.6423 -0.7347
  559MOL0     C75385   6.239  11.338   2.954 -0.5265 -0.7816  0.5164
  559MOL0     C75386   6.116  11.363   2.911  0.0794 -1.5007 -0.5296
  559MOL0     C75387   6.059  11.335   2.791  1.0738 -0.6756  0.2598
  559MOL0     O75388   5.927  11.381   2.776 -0.8282 -0.2463 -0.0137
  559MOL0     C75389   5.860  11.345   2.656 -0.1895 -0.2140 -0.8295
  559MOL0     C75390   5.711  11.373   2.645 -0.4826  0.2200  0.3759
  559MOL0     C75391   5.684  11.509   2.697  0.4763 -0.2049  0.7134
  559MOL0     C75392   5.528  11.525   2.732 -0.4618  0.3885 -0.0887
  559MOL0     C75393   5.435  11.520   2.616 -0.3003  1.0313  0.5771
  559MOL0     C75394   5.365  11.505   2.521 -0.4168 -0.7568  0.1360
  559MOL0     C75395   6.142  11.262   2.700 -1.2638 -0.1175  0.6356
  559MOL0     C75396   6.278  11.235   2.728 -0.3876 -0.2884 -0.2253
  559MOL0     C75397   6.352  11.167   2.616  0.2293 -0.4508  0.8024
  559MOL0     H75398   6.685  11.458   3.135 -1.6040 -1.1066 -1.7414
  559MOL0     H75399   6.914  11.408   3.199  1.2029 -0.7782 -2.2452
  559MOL0     H75400   6.945  11.031   3.331 -1.9602  1.9185 -1.8535
  559MOL0     H75401   7.081  10.989   3.213  0.0463 -0.6482  0.0285
  559MOL0     H75402   7.113  11.164   3.467  1.5859  2.7165 -1.5674
  559MOL0     H75403   7.232  11.129   3.349 -0.1294 -0.8345 -1.0374
  559MOL0     H75404   7.186  10.870   3.421 -0.4712 -1.0267  1.2155
  559MOL0     H75405   7.139  10.959   3.563  0.4820  2.5479  1.6933
  559MOL0     H75406   7.380  11.083   3.516  0.8902  0.5239 -0.4298
  559MOL0     H75407   7.368  10.928   3.591  0.2444 -2.1543 -0.6852
  559MOL0     H75408   7.406  10.800   3.400 -2.5886  0.3651  0.5838
  559MOL0     H75409   7.414  10.934   3.289 -2.4897 -1.1265  0.1521
  559MOL0     H75410   7.611  11.033   3.382 -2.5851  0.9908  0.8454
  559MOL0     H75411   7.586  10.947   3.528 -1.3364  1.6335 -0.9839
  559MOL0     H75412   7.703  10.826   3.266  0.0859  1.3680  0.1229
  559MOL0     H75413   7.657  10.712   3.398  1.5762 -0.5852 -0.4571
  559MOL0     H75414   7.824  10.946   3.463  1.6997 -0.2474 -0.9478
  559MOL0     H75415   7.813  10.785   3.539 -0.7278  0.0435  0.1141
  559MOL0     H75416   8.083  10.935   3.332  2.7916 -1.2851  1.3794
  559MOL0     H75417   8.274  10.724   3.111  0.9351  4.4076 -1.6739
  559MOL0     H75418   8.281  10.862   3.215  1.2693  0.1143 -1.0875
  559MOL0     H75419   8.471  10.765   3.263  2.2614 -1.1581  1.6166
  559MOL0     H75420   8.348  10.755   3.398 -3.2302  0.9298 -1.9500
  559MOL0     H75421   8.381  10.509   3.207 -2.8778  1.4501 -0.4637
  559MOL0     H75422   8.316  10.534   3.375 -0.2570  2.1597  1.5938
  559MOL0     H75423   8.512  10.401   3.343 -3.3138 -0.3135  1.4642
  559MOL0     H75424   8.525  10.532   3.469  0.3214  0.5300  0.2200
  559MOL0     H75425   8.709  10.447   3.534  1.1489 -1.0408  0.5840
  559MOL0     H75426   8.937  10.387   3.578  0.4934 -1.7111 -1.2918
  559MOL0     H75427   9.337  10.498   3.750  2.5512  1.6914  0.3199
  559MOL0     H75428   9.572  10.453   3.788 -1.9073 -0.4877  1.6053
  559MOL0     H75429   9.789  10.345   3.853  1.0542 -1.0976  1.0996
  559MOL0     H75430   9.706  10.191   3.870 -0.0759 -0.7651 -1.1225
  559MOL0     H75431   9.956  10.144   3.889 -0.3436  0.5672  0.7089
  559MOL0     H75432   9.895  10.085   3.732 -0.6920  0.6151 -0.0706
  559MOL0     H75433   9.964  10.296   3.623 -0.7442 -0.0768  0.4958
  559MOL0     H75434  10.034  10.358   3.773  0.7705  0.1454  0.5201
  559MOL0     H75435  10.121  10.123   3.611  1.1063  0.8849 -0.3718
  559MOL0     H75436  10.185  10.155   3.777  2.8834 -0.9330 -0.9919
  559MOL0     H75437  10.285  10.366   3.685 -1.6035  0.4217  1.4402
  559MOL0     H75438  10.208  10.337   3.528  1.0659  1.1911  0.0867
  559MOL0     H75439  10.325  10.120   3.523 -0.4359 -0.7300  3.7627
  559MOL0     H75440  10.428  10.268   3.518 -1.4500  1.1362  0.0569
  559MOL0     H75441  10.395  10.041   3.727 -0.1760 -1.4461 -1.1693
  559MOL0     H75442  10.442  10.208   3.793  0.2103  0.4658 -1.1208
  559MOL0     H75443  10.602  10.084   3.577 -1.7591 -0.9633 -0.5732
  559MOL0     H75444  10.637  10.233   3.659  2.2018 -1.2058 -0.8197
  559MOL0     H75445   9.551  10.110   3.528 -1.8983 -1.6537  1.0225
  559MOL0     H75446   9.305  10.172   3.488 -0.4548 -0.1781  0.6513
  559MOL0     H75447   9.084  10.558   3.219 -1.4047  0.9705 -0.8178
  559MOL0     H75448   8.855  10.623   3.161  0.3474 -1.5150 -0.8545
  559MOL0     H75449   6.861  10.994   3.094  2.5966  1.8793 -3.2211
  559MOL0     H75450   6.622  11.040   3.047 -0.3556  0.6276 -1.3415
  559MOL0     H75451   6.273  11.387   3.044  2.0230  1.7036 -1.6159
  559MOL0     H75452   6.051  11.419   2.978  0.9615 -1.9099  0.6979
  559MOL0     H75453   5.872  11.239   2.631  0.1647  0.0919 -2.0081
  559MOL0     H75454   5.905  11.404   2.576  1.9355  0.9564  1.1028
  559MOL0     H75455   5.658  11.298   2.705  0.0406  2.1488  3.4792
  559MOL0     H75456   5.687  11.365   2.539  2.2414  1.0869 -0.3796
  559MOL0     H75457   5.703  11.580   2.616 -0.1413  0.0528  0.7887
  559MOL0     H75458   5.736  11.526   2.791  0.3043 -3.5732  1.5416
  559MOL0     H75459   5.503  11.449   2.806  0.4974 -1.6214 -1.7337
  559MOL0     H75460   5.511  11.622   2.780  1.4751 -0.8788  3.5536
  559MOL0     H75461   5.293  11.497   2.442  1.6002 -0.8326 -1.8108
  559MOL0     H75462   6.100  11.235   2.604  0.3231  6.0445 -2.3521
  559MOL0     H75463   6.455  11.202   2.621  0.9035 -2.4892  3.2976
  559MOL0     H75464   6.354  11.059   2.633 -0.4499 -0.2164  2.5397
  559MOL0     H75465   6.307  11.187   2.518 -1.3294 -1.6352  1.2185
  560MOL0     O75466   7.316   4.411   9.266  0.5996  0.1218 -0.0106
  560MOL0     C75467   7.266   4.504   9.205 -0.1956 -0.0344  0.5100
  560MOL0     O75468   7.327   4.578   9.106  0.4624  0.4715  0.2718
  560MOL0     C75469   7.456   4.544   9.074 -0.3675 -0.6970  0.6822
  560MOL0     C75470   7.490   4.523   8.937 -1.3638  0.1908  0.9426
  560MOL0     C75471   7.621   4.492   8.899 -0.3189  0.6743 -0.4874
  560MOL0     C75472   7.724   4.481   8.993  0.1463 -0.2706 -0.0513
  560MOL0     O75473   7.852   4.448   8.963  0.3971 -0.4204 -0.6820
  560MOL0     C75474   7.869   4.376   8.844  0.2592  0.6162 -0.4833
  560MOL0     C75475   7.978   4.278   8.846  0.0681 -0.7449 -0.7845
  560MOL0     C75476   7.946   4.163   8.947 -0.3087  0.9601  0.2442
  560MOL0     C75477   8.043   4.048   8.924  0.2107 -0.5365  0.4660
  560MOL0     C75478   8.153   4.059   9.025  0.0220 -0.3777 -0.9097
  560MOL0     C75479   8.266   3.957   9.003  0.8978 -1.1718  0.2586
  560MOL0     C75480   8.360   3.937   9.119  0.0306 -1.0508 -0.2896
  560MOL0     C75481   8.489   3.861   9.079 -0.7333 -0.5551  0.5197
  560MOL0     N75482   8.562   3.810   9.204  0.3366 -0.8531  0.2961
  560MOL0     C75483   8.641   3.880   9.298  0.2548  0.7705 -0.1703
  560MOL0     C75484   8.670   3.780   9.386  0.6387 -0.4564  0.4625
  560MOL0     C75485   8.760   3.783   9.511 -0.2887  0.4046  0.0267
  560MOL0     C75486   8.885   3.703   9.496 -0.1690 -0.3130  0.0467
  560MOL0     C75487   8.855   3.551   9.500  0.3424  0.4242  0.0852
  560MOL0     C75488   8.983   3.481   9.462  0.6885 -0.2931 -0.6768
  560MOL0     O75489   9.084   3.495   9.562  0.2253 -0.0768  0.0806
  560MOL0     C75490   9.215   3.449   9.549 -0.0893 -0.3752 -0.1255
  560MOL0     C75491   9.300   3.483   9.651 -0.4086 -0.5581 -0.6339
  560MOL0     C75492   9.436   3.438   9.656  0.2125  0.0505  0.0629
  560MOL0     C75493   9.489   3.350   9.553  0.0429  0.0931  0.2727
  560MOL0     C75494   9.631   3.294   9.564  0.4802  0.7062  0.3769
  560MOL0     O75495   9.698   3.247   9.453 -0.2627 -0.2293  0.2814
  560MOL0     C75496   9.820   3.181   9.474  0.3556  0.6432  0.0177
  560MOL0     C75497   9.838   3.042   9.477 -0.1632  0.9819 -0.3017
  560MOL0     C75498   9.959   2.980   9.502  0.2803  0.0322 -0.4554
  560MOL0     C75499  10.072   3.061   9.515 -0.4603 -0.1655  0.3728
  560MOL0     O75500  10.198   3.014   9.514 -0.4610 -0.0220 -0.0861
  560MOL0     C75501  10.253   3.012   9.645  0.3651  0.3376  0.0309
  560MOL0     C75502  10.396   2.958   9.612 -1.1438  0.1964 -0.0907
  560MOL0     C75503  10.500   3.002   9.711 -0.0550 -0.3054  0.5610
  560MOL0     C75504  10.639   2.958   9.678 -0.7118 -1.2111 -0.7304
  560MOL0     C75505  10.733   2.999   9.793 -0.2939 -0.6175  1.0797
  560MOL0     C75506  10.830   2.882   9.803 -0.2461  0.3834  0.1528
  560MOL0     C75507  10.954   2.926   9.888 -0.5911 -0.5976  0.1821
  560MOL0     C75508  11.041   2.814   9.941 -0.2821 -0.0590 -0.1507
  560MOL0    Cl75509  11.045   2.674   9.823 -0.5962  0.2891 -0.2200
  560MOL0     C75510  10.065   3.201   9.497  1.1243  0.9023  0.7089
  560MOL0     C75511   9.934   3.261   9.481  0.5660  0.1853 -0.7186
  560MOL0     O75512   9.674   3.301   9.679 -0.0486  0.3615 -0.2762
  560MOL0     C75513   9.395   3.323   9.448  0.9486 -0.3015 -0.6873
  560MOL0     C75514   9.258   3.368   9.452 -0.0362  0.1829 -0.1501
  560MOL0     N75515   8.605   3.659   9.354 -0.2343  0.1611  0.7610
  560MOL0     N75516   8.550   3.677   9.241 -0.6534 -0.2231  0.0234
  560MOL0     C75517   7.694   4.518   9.127  0.4056  0.4013  0.1526
  560MOL0     C75518   7.558   4.548   9.166  0.1318  0.1095 -0.8419
  560MOL0     C75519   7.121   4.529   9.235  0.2988 -0.1212 -0.4755
  560MOL0     C75520   7.066   4.460   9.354 -1.1161 -0.5419 -0.9070
  560MOL0     C75521   6.936   4.484   9.399  0.4911 -0.0906  0.3433
  560MOL0     C75522   6.854   4.561   9.322  0.3386  0.3845 -0.7985
  560MOL0     O75523   6.726   4.578   9.357  0.3998  0.7208  0.3703
  560MOL0     C75524   6.641   4.478   9.300 -0.1115  0.3251  0.8611
  560MOL0     C75525   6.503   4.543   9.274  0.1839 -1.2997  0.0180
  560MOL0     C75526   6.418   4.557   9.403 -0.1457 -0.3053 -0.0310
  560MOL0     C75527   6.323   4.447   9.426 -0.3174  0.6013 -0.0193
  560MOL0     C75528   6.271   4.475   9.559  0.1692 -0.1211 -0.9477
  560MOL0     C75529   6.197   4.495   9.657 -0.1934  0.2542  0.7173
  560MOL0     C75530   6.902   4.624   9.206  0.6411 -0.1334 -0.4656
  560MOL0     C75531   7.032   4.602   9.155 -0.5109 -0.4188  0.2641
  560MOL0     C75532   7.075   4.676   9.035 -0.1767 -0.8007  0.2404
  560MOL0     H75533   7.406   4.516   8.868 -0.7622 -0.6913  0.2664
  560MOL0     H75534   7.643   4.468   8.795  2.0474 -0.5518  0.1966
  560MOL0     H75535   7.789   4.306   8.819  1.2721 -1.5893  1.9621
  560MOL0     H75536   7.883   4.451   8.765  0.7257 -1.1071 -2.0932
  560MOL0     H75537   8.067   4.337   8.870  0.5960 -2.6196  2.3718
  560MOL0     H75538   7.984   4.251   8.740 -1.5819  3.3393 -2.1148
  560MOL0     H75539   7.848   4.122   8.922  0.8440  0.7773 -5.3006
  560MOL0     H75540   7.952   4.194   9.052  0.8808  0.7539  0.2562
  560MOL0     H75541   7.994   3.951   8.934  0.2022 -0.5552  0.2240
  560MOL0     H75542   8.096   4.046   8.829  1.1015 -1.1686  0.9540
  560MOL0     H75543   8.192   4.161   9.018  0.4903 -0.2318  2.1593
  560MOL0     H75544   8.111   4.040   9.124 -0.1244 -0.3349 -0.9637
  560MOL0     H75545   8.231   3.856   8.980  2.4947 -2.2755  2.4118
  560MOL0     H75546   8.317   3.993   8.913  0.8516  2.5264  1.5346
  560MOL0     H75547   8.310   3.876   9.195  1.8934 -1.3804  0.7448
  560MOL0     H75548   8.378   4.037   9.159  0.8360 -1.5800  0.7387
  560MOL0     H75549   8.450   3.790   9.006  2.0669 -2.2235  0.5229
  560MOL0     H75550   8.551   3.934   9.027  1.3799 -1.8792  1.0775
  560MOL0     H75551   8.667   3.985   9.310 -0.0755  0.7591  0.7062
  560MOL0     H75552   8.766   3.888   9.542 -2.0675  0.2945  0.8200
  560MOL0     H75553   8.705   3.735   9.591 -0.8718 -1.0404 -1.2082
  560MOL0     H75554   8.939   3.724   9.403  2.2783 -0.9409  1.2239
  560MOL0     H75555   8.953   3.736   9.575 -2.7869  0.1575  2.2228
  560MOL0     H75556   8.776   3.531   9.427 -1.2848 -0.0441  1.8819
  560MOL0     H75557   8.829   3.512   9.599  0.0968 -0.6747 -0.3977
  560MOL0     H75558   9.011   3.523   9.365 -0.8979  0.4045 -0.8697
  560MOL0     H75559   8.974   3.372   9.460 -0.7781 -0.1866 -1.8112
  560MOL0     H75560   9.267   3.548   9.732  0.6604 -0.1316 -0.5108
  560MOL0     H75561   9.495   3.475   9.739 -1.2027 -0.4439  1.3201
  560MOL0     H75562   9.746   2.984   9.466 -0.1915  0.7903  0.8342
  560MOL0     H75563   9.963   2.874   9.526 -0.4976  0.1485  0.2129
  560MOL0     H75564  10.262   3.112   9.688  1.1548 -0.4791  1.8486
  560MOL0     H75565  10.202   2.946   9.715 -2.2726  0.2816 -1.7768
  560MOL0     H75566  10.400   2.849   9.609  2.8047  0.1790 -0.1397
  560MOL0     H75567  10.421   2.989   9.510 -2.9206 -0.6209 -0.8016
  560MOL0     H75568  10.504   3.111   9.709  3.0042 -0.3295 -0.0870
  560MOL0     H75569  10.473   2.970   9.812  0.8950 -1.3598  0.4949
  560MOL0     H75570  10.672   3.012   9.589  2.3281 -2.3429 -0.4078
  560MOL0     H75571  10.632   2.855   9.640 -2.2151 -0.2167 -3.4331
  560MOL0     H75572  10.693   3.011   9.894  0.0301  0.2502  1.1151
  560MOL0     H75573  10.790   3.088   9.763  1.0130 -1.1641  1.8329
  560MOL0     H75574  10.788   2.796   9.856  1.6843  0.8650  2.6618
  560MOL0     H75575  10.863   2.842   9.707 -0.0195 -2.3301  1.2879
  560MOL0     H75576  10.919   2.971   9.981  0.2926  0.2709  0.1074
  560MOL0     H75577  11.004   2.998   9.822 -3.3445  1.8254  0.5288
  560MOL0     H75578  11.144   2.846   9.961  0.4461 -2.2051 -0.1855
  560MOL0     H75579  11.000   2.776  10.035 -0.4375  0.4180 -0.0235
  560MOL0     H75580  10.160   3.254   9.497  1.3897  0.4594  1.9210
  560MOL0     H75581   9.921   3.369   9.479 -1.9717 -0.0482 -0.7545
  560MOL0     H75582   9.425   3.265   9.361 -2.7324 -0.2190 -2.2028
  560MOL0     H75583   9.195   3.350   9.365  0.7644 -0.2188 -0.6670
  560MOL0     H75584   7.772   4.524   9.202 -0.0496  1.7764  0.5496
  560MOL0     H75585   7.527   4.553   9.270 -0.8494 -1.8438 -1.0089
  560MOL0     H75586   7.131   4.393   9.408  1.7723  0.9511 -2.2866
  560MOL0     H75587   6.893   4.436   9.486 -2.0595 -1.1264 -1.3659
  560MOL0     H75588   6.637   4.388   9.362 -0.0279 -1.6254 -1.7657
  560MOL0     H75589   6.684   4.443   9.206 -3.1577 -1.0485 -0.1627
  560MOL0     H75590   6.446   4.495   9.194  0.7303 -1.5152 -0.2539
  560MOL0     H75591   6.523   4.647   9.247 -1.4619 -1.1000 -0.5395
  560MOL0     H75592   6.355   4.646   9.397 -1.1780 -0.9999  0.2612
  560MOL0     H75593   6.487   4.583   9.484  0.4091  0.9842 -0.8877
  560MOL0     H75594   6.248   4.445   9.347 -0.0840  0.7160 -0.2450
  560MOL0     H75595   6.362   4.346   9.439 -2.0892 -0.1059  0.0676
  560MOL0     H75596   6.130   4.515   9.738  0.0170  0.2094  0.9036
  560MOL0     H75597   6.831   4.683   9.148 -2.1534  0.7268  3.4291
  560MOL0     H75598   7.126   4.610   8.964 -0.1119 -2.5195  1.8142
  560MOL0     H75599   6.998   4.731   8.980  2.4560  3.3629  0.2684
  560MOL0     H75600   7.145   4.751   9.073  1.6409 -2.3231  0.0525
  561MOL0     O75601   8.156   0.924   5.820  0.5638  0.1779 -0.1272
  561MOL0     C75602   8.142   1.044   5.802 -0.5831 -0.6067 -0.0148
  561MOL0     O75603   8.247   1.132   5.766 -0.1642 -0.0805  0.2771
  561MOL0     C75604   8.376   1.093   5.747  0.0708  0.5939  0.6651
  561MOL0     C75605   8.461   1.202   5.744 -0.4518 -0.6928  0.5671
  561MOL0     C75606   8.597   1.181   5.727  0.7163 -0.3266  0.1940
  561MOL0     C75607   8.651   1.055   5.713 -0.0090 -0.0066 -0.6532
  561MOL0     O75608   8.788   1.042   5.720 -0.3868  0.4321  0.3074
  561MOL0     C75609   8.837   0.964   5.611  0.1928  0.2711 -0.1974
  561MOL0     C75610   8.987   1.004   5.589 -0.7973 -0.5440 -0.5985
  561MOL0     C75611   9.081   0.975   5.713 -0.0083 -0.1573  1.0446
  561MOL0     C75612   9.214   1.043   5.701 -0.1692  0.7842  0.0026
  561MOL0     C75613   9.324   1.005   5.808  0.0215  0.4830  0.1216
  561MOL0     C75614   9.462   1.073   5.775  0.0956  0.2272 -0.8415
  561MOL0     C75615   9.588   1.002   5.836 -0.1716 -0.3222  0.7671
  561MOL0     C75616   9.710   1.090   5.812 -0.0357  0.4097 -0.2768
  561MOL0     N75617   9.831   1.021   5.827 -0.2850  0.1473 -0.4155
  561MOL0     C75618   9.882   0.933   5.734 -0.6430  0.4809 -0.2160
  561MOL0     C75619  10.017   0.932   5.762  0.6421  0.1939 -0.3446
  561MOL0     C75620  10.119   0.881   5.660  0.4860 -0.5763 -0.1116
  561MOL0     C75621  10.267   0.932   5.686  0.4028 -0.0872 -0.3071
  561MOL0     C75622  10.368   0.882   5.583  0.3099 -0.2067  0.1291
  561MOL0     C75623  10.492   0.967   5.586  0.1225 -0.2209 -0.2705
  561MOL0     O75624  10.581   0.903   5.500 -0.5184 -0.7758  0.1114
  561MOL0     C75625  10.712   0.951   5.477 -0.3967  0.2328  1.0785
  561MOL0     C75626  10.767   1.073   5.526 -0.0045  1.4430  0.3127
  561MOL0     C75627  10.898   1.100   5.513  0.0090 -1.0098 -0.1078
  561MOL0     C75628  10.985   1.016   5.442  0.4797  0.0179  0.7645
  561MOL0     C75629  11.129   1.056   5.427  0.8562  0.8925  1.1894
  561MOL0     O75630  11.199   0.974   5.339  0.1739 -0.3811 -0.6766
  561MOL0     C75631  11.321   1.016   5.307 -1.3211  0.7623  1.0955
  561MOL0     C75632  11.348   1.149   5.265 -0.1251  0.4426  0.3186
  561MOL0     C75633  11.473   1.177   5.209  0.0138 -0.0904  0.6922
  561MOL0     C75634  11.576   1.086   5.203  0.2254  0.5410  0.1476
  561MOL0     O75635  11.702   1.128   5.165  0.1209  0.0039 -0.2468
  561MOL0     C75636  11.803   1.045   5.110  0.1785  0.2599 -0.8207
  561MOL0     C75637  11.893   1.148   5.036 -0.0701 -0.2762 -0.3376
  561MOL0     C75638  11.978   1.204   5.148 -0.9886 -0.7976 -0.2381
  561MOL0     C75639  12.115   1.265   5.101 -0.6440  0.3871 -0.5691
  561MOL0     C75640  12.088   1.381   5.001 -0.2323 -0.5859 -0.0262
  561MOL0     C75641  12.227   1.439   4.965 -0.6767 -0.0504 -0.3406
  561MOL0     C75642  12.286   1.358   4.846 -0.1944 -0.1291 -0.0582
  561MOL0     C75643  12.419   1.422   4.794 -0.4762 -0.4542 -0.8890
  561MOL0    Cl75644  12.397   1.591   4.722 -0.3576  0.2586  0.1941
  561MOL0     C75645  11.554   0.954   5.248 -0.2208 -0.1432 -0.9477
  561MOL0     C75646  11.422   0.917   5.300 -0.9791  0.5307 -0.2141
  561MOL0     O75647  11.178   1.135   5.508  0.7279  0.5479  0.4300
  561MOL0     C75648  10.929   0.900   5.379 -0.1631 -0.0442 -0.1897
  561MOL0     C75649  10.795   0.859   5.408 -1.1115 -0.9718 -0.2712
  561MOL0     N75650  10.034   0.996   5.887 -0.3823 -0.1336  0.1883
  561MOL0     N75651   9.921   1.043   5.926  0.4736  0.3723  0.0155
  561MOL0     C75652   8.564   0.945   5.711 -0.7112  0.0275  0.3884
  561MOL0     C75653   8.423   0.963   5.717 -0.0049 -0.3738  0.6015
  561MOL0     C75654   8.005   1.104   5.808  0.6223 -0.3240  0.1869
  561MOL0     C75655   7.990   1.240   5.765 -0.5435 -0.3622  0.8349
  561MOL0     C75656   7.865   1.310   5.772  0.5607  0.2606  0.2576
  561MOL0     C75657   7.752   1.242   5.815 -0.0725 -0.1016 -0.0209
  561MOL0     O75658   7.643   1.316   5.852  0.0533  0.4061  0.5357
  561MOL0     C75659   7.614   1.327   5.989  0.7780 -0.7980  0.2155
  561MOL0     C75660   7.450   1.346   6.012 -0.2341 -0.0423 -0.0714
  561MOL0     C75661   7.371   1.218   5.983  0.8422  0.2555 -1.1109
  561MOL0     C75662   7.357   1.118   6.106 -0.6087 -0.0069  0.8580
  561MOL0     C75663   7.486   1.059   6.138  0.0841  0.2397 -1.3354
  561MOL0     C75664   7.578   0.998   6.192  0.5465 -0.4585  0.7732
  561MOL0     C75665   7.771   1.115   5.865 -0.5483 -0.5299 -0.3611
  561MOL0     C75666   7.893   1.045   5.860 -0.0322 -0.2985 -0.3773
  561MOL0     C75667   7.887   0.908   5.931 -0.5164 -0.0240  0.0562
  561MOL0     H75668   8.423   1.303   5.757 -2.1109 -1.2183  0.0585
  561MOL0     H75669   8.667   1.263   5.715  0.0032  1.0103  3.7201
  561MOL0     H75670   8.840   0.857   5.633 -1.0008  0.3320  0.3349
  561MOL0     H75671   8.781   0.973   5.518 -0.7809  2.7198  0.5642
  561MOL0     H75672   8.998   1.108   5.556  0.8252  0.3766  2.4675
  561MOL0     H75673   9.021   0.943   5.505  0.9685 -1.8122  0.9494
  561MOL0     H75674   9.088   0.867   5.723  1.4865 -0.1656  0.2253
  561MOL0     H75675   9.057   1.020   5.810  2.3452  0.9881  1.1727
  561MOL0     H75676   9.249   1.005   5.604 -0.9045 -0.3271  0.1631
  561MOL0     H75677   9.198   1.151   5.692 -2.9035  0.4538  0.1415
  561MOL0     H75678   9.285   1.033   5.906 -1.9536  0.8436 -0.7148
  561MOL0     H75679   9.326   0.896   5.797  0.3576  0.5093 -0.1105
  561MOL0     H75680   9.475   1.070   5.667 -0.9332  0.7045 -0.9863
  561MOL0     H75681   9.461   1.176   5.813 -0.4683 -0.5208  1.3585
  561MOL0     H75682   9.592   0.902   5.792  1.7208 -0.4277  1.0645
  561MOL0     H75683   9.565   0.990   5.942 -0.4134 -0.2801  0.7186
  561MOL0     H75684   9.706   1.124   5.708 -0.8591  1.4729  0.0778
  561MOL0     H75685   9.695   1.177   5.877  0.7022  0.3745 -0.0503
  561MOL0     H75686   9.826   0.882   5.656  1.8591  2.2048 -3.3536
  561MOL0     H75687  10.132   0.773   5.652  3.2302 -0.4204  0.9498
  561MOL0     H75688  10.080   0.932   5.571 -0.2665 -0.5192  0.2459
  561MOL0     H75689  10.258   1.041   5.690  1.0441 -0.0569  1.0464
  561MOL0     H75690  10.301   0.899   5.785 -1.0365  1.1537  0.6518
  561MOL0     H75691  10.320   0.892   5.485  0.4354 -0.4429  0.0427
  561MOL0     H75692  10.394   0.779   5.608  1.4405 -0.5349 -2.1323
  561MOL0     H75693  10.541   0.979   5.683  2.5053  0.3688 -1.4823
  561MOL0     H75694  10.475   1.072   5.560  1.8804  0.9554  2.7400
  561MOL0     H75695  10.712   1.149   5.581 -0.2109  0.1525  1.9860
  561MOL0     H75696  10.935   1.182   5.574 -2.7093 -2.3724  3.8060
  561MOL0     H75697  11.274   1.228   5.261 -0.4847  0.1740  1.4121
  561MOL0     H75698  11.491   1.274   5.165 -0.1226  0.5236  1.9394
  561MOL0     H75699  11.852   0.989   5.190 -1.2520  0.4230  0.2220
  561MOL0     H75700  11.766   0.969   5.041  0.9420 -1.5094  0.6147
  561MOL0     H75701  11.949   1.109   4.950 -1.2611  1.8384 -2.1721
  561MOL0     H75702  11.839   1.233   4.993 -0.1875 -0.4635 -0.5626
  561MOL0     H75703  11.912   1.281   5.188  0.2633  1.3591 -2.0429
  561MOL0     H75704  12.006   1.135   5.228 -4.9478  0.8794  2.8977
  561MOL0     H75705  12.183   1.188   5.063 -1.5731 -0.0753 -1.3348
  561MOL0     H75706  12.162   1.311   5.189  2.4086 -0.7885 -1.4458
  561MOL0     H75707  12.018   1.457   5.036  0.4687  0.1611 -0.2268
  561MOL0     H75708  12.038   1.337   4.914 -2.2685 -1.5082  1.5303
  561MOL0     H75709  12.213   1.545   4.942 -1.0719 -0.7752 -4.1055
  561MOL0     H75710  12.306   1.432   5.040  2.5342 -2.5634 -3.5693
  561MOL0     H75711  12.213   1.343   4.765 -1.6699  0.7330  1.0671
  561MOL0     H75712  12.315   1.256   4.870 -2.1081 -0.5040  0.8353
  561MOL0     H75713  12.488   1.420   4.879 -3.4075  1.2846  1.7113
  561MOL0     H75714  12.445   1.356   4.710 -2.3755  1.2639 -2.9567
  561MOL0     H75715  11.637   0.885   5.262  2.3626  2.7587 -0.8005
  561MOL0     H75716  11.410   0.809   5.312 -2.4586  0.5552 -1.2636
  561MOL0     H75717  10.980   0.831   5.312 -0.1056  1.5596 -1.8932
  561MOL0     H75718  10.768   0.759   5.374 -0.7152 -1.6867  1.3752
  561MOL0     H75719   8.609   0.846   5.713  0.1102  0.3090  4.7573
  561MOL0     H75720   8.361   0.875   5.705  1.7082 -1.5246 -0.2996
  561MOL0     H75721   8.077   1.295   5.731 -1.1601  0.5666  0.7255
  561MOL0     H75722   7.870   1.414   5.743  1.4802  0.0278 -0.4948
  561MOL0     H75723   7.661   1.420   6.022 -2.9427  2.5799 -2.8884
  561MOL0     H75724   7.646   1.239   6.045 -0.7616  0.4002  3.2078
  561MOL0     H75725   7.417   1.422   5.941 -2.3235 -1.7586 -1.0159
  561MOL0     H75726   7.436   1.380   6.115 -1.9863 -0.3281 -0.2003
  561MOL0     H75727   7.413   1.161   5.900 -1.1013  1.4430 -3.0304
  561MOL0     H75728   7.273   1.248   5.944 -0.6236 -0.9333  1.4065
  561MOL0     H75729   7.324   1.167   6.198 -1.0319  0.8706  0.2529
  561MOL0     H75730   7.299   1.031   6.074 -0.4388  0.1878 -0.0064
  561MOL0     H75731   7.653   0.962   6.259  0.9283 -0.2732  0.4525
  561MOL0     H75732   7.685   1.065   5.908  0.7284 -1.9466  0.6849
  561MOL0     H75733   7.908   0.827   5.861 -3.1258 -0.3295 -0.4655
  561MOL0     H75734   7.958   0.907   6.015 -0.7491  2.0750  0.3250
  561MOL0     H75735   7.791   0.894   5.981  1.2104  3.6888  5.2571
  562MOL0     O75736   4.769  10.484   7.629 -0.2507  0.8227 -0.1057
  562MOL0     C75737   4.715  10.578   7.569 -0.6263 -0.1283 -0.4616
  562MOL0     O75738   4.761  10.704   7.561  0.8289 -0.3461  0.3964
  562MOL0     C75739   4.865  10.757   7.640  0.7291 -0.8158 -0.2078
  562MOL0     C75740   4.911  10.884   7.610 -0.1430  0.1712  0.6637
  562MOL0     C75741   5.019  10.938   7.682  0.5342 -0.0551 -0.5216
  562MOL0     C75742   5.073  10.875   7.792 -0.2103 -0.2103  0.6547
  562MOL0     O75743   5.176  10.920   7.865  0.7729 -0.3952 -0.5436
  562MOL0     C75744   5.276  11.000   7.799  0.0469  0.7730  0.9491
  562MOL0     C75745   5.416  10.980   7.868  0.3568 -0.0955  0.3815
  562MOL0     C75746   5.471  10.838   7.879  0.4942  0.0041 -0.1232
  562MOL0     C75747   5.613  10.836   7.925  0.8882 -0.3031  0.3760
  562MOL0     C75748   5.705  10.911   7.826 -0.3882 -0.2678 -0.5623
  562MOL0     C75749   5.849  10.865   7.836 -0.5867  0.0067  0.0977
  562MOL0     C75750   5.954  10.969   7.791  0.6861 -0.2305  0.1061
  562MOL0     C75751   6.092  10.910   7.787 -0.3258 -0.9064  0.5441
  562MOL0     N75752   6.170  11.001   7.705 -0.2453  0.0242  0.3344
  562MOL0     C75753   6.283  10.956   7.632 -0.6439  0.2286 -1.1500
  562MOL0     C75754   6.344  11.071   7.587  0.1813  0.8271 -0.3880
  562MOL0     C75755   6.469  11.062   7.498  0.1220 -0.0695 -0.0692
  562MOL0     C75756   6.585  10.993   7.568  0.1326  0.5879  1.0123
  562MOL0     C75757   6.633  11.062   7.691 -0.0015 -1.0333 -0.4256
  562MOL0     C75758   6.716  10.963   7.783  0.3968  0.0228  0.1921
  562MOL0     O75759   6.838  11.034   7.825  0.1617 -0.0958  0.2301
  562MOL0     C75760   6.945  10.993   7.743 -1.2231  0.5818 -0.0838
  562MOL0     C75761   7.003  11.075   7.643  0.1268 -0.3126  0.7588
  562MOL0     C75762   7.093  11.027   7.556 -0.5473 -1.1039  0.3794
  562MOL0     C75763   7.154  10.905   7.576 -0.1397 -0.3038 -0.0537
  562MOL0     C75764   7.263  10.858   7.487  0.5330  0.2545  0.3499
  562MOL0     O75765   7.326  10.962   7.410  0.6427  0.1064 -0.5498
  562MOL0     C75766   7.450  10.926   7.356 -0.0390 -0.2536 -0.3450
  562MOL0     C75767   7.561  10.894   7.432 -0.0675 -0.9721 -0.2737
  562MOL0     C75768   7.674  10.866   7.368 -0.8355 -0.2424 -0.4767
  562MOL0     C75769   7.684  10.874   7.229  0.5610 -0.2630 -0.2219
  562MOL0     O75770   7.808  10.841   7.177  0.4491  0.2263  0.2336
  562MOL0     C75771   7.810  10.790   7.043 -0.2435 -0.2974  0.0392
  562MOL0     C75772   7.944  10.728   7.005  1.0030  0.5610 -0.2560
  562MOL0     C75773   7.966  10.707   6.855  0.2025 -0.7431  0.4455
  562MOL0     C75774   8.111  10.661   6.851  0.6640 -0.1856 -0.0580
  562MOL0     C75775   8.159  10.640   6.704  0.1426  0.2236 -0.4802
  562MOL0     C75776   8.311  10.622   6.697 -0.4597  0.4650  0.1510
  562MOL0     C75777   8.388  10.761   6.697  0.4531 -0.1371 -0.3233
  562MOL0     C75778   8.537  10.731   6.683 -0.6953 -0.4790  0.1522
  562MOL0    Cl75779   8.599  10.639   6.824 -0.5157 -0.2331 -0.4830
  562MOL0     C75780   7.577  10.915   7.150 -0.0907  0.2785  0.7554
  562MOL0     C75781   7.453  10.930   7.213  0.3491 -0.4219 -0.1083
  562MOL0     O75782   7.290  10.739   7.491 -0.1967 -0.0512 -0.1678
  562MOL0     C75783   7.099  10.818   7.674  0.1987  0.9348 -0.1842
  562MOL0     C75784   7.001  10.863   7.760 -0.1537 -0.0032  0.2349
  562MOL0     N75785   6.273  11.177   7.642  0.1054 -0.2548 -0.2429
  562MOL0     N75786   6.166  11.142   7.701  0.3196  0.5795 -0.1975
  562MOL0     C75787   5.023  10.748   7.819  0.5726 -0.3535 -0.0782
  562MOL0     C75788   4.916  10.697   7.745 -0.4933  0.1145  0.1316
  562MOL0     C75789   4.586  10.551   7.497 -0.1540 -0.0802  0.0891
  562MOL0     C75790   4.554  10.635   7.381  0.2130  0.0735 -0.2442
  562MOL0     C75791   4.432  10.627   7.313  0.2209  0.0318  0.0927
  562MOL0     C75792   4.339  10.525   7.352  0.4207 -0.2731 -0.6061
  562MOL0     O75793   4.214  10.511   7.292 -0.2410 -0.3385 -0.8766
  562MOL0     C75794   4.171  10.604   7.196 -0.0517 -0.2587 -0.0660
  562MOL0     C75795   4.049  10.539   7.156 -0.9097 -0.5249 -0.2123
  562MOL0     C75796   4.049  10.391   7.108 -0.2444  0.0627  0.3296
  562MOL0     C75797   3.908  10.342   7.059 -0.3998 -0.5556 -0.1486
  562MOL0     C75798   3.906  10.199   7.027  0.4301  0.3008 -0.8247
  562MOL0     C75799   3.915  10.081   6.989  1.1449 -0.5060 -0.6312
  562MOL0     C75800   4.374  10.433   7.458 -0.0160  0.3320  0.7313
  562MOL0     C75801   4.497  10.436   7.521  0.0859  0.1291  0.2509
  562MOL0     C75802   4.525  10.330   7.627 -0.6228 -0.0934  0.3421
  562MOL0     H75803   4.871  10.935   7.523 -0.8361 -1.0820  0.2266
  562MOL0     H75804   5.057  11.038   7.660  1.2853  0.6041  3.0823
  562MOL0     H75805   5.283  10.964   7.696 -0.3193  3.3223 -0.0246
  562MOL0     H75806   5.243  11.104   7.800 -0.2809  0.6731  0.5933
  562MOL0     H75807   5.414  11.033   7.964 -2.2640 -0.2167  0.4457
  562MOL0     H75808   5.493  11.037   7.815  1.2099  1.3702  2.9776
  562MOL0     H75809   5.478  10.791   7.781 -3.9549 -2.8396  0.6253
  562MOL0     H75810   5.407  10.778   7.944 -1.0294  0.2166 -1.3578
  562MOL0     H75811   5.631  10.884   8.022 -0.6832  2.6423 -0.6668
  562MOL0     H75812   5.632  10.728   7.932 -2.2813 -0.9786  0.0101
  562MOL0     H75813   5.674  10.888   7.724 -1.3085  0.1483 -0.3848
  562MOL0     H75814   5.681  11.017   7.838  1.8654  0.3353 -0.9346
  562MOL0     H75815   5.878  10.830   7.936 -1.6586 -1.6060 -0.1095
  562MOL0     H75816   5.859  10.771   7.780  0.3483 -0.0257  0.3081
  562MOL0     H75817   5.955  11.064   7.845  1.7823  1.6107 -2.8850
  562MOL0     H75818   5.917  10.995   7.692 -2.5253  0.7912  1.4618
  562MOL0     H75819   6.130  10.903   7.889 -1.4621  0.7469  1.1176
  562MOL0     H75820   6.080  10.812   7.740  1.2430 -0.6792 -0.3937
  562MOL0     H75821   6.304  10.852   7.609 -2.4502  0.0488 -2.1990
  562MOL0     H75822   6.449  11.014   7.402 -0.3430 -0.3424  0.1603
  562MOL0     H75823   6.488  11.163   7.459 -2.3860  0.3880 -0.2425
  562MOL0     H75824   6.570  10.887   7.591  1.2623  0.0746 -0.4357
  562MOL0     H75825   6.663  10.985   7.491 -0.8135 -1.0355  0.1797
  562MOL0     H75826   6.547  11.089   7.754 -0.1486 -1.9954 -0.2043
  562MOL0     H75827   6.681  11.160   7.680 -1.4718  0.0212  1.7209
  562MOL0     H75828   6.739  10.875   7.724  0.1603  0.7437 -1.0022
  562MOL0     H75829   6.666  10.932   7.875 -0.6663 -0.9734 -0.6957
  562MOL0     H75830   6.966  11.177   7.641  0.9689  0.0541  2.2576
  562MOL0     H75831   7.138  11.095   7.485 -2.1020  2.2241  2.3315
  562MOL0     H75832   7.546  10.908   7.538  3.4496  1.2433  0.1140
  562MOL0     H75833   7.754  10.832   7.433 -0.4579  2.5492  0.6541
  562MOL0     H75834   7.726  10.721   7.028 -1.5788  1.8244 -3.3667
  562MOL0     H75835   7.786  10.873   6.977  0.9009  1.5361  1.7846
  562MOL0     H75836   8.018  10.804   7.034  0.1073  1.6224 -0.6567
  562MOL0     H75837   7.963  10.635   7.058  0.3881  0.7104  0.2461
  562MOL0     H75838   7.912  10.620   6.817 -2.5956  1.4138 -0.9608
  562MOL0     H75839   7.948  10.797   6.795 -0.4122  0.6356  2.5736
  562MOL0     H75840   8.117  10.566   6.906 -2.3794 -0.6777 -0.3937
  562MOL0     H75841   8.181  10.731   6.896  1.1928 -0.0983 -1.0000
  562MOL0     H75842   8.146  10.728   6.640  3.4763  1.7115  0.6613
  562MOL0     H75843   8.089  10.573   6.652 -0.5630  1.5318 -1.2837
  562MOL0     H75844   8.351  10.555   6.773  1.6593  2.1108  0.5595
  562MOL0     H75845   8.335  10.573   6.602 -0.2800 -1.0549  0.9603
  562MOL0     H75846   8.378  10.811   6.794 -0.2065 -2.3998  0.8575
  562MOL0     H75847   8.357  10.831   6.619  2.8961  0.9996 -0.3860
  562MOL0     H75848   8.554  10.679   6.588  0.1642  0.4366 -0.2259
  562MOL0     H75849   8.592  10.825   6.667 -0.2375 -0.7803 -0.0733
  562MOL0     H75850   7.580  10.917   7.042 -0.1414  1.3315  0.7613
  562MOL0     H75851   7.367  10.962   7.155 -1.0221  0.5854  2.3054
  562MOL0     H75852   7.160  10.734   7.706  1.1131  1.3273 -0.8375
  562MOL0     H75853   6.992  10.820   7.859  0.1909  0.1176  0.3194
  562MOL0     H75854   5.063  10.695   7.905 -0.6092 -1.4162 -0.1531
  562MOL0     H75855   4.877  10.601   7.779 -0.6019  0.4130  0.8691
  562MOL0     H75856   4.630  10.700   7.339 -0.7837  0.1802 -1.9314
  562MOL0     H75857   4.406  10.691   7.229  1.0053 -0.0649 -0.2295
  562MOL0     H75858   4.239  10.628   7.114 -1.8929  0.0784 -1.5633
  562MOL0     H75859   4.141  10.700   7.239 -1.0496  0.5328 -2.3582
  562MOL0     H75860   4.005  10.601   7.078 -1.2117 -0.6645 -0.1541
  562MOL0     H75861   3.984  10.543   7.244 -0.7534 -1.3781 -0.0423
  562MOL0     H75862   4.074  10.320   7.187  0.8447  1.3262  1.1583
  562MOL0     H75863   4.122  10.386   7.027 -0.0263  0.9299  0.4608
  562MOL0     H75864   3.823  10.364   7.123 -1.5829 -0.1126 -1.8028
  562MOL0     H75865   3.892  10.389   6.961  2.3497 -2.1834 -1.5161
  562MOL0     H75866   3.941   9.981   6.960 -0.5225 -1.8150  1.9626
  562MOL0     H75867   4.305  10.350   7.468 -0.2085  0.4654  0.5252
  562MOL0     H75868   4.604  10.267   7.586 -0.0049  0.5260  0.5608
  562MOL0     H75869   4.559  10.386   7.715 -3.7598  1.9753  0.3675
  562MOL0     H75870   4.433  10.273   7.642 -1.5440  1.5154  1.0814
  563MOL0     O75871   6.237   8.492   0.797  0.3514 -0.2285  0.1154
  563MOL0     C75872   6.157   8.409   0.843  0.0853 -0.5969  0.0086
  563MOL0     O75873   6.179   8.333   0.949  0.0708 -0.1357 -0.3369
  563MOL0     C75874   6.288   8.352   1.038 -0.1199 -0.8006  0.2385
  563MOL0     C75875   6.341   8.473   1.069 -0.0787 -0.6212  0.4866
  563MOL0     C75876   6.443   8.479   1.161 -0.9775  0.2647  0.0507
  563MOL0     C75877   6.500   8.365   1.210 -0.0090 -0.1486 -0.6239
  563MOL0     O75878   6.598   8.379   1.304 -0.4053  0.2658 -0.1955
  563MOL0     C75879   6.654   8.262   1.371 -0.2624  0.1770 -0.0760
  563MOL0     C75880   6.763   8.309   1.482  0.4364 -0.0846 -0.3186
  563MOL0     C75881   6.899   8.354   1.417 -0.0307  0.3370 -0.4835
  563MOL0     C75882   7.010   8.363   1.523  0.4112 -0.7195 -0.4174
  563MOL0     C75883   6.976   8.440   1.648 -0.2541 -0.5873  1.3555
  563MOL0     C75884   6.959   8.585   1.609  0.5127 -0.7054  0.7643
  563MOL0     C75885   6.909   8.667   1.726 -0.6191 -0.1893  0.2505
  563MOL0     C75886   6.867   8.805   1.675 -0.0146 -1.2094  0.2943
  563MOL0     N75887   6.859   8.900   1.792  0.6444  0.1666 -0.3442
  563MOL0     C75888   6.955   8.984   1.839 -0.9051 -0.0409 -0.2163
  563MOL0     C75889   6.887   9.035   1.948 -0.4316 -0.5400  0.4158
  563MOL0     C75890   6.944   9.144   2.038 -0.3775 -0.3484 -0.1825
  563MOL0     C75891   7.063   9.113   2.140 -0.8952  0.8769 -0.3731
  563MOL0     C75892   7.199   9.071   2.091  0.2772 -0.3687 -0.7755
  563MOL0     C75893   7.265   9.165   1.989  0.4624 -0.0798  0.1583
  563MOL0     O75894   7.215   9.150   1.860  0.1268 -0.7309  0.0323
  563MOL0     C75895   7.234   9.252   1.773 -0.3101  0.2828  0.7631
  563MOL0     C75896   7.159   9.363   1.782  0.1014 -0.7822  0.2021
  563MOL0     C75897   7.195   9.470   1.699 -1.1647  0.9116 -0.0830
  563MOL0     C75898   7.300   9.460   1.614 -0.3289 -0.2323 -0.2631
  563MOL0     C75899   7.342   9.584   1.550 -0.5942 -0.8793  0.5311
  563MOL0     O75900   7.475   9.588   1.515  0.0964  0.8119 -0.0203
  563MOL0     C75901   7.538   9.693   1.445 -0.2049  0.6706 -0.6733
  563MOL0     C75902   7.492   9.820   1.419  0.1094  0.1902 -0.1677
  563MOL0     C75903   7.554   9.905   1.332 -0.7285  0.8571 -0.1106
  563MOL0     C75904   7.671   9.868   1.267 -0.6625 -0.3430 -0.7269
  563MOL0     O75905   7.716   9.963   1.181 -0.3540  0.5090  0.8647
  563MOL0     C75906   7.844   9.932   1.113  0.8838  0.2914 -0.1835
  563MOL0     C75907   7.888  10.054   1.035  0.1065 -0.1611 -0.2268
  563MOL0     C75908   8.019  10.010   0.963  0.1004 -0.0343 -0.5849
  563MOL0     C75909   8.102  10.132   0.914 -0.1220 -0.2376  0.0053
  563MOL0     C75910   8.241  10.099   0.872 -1.0068 -0.4581 -0.1651
  563MOL0     C75911   8.300  10.223   0.796 -0.3572  0.3937 -0.0789
  563MOL0     C75912   8.453  10.193   0.773  0.2263 -0.6854  0.3933
  563MOL0     C75913   8.495  10.188   0.621 -0.4916  1.1663 -0.2595
  563MOL0    Cl75914   8.424  10.329   0.537  0.2297 -0.2391 -0.1943
  563MOL0     C75915   7.731   9.749   1.306  0.9096  0.7501  0.7689
  563MOL0     C75916   7.661   9.665   1.395  0.0776 -0.1877 -0.3168
  563MOL0     O75917   7.264   9.677   1.538 -0.4395 -0.2372  0.1006
  563MOL0     C75918   7.362   9.339   1.599 -0.3162 -0.6830 -0.2628
  563MOL0     C75919   7.324   9.224   1.671 -0.3298 -0.7186  0.8056
  563MOL0     N75920   6.758   8.985   1.961  0.0201  0.2617  0.1694
  563MOL0     N75921   6.740   8.910   1.861  0.1351 -0.8449  0.2958
  563MOL0     C75922   6.450   8.243   1.171  0.5448  1.1878 -0.3569
  563MOL0     C75923   6.348   8.233   1.082 -0.1556 -0.4981  0.0752
  563MOL0     C75924   6.021   8.389   0.772 -0.7864  0.8278 -0.1615
  563MOL0     C75925   5.911   8.433   0.841  0.1182  0.8374 -0.1026
  563MOL0     C75926   5.790   8.442   0.773  0.0347 -0.1241  0.0538
  563MOL0     C75927   5.783   8.416   0.630 -0.7416  0.2466 -0.0524
  563MOL0     O75928   5.661   8.445   0.571 -1.5660 -0.1755 -0.1086
  563MOL0     C75929   5.649   8.420   0.436  0.3321 -0.3151  0.3097
  563MOL0     C75930   5.516   8.470   0.382  0.3825  0.1394 -0.4711
  563MOL0     C75931   5.478   8.606   0.424  0.5336 -0.4363 -0.3140
  563MOL0     C75932   5.356   8.659   0.345  0.1332 -0.1251 -0.3883
  563MOL0     C75933   5.236   8.582   0.368 -0.4948  0.1514 -0.1334
  563MOL0     C75934   5.139   8.504   0.392 -0.4676 -0.1764 -0.0569
  563MOL0     C75935   5.895   8.362   0.564  0.1175  0.7843  0.5310
  563MOL0     C75936   6.013   8.349   0.635 -1.1272 -0.8213 -0.3491
  563MOL0     C75937   6.128   8.266   0.590 -0.0436 -0.2020  1.1184
  563MOL0     H75938   6.286   8.560   1.034 -1.0248 -1.5128 -0.3246
  563MOL0     H75939   6.487   8.575   1.185 -1.7672  0.5331  0.4609
  563MOL0     H75940   6.569   8.225   1.429 -0.8353 -0.4870 -1.3249
  563MOL0     H75941   6.692   8.188   1.301  3.5552  2.5087 -0.7452
  563MOL0     H75942   6.785   8.224   1.547  0.6579 -1.7859 -2.4666
  563MOL0     H75943   6.714   8.393   1.532 -1.5739 -1.6118  0.4594
  563MOL0     H75944   6.888   8.446   1.359  1.7957  0.2595 -1.0152
  563MOL0     H75945   6.936   8.275   1.350 -0.5876  0.3553 -0.8140
  563MOL0     H75946   7.031   8.257   1.542  2.0753 -0.4358 -0.5156
  563MOL0     H75947   7.102   8.403   1.480  0.7719 -2.5965 -1.5082
  563MOL0     H75948   6.889   8.406   1.705 -1.3860  2.5212  1.7016
  563MOL0     H75949   7.061   8.423   1.715 -0.7895 -1.8796  1.7421
  563MOL0     H75950   7.053   8.627   1.570  0.1800 -1.5504 -1.0780
  563MOL0     H75951   6.886   8.602   1.528  1.5770 -2.3003 -0.5843
  563MOL0     H75952   6.990   8.676   1.799  0.1593 -1.1953 -0.4534
  563MOL0     H75953   6.829   8.620   1.784 -0.7188 -0.4473 -0.0940
  563MOL0     H75954   6.950   8.840   1.613  0.9766  2.1735  3.2429
  563MOL0     H75955   6.773   8.807   1.619  2.0549  1.1952 -3.4611
  563MOL0     H75956   7.054   9.003   1.801  0.0748  0.7430  2.4584
  563MOL0     H75957   6.970   9.228   1.973 -0.6845  0.2986  0.5195
  563MOL0     H75958   6.858   9.173   2.098  2.1627  1.3574  2.9933
  563MOL0     H75959   7.082   9.203   2.199 -0.8589 -1.0680  2.7819
  563MOL0     H75960   7.017   9.031   2.196 -2.2679  0.1056 -2.4899
  563MOL0     H75961   7.190   8.976   2.037 -0.4184 -0.6879 -0.1127
  563MOL0     H75962   7.265   9.061   2.178  0.1668  0.6190 -0.5652
  563MOL0     H75963   7.372   9.143   1.986  0.6937  0.6862  1.7320
  563MOL0     H75964   7.256   9.268   2.025 -0.4062 -0.7811  2.0564
  563MOL0     H75965   7.093   9.374   1.868 -0.3565 -1.8415  0.0095
  563MOL0     H75966   7.158   9.570   1.721 -0.7143  0.6937  1.8566
  563MOL0     H75967   7.404   9.863   1.465  0.4819 -1.9115  2.7772
  563MOL0     H75968   7.504   9.998   1.308 -2.9207 -0.7356 -2.2033
  563MOL0     H75969   7.913   9.901   1.192 -0.7816  0.6964  1.4932
  563MOL0     H75970   7.824   9.844   1.051  0.2655 -1.7335  2.7108
  563MOL0     H75971   7.811  10.089   0.965  1.1538 -0.8353 -1.7646
  563MOL0     H75972   7.911  10.142   1.096  2.1293 -1.1714  0.5492
  563MOL0     H75973   8.070   9.947   1.036  0.5773  1.3263  0.2868
  563MOL0     H75974   7.995   9.957   0.870  0.5071  0.5524 -1.0263
  563MOL0     H75975   8.112  10.203   0.996  0.6286  1.7992 -1.7456
  563MOL0     H75976   8.053  10.186   0.833  3.5235  1.0475 -1.5299
  563MOL0     H75977   8.240  10.010   0.807 -0.6591 -1.0911  0.6794
  563MOL0     H75978   8.300  10.076   0.961 -0.3100 -0.1156 -0.5288
  563MOL0     H75979   8.243  10.237   0.704 -1.8609 -2.6246  0.2617
  563MOL0     H75980   8.297  10.314   0.857 -0.8991  0.6823 -0.5305
  563MOL0     H75981   8.489  10.103   0.826  2.5502  1.3811  2.6086
  563MOL0     H75982   8.514  10.266   0.826  0.5681 -2.1739  2.1787
  563MOL0     H75983   8.604  10.182   0.612 -0.5960  1.2138 -1.8021
  563MOL0     H75984   8.463  10.094   0.576  1.7239 -0.2620  0.9608
  563MOL0     H75985   7.813   9.715   1.244  2.6278  3.7980  1.1731
  563MOL0     H75986   7.701   9.567   1.417  3.2953  0.8603 -1.0740
  563MOL0     H75987   7.445   9.331   1.529  1.2116  1.5995  1.1390
  563MOL0     H75988   7.379   9.131   1.671 -0.1775 -0.6395  1.8560
  563MOL0     H75989   6.489   8.150   1.213  1.1073  1.2748 -0.6730
  563MOL0     H75990   6.307   8.138   1.050 -0.6958 -0.3351  0.2679
  563MOL0     H75991   5.925   8.467   0.943  1.5607 -1.8833  0.7038
  563MOL0     H75992   5.704   8.495   0.812 -0.5018  1.6240 -3.1112
  563MOL0     H75993   5.655   8.312   0.419  0.0065 -0.3648  0.4896
  563MOL0     H75994   5.728   8.471   0.381 -0.2777 -0.7061 -0.9618
  563MOL0     H75995   5.434   8.401   0.406 -0.3503  0.7896 -1.0449
  563MOL0     H75996   5.510   8.465   0.273 -1.9102 -2.7290 -0.3522
  563MOL0     H75997   5.563   8.672   0.403 -1.4050  1.6196 -2.1366
  563MOL0     H75998   5.458   8.602   0.531  1.5753 -2.8806 -0.1315
  563MOL0     H75999   5.334   8.758   0.386  1.2257  0.7754 -1.8716
  563MOL0     H76000   5.384   8.678   0.241  0.2682  0.7582 -0.1957
  563MOL0     H76001   5.045   8.459   0.416 -0.5792  0.0956  0.0220
  563MOL0     H76002   5.901   8.334   0.459 -1.3898 -1.3022  0.9394
  563MOL0     H76003   6.225   8.284   0.637 -0.4486  2.0457  1.2374
  563MOL0     H76004   6.114   8.159   0.607  2.1718 -0.5743  0.8610
  563MOL0     H76005   6.141   8.273   0.481 -1.8619 -6.4151  0.1245
  564MOL0     O76006   0.337   6.162   1.723  0.5089 -0.8979  0.7573
  564MOL0     C76007   0.278   6.150   1.614  0.7880  0.4659  0.1555
  564MOL0     O76008   0.142   6.110   1.598 -0.6638 -0.2018 -0.4000
  564MOL0     C76009   0.057   6.127   1.702 -0.4482  0.0441  0.5093
  564MOL0     C76010  -0.049   6.031   1.721 -0.4876 -0.0503 -0.1227
  564MOL0     C76011  -0.130   6.052   1.836  0.1762 -0.4454 -0.3228
  564MOL0     C76012  -0.120   6.161   1.920  0.7099  0.5952  0.3427
  564MOL0     O76013  -0.209   6.168   2.027 -0.2647 -0.6700  0.2225
  564MOL0     C76014  -0.164   6.246   2.143  0.0726 -0.3172  1.2055
  564MOL0     C76015  -0.271   6.250   2.248 -0.3648 -0.0823  0.5714
  564MOL0     C76016  -0.227   6.338   2.369  0.5380  0.2872 -0.3370
  564MOL0     C76017  -0.360   6.378   2.439  0.6115  0.2469 -0.2291
  564MOL0     C76018  -0.333   6.503   2.531  0.8028  0.1509  0.9924
  564MOL0     C76019  -0.466   6.550   2.577  0.0435 -0.5018 -0.7503
  564MOL0     C76020  -0.470   6.664   2.684 -0.6726 -0.5110  0.0688
  564MOL0     C76021  -0.615   6.705   2.728 -0.1738  0.1636  0.0599
  564MOL0     N76022  -0.680   6.587   2.798  0.8138  0.0736 -0.1272
  564MOL0     C76023  -0.662   6.554   2.930 -0.4047 -0.9903 -0.3510
  564MOL0     C76024  -0.721   6.438   2.940 -0.1208  0.1874  0.0153
  564MOL0     C76025  -0.712   6.340   3.055  0.2158 -0.0007 -0.1138
  564MOL0     C76026  -0.755   6.408   3.193 -0.0752  0.3972 -0.4216
  564MOL0     C76027  -0.718   6.313   3.309 -0.8604 -0.5357 -0.4239
  564MOL0     C76028  -0.560   6.308   3.342  1.1593  0.5208  0.1249
  564MOL0     O76029  -0.518   6.426   3.399  0.3712  0.1526  0.0265
  564MOL0     C76030  -0.398   6.428   3.464  0.2918 -0.2889  0.6529
  564MOL0     C76031  -0.296   6.338   3.449 -0.4117  0.3587 -0.6014
  564MOL0     C76032  -0.183   6.344   3.530 -0.0850  0.7979 -0.8306
  564MOL0     C76033  -0.162   6.448   3.622  0.0857 -0.6450 -0.3722
  564MOL0     C76034  -0.050   6.462   3.717 -0.7419  0.1567  0.1698
  564MOL0     O76035  -0.048   6.574   3.806 -0.6274  0.1409 -0.6721
  564MOL0     C76036   0.059   6.604   3.887  0.0352 -0.9043 -0.1911
  564MOL0     C76037   0.184   6.552   3.882 -0.6697  0.0938 -0.7246
  564MOL0     C76038   0.295   6.614   3.946 -0.0559  0.2581 -0.6755
  564MOL0     C76039   0.273   6.717   4.039 -0.2636 -0.0578  0.2422
  564MOL0     O76040   0.391   6.757   4.116 -0.3854  0.4039  0.7496
  564MOL0     C76041   0.366   6.799   4.244 -0.5421 -0.7775 -0.4641
  564MOL0     C76042   0.481   6.851   4.321 -0.3432 -0.2971 -0.4383
  564MOL0     C76043   0.564   6.736   4.387 -0.3115 -0.1674  0.5436
  564MOL0     C76044   0.661   6.792   4.483  0.6521 -0.9751 -0.6583
  564MOL0     C76045   0.761   6.686   4.534 -0.1484  0.0463 -0.0862
  564MOL0     C76046   0.872   6.646   4.438  0.0693  0.2442 -0.0391
  564MOL0     C76047   0.976   6.577   4.525 -0.1628 -0.1088  0.4621
  564MOL0     C76048   1.102   6.542   4.443 -0.5722 -0.2704  0.0984
  564MOL0    Cl76049   1.071   6.415   4.326  0.2351  0.3959  0.1842
  564MOL0     C76050   0.139   6.768   4.056 -0.5992  0.6867  0.2381
  564MOL0     C76051   0.037   6.715   3.976  0.3189  0.2322  0.5904
  564MOL0     O76052   0.021   6.356   3.724 -0.1958 -0.3823  0.5542
  564MOL0     C76053  -0.262   6.550   3.629  0.1434  1.1493  0.5441
  564MOL0     C76054  -0.380   6.533   3.558 -0.4217  0.4672 -0.3722
  564MOL0     N76055  -0.768   6.402   2.818 -0.0943 -1.8089 -0.0319
  564MOL0     N76056  -0.747   6.491   2.733 -0.2251 -0.5835  0.2068
  564MOL0     C76057  -0.012   6.247   1.896  0.1280 -0.5813 -0.1962
  564MOL0     C76058   0.069   6.240   1.786  0.5018  0.9014  0.2536
  564MOL0     C76059   0.348   6.180   1.486  0.2491  0.5146 -0.6973
  564MOL0     C76060   0.346   6.082   1.387 -0.1645  0.7626  0.2163
  564MOL0     C76061   0.400   6.108   1.261  0.7857  0.5122 -0.1745
  564MOL0     C76062   0.447   6.239   1.232 -0.1924  0.1697 -0.1670
  564MOL0     O76063   0.494   6.286   1.106  0.6381 -0.0903  0.3633
  564MOL0     C76064   0.474   6.215   0.981  0.3935 -0.2428  0.5397
  564MOL0     C76065   0.555   6.286   0.867  0.8454 -0.1161  0.5749
  564MOL0     C76066   0.703   6.271   0.900  0.6462  0.1113 -0.0643
  564MOL0     C76067   0.802   6.330   0.794  0.0868 -0.3406  0.0814
  564MOL0     C76068   0.921   6.378   0.870 -0.9106 -0.1831  0.1303
  564MOL0     C76069   1.008   6.441   0.928 -0.1061 -0.9591  0.7427
  564MOL0     C76070   0.449   6.332   1.330  0.3993  0.2517  0.5919
  564MOL0     C76071   0.397   6.311   1.454  0.4095  0.1897 -0.3619
  564MOL0     C76072   0.401   6.415   1.556 -0.2885 -0.2180  0.7838
  564MOL0     H76073  -0.071   5.948   1.655  1.4814 -1.1799  0.5686
  564MOL0     H76074  -0.208   5.980   1.859  0.5705 -0.4437  1.1659
  564MOL0     H76075  -0.076   6.195   2.183  0.7501  1.1407  1.6425
  564MOL0     H76076  -0.147   6.348   2.108  1.8799 -0.7844  0.6494
  564MOL0     H76077  -0.294   6.150   2.286 -0.9256  0.1590  0.8891
  564MOL0     H76078  -0.364   6.289   2.205 -1.9790 -1.1574  2.8326
  564MOL0     H76079  -0.164   6.423   2.343  0.2557  0.8842  0.8226
  564MOL0     H76080  -0.173   6.266   2.432 -1.5098 -0.2416  0.9285
  564MOL0     H76081  -0.436   6.405   2.365 -1.1687  0.2704  1.5101
  564MOL0     H76082  -0.396   6.293   2.498  1.1311 -1.0260 -1.6897
  564MOL0     H76083  -0.269   6.478   2.616 -0.7843  1.4966  2.6696
  564MOL0     H76084  -0.290   6.589   2.477 -0.6478  0.3199  0.0738
  564MOL0     H76085  -0.530   6.575   2.492  0.0420 -1.0387 -0.9062
  564MOL0     H76086  -0.510   6.465   2.630 -0.4244 -0.1306 -0.5383
  564MOL0     H76087  -0.416   6.751   2.647  1.0974 -0.9515  1.4718
  564MOL0     H76088  -0.417   6.636   2.776  1.1836  2.8083  0.1405
  564MOL0     H76089  -0.604   6.789   2.797  0.8785 -0.3591  0.5555
  564MOL0     H76090  -0.668   6.728   2.635 -1.1967  0.3791  0.6797
  564MOL0     H76091  -0.607   6.608   3.006 -2.1653 -0.0350  0.2819
  564MOL0     H76092  -0.786   6.264   3.028  0.6217 -0.1358 -0.8494
  564MOL0     H76093  -0.615   6.291   3.063  0.0373 -0.7526 -1.9931
  564MOL0     H76094  -0.706   6.506   3.200 -0.7858  0.6968  0.4853
  564MOL0     H76095  -0.863   6.418   3.199 -0.3125 -2.1711  0.8140
  564MOL0     H76096  -0.755   6.212   3.290 -0.2498 -0.8685  0.1024
  564MOL0     H76097  -0.765   6.346   3.402  1.9185 -2.3310  1.7989
  564MOL0     H76098  -0.502   6.290   3.251 -0.7386  2.8707 -1.7127
  564MOL0     H76099  -0.547   6.233   3.420 -1.0382  2.4586  2.5886
  564MOL0     H76100  -0.293   6.258   3.376  1.3317 -4.0089  3.7108
  564MOL0     H76101  -0.108   6.266   3.520  1.8234  2.7475 -3.2914
  564MOL0     H76102   0.204   6.464   3.822 -0.7942 -1.3325  1.2387
  564MOL0     H76103   0.394   6.569   3.947 -0.4625 -0.7009 -1.2908
  564MOL0     H76104   0.310   6.892   4.229  0.7881  0.1066 -0.1439
  564MOL0     H76105   0.301   6.729   4.297 -0.8932 -0.9923 -1.1576
  564MOL0     H76106   0.544   6.918   4.262 -0.2730  3.1883  3.1945
  564MOL0     H76107   0.444   6.911   4.404 -0.0320  0.7659 -1.0526
  564MOL0     H76108   0.495   6.672   4.442 -0.3195 -0.1988  0.4968
  564MOL0     H76109   0.616   6.677   4.311  1.3335 -2.0172  2.9455
  564MOL0     H76110   0.599   6.827   4.566 -0.2781  0.0910 -1.7719
  564MOL0     H76111   0.719   6.877   4.448 -0.4964  0.3726  0.5845
  564MOL0     H76112   0.711   6.590   4.555 -1.8277  0.6103 -1.2789
  564MOL0     H76113   0.797   6.729   4.628 -2.3418  1.6387  0.1148
  564MOL0     H76114   0.835   6.582   4.358 -1.5414 -1.5355  2.0240
  564MOL0     H76115   0.915   6.733   4.388 -0.6184  0.3257 -0.5015
  564MOL0     H76116   0.941   6.482   4.566 -0.3380 -0.4906 -0.5318
  564MOL0     H76117   1.010   6.642   4.606  0.5815  1.7695 -1.2850
  564MOL0     H76118   1.131   6.634   4.392 -0.5168  0.2600  1.0691
  564MOL0     H76119   1.180   6.512   4.513 -1.7694 -3.2462  0.2983
  564MOL0     H76120   0.113   6.831   4.140 -2.7677  0.0498  0.1138
  564MOL0     H76121  -0.061   6.754   3.999  1.3260  3.1426  0.3043
  564MOL0     H76122  -0.260   6.636   3.695 -2.3103  2.0175 -0.4168
  564MOL0     H76123  -0.461   6.604   3.568 -1.2670 -0.4182 -0.7454
  564MOL0     H76124  -0.003   6.339   1.953 -3.3238  0.2472 -0.7915
  564MOL0     H76125   0.133   6.326   1.765 -1.2503  1.8097 -1.6934
  564MOL0     H76126   0.301   5.987   1.415  0.3054  0.3135 -0.5063
  564MOL0     H76127   0.398   6.039   1.178 -2.5662  2.2012 -1.7026
  564MOL0     H76128   0.368   6.212   0.954  0.2796 -2.2413  1.0255
  564MOL0     H76129   0.515   6.115   0.998 -0.8283 -0.6538  1.1726
  564MOL0     H76130   0.515   6.386   0.849  1.7271  0.4503  1.6638
  564MOL0     H76131   0.534   6.223   0.780 -0.2707 -0.0505  0.7797
  564MOL0     H76132   0.721   6.164   0.913 -1.7771 -0.0136  4.7999
  564MOL0     H76133   0.714   6.325   0.995 -1.9788  2.0364 -0.7335
  564MOL0     H76134   0.823   6.260   0.713  0.7720  1.3237 -1.2198
  564MOL0     H76135   0.758   6.422   0.756  1.3168  0.5742  0.7898
  564MOL0     H76136   1.081   6.502   0.978  0.6022 -0.3244 -0.9730
  564MOL0     H76137   0.483   6.433   1.312  0.6681 -0.1426 -1.2773
  564MOL0     H76138   0.487   6.403   1.623  0.8776 -2.5447 -0.9800
  564MOL0     H76139   0.417   6.515   1.514 -1.0394 -0.3872  0.0769
  564MOL0     H76140   0.306   6.413   1.610  0.0343  0.0198  1.3782
  565MOL0     O76141   5.864   9.730  11.041 -0.2622 -0.2996  0.0563
  565MOL0     C76142   5.821   9.838  11.015  0.2278  0.3805 -0.2782
  565MOL0     O76143   5.892   9.934  10.955 -1.0164  0.1442 -0.3279
  565MOL0     C76144   6.024   9.918  10.928 -0.0597 -0.3567  0.2852
  565MOL0     C76145   6.130   9.985  10.982  0.9375  0.0431  1.1033
  565MOL0     C76146   6.259   9.966  10.941 -0.8667 -0.2209  1.3619
  565MOL0     C76147   6.284   9.889  10.823  0.6324 -1.1899 -1.1983
  565MOL0     O76148   6.415   9.881  10.780  0.5495 -0.0855 -0.3828
  565MOL0     C76149   6.490   9.790  10.862  0.1075  0.3786 -0.0420
  565MOL0     C76150   6.449   9.642  10.832  0.0775 -0.7276  0.4915
  565MOL0     C76151   6.557   9.546  10.872 -0.8475  0.1230 -0.2807
  565MOL0     C76152   6.661   9.533  10.771  0.6775 -0.4894  0.4231
  565MOL0     C76153   6.747   9.406  10.799 -0.8829  1.1552 -0.0642
  565MOL0     C76154   6.863   9.377  10.701  0.4728 -0.7948 -0.5167
  565MOL0     C76155   6.937   9.504  10.653 -0.6042  0.0926  0.1815
  565MOL0     C76156   7.006   9.582  10.763 -0.7253  0.0239  0.2730
  565MOL0     N76157   7.107   9.672  10.707  0.4144 -0.4678 -0.5220
  565MOL0     C76158   7.088   9.766  10.615 -0.1051  0.4051 -0.0675
  565MOL0     C76159   7.204   9.830  10.598  1.0187 -0.0803 -0.2153
  565MOL0     C76160   7.234   9.918  10.476 -0.8359 -0.9847  0.8388
  565MOL0     C76161   7.284  10.061  10.492 -0.4577 -0.6490  0.7139
  565MOL0     C76162   7.179  10.150  10.571  0.0905  0.4826 -0.3854
  565MOL0     C76163   7.210  10.297  10.550  1.3489 -0.1922 -0.2684
  565MOL0     O76164   7.338  10.328  10.592 -0.5603 -0.5755 -0.2606
  565MOL0     C76165   7.404  10.432  10.532 -0.8433 -0.1297 -0.5426
  565MOL0     C76166   7.343  10.543  10.459 -0.0172 -0.1669 -0.0032
  565MOL0     C76167   7.422  10.640  10.399 -0.0482  0.4888 -0.5164
  565MOL0     C76168   7.561  10.638  10.406  0.0008 -0.2990  0.5165
  565MOL0     C76169   7.645  10.736  10.343 -0.6742  0.3021 -0.6422
  565MOL0     O76170   7.770  10.738  10.392  0.1999  0.2046  0.6171
  565MOL0     C76171   7.865  10.810  10.324  0.7594 -1.0174 -0.5735
  565MOL0     C76172   7.983  10.757  10.272 -0.8898 -0.5129  0.2813
  565MOL0     C76173   8.092  10.841  10.236  0.0171  0.1457 -0.1318
  565MOL0     C76174   8.081  10.979  10.257  0.1370 -0.7069 -0.7495
  565MOL0     O76175   8.180  11.078  10.238  0.0057  0.0145  0.9790
  565MOL0     C76176   8.232  11.067  10.102 -0.3508 -0.3457 -0.3033
  565MOL0     C76177   8.372  11.127  10.084  0.1196 -0.3253  0.8841
  565MOL0     C76178   8.420  11.141   9.936  0.0346  0.5215  0.3904
  565MOL0     C76179   8.564  11.196   9.935  0.4720  0.6475 -0.1175
  565MOL0     C76180   8.583  11.238   9.786  0.0237  0.2957  0.2459
  565MOL0     C76181   8.729  11.298   9.764 -0.3460 -0.1348 -0.5965
  565MOL0     C76182   8.746  11.419   9.857  0.3014  0.9466  0.4665
  565MOL0     C76183   8.856  11.519   9.832 -1.0003  0.7327  0.6167
  565MOL0    Cl76184   8.830  11.602   9.672 -0.2467 -0.4776  0.6750
  565MOL0     C76185   7.960  11.028  10.302 -0.2392  0.0756 -0.2398
  565MOL0     C76186   7.856  10.943  10.333  0.6085  0.1904  0.4144
  565MOL0     O76187   7.600  10.797  10.246 -0.0985 -0.0530 -0.0660
  565MOL0     C76188   7.614  10.533  10.481  0.2153  0.0413 -0.4625
  565MOL0     C76189   7.543  10.430  10.540 -0.0581  0.1675  0.3534
  565MOL0     N76190   7.292   9.783  10.695  0.4689 -0.8006 -0.3181
  565MOL0     N76191   7.231   9.685  10.756  0.2050  0.2629  0.8434
  565MOL0     C76192   6.173   9.845  10.751 -0.7146 -0.0818  0.4487
  565MOL0     C76193   6.046   9.849  10.808 -0.2399 -0.3713  0.4149
  565MOL0     C76194   5.668   9.862  11.042  0.8502  0.0501  1.1208
  565MOL0     C76195   5.602   9.962  10.961 -0.4196 -0.9408  0.6521
  565MOL0     C76196   5.467   9.992  10.981 -0.6311  0.4737 -0.3307
  565MOL0     C76197   5.398   9.936  11.093  1.1612  0.6141  0.4411
  565MOL0     O76198   5.262   9.969  11.105  0.4698 -0.0563  0.8512
  565MOL0     C76199   5.197   9.963  11.236 -0.4920 -0.1845  0.5941
  565MOL0     C76200   5.083  10.062  11.261 -0.7030  0.9064  0.2839
  565MOL0     C76201   4.959  10.031  11.173 -0.3060  0.7675 -0.5292
  565MOL0     C76202   4.837  10.109  11.214  0.4264  0.3722 -0.5080
  565MOL0     C76203   4.722  10.108  11.116 -0.2665 -0.3517 -0.3871
  565MOL0     C76204   4.630  10.128  11.040  0.0686 -0.4296 -0.0547
  565MOL0     C76205   5.459   9.838  11.167 -0.1777  0.4299  0.0522
  565MOL0     C76206   5.595   9.807  11.143  0.1523  0.7610 -0.3933
  565MOL0     C76207   5.648   9.683  11.219 -0.5350  1.0741  0.0518
  565MOL0     H76208   6.114  10.053  11.065  0.7889  0.3107  0.8567
  565MOL0     H76209   6.343  10.006  10.995  1.9579  0.4958 -3.0335
  565MOL0     H76210   6.593   9.781  10.826 -0.0862 -3.1443 -0.0416
  565MOL0     H76211   6.491   9.824  10.966 -2.1092 -0.9593  0.4930
  565MOL0     H76212   6.431   9.628  10.725  1.3735 -0.8811  0.2790
  565MOL0     H76213   6.360   9.612  10.888 -0.5864 -2.9338 -1.5830
  565MOL0     H76214   6.513   9.446  10.879 -1.6439  0.5231  0.7507
  565MOL0     H76215   6.598   9.574  10.970  2.2130 -3.3379 -0.3858
  565MOL0     H76216   6.622   9.526  10.668 -0.1497  2.0707  0.4819
  565MOL0     H76217   6.727   9.619  10.759 -0.4357  0.1353 -2.0554
  565MOL0     H76218   6.782   9.413  10.902 -2.6365 -0.1035  0.6766
  565MOL0     H76219   6.682   9.318  10.794  1.6531 -1.0840  2.7350
  565MOL0     H76220   6.941   9.309  10.736  1.7501 -0.4603 -2.5261
  565MOL0     H76221   6.823   9.323  10.615 -0.6953 -0.5729 -0.1197
  565MOL0     H76222   6.858   9.574  10.623 -1.0059  0.2711  1.5658
  565MOL0     H76223   7.006   9.486  10.570 -0.9215 -0.5501  0.0459
  565MOL0     H76224   6.927   9.639  10.813 -1.4311 -1.0691  0.4486
  565MOL0     H76225   7.060   9.515  10.829 -0.1725 -1.4432 -1.5854
  565MOL0     H76226   6.998   9.786  10.558 -1.2403  0.0205  1.5208
  565MOL0     H76227   7.310   9.855  10.431 -1.4490 -0.1764 -1.4319
  565MOL0     H76228   7.152   9.928  10.405 -0.5315 -0.4335  0.5559
  565MOL0     H76229   7.377  10.056  10.548 -0.1961 -1.5905  0.2201
  565MOL0     H76230   7.299  10.098  10.390 -0.1157  0.1435  1.0484
  565MOL0     H76231   7.181  10.123  10.677 -0.1985  0.4943 -0.3761
  565MOL0     H76232   7.079  10.141  10.528  0.0674 -0.4027 -0.1651
  565MOL0     H76233   7.136  10.355  10.606  1.6359  1.3710 -1.4548
  565MOL0     H76234   7.192  10.307  10.443  0.2280 -1.0473 -0.1791
  565MOL0     H76235   7.235  10.554  10.454  0.1178  0.6518 -2.3377
  565MOL0     H76236   7.373  10.717  10.340  0.7876  2.2359  0.9678
  565MOL0     H76237   8.000  10.650  10.258  2.2296  0.0049 -0.7666
  565MOL0     H76238   8.180  10.799  10.188  0.0043  1.5101 -1.3902
  565MOL0     H76239   8.241  10.960  10.077  0.8437 -1.0120  2.5901
  565MOL0     H76240   8.163  11.104  10.026  1.3463 -0.9706 -2.2630
  565MOL0     H76241   8.375  11.226  10.130  0.0024 -0.2964  0.8322
  565MOL0     H76242   8.439  11.074  10.153  0.2590  1.2276  1.9985
  565MOL0     H76243   8.422  11.045   9.884  1.9501  1.2165 -0.9221
  565MOL0     H76244   8.350  11.205   9.880  0.2573  1.5520  1.2680
  565MOL0     H76245   8.641  11.120   9.952 -1.6115 -1.2808  1.1354
  565MOL0     H76246   8.566  11.280  10.006 -2.5280 -0.6545  1.6937
  565MOL0     H76247   8.513  11.316   9.756 -1.4952 -1.7955 -2.1334
  565MOL0     H76248   8.549  11.157   9.721 -2.5957  1.9018 -0.5035
  565MOL0     H76249   8.807  11.226   9.793 -0.7821  0.0327  1.0850
  565MOL0     H76250   8.750  11.325   9.661 -2.0213 -0.8021 -1.1318
  565MOL0     H76251   8.782  11.375   9.950 -0.6508  0.6060  0.6865
  565MOL0     H76252   8.655  11.478   9.868 -0.3523 -0.0007  0.2521
  565MOL0     H76253   8.862  11.593   9.911 -0.7535 -0.4150  1.7041
  565MOL0     H76254   8.958  11.480   9.828 -1.3454 -0.4933  2.5128
  565MOL0     H76255   7.949  11.136  10.305  0.4735  0.3520 -3.5599
  565MOL0     H76256   7.767  10.991  10.372 -1.1855  0.3664 -3.5043
  565MOL0     H76257   7.721  10.512  10.485 -0.2753 -2.7285  0.7187
  565MOL0     H76258   7.591  10.349  10.593 -1.2572 -1.6667 -1.2104
  565MOL0     H76259   6.183   9.791  10.658  0.6839  1.6477 -0.4599
  565MOL0     H76260   5.962   9.816  10.749 -1.2832  0.5896  1.3157
  565MOL0     H76261   5.658  10.002  10.876  0.1198 -3.4634 -0.2816
  565MOL0     H76262   5.409  10.057  10.916 -1.2410  0.9265  0.6458
  565MOL0     H76263   5.279   9.996  11.302 -0.7989 -2.4102  2.1898
  565MOL0     H76264   5.164   9.863  11.265 -0.6338 -1.1401 -2.5011
  565MOL0     H76265   5.122  10.165  11.256  1.8629 -0.0324 -0.7169
  565MOL0     H76266   5.047  10.035  11.361 -2.1806 -1.9917 -0.9493
  565MOL0     H76267   4.935   9.924  11.180  3.6683 -0.2346  0.5209
  565MOL0     H76268   4.988  10.053  11.070 -0.7360 -0.3568 -0.9061
  565MOL0     H76269   4.799  10.060  11.304  1.3079  1.4025  0.4363
  565MOL0     H76270   4.862  10.214  11.224  0.2329  0.2418  1.8911
  565MOL0     H76271   4.544  10.147  10.979  0.7344  1.2036 -0.5211
  565MOL0     H76272   5.398   9.795  11.246 -0.5841 -0.8678 -0.9344
  565MOL0     H76273   5.561   9.639  11.268 -1.9118  2.1051 -1.3299
  565MOL0     H76274   5.677   9.602  11.151 -1.1029  1.5598 -0.7860
  565MOL0     H76275   5.728   9.699  11.291 -0.1074 -0.7888  0.0343
  566MOL0     O76276   1.276  10.828   6.246 -0.5263  0.3538 -0.0306
  566MOL0     C76277   1.201  10.734   6.286 -0.6345 -0.4327 -0.0695
  566MOL0     O76278   1.252  10.612   6.332 -0.3627  0.6630 -0.3757
  566MOL0     C76279   1.384  10.588   6.346  0.3078 -0.2197  1.1384
  566MOL0     C76280   1.466  10.562   6.231 -0.5773 -0.0029  0.1887
  566MOL0     C76281   1.605  10.546   6.235  0.0832  0.5948  0.3524
  566MOL0     C76282   1.672  10.550   6.362  0.2085 -0.1127  0.4039
  566MOL0     O76283   1.805  10.536   6.385  0.6042 -0.3638 -0.9660
  566MOL0     C76284   1.903  10.504   6.289 -0.1953  0.2398 -0.9935
  566MOL0     C76285   2.039  10.484   6.361 -0.1967  0.4439 -0.7283
  566MOL0     C76286   2.141  10.447   6.255  0.0342  0.7867  0.0623
  566MOL0     C76287   2.275  10.514   6.278  0.7968  0.0322 -0.4744
  566MOL0     C76288   2.383  10.476   6.171 -0.5547 -0.1860 -0.6258
  566MOL0     C76289   2.522  10.547   6.204 -0.8326 -0.3965  0.5149
  566MOL0     C76290   2.527  10.697   6.168  0.1723 -0.2626  0.2022
  566MOL0     C76291   2.661  10.741   6.102 -0.9377  0.6343  0.4467
  566MOL0     N76292   2.781  10.694   6.179 -0.8943 -0.4953 -0.4502
  566MOL0     C76293   2.864  10.770   6.265  0.3814 -0.0047 -0.1034
  566MOL0     C76294   2.967  10.690   6.287  0.0169  0.1073  1.3267
  566MOL0     C76295   3.083  10.733   6.386 -0.0813  1.8359  0.0125
  566MOL0     C76296   3.173  10.619   6.429 -0.2431 -0.0157  0.6558
  566MOL0     C76297   3.311  10.685   6.466  0.6333  0.5588  0.1854
  566MOL0     C76298   3.414  10.574   6.481 -0.4194  0.1804 -0.0823
  566MOL0     O76299   3.521  10.643   6.542 -0.5898 -0.3544 -0.3388
  566MOL0     C76300   3.633  10.570   6.577  0.3886  0.1141 -0.0474
  566MOL0     C76301   3.727  10.639   6.652  0.6293 -0.1315  0.7401
  566MOL0     C76302   3.845  10.573   6.693 -0.3886  0.5770 -0.1725
  566MOL0     C76303   3.873  10.444   6.656  0.0753  0.2323  0.6824
  566MOL0     C76304   4.004  10.389   6.682  0.4955 -0.4217  0.1481
  566MOL0     O76305   4.097  10.485   6.709 -0.0825 -0.1205 -0.3186
  566MOL0     C76306   4.230  10.453   6.728 -1.0626 -0.2563 -0.2302
  566MOL0     C76307   4.310  10.551   6.787  0.3863 -0.1296  0.7008
  566MOL0     C76308   4.448  10.546   6.794 -0.0905  0.6958  0.5503
  566MOL0     C76309   4.524  10.438   6.743  0.0007 -0.1413 -0.3890
  566MOL0     O76310   4.661  10.425   6.750 -0.1773 -0.4970  0.6032
  566MOL0     C76311   4.737  10.505   6.834  0.2132 -0.5151  0.0439
  566MOL0     C76312   4.708  10.472   6.975 -0.1740 -0.0349 -0.3234
  566MOL0     C76313   4.769  10.557   7.085  0.0079 -0.4206 -0.0498
  566MOL0     C76314   4.922  10.582   7.071  0.5497  0.3746 -0.0134
  566MOL0     C76315   4.982  10.656   7.203 -0.5231  0.2211 -0.3071
  566MOL0     C76316   5.136  10.665   7.203  0.5840  0.1700  0.4214
  566MOL0     C76317   5.187  10.743   7.326  0.0632  0.0447 -0.0701
  566MOL0     C76318   5.164  10.893   7.304 -0.3116 -0.1792  0.1056
  566MOL0    Cl76319   5.260  10.961   7.437 -0.0896  0.1604 -0.3521
  566MOL0     C76320   4.447  10.339   6.676 -0.2696  0.4107  0.5527
  566MOL0     C76321   4.307  10.351   6.670  1.1543 -0.2570  0.7048
  566MOL0     O76322   4.024  10.274   6.677 -0.4577  0.4105 -0.0133
  566MOL0     C76323   3.774  10.369   6.588  0.3997 -0.1497  0.1851
  566MOL0     C76324   3.654  10.438   6.550 -0.1558  0.2529  0.9191
  566MOL0     N76325   2.951  10.569   6.223  0.2708 -0.3686  0.3852
  566MOL0     N76326   2.843  10.575   6.160 -0.2444 -0.1819  0.5754
  566MOL0     C76327   1.592  10.577   6.469  0.7999 -0.0594 -0.5001
  566MOL0     C76328   1.453  10.592   6.462  0.8483 -0.2943  0.2332
  566MOL0     C76329   1.058  10.751   6.280 -0.2550 -1.6137  0.1030
  566MOL0     C76330   0.981  10.635   6.306 -0.4589  0.5034 -0.3808
  566MOL0     C76331   0.841  10.640   6.293 -0.5693 -0.6444 -0.3236
  566MOL0     C76332   0.769  10.746   6.241  0.0318 -0.2093  0.3367
  566MOL0     O76333   0.637  10.746   6.213  0.2344  0.2260 -0.2286
  566MOL0     C76334   0.557  10.636   6.255  0.0206  0.3440  0.3277
  566MOL0     C76335   0.408  10.649   6.206  0.1228  0.1380 -0.9137
  566MOL0     C76336   0.390  10.539   6.101 -0.0071 -0.7698  0.6209
  566MOL0     C76337   0.244  10.541   6.056 -0.5517  0.1357  0.4715
  566MOL0     C76338   0.201  10.418   5.991 -0.6407 -0.1261  0.4057
  566MOL0     C76339   0.162  10.315   5.938  0.5529  0.6784  1.0488
  566MOL0     C76340   0.844  10.861   6.214  0.5917 -0.2565 -0.6018
  566MOL0     C76341   0.981  10.869   6.244 -0.6069  0.7513  0.9570
  566MOL0     C76342   1.054  11.004   6.217  0.2310 -0.4804 -0.1415
  566MOL0     H76343   1.425  10.575   6.132 -2.1919  1.8110  1.0199
  566MOL0     H76344   1.662  10.531   6.144 -0.0728  3.0082 -0.1863
  566MOL0     H76345   1.869  10.408   6.247 -0.6001  0.3091 -0.8299
  566MOL0     H76346   1.911  10.577   6.208 -2.1503  1.9076  0.2338
  566MOL0     H76347   2.020  10.396   6.423  0.3744  0.4113 -0.5956
  566MOL0     H76348   2.069  10.570   6.422 -1.9803  0.7731 -0.2605
  566MOL0     H76349   2.103  10.458   6.153 -0.5440  1.3907  0.3303
  566MOL0     H76350   2.160  10.340   6.266 -1.4817  0.1378 -2.7739
  566MOL0     H76351   2.264  10.622   6.269  0.3085 -0.0019 -0.3267
  566MOL0     H76352   2.307  10.486   6.379 -2.2652 -2.7115 -0.0979
  566MOL0     H76353   2.410  10.371   6.185  1.6835  0.7226  3.0820
  566MOL0     H76354   2.346  10.485   6.068 -1.4825  0.0871 -0.2801
  566MOL0     H76355   2.538  10.531   6.311  0.8201  2.2016  0.7282
  566MOL0     H76356   2.605  10.502   6.149 -1.0902 -1.4372  0.9356
  566MOL0     H76357   2.510  10.742   6.266 -0.1580 -2.1098  1.0479
  566MOL0     H76358   2.444  10.728   6.103  2.0110 -1.9418 -3.2508
  566MOL0     H76359   2.669  10.695   6.003  0.2448  1.2432  0.2367
  566MOL0     H76360   2.671  10.848   6.081  1.2515  0.2473 -0.7440
  566MOL0     H76361   2.859  10.875   6.294 -0.5672  0.1076 -0.6118
  566MOL0     H76362   3.149  10.804   6.335  1.6492 -0.1728 -0.7043
  566MOL0     H76363   3.030  10.779   6.470 -3.2661 -1.5197  0.0866
  566MOL0     H76364   3.130  10.569   6.516 -0.2795  0.3606  0.8584
  566MOL0     H76365   3.186  10.552   6.344 -0.5433  0.3784  0.2892
  566MOL0     H76366   3.306  10.737   6.562  0.5239  0.0156  0.4749
  566MOL0     H76367   3.342  10.757   6.390 -2.1085  1.1330 -0.4787
  566MOL0     H76368   3.446  10.529   6.386  1.2673  0.7816  0.1731
  566MOL0     H76369   3.367  10.505   6.551 -1.4919  0.0344 -0.8993
  566MOL0     H76370   3.703  10.740   6.685  0.5206 -0.9361  3.3089
  566MOL0     H76371   3.916  10.649   6.724 -0.9090  1.4827 -1.1619
  566MOL0     H76372   4.255  10.635   6.827  0.4575  0.4418 -0.3730
  566MOL0     H76373   4.496  10.633   6.839 -1.6366  0.7158  2.3161
  566MOL0     H76374   4.844  10.483   6.822  0.0396 -2.1933  1.2092
  566MOL0     H76375   4.737  10.612   6.808  1.2884 -0.6646 -0.6326
  566MOL0     H76376   4.600  10.460   6.987 -0.6468 -2.0047 -4.6441
  566MOL0     H76377   4.750  10.372   6.982 -0.9082 -0.3718 -0.5769
  566MOL0     H76378   4.724  10.657   7.081  1.2495  0.1245 -1.8144
  566MOL0     H76379   4.742  10.527   7.186 -0.0080  1.9828  0.7262
  566MOL0     H76380   4.934  10.649   6.985 -0.3272 -0.1446 -0.5617
  566MOL0     H76381   4.974  10.487   7.059 -0.5630 -0.5563  1.9760
  566MOL0     H76382   4.959  10.597   7.292  1.8241  0.3092  0.4177
  566MOL0     H76383   4.937  10.756   7.204 -0.1131  0.4030  0.2702
  566MOL0     H76384   5.194  10.573   7.195  1.3109  0.7171 -1.0689
  566MOL0     H76385   5.160  10.722   7.113 -1.7117  1.9200  0.8030
  566MOL0     H76386   5.294  10.725   7.318 -0.0729 -0.3820 -1.1138
  566MOL0     H76387   5.146  10.717   7.425  1.3429  1.1373  0.7787
  566MOL0     H76388   5.207  10.928   7.210 -2.3186 -0.5984 -1.0186
  566MOL0     H76389   5.062  10.930   7.319  0.8501  3.0839  0.8414
  566MOL0     H76390   4.499  10.256   6.629 -1.2204  1.1828 -1.9917
  566MOL0     H76391   4.254  10.288   6.599 -2.4480  1.6907  1.4181
  566MOL0     H76392   3.782  10.265   6.557  0.0400 -0.2968  0.5841
  566MOL0     H76393   3.582  10.384   6.489  1.0802 -0.0422 -0.3173
  566MOL0     H76394   1.630  10.578   6.571 -0.0853  0.5839 -0.1543
  566MOL0     H76395   1.387  10.604   6.548 -0.6088  1.0714 -1.0010
  566MOL0     H76396   1.014  10.532   6.319 -0.0127  0.4679 -1.7022
  566MOL0     H76397   0.788  10.549   6.318 -0.3362 -1.2046 -1.7570
  566MOL0     H76398   0.560  10.626   6.364  1.7314 -1.1934  0.1824
  566MOL0     H76399   0.597  10.540   6.224 -1.6679 -2.3522  5.2714
  566MOL0     H76400   0.383  10.751   6.176  2.0952  0.6985 -0.8037
  566MOL0     H76401   0.352  10.632   6.299 -0.9369 -2.1943 -1.8994
  566MOL0     H76402   0.408  10.441   6.145  0.0953 -0.6652  0.8172
  566MOL0     H76403   0.457  10.549   6.016 -0.5400 -0.7241  0.1999
  566MOL0     H76404   0.171  10.560   6.135 -2.6213  1.0850 -1.5257
  566MOL0     H76405   0.224  10.621   5.984  0.2218  0.2724  0.4035
  566MOL0     H76406   0.131  10.230   5.879  1.5891 -0.9641  2.7775
  566MOL0     H76407   0.789  10.949   6.184 -0.5665 -0.8981 -0.4534
  566MOL0     H76408   1.123  11.031   6.298 -0.0331  1.3728 -0.5071
  566MOL0     H76409   1.116  10.998   6.128 -3.2599  1.4534 -2.9577
  566MOL0     H76410   0.982  11.086   6.205 -2.0990 -2.0500  1.9500
  567MOL0     O76411   6.436   0.049   4.056  0.0998 -0.4671  0.0271
  567MOL0     C76412   6.407   0.156   3.999 -0.5655  0.0323  0.4012
  567MOL0     O76413   6.503   0.246   3.955  0.0078 -0.2437 -0.1719
  567MOL0     C76414   6.632   0.228   3.995  0.5481 -1.0916 -1.1612
  567MOL0     C76415   6.680   0.264   4.125 -0.4234 -0.2734  0.6758
  567MOL0     C76416   6.816   0.245   4.153  0.3238 -0.0758  0.2527
  567MOL0     C76417   6.905   0.204   4.057  0.0059  0.1916 -0.0697
  567MOL0     O76418   7.037   0.218   4.077  0.1505 -0.7488 -0.4953
  567MOL0     C76419   7.080   0.348   4.113 -0.3712  0.6926 -1.0728
  567MOL0     C76420   7.238   0.352   4.126  0.0554 -0.1409 -0.0834
  567MOL0     C76421   7.292   0.494   4.121 -0.4618  0.2761 -0.4672
  567MOL0     C76422   7.431   0.486   4.182 -0.1362  0.0039  0.4991
  567MOL0     C76423   7.504   0.611   4.150 -0.5971  0.8668  0.4021
  567MOL0     C76424   7.452   0.735   4.223 -0.5133  0.4575  0.1252
  567MOL0     C76425   7.537   0.863   4.192  0.4403 -0.0968 -0.5440
  567MOL0     C76426   7.652   0.870   4.287  0.4917  0.0377  0.1929
  567MOL0     N76427   7.729   0.994   4.269  0.3455 -0.0605  0.3036
  567MOL0     C76428   7.686   1.118   4.234 -0.2202 -0.7656 -0.3206
  567MOL0     C76429   7.800   1.192   4.229  1.0171  0.2139  0.5893
  567MOL0     C76430   7.806   1.330   4.177  0.2681 -0.4130 -0.3634
  567MOL0     C76431   7.781   1.439   4.279 -0.8394  0.3022  0.3280
  567MOL0     C76432   7.762   1.577   4.218  0.1671 -0.5428 -0.1445
  567MOL0     C76433   7.867   1.624   4.113 -0.5171 -0.2539 -0.5136
  567MOL0     O76434   7.994   1.616   4.175  0.5750  0.4934 -0.3124
  567MOL0     C76435   8.117   1.618   4.107 -0.3859 -0.3057 -0.0519
  567MOL0     C76436   8.221   1.584   4.189 -0.5030  0.5801  0.5456
  567MOL0     C76437   8.363   1.594   4.149 -0.4189 -0.5697 -0.7925
  567MOL0     C76438   8.388   1.650   4.023  0.5124  0.2955  0.6446
  567MOL0     C76439   8.530   1.667   3.987 -0.1330  0.6659 -0.3434
  567MOL0     O76440   8.547   1.694   3.851 -0.3551  0.3092 -0.8856
  567MOL0     C76441   8.681   1.705   3.813 -0.9223 -0.3040 -0.8052
  567MOL0     C76442   8.737   1.834   3.791 -0.9552 -0.9384 -0.1030
  567MOL0     C76443   8.876   1.852   3.758  1.0756  0.3095 -0.5722
  567MOL0     C76444   8.960   1.739   3.768 -0.0437  0.4750 -0.3471
  567MOL0     O76445   9.092   1.756   3.768  0.1101 -0.4053  0.3426
  567MOL0     C76446   9.146   1.773   3.901  0.6153 -0.4701  0.0147
  567MOL0     C76447   9.203   1.909   3.906  0.4286 -0.2800 -0.5285
  567MOL0     C76448   9.294   1.942   4.025 -0.4630  0.1159  0.1950
  567MOL0     C76449   9.439   1.919   4.003  0.2726 -0.1462  0.3879
  567MOL0     C76450   9.526   2.023   4.072  0.3236 -0.4007 -0.4738
  567MOL0     C76451   9.676   1.991   4.043  0.1578 -0.0731  0.6996
  567MOL0     C76452   9.764   2.087   4.129  0.8242  0.3798  0.6409
  567MOL0     C76453   9.912   2.055   4.121  0.0831 -0.3787  0.3413
  567MOL0    Cl76454  10.002   2.136   4.250 -0.1316 -0.0376  0.0790
  567MOL0     C76455   8.898   1.607   3.779  0.7465 -0.9267 -0.5707
  567MOL0     C76456   8.762   1.589   3.795  0.8317  0.0258 -0.3449
  567MOL0     O76457   8.610   1.684   4.075 -0.7934 -0.5293  0.1794
  567MOL0     C76458   8.280   1.678   3.940 -0.7421 -0.8392  0.8231
  567MOL0     C76459   8.141   1.669   3.980 -0.9611  0.1843 -0.0233
  567MOL0     N76460   7.909   1.114   4.248  0.0722  0.5665  0.3205
  567MOL0     N76461   7.863   0.997   4.273 -0.1884  0.4421  0.3379
  567MOL0     C76462   6.851   0.158   3.934  0.2717 -0.2949  0.6074
  567MOL0     C76463   6.715   0.169   3.904 -0.7234  0.5684  0.0461
  567MOL0     C76464   6.263   0.186   3.968 -0.6247  0.0638  0.2934
  567MOL0     C76465   6.239   0.317   3.919  0.8228  0.7070  0.4858
  567MOL0     C76466   6.108   0.372   3.901  0.0917 -0.8526 -0.7185
  567MOL0     C76467   5.994   0.292   3.931  0.0992  0.0409 -0.3662
  567MOL0     O76468   5.874   0.345   3.889 -0.5326  0.1418 -0.7788
  567MOL0     C76469   5.749   0.273   3.892  0.1692  0.1988  1.1096
  567MOL0     C76470   5.705   0.296   4.039 -0.3902  0.2711  0.6000
  567MOL0     C76471   5.568   0.244   4.071 -0.4853 -0.1989 -0.0042
  567MOL0     C76472   5.459   0.350   4.040 -0.3382 -0.2916 -0.8716
  567MOL0     C76473   5.336   0.297   4.080 -0.3530 -0.5112 -0.6786
  567MOL0     C76474   5.236   0.249   4.128  0.0765 -0.0517  0.8799
  567MOL0     C76475   6.013   0.153   3.970 -1.1021  0.2441 -0.1130
  567MOL0     C76476   6.147   0.103   3.986  0.2313  0.4792  0.1516
  567MOL0     C76477   6.175  -0.045   4.028  0.9509  0.2294  0.0271
  567MOL0     H76478   6.622   0.316   4.200  1.7585 -1.1465  3.1487
  567MOL0     H76479   6.844   0.270   4.255 -0.3749 -1.6280  0.8489
  567MOL0     H76480   7.038   0.419   4.042 -2.4371  0.8090  0.1941
  567MOL0     H76481   7.051   0.375   4.214 -2.1454 -1.6387 -0.8625
  567MOL0     H76482   7.272   0.301   4.036 -3.5884 -1.1874 -1.0384
  567MOL0     H76483   7.264   0.299   4.218  1.9553  1.0400  0.1162
  567MOL0     H76484   7.230   0.564   4.177  0.7550 -0.0905  1.4116
  567MOL0     H76485   7.294   0.518   4.014  1.9614  0.7596 -0.3737
  567MOL0     H76486   7.428   0.462   4.289  1.6741 -0.3131  0.4978
  567MOL0     H76487   7.488   0.407   4.133  0.7405  2.0676 -2.0067
  567MOL0     H76488   7.608   0.595   4.178 -0.2543 -0.6836 -1.5902
  567MOL0     H76489   7.497   0.617   4.041  0.8066 -1.3894  0.1324
  567MOL0     H76490   7.351   0.751   4.186 -0.3876  0.7181 -0.1105
  567MOL0     H76491   7.440   0.724   4.331 -0.2119  1.1250  0.2369
  567MOL0     H76492   7.477   0.953   4.205  0.0622 -0.2364 -1.2861
  567MOL0     H76493   7.582   0.864   4.092  0.4489  2.1971 -0.5621
  567MOL0     H76494   7.623   0.866   4.392 -1.9516 -1.1122 -0.4613
  567MOL0     H76495   7.715   0.781   4.273 -1.6696 -1.5275 -0.0990
  567MOL0     H76496   7.588   1.159   4.212 -0.4334 -0.2682  1.4013
  567MOL0     H76497   7.904   1.343   4.130 -0.6665  0.8503 -2.1031
  567MOL0     H76498   7.743   1.338   4.087  1.0294  0.9722 -0.8065
  567MOL0     H76499   7.687   1.408   4.326  0.4263 -2.4184  1.2736
  567MOL0     H76500   7.863   1.442   4.352 -0.3313  1.3291 -0.2678
  567MOL0     H76501   7.757   1.653   4.296  0.9576  0.3493 -0.9510
  567MOL0     H76502   7.664   1.572   4.169  0.6494 -1.0633 -1.0865
  567MOL0     H76503   7.842   1.729   4.095 -0.7975  0.0458  1.4197
  567MOL0     H76504   7.870   1.559   4.025  0.1163  0.2984 -0.9158
  567MOL0     H76505   8.196   1.538   4.285  0.4504  0.2402  0.6331
  567MOL0     H76506   8.437   1.564   4.221 -1.1938 -2.1179 -0.5967
  567MOL0     H76507   8.675   1.921   3.809 -1.6988 -1.8653  2.3012
  567MOL0     H76508   8.913   1.954   3.755  3.8367 -0.6506 -3.7295
  567MOL0     H76509   9.080   1.759   3.986  0.6658 -0.3567  0.0742
  567MOL0     H76510   9.218   1.691   3.900 -1.5033 -2.4421  0.1799
  567MOL0     H76511   9.255   1.935   3.813  0.6440 -1.2831 -0.6954
  567MOL0     H76512   9.121   1.980   3.913  1.2250  0.6779 -0.5961
  567MOL0     H76513   9.265   2.046   4.045 -3.3716 -0.5284 -0.2591
  567MOL0     H76514   9.271   1.879   4.111  1.0546 -0.5599  0.1325
  567MOL0     H76515   9.463   1.923   3.897  0.6022 -0.3138  0.4567
  567MOL0     H76516   9.461   1.815   4.026 -0.0804 -0.3880 -0.3460
  567MOL0     H76517   9.508   2.019   4.180  2.7750 -1.7435 -0.0315
  567MOL0     H76518   9.513   2.127   4.043  3.4011  0.0875 -0.4030
  567MOL0     H76519   9.699   1.892   4.082  0.9333  0.3156  1.2527
  567MOL0     H76520   9.688   2.014   3.936 -0.0278 -0.5993  0.5640
  567MOL0     H76521   9.726   2.088   4.232  1.6886 -2.0675  1.0461
  567MOL0     H76522   9.754   2.192   4.098  0.2968  0.2897  0.4946
  567MOL0     H76523   9.923   1.946   4.124 -3.6840 -0.8725  1.4960
  567MOL0     H76524   9.953   2.091   4.026 -1.1747 -2.1838 -0.9620
  567MOL0     H76525   8.959   1.518   3.776  0.5291 -1.2014  1.6809
  567MOL0     H76526   8.711   1.496   3.817 -1.8523  1.3992 -0.4092
  567MOL0     H76527   8.294   1.726   3.843 -0.0855 -1.8629  0.4021
  567MOL0     H76528   8.052   1.704   3.929 -0.9145  0.0954 -0.1641
  567MOL0     H76529   6.915   0.129   3.852 -0.3444  3.1394 -1.2939
  567MOL0     H76530   6.670   0.135   3.812 -1.9112 -0.3637  0.9356
  567MOL0     H76531   6.320   0.383   3.891  0.1843  0.8753 -1.0372
  567MOL0     H76532   6.091   0.458   3.838  2.9979  0.2757 -0.1306
  567MOL0     H76533   5.749   0.168   3.860 -1.1709  0.0740  1.4765
  567MOL0     H76534   5.684   0.321   3.818  2.5181  2.5321  0.4168
  567MOL0     H76535   5.696   0.404   4.047 -1.7677  0.3012 -0.7905
  567MOL0     H76536   5.776   0.242   4.103 -0.3360 -0.6403 -0.1942
  567MOL0     H76537   5.567   0.227   4.179 -2.2358 -0.1966  0.0018
  567MOL0     H76538   5.549   0.159   4.005  0.1307  0.9969 -1.7995
  567MOL0     H76539   5.460   0.445   4.096  1.4299  1.4574 -3.6266
  567MOL0     H76540   5.452   0.374   3.934 -3.1363 -0.4371 -0.8003
  567MOL0     H76541   5.146   0.227   4.182 -0.8319  1.9808  0.3017
  567MOL0     H76542   5.937   0.079   3.991 -1.3381  0.3151 -0.7021
  567MOL0     H76543   6.080  -0.099   4.026  1.5417 -0.8188 -0.1776
  567MOL0     H76544   6.254  -0.098   3.975  3.6006  0.1469  3.6693
  567MOL0     H76545   6.205  -0.049   4.133  1.4733  1.9846 -0.0224
  568MOL0     O76546   7.071  10.116   1.102 -0.3212  0.0416 -0.2259
  568MOL0     C76547   7.069  10.224   1.050 -0.1818 -0.3351 -0.9786
  568MOL0     O76548   6.964  10.309   1.053 -0.4647  0.2419  0.2463
  568MOL0     C76549   6.851  10.269   1.122 -0.3732 -0.1940 -0.0554
  568MOL0     C76550   6.858  10.210   1.253  0.7100 -0.7856 -0.2716
  568MOL0     C76551   6.733  10.179   1.313  0.2418 -0.9561  0.6287
  568MOL0     C76552   6.612  10.211   1.245  0.1149  0.6477 -0.7849
  568MOL0     O76553   6.505  10.159   1.307  0.7506 -0.1175 -0.2735
  568MOL0     C76554   6.377  10.202   1.255  0.1238  0.6671  0.0859
  568MOL0     C76555   6.265  10.149   1.346 -0.3403 -0.6536 -0.0718
  568MOL0     C76556   6.125  10.169   1.279 -0.8181 -1.4320 -0.2751
  568MOL0     C76557   6.016  10.112   1.369 -0.3373  0.1873  0.0372
  568MOL0     C76558   5.885  10.132   1.308  0.0594  0.2822  1.1352
  568MOL0     C76559   5.846  10.036   1.197 -0.3879 -0.1295  1.0525
  568MOL0     C76560   5.717  10.094   1.134  0.0851 -0.3474  0.5001
  568MOL0     C76561   5.595  10.114   1.234 -0.0985 -0.4343 -0.1918
  568MOL0     N76562   5.471  10.116   1.156 -0.4027 -0.0994 -0.6007
  568MOL0     C76563   5.415  10.000   1.099 -0.3635 -0.0695  0.5558
  568MOL0     C76564   5.298  10.045   1.046  0.3843  0.4690  1.0384
  568MOL0     C76565   5.190   9.951   0.992 -0.8195 -0.3666 -0.3987
  568MOL0     C76566   5.120   9.865   1.096 -0.6525 -0.0149  0.0292
  568MOL0     C76567   5.103   9.718   1.068 -0.4645  0.7421 -0.0002
  568MOL0     C76568   5.234   9.644   1.059 -0.4087  0.8900 -0.1412
  568MOL0     O76569   5.301   9.666   1.185 -0.2585  0.1127  0.3711
  568MOL0     C76570   5.434   9.629   1.193 -0.1627 -0.0353 -0.2344
  568MOL0     C76571   5.503   9.691   1.296  0.0682  0.8134 -0.2555
  568MOL0     C76572   5.636   9.662   1.324  0.0754  0.1957  0.0617
  568MOL0     C76573   5.704   9.561   1.250  0.2298 -0.3547 -0.1698
  568MOL0     C76574   5.843   9.519   1.289  0.4484  0.3803  0.4588
  568MOL0     O76575   5.902   9.576   1.398  0.0529  0.2000  0.2312
  568MOL0     C76576   6.021   9.529   1.446  0.6323 -0.4311  0.3939
  568MOL0     C76577   6.126   9.614   1.448  0.1509 -0.0510 -0.2707
  568MOL0     C76578   6.255   9.570   1.471 -0.5029 -0.3576 -0.0180
  568MOL0     C76579   6.287   9.437   1.501  0.0925  0.3243 -0.1647
  568MOL0     O76580   6.411   9.400   1.535 -0.1777 -0.1896 -0.1636
  568MOL0     C76581   6.416   9.337   1.661 -0.7150 -0.0211 -0.0429
  568MOL0     C76582   6.555   9.347   1.712 -0.1758 -0.2457 -0.2127
  568MOL0     C76583   6.657   9.265   1.635  0.1204  0.3538  0.2272
  568MOL0     C76584   6.790   9.268   1.699 -0.0458  0.1573  0.3158
  568MOL0     C76585   6.887   9.214   1.593 -0.1089  0.0682  0.2610
  568MOL0     C76586   6.916   9.324   1.491 -1.0163 -0.4674 -0.9549
  568MOL0     C76587   7.041   9.292   1.410  0.0950 -0.4735 -0.9874
  568MOL0     C76588   7.091   9.408   1.344  0.2777 -0.2556 -0.4236
  568MOL0    Cl76589   7.255   9.378   1.285  0.6079  0.1509 -0.0591
  568MOL0     C76590   6.181   9.349   1.498 -0.3947 -0.4404  0.4965
  568MOL0     C76591   6.043   9.390   1.463  0.1466  0.8911 -0.2871
  568MOL0     O76592   5.895   9.435   1.212 -0.2657  0.3622 -0.8559
  568MOL0     C76593   5.640   9.493   1.147  0.2435  0.5848  0.2936
  568MOL0     C76594   5.504   9.535   1.115 -0.1502  0.6184 -0.3038
  568MOL0     N76595   5.278  10.179   1.077 -0.4778 -0.3176  0.3714
  568MOL0     N76596   5.388  10.218   1.137 -0.3493 -0.4398 -0.5110
  568MOL0     C76597   6.608  10.268   1.120 -0.0961  0.2421  0.5644
  568MOL0     C76598   6.730  10.291   1.054 -0.0067  0.5007 -0.3050
  568MOL0     C76599   7.193  10.269   0.976  0.5785  0.2186 -0.0775
  568MOL0     C76600   7.182  10.359   0.869  0.2625  0.1380 -1.2398
  568MOL0     C76601   7.293  10.410   0.796 -0.5245  0.2790 -0.8964
  568MOL0     C76602   7.422  10.382   0.852 -0.1300 -0.0781 -0.2835
  568MOL0     O76603   7.539  10.441   0.813 -0.0907 -0.7077 -0.1864
  568MOL0     C76604   7.539  10.561   0.724 -0.1903  0.1016  0.1007
  568MOL0     C76605   7.668  10.634   0.735  0.2116  0.8494  0.0768
  568MOL0     C76606   7.775  10.553   0.660 -0.3707 -0.5817 -0.0731
  568MOL0     C76607   7.920  10.610   0.682 -0.0975  0.2170 -1.1081
  568MOL0     C76608   8.007  10.516   0.615 -0.1251 -0.1137  0.4622
  568MOL0     C76609   8.094  10.453   0.557 -0.1839 -0.0392 -0.1686
  568MOL0     C76610   7.431  10.290   0.955 -0.3195  0.4659 -0.0225
  568MOL0     C76611   7.324  10.229   1.015 -0.3023 -1.2671  0.2944
  568MOL0     C76612   7.351  10.138   1.136 -0.0074  0.4588  0.2211
  568MOL0     H76613   6.953  10.202   1.305  1.5731  2.7755 -0.9841
  568MOL0     H76614   6.715  10.130   1.408  0.6042 -2.3414  0.0143
  568MOL0     H76615   6.377  10.311   1.252  2.6434  0.7453  0.1414
  568MOL0     H76616   6.362  10.161   1.155  0.4040 -0.5989  0.5327
  568MOL0     H76617   6.253  10.211   1.435  2.2708  1.3165 -0.9739
  568MOL0     H76618   6.279  10.043   1.371 -0.6800 -0.9380 -1.0356
  568MOL0     H76619   6.116  10.126   1.178 -1.1677  1.4588 -1.5620
  568MOL0     H76620   6.117  10.276   1.259  0.2414 -1.4210 -0.7162
  568MOL0     H76621   6.047  10.007   1.372 -0.7965 -0.0682 -2.2425
  568MOL0     H76622   6.021  10.160   1.467  0.9085 -1.6828  0.9479
  568MOL0     H76623   5.809  10.129   1.387 -1.4006 -1.9145 -0.2328
  568MOL0     H76624   5.874  10.231   1.263 -2.8595  0.3254  1.7286
  568MOL0     H76625   5.921  10.040   1.118 -0.6700  3.7841  0.7686
  568MOL0     H76626   5.821   9.937   1.235  0.2926 -0.1340  1.5100
  568MOL0     H76627   5.687  10.019   1.059  0.6508 -0.8672  0.7823
  568MOL0     H76628   5.733  10.190   1.085 -1.6557  0.3128  1.1629
  568MOL0     H76629   5.600  10.022   1.291 -0.7010 -0.4323 -0.1296
  568MOL0     H76630   5.610  10.203   1.296  1.6193  0.1498 -1.3511
  568MOL0     H76631   5.458   9.902   1.081 -1.4509 -0.4171 -0.2828
  568MOL0     H76632   5.106  10.005   0.946 -0.7230 -0.8299 -1.1391
  568MOL0     H76633   5.236   9.885   0.918  1.4406 -2.0990  2.3437
  568MOL0     H76634   5.166   9.887   1.193  0.0092 -1.2730  0.0158
  568MOL0     H76635   5.015   9.898   1.101 -1.4629 -2.3404 -0.2573
  568MOL0     H76636   5.035   9.711   0.983 -2.3054  1.3105  1.3562
  568MOL0     H76637   5.048   9.670   1.150 -0.5138  0.6895 -0.0642
  568MOL0     H76638   5.286   9.684   0.972  0.5816  0.9015  0.4478
  568MOL0     H76639   5.226   9.536   1.042 -0.0851  1.0211 -1.2416
  568MOL0     H76640   5.458   9.775   1.348 -1.1069  1.1003 -1.6750
  568MOL0     H76641   5.693   9.711   1.402 -1.5520 -0.1483  1.5197
  568MOL0     H76642   6.117   9.722   1.441  1.9767  0.1517 -0.1846
  568MOL0     H76643   6.341   9.636   1.469 -3.0714  3.3166 -0.5266
  568MOL0     H76644   6.347   9.386   1.730 -0.1623  0.4545  0.1774
  568MOL0     H76645   6.386   9.232   1.651 -0.0766 -0.1568 -0.5694
  568MOL0     H76646   6.587   9.451   1.706 -1.8130  0.2888 -0.1752
  568MOL0     H76647   6.562   9.311   1.815 -0.9649  3.0731  1.1278
  568MOL0     H76648   6.631   9.159   1.631 -1.4932  0.7643 -1.6528
  568MOL0     H76649   6.659   9.309   1.535 -4.8679 -0.9187 -0.6689
  568MOL0     H76650   6.790   9.196   1.781  0.9253 -0.8780 -0.5662
  568MOL0     H76651   6.824   9.364   1.739 -0.0965 -0.1883  1.1996
  568MOL0     H76652   6.849   9.130   1.535 -2.6887 -0.4412  2.4434
  568MOL0     H76653   6.976   9.172   1.641 -0.7771 -0.3363  1.1798
  568MOL0     H76654   6.829   9.346   1.428 -1.2149 -0.2384 -0.6049
  568MOL0     H76655   6.931   9.413   1.553  1.1670 -2.0306  0.9166
  568MOL0     H76656   7.016   9.221   1.330 -1.5475 -2.7537  1.3812
  568MOL0     H76657   7.120   9.262   1.479  0.6709  1.3450 -0.8135
  568MOL0     H76658   7.024   9.446   1.267  0.3476  4.8305  1.6630
  568MOL0     H76659   7.098   9.495   1.410  0.1956 -1.0618  0.6850
  568MOL0     H76660   6.205   9.244   1.511  0.1392 -0.1932  1.7258
  568MOL0     H76661   5.956   9.327   1.447 -0.0275  1.4011 -1.4442
  568MOL0     H76662   5.687   9.413   1.093  0.5193  1.5678 -0.9644
  568MOL0     H76663   5.461   9.507   1.019  2.2639  1.2275 -1.6576
  568MOL0     H76664   6.520  10.276   1.057 -0.3758 -1.7465  0.6234
  568MOL0     H76665   6.733  10.333   0.954 -0.4989  2.0552  0.3057
  568MOL0     H76666   7.078  10.372   0.843  0.8144  0.7982 -3.3794
  568MOL0     H76667   7.275  10.479   0.714 -0.8856  1.4595  0.1635
  568MOL0     H76668   7.458  10.631   0.746  2.5494  3.3013  0.8727
  568MOL0     H76669   7.510  10.539   0.621 -2.0711  1.3961  0.3016
  568MOL0     H76670   7.698  10.634   0.840 -1.0633 -0.2628  0.4729
  568MOL0     H76671   7.652  10.730   0.685  2.0189  0.4576 -1.3601
  568MOL0     H76672   7.753  10.569   0.554 -0.2956  0.2652  0.0330
  568MOL0     H76673   7.769  10.450   0.696  1.0689  0.4037  3.4186
  568MOL0     H76674   7.933  10.706   0.631 -2.2124  0.6065 -1.0157
  568MOL0     H76675   7.941  10.619   0.788  1.4984 -1.3480 -1.2540
  568MOL0     H76676   8.155  10.374   0.518 -0.5388 -0.4445  0.0783
  568MOL0     H76677   7.531  10.280   0.993  0.4617  0.5183 -1.9345
  568MOL0     H76678   7.293  10.142   1.228 -0.4209 -0.5555  0.0261
  568MOL0     H76679   7.334  10.034   1.105 -0.4453 -0.1747  2.3957
  568MOL0     H76680   7.455  10.153   1.167  0.3011  3.9884 -1.9766
  569MOL0     O76681   7.636   6.611   0.693 -0.0662 -0.2467 -0.0396
  569MOL0     C76682   7.638   6.531   0.788 -0.6003  0.6364  0.6644
  569MOL0     O76683   7.742   6.511   0.876 -0.1368 -0.0888 -0.4820
  569MOL0     C76684   7.847   6.608   0.889 -0.2233  0.5869 -0.1607
  569MOL0     C76685   7.830   6.710   0.985 -0.0825 -0.3589 -0.2659
  569MOL0     C76686   7.941   6.800   0.989  0.7274 -0.1732  0.1879
  569MOL0     C76687   8.052   6.798   0.904  0.1590 -0.1262  0.5161
  569MOL0     O76688   8.162   6.890   0.928  0.2042  0.3627  0.2251
  569MOL0     C76689   8.267   6.874   0.834 -0.5565  0.0970 -0.2039
  569MOL0     C76690   8.381   6.968   0.880  0.1687 -0.0969 -0.3691
  569MOL0     C76691   8.481   6.972   0.763 -0.4999 -0.5889  0.1453
  569MOL0     C76692   8.591   7.070   0.792 -0.8420  0.3615  0.8250
  569MOL0     C76693   8.699   7.061   0.686 -0.0841 -0.2451 -0.1839
  569MOL0     C76694   8.833   7.117   0.728  0.3377 -0.2448  0.1220
  569MOL0     C76695   8.857   7.270   0.727  0.4244 -0.2626  0.2800
  569MOL0     C76696   9.003   7.309   0.730 -0.3701  0.1445  0.5399
  569MOL0     N76697   9.026   7.449   0.722  0.3224 -0.5261  0.3401
  569MOL0     C76698   8.952   7.546   0.652 -0.6473 -1.5257 -0.0639
  569MOL0     C76699   9.025   7.657   0.639 -0.1352 -0.7531  0.0873
  569MOL0     C76700   8.958   7.776   0.586  0.0662 -0.7102  0.1442
  569MOL0     C76701   8.870   7.864   0.680  0.0071  0.2120 -0.0860
  569MOL0     C76702   8.789   7.964   0.601  1.1772  0.0217  0.2054
  569MOL0     C76703   8.684   8.030   0.704 -0.3960  0.4726 -0.2680
  569MOL0     O76704   8.741   8.061   0.834 -0.1834  0.0431 -0.0681
  569MOL0     C76705   8.663   8.125   0.923  0.5381 -0.0481  0.1691
  569MOL0     C76706   8.525   8.152   0.905 -0.8311  0.2474 -0.0116
  569MOL0     C76707   8.446   8.208   1.003 -0.4199  0.3853 -0.1861
  569MOL0     C76708   8.503   8.243   1.130 -0.6563 -0.7156 -0.2242
  569MOL0     C76709   8.435   8.322   1.232  0.2166  0.2714  0.4371
  569MOL0     O76710   8.296   8.312   1.232  0.1290 -0.4130 -0.7172
  569MOL0     C76711   8.224   8.354   1.343  0.7334 -0.3670 -0.4981
  569MOL0     C76712   8.263   8.363   1.473 -0.0793 -0.0179  0.0437
  569MOL0     C76713   8.167   8.363   1.577  0.6687  0.7017 -0.0180
  569MOL0     C76714   8.026   8.362   1.551 -0.6968 -0.8137 -1.0536
  569MOL0     O76715   7.920   8.362   1.646 -1.3802  0.2151  0.3679
  569MOL0     C76716   7.936   8.269   1.754 -0.0923  0.2818  0.2628
  569MOL0     C76717   7.805   8.247   1.819  0.0732  0.4982  0.0887
  569MOL0     C76718   7.742   8.380   1.869  0.7934  0.0664 -0.7207
  569MOL0     C76719   7.839   8.482   1.929 -0.5579  0.0887 -0.2232
  569MOL0     C76720   7.763   8.614   1.971 -0.0420  0.2451 -0.8576
  569MOL0     C76721   7.660   8.606   2.084 -0.1289 -0.2451  0.3645
  569MOL0     C76722   7.623   8.743   2.133 -0.4082  0.5434  0.1859
  569MOL0     C76723   7.556   8.713   2.274 -0.1424  0.0991  0.4320
  569MOL0    Cl76724   7.464   8.852   2.318  0.1497 -0.3268  0.2455
  569MOL0     C76725   7.988   8.377   1.415 -0.1049 -0.2086 -0.2862
  569MOL0     C76726   8.082   8.365   1.310 -0.5789  0.5190 -0.2600
  569MOL0     O76727   8.499   8.397   1.301  0.3701 -1.2594 -0.3947
  569MOL0     C76728   8.642   8.214   1.149 -0.0175 -0.6667 -0.4658
  569MOL0     C76729   8.717   8.160   1.042  0.3280  0.1304 -0.0126
  569MOL0     N76730   9.132   7.638   0.719  0.0736  0.4166 -0.4870
  569MOL0     N76731   9.139   7.512   0.754  0.1380 -0.2848  0.2830
  569MOL0     C76732   8.067   6.690   0.810  0.3480  0.5472 -0.2210
  569MOL0     C76733   7.961   6.604   0.803 -0.4818 -0.0117 -0.1367
  569MOL0     C76734   7.516   6.456   0.821 -0.2300 -0.5686 -0.0626
  569MOL0     C76735   7.531   6.335   0.893 -0.5163  0.0650  0.7252
  569MOL0     C76736   7.420   6.261   0.931 -0.4930  0.0189 -0.0036
  569MOL0     C76737   7.291   6.298   0.909 -0.4429 -0.3351 -0.4631
  569MOL0     O76738   7.178   6.231   0.954 -0.0752 -0.1801  0.2640
  569MOL0     C76739   7.190   6.090   0.975 -0.0248 -0.4127 -0.8741
  569MOL0     C76740   7.058   6.027   0.939  0.2907  0.5557  0.7169
  569MOL0     C76741   7.010   6.044   0.794 -1.0338 -0.3036 -0.3072
  569MOL0     C76742   6.882   5.983   0.734  0.0744 -0.0201  0.3082
  569MOL0     C76743   6.765   6.059   0.789  0.5710  0.0768  0.1164
  569MOL0     C76744   6.662   6.099   0.846 -0.3197 -0.0468 -0.1263
  569MOL0     C76745   7.270   6.429   0.859  0.2524 -0.6367  0.0390
  569MOL0     C76746   7.381   6.501   0.806 -0.9151 -0.0372 -0.5408
  569MOL0     C76747   7.349   6.642   0.752 -0.0818  0.6687 -0.1322
  569MOL0     H76748   7.750   6.719   1.057  0.6586  1.1220  0.4092
  569MOL0     H76749   7.930   6.882   1.059  0.6927 -0.8510  0.9766
  569MOL0     H76750   8.315   6.776   0.833  0.4017  0.4831  2.0378
  569MOL0     H76751   8.227   6.908   0.738 -3.7036  1.8115  1.5432
  569MOL0     H76752   8.436   6.930   0.967 -0.4948 -3.3130 -1.2192
  569MOL0     H76753   8.345   7.069   0.899  1.1003  0.0640  0.6832
  569MOL0     H76754   8.424   6.996   0.673  0.6355 -2.3546 -1.1153
  569MOL0     H76755   8.526   6.873   0.754  0.9595  0.0561  0.0816
  569MOL0     H76756   8.545   7.169   0.799  1.5596  1.7013 -0.8169
  569MOL0     H76757   8.632   7.044   0.890  0.3782 -2.7841 -0.3874
  569MOL0     H76758   8.710   6.961   0.642 -0.4038  0.3753 -1.7253
  569MOL0     H76759   8.671   7.125   0.603  0.5154  0.8735  0.4566
  569MOL0     H76760   8.855   7.083   0.830  1.9666  1.6200  0.4552
  569MOL0     H76761   8.913   7.077   0.666  1.2646 -0.1764  1.2449
  569MOL0     H76762   8.805   7.315   0.812  1.2382 -0.1811  0.7519
  569MOL0     H76763   8.818   7.314   0.635  3.6175 -0.4777 -1.3353
  569MOL0     H76764   9.042   7.272   0.825 -1.9921 -0.9688  0.8072
  569MOL0     H76765   9.049   7.257   0.645  0.0453 -0.1871  0.9678
  569MOL0     H76766   8.851   7.531   0.616 -2.2636  1.6765  2.5220
  569MOL0     H76767   9.028   7.847   0.542 -3.0709  1.9766 -0.9516
  569MOL0     H76768   8.889   7.750   0.505  2.3806  3.0437 -3.3664
  569MOL0     H76769   8.803   7.793   0.730  0.1626 -0.9088 -1.4182
  569MOL0     H76770   8.940   7.919   0.744  0.3130  0.9957 -1.0805
  569MOL0     H76771   8.735   7.911   0.522  1.2115  1.2723 -0.6771
  569MOL0     H76772   8.858   8.039   0.562  1.9447 -1.1421 -0.7733
  569MOL0     H76773   8.597   7.964   0.703 -0.0910  0.0050  1.0165
  569MOL0     H76774   8.654   8.123   0.656  0.5442  0.4588 -0.9005
  569MOL0     H76775   8.485   8.118   0.810  1.1867  2.3369 -1.7242
  569MOL0     H76776   8.341   8.214   0.977 -0.6360 -3.8433 -0.9111
  569MOL0     H76777   8.367   8.357   1.502  0.7210  1.7501 -2.1676
  569MOL0     H76778   8.213   8.369   1.675 -0.1245  0.4281  0.3790
  569MOL0     H76779   7.974   8.179   1.705  2.6078  1.2854  0.3458
  569MOL0     H76780   8.019   8.302   1.816  1.0626  0.8614 -1.5164
  569MOL0     H76781   7.735   8.205   1.746  0.5132 -0.3087  0.1210
  569MOL0     H76782   7.820   8.190   1.910 -0.0937  1.3169  0.6404
  569MOL0     H76783   7.688   8.430   1.788  0.6598  0.8217 -0.1757
  569MOL0     H76784   7.673   8.364   1.952  2.3123  1.2300  0.8442
  569MOL0     H76785   7.920   8.517   1.864  3.2696 -3.1836  2.3352
  569MOL0     H76786   7.882   8.432   2.017 -0.5627 -1.9616 -1.3137
  569MOL0     H76787   7.718   8.653   1.879  0.4918  0.7057 -0.9317
  569MOL0     H76788   7.839   8.683   2.009  0.0814  0.2297 -1.0741
  569MOL0     H76789   7.575   8.550   2.043  0.9053 -2.6298  1.2898
  569MOL0     H76790   7.700   8.548   2.168 -0.7144 -0.9864  0.1414
  569MOL0     H76791   7.542   8.784   2.073 -1.7402 -1.7728  0.2708
  569MOL0     H76792   7.702   8.817   2.150  0.2685  0.2645 -1.5346
  569MOL0     H76793   7.486   8.629   2.267  1.4243 -1.2249  0.0417
  569MOL0     H76794   7.635   8.690   2.346 -0.1311 -1.4869 -0.0461
  569MOL0     H76795   7.882   8.382   1.393 -0.2453  2.5060  0.6503
  569MOL0     H76796   8.042   8.348   1.210  1.3808  0.8976 -1.1601
  569MOL0     H76797   8.692   8.244   1.240  0.9488  0.5081 -1.3489
  569MOL0     H76798   8.822   8.149   1.071 -0.0369 -1.7060  0.7469
  569MOL0     H76799   8.153   6.673   0.746  1.6012  1.5850  1.1048
  569MOL0     H76800   7.967   6.532   0.722 -0.5377 -1.3207  0.9731
  569MOL0     H76801   7.631   6.299   0.917  0.3473  0.8390 -1.4645
  569MOL0     H76802   7.435   6.168   0.985  1.2779 -0.4663 -1.2587
  569MOL0     H76803   7.219   6.088   1.080  1.9947 -1.5890 -1.3941
  569MOL0     H76804   7.268   6.042   0.914 -0.1034 -0.5268 -0.8850
  569MOL0     H76805   6.977   6.071   0.998 -0.2231 -0.4778  0.7976
  569MOL0     H76806   7.062   5.919   0.951 -1.2129  0.4079  0.1078
  569MOL0     H76807   7.097   6.020   0.731 -0.3239 -0.0497  0.5511
  569MOL0     H76808   7.008   6.152   0.776  2.5196 -0.6428 -4.6314
  569MOL0     H76809   6.881   6.002   0.626  3.0076  1.6359  0.4750
  569MOL0     H76810   6.859   5.877   0.741  0.8541 -0.2507 -0.4723
  569MOL0     H76811   6.585   6.149   0.901 -1.7999  1.3560 -3.2733
  569MOL0     H76812   7.168   6.462   0.844  0.7071  1.7536  1.7149
  569MOL0     H76813   7.352   6.638   0.643  0.1137 -0.8379 -0.1010
  569MOL0     H76814   7.251   6.669   0.793  0.3581  2.3416 -0.1359
  569MOL0     H76815   7.426   6.711   0.789 -1.2659  0.9938  1.8811
  570MOL0     O76816   6.161   1.225   8.553 -0.0118  0.3519 -0.6060
  570MOL0     C76817   6.146   1.114   8.596 -0.3809  0.8576 -0.3812
  570MOL0     O76818   6.239   1.033   8.656 -0.0339  0.3114 -0.7954
  570MOL0     C76819   6.363   1.067   8.669  0.1615 -0.3742  0.2465
  570MOL0     C76820   6.408   1.142   8.778 -0.0039  0.2083  0.2763
  570MOL0     C76821   6.548   1.155   8.809  0.5888  0.1451  0.8578
  570MOL0     C76822   6.640   1.102   8.724 -0.7509  0.3352  0.1884
  570MOL0     O76823   6.775   1.121   8.746  0.3431 -0.3802 -0.4991
  570MOL0     C76824   6.874   1.029   8.697  1.3640 -0.0922 -0.3831
  570MOL0     C76825   7.005   1.046   8.768  0.3914 -0.4223  0.7225
  570MOL0     C76826   7.100   1.159   8.731 -0.9391  0.2840  0.5472
  570MOL0     C76827   7.201   1.189   8.843 -0.8073  0.0212 -0.3042
  570MOL0     C76828   7.314   1.294   8.819 -0.2663 -0.8832 -0.0513
  570MOL0     C76829   7.256   1.422   8.754 -0.8311  0.1060  1.2373
  570MOL0     C76830   7.387   1.505   8.722 -0.8751 -0.4011 -0.2707
  570MOL0     C76831   7.357   1.615   8.622 -0.2931 -1.0792 -0.0492
  570MOL0     N76832   7.343   1.566   8.485 -0.2800  0.3156  0.2198
  570MOL0     C76833   7.221   1.572   8.425  0.2267 -0.6014 -0.3691
  570MOL0     C76834   7.233   1.510   8.313 -0.5232  0.0607 -0.3225
  570MOL0     C76835   7.138   1.478   8.212  0.2930 -0.5838  0.1990
  570MOL0     C76836   7.053   1.594   8.153 -0.3293 -0.6337 -0.6601
  570MOL0     C76837   7.130   1.722   8.108  0.0649  0.3624 -0.5390
  570MOL0     C76838   7.259   1.702   8.028  1.5409  0.0489  0.2636
  570MOL0     O76839   7.296   1.813   7.958 -0.8172 -0.2775 -0.3651
  570MOL0     C76840   7.423   1.813   7.907  0.4952 -0.6128  0.1140
  570MOL0     C76841   7.503   1.698   7.884  1.1846 -0.5821 -0.1857
  570MOL0     C76842   7.616   1.704   7.818 -0.3255  0.0268  0.6684
  570MOL0     C76843   7.674   1.832   7.778  0.2577  0.4788 -0.2953
  570MOL0     C76844   7.803   1.838   7.704  0.4202  0.2808  0.8802
  570MOL0     O76845   7.842   1.725   7.638  0.8584 -0.0334  0.3250
  570MOL0     C76846   7.964   1.725   7.576 -0.6724 -1.4199  0.3344
  570MOL0     C76847   7.973   1.711   7.437  0.0643 -0.7721  0.5078
  570MOL0     C76848   8.095   1.704   7.359  0.4168  0.0113 -0.1650
  570MOL0     C76849   8.212   1.732   7.422 -0.3185  0.2348  0.0317
  570MOL0     O76850   8.343   1.743   7.371  0.6432  0.3309 -0.2818
  570MOL0     C76851   8.378   1.672   7.255  0.8466 -1.0352 -0.2119
  570MOL0     C76852   8.529   1.667   7.223 -0.2801  0.0330  0.7515
  570MOL0     C76853   8.600   1.806   7.197  0.7171  0.3626 -0.7834
  570MOL0     C76854   8.646   1.863   7.331 -0.2863 -0.0293 -0.6632
  570MOL0     C76855   8.750   1.975   7.313 -0.0817  0.6097  0.0914
  570MOL0     C76856   8.878   1.916   7.248 -0.1020 -1.0936 -0.2006
  570MOL0     C76857   8.983   2.025   7.238  0.0480 -0.1588  0.3372
  570MOL0     C76858   8.943   2.147   7.157 -0.0299  0.5329  0.0962
  570MOL0    Cl76859   9.079   2.251   7.107  0.2556  0.2689 -0.1648
  570MOL0     C76860   8.209   1.756   7.557  1.3251  0.0997 -0.3737
  570MOL0     C76861   8.089   1.749   7.639  0.1765  0.2234 -0.8686
  570MOL0     O76862   7.855   1.948   7.694 -0.5043 -0.1501  0.2552
  570MOL0     C76863   7.597   1.947   7.811  0.1677  0.3031  0.3845
  570MOL0     C76864   7.476   1.934   7.873  0.5407  0.3029 -0.0401
  570MOL0     N76865   7.357   1.457   8.315 -0.2253 -0.2793  0.1739
  570MOL0     N76866   7.426   1.491   8.416  0.0283  0.5619  0.1907
  570MOL0     C76867   6.592   1.031   8.614 -0.3600  1.1734  0.0619
  570MOL0     C76868   6.455   1.009   8.586 -0.2500  0.6847 -0.0980
  570MOL0     C76869   6.006   1.064   8.585  0.4614 -0.3111  0.4806
  570MOL0     C76870   5.933   1.089   8.466  0.7160  0.0746 -0.6176
  570MOL0     C76871   5.794   1.051   8.456  0.0117  0.7312 -0.0908
  570MOL0     C76872   5.729   0.996   8.572 -0.2011 -0.3150  0.8539
  570MOL0     O76873   5.600   0.949   8.562 -0.0014  0.3741  0.2916
  570MOL0     C76874   5.510   1.061   8.560  0.6173 -1.0923  0.3322
  570MOL0     C76875   5.377   1.038   8.484  0.1634  0.7137  0.6554
  570MOL0     C76876   5.265   0.988   8.581  0.3250  0.2390  0.7457
  570MOL0     C76877   5.123   0.982   8.526  0.2940 -0.2678  0.1455
  570MOL0     C76878   5.077   1.108   8.466 -0.6561 -0.9196  0.5398
  570MOL0     C76879   5.051   1.212   8.409 -0.2444  0.6497 -1.0619
  570MOL0     C76880   5.799   0.978   8.687 -0.5015 -0.5335  0.4264
  570MOL0     C76881   5.938   1.006   8.697 -0.5843  0.0071  0.5527
  570MOL0     C76882   5.997   0.966   8.827 -0.5429  0.2523  1.1899
  570MOL0     H76883   6.334   1.183   8.846 -1.0662 -3.1610  1.3496
  570MOL0     H76884   6.583   1.212   8.894 -1.3413  0.4929  1.4673
  570MOL0     H76885   6.839   0.927   8.714  1.7330 -0.2113 -0.3319
  570MOL0     H76886   6.887   1.040   8.589  2.2038  1.9305 -0.1206
  570MOL0     H76887   7.057   0.954   8.741 -1.2558 -0.9472 -0.8694
  570MOL0     H76888   6.975   1.044   8.873  1.1206  1.0829  0.9884
  570MOL0     H76889   7.042   1.247   8.701  2.3011  3.0811  1.8549
  570MOL0     H76890   7.157   1.129   8.642  1.7661  0.6834  2.0422
  570MOL0     H76891   7.144   1.238   8.923 -2.2914  2.5199 -2.7025
  570MOL0     H76892   7.241   1.096   8.884 -1.0687  0.2461  0.4919
  570MOL0     H76893   7.373   1.311   8.909  0.2789 -1.5836 -0.2678
  570MOL0     H76894   7.379   1.239   8.751 -0.1121 -2.2561  1.1478
  570MOL0     H76895   7.211   1.399   8.657  0.1396  2.6120  0.1214
  570MOL0     H76896   7.183   1.473   8.818 -1.7870 -0.5859  0.7165
  570MOL0     H76897   7.473   1.451   8.682 -1.3749 -1.9606  0.6885
  570MOL0     H76898   7.433   1.537   8.816  3.6987  0.7303 -2.5755
  570MOL0     H76899   7.274   1.680   8.651 -1.0852 -2.4285  0.8331
  570MOL0     H76900   7.448   1.675   8.634 -2.5454  2.2454  2.4600
  570MOL0     H76901   7.129   1.621   8.455 -0.1765 -0.9910 -0.9520
  570MOL0     H76902   7.208   1.430   8.142  2.4195  0.5314  1.4511
  570MOL0     H76903   7.064   1.405   8.243 -1.5768  0.6369 -1.1576
  570MOL0     H76904   7.001   1.556   8.064  1.9843 -0.2361 -2.2679
  570MOL0     H76905   6.982   1.626   8.229  0.1263  1.3353 -0.9986
  570MOL0     H76906   7.161   1.776   8.198 -0.3257 -1.1425  0.5373
  570MOL0     H76907   7.062   1.798   8.067  0.8927  2.9779  2.5228
  570MOL0     H76908   7.244   1.624   7.953  2.4510 -0.0638  0.1796
  570MOL0     H76909   7.334   1.668   8.100 -1.3109  0.2543  3.5884
  570MOL0     H76910   7.468   1.599   7.911 -1.9239 -0.2705 -2.4842
  570MOL0     H76911   7.669   1.611   7.798 -2.5665 -1.0496 -0.5832
  570MOL0     H76912   7.876   1.704   7.390 -0.0668 -2.2192  0.9512
  570MOL0     H76913   8.095   1.684   7.252  0.7361  1.1967 -0.3993
  570MOL0     H76914   8.330   1.574   7.265 -2.6409  0.5381 -0.1675
  570MOL0     H76915   8.323   1.709   7.168  2.8355 -0.1489 -1.1591
  570MOL0     H76916   8.585   1.600   7.288  0.9474 -0.1457 -0.4486
  570MOL0     H76917   8.545   1.608   7.132  0.0602 -4.0434  3.1899
  570MOL0     H76918   8.688   1.794   7.132  2.0572  0.0867  0.9952
  570MOL0     H76919   8.540   1.879   7.142  0.8778  1.6595  0.6860
  570MOL0     H76920   8.690   1.784   7.392  0.8323  0.0129 -1.3831
  570MOL0     H76921   8.560   1.901   7.387 -1.9295 -3.0546 -0.9124
  570MOL0     H76922   8.774   2.019   7.410  1.2104  0.4355 -0.1261
  570MOL0     H76923   8.703   2.043   7.242  0.1497  2.3625  1.5583
  570MOL0     H76924   8.909   1.827   7.302 -0.6025 -1.9228 -1.2300
  570MOL0     H76925   8.864   1.882   7.145  1.8084  2.8840 -1.9998
  570MOL0     H76926   9.073   1.974   7.201 -0.8026 -0.8416 -0.8703
  570MOL0     H76927   9.006   2.065   7.337  0.2182 -1.1740  0.7272
  570MOL0     H76928   8.887   2.112   7.069  0.6915 -0.7324  0.1213
  570MOL0     H76929   8.860   2.199   7.206 -0.7755  0.3014 -0.8936
  570MOL0     H76930   8.300   1.785   7.610  1.3465 -0.9915  0.2161
  570MOL0     H76931   8.092   1.771   7.745  0.0250 -1.6323 -0.4505
  570MOL0     H76932   7.627   2.048   7.788 -3.0379  1.4701  0.8030
  570MOL0     H76933   7.424   2.026   7.898  0.3481  0.8511 -2.2513
  570MOL0     H76934   6.665   0.992   8.544  0.5486 -0.3671  1.7804
  570MOL0     H76935   6.419   0.944   8.507 -1.3290 -2.6440  2.8719
  570MOL0     H76936   5.985   1.124   8.377 -2.3061 -0.7677 -2.9104
  570MOL0     H76937   5.744   1.073   8.362 -0.2882  0.8439  0.0953
  570MOL0     H76938   5.550   1.155   8.521  1.5512 -0.6499  2.2552
  570MOL0     H76939   5.487   1.084   8.665  0.9262 -0.4075  0.2544
  570MOL0     H76940   5.415   0.973   8.404 -0.6447 -1.6853  2.1144
  570MOL0     H76941   5.337   1.128   8.435  1.6447  0.4326 -1.1961
  570MOL0     H76942   5.259   1.063   8.660 -3.0184  1.7348 -0.7271
  570MOL0     H76943   5.287   0.889   8.621 -1.0381 -0.4130 -0.0486
  570MOL0     H76944   5.117   0.915   8.440 -0.8149  2.3855 -1.9629
  570MOL0     H76945   5.051   0.936   8.595  1.2956 -0.3702  1.1470
  570MOL0     H76946   5.029   1.303   8.357  0.5147  0.4558 -1.7342
  570MOL0     H76947   5.745   0.921   8.761 -1.7404 -0.8288 -0.6695
  570MOL0     H76948   6.062   0.879   8.819 -0.5423  0.3459 -0.0493
  570MOL0     H76949   6.064   1.044   8.865 -1.4150  0.6573  1.9571
  570MOL0     H76950   5.914   0.949   8.897  0.4743 -1.7179  1.9804
  571MOL0     O76951   1.253   0.546   7.923 -0.2150  0.1809 -0.1957
  571MOL0     C76952   1.177   0.484   8.003 -0.4800  1.0902 -0.1397
  571MOL0     O76953   1.208   0.419   8.122  0.5297 -0.5920  0.0155
  571MOL0     C76954   1.336   0.439   8.169  0.4925 -0.3005  0.6812
  571MOL0     C76955   1.422   0.332   8.159 -0.2566 -0.4672  0.9435
  571MOL0     C76956   1.557   0.338   8.195  0.5275 -0.0245 -0.3963
  571MOL0     C76957   1.603   0.456   8.264  0.7682  0.1710 -0.4574
  571MOL0     O76958   1.727   0.440   8.316 -0.7898  0.2614  0.1384
  571MOL0     C76959   1.809   0.561   8.337 -0.0337 -0.0267 -0.4769
  571MOL0     C76960   1.935   0.516   8.419 -0.1590  0.7548  0.4401
  571MOL0     C76961   2.028   0.418   8.336  0.5803  0.0302  0.2094
  571MOL0     C76962   2.057   0.464   8.192  0.1167 -0.4410  0.5571
  571MOL0     C76963   2.191   0.405   8.132  1.0572 -0.2512 -0.7213
  571MOL0     C76964   2.226   0.466   7.995 -0.5337  0.0977 -1.4188
  571MOL0     C76965   2.289   0.608   8.015 -0.7347  0.7622 -0.5393
  571MOL0     C76966   2.419   0.619   7.935  0.4256 -0.8417  0.3207
  571MOL0     N76967   2.528   0.526   7.973 -0.0831  0.0921 -0.1872
  571MOL0     C76968   2.606   0.462   7.882  0.1061 -0.2008 -0.3901
  571MOL0     C76969   2.710   0.414   7.957 -0.3264 -0.2959  0.2884
  571MOL0     C76970   2.828   0.322   7.919 -0.2999 -0.5479  0.6666
  571MOL0     C76971   2.954   0.392   7.854  0.3619 -0.1686  0.3379
  571MOL0     C76972   3.032   0.488   7.942 -0.1262 -0.1369 -1.1212
  571MOL0     C76973   3.134   0.568   7.861  0.4901  0.1680  1.4030
  571MOL0     O76974   3.208   0.486   7.774 -0.0644  0.4258 -0.3003
  571MOL0     C76975   3.347   0.477   7.807  0.7809  0.4301 -0.2432
  571MOL0     C76976   3.390   0.462   7.936  0.8049 -0.3254 -0.2065
  571MOL0     C76977   3.521   0.449   7.962 -0.2855 -0.5938  0.1798
  571MOL0     C76978   3.616   0.453   7.862  0.1490 -0.3646  1.1352
  571MOL0     C76979   3.749   0.433   7.896 -0.5676  0.2627  0.1233
  571MOL0     O76980   3.830   0.413   7.783  0.5066  0.0319 -0.1533
  571MOL0     C76981   3.954   0.362   7.794 -0.3361 -0.2427 -0.3972
  571MOL0     C76982   4.035   0.377   7.681 -0.0506 -0.5071 -0.0590
  571MOL0     C76983   4.175   0.339   7.690  0.0675 -0.3718  0.8512
  571MOL0     C76984   4.235   0.295   7.810  0.8178 -0.1704  0.1025
  571MOL0     O76985   4.373   0.282   7.805  0.0582  0.3007 -0.3886
  571MOL0     C76986   4.430   0.279   7.939 -0.1470 -0.9549  0.2020
  571MOL0     C76987   4.491   0.145   7.973  0.4426 -0.3785  0.3659
  571MOL0     C76988   4.587   0.147   8.088  1.0043  0.6884 -0.1809
  571MOL0     C76989   4.512   0.192   8.215 -0.1871 -0.5815 -0.1400
  571MOL0     C76990   4.598   0.162   8.334  0.9771  0.0429  0.1545
  571MOL0     C76991   4.713   0.262   8.345  0.4811  0.3710  0.3433
  571MOL0     C76992   4.831   0.203   8.419  0.7701 -0.9073  0.0167
  571MOL0     C76993   4.945   0.304   8.440  0.2002 -0.2987  0.1607
  571MOL0    Cl76994   4.885   0.462   8.523 -0.1583 -0.3302  0.0305
  571MOL0     C76995   4.145   0.265   7.912  0.1114 -1.0214  0.7308
  571MOL0     C76996   4.012   0.298   7.902  0.7580 -0.5839  0.8178
  571MOL0     O76997   3.783   0.456   8.014 -0.4208 -0.0628  0.3578
  571MOL0     C76998   3.573   0.469   7.729  0.1587 -0.7000  0.9617
  571MOL0     C76999   3.437   0.473   7.699 -0.4195  0.0379  0.4300
  571MOL0     N77000   2.692   0.459   8.090  0.9210  0.2376 -0.1645
  571MOL0     N77001   2.580   0.517   8.103 -0.4222  0.6689 -0.0550
  571MOL0     C77002   1.518   0.572   8.274  0.1016 -0.9297 -0.4063
  571MOL0     C77003   1.381   0.551   8.230  0.5334 -0.2781  0.2530
  571MOL0     C77004   1.041   0.466   7.954 -1.0313 -0.4555  0.2699
  571MOL0     C77005   1.031   0.414   7.821 -1.3886 -0.2401  0.7262
  571MOL0     C77006   0.908   0.403   7.761 -0.7377  0.3624  0.2184
  571MOL0     C77007   0.792   0.458   7.820  0.1838 -0.3459 -0.1027
  571MOL0     O77008   0.667   0.459   7.760  0.4608  0.0448  0.4955
  571MOL0     C77009   0.646   0.356   7.661  0.1760  0.1502 -0.0102
  571MOL0     C77010   0.499   0.348   7.637  0.3420  0.3673  0.3857
  571MOL0     C77011   0.456   0.482   7.560  0.3644  0.1394  0.4166
  571MOL0     C77012   0.311   0.482   7.522 -0.1960  0.1612 -0.3656
  571MOL0     C77013   0.262   0.353   7.457  0.2229 -0.2889 -1.4310
  571MOL0     C77014   0.227   0.257   7.401  0.1632 -0.4955 -0.1727
  571MOL0     C77015   0.800   0.510   7.947  0.1578 -0.1291 -0.3240
  571MOL0     C77016   0.919   0.508   8.024 -0.8814  1.1975  0.6272
  571MOL0     C77017   0.920   0.571   8.161  1.1585  0.2470  0.1636
  571MOL0     H77018   1.376   0.247   8.111 -0.0218  0.0914 -0.3013
  571MOL0     H77019   1.624   0.253   8.185 -0.3558 -0.7093 -0.6632
  571MOL0     H77020   1.836   0.594   8.236  0.6509  1.2021  0.0834
  571MOL0     H77021   1.755   0.631   8.402 -0.6948 -1.3811  0.4736
  571MOL0     H77022   1.898   0.464   8.508  0.4019 -0.4491 -0.0088
  571MOL0     H77023   1.992   0.605   8.446 -0.2622  1.2909 -1.0342
  571MOL0     H77024   1.976   0.322   8.323  1.2803 -0.2934 -0.2722
  571MOL0     H77025   2.119   0.391   8.391  0.1928 -0.6319  0.5394
  571MOL0     H77026   1.968   0.447   8.131  0.1331  1.2591 -0.0204
  571MOL0     H77027   2.072   0.572   8.179  2.2009 -0.6816  0.5662
  571MOL0     H77028   2.271   0.417   8.205  0.3998 -0.9234  0.1310
  571MOL0     H77029   2.175   0.297   8.125  2.1104 -0.2802 -3.7350
  571MOL0     H77030   2.309   0.409   7.951  0.9340  2.1801 -1.5261
  571MOL0     H77031   2.138   0.465   7.930 -0.1280  0.0030 -1.9770
  571MOL0     H77032   2.327   0.621   8.117 -0.6393 -1.5581 -0.2223
  571MOL0     H77033   2.222   0.691   7.994 -0.7549  0.5944 -1.1630
  571MOL0     H77034   2.394   0.594   7.831 -0.8023 -2.4707  0.9615
  571MOL0     H77035   2.445   0.725   7.939 -2.1356 -0.1868  3.0865
  571MOL0     H77036   2.589   0.455   7.775  0.3306  0.7044 -0.4957
  571MOL0     H77037   2.864   0.281   8.014  0.1415 -0.6146  0.4754
  571MOL0     H77038   2.795   0.245   7.849  1.4532 -1.7876  1.1175
  571MOL0     H77039   3.016   0.315   7.807 -0.0903  0.0976 -0.7180
  571MOL0     H77040   2.906   0.462   7.785 -0.0086 -0.1015  0.6608
  571MOL0     H77041   3.079   0.434   8.025  1.1093  0.1577 -1.6082
  571MOL0     H77042   2.965   0.559   7.992  0.6880  0.0022 -0.1737
  571MOL0     H77043   3.201   0.628   7.924 -0.7333  2.8480  0.3026
  571MOL0     H77044   3.074   0.640   7.804  1.6859 -1.2577 -1.8865
  571MOL0     H77045   3.314   0.437   8.009  2.6180  0.5796  2.1198
  571MOL0     H77046   3.534   0.418   8.065 -0.0262 -2.6737 -0.4370
  571MOL0     H77047   3.989   0.413   7.590 -0.3526  1.5075  0.8332
  571MOL0     H77048   4.240   0.366   7.607  1.0313 -0.6756  1.4972
  571MOL0     H77049   4.505   0.357   7.927 -1.4333 -0.1019 -4.6186
  571MOL0     H77050   4.364   0.305   8.023  1.3702 -1.9626  1.7655
  571MOL0     H77051   4.416   0.069   7.996 -0.4011  0.7073  1.3258
  571MOL0     H77052   4.542   0.105   7.885 -1.3424  0.4975 -1.1363
  571MOL0     H77053   4.636   0.050   8.096 -2.8977 -1.5619 -1.1288
  571MOL0     H77054   4.666   0.218   8.064  2.0492 -0.3431  0.1355
  571MOL0     H77055   4.419   0.134   8.219  1.5007 -3.4586 -0.2573
  571MOL0     H77056   4.489   0.299   8.209  4.3597  0.6362  0.2266
  571MOL0     H77057   4.649   0.066   8.323  1.4447  0.2986  0.0336
  571MOL0     H77058   4.532   0.168   8.422  0.5718  2.2387 -0.2345
  571MOL0     H77059   4.753   0.273   8.244 -0.7570  1.3357 -0.0776
  571MOL0     H77060   4.683   0.361   8.381  0.9006  1.2153 -1.4917
  571MOL0     H77061   4.869   0.116   8.364 -0.9159 -3.5388  2.6472
  571MOL0     H77062   4.805   0.171   8.521 -2.5123  4.1241  1.1104
  571MOL0     H77063   5.021   0.263   8.507 -0.3236  2.3062  2.5539
  571MOL0     H77064   4.992   0.328   8.345  0.0932 -0.9479 -0.0634
  571MOL0     H77065   4.181   0.235   8.010  1.5851  0.7044  0.7880
  571MOL0     H77066   3.949   0.293   7.990  0.4859  1.0196  0.7378
  571MOL0     H77067   3.632   0.473   7.638 -1.6498 -0.0423 -0.2333
  571MOL0     H77068   3.395   0.478   7.599 -1.0503 -1.2299  0.6109
  571MOL0     H77069   1.553   0.663   8.322 -1.1183 -0.0521 -1.1042
  571MOL0     H77070   1.307   0.630   8.243  1.6735  0.5649  1.9504
  571MOL0     H77071   1.122   0.382   7.773 -0.7023 -0.4517  2.1379
  571MOL0     H77072   0.902   0.353   7.665  2.8623 -0.7199  0.4116
  571MOL0     H77073   0.676   0.266   7.715  1.7687  1.9295  2.3008
  571MOL0     H77074   0.700   0.384   7.569 -1.0367  3.6780  0.1945
  571MOL0     H77075   0.431   0.330   7.721  0.7817 -1.9330  0.2902
  571MOL0     H77076   0.478   0.260   7.576 -1.3593 -0.5569  2.1938
  571MOL0     H77077   0.517   0.490   7.469 -0.3219 -0.6616 -0.1274
  571MOL0     H77078   0.468   0.578   7.612  0.7335  0.5401 -0.3864
  571MOL0     H77079   0.253   0.497   7.614  2.5803  1.3850  1.3131
  571MOL0     H77080   0.286   0.570   7.462 -0.1850  0.5522  0.1886
  571MOL0     H77081   0.183   0.170   7.357  0.1820 -0.4670 -0.2492
  571MOL0     H77082   0.714   0.551   7.999  0.7868 -0.5045  1.0608
  571MOL0     H77083   0.826   0.623   8.182  1.2138  0.1165  0.7529
  571MOL0     H77084   0.935   0.482   8.223  3.8723 -1.5974 -2.8129
  571MOL0     H77085   1.010   0.631   8.176  1.4908 -0.0630 -0.5676
  572MOL0     O77086  10.938   2.918   2.217  0.3459 -0.2434 -0.2843
  572MOL0     C77087  10.890   2.879   2.113  0.0024  0.1565  0.3155
  572MOL0     O77088  10.963   2.812   2.020 -0.4481 -0.5894  0.2426
  572MOL0     C77089  11.102   2.824   1.997  0.7665  1.0453 -0.3369
  572MOL0     C77090  11.163   2.748   1.893 -0.2718  0.2846 -0.1320
  572MOL0     C77091  11.300   2.750   1.867 -0.4265  0.2465 -0.7739
  572MOL0     C77092  11.385   2.826   1.936  0.3394 -0.4679  0.1164
  572MOL0     O77093  11.517   2.816   1.902 -0.1340 -0.5857 -0.1076
  572MOL0     C77094  11.610   2.897   1.983  0.0844 -0.0213 -0.1159
  572MOL0     C77095  11.754   2.865   1.932 -0.2994  0.2444  0.6021
  572MOL0     C77096  11.859   2.968   1.960  0.7430  0.0274 -0.1431
  572MOL0     C77097  11.842   3.107   1.888  0.5457 -0.2726  0.1221
  572MOL0     C77098  11.847   3.103   1.733  0.1385 -0.0160 -0.5253
  572MOL0     C77099  11.976   3.030   1.673 -0.4498  0.6530 -0.7108
  572MOL0     C77100  12.104   3.114   1.713 -0.4228  0.0981 -0.1430
  572MOL0     C77101  12.232   3.040   1.693  0.2497 -0.2558  0.7768
  572MOL0     N77102  12.342   3.097   1.771  0.2607 -0.2556  0.2517
  572MOL0     C77103  12.393   3.225   1.759  0.4542  0.7483 -0.0566
  572MOL0     C77104  12.468   3.242   1.878  0.0278  0.0675  0.2315
  572MOL0     C77105  12.540   3.373   1.918  0.4493 -0.0921 -0.8946
  572MOL0     C77106  12.685   3.341   1.964  0.6358  0.1553 -0.1009
  572MOL0     C77107  12.733   3.461   2.051  0.3110 -0.5957 -0.5442
  572MOL0     C77108  12.882   3.454   2.066 -0.5473  0.1764 -0.2470
  572MOL0     O77109  12.961   3.423   1.949 -0.0414  0.4541  1.1761
  572MOL0     C77110  13.096   3.386   1.966  0.5511  0.0120  0.2371
  572MOL0     C77111  13.169   3.406   2.083 -0.4839  0.5425 -0.2413
  572MOL0     C77112  13.301   3.372   2.102  0.3631  0.3780  0.2382
  572MOL0     C77113  13.368   3.307   1.988 -0.4065  0.7188 -0.3670
  572MOL0     C77114  13.509   3.271   2.003 -0.3184  0.4959  0.2282
  572MOL0     O77115  13.579   3.213   1.902 -0.1824  0.3131  1.1354
  572MOL0     C77116  13.715   3.191   1.910  0.6325 -0.9586  0.1760
  572MOL0     C77117  13.755   3.057   1.884  0.1607 -0.0795 -0.2590
  572MOL0     C77118  13.884   3.022   1.874 -0.5182 -0.2746 -0.0863
  572MOL0     C77119  13.985   3.121   1.882  0.2901  0.6130  0.6981
  572MOL0     O77120  14.118   3.104   1.869 -0.3005  0.1713 -0.4651
  572MOL0     C77121  14.168   2.967   1.873 -0.6600  0.3196  0.0843
  572MOL0     C77122  14.321   2.973   1.873 -0.0515  0.0016  0.2075
  572MOL0     C77123  14.388   2.837   1.846 -0.0581  0.3762 -0.5067
  572MOL0     C77124  14.536   2.844   1.841 -0.2674 -0.1543 -0.7133
  572MOL0     C77125  14.599   2.703   1.827 -0.2528  0.6477  0.5464
  572MOL0     C77126  14.601   2.643   1.971 -0.0703 -0.7720 -0.5975
  572MOL0     C77127  14.656   2.505   1.965  0.2774  0.8519  0.4772
  572MOL0     C77128  14.814   2.512   1.976 -0.7153  0.4234  0.0944
  572MOL0    Cl77129  14.861   2.339   1.976 -0.2877  0.4763  0.4434
  572MOL0     C77130  13.940   3.253   1.892 -0.0570 -0.1460 -0.4541
  572MOL0     C77131  13.813   3.291   1.907 -0.3655  0.2475  0.4635
  572MOL0     O77132  13.555   3.296   2.114  0.1243 -0.4209 -0.5962
  572MOL0     C77133  13.300   3.291   1.862  0.3112  0.1858  1.1737
  572MOL0     C77134  13.169   3.335   1.860 -0.4326 -0.0290 -0.3339
  572MOL0     N77135  12.468   3.115   1.946  0.2207  0.0278 -0.0485
  572MOL0     N77136  12.403   3.032   1.875 -0.0080 -0.3791  0.5295
  572MOL0     C77137  11.328   2.923   2.018  0.5249 -0.0708  0.3269
  572MOL0     C77138  11.191   2.913   2.056 -0.2042  0.0924 -1.6387
  572MOL0     C77139  10.740   2.888   2.086  0.3826  0.3012  0.6788
  572MOL0     C77140  10.686   2.798   1.993 -0.6469  0.3061 -0.2773
  572MOL0     C77141  10.547   2.787   1.980  0.2280 -0.5121  0.3629
  572MOL0     C77142  10.458   2.877   2.045  0.3534 -0.4629  0.1960
  572MOL0     O77143  10.324   2.869   2.003 -0.0915  0.1657  0.3012
  572MOL0     C77144  10.234   2.926   2.093 -0.5721  0.6888  1.1705
  572MOL0     C77145  10.090   2.913   2.042  0.1095  0.0156  0.3771
  572MOL0     C77146  10.052   3.012   1.932 -1.0645 -0.4453  0.0265
  572MOL0     C77147   9.942   2.965   1.840  0.0750 -0.5596  0.3484
  572MOL0     C77148   9.816   2.959   1.904  0.2495 -0.3933 -0.0844
  572MOL0     C77149   9.702   2.980   1.948 -0.7009  0.7053 -0.1966
  572MOL0     C77150  10.517   2.978   2.127 -0.2647  0.2725 -0.7779
  572MOL0     C77151  10.657   2.981   2.151 -1.0763  0.1815  0.3390
  572MOL0     C77152  10.716   3.092   2.231  0.7431 -0.2045  0.2701
  572MOL0     H77153  11.106   2.671   1.844  1.1328 -0.6558 -0.3338
  572MOL0     H77154  11.354   2.686   1.799  1.5114 -2.8898  3.2871
  572MOL0     H77155  11.583   3.003   1.982  0.3197  0.0724  1.4223
  572MOL0     H77156  11.603   2.861   2.086 -2.5946 -1.3638 -0.6825
  572MOL0     H77157  11.746   2.848   1.824 -0.4186 -2.0749  0.9146
  572MOL0     H77158  11.780   2.762   1.958 -0.2615 -0.2889 -1.3707
  572MOL0     H77159  11.955   2.924   1.929  0.5756 -1.0886  0.8445
  572MOL0     H77160  11.860   2.991   2.067 -2.3063  0.4661 -0.1209
  572MOL0     H77161  11.749   3.160   1.911  1.8779  1.4599  1.9160
  572MOL0     H77162  11.914   3.180   1.927 -0.5316  2.2453 -2.2359
  572MOL0     H77163  11.754   3.055   1.699 -0.2310 -0.7800  1.4346
  572MOL0     H77164  11.851   3.209   1.703  0.6180  0.2206  0.3499
  572MOL0     H77165  11.990   2.927   1.704 -1.1345  0.6371 -0.4500
  572MOL0     H77166  11.962   3.022   1.565  0.1512 -0.1108 -0.7406
  572MOL0     H77167  12.107   3.147   1.817  0.9263  1.8436 -0.6934
  572MOL0     H77168  12.109   3.210   1.661  0.8277 -0.0133 -0.2453
  572MOL0     H77169  12.225   2.933   1.716  1.7454 -0.3617  0.8385
  572MOL0     H77170  12.263   3.050   1.589 -0.2905  3.2609  0.8406
  572MOL0     H77171  12.362   3.298   1.686 -1.4000 -1.4160 -1.5921
  572MOL0     H77172  12.532   3.448   1.839  0.8264  2.4371  1.3136
  572MOL0     H77173  12.477   3.405   2.002  0.6854 -1.7229 -0.0567
  572MOL0     H77174  12.684   3.246   2.019  1.0311 -2.3758 -4.1065
  572MOL0     H77175  12.748   3.321   1.877  1.3422 -2.8853  0.9837
  572MOL0     H77176  12.688   3.455   2.150  1.5255 -0.3446  0.0427
  572MOL0     H77177  12.711   3.559   2.008  0.8501 -0.3117 -0.1899
  572MOL0     H77178  12.895   3.375   2.141  0.8199 -0.4110 -1.0526
  572MOL0     H77179  12.921   3.548   2.106 -1.0158  0.8073 -1.2312
  572MOL0     H77180  13.120   3.447   2.171 -1.5881 -2.6320  0.7819
  572MOL0     H77181  13.348   3.370   2.200  1.9684  1.0122 -0.4781
  572MOL0     H77182  13.673   2.988   1.866 -0.6412  0.1736  2.1603
  572MOL0     H77183  13.902   2.916   1.856  0.7017 -0.3229  1.2234
  572MOL0     H77184  14.134   2.904   1.955  3.8325 -1.1584  1.1058
  572MOL0     H77185  14.134   2.920   1.780 -0.4626 -1.1289  0.7164
  572MOL0     H77186  14.352   3.048   1.799 -2.9352  1.1220 -0.0119
  572MOL0     H77187  14.345   2.999   1.977 -1.2503  0.9812  0.2767
  572MOL0     H77188  14.355   2.767   1.923 -2.5343  2.6394  0.6301
  572MOL0     H77189  14.356   2.803   1.747  0.2996  1.1778 -0.9047
  572MOL0     H77190  14.583   2.893   1.926  0.4805 -1.9492 -0.0489
  572MOL0     H77191  14.565   2.900   1.751 -0.7236  1.9902  0.4155
  572MOL0     H77192  14.702   2.713   1.791  0.3258 -1.6143  1.4554
  572MOL0     H77193  14.541   2.642   1.757  0.3677 -0.4556  0.9742
  572MOL0     H77194  14.647   2.701   2.052  0.4645 -0.3419 -1.1946
  572MOL0     H77195  14.500   2.623   2.006  0.7646 -1.9091  1.3163
  572MOL0     H77196  14.620   2.445   1.881  1.7432  1.9900 -1.0152
  572MOL0     H77197  14.626   2.445   2.051  0.9941  0.0629  0.1914
  572MOL0     H77198  14.853   2.562   1.886 -0.5588  1.7416  0.8725
  572MOL0     H77199  14.862   2.569   2.056 -1.3684  0.5146  0.4257
  572MOL0     H77200  14.008   3.338   1.897 -0.5405  0.2523 -0.5241
  572MOL0     H77201  13.795   3.398   1.908  1.7379  0.7520 -2.9278
  572MOL0     H77202  13.361   3.255   1.780  1.7056 -0.7106  2.5574
  572MOL0     H77203  13.118   3.338   1.765 -1.1293  0.3454  0.0406
  572MOL0     H77204  11.380   3.009   2.059  0.6968 -0.4775  0.9835
  572MOL0     H77205  11.153   2.985   2.127  1.4997  2.7843 -3.2897
  572MOL0     H77206  10.749   2.724   1.944 -2.1394 -1.8392  0.8355
  572MOL0     H77207  10.507   2.715   1.909  1.9983 -1.2094  0.0122
  572MOL0     H77208  10.256   3.032   2.113  2.1483  0.1485  1.4916
  572MOL0     H77209  10.244   2.864   2.183  0.3979 -2.5458 -0.9776
  572MOL0     H77210  10.019   2.917   2.125  0.0028  2.5871  0.2518
  572MOL0     H77211  10.084   2.810   2.006 -0.3889 -1.9911  5.3792
  572MOL0     H77212  10.140   3.041   1.875  0.6990 -1.6074  2.0079
  572MOL0     H77213  10.012   3.098   1.986 -0.0949  0.4166 -0.6057
  572MOL0     H77214   9.943   3.025   1.749  1.3884 -0.2661  0.5381
  572MOL0     H77215   9.973   2.866   1.805 -0.5834 -0.4595 -0.5476
  572MOL0     H77216   9.599   2.997   1.971 -0.5388  2.9859 -0.8496
  572MOL0     H77217  10.451   3.048   2.177  1.2908  1.4752 -0.3669
  572MOL0     H77218  10.636   3.159   2.264  0.5177  1.7298 -3.6423
  572MOL0     H77219  10.772   3.066   2.322  0.5071 -0.2781  0.3950
  572MOL0     H77220  10.777   3.147   2.159 -2.0142 -0.3993 -2.4337
  573MOL0     O77221   5.642   6.434   6.296 -1.1732 -0.1552 -0.1921
  573MOL0     C77222   5.616   6.342   6.215 -0.2479  0.4767  0.2283
  573MOL0     O77223   5.700   6.269   6.137  0.5417  0.8567 -0.5002
  573MOL0     C77224   5.834   6.285   6.130 -0.0624 -0.6957 -0.1271
  573MOL0     C77225   5.893   6.242   6.010 -0.1074 -0.5238 -0.3322
  573MOL0     C77226   6.029   6.241   5.982 -0.5595 -0.0932 -0.3294
  573MOL0     C77227   6.120   6.289   6.081  0.0433  0.3226  0.1801
  573MOL0     O77228   6.254   6.287   6.058 -0.0409 -0.1950  0.9061
  573MOL0     C77229   6.342   6.194   6.127  0.0252 -1.5465 -0.4490
  573MOL0     C77230   6.482   6.256   6.108 -0.2409 -0.1916  1.0769
  573MOL0     C77231   6.588   6.160   6.171 -0.3655 -0.0688  0.7017
  573MOL0     C77232   6.729   6.217   6.174  0.1981 -0.0218 -0.2212
  573MOL0     C77233   6.825   6.163   6.285  0.9361  0.5329 -0.4560
  573MOL0     C77234   6.960   6.241   6.284  0.2434  0.6057 -0.2566
  573MOL0     C77235   7.074   6.190   6.371  0.8581 -0.0123 -0.4765
  573MOL0     C77236   7.191   6.289   6.383  0.4986 -0.0125  0.4981
  573MOL0     N77237   7.295   6.237   6.471  1.5896 -0.3921  0.3396
  573MOL0     C77238   7.276   6.174   6.584 -0.5632  0.5306  0.0645
  573MOL0     C77239   7.397   6.148   6.628  0.1802 -0.4034 -1.1066
  573MOL0     C77240   7.441   6.074   6.748  0.2592 -1.2141  0.2264
  573MOL0     C77241   7.535   5.963   6.701 -0.4572  1.5945  0.5174
  573MOL0     C77242   7.624   5.919   6.814 -0.0043 -0.5703 -0.7826
  573MOL0     C77243   7.716   5.802   6.768 -0.5070 -0.4580 -0.1153
  573MOL0     O77244   7.806   5.758   6.870 -0.2296  0.0966 -0.0697
  573MOL0     C77245   7.934   5.799   6.852 -0.0902  0.4505 -0.1616
  573MOL0     C77246   7.985   5.920   6.909  0.0305  0.1413  0.0636
  573MOL0     C77247   8.118   5.955   6.892  1.1349 -0.7571 -0.0286
  573MOL0     C77248   8.201   5.878   6.815 -0.3553  0.4004  0.4138
  573MOL0     C77249   8.337   5.906   6.802  0.4933 -0.6546  0.9320
  573MOL0     O77250   8.383   5.998   6.896 -0.1831 -0.5696 -0.0988
  573MOL0     C77251   8.512   6.008   6.930  0.3185 -0.3135 -0.3714
  573MOL0     C77252   8.608   6.052   6.839 -0.6180  0.0372 -0.4776
  573MOL0     C77253   8.743   6.062   6.880  0.2597 -0.1952  0.5742
  573MOL0     C77254   8.783   6.015   7.010  0.0830 -0.2102 -0.4829
  573MOL0     O77255   8.915   6.027   7.036 -0.0834  0.2225  0.1224
  573MOL0     C77256   8.974   5.994   7.165  0.5384 -0.8302 -0.1004
  573MOL0     C77257   9.127   5.999   7.158 -0.3914  0.7335  0.0379
  573MOL0     C77258   9.185   5.934   7.282 -0.4382  0.2731 -0.3644
  573MOL0     C77259   9.338   5.908   7.260  0.1584  0.0605 -0.0077
  573MOL0     C77260   9.419   5.860   7.374 -0.6389  0.1506 -0.5602
  573MOL0     C77261   9.565   5.907   7.360 -0.1474  0.0690 -1.6348
  573MOL0     C77262   9.656   5.866   7.472  0.7782  0.5220 -0.1833
  573MOL0     C77263   9.771   5.963   7.485  0.7775  0.2944  0.0150
  573MOL0    Cl77264   9.884   5.941   7.349  0.1428 -0.0518  0.5807
  573MOL0     C77265   8.682   5.978   7.104  0.1549  0.0500 -0.1863
  573MOL0     C77266   8.547   5.978   7.064  0.6744 -0.3967  0.0194
  573MOL0     O77267   8.396   5.860   6.703 -0.0217 -0.2545  0.1070
  573MOL0     C77268   8.152   5.762   6.743  0.1386 -1.0341 -0.2199
  573MOL0     C77269   8.017   5.733   6.760  0.4725 -0.2845  0.1825
  573MOL0     N77270   7.488   6.199   6.542 -0.0571 -0.0026 -0.2795
  573MOL0     N77271   7.422   6.248   6.444  0.1327  0.3765 -0.4520
  573MOL0     C77272   6.068   6.340   6.198 -0.1935 -0.6231 -0.4690
  573MOL0     C77273   5.929   6.336   6.219 -0.6004 -0.8961  0.1619
  573MOL0     C77274   5.478   6.310   6.191  0.5126 -0.1342  0.0428
  573MOL0     C77275   5.445   6.276   6.060 -0.2778  0.3473 -0.3503
  573MOL0     C77276   5.317   6.237   6.027  0.0716 -0.3912 -0.4715
  573MOL0     C77277   5.218   6.245   6.121  0.5948 -0.0522  1.1179
  573MOL0     O77278   5.088   6.212   6.079  0.4827 -0.2047 -0.4895
  573MOL0     C77279   4.980   6.204   6.173  0.4617 -0.4508  0.6762
  573MOL0     C77280   4.859   6.143   6.108  0.4142  0.8153  0.5460
  573MOL0     C77281   4.753   6.103   6.210  0.5135 -0.1691  0.8688
  573MOL0     C77282   4.630   6.061   6.147  0.2384 -0.0585  0.1512
  573MOL0     C77283   4.513   6.043   6.238  0.1259 -0.1790  1.1705
  573MOL0     C77284   4.411   6.038   6.303  0.5667 -0.2818 -0.2704
  573MOL0     C77285   5.246   6.291   6.247  0.3120  0.4865 -0.3133
  573MOL0     C77286   5.369   6.329   6.287  0.2117 -0.6982  0.3719
  573MOL0     C77287   5.383   6.387   6.422 -0.8057  0.0350 -0.9333
  573MOL0     H77288   5.827   6.198   5.936  1.2910 -1.3469 -1.1551
  573MOL0     H77289   6.066   6.213   5.884  1.9440  0.1127  0.4803
  573MOL0     H77290   6.322   6.211   6.233  0.1404  0.3531 -0.7015
  573MOL0     H77291   6.329   6.088   6.102 -0.6330 -1.0087 -2.6439
  573MOL0     H77292   6.479   6.350   6.164  0.1114  0.9705 -0.7519
  573MOL0     H77293   6.511   6.266   6.003  1.2430  0.6988  1.5409
  573MOL0     H77294   6.598   6.071   6.108  0.6564 -0.4444  1.3759
  573MOL0     H77295   6.554   6.124   6.268 -0.7582 -1.4743  0.0795
  573MOL0     H77296   6.772   6.181   6.081  0.5025 -0.6934  0.1709
  573MOL0     H77297   6.739   6.325   6.187 -1.0736  0.0190  0.6752
  573MOL0     H77298   6.773   6.181   6.379  0.5328 -2.9163  0.0801
  573MOL0     H77299   6.834   6.057   6.263 -1.8138  0.4713 -1.6077
  573MOL0     H77300   6.999   6.231   6.183 -0.4373 -1.7675 -0.3566
  573MOL0     H77301   6.951   6.345   6.318 -0.8577 -0.4915  3.2524
  573MOL0     H77302   7.116   6.100   6.325 -0.3514 -0.5659 -0.5512
  573MOL0     H77303   7.043   6.157   6.471  3.4204  1.7635  1.0233
  573MOL0     H77304   7.225   6.306   6.280 -2.3840  1.6597 -0.2820
  573MOL0     H77305   7.161   6.388   6.418 -3.2539  0.3903 -3.0968
  573MOL0     H77306   7.181   6.146   6.628 -0.6367  0.3354 -0.2169
  573MOL0     H77307   7.491   6.155   6.801 -1.8442  1.9960 -2.3011
  573MOL0     H77308   7.361   6.032   6.810 -0.6429  0.3323  0.1650
  573MOL0     H77309   7.477   5.874   6.676 -0.9839  2.2631 -0.7612
  573MOL0     H77310   7.593   5.998   6.615 -1.2667  2.6550  0.3661
  573MOL0     H77311   7.568   5.881   6.899 -1.0526 -2.2066 -2.1494
  573MOL0     H77312   7.683   6.005   6.847 -2.6492  1.1339 -0.1798
  573MOL0     H77313   7.761   5.834   6.674 -2.2873  1.2327 -0.4580
  573MOL0     H77314   7.658   5.710   6.756 -1.4311  0.1375 -0.2958
  573MOL0     H77315   7.916   5.980   6.967  0.7428  0.5401  0.5069
  573MOL0     H77316   8.154   6.044   6.943  1.7222 -1.0187  0.0160
  573MOL0     H77317   8.589   6.094   6.740 -0.0324 -1.9230 -1.4705
  573MOL0     H77318   8.822   6.092   6.812  1.2442 -1.4049  1.1326
  573MOL0     H77319   8.949   6.067   7.242 -1.6746 -2.8700  1.2763
  573MOL0     H77320   8.937   5.895   7.191 -0.2531 -0.7720 -0.9564
  573MOL0     H77321   9.159   5.950   7.066 -0.1696  3.8855 -1.7287
  573MOL0     H77322   9.168   6.101   7.156 -0.2612  0.6719 -0.6408
  573MOL0     H77323   9.177   6.007   7.362  1.2732  1.0158 -0.8155
  573MOL0     H77324   9.134   5.842   7.312  0.0606 -0.7464 -2.4409
  573MOL0     H77325   9.381   6.006   7.238 -0.2691  0.1938 -0.2541
  573MOL0     H77326   9.354   5.839   7.177 -1.5176 -0.1747 -0.1637
  573MOL0     H77327   9.412   5.751   7.368  0.0844  0.1188 -0.9141
  573MOL0     H77328   9.378   5.889   7.471  0.3225  0.7683 -0.3319
  573MOL0     H77329   9.601   5.878   7.261  1.7757 -1.4715 -0.5468
  573MOL0     H77330   9.555   6.016   7.364  0.1517  0.0831  0.8522
  573MOL0     H77331   9.696   5.768   7.445 -0.5793 -0.4276  1.1347
  573MOL0     H77332   9.609   5.861   7.571  0.4214  1.0197 -0.3244
  573MOL0     H77333   9.733   6.066   7.483  0.6929  0.3176 -3.6715
  573MOL0     H77334   9.823   5.942   7.579 -0.4679  2.2304  1.2022
  573MOL0     H77335   8.713   5.954   7.205 -1.5775 -0.5086  0.2436
  573MOL0     H77336   8.467   5.945   7.129  0.3410 -0.6824 -0.5235
  573MOL0     H77337   8.214   5.683   6.703 -0.0377 -1.8049  0.9530
  573MOL0     H77338   7.986   5.648   6.700  2.3909 -0.7716 -0.1988
  573MOL0     H77339   6.137   6.396   6.259 -1.1372  0.0291  0.0194
  573MOL0     H77340   5.881   6.383   6.304 -0.6906 -1.4664  0.4275
  573MOL0     H77341   5.521   6.270   5.982  1.3261  0.4007  1.1613
  573MOL0     H77342   5.282   6.206   5.929 -0.4695 -1.8931  0.1786
  573MOL0     H77343   4.971   6.310   6.197 -1.0272  0.1517 -2.1536
  573MOL0     H77344   5.010   6.156   6.267 -4.4373  1.2980  3.5332
  573MOL0     H77345   4.900   6.063   6.046  2.7090  2.6206 -0.4054
  573MOL0     H77346   4.817   6.209   6.032 -1.6097 -1.7617 -0.7476
  573MOL0     H77347   4.739   6.195   6.269 -1.2239  0.6058 -0.6323
  573MOL0     H77348   4.795   6.028   6.277  0.4962 -0.5100  0.5042
  573MOL0     H77349   4.598   6.135   6.073 -3.2209 -3.7867 -2.5140
  573MOL0     H77350   4.637   5.975   6.080 -2.7570  0.8764 -1.5591
  573MOL0     H77351   4.323   6.022   6.362  1.7914 -0.2430  1.6491
  573MOL0     H77352   5.169   6.323   6.317  1.1850  0.2048  0.7996
  573MOL0     H77353   5.293   6.360   6.477  0.9642 -1.0244  1.6502
  573MOL0     H77354   5.473   6.345   6.469  0.0252 -0.4698 -2.8592
  573MOL0     H77355   5.401   6.495   6.423 -0.4781  0.1349  3.2730
  574MOL0     O77356   1.925   0.412   6.306 -0.1379 -0.1418 -0.1064
  574MOL0     C77357   1.915   0.538   6.310  0.5648  0.5362  0.0192
  574MOL0     O77358   2.019   0.616   6.343  0.1394 -0.5241  0.7912
  574MOL0     C77359   2.151   0.580   6.328 -0.0635  0.0822 -0.1733
  574MOL0     C77360   2.208   0.551   6.204 -0.6696 -0.5203  0.5294
  574MOL0     C77361   2.344   0.503   6.192  0.2524  0.1035  0.7311
  574MOL0     C77362   2.420   0.495   6.313 -0.4811  0.0122 -0.2520
  574MOL0     O77363   2.548   0.442   6.293 -0.1806 -0.2361 -0.7988
  574MOL0     C77364   2.616   0.398   6.415 -0.5840 -0.7627  0.3452
  574MOL0     C77365   2.751   0.337   6.391 -0.1108  0.3183 -0.6663
  574MOL0     C77366   2.858   0.438   6.336  0.6667 -0.2898 -0.1820
  574MOL0     C77367   2.997   0.388   6.311 -0.4725 -0.0794 -0.5629
  574MOL0     C77368   3.085   0.491   6.243  0.2972 -0.1303 -0.3317
  574MOL0     C77369   3.225   0.422   6.234 -0.5927  0.9045  0.9013
  574MOL0     C77370   3.316   0.507   6.148  0.0424 -0.1060  0.2419
  574MOL0     C77371   3.439   0.429   6.094  0.4446  0.1600 -0.5740
  574MOL0     N77372   3.518   0.516   6.007  0.4652 -0.3495 -0.1840
  574MOL0     C77373   3.470   0.580   5.903  0.7562  0.0140  0.2358
  574MOL0     C77374   3.568   0.635   5.832 -0.0740 -0.0150 -0.0149
  574MOL0     C77375   3.560   0.720   5.715  0.8368  0.2300 -0.3716
  574MOL0     C77376   3.647   0.672   5.594 -0.2440  0.5098  0.2590
  574MOL0     C77377   3.663   0.761   5.466  0.2452  0.2911 -0.4335
  574MOL0     C77378   3.541   0.752   5.374 -0.0126  0.5153 -0.8705
  574MOL0     O77379   3.436   0.815   5.439  0.4427  1.0958  0.4866
  574MOL0     C77380   3.319   0.838   5.360  0.0697 -0.5562 -0.7925
  574MOL0     C77381   3.205   0.888   5.422 -0.3650 -0.5048  0.5070
  574MOL0     C77382   3.088   0.897   5.359 -0.1139  0.8469  0.7323
  574MOL0     C77383   3.070   0.867   5.221 -0.4116  0.3217 -0.4607
  574MOL0     C77384   2.938   0.873   5.159 -0.7940 -0.3464  0.1936
  574MOL0     O77385   2.847   0.940   5.229 -0.6936 -0.4277 -0.6283
  574MOL0     C77386   2.741   0.991   5.162 -0.5499  0.3558  0.2176
  574MOL0     C77387   2.759   1.090   5.071  0.5107 -0.2107 -0.0508
  574MOL0     C77388   2.648   1.152   5.006 -0.7838 -0.0307  0.1579
  574MOL0     C77389   2.517   1.097   5.030  0.9254  0.2150 -0.0882
  574MOL0     O77390   2.417   1.167   4.964  0.0410 -0.4763 -0.0424
  574MOL0     C77391   2.280   1.132   4.986  0.3309 -1.0455  0.1051
  574MOL0     C77392   2.196   1.199   4.875  0.4048  0.7016 -0.5756
  574MOL0     C77393   2.057   1.131   4.843 -0.3550 -0.2460 -0.4882
  574MOL0     C77394   1.996   1.213   4.729  0.3590 -0.2567 -0.5971
  574MOL0     C77395   1.870   1.147   4.692  0.0476  0.7130 -0.0352
  574MOL0     C77396   1.800   1.243   4.600 -0.1228  0.1313  0.1646
  574MOL0     C77397   1.674   1.183   4.548  0.6496  0.1242 -0.3465
  574MOL0     C77398   1.575   1.283   4.486  0.6386 -0.3673 -0.2411
  574MOL0    Cl77399   1.426   1.196   4.445 -0.4160  0.1629  0.4372
  574MOL0     C77400   2.506   0.987   5.112  0.0060  0.1259 -0.3350
  574MOL0     C77401   2.616   0.929   5.173 -0.4855 -0.1294  0.3291
  574MOL0     O77402   2.934   0.842   5.044  1.0796 -0.5415  0.4351
  574MOL0     C77403   3.187   0.827   5.158 -0.9491 -0.4314  0.1036
  574MOL0     C77404   3.308   0.797   5.230 -0.2556  0.1640  0.3522
  574MOL0     N77405   3.685   0.623   5.904  0.2928  0.3882 -0.8069
  574MOL0     N77406   3.652   0.554   6.007  0.0518 -0.1591  0.3149
  574MOL0     C77407   2.365   0.531   6.440  0.4283  0.4634  0.1271
  574MOL0     C77408   2.232   0.570   6.437  0.6786  0.2291 -0.4190
  574MOL0     C77409   1.778   0.602   6.316  0.3849  0.7290 -0.1403
  574MOL0     C77410   1.668   0.526   6.359  0.2711 -0.0490  0.3018
  574MOL0     C77411   1.538   0.584   6.372  0.5171  0.0198 -0.0873
  574MOL0     C77412   1.507   0.715   6.330  0.0484  0.2863 -0.1090
  574MOL0     O77413   1.383   0.768   6.328 -0.3182 -0.3847  0.3103
  574MOL0     C77414   1.284   0.696   6.401 -0.2294  0.5156 -0.7713
  574MOL0     C77415   1.144   0.763   6.392  0.0844  0.6698  0.0157
  574MOL0     C77416   1.135   0.896   6.464  0.1945 -0.4050 -1.1550
  574MOL0     C77417   0.996   0.962   6.471 -0.1244  0.0228  0.1596
  574MOL0     C77418   0.965   1.013   6.602  0.0002 -0.9831 -0.7851
  574MOL0     C77419   0.956   1.063   6.713 -0.4734  0.3158  0.1274
  574MOL0     C77420   1.613   0.779   6.264 -0.6297 -0.2176 -0.2480
  574MOL0     C77421   1.745   0.726   6.264 -1.3281 -0.3409  0.2057
  574MOL0     C77422   1.850   0.823   6.213 -1.3880  1.0192 -0.3937
  574MOL0     H77423   2.153   0.567   6.112  2.3588  1.1380 -1.1464
  574MOL0     H77424   2.397   0.476   6.101  1.6246  0.7324  1.3078
  574MOL0     H77425   2.628   0.489   6.475  0.7687 -2.0103  2.0815
  574MOL0     H77426   2.553   0.316   6.451 -1.9178  0.1540  0.1655
  574MOL0     H77427   2.744   0.260   6.314  1.1562 -0.4706 -0.0305
  574MOL0     H77428   2.791   0.298   6.486  0.0639  1.0057 -0.4538
  574MOL0     H77429   2.867   0.528   6.398  0.5042  0.9537 -1.9038
  574MOL0     H77430   2.803   0.466   6.246 -1.8984  0.9319  1.6448
  574MOL0     H77431   3.055   0.362   6.399  2.0490  4.6309 -0.5233
  574MOL0     H77432   2.985   0.295   6.254 -0.9606 -2.1574  2.6545
  574MOL0     H77433   3.050   0.520   6.143  0.9264 -1.4970 -0.9710
  574MOL0     H77434   3.099   0.581   6.303 -0.6952  0.3083 -0.7369
  574MOL0     H77435   3.266   0.401   6.333  1.2932  3.5871  0.7906
  574MOL0     H77436   3.211   0.332   6.173  0.6128  1.2066  0.1374
  574MOL0     H77437   3.348   0.592   6.208  1.7753 -0.1813 -0.5217
  574MOL0     H77438   3.249   0.542   6.068 -0.9932 -1.0563  0.6773
  574MOL0     H77439   3.507   0.396   6.173  1.9657  1.6044 -1.2187
  574MOL0     H77440   3.406   0.350   6.026  1.0654  0.5636 -1.3662
  574MOL0     H77441   3.366   0.575   5.872 -0.1261  2.0637  2.5095
  574MOL0     H77442   3.454   0.726   5.687  0.8113 -2.9174 -1.4240
  574MOL0     H77443   3.594   0.816   5.755  0.0002 -0.3073  1.7707
  574MOL0     H77444   3.751   0.662   5.625  0.5919 -0.4618 -2.6073
  574MOL0     H77445   3.608   0.581   5.549  1.1253  0.0965 -0.1054
  574MOL0     H77446   3.744   0.713   5.408 -1.0190 -3.6785  0.7293
  574MOL0     H77447   3.700   0.861   5.489  1.0346  0.5513 -2.5837
  574MOL0     H77448   3.522   0.647   5.350 -1.1698  0.1594  1.4423
  574MOL0     H77449   3.571   0.807   5.283 -1.2240  0.0985 -1.5389
  574MOL0     H77450   3.211   0.907   5.529 -0.5837 -1.1852  0.6460
  574MOL0     H77451   3.005   0.937   5.416 -2.7990 -3.8393  0.6042
  574MOL0     H77452   2.854   1.141   5.083  0.6421 -0.0907 -1.4289
  574MOL0     H77453   2.655   1.249   4.958  2.0185  1.2704  2.8078
  574MOL0     H77454   2.262   1.025   4.973  1.4101 -1.3787  1.1343
  574MOL0     H77455   2.245   1.163   5.084  0.2803  0.3812 -0.3484
  574MOL0     H77456   2.181   1.298   4.920 -1.0891  0.2482 -0.0379
  574MOL0     H77457   2.254   1.195   4.782  0.1367 -1.0294 -0.6978
  574MOL0     H77458   2.063   1.024   4.821 -0.1982  0.0050 -1.7318
  574MOL0     H77459   1.999   1.150   4.934  2.8201  1.0306  1.4550
  574MOL0     H77460   2.072   1.200   4.651  3.3201  3.3689  1.3639
  574MOL0     H77461   1.977   1.318   4.753 -0.4939 -0.0724 -1.9938
  574MOL0     H77462   1.803   1.120   4.774 -2.9799  0.5995 -2.3575
  574MOL0     H77463   1.893   1.051   4.645 -0.9796 -1.2703  3.1850
  574MOL0     H77464   1.775   1.340   4.645  0.2902  1.1595 -1.7246
  574MOL0     H77465   1.868   1.270   4.519 -0.4097  0.1616 -0.0689
  574MOL0     H77466   1.614   1.141   4.630 -0.5967  1.0788 -0.7327
  574MOL0     H77467   1.700   1.102   4.480 -1.6522  1.6540 -3.2901
  574MOL0     H77468   1.559   1.368   4.554  2.4008 -2.3625  2.9079
  574MOL0     H77469   1.618   1.331   4.398  1.0573  2.5468  1.3958
  574MOL0     H77470   2.409   0.942   5.134 -0.0690 -0.6795 -2.0649
  574MOL0     H77471   2.599   0.844   5.239  2.0115 -0.4928  0.5965
  574MOL0     H77472   3.173   0.795   5.055  2.3890  1.3898 -1.0771
  574MOL0     H77473   3.393   0.748   5.184 -0.4624 -1.2644  1.4384
  574MOL0     H77474   2.419   0.520   6.534  1.5246  1.0526 -0.4148
  574MOL0     H77475   2.191   0.591   6.535  1.2854  1.6310 -0.4323
  574MOL0     H77476   1.677   0.424   6.396 -0.8408  0.9347  3.7003
  574MOL0     H77477   1.473   0.519   6.428 -0.7891  0.0938 -1.4619
  574MOL0     H77478   1.298   0.681   6.508  0.5056 -1.2562 -1.0864
  574MOL0     H77479   1.286   0.597   6.355  2.3518  0.7337 -1.3027
  574MOL0     H77480   1.072   0.696   6.440  0.3179  1.0136  0.8636
  574MOL0     H77481   1.115   0.775   6.287 -0.6960 -0.1054  0.1331
  574MOL0     H77482   1.190   0.967   6.400 -0.7869 -0.3459 -1.9614
  574MOL0     H77483   1.178   0.879   6.563  1.5895 -1.2708 -1.8772
  574MOL0     H77484   0.987   1.046   6.402  1.2124 -1.5002 -2.0290
  574MOL0     H77485   0.916   0.889   6.451 -0.3964  0.0624  1.0484
  574MOL0     H77486   0.938   1.112   6.806  0.8385  1.6408 -0.2790
  574MOL0     H77487   1.598   0.880   6.228 -0.3777  0.1493  0.6562
  574MOL0     H77488   1.884   0.880   6.299 -0.0944 -1.3496  0.7528
  574MOL0     H77489   1.928   0.761   6.169 -0.6827  0.7634  1.1853
  574MOL0     H77490   1.815   0.891   6.134 -1.0096  0.4043 -1.1026
  575MOL0     O77491   2.666   3.609   0.499 -0.4919  0.1710  0.4173
  575MOL0     C77492   2.628   3.687   0.412 -0.5545 -0.0326  0.0264
  575MOL0     O77493   2.706   3.775   0.336 -1.0349 -0.4474 -0.5347
  575MOL0     C77494   2.844   3.768   0.367 -0.3452 -0.4483 -0.1128
  575MOL0     C77495   2.880   3.813   0.499 -0.2264 -0.0184 -0.5793
  575MOL0     C77496   3.019   3.808   0.534  0.3035  0.3018  0.1159
  575MOL0     C77497   3.121   3.761   0.446 -0.0574  0.1230 -0.1370
  575MOL0     O77498   3.255   3.744   0.483  0.1544 -0.4801  0.3681
  575MOL0     C77499   3.311   3.832   0.587  0.0002  0.8576 -0.4271
  575MOL0     C77500   3.461   3.798   0.600  0.1134  0.2057 -0.0594
  575MOL0     C77501   3.493   3.713   0.718 -0.2739  0.7024 -0.0118
  575MOL0     C77502   3.644   3.700   0.740 -0.7560  0.5452  0.5522
  575MOL0     C77503   3.691   3.611   0.856  0.2492 -0.1389  0.8945
  575MOL0     C77504   3.697   3.462   0.820 -0.2979 -0.2776  0.0744
  575MOL0     C77505   3.827   3.400   0.864 -0.2078  0.1723 -0.0053
  575MOL0     C77506   3.962   3.467   0.814 -0.1019 -0.0555 -0.7217
  575MOL0     N77507   4.073   3.371   0.830 -0.3944 -0.4458 -0.0499
  575MOL0     C77508   4.090   3.267   0.740 -0.2520  0.4511 -0.1183
  575MOL0     C77509   4.202   3.204   0.790  0.5769 -1.1451 -0.5649
  575MOL0     C77510   4.263   3.093   0.716  0.2145  0.1105 -1.1545
  575MOL0     C77511   4.338   3.130   0.592 -0.0753  0.0316 -0.1085
  575MOL0     C77512   4.346   3.008   0.498 -0.8389  0.5986 -0.0819
  575MOL0     C77513   4.409   3.050   0.366  0.5349  0.2119 -0.2183
  575MOL0     O77514   4.534   3.116   0.361 -0.1035 -0.1366 -0.2627
  575MOL0     C77515   4.652   3.044   0.377 -0.9557  0.3395  0.2998
  575MOL0     C77516   4.765   3.111   0.350 -0.0500  0.0414 -0.1498
  575MOL0     C77517   4.894   3.054   0.352 -0.0119 -0.0509 -0.7933
  575MOL0     C77518   4.902   2.918   0.373  0.6384  0.1661 -0.6156
  575MOL0     C77519   5.036   2.854   0.378  0.4251  0.1648 -0.2297
  575MOL0     O77520   5.043   2.719   0.369 -0.2481 -0.3669  0.1620
  575MOL0     C77521   5.159   2.648   0.352 -0.2295 -0.3354 -0.0482
  575MOL0     C77522   5.185   2.531   0.417 -0.3570  0.1692  0.2600
  575MOL0     C77523   5.310   2.471   0.400 -0.0462 -0.0405  0.3173
  575MOL0     C77524   5.414   2.522   0.311 -0.3398  0.2651  0.1735
  575MOL0     O77525   5.535   2.465   0.290 -0.3957 -0.8030  0.2512
  575MOL0     C77526   5.580   2.351   0.357  0.9828  0.3232 -0.2918
  575MOL0     C77527   5.529   2.228   0.275  0.4277 -1.3586  0.3946
  575MOL0     C77528   5.569   2.089   0.322 -0.2313 -0.0923 -0.2479
  575MOL0     C77529   5.505   1.978   0.234  0.5105  0.8089  0.1019
  575MOL0     C77530   5.516   1.843   0.302  0.0730  0.3455  0.4781
  575MOL0     C77531   5.476   1.730   0.209 -0.2421  1.0457 -0.4826
  575MOL0     C77532   5.528   1.597   0.259 -0.5897  0.1108  0.8961
  575MOL0     C77533   5.662   1.546   0.204 -0.3535 -0.3518  0.0617
  575MOL0    Cl77534   5.777   1.607   0.327  0.1201 -0.0862  0.0852
  575MOL0     C77535   5.384   2.638   0.241  0.5480  0.5086 -0.4048
  575MOL0     C77536   5.268   2.699   0.269  0.0160  0.0310  0.6557
  575MOL0     O77537   5.132   2.926   0.390  0.2175 -0.3339 -0.3601
  575MOL0     C77538   4.786   2.838   0.402  0.2304 -0.3541  0.3558
  575MOL0     C77539   4.660   2.901   0.403  0.3570  0.7724  0.0002
  575MOL0     N77540   4.243   3.275   0.906 -0.1230 -0.1558  0.2254
  575MOL0     N77541   4.170   3.381   0.923  1.1264 -0.4455 -0.1462
  575MOL0     C77542   3.078   3.726   0.313  0.0227  0.2703 -0.4227
  575MOL0     C77543   2.945   3.734   0.271  0.7958 -0.3183 -0.6809
  575MOL0     C77544   2.490   3.684   0.374  0.5297  0.3835 -0.7818
  575MOL0     C77545   2.459   3.699   0.235  0.2251 -0.2862  0.8454
  575MOL0     C77546   2.330   3.680   0.180 -0.2071 -0.3901 -0.1221
  575MOL0     C77547   2.218   3.671   0.260 -0.1140  0.1126 -0.1977
  575MOL0     O77548   2.105   3.676   0.188 -0.2062  0.3940 -0.2031
  575MOL0     C77549   1.986   3.643   0.257  0.4189 -0.0043  0.3441
  575MOL0     C77550   1.874   3.609   0.163 -0.0117 -0.6451  0.4637
  575MOL0     C77551   1.877   3.479   0.086 -0.6238  0.0764 -0.6092
  575MOL0     C77552   1.828   3.368   0.178 -0.4374 -0.3050 -0.0369
  575MOL0     C77553   1.804   3.247   0.090  0.9538 -0.2628  0.0753
  575MOL0     C77554   1.788   3.147   0.028  0.5143 -0.4032  0.2949
  575MOL0     C77555   2.242   3.660   0.401  0.1748  0.6431 -0.0596
  575MOL0     C77556   2.372   3.662   0.456 -0.8031 -0.0430  0.1461
  575MOL0     C77557   2.387   3.625   0.597  0.8296 -0.6703  0.1983
  575MOL0     H77558   2.805   3.851   0.567  0.1248 -0.5152  0.0960
  575MOL0     H77559   3.036   3.824   0.640 -3.8218 -0.1366  0.9806
  575MOL0     H77560   3.305   3.937   0.558 -1.2325  1.0629  0.5140
  575MOL0     H77561   3.266   3.813   0.684 -0.4744  1.7759 -0.4610
  575MOL0     H77562   3.515   3.891   0.622 -0.6604  0.9245 -1.0889
  575MOL0     H77563   3.498   3.746   0.511  0.8823 -0.7760  0.8282
  575MOL0     H77564   3.458   3.610   0.703  0.3170  0.4996 -0.0577
  575MOL0     H77565   3.455   3.751   0.813  2.2786  3.7732 -0.0533
  575MOL0     H77566   3.695   3.671   0.648  0.0560 -1.1356  1.4793
  575MOL0     H77567   3.679   3.799   0.768 -1.2684  0.2824  2.2779
  575MOL0     H77568   3.787   3.660   0.876  0.4841  0.3536 -1.1695
  575MOL0     H77569   3.637   3.629   0.949  0.2538  1.2823  0.6453
  575MOL0     H77570   3.629   3.405   0.885  0.3674  0.0010  1.0471
  575MOL0     H77571   3.681   3.421   0.720 -0.4228 -2.3757  0.9044
  575MOL0     H77572   3.834   3.298   0.825 -0.2100  0.8863 -1.9792
  575MOL0     H77573   3.824   3.392   0.973 -1.9390  0.9504  0.0279
  575MOL0     H77574   3.967   3.503   0.711  0.8164  0.4652 -0.5063
  575MOL0     H77575   3.981   3.556   0.874 -0.5396  0.2922 -1.0937
  575MOL0     H77576   4.030   3.240   0.655 -0.6909 -4.2338  1.4268
  575MOL0     H77577   4.337   3.043   0.778 -1.3087  0.8125  1.3514
  575MOL0     H77578   4.178   3.026   0.701 -0.8239  1.0988  0.0669
  575MOL0     H77579   4.287   3.210   0.538  1.2088  0.1788 -1.1327
  575MOL0     H77580   4.438   3.156   0.627 -0.4639  1.5172 -0.0397
  575MOL0     H77581   4.242   2.977   0.485 -1.4197  3.0392 -1.7716
  575MOL0     H77582   4.400   2.929   0.551 -0.4439  1.7908  1.3620
  575MOL0     H77583   4.338   3.126   0.332  0.7367 -0.0119 -1.1783
  575MOL0     H77584   4.417   2.967   0.295  0.8726  1.6880 -1.9586
  575MOL0     H77585   4.751   3.214   0.320 -0.4001  0.5188  1.5461
  575MOL0     H77586   4.980   3.118   0.343  1.2423 -0.9930  2.6121
  575MOL0     H77587   5.118   2.483   0.488 -1.3870 -0.2269 -0.9410
  575MOL0     H77588   5.330   2.378   0.453 -0.1757 -0.2985 -0.0777
  575MOL0     H77589   5.689   2.352   0.355  1.1149 -2.5989  0.8744
  575MOL0     H77590   5.540   2.353   0.459 -2.4435 -0.8216 -1.4344
  575MOL0     H77591   5.420   2.238   0.275  0.5208 -0.1780 -0.1749
  575MOL0     H77592   5.551   2.251   0.171  3.3910 -1.0356  0.9958
  575MOL0     H77593   5.676   2.077   0.307 -0.0444  0.5999  0.4846
  575MOL0     H77594   5.544   2.059   0.424 -1.9878 -2.7202 -1.3468
  575MOL0     H77595   5.561   1.972   0.140  1.1053  2.8920  0.2748
  575MOL0     H77596   5.402   2.001   0.206 -0.6750 -2.4617  1.3435
  575MOL0     H77597   5.450   1.852   0.388 -0.1059 -0.9549  0.4983
  575MOL0     H77598   5.620   1.826   0.332  1.1879  2.5794 -1.7753
  575MOL0     H77599   5.368   1.716   0.198  0.2088 -1.5277 -2.3644
  575MOL0     H77600   5.507   1.744   0.105  2.1819  1.3166  0.2282
  575MOL0     H77601   5.452   1.522   0.238  0.4469 -0.7430  0.0631
  575MOL0     H77602   5.531   1.596   0.369  0.2311  0.0885  0.8777
  575MOL0     H77603   5.661   1.438   0.189 -0.2005 -0.8830  3.0672
  575MOL0     H77604   5.678   1.606   0.115  2.0522  2.4925  2.2021
  575MOL0     H77605   5.462   2.676   0.176  0.6757 -0.2330 -0.6971
  575MOL0     H77606   5.261   2.802   0.238  1.2722 -0.3520 -1.0482
  575MOL0     H77607   4.794   2.731   0.416  0.6024 -0.2959  0.6087
  575MOL0     H77608   4.573   2.839   0.418 -0.4861  2.4446  2.5242
  575MOL0     H77609   3.146   3.676   0.245 -0.6027 -1.4002  0.1248
  575MOL0     H77610   2.920   3.711   0.168  1.2340  1.3483 -1.2027
  575MOL0     H77611   2.537   3.719   0.162  0.5935 -2.5802  0.5379
  575MOL0     H77612   2.307   3.677   0.074  1.7691 -0.5139 -0.5675
  575MOL0     H77613   1.952   3.730   0.315 -0.1573  0.9518 -1.3712
  575MOL0     H77614   2.003   3.557   0.323  3.1281 -2.1005 -2.7730
  575MOL0     H77615   1.867   3.693   0.094 -3.2467  1.1660  2.7108
  575MOL0     H77616   1.787   3.607   0.230  0.8928 -3.9981  1.7187
  575MOL0     H77617   1.980   3.459   0.054 -1.4757 -2.9487 -1.7357
  575MOL0     H77618   1.809   3.480   0.000 -0.4581  0.1444 -0.7408
  575MOL0     H77619   1.906   3.350   0.252 -1.0579 -1.3024  0.3996
  575MOL0     H77620   1.737   3.389   0.235 -0.3805  0.1991 -0.1335
  575MOL0     H77621   1.774   3.069  -0.043  1.0738 -1.5248  1.3731
  575MOL0     H77622   2.159   3.643   0.468  1.4531 -0.6426  1.2729
  575MOL0     H77623   2.435   3.701   0.660 -1.8232 -0.4275  2.0806
  575MOL0     H77624   2.283   3.605   0.626  0.0296 -1.1897 -2.7868
  575MOL0     H77625   2.437   3.528   0.610 -0.6823 -1.1738  3.2393
  576MOL0     O77626  10.673   2.665  10.551  0.4627 -0.4765  0.0972
  576MOL0     C77627  10.613   2.751  10.613  0.6036 -0.0454 -0.4344
  576MOL0     O77628  10.669   2.856  10.679 -0.6282 -0.2542 -0.1290
  576MOL0     C77629  10.807   2.892  10.673 -0.0681 -0.6884  0.4303
  576MOL0     C77630  10.916   2.810  10.630 -0.4089 -0.0950 -0.1210
  576MOL0     C77631  11.048   2.849  10.645  0.5356  0.1945  0.4665
  576MOL0     C77632  11.086   2.972  10.685 -0.1424 -0.6384 -0.1368
  576MOL0     O77633  11.216   3.004  10.703 -0.2481  0.8030  0.3469
  576MOL0     C77634  11.270   2.948  10.822 -0.1941 -0.7626  0.5829
  576MOL0     C77635  11.402   2.875  10.794  0.1366 -0.3789  0.2325
  576MOL0     C77636  11.525   2.966  10.783  0.0316  0.0092  0.8771
  576MOL0     C77637  11.650   2.883  10.737 -0.7664  0.0876  0.2481
  576MOL0     C77638  11.713   2.806  10.848  0.7941  0.1041  0.1821
  576MOL0     C77639  11.850   2.743  10.818 -0.0959  1.0895  0.1376
  576MOL0     C77640  11.952   2.846  10.778 -0.5962  0.5100  0.3886
  576MOL0     C77641  12.092   2.787  10.742  0.6696  0.0646 -0.2250
  576MOL0     N77642  12.186   2.896  10.703 -0.2869  0.4083 -0.0860
  576MOL0     C77643  12.179   2.999  10.615  0.4524 -0.7312 -0.4949
  576MOL0     C77644  12.285   3.081  10.636  0.3047  0.0601  0.7090
  576MOL0     C77645  12.327   3.207  10.567  0.0662 -0.9250 -0.7833
  576MOL0     C77646  12.419   3.177  10.439  0.0261 -0.6861 -0.6089
  576MOL0     C77647  12.498   3.299  10.389 -0.0801  0.2296 -0.1509
  576MOL0     C77648  12.570   3.282  10.253 -0.0517 -0.5657  0.6820
  576MOL0     O77649  12.689   3.210  10.257 -0.4679 -0.3681 -0.8216
  576MOL0     C77650  12.812   3.279  10.279  0.2521 -0.1398  0.6847
  576MOL0     C77651  12.930   3.203  10.294  0.0125  0.2904  1.1405
  576MOL0     C77652  13.052   3.256  10.325  0.5062  0.1847  0.3375
  576MOL0     C77653  13.055   3.397  10.341 -0.0471  0.4142  0.2476
  576MOL0     C77654  13.178   3.456  10.392  0.4911  0.2120 -0.6102
  576MOL0     O77655  13.268   3.367  10.429 -0.1558 -0.1285  0.1980
  576MOL0     C77656  13.378   3.396  10.510 -0.3432  0.0781 -1.0436
  576MOL0     C77657  13.467   3.508  10.501  0.5908  0.5192 -0.0398
  576MOL0     C77658  13.576   3.529  10.583  0.0137 -0.3092 -0.0824
  576MOL0     C77659  13.611   3.432  10.676 -0.0414  0.7929 -0.1625
  576MOL0     O77660  13.714   3.462  10.761 -0.6609  0.3848  0.6852
  576MOL0     C77661  13.785   3.356  10.810 -0.4987  0.8403  0.3946
  576MOL0     C77662  13.912   3.391  10.884 -0.1501 -0.4098  0.3219
  576MOL0     C77663  13.873   3.474  11.017  0.3526  0.8538  0.4334
  576MOL0     C77664  13.999   3.523  11.089 -0.3246  0.2455  0.3343
  576MOL0     C77665  13.966   3.605  11.216  1.0019 -0.4767 -0.8371
  576MOL0     C77666  13.930   3.755  11.186 -0.4278 -0.1477  0.8008
  576MOL0     C77667  14.040   3.851  11.250 -0.3391 -0.4363  0.8302
  576MOL0     C77668  14.160   3.858  11.154  0.7505 -0.2748  0.1809
  576MOL0    Cl77669  14.259   3.960  11.262 -0.1082  0.1688  0.3983
  576MOL0     C77670  13.521   3.327  10.694  0.2489  0.3940 -0.2883
  576MOL0     C77671  13.407   3.312  10.613  0.0243  0.3329  0.4773
  576MOL0     O77672  13.179   3.573  10.421 -0.2805 -0.4982  0.2156
  576MOL0     C77673  12.940   3.471  10.320 -0.0091 -0.7679  0.0241
  576MOL0     C77674  12.822   3.418  10.291  0.2501  1.1466  0.2378
  576MOL0     N77675  12.361   3.014  10.730 -0.0553  0.5431 -0.3024
  576MOL0     N77676  12.307   2.905  10.768  0.3541  0.5302  0.0109
  576MOL0     C77677  10.986   3.059  10.721  0.4651  0.2812  0.7177
  576MOL0     C77678  10.849   3.021  10.716 -0.1791 -0.3296 -0.8706
  576MOL0     C77679  10.463   2.725  10.616  0.7510 -0.5806 -0.8598
  576MOL0     C77680  10.413   2.591  10.605 -0.1533 -0.8366  1.0744
  576MOL0     C77681  10.275   2.572  10.611 -0.2708 -0.5259 -0.2883
  576MOL0     C77682  10.184   2.672  10.613 -0.4133  0.2420  0.7893
  576MOL0     O77683  10.058   2.627  10.618  0.5449 -0.2296  0.1870
  576MOL0     C77684   9.957   2.730  10.630  0.1846 -0.0076  0.6452
  576MOL0     C77685   9.826   2.654  10.605 -0.0223 -0.5027  0.0473
  576MOL0     C77686   9.711   2.753  10.630  1.0304 -0.3793 -0.3049
  576MOL0     C77687   9.576   2.686  10.620 -0.0017  0.1336  0.4178
  576MOL0     C77688   9.477   2.791  10.602 -0.2188  0.5043  0.2106
  576MOL0     C77689   9.407   2.879  10.566  0.3590 -0.3828 -0.5432
  576MOL0     C77690  10.230   2.800  10.623  0.2808 -0.2502  0.0923
  576MOL0     C77691  10.368   2.827  10.629  0.1684  0.2998  0.2291
  576MOL0     C77692  10.404   2.969  10.628 -0.3204 -0.3628 -0.4667
  576MOL0     H77693  10.888   2.709  10.602  2.5627 -2.1305  3.3816
  576MOL0     H77694  11.133   2.786  10.620 -0.8880 -0.7546 -2.3810
  576MOL0     H77695  11.280   3.023  10.902 -1.6889 -1.3888  1.4016
  576MOL0     H77696  11.207   2.866  10.857  0.9701 -1.6116  0.7269
  576MOL0     H77697  11.393   2.825  10.697 -2.3849  0.0360  0.1659
  576MOL0     H77698  11.411   2.808  10.880  3.0994  1.9781  1.9265
  576MOL0     H77699  11.533   3.005  10.885  0.8081  2.3954 -0.0177
  576MOL0     H77700  11.516   3.049  10.712 -0.9655 -2.5248 -2.1581
  576MOL0     H77701  11.621   2.815  10.657 -0.9978 -0.3538  0.6998
  576MOL0     H77702  11.728   2.947  10.695  1.4424 -2.2861  0.4775
  576MOL0     H77703  11.735   2.877  10.928 -0.2493 -1.3000  1.7877
  576MOL0     H77704  11.635   2.734  10.877 -1.1183  1.7129 -0.6724
  576MOL0     H77705  11.894   2.697  10.907  2.0240  1.9410 -0.3963
  576MOL0     H77706  11.833   2.669  10.740  1.3041 -1.4275  2.0854
  576MOL0     H77707  11.969   2.928  10.848 -0.3473  0.6650  0.1519
  576MOL0     H77708  11.919   2.884  10.680  1.9270  1.1220 -0.3106
  576MOL0     H77709  12.132   2.725  10.823  0.1411  0.6877  0.5347
  576MOL0     H77710  12.083   2.719  10.657  3.5010 -2.5306  1.3467
  576MOL0     H77711  12.101   3.023  10.544 -0.4304 -1.9980  0.0195
  576MOL0     H77712  12.237   3.263  10.540  0.9598  1.8492  1.4454
  576MOL0     H77713  12.378   3.276  10.635 -1.7036  0.7051 -0.9995
  576MOL0     H77714  12.487   3.093  10.458 -1.9243 -2.0450  0.8124
  576MOL0     H77715  12.358   3.145  10.355 -0.2024  1.2854 -1.2451
  576MOL0     H77716  12.574   3.314  10.466  0.2047  0.3119 -0.4457
  576MOL0     H77717  12.432   3.385  10.377 -0.9120 -0.6478 -2.4992
  576MOL0     H77718  12.582   3.379  10.203  2.8490  0.0603  2.3699
  576MOL0     H77719  12.505   3.229  10.183 -0.0407 -1.3279  1.2316
  576MOL0     H77720  12.936   3.096  10.282  1.2653  0.4673 -0.0911
  576MOL0     H77721  13.136   3.188  10.334 -0.0542 -0.4824  0.6356
  576MOL0     H77722  13.454   3.578  10.419  3.3225  2.4277  1.0109
  576MOL0     H77723  13.640   3.614  10.563 -0.5420 -0.1400 -1.2389
  576MOL0     H77724  13.725   3.297  10.878  2.5211 -5.5042 -1.6230
  576MOL0     H77725  13.808   3.281  10.733  0.8563  0.5720  1.0305
  576MOL0     H77726  13.962   3.299  10.916 -1.0118 -1.2351 -0.6691
  576MOL0     H77727  13.969   3.445  10.808 -2.8378  0.4048 -1.2331
  576MOL0     H77728  13.809   3.559  10.994 -0.7317  0.0597  0.4569
  576MOL0     H77729  13.821   3.405  11.083  0.7083  0.9658  0.8331
  576MOL0     H77730  14.058   3.579  11.015  1.6321 -0.8804  0.9752
  576MOL0     H77731  14.056   3.434  11.117  0.2027  1.3410  3.0413
  576MOL0     H77732  14.053   3.598  11.281 -1.8678  1.6567  3.7407
  576MOL0     H77733  13.881   3.564  11.271 -0.4110  2.3438 -0.7104
  576MOL0     H77734  13.921   3.768  11.078  1.5464  0.9754  0.7293
  576MOL0     H77735  13.833   3.767  11.235 -0.5043  0.8386  0.4289
  576MOL0     H77736  14.077   3.832  11.351  0.3814  0.9388  0.8519
  576MOL0     H77737  14.007   3.955  11.245 -0.4454 -0.5195 -1.6002
  576MOL0     H77738  14.213   3.763  11.143 -3.0076 -2.4440 -0.9493
  576MOL0     H77739  14.143   3.903  11.056 -0.2669  1.2119  0.9949
  576MOL0     H77740  13.536   3.255  10.773  0.3699 -0.9871 -1.5366
  576MOL0     H77741  13.339   3.228  10.619  0.1876  0.1112 -0.5199
  576MOL0     H77742  12.951   3.576  10.348  0.8324 -0.8964  0.1823
  576MOL0     H77743  12.739   3.486  10.271 -0.1756  0.1432 -1.7742
  576MOL0     H77744  11.011   3.161  10.748 -0.2014  0.3724  1.0301
  576MOL0     H77745  10.769   3.088  10.745 -2.2912 -2.5973 -1.0997
  576MOL0     H77746  10.477   2.506  10.583  0.2577 -0.1026 -0.7376
  576MOL0     H77747  10.249   2.466  10.615  0.6900 -0.8785 -2.3536
  576MOL0     H77748   9.971   2.825  10.578  1.8020  0.7994  2.4322
  576MOL0     H77749   9.962   2.758  10.735 -0.3303 -0.3832  0.7744
  576MOL0     H77750   9.813   2.575  10.679 -0.5556 -1.3280 -0.9021
  576MOL0     H77751   9.809   2.613  10.505 -2.6676  1.8635 -0.5889
  576MOL0     H77752   9.717   2.820  10.543  0.4668 -0.2598 -0.2582
  576MOL0     H77753   9.736   2.820  10.712  0.3398  0.7969 -1.0186
  576MOL0     H77754   9.566   2.623  10.531 -0.4294  0.1423  0.4590
  576MOL0     H77755   9.555   2.620  10.704 -0.1550  1.6088  1.5924
  576MOL0     H77756   9.335   2.949  10.529  1.5891  2.1359  1.4818
  576MOL0     H77757  10.177   2.894  10.634 -0.8807 -1.1604  3.0207
  576MOL0     H77758  10.438   3.004  10.726 -0.9747  0.3239 -0.4775
  576MOL0     H77759  10.489   2.989  10.563 -0.0429 -2.5590 -0.8614
  576MOL0     H77760  10.323   3.036  10.600 -0.1732 -0.7194 -1.8090
  577MOL0     O77761   1.442  10.107  10.501 -0.0602 -0.0325  0.3619
  577MOL0     C77762   1.424  10.056  10.386 -0.7645  0.7142  0.5632
  577MOL0     O77763   1.514   9.975  10.318  0.5199  0.3267 -0.7246
  577MOL0     C77764   1.634   9.939  10.384  0.7701  0.5994  0.4153
  577MOL0     C77765   1.647   9.809  10.427  0.1917 -0.0127  0.0350
  577MOL0     C77766   1.769   9.767  10.481 -0.0379 -0.1684  0.7404
  577MOL0     C77767   1.874   9.854  10.488 -0.1313  0.8823 -0.4994
  577MOL0     O77768   1.992   9.810  10.553 -0.3282 -0.4132 -0.2572
  577MOL0     C77769   2.059   9.713  10.459 -0.6460 -0.5743 -0.2321
  577MOL0     C77770   2.196   9.679  10.509 -0.0355 -0.4789  0.4898
  577MOL0     C77771   2.196   9.584  10.627 -0.1189 -0.0957 -0.3940
  577MOL0     C77772   2.338   9.553  10.655  0.1657 -0.7918  0.2239
  577MOL0     C77773   2.350   9.435  10.760 -0.3173 -0.0025 -0.6923
  577MOL0     C77774   2.364   9.295  10.700 -0.3133 -0.2139  0.4543
  577MOL0     C77775   2.353   9.192  10.818  0.5315 -0.5073 -0.1550
  577MOL0     C77776   2.211   9.161  10.883 -0.1765 -0.3773 -0.1318
  577MOL0     N77777   2.107   9.172  10.783 -0.0862 -0.2340  0.4969
  577MOL0     C77778   2.011   9.273  10.779 -0.0709  0.5868 -0.6419
  577MOL0     C77779   1.933   9.243  10.673 -0.3147  1.0771 -0.3682
  577MOL0     C77780   1.826   9.339  10.624 -0.1689 -0.5276 -0.0501
  577MOL0     C77781   1.692   9.282  10.572 -0.6822 -0.0037  0.1996
  577MOL0     C77782   1.597   9.396  10.531  0.4550 -0.1010 -0.6914
  577MOL0     C77783   1.447   9.360  10.508  0.0123  0.8601  0.4522
  577MOL0     O77784   1.388   9.475  10.433  0.3952  0.1818 -0.0052
  577MOL0     C77785   1.265   9.463  10.388  0.6414  0.4829 -0.0845
  577MOL0     C77786   1.225   9.542  10.274  0.8453 -0.1111  0.3064
  577MOL0     C77787   1.100   9.555  10.218  0.5771  0.1117  0.2087
  577MOL0     C77788   1.005   9.460  10.254  1.1588 -0.5876  0.8784
  577MOL0     C77789   0.863   9.464  10.198 -0.1919 -0.8923  0.0298
  577MOL0     O77790   0.772   9.403  10.275 -0.5904  0.0009  0.5422
  577MOL0     C77791   0.643   9.389  10.230 -0.2665 -0.8167  0.3932
  577MOL0     C77792   0.546   9.413  10.324 -0.4937  0.6779 -0.6333
  577MOL0     C77793   0.415   9.388  10.298  0.0057 -0.3362  0.3231
  577MOL0     C77794   0.367   9.352  10.167  0.2031  0.1742 -0.2196
  577MOL0     O77795   0.239   9.304  10.157  0.1709  0.3409  0.5659
  577MOL0     C77796   0.193   9.246  10.030 -0.3652 -0.1629  0.6461
  577MOL0     C77797   0.042   9.245  10.026  0.3367  0.5366  0.9418
  577MOL0     C77798  -0.007   9.122   9.947  1.5005  0.2409  0.2115
  577MOL0     C77799   0.029   9.131   9.799 -0.5087  0.2628  0.0781
  577MOL0     C77800  -0.051   9.032   9.730 -0.0187  0.0150  0.5230
  577MOL0     C77801  -0.038   9.050   9.576  0.2932 -1.0364  0.5193
  577MOL0     C77802  -0.066   8.926   9.504  0.6100 -0.3378 -0.7566
  577MOL0     C77803  -0.035   8.932   9.347 -0.5774  0.1460 -0.0881
  577MOL0    Cl77804  -0.042   8.768   9.266  0.3328  0.0850 -0.1736
  577MOL0     C77805   0.477   9.332  10.069 -0.2694 -0.2412 -0.3302
  577MOL0     C77806   0.612   9.348  10.102 -0.1625 -0.3544 -0.0131
  577MOL0     O77807   0.839   9.542  10.107 -0.2714  0.0531 -0.8120
  577MOL0     C77808   1.039   9.366  10.347  0.0105  0.5190 -1.0977
  577MOL0     C77809   1.167   9.363  10.414  0.2436 -0.7780 -0.6769
  577MOL0     N77810   1.968   9.115  10.630 -0.0434 -0.0989  0.0177
  577MOL0     N77811   2.077   9.076  10.690 -0.4242  0.3172 -0.9936
  577MOL0     C77812   1.855   9.981  10.451 -0.1696 -0.1812 -0.6471
  577MOL0     C77813   1.740  10.021  10.383 -0.0042 -1.2882 -0.9041
  577MOL0     C77814   1.284  10.071  10.329  0.5710  0.6946  0.2360
  577MOL0     C77815   1.234   9.966  10.263 -0.2893 -0.0936  0.3172
  577MOL0     C77816   1.107   9.974  10.211  0.2716  0.4375  0.1309
  577MOL0     C77817   1.026  10.088  10.225  0.1167 -0.6249 -0.1390
  577MOL0     O77818   0.898  10.103  10.181 -1.1037  0.2188 -0.0762
  577MOL0     C77819   0.845   9.990  10.105 -0.4258 -0.7050 -0.5284
  577MOL0     C77820   0.912   9.977   9.968  0.2967  0.4458 -0.2880
  577MOL0     C77821   0.872   9.844   9.906  0.3909 -0.5136  0.4335
  577MOL0     C77822   0.959   9.811   9.787 -0.2111  0.2258 -0.5225
  577MOL0     C77823   1.093   9.782   9.835 -0.3284 -0.0661 -0.4769
  577MOL0     C77824   1.211   9.760   9.880  1.2059  0.1217  0.2363
  577MOL0     C77825   1.076  10.194  10.286 -0.8698  0.2052 -0.1056
  577MOL0     C77826   1.208  10.184  10.337  0.5151  0.4242  0.4376
  577MOL0     C77827   1.259  10.310  10.403 -0.7964 -0.0830 -0.8037
  577MOL0     H77828   1.569   9.734  10.418  0.1723  0.0532 -0.3582
  577MOL0     H77829   1.784   9.662  10.503 -0.2091 -0.1495  0.9467
  577MOL0     H77830   2.007   9.617  10.457 -0.2070 -0.8771  1.2305
  577MOL0     H77831   2.068   9.757  10.359 -1.4438 -2.3866 -1.1313
  577MOL0     H77832   2.242   9.778  10.520  0.5214 -0.2428 -2.8555
  577MOL0     H77833   2.252   9.633  10.427  0.8140 -0.1437  0.8592
  577MOL0     H77834   2.139   9.493  10.610 -1.1404 -0.3896  3.5271
  577MOL0     H77835   2.143   9.639  10.706  0.7571  2.8192 -1.6988
  577MOL0     H77836   2.385   9.519  10.562 -0.2213  2.0025 -1.0683
  577MOL0     H77837   2.395   9.640  10.687  1.0036 -1.5413  0.8470
  577MOL0     H77838   2.446   9.443  10.812 -0.3913 -1.0554 -0.3735
  577MOL0     H77839   2.273   9.440  10.838  0.2261 -1.7768  0.0052
  577MOL0     H77840   2.286   9.279  10.624  0.4952 -1.1203 -0.2131
  577MOL0     H77841   2.457   9.282  10.644 -1.4805 -1.4721 -1.3200
  577MOL0     H77842   2.426   9.215  10.896  2.7952  0.5332 -2.4680
  577MOL0     H77843   2.384   9.091  10.790  1.1959 -0.4077  0.1943
  577MOL0     H77844   2.216   9.059  10.922 -0.2142 -0.1797  0.3924
  577MOL0     H77845   2.182   9.230  10.963 -0.0466  0.9219 -1.1719
  577MOL0     H77846   2.001   9.358  10.846 -0.3859 -0.1204  0.2268
  577MOL0     H77847   1.818   9.409  10.708  4.1199  0.4695 -0.2442
  577MOL0     H77848   1.860   9.394  10.536  0.3737 -3.0989 -1.5526
  577MOL0     H77849   1.715   9.210  10.492  0.6403 -2.4215  2.5843
  577MOL0     H77850   1.639   9.222  10.647 -0.0627 -0.7733  0.0379
  577MOL0     H77851   1.635   9.433  10.436 -1.2015 -2.3724 -2.3735
  577MOL0     H77852   1.596   9.480  10.600 -0.8204  0.0167 -0.8232
  577MOL0     H77853   1.392   9.347  10.602 -0.1990 -1.4490  0.0798
  577MOL0     H77854   1.448   9.267  10.450  3.0809  1.7927 -1.1981
  577MOL0     H77855   1.293   9.622  10.249 -0.3504  1.6131  2.2323
  577MOL0     H77856   1.093   9.613  10.127 -0.0762  0.0510  0.2170
  577MOL0     H77857   0.574   9.439  10.425 -0.6441  0.1021 -0.4410
  577MOL0     H77858   0.342   9.408  10.376  0.6401  1.7962  0.4252
  577MOL0     H77859   0.244   9.288   9.943  1.0711 -1.1090  1.0075
  577MOL0     H77860   0.227   9.142  10.031  0.7119  0.1779  0.8861
  577MOL0     H77861   0.019   9.247  10.133  1.6551  1.9908  1.2462
  577MOL0     H77862   0.000   9.338   9.986  0.0300 -0.6265 -1.6340
  577MOL0     H77863   0.035   9.030   9.988 -1.6782 -1.6380 -0.4343
  577MOL0     H77864  -0.116   9.119   9.960  1.3189 -2.0717 -1.2973
  577MOL0     H77865   0.135   9.111   9.783  0.1935  2.0471  2.1025
  577MOL0     H77866   0.001   9.231   9.763 -1.9643  0.6835  2.2157
  577MOL0     H77867  -0.157   9.051   9.749 -0.0406  2.0081 -1.1367
  577MOL0     H77868  -0.021   8.933   9.765 -1.0733 -0.7226 -0.5788
  577MOL0     H77869  -0.103   9.130   9.539  0.8335 -1.3919 -1.2595
  577MOL0     H77870   0.065   9.074   9.551 -0.6820 -0.2485 -3.3308
  577MOL0     H77871  -0.172   8.904   9.521  0.6857 -0.5127 -0.4863
  577MOL0     H77872  -0.004   8.847   9.547  2.1901  1.1878 -0.1225
  577MOL0     H77873  -0.104   9.000   9.297  0.2054  1.8582  1.0651
  577MOL0     H77874   0.068   8.965   9.333  0.0224 -1.6900 -0.2665
  577MOL0     H77875   0.459   9.285   9.973 -1.4702 -1.1518  0.3056
  577MOL0     H77876   0.689   9.335  10.028 -0.2762 -0.5713 -0.0927
  577MOL0     H77877   0.972   9.285  10.375  0.8225  0.0216 -0.5419
  577MOL0     H77878   1.179   9.301  10.501  0.8268 -0.6308 -0.6496
  577MOL0     H77879   1.924  10.060  10.482 -1.0570  1.8482 -3.4602
  577MOL0     H77880   1.710  10.121  10.353 -1.0340 -1.0289  0.8735
  577MOL0     H77881   1.291   9.876  10.240 -1.4100 -0.6502 -0.3258
  577MOL0     H77882   1.071   9.886  10.159  0.8273 -0.2190  0.8253
  577MOL0     H77883   0.742  10.024  10.092 -1.2699 -2.6646  0.6434
  577MOL0     H77884   0.841   9.899  10.165 -0.3927 -0.4387 -0.1115
  577MOL0     H77885   1.021   9.989   9.974  0.5559 -1.9346  0.7669
  577MOL0     H77886   0.876  10.048   9.893 -2.3357 -1.9717 -1.5079
  577MOL0     H77887   0.767   9.859   9.877  0.6562  0.4659 -0.0570
  577MOL0     H77888   0.882   9.763   9.980 -1.9766  0.1226  1.5685
  577MOL0     H77889   0.918   9.719   9.744 -2.6088  0.6018  0.7805
  577MOL0     H77890   0.950   9.887   9.709 -1.6669 -0.4098 -1.0092
  577MOL0     H77891   1.312   9.750   9.915  1.3730  1.5930  0.2414
  577MOL0     H77892   1.016  10.284  10.295 -0.1317  0.7335 -0.2986
  577MOL0     H77893   1.245  10.303  10.511  1.8574  1.3591 -0.2740
  577MOL0     H77894   1.366  10.331  10.396 -0.1497 -2.0100  1.8785
  577MOL0     H77895   1.200  10.392  10.360  1.4550  1.1834 -1.6616
  578MOL0     O77896   5.438   9.252   8.536 -0.1277 -0.0568 -0.4244
  578MOL0     C77897   5.407   9.143   8.488 -0.6372  0.2040  0.1807
  578MOL0     O77898   5.494   9.044   8.447  0.6244  0.5288 -0.0961
  578MOL0     C77899   5.630   9.040   8.475  0.2402  0.6432  0.4684
  578MOL0     C77900   5.690   8.915   8.433 -0.6777 -0.4043 -0.3689
  578MOL0     C77901   5.827   8.890   8.454  0.6405  0.4638 -0.8453
  578MOL0     C77902   5.904   8.992   8.516 -0.3096  0.0172 -0.0276
  578MOL0     O77903   6.037   8.980   8.546 -0.3361  0.4583  0.0186
  578MOL0     C77904   6.119   8.888   8.467  1.0624  0.6069 -0.7969
  578MOL0     C77905   6.246   8.850   8.546 -0.2947 -0.1007 -1.1053
  578MOL0     C77906   6.302   8.718   8.502 -0.3159 -0.0516  0.5348
  578MOL0     C77907   6.446   8.706   8.550  0.0701 -0.1431 -0.4335
  578MOL0     C77908   6.519   8.582   8.497 -0.3140 -0.6341  0.1064
  578MOL0     C77909   6.659   8.569   8.558  0.3691  0.7880 -0.3597
  578MOL0     C77910   6.750   8.469   8.474 -0.2762  0.4240 -0.2247
  578MOL0     C77911   6.722   8.319   8.510 -0.1252  0.8046 -0.3137
  578MOL0     N77912   6.836   8.237   8.481  0.7405  0.5666 -0.2118
  578MOL0     C77913   6.840   8.141   8.378 -0.0807 -0.1911 -0.7518
  578MOL0     C77914   6.962   8.097   8.383  0.9465  0.4710  0.3952
  578MOL0     C77915   7.022   7.998   8.287 -0.2658 -0.3805 -0.0919
  578MOL0     C77916   7.157   7.938   8.337  0.3166  0.9529  0.6652
  578MOL0     C77917   7.216   7.828   8.240 -0.7912  0.3339 -0.4528
  578MOL0     C77918   7.355   7.797   8.292 -0.1380 -0.0059  0.0248
  578MOL0     O77919   7.429   7.735   8.190  0.4945 -0.2213 -0.3442
  578MOL0     C77920   7.569   7.732   8.191  0.2393 -0.1645  0.3568
  578MOL0     C77921   7.646   7.798   8.291  0.2958 -0.5479  1.3682
  578MOL0     C77922   7.788   7.796   8.280  0.7105 -0.8154  0.4340
  578MOL0     C77923   7.853   7.722   8.179  0.5492 -0.3131 -0.5397
  578MOL0     C77924   8.001   7.717   8.161  0.4100 -0.6617 -0.9319
  578MOL0     O77925   8.056   7.651   8.061  0.5528  0.7189  0.6373
  578MOL0     C77926   8.191   7.652   8.036 -0.5055 -0.4516  0.2718
  578MOL0     C77927   8.295   7.669   8.126  0.2682 -0.2187 -0.6368
  578MOL0     C77928   8.428   7.671   8.087  0.5397 -0.9227 -0.0160
  578MOL0     C77929   8.465   7.671   7.949 -0.5834 -0.7842 -0.3277
  578MOL0     O77930   8.606   7.680   7.930  0.2415  0.5242 -0.3449
  578MOL0     C77931   8.661   7.692   7.795 -0.0156 -0.5282 -0.2551
  578MOL0     C77932   8.807   7.744   7.799 -0.1851 -0.2418  0.4668
  578MOL0     C77933   8.801   7.885   7.861  0.1241 -0.9665  0.6781
  578MOL0     C77934   8.745   7.994   7.771 -0.5806 -0.5349 -0.5419
  578MOL0     C77935   8.813   8.131   7.815 -0.0983 -0.1919 -0.4629
  578MOL0     C77936   8.749   8.246   7.740 -0.2123 -0.2886 -0.3571
  578MOL0     C77937   8.801   8.378   7.784  0.5456 -0.1049  0.4219
  578MOL0     C77938   8.705   8.489   7.771  0.2935 -0.2851  0.5948
  578MOL0    Cl77939   8.777   8.639   7.827  0.0861  0.1160 -0.4609
  578MOL0     C77940   8.366   7.654   7.856  0.5952 -0.4299  1.2227
  578MOL0     C77941   8.228   7.646   7.895  0.0522  0.2346 -0.7740
  578MOL0     O77942   8.059   7.783   8.245 -1.3045  0.0680  0.5287
  578MOL0     C77943   7.773   7.669   8.080 -0.2419  0.1989 -0.4550
  578MOL0     C77944   7.635   7.670   8.090 -0.3696 -0.0779 -0.7068
  578MOL0     N77945   7.031   8.172   8.474 -0.1334 -0.5858  0.4459
  578MOL0     N77946   6.949   8.246   8.545 -0.4463  0.3438  0.0157
  578MOL0     C77947   5.844   9.111   8.556 -0.2001 -0.0405  0.1188
  578MOL0     C77948   5.710   9.137   8.532 -0.2001  0.8441 -0.0082
  578MOL0     C77949   5.256   9.123   8.447 -0.7029 -0.1384 -0.0007
  578MOL0     C77950   5.219   9.025   8.356 -0.5934 -0.3660 -0.7376
  578MOL0     C77951   5.087   9.006   8.309 -0.6997 -0.3532  0.3018
  578MOL0     C77952   4.988   9.086   8.359 -0.2788  0.4716  0.2307
  578MOL0     O77953   4.859   9.065   8.331  0.6396 -0.6101  0.4705
  578MOL0     C77954   4.823   8.975   8.225  0.1759  0.2695  0.3195
  578MOL0     C77955   4.675   8.951   8.221 -0.4323 -0.3449  0.0681
  578MOL0     C77956   4.603   9.079   8.170  0.9450 -0.7831 -0.2712
  578MOL0     C77957   4.596   9.119   8.022  0.3824 -0.0009  0.3076
  578MOL0     C77958   4.523   9.027   7.938  1.0828 -1.0569 -0.2986
  578MOL0     C77959   4.457   8.966   7.861 -0.0180  0.0252  0.3742
  578MOL0     C77960   5.023   9.175   8.456  0.2592  0.0719 -0.8432
  578MOL0     C77961   5.151   9.201   8.504 -0.1357 -0.3693 -0.1128
  578MOL0     C77962   5.165   9.309   8.615 -0.3074  0.1304  0.6099
  578MOL0     H77963   5.623   8.839   8.391 -1.2087  0.5913 -1.3736
  578MOL0     H77964   5.864   8.792   8.424  1.6662  0.5564  0.0181
  578MOL0     H77965   6.075   8.789   8.454  2.6083  0.0376 -1.8172
  578MOL0     H77966   6.139   8.924   8.366  0.1546 -1.1019 -1.6339
  578MOL0     H77967   6.226   8.852   8.654  1.4658  1.3489 -0.7518
  578MOL0     H77968   6.323   8.927   8.536  0.1401 -0.5509 -1.3256
  578MOL0     H77969   6.307   8.721   8.393  0.4975  3.1102  0.5726
  578MOL0     H77970   6.244   8.630   8.535 -2.3256  0.9103 -0.2720
  578MOL0     H77971   6.504   8.784   8.501 -0.9161  0.4854 -0.6340
  578MOL0     H77972   6.462   8.725   8.656  4.2248  1.3678 -1.1605
  578MOL0     H77973   6.458   8.492   8.509 -0.9112 -0.0796  1.4219
  578MOL0     H77974   6.541   8.594   8.390 -1.4729  1.1596  0.0328
  578MOL0     H77975   6.707   8.665   8.539 -0.3992  0.8517 -2.1252
  578MOL0     H77976   6.659   8.539   8.663  5.1057 -1.1892 -0.6845
  578MOL0     H77977   6.847   8.497   8.514 -0.5642  1.8374 -0.4439
  578MOL0     H77978   6.740   8.494   8.367 -3.0609 -2.0606 -0.6538
  578MOL0     H77979   6.704   8.310   8.618  2.5091 -0.5679  0.0979
  578MOL0     H77980   6.634   8.283   8.455 -0.5805  0.4661  0.6095
  578MOL0     H77981   6.767   8.110   8.304  0.7437  0.0953 -1.7133
  578MOL0     H77982   6.947   7.919   8.279 -3.4815  2.1698  1.9081
  578MOL0     H77983   7.044   8.052   8.195  2.9195  0.3775  0.9979
  578MOL0     H77984   7.218   8.026   8.358 -2.9533  2.6892  3.9883
  578MOL0     H77985   7.135   7.885   8.430  1.7531  1.8933  1.5597
  578MOL0     H77986   7.222   7.876   8.142 -1.3971 -0.6090 -0.9615
  578MOL0     H77987   7.150   7.742   8.232 -0.2420 -0.2714  1.2025
  578MOL0     H77988   7.344   7.722   8.370 -4.3330 -0.0008 -0.3513
  578MOL0     H77989   7.407   7.893   8.306 -0.0902 -0.0549  0.1772
  578MOL0     H77990   7.597   7.826   8.383 -0.0036  1.8090  0.5561
  578MOL0     H77991   7.843   7.834   8.365 -1.4246  3.2491  0.2334
  578MOL0     H77992   8.266   7.688   8.229 -0.2200  0.2976 -0.8686
  578MOL0     H77993   8.510   7.683   8.157  0.9872 -0.0249 -0.6747
  578MOL0     H77994   8.648   7.600   7.738  0.2469  0.1427 -1.4340
  578MOL0     H77995   8.604   7.771   7.745  0.7219  1.1480  1.4173
  578MOL0     H77996   8.875   7.672   7.844  1.2977 -0.0490 -1.3502
  578MOL0     H77997   8.835   7.766   7.695  0.1417  0.3381  0.6762
  578MOL0     H77998   8.740   7.898   7.951 -1.7561  0.0849 -0.6749
  578MOL0     H77999   8.902   7.920   7.885  0.1069 -0.4093 -0.0286
  578MOL0     H78000   8.636   8.005   7.785 -0.4177  1.2513 -0.3428
  578MOL0     H78001   8.772   7.974   7.667  0.4508  0.9702 -0.5975
  578MOL0     H78002   8.922   8.122   7.809  0.0064 -2.3362  2.4397
  578MOL0     H78003   8.793   8.140   7.922 -4.8948 -2.4265 -0.9242
  578MOL0     H78004   8.762   8.242   7.632 -1.1734  1.6205 -0.5804
  578MOL0     H78005   8.641   8.242   7.756 -0.2785 -0.4073 -0.8281
  578MOL0     H78006   8.891   8.405   7.728  0.5706  0.6596  0.8191
  578MOL0     H78007   8.835   8.378   7.888 -0.5013 -1.3188  0.7975
  578MOL0     H78008   8.681   8.497   7.665  1.4961 -0.2268  0.3190
  578MOL0     H78009   8.612   8.476   7.827 -0.6886  2.8608 -0.1212
  578MOL0     H78010   8.396   7.642   7.753 -2.2383 -2.4038  0.5181
  578MOL0     H78011   8.149   7.635   7.822 -0.9055  2.0226 -0.0682
  578MOL0     H78012   7.804   7.621   7.987  1.1962  0.6794 -0.2610
  578MOL0     H78013   7.586   7.622   8.006  2.1396  1.0421 -2.9394
  578MOL0     H78014   5.902   9.194   8.594 -0.0803  1.8477 -3.6655
  578MOL0     H78015   5.677   9.236   8.562  0.3224  0.8348  0.6232
  578MOL0     H78016   5.298   8.962   8.316  1.9789  0.7686  2.1560
  578MOL0     H78017   5.080   8.941   8.223 -0.4428  1.6485 -1.2801
  578MOL0     H78018   4.881   8.882   8.234  1.5024  1.1297  0.9870
  578MOL0     H78019   4.860   9.025   8.135  1.9068  1.2388  1.5127
  578MOL0     H78020   4.644   8.942   8.325  0.2730  0.8475  0.4020
  578MOL0     H78021   4.649   8.854   8.179  3.3782 -1.9205  0.8843
  578MOL0     H78022   4.637   9.169   8.222  0.6609 -2.5732  3.2779
  578MOL0     H78023   4.498   9.063   8.196  1.3698  1.2722  3.3622
  578MOL0     H78024   4.540   9.213   8.017 -2.3994 -1.6193 -2.4585
  578MOL0     H78025   4.695   9.132   7.977 -1.1532  2.4096 -2.7267
  578MOL0     H78026   4.394   8.905   7.801 -1.0491  0.2198  1.2286
  578MOL0     H78027   4.944   9.227   8.508  1.8039  1.5664  0.0773
  578MOL0     H78028   5.064   9.338   8.645 -0.7108 -0.0859 -0.5027
  578MOL0     H78029   5.214   9.267   8.704 -2.0949 -3.1285  0.2183
  578MOL0     H78030   5.215   9.399   8.579 -2.2728  1.0792  0.0919
  579MOL0     O78031   6.721   2.050   3.322 -0.0246  0.3292 -0.1348
  579MOL0     C78032   6.625   1.973   3.302 -0.3802 -0.5438 -0.1938
  579MOL0     O78033   6.634   1.835   3.276 -1.0205 -0.7685  0.1310
  579MOL0     C78034   6.761   1.782   3.238  0.7224  0.4116  0.8276
  579MOL0     C78035   6.761   1.702   3.121  0.3245  0.0236  0.1301
  579MOL0     C78036   6.891   1.670   3.063 -0.5901  0.2247 -0.2755
  579MOL0     C78037   7.011   1.712   3.118 -0.4281  0.4080 -0.3206
  579MOL0     O78038   7.117   1.707   3.031  0.4883 -0.3052 -0.0830
  579MOL0     C78039   7.169   1.571   3.031 -0.3476  0.4940  0.6270
  579MOL0     C78040   7.315   1.566   2.981 -0.3435 -0.3363  0.6131
  579MOL0     C78041   7.352   1.652   2.866  0.9796  0.1010  0.3270
  579MOL0     C78042   7.496   1.629   2.814  0.2013 -0.2450  0.2655
  579MOL0     C78043   7.520   1.691   2.670  0.2387  0.5961 -0.1163
  579MOL0     C78044   7.508   1.844   2.668  1.1218  0.2216 -0.8793
  579MOL0     C78045   7.533   1.911   2.532 -0.7444 -0.2141  0.4260
  579MOL0     C78046   7.683   1.943   2.489  0.6758  0.0693  0.7769
  579MOL0     N78047   7.738   2.043   2.579 -0.6994 -0.3383 -0.2074
  579MOL0     C78048   7.730   2.177   2.551  0.7703 -0.4155 -0.0133
  579MOL0     C78049   7.821   2.230   2.634  0.4558 -0.4606  0.0274
  579MOL0     C78050   7.845   2.377   2.643  0.2448 -0.7622 -0.7703
  579MOL0     C78051   8.004   2.405   2.656  0.4065 -0.0054 -0.7365
  579MOL0     C78052   8.005   2.560   2.675 -0.6855 -0.2107 -0.3064
  579MOL0     C78053   8.148   2.621   2.702  0.2781  0.2093 -0.1904
  579MOL0     O78054   8.223   2.554   2.808 -0.7698  0.1087 -0.5348
  579MOL0     C78055   8.354   2.595   2.820  0.4731 -0.1432 -0.5656
  579MOL0     C78056   8.412   2.560   2.941  0.2694 -1.1444 -0.4921
  579MOL0     C78057   8.539   2.601   2.986  0.3389 -0.1691 -0.0704
  579MOL0     C78058   8.622   2.678   2.901  0.5465 -0.5515 -0.0092
  579MOL0     C78059   8.771   2.710   2.929 -1.0546 -0.3063  0.1941
  579MOL0     O78060   8.838   2.788   2.845  0.0226  0.5470 -0.6134
  579MOL0     C78061   8.971   2.797   2.863  0.1114  0.4686  0.9780
  579MOL0     C78062   9.036   2.918   2.872 -0.3881 -0.7896  1.4692
  579MOL0     C78063   9.178   2.924   2.898 -0.3628 -0.3944  0.8302
  579MOL0     C78064   9.252   2.808   2.918 -0.0611 -0.2346  0.5057
  579MOL0     O78065   9.388   2.805   2.947  0.1043 -0.1848 -0.0187
  579MOL0     C78066   9.450   2.914   3.016  0.0980 -0.2625 -0.6898
  579MOL0     C78067   9.587   2.892   3.061  0.5282  0.9711  0.1086
  579MOL0     C78068   9.685   2.904   2.941  0.1738  0.0469  0.2949
  579MOL0     C78069   9.827   2.866   2.998  0.4294 -0.1726 -0.2535
  579MOL0     C78070   9.926   2.834   2.886  0.0996  0.0608  0.0651
  579MOL0     C78071   9.921   2.929   2.771  0.1130  0.3876  0.2798
  579MOL0     C78072  10.052   2.905   2.681  0.2090  0.4307 -0.3691
  579MOL0     C78073  10.061   2.989   2.558  0.3890  0.4165 -0.7871
  579MOL0    Cl78074  10.201   2.948   2.463  0.3198 -0.0934 -0.4455
  579MOL0     C78075   9.192   2.684   2.896 -0.0710 -0.0036  1.0030
  579MOL0     C78076   9.053   2.683   2.873 -0.2661  1.2016 -0.4700
  579MOL0     O78077   8.817   2.657   3.031  0.2487  0.0686  0.1368
  579MOL0     C78078   8.573   2.697   2.767  0.0126  0.9331  0.3381
  579MOL0     C78079   8.444   2.655   2.731 -0.3288  0.2448  0.5328
  579MOL0     N78080   7.883   2.132   2.715  0.4983 -0.1025 -0.6401
  579MOL0     N78081   7.832   2.022   2.676  0.2807  1.3543  0.0747
  579MOL0     C78082   7.014   1.775   3.246  0.8871  0.2230  0.3816
  579MOL0     C78083   6.885   1.806   3.311 -1.0383  0.9799 -1.2227
  579MOL0     C78084   6.484   2.024   3.329  0.2714 -0.0510 -0.0535
  579MOL0     C78085   6.395   1.940   3.398  0.0384 -0.3135 -0.7412
  579MOL0     C78086   6.275   1.979   3.444  0.2375  0.0413 -0.0152
  579MOL0     C78087   6.220   2.101   3.416  0.0569  0.4599  0.5670
  579MOL0     O78088   6.090   2.133   3.458 -0.1673 -0.4368  0.7344
  579MOL0     C78089   6.024   2.254   3.417 -0.1403 -0.3419 -0.1909
  579MOL0     C78090   5.891   2.274   3.478 -0.2220  0.0117  0.6247
  579MOL0     C78091   5.884   2.305   3.624  0.0859 -0.0569  0.6524
  579MOL0     C78092   5.738   2.296   3.672 -0.1730  0.1727  0.4576
  579MOL0     C78093   5.706   2.365   3.793 -0.2903  0.1788  0.2983
  579MOL0     C78094   5.695   2.416   3.901 -0.9578 -0.7932  0.6565
  579MOL0     C78095   6.301   2.193   3.344  0.3097 -0.5802  0.3397
  579MOL0     C78096   6.431   2.156   3.298 -0.3185  0.1245 -0.2561
  579MOL0     C78097   6.514   2.251   3.227  0.5722 -0.5782 -0.3391
  579MOL0     H78098   6.667   1.695   3.068  0.5043  0.4220 -0.2458
  579MOL0     H78099   6.884   1.625   2.965  0.3639  1.8761 -1.1358
  579MOL0     H78100   7.171   1.516   3.126  3.5564  2.0029  1.6513
  579MOL0     H78101   7.103   1.514   2.966 -0.8501 -0.6537  2.0857
  579MOL0     H78102   7.325   1.466   2.938  1.1791  0.1171 -0.1396
  579MOL0     H78103   7.375   1.585   3.071 -0.7777  1.6496  0.5311
  579MOL0     H78104   7.339   1.758   2.889  0.1741  0.8370 -3.0343
  579MOL0     H78105   7.279   1.637   2.786  1.9703 -2.3519 -0.2049
  579MOL0     H78106   7.564   1.687   2.877  0.7209 -0.7813  0.2132
  579MOL0     H78107   7.526   1.524   2.803 -2.1721 -1.4304  3.5712
  579MOL0     H78108   7.624   1.676   2.642 -0.0969 -2.5380 -0.0376
  579MOL0     H78109   7.460   1.639   2.594  2.2808 -2.4766  0.2120
  579MOL0     H78110   7.409   1.876   2.702  1.1867 -2.2840  2.1151
  579MOL0     H78111   7.579   1.901   2.730 -1.3511  2.5664  0.0156
  579MOL0     H78112   7.478   2.005   2.541 -0.0474  0.6060 -2.6598
  579MOL0     H78113   7.495   1.855   2.446  2.4802 -1.2443 -0.4771
  579MOL0     H78114   7.739   1.849   2.487 -0.6018 -0.8137  2.8900
  579MOL0     H78115   7.678   1.989   2.390 -1.0937  1.7918  1.5963
  579MOL0     H78116   7.666   2.236   2.486  0.7764  1.4579  1.5705
  579MOL0     H78117   7.812   2.428   2.552 -0.2474  1.5451  0.6111
  579MOL0     H78118   7.790   2.427   2.723 -0.2656 -1.5628 -0.6105
  579MOL0     H78119   8.033   2.364   2.753 -2.3545  1.0494  0.6674
  579MOL0     H78120   8.055   2.378   2.563 -1.4776  1.4195 -2.2934
  579MOL0     H78121   7.952   2.591   2.766  3.8447 -1.1752  3.0075
  579MOL0     H78122   7.965   2.603   2.583 -2.4682 -2.3717 -0.6385
  579MOL0     H78123   8.140   2.727   2.724 -0.3113  0.2692 -0.6491
  579MOL0     H78124   8.200   2.631   2.606  0.7879  1.5922  0.2096
  579MOL0     H78125   8.341   2.512   3.007  0.9826  0.9869  1.9541
  579MOL0     H78126   8.573   2.565   3.082  0.7963  1.6351  0.4974
  579MOL0     H78127   9.001   3.013   2.833 -0.1914 -0.9322  0.9365
  579MOL0     H78128   9.227   3.020   2.896  0.9117 -0.7930  4.7026
  579MOL0     H78129   9.430   3.001   2.953 -1.3323 -0.6042 -0.7500
  579MOL0     H78130   9.387   2.932   3.103 -0.1886  4.0175 -1.5401
  579MOL0     H78131   9.606   2.968   3.138 -0.2197  0.9756  0.2981
  579MOL0     H78132   9.597   2.790   3.102  0.0840  0.8003 -0.2073
  579MOL0     H78133   9.653   2.837   2.860  1.6919  0.2154 -0.4930
  579MOL0     H78134   9.680   3.002   2.893 -1.3114 -0.1870 -0.0703
  579MOL0     H78135   9.812   2.782   3.066 -2.7847 -1.3350 -2.1517
  579MOL0     H78136   9.868   2.947   3.058  1.2023 -0.7904  0.0621
  579MOL0     H78137   9.899   2.732   2.855  1.0984 -0.0862 -0.3293
  579MOL0     H78138  10.029   2.829   2.923  0.2597  1.4215 -0.1646
  579MOL0     H78139   9.833   2.922   2.708  0.4534 -1.4191 -0.0614
  579MOL0     H78140   9.931   3.029   2.815  1.0680  2.1389 -3.5391
  579MOL0     H78141  10.063   2.803   2.644 -2.3274  0.9598 -3.0085
  579MOL0     H78142  10.140   2.916   2.744  1.0562  0.7014 -1.5671
  579MOL0     H78143   9.973   2.971   2.495  0.0080  0.0743 -0.1673
  579MOL0     H78144  10.065   3.096   2.582  3.0199  0.4681 -1.1709
  579MOL0     H78145   9.249   2.592   2.895  0.4294  0.2406 -2.5077
  579MOL0     H78146   9.002   2.590   2.849  0.7945  0.7892 -1.2358
  579MOL0     H78147   8.636   2.736   2.687 -0.4496 -1.8088 -1.5193
  579MOL0     H78148   8.409   2.668   2.629  0.0885 -1.0461  0.2034
  579MOL0     H78149   7.104   1.810   3.295 -1.1822  2.3564  2.9970
  579MOL0     H78150   6.886   1.848   3.412  1.8543  0.5651 -0.9935
  579MOL0     H78151   6.425   1.837   3.407  0.0721 -0.1381  3.0633
  579MOL0     H78152   6.220   1.916   3.513  2.4988 -1.3436  0.6432
  579MOL0     H78153   6.020   2.249   3.308 -0.3433 -0.4813 -0.1771
  579MOL0     H78154   6.084   2.340   3.447  1.3155 -1.6574  0.8960
  579MOL0     H78155   5.825   2.191   3.450 -1.5253  1.4268 -0.6972
  579MOL0     H78156   5.839   2.355   3.425 -0.7886 -0.0700  1.0428
  579MOL0     H78157   5.922   2.407   3.625 -1.0722  0.4497 -1.4727
  579MOL0     H78158   5.945   2.235   3.682  1.9247 -0.3495 -1.4838
  579MOL0     H78159   5.676   2.338   3.591  1.9743  0.5176 -1.0901
  579MOL0     H78160   5.710   2.192   3.690  1.0495 -0.3727 -0.6256
  579MOL0     H78161   5.687   2.482   3.985  0.8926  2.6354 -1.5827
  579MOL0     H78162   6.265   2.292   3.321  1.0593  0.7710  4.3229
  579MOL0     H78163   6.623   2.255   3.240  0.4032  2.7531  1.0005
  579MOL0     H78164   6.496   2.230   3.121 -1.5105  1.0188 -0.3498
  579MOL0     H78165   6.475   2.351   3.244 -0.5344 -0.5745 -2.5321
  580MOL0     O78166   3.194   6.010   2.284  0.3018 -0.6090  0.0450
  580MOL0     C78167   3.093   5.987   2.349  0.5781 -0.3520  0.3116
  580MOL0     O78168   3.089   5.969   2.479  0.1782 -0.9569  0.0177
  580MOL0     C78169   3.208   5.938   2.553 -0.1631 -0.2333  0.1138
  580MOL0     C78170   3.182   5.932   2.689  0.1146 -0.3140  0.5103
  580MOL0     C78171   3.281   5.881   2.783  0.0451 -0.7680  0.1295
  580MOL0     C78172   3.410   5.862   2.727  0.3324  0.2352 -0.1457
  580MOL0     O78173   3.516   5.815   2.801 -0.5165 -0.5523  0.1670
  580MOL0     C78174   3.554   5.888   2.919 -0.3968  0.2239 -0.4977
  580MOL0     C78175   3.666   5.993   2.883 -0.0464 -0.1492  0.1006
  580MOL0     C78176   3.768   6.020   2.991 -0.0810 -0.6437  0.5103
  580MOL0     C78177   3.869   6.137   2.944 -0.8603 -0.0305 -0.2863
  580MOL0     C78178   3.963   6.173   3.064 -1.0868 -0.2453  0.1994
  580MOL0     C78179   4.070   6.271   3.017 -0.2845 -0.0114  0.0436
  580MOL0     C78180   4.164   6.230   2.896 -0.8627  0.2733  0.2902
  580MOL0     C78181   4.275   6.324   2.857  0.0662 -0.1458  1.1449
  580MOL0     N78182   4.380   6.329   2.961 -0.0975  0.5087  0.4354
  580MOL0     C78183   4.482   6.235   2.970  0.3034  0.4750  0.1802
  580MOL0     C78184   4.575   6.290   3.048 -0.1036  0.3602 -0.5641
  580MOL0     C78185   4.698   6.225   3.090 -0.1175 -0.2378 -0.1456
  580MOL0     C78186   4.736   6.216   3.237 -0.8233  0.1938  0.1153
  580MOL0     C78187   4.857   6.119   3.248 -0.7005  0.2846  0.5068
  580MOL0     C78188   4.880   6.100   3.396  0.0272  0.1158 -0.2311
  580MOL0     O78189   4.997   6.019   3.407  0.6690 -0.0102 -0.6757
  580MOL0     C78190   5.116   6.086   3.419 -0.0090 -0.0495  0.6992
  580MOL0     C78191   5.143   6.182   3.513  0.2073 -0.7458 -0.5243
  580MOL0     C78192   5.281   6.224   3.523 -0.3751  0.4705  0.2117
  580MOL0     C78193   5.386   6.178   3.435  0.8320  0.9581 -0.4824
  580MOL0     C78194   5.526   6.220   3.444 -0.8150 -0.3822  0.0924
  580MOL0     O78195   5.562   6.322   3.533  0.1921 -0.2646 -0.0142
  580MOL0     C78196   5.698   6.315   3.570  0.1616  0.4780  0.2907
  580MOL0     C78197   5.778   6.424   3.553  0.0587 -0.2222  0.0733
  580MOL0     C78198   5.911   6.415   3.591 -0.1781 -0.5543  0.8114
  580MOL0     C78199   5.969   6.301   3.648 -0.1937 -0.0657  0.0530
  580MOL0     O78200   6.100   6.316   3.687 -0.0559  1.4197  0.3391
  580MOL0     C78201   6.186   6.203   3.646 -0.0259 -0.2335 -0.0303
  580MOL0     C78202   6.311   6.269   3.603 -0.0308 -1.1527 -0.8307
  580MOL0     C78203   6.432   6.178   3.584  0.5488 -0.2639  0.6722
  580MOL0     C78204   6.546   6.254   3.517  0.4218  0.3321  0.3979
  580MOL0     C78205   6.665   6.157   3.510 -0.3121 -0.2460 -0.5526
  580MOL0     C78206   6.783   6.229   3.431  0.1693  0.5016  0.0954
  580MOL0     C78207   6.902   6.137   3.416  0.1395  0.3980  0.3650
  580MOL0     C78208   7.014   6.208   3.346  0.5411  0.2458 -0.3380
  580MOL0    Cl78209   7.156   6.100   3.342  0.2318  0.2155  0.4627
  580MOL0     C78210   5.895   6.193   3.665 -0.2225  0.3822 -0.6597
  580MOL0     C78211   5.754   6.190   3.628  0.8292  0.0813 -0.1536
  580MOL0     O78212   5.602   6.168   3.367 -0.1788 -0.7531  0.1058
  580MOL0     C78213   5.348   6.089   3.339  0.0474 -0.2740 -0.1494
  580MOL0     C78214   5.215   6.046   3.327  0.6494  0.0908 -0.3593
  580MOL0     N78215   4.541   6.419   3.078  0.2436 -0.7566  0.1367
  580MOL0     N78216   4.430   6.443   3.016  0.1725  0.1951  0.7994
  580MOL0     C78217   3.441   5.888   2.587 -0.5833 -0.4845  0.0714
  580MOL0     C78218   3.341   5.925   2.503  0.6742 -0.9069  0.5111
  580MOL0     C78219   2.960   6.016   2.285  0.2305  0.2752  0.1328
  580MOL0     C78220   2.849   5.949   2.338  0.8861  0.7213 -0.7910
  580MOL0     C78221   2.717   5.970   2.296 -0.1653 -0.1231 -1.4364
  580MOL0     C78222   2.692   6.067   2.203 -0.3774 -0.8099  0.1757
  580MOL0     O78223   2.570   6.104   2.166 -0.2022 -0.5284 -0.1490
  580MOL0     C78224   2.455   6.082   2.245 -0.4867 -0.2302 -0.7086
  580MOL0     C78225   2.385   5.955   2.203  0.2600  0.0789 -0.3037
  580MOL0     C78226   2.337   5.963   2.058 -0.1419 -0.3823  0.4107
  580MOL0     C78227   2.197   6.028   2.044  0.2631  0.5926 -0.4635
  580MOL0     C78228   2.093   5.942   2.107 -0.0543 -0.1777 -0.2026
  580MOL0     C78229   2.025   5.864   2.164 -0.3692 -0.1081  1.5596
  580MOL0     C78230   2.800   6.126   2.144 -0.9902 -0.4132  0.0783
  580MOL0     C78231   2.933   6.101   2.181 -0.2521 -0.5035 -0.3589
  580MOL0     C78232   3.036   6.167   2.091  0.2381  0.2534 -0.0944
  580MOL0     H78233   3.085   5.970   2.717  1.4245  1.4621  3.0167
  580MOL0     H78234   3.257   5.879   2.889 -1.8617  3.0785 -0.0372
  580MOL0     H78235   3.469   5.943   2.960 -0.1014  1.3076 -1.3112
  580MOL0     H78236   3.590   5.821   2.998 -1.4552 -1.9906 -1.7911
  580MOL0     H78237   3.631   6.090   2.844  3.5889  0.4404 -2.2084
  580MOL0     H78238   3.715   5.966   2.789 -2.9292  3.4738 -2.7803
  580MOL0     H78239   3.822   5.928   3.012  0.9772 -0.0947  0.2520
  580MOL0     H78240   3.712   6.045   3.082  2.5386  1.9105  1.5856
  580MOL0     H78241   3.919   6.087   2.861  0.3113  2.0396 -0.9081
  580MOL0     H78242   3.821   6.228   2.906  1.1975  2.6149  2.9473
  580MOL0     H78243   3.895   6.213   3.140 -1.7848 -0.6549 -0.1936
  580MOL0     H78244   4.015   6.086   3.107  2.5263  1.4575 -0.3918
  580MOL0     H78245   4.017   6.358   2.980 -2.0775 -2.6059 -4.1262
  580MOL0     H78246   4.133   6.303   3.102  1.5681  1.1087 -1.6630
  580MOL0     H78247   4.100   6.207   2.810 -1.7668 -0.9602  1.2679
  580MOL0     H78248   4.213   6.136   2.923 -1.6691 -0.1925  0.1532
  580MOL0     H78249   4.318   6.281   2.766  0.2838  2.1713  0.0796
  580MOL0     H78250   4.234   6.423   2.836 -1.6313 -1.2415 -1.2554
  580MOL0     H78251   4.481   6.142   2.914 -1.0127  0.6644 -0.1294
  580MOL0     H78252   4.694   6.126   3.043  0.7565 -0.0191 -0.7108
  580MOL0     H78253   4.774   6.280   3.034 -1.9579  1.6137 -0.9633
  580MOL0     H78254   4.767   6.317   3.267 -0.1906 -0.2683  1.0509
  580MOL0     H78255   4.662   6.166   3.300  1.6301 -0.7883  2.4156
  580MOL0     H78256   4.943   6.153   3.190 -0.9418 -0.4586 -0.2932
  580MOL0     H78257   4.835   6.026   3.196  3.1369  0.3212 -1.5519
  580MOL0     H78258   4.792   6.050   3.438 -0.3474  0.6581 -0.3620
  580MOL0     H78259   4.880   6.198   3.445 -3.0373 -1.1619  2.7557
  580MOL0     H78260   5.065   6.214   3.581 -1.0113 -2.4505 -1.0311
  580MOL0     H78261   5.300   6.296   3.602  2.1210  0.1393 -0.0037
  580MOL0     H78262   5.734   6.515   3.512 -1.2244 -0.1292  1.6052
  580MOL0     H78263   5.970   6.504   3.570  0.3938 -1.0715  0.1891
  580MOL0     H78264   6.209   6.148   3.738  1.3143 -0.5511 -0.5374
  580MOL0     H78265   6.147   6.144   3.562  1.6612  1.2156 -1.9170
  580MOL0     H78266   6.295   6.325   3.511 -1.6771 -0.5469 -0.2215
  580MOL0     H78267   6.334   6.338   3.685  0.1905 -0.5610 -1.3805
  580MOL0     H78268   6.474   6.140   3.677 -1.3655 -2.6895  0.6396
  580MOL0     H78269   6.414   6.092   3.519  2.2738 -1.0413  1.1795
  580MOL0     H78270   6.575   6.338   3.581  0.7122 -1.5570  2.9486
  580MOL0     H78271   6.516   6.290   3.418 -0.2949 -0.9746  0.1181
  580MOL0     H78272   6.628   6.072   3.452 -1.2732  0.7102 -1.3804
  580MOL0     H78273   6.696   6.123   3.609  3.6809  0.7502 -1.2712
  580MOL0     H78274   6.748   6.251   3.330  0.6959 -1.8056 -0.6580
  580MOL0     H78275   6.812   6.322   3.481  2.6415  1.4151 -2.7069
  580MOL0     H78276   6.879   6.048   3.357 -0.2731 -0.4476  1.7750
  580MOL0     H78277   6.934   6.104   3.515  3.9194  0.8324 -0.5512
  580MOL0     H78278   6.982   6.243   3.247 -3.6834 -0.7059  0.4742
  580MOL0     H78279   7.038   6.297   3.403 -1.1793  1.2305 -1.0534
  580MOL0     H78280   5.946   6.109   3.711  1.2521  1.4073 -0.3613
  580MOL0     H78281   5.696   6.098   3.629  0.6672  0.1400  2.6924
  580MOL0     H78282   5.423   6.041   3.277 -0.1852  1.8612 -2.2142
  580MOL0     H78283   5.176   5.982   3.249  2.4908  0.7107 -1.8808
  580MOL0     H78284   3.541   5.872   2.550 -0.1844  0.7572  0.5422
  580MOL0     H78285   3.360   5.935   2.397 -0.2246  1.3970  0.4957
  580MOL0     H78286   2.867   5.876   2.417  1.4455 -0.1459 -1.6901
  580MOL0     H78287   2.640   5.926   2.358  1.1121  0.5892  0.7558
  580MOL0     H78288   2.395   6.174   2.249 -0.5912 -0.2500 -1.6191
  580MOL0     H78289   2.486   6.066   2.349  1.7673  1.0281 -1.1260
  580MOL0     H78290   2.305   5.926   2.272  1.7786 -1.5704  0.8652
  580MOL0     H78291   2.452   5.869   2.216  2.0280  1.1656 -1.7491
  580MOL0     H78292   2.327   5.860   2.022 -0.5943  0.1840 -1.1879
  580MOL0     H78293   2.417   6.011   2.000  1.3227  0.1509  2.7317
  580MOL0     H78294   2.192   6.131   2.080  0.1981  1.9043 -3.8139
  580MOL0     H78295   2.168   6.020   1.939  2.7933  0.8942 -1.2556
  580MOL0     H78296   1.956   5.801   2.217 -0.1010  0.4283  2.5813
  580MOL0     H78297   2.776   6.202   2.070  0.3715  1.1230  1.1586
  580MOL0     H78298   3.005   6.266   2.055  0.0515 -0.1340 -1.0519
  580MOL0     H78299   3.133   6.178   2.139  0.2593 -1.7758  0.3999
  580MOL0     H78300   3.050   6.107   2.000 -1.7577 -3.5011  1.8516
  581MOL0     O78301  10.889   7.269  10.756  0.0892 -0.3742  0.1349
  581MOL0     C78302  10.957   7.255  10.860  0.6954 -0.1811  0.5144
  581MOL0     O78303  10.948   7.147  10.949  0.3347 -0.1553 -0.0050
  581MOL0     C78304  10.859   7.042  10.925 -0.2515  0.4656  0.3509
  581MOL0     C78305  10.895   6.926  10.854 -0.2940  0.6908  0.5305
  581MOL0     C78306  10.811   6.815  10.862  0.0264  0.0528  0.7354
  581MOL0     C78307  10.688   6.825  10.927 -0.2438 -0.6621  0.1864
  581MOL0     O78308  10.596   6.728  10.925  0.1761 -0.5661  0.3636
  581MOL0     C78309  10.582   6.659  10.802  0.0526  0.1208 -0.2262
  581MOL0     C78310  10.475   6.557  10.818 -0.4856  1.3279 -0.1489
  581MOL0     C78311  10.430   6.491  10.690 -0.7397  0.0743  0.0642
  581MOL0     C78312  10.315   6.402  10.721  0.1813 -0.1669 -0.0978
  581MOL0     C78313  10.249   6.324  10.608 -0.1534 -0.1863  0.0460
  581MOL0     C78314  10.169   6.412  10.515  0.2488  0.1190  0.4716
  581MOL0     C78315  10.107   6.345  10.393 -0.5290  0.8318 -1.4763
  581MOL0     C78316  10.209   6.307  10.289 -0.2940  0.5755 -0.5131
  581MOL0     N78317  10.302   6.200  10.314 -0.0190 -0.0038  0.4843
  581MOL0     C78318  10.269   6.074  10.352 -1.1158  0.5267 -1.0308
  581MOL0     C78319  10.387   6.013  10.366 -0.1882 -0.0770 -0.5150
  581MOL0     C78320  10.427   5.871  10.412  0.2806 -0.4665  0.4158
  581MOL0     C78321  10.370   5.764  10.323 -1.1021 -0.0241 -1.1369
  581MOL0     C78322  10.428   5.748  10.180 -0.6535  0.1807 -0.1559
  581MOL0     C78323  10.423   5.864  10.083 -0.0352  0.2163  0.1330
  581MOL0     O78324  10.285   5.898  10.075  0.1865 -0.2800  0.4400
  581MOL0     C78325  10.256   5.999   9.990  0.1429 -0.0606  0.9106
  581MOL0     C78326  10.146   6.074  10.023  0.6734 -0.2417 -0.4822
  581MOL0     C78327  10.083   6.164   9.940 -1.1193  0.0974 -0.5594
  581MOL0     C78328  10.129   6.186   9.811  0.4174 -0.0961 -0.3763
  581MOL0     C78329  10.065   6.286   9.730  0.1666 -0.9023 -0.7748
  581MOL0     O78330   9.954   6.352   9.786  0.3979  0.2100 -0.8607
  581MOL0     C78331   9.869   6.419   9.695  0.5042  0.2055  0.1542
  581MOL0     C78332   9.740   6.364   9.664  0.1536 -0.5316 -0.4181
  581MOL0     C78333   9.657   6.434   9.579 -0.2503 -0.1873  0.2865
  581MOL0     C78334   9.699   6.560   9.512  0.9725  0.3086  0.1188
  581MOL0     O78335   9.614   6.625   9.423 -0.0938 -0.3123  0.0929
  581MOL0     C78336   9.564   6.745   9.487  0.3960  0.6258  0.1232
  581MOL0     C78337   9.454   6.722   9.580 -0.4206 -0.5208 -1.2748
  581MOL0     C78338   9.392   6.861   9.612 -0.4022  0.5190 -0.5380
  581MOL0     C78339   9.262   6.854   9.687 -0.2935  0.3069  0.3228
  581MOL0     C78340   9.199   6.988   9.729 -0.3731 -0.0975 -0.1500
  581MOL0     C78341   9.047   6.975   9.757 -0.2953  0.0903  0.0595
  581MOL0     C78342   8.996   7.111   9.806 -0.4289 -0.1141  0.0140
  581MOL0     C78343   8.857   7.112   9.863  0.3713 -0.5581 -0.5364
  581MOL0    Cl78344   8.737   7.089   9.734 -0.0359  0.1971 -0.3238
  581MOL0     C78345   9.822   6.614   9.548 -0.4405  0.3356 -1.4238
  581MOL0     C78346   9.904   6.542   9.634 -0.1663 -0.6135  0.2759
  581MOL0     O78347  10.124   6.317   9.628 -0.6064  0.5971 -0.2368
  581MOL0     C78348  10.237   6.102   9.771 -0.0830 -1.1955 -0.4017
  581MOL0     C78349  10.298   6.020   9.857 -0.2360  0.1879 -1.0504
  581MOL0     N78350  10.485   6.098  10.319  0.3451 -0.0142  0.4544
  581MOL0     N78351  10.436   6.211  10.292  0.5007  0.7515  0.1616
  581MOL0     C78352  10.654   6.938  11.001 -0.6569  0.4624  0.4749
  581MOL0     C78353  10.742   7.043  11.002  0.1925  0.1478  0.2264
  581MOL0     C78354  11.054   7.363  10.904  0.2659  0.2720  0.1189
  581MOL0     C78355  11.108   7.353  11.037  0.2137 -0.2241  0.0628
  581MOL0     C78356  11.194   7.455  11.086  0.7605  0.1886 -0.0282
  581MOL0     C78357  11.238   7.560  11.005  0.5157  0.6372  0.7034
  581MOL0     O78358  11.333   7.651  11.054  0.8012  0.3369  0.2312
  581MOL0     C78359  11.401   7.746  10.958  0.5129 -0.3786 -0.5573
  581MOL0     C78360  11.517   7.819  11.027 -0.4772  0.5752 -0.6631
  581MOL0     C78361  11.594   7.908  10.928  0.2685 -0.6447  0.5153
  581MOL0     C78362  11.668   8.026  11.001 -1.1370  1.3477  0.3333
  581MOL0     C78363  11.773   7.977  11.087  0.0666  0.0155 -0.7140
  581MOL0     C78364  11.861   7.932  11.154  0.1812  0.7691 -0.5326
  581MOL0     C78365  11.180   7.567  10.881 -0.4703  0.4603  1.1756
  581MOL0     C78366  11.086   7.477  10.824 -0.4462 -0.0523 -0.1585
  581MOL0     C78367  11.020   7.517  10.699 -0.3356 -0.3898 -0.4275
  581MOL0     H78368  10.991   6.923  10.804  1.0106 -0.6826  2.9393
  581MOL0     H78369  10.848   6.720  10.824  1.1254  1.5726 -2.3474
  581MOL0     H78370  10.552   6.732  10.727  0.2021 -2.3032 -2.8037
  581MOL0     H78371  10.669   6.606  10.761 -0.8146 -0.6695 -1.0785
  581MOL0     H78372  10.384   6.598  10.863  0.3010  0.5163  2.4118
  581MOL0     H78373  10.514   6.482  10.888 -1.0580  1.8256  0.7264
  581MOL0     H78374  10.513   6.424  10.664 -1.6973 -0.7561 -0.9486
  581MOL0     H78375  10.403   6.559  10.609 -0.1215  1.7503  1.2094
  581MOL0     H78376  10.333   6.321  10.792 -4.0505  0.1437  1.6125
  581MOL0     H78377  10.242   6.470  10.764  1.6689  0.4612  1.5898
  581MOL0     H78378  10.330   6.274  10.554  0.2897  0.8690 -0.2913
  581MOL0     H78379  10.179   6.252  10.652 -1.0037  0.0058 -0.9481
  581MOL0     H78380  10.085   6.457  10.570  0.3371 -1.8595  2.3788
  581MOL0     H78381  10.236   6.484  10.467 -0.5520  1.6514  1.5652
  581MOL0     H78382  10.026   6.411  10.357 -0.6998  1.0909 -0.6450
  581MOL0     H78383  10.063   6.253  10.432  0.3474  0.6474 -0.9130
  581MOL0     H78384  10.148   6.273  10.205  2.0147 -1.3317 -1.5202
  581MOL0     H78385  10.256   6.401  10.258 -1.3596  1.3702  0.1749
  581MOL0     H78386  10.173   6.026  10.366  0.4872 -2.7619 -0.4228
  581MOL0     H78387  10.536   5.874  10.405  0.3121  0.9911  1.1589
  581MOL0     H78388  10.401   5.849  10.516  0.4409 -1.4713  0.2522
  581MOL0     H78389  10.382   5.669  10.377  2.2940  2.6244  3.5082
  581MOL0     H78390  10.264   5.783  10.304 -0.6592  0.6266 -3.1414
  581MOL0     H78391  10.389   5.654  10.140 -1.6950  0.5667 -0.0766
  581MOL0     H78392  10.533   5.720  10.187 -0.8157 -0.2807  0.6001
  581MOL0     H78393  10.472   5.840   9.988 -0.8897  1.1263 -0.5405
  581MOL0     H78394  10.470   5.951  10.129 -0.3379  0.9219 -0.8838
  581MOL0     H78395  10.104   6.056  10.122 -0.3902  1.2581 -0.6255
  581MOL0     H78396  10.010   6.230   9.985  0.1277  0.6145  0.7843
  581MOL0     H78397   9.695   6.275   9.707  1.7277 -1.4036 -0.5060
  581MOL0     H78398   9.554   6.405   9.558  0.2007 -0.0860 -2.3707
  581MOL0     H78399   9.646   6.806   9.527  0.4116 -0.1079  1.2643
  581MOL0     H78400   9.533   6.812   9.407  3.6431  1.9666 -0.1584
  581MOL0     H78401   9.375   6.656   9.542 -2.4826  0.6212  0.7919
  581MOL0     H78402   9.490   6.672   9.671 -1.7135  2.2488  0.9272
  581MOL0     H78403   9.466   6.923   9.664  1.5001 -2.6795  0.8408
  581MOL0     H78404   9.380   6.912   9.516  2.8887  0.0970 -1.2792
  581MOL0     H78405   9.274   6.793   9.777  3.1014 -1.3113 -1.0142
  581MOL0     H78406   9.190   6.798   9.625 -0.4525  1.7087 -0.8158
  581MOL0     H78407   9.202   7.065   9.652 -2.1264 -2.4196 -2.7381
  581MOL0     H78408   9.255   7.019   9.818 -2.5848 -1.1440  1.7195
  581MOL0     H78409   8.993   6.937   9.670  2.1183  0.9035 -1.8941
  581MOL0     H78410   9.026   6.904   9.838 -2.3231 -0.0473 -0.5310
  581MOL0     H78411   9.012   7.185   9.726  0.6889  0.4037  0.6823
  581MOL0     H78412   9.061   7.129   9.892 -0.9071 -2.3421  0.8758
  581MOL0     H78413   8.852   7.027   9.933  1.6099  0.2918  0.6385
  581MOL0     H78414   8.832   7.202   9.920 -0.9194  0.4193 -2.5457
  581MOL0     H78415   9.858   6.717   9.538  1.8871 -0.2568 -0.0406
  581MOL0     H78416   9.990   6.599   9.667 -0.0451  0.4079 -1.6680
  581MOL0     H78417  10.267   6.104   9.667  2.5900 -1.0609  0.3088
  581MOL0     H78418  10.366   5.942   9.822  0.2972 -0.0121  0.3665
  581MOL0     H78419  10.561   6.946  11.057 -0.9622  0.5360 -0.0345
  581MOL0     H78420  10.730   7.135  11.058 -2.1627 -2.3021  4.2531
  581MOL0     H78421  11.093   7.263  11.096 -1.6520 -1.5423 -2.2113
  581MOL0     H78422  11.252   7.446  11.177  1.6898 -2.5910 -0.7945
  581MOL0     H78423  11.332   7.818  10.914  0.2893 -0.4238 -0.2847
  581MOL0     H78424  11.439   7.679  10.880 -1.0524 -1.9978 -0.0041
  581MOL0     H78425  11.572   7.727  11.050 -4.2617 -2.0666 -1.2127
  581MOL0     H78426  11.504   7.873  11.121  1.7941  0.5821 -0.3003
  581MOL0     H78427  11.520   7.954  10.861  1.5326 -0.9606 -1.1853
  581MOL0     H78428  11.671   7.851  10.874  1.6394 -0.0548  1.7876
  581MOL0     H78429  11.709   8.093  10.925 -1.4488 -0.9344 -2.0212
  581MOL0     H78430  11.592   8.084  11.053 -2.4990 -0.7366  0.8155
  581MOL0     H78431  11.933   7.911  11.230 -0.5572  2.9809  0.9083
  581MOL0     H78432  11.208   7.649  10.815  1.2414 -1.1561 -0.2700
  581MOL0     H78433  11.046   7.616  10.662 -0.1729 -0.3825 -0.2998
  581MOL0     H78434  11.034   7.443  10.620  1.1472  1.3512 -1.8923
  581MOL0     H78435  10.914   7.530  10.723  0.3205  3.2074  1.2409
  582MOL0     O78436   2.814   3.538   3.924  0.4993 -0.2433 -0.0774
  582MOL0     C78437   2.768   3.579   4.031 -0.3143  0.2172  0.8790
  582MOL0     O78438   2.818   3.693   4.092 -0.3106 -0.5293  0.1226
  582MOL0     C78439   2.890   3.777   4.007 -0.4668 -0.3776  0.6692
  582MOL0     C78440   2.844   3.837   3.889  0.3035 -0.2545 -0.7570
  582MOL0     C78441   2.916   3.915   3.797 -0.8262  0.1049  0.4146
  582MOL0     C78442   3.050   3.934   3.830 -0.1492  0.0767  0.2244
  582MOL0     O78443   3.128   4.007   3.746 -0.3165  0.3784 -0.3618
  582MOL0     C78444   3.192   4.111   3.812  0.2363  0.3184  0.6297
  582MOL0     C78445   3.274   4.188   3.703 -0.2134 -0.1626  0.6287
  582MOL0     C78446   3.366   4.301   3.757  0.5261  0.1367 -0.2261
  582MOL0     C78447   3.475   4.332   3.665  0.2515  0.2950  0.2085
  582MOL0     C78448   3.552   4.460   3.715 -0.2516 -0.3330 -0.1121
  582MOL0     C78449   3.663   4.494   3.629  0.2741 -0.3830 -0.1935
  582MOL0     C78450   3.744   4.616   3.687  0.5618 -0.1283 -0.4797
  582MOL0     C78451   3.860   4.662   3.602  0.1930  0.2651 -0.0067
  582MOL0     N78452   3.971   4.565   3.594  0.4453  0.3172 -0.4490
  582MOL0     C78453   4.020   4.485   3.688 -0.5041  0.3322 -0.2773
  582MOL0     C78454   4.111   4.407   3.625 -0.6657  0.2870 -0.4342
  582MOL0     C78455   4.197   4.302   3.686 -0.3608 -0.4570  0.4488
  582MOL0     C78456   4.300   4.351   3.776 -1.0221  0.0608 -0.5289
  582MOL0     C78457   4.411   4.434   3.711 -0.1925 -0.4570  0.8460
  582MOL0     C78458   4.523   4.462   3.823 -0.2235  0.2764  0.2169
  582MOL0     O78459   4.636   4.503   3.751 -0.0235 -0.2292 -0.6726
  582MOL0     C78460   4.752   4.513   3.813 -0.3003  0.2898 -0.4310
  582MOL0     C78461   4.867   4.559   3.748  0.0186  0.6780 -0.6505
  582MOL0     C78462   4.991   4.584   3.808  0.4301  0.6128 -0.1581
  582MOL0     C78463   5.011   4.572   3.943 -0.1214  0.0905 -0.7316
  582MOL0     C78464   5.135   4.618   4.006  0.3577  0.7405 -0.4661
  582MOL0     O78465   5.226   4.666   3.916 -0.3549  0.3762  0.1605
  582MOL0     C78466   5.360   4.638   3.931  0.2724  0.9706 -0.0370
  582MOL0     C78467   5.448   4.741   3.921  0.0019 -0.7086  0.7305
  582MOL0     C78468   5.589   4.728   3.927 -0.2258  0.3249  0.9092
  582MOL0     C78469   5.643   4.602   3.922  0.4398  0.5558 -0.3951
  582MOL0     O78470   5.775   4.569   3.894 -0.4064  0.0716  0.4816
  582MOL0     C78471   5.845   4.665   3.821 -0.3111  0.1185 -0.3612
  582MOL0     C78472   5.984   4.610   3.789 -0.2355 -0.3255  0.0893
  582MOL0     C78473   6.075   4.606   3.919  0.4566 -0.2637 -0.0857
  582MOL0     C78474   6.202   4.553   3.884 -0.4830  0.3418  0.1658
  582MOL0     C78475   6.292   4.524   4.013  0.7667 -0.3574 -0.2020
  582MOL0     C78476   6.416   4.438   3.989  0.0868  0.5401  0.6862
  582MOL0     C78477   6.452   4.351   4.115 -0.2818 -0.0570 -0.7521
  582MOL0     C78478   6.573   4.275   4.087 -0.9912  0.5217 -0.0915
  582MOL0    Cl78479   6.651   4.195   4.230  0.6274  0.2923  0.3197
  582MOL0     C78480   5.553   4.495   3.926  0.2961 -0.4017 -0.7218
  582MOL0     C78481   5.413   4.508   3.930  0.5481 -0.2101 -0.4196
  582MOL0     O78482   5.155   4.589   4.126  0.6616 -0.7150 -0.1429
  582MOL0     C78483   4.901   4.520   4.014 -0.0614 -0.2044 -0.3754
  582MOL0     C78484   4.775   4.489   3.953  0.3124  0.0371 -0.0979
  582MOL0     N78485   4.118   4.445   3.488  0.3440 -0.0738 -0.3113
  582MOL0     N78486   4.031   4.535   3.472  0.0534  0.7296 -0.3174
  582MOL0     C78487   3.101   3.875   3.948 -0.0273 -0.5068 -0.1855
  582MOL0     C78488   3.025   3.798   4.035  0.5529  0.1739  0.2770
  582MOL0     C78489   2.666   3.487   4.087 -1.0872  0.2694  0.2154
  582MOL0     C78490   2.626   3.371   4.030  0.8191  0.3794  0.2049
  582MOL0     C78491   2.512   3.296   4.080 -0.3409  0.1855  0.6829
  582MOL0     C78492   2.437   3.336   4.184 -0.1078 -0.8438 -0.2648
  582MOL0     O78493   2.329   3.268   4.232 -0.4434 -0.0649  0.0118
  582MOL0     C78494   2.238   3.206   4.138  0.8238 -0.6296 -0.0740
  582MOL0     C78495   2.156   3.314   4.072  0.2584 -0.5528 -0.7430
  582MOL0     C78496   2.063   3.386   4.176 -0.0940  0.1634 -0.5899
  582MOL0     C78497   1.948   3.297   4.232  0.3334  0.5422 -0.4052
  582MOL0     C78498   1.843   3.259   4.133 -0.3261  0.4394 -0.6881
  582MOL0     C78499   1.750   3.216   4.069 -0.1354  0.2451  0.2834
  582MOL0     C78500   2.473   3.461   4.246 -0.8901  0.2943 -0.3951
  582MOL0     C78501   2.592   3.534   4.204 -0.3619 -0.0835  0.5894
  582MOL0     C78502   2.602   3.676   4.266 -0.1915 -0.7559  0.5152
  582MOL0     H78503   2.739   3.826   3.863  0.3736  0.7521 -1.5492
  582MOL0     H78504   2.865   3.963   3.714 -2.6116  2.0374  2.5056
  582MOL0     H78505   3.128   4.182   3.865  1.8647  0.5231  2.4360
  582MOL0     H78506   3.269   4.071   3.880 -0.3855 -1.6615  0.2432
  582MOL0     H78507   3.196   4.235   3.641  0.3817 -1.3848 -1.1257
  582MOL0     H78508   3.324   4.109   3.646  0.4860  0.3811  0.4760
  582MOL0     H78509   3.408   4.272   3.854  2.3702  1.6892 -0.4907
  582MOL0     H78510   3.304   4.390   3.771  1.7771  0.7271  1.9801
  582MOL0     H78511   3.547   4.250   3.661 -0.4344 -0.4495  2.0365
  582MOL0     H78512   3.441   4.354   3.564  1.8581  2.1489  0.0081
  582MOL0     H78513   3.484   4.546   3.714 -1.4851 -1.2918 -0.7783
  582MOL0     H78514   3.583   4.443   3.818  2.6537  2.8735 -0.2749
  582MOL0     H78515   3.722   4.403   3.609 -0.2905 -1.2732  1.9149
  582MOL0     H78516   3.633   4.536   3.532  4.2932 -1.0577 -1.9565
  582MOL0     H78517   3.780   4.571   3.780  0.1614 -1.6869 -1.0481
  582MOL0     H78518   3.675   4.699   3.706  0.8621  0.1911 -0.7735
  582MOL0     H78519   3.829   4.688   3.500  2.1487  0.9205 -0.4659
  582MOL0     H78520   3.900   4.746   3.658  0.0203 -0.5291  1.3539
  582MOL0     H78521   4.001   4.486   3.795  3.2276  1.2054  0.5510
  582MOL0     H78522   4.148   4.213   3.727 -2.0104 -0.0570 -0.5713
  582MOL0     H78523   4.242   4.259   3.595 -2.5606  2.8184 -2.4178
  582MOL0     H78524   4.251   4.408   3.855 -3.1941 -0.6954 -1.2534
  582MOL0     H78525   4.344   4.261   3.820  0.4950  0.2179 -1.6477
  582MOL0     H78526   4.372   4.530   3.677  0.0811 -0.5746  0.1812
  582MOL0     H78527   4.458   4.373   3.633 -0.8359 -1.3159  1.1107
  582MOL0     H78528   4.536   4.364   3.872  0.8942  0.5511  0.4909
  582MOL0     H78529   4.498   4.542   3.893  0.8332  1.1443 -0.3795
  582MOL0     H78530   4.871   4.558   3.639  1.8027  2.0105 -0.6491
  582MOL0     H78531   5.066   4.621   3.739  1.4549 -0.8634  0.1335
  582MOL0     H78532   5.406   4.840   3.920 -0.1420 -0.7687 -0.8610
  582MOL0     H78533   5.650   4.816   3.907 -0.0384 -0.1443 -0.6609
  582MOL0     H78534   5.793   4.696   3.730 -0.5014  1.2770  0.1295
  582MOL0     H78535   5.864   4.750   3.887  1.1257 -0.2652 -0.2513
  582MOL0     H78536   5.961   4.509   3.755  1.1329 -0.6389  0.0284
  582MOL0     H78537   6.036   4.663   3.709  2.9116 -3.4084 -0.1323
  582MOL0     H78538   6.073   4.707   3.962  0.5127  1.2467 -3.3230
  582MOL0     H78539   6.036   4.536   3.993  2.3042  0.0072  1.2324
  582MOL0     H78540   6.264   4.620   3.822  1.0251  1.1916  2.4425
  582MOL0     H78541   6.178   4.466   3.822 -0.4561  2.2262 -2.6606
  582MOL0     H78542   6.228   4.466   4.080  0.1243 -1.5550 -1.7803
  582MOL0     H78543   6.325   4.619   4.055  1.1137 -1.3721  1.9598
  582MOL0     H78544   6.396   4.382   3.898 -2.2292 -0.2448  1.6036
  582MOL0     H78545   6.508   4.493   3.971  2.3541 -3.6606 -2.0891
  582MOL0     H78546   6.371   4.286   4.149  1.8565 -2.0157  0.8890
  582MOL0     H78547   6.476   4.416   4.199  0.3735 -2.0311  0.6621
  582MOL0     H78548   6.544   4.200   4.013  1.2929 -0.0090 -0.5454
  582MOL0     H78549   6.652   4.338   4.045  0.4845 -1.0925  0.1174
  582MOL0     H78550   5.598   4.396   3.919  0.9894 -0.2004  0.5505
  582MOL0     H78551   5.343   4.428   3.907  0.1093  0.7013 -2.4871
  582MOL0     H78552   4.925   4.483   4.113  0.7768 -1.1960 -0.9339
  582MOL0     H78553   4.704   4.428   4.009 -0.5947 -0.9046 -2.1772
  582MOL0     H78554   3.200   3.893   3.990 -1.5447 -0.8002  4.0242
  582MOL0     H78555   3.065   3.759   4.128  2.2443  1.3656  0.0875
  582MOL0     H78556   2.676   3.345   3.937 -0.1599 -1.1110  0.0761
  582MOL0     H78557   2.486   3.208   4.023 -1.5865  0.1144  1.3208
  582MOL0     H78558   2.166   3.132   4.176 -2.1432  2.0850  0.0220
  582MOL0     H78559   2.292   3.148   4.063  1.2183  0.8886 -0.9872
  582MOL0     H78560   2.097   3.269   3.992 -1.3376 -1.5573  0.9106
  582MOL0     H78561   2.223   3.394   4.038  0.2977  0.7646  2.0845
  582MOL0     H78562   2.018   3.472   4.127  0.2207  2.5102  2.8697
  582MOL0     H78563   2.124   3.427   4.257  0.2622 -2.1761  0.4016
  582MOL0     H78564   1.994   3.214   4.287 -0.8245  1.4261  1.9827
  582MOL0     H78565   1.887   3.353   4.303 -2.1471  0.4591 -2.2971
  582MOL0     H78566   1.678   3.177   4.000 -1.3977  0.5798  1.3565
  582MOL0     H78567   2.400   3.498   4.319 -1.2828  0.1956 -0.7326
  582MOL0     H78568   2.526   3.688   4.344 -0.6537 -2.1068  0.3046
  582MOL0     H78569   2.702   3.700   4.304 -0.9976 -0.4111  2.5384
  582MOL0     H78570   2.589   3.747   4.183  0.0667 -1.5426 -0.2178
  583MOL0     O78571   6.362   5.511   4.101 -0.0669  0.0714 -0.1966
  583MOL0     C78572   6.414   5.488   3.996 -0.0392 -1.1587 -0.1702
  583MOL0     O78573   6.546   5.497   3.960  0.1463  0.1155 -0.2820
  583MOL0     C78574   6.650   5.533   4.046  0.3769 -0.4673  0.0385
  583MOL0     C78575   6.765   5.577   3.980 -0.2810 -0.2511  0.3225
  583MOL0     C78576   6.864   5.638   4.057 -0.8105  0.1818  0.7884
  583MOL0     C78577   6.848   5.656   4.191 -0.7028  0.1824 -0.4711
  583MOL0     O78578   6.944   5.730   4.261 -0.1071 -0.7749  0.4323
  583MOL0     C78579   6.974   5.867   4.207  0.1433  0.0088  0.5331
  583MOL0     C78580   7.106   5.923   4.259 -0.6577 -0.3255 -0.1772
  583MOL0     C78581   7.153   6.043   4.186  0.2418 -0.1593  0.9621
  583MOL0     C78582   7.296   6.094   4.243  0.0706  0.2840  0.5792
  583MOL0     C78583   7.345   6.209   4.155  0.9446  0.8084  0.0789
  583MOL0     C78584   7.415   6.169   4.022  0.0439 -0.0400 -0.0773
  583MOL0     C78585   7.565   6.131   4.052 -0.2319  0.1473 -0.0114
  583MOL0     C78586   7.639   6.102   3.921  0.3364  0.4648 -0.2672
  583MOL0     N78587   7.656   6.231   3.857 -0.4588  0.8212 -1.0503
  583MOL0     C78588   7.726   6.327   3.915 -0.2353  0.1227  0.3809
  583MOL0     C78589   7.721   6.425   3.821 -0.0697  0.7280  0.4294
  583MOL0     C78590   7.799   6.557   3.815 -0.3865  0.5401 -0.1259
  583MOL0     C78591   7.947   6.549   3.864 -0.2279  0.2141 -0.3849
  583MOL0     C78592   8.035   6.449   3.784 -0.0196 -0.4484 -0.0346
  583MOL0     C78593   8.180   6.495   3.767  0.0689 -0.5554 -1.1188
  583MOL0     O78594   8.240   6.503   3.892  0.0002  0.5807 -0.6408
  583MOL0     C78595   8.380   6.512   3.896  0.1802 -0.0429 -0.2897
  583MOL0     C78596   8.429   6.510   4.026 -0.5169  0.1352 -0.2697
  583MOL0     C78597   8.564   6.539   4.048  0.5232 -0.4052 -0.1560
  583MOL0     C78598   8.649   6.568   3.941 -0.8214  1.0630  0.0454
  583MOL0     C78599   8.799   6.598   3.975  0.0375  0.1418 -0.6792
  583MOL0     O78600   8.886   6.605   3.868 -0.1846  0.0450  0.3653
  583MOL0     C78601   9.024   6.621   3.875  0.4030 -0.0266 -0.2512
  583MOL0     C78602   9.095   6.580   3.763  0.6752  0.1842 -0.8774
  583MOL0     C78603   9.223   6.619   3.746  1.1398  0.4711 -0.0633
  583MOL0     C78604   9.298   6.662   3.857 -0.3359 -0.2868  0.0208
  583MOL0     O78605   9.435   6.699   3.835  0.7217  0.2245 -0.5963
  583MOL0     C78606   9.515   6.705   3.949  0.2865  0.0384  0.0136
  583MOL0     C78607   9.655   6.736   3.891 -0.1458  0.5854  0.4612
  583MOL0     C78608   9.708   6.633   3.787  0.2387  0.7178 -0.2509
  583MOL0     C78609   9.830   6.702   3.721  0.1694 -0.3434 -0.2216
  583MOL0     C78610   9.895   6.604   3.624 -0.8456 -0.4749  0.3097
  583MOL0     C78611  10.022   6.668   3.556 -0.3138 -1.4369  0.3407
  583MOL0     C78612  10.106   6.598   3.455  1.1113 -0.3144  0.4403
  583MOL0     C78613  10.215   6.518   3.526  0.1084 -0.1194  0.3962
  583MOL0    Cl78614  10.320   6.633   3.617 -0.6687 -0.6185  0.1438
  583MOL0     C78615   9.225   6.689   3.976 -0.1048  0.3904 -0.4325
  583MOL0     C78616   9.089   6.679   3.981  0.2814  0.2657  0.3388
  583MOL0     O78617   8.831   6.591   4.086  0.7585 -0.3944  0.6842
  583MOL0     C78618   8.603   6.553   3.816  0.1168 -0.0371 -0.5517
  583MOL0     C78619   8.475   6.519   3.793  0.5333  0.4661 -0.3285
  583MOL0     N78620   7.643   6.376   3.706  0.5432  0.1904 -0.1061
  583MOL0     N78621   7.609   6.258   3.734 -0.5404 -0.4487 -0.3798
  583MOL0     C78622   6.736   5.615   4.256 -0.3785  0.4774  0.2622
  583MOL0     C78623   6.642   5.543   4.183  0.1225  0.0315 -0.0652
  583MOL0     C78624   6.330   5.471   3.879 -0.2932 -0.4871 -0.7464
  583MOL0     C78625   6.373   5.518   3.754  0.3275 -0.8109 -0.0683
  583MOL0     C78626   6.296   5.503   3.636  0.3256 -0.0801 -0.4700
  583MOL0     C78627   6.178   5.430   3.630 -0.1793  0.5284  0.2541
  583MOL0     O78628   6.110   5.423   3.508 -0.2645 -0.4330  0.2786
  583MOL0     C78629   5.999   5.338   3.510  0.3539  0.4375 -1.2969
  583MOL0     C78630   5.884   5.419   3.565 -0.0983  0.0571  0.6698
  583MOL0     C78631   5.741   5.363   3.554 -0.2037  0.0334  0.2412
  583MOL0     C78632   5.720   5.222   3.590  0.5048  1.4532  0.1326
  583MOL0     C78633   5.746   5.200   3.731 -0.0969  0.2538  0.3921
  583MOL0     C78634   5.777   5.180   3.844 -0.4443 -0.2216 -0.4591
  583MOL0     C78635   6.140   5.385   3.755 -0.5177 -0.3325  0.7920
  583MOL0     C78636   6.211   5.404   3.877  0.3025 -0.2643 -0.2932
  583MOL0     C78637   6.135   5.355   4.001 -0.0422  0.2313 -0.0447
  583MOL0     H78638   6.786   5.565   3.874 -0.5540  0.7631  0.1482
  583MOL0     H78639   6.957   5.666   4.008 -1.6849  0.4954 -0.7754
  583MOL0     H78640   6.993   5.845   4.101 -0.3507  0.2090  0.4045
  583MOL0     H78641   6.889   5.934   4.221  0.9786  0.8519  1.7309
  583MOL0     H78642   7.174   5.836   4.261  1.2360  1.1048  0.9084
  583MOL0     H78643   7.083   5.951   4.362 -0.0665 -2.1370  0.4985
  583MOL0     H78644   7.076   6.121   4.185  1.0489  0.6515  0.0911
  583MOL0     H78645   7.147   6.010   4.082 -1.2485 -0.6237  1.1741
  583MOL0     H78646   7.279   6.129   4.345 -2.5557  2.3551 -0.4630
  583MOL0     H78647   7.371   6.014   4.243 -1.6879 -1.4402  2.2604
  583MOL0     H78648   7.259   6.275   4.144  1.1940  1.1728  0.2884
  583MOL0     H78649   7.421   6.262   4.213  1.4098 -0.4983  0.7117
  583MOL0     H78650   7.373   6.091   3.958  2.4088 -0.8846 -0.6981
  583MOL0     H78651   7.419   6.257   3.957  1.6195  0.5994  0.7984
  583MOL0     H78652   7.566   6.048   4.122  0.0507  2.9411  3.5831
  583MOL0     H78653   7.604   6.213   4.113  0.8458  0.7029 -1.3916
  583MOL0     H78654   7.732   6.047   3.937  1.3027  2.1607  0.1926
  583MOL0     H78655   7.577   6.048   3.849  0.6533  0.6214 -0.6603
  583MOL0     H78656   7.779   6.321   4.009 -2.6218  0.4550  1.8274
  583MOL0     H78657   7.797   6.586   3.710 -2.8599 -2.6867 -1.1645
  583MOL0     H78658   7.741   6.623   3.880 -1.0565  0.0460 -0.2087
  583MOL0     H78659   7.978   6.653   3.847 -1.3363  0.4356 -1.1551
  583MOL0     H78660   7.965   6.535   3.971  1.9035 -1.5323 -0.9147
  583MOL0     H78661   7.983   6.436   3.689  0.4508  1.0676 -0.5357
  583MOL0     H78662   8.029   6.359   3.847  0.1805 -0.4991 -0.0862
  583MOL0     H78663   8.190   6.595   3.726  1.4037  0.4268  1.4119
  583MOL0     H78664   8.233   6.425   3.702  0.9790  0.7403 -1.8100
  583MOL0     H78665   8.362   6.465   4.099 -1.1735 -1.7267 -1.9317
  583MOL0     H78666   8.601   6.543   4.150 -1.0482  2.0549  0.3923
  583MOL0     H78667   9.050   6.530   3.678 -1.0935  0.8913 -0.3988
  583MOL0     H78668   9.274   6.583   3.658 -0.2612 -4.3389  0.8110
  583MOL0     H78669   9.477   6.794   3.999 -0.7040 -1.8135  2.8196
  583MOL0     H78670   9.514   6.614   4.010  0.5708 -0.5350 -0.8210
  583MOL0     H78671   9.635   6.834   3.845 -1.8805  1.0306  2.0506
  583MOL0     H78672   9.725   6.751   3.974 -0.4715  1.2148  0.6295
  583MOL0     H78673   9.741   6.537   3.826  1.2948  0.7203 -1.1034
  583MOL0     H78674   9.627   6.617   3.715 -1.2456  1.1661  1.2520
  583MOL0     H78675   9.897   6.746   3.796 -0.5876 -0.9654  0.8480
  583MOL0     H78676   9.791   6.784   3.660  1.2699  0.2379 -0.1656
  583MOL0     H78677   9.815   6.580   3.554 -2.6406  2.4911  1.1819
  583MOL0     H78678   9.916   6.511   3.678 -1.2064 -1.6800 -1.5200
  583MOL0     H78679   9.981   6.764   3.522  0.5078 -0.8250  1.0375
  583MOL0     H78680  10.084   6.697   3.640 -2.2549  1.3786  0.9661
  583MOL0     H78681  10.147   6.677   3.391 -0.6633  0.9412  0.7967
  583MOL0     H78682  10.049   6.531   3.391  0.0131 -0.3684  1.4574
  583MOL0     H78683  10.168   6.442   3.589 -2.9645 -0.5236 -2.1264
  583MOL0     H78684  10.267   6.469   3.443  0.4230  1.6086 -0.4761
  583MOL0     H78685   9.270   6.731   4.065 -1.8444 -2.1156  1.8063
  583MOL0     H78686   9.036   6.712   4.069  0.5082 -2.7044  1.7284
  583MOL0     H78687   8.676   6.544   3.736 -0.1737 -2.1222 -0.6415
  583MOL0     H78688   8.446   6.515   3.688  4.5031 -1.4957 -1.5375
  583MOL0     H78689   6.720   5.629   4.362 -1.4021  0.0950  0.1737
  583MOL0     H78690   6.551   5.512   4.235 -0.8161  2.2650 -0.2697
  583MOL0     H78691   6.466   5.571   3.741 -0.3453  0.4015 -0.0622
  583MOL0     H78692   6.331   5.557   3.549 -0.2074  2.5274  0.8486
  583MOL0     H78693   6.012   5.250   3.573  1.3173  2.2481  1.2165
  583MOL0     H78694   5.971   5.303   3.411  1.6404 -1.9771 -0.8839
  583MOL0     H78695   5.885   5.514   3.512  1.1290 -1.4617 -2.2778
  583MOL0     H78696   5.901   5.431   3.673  1.2475  0.1585  0.4594
  583MOL0     H78697   5.686   5.382   3.461 -4.2100 -1.2035  2.1398
  583MOL0     H78698   5.692   5.424   3.631  3.1215  0.8867  1.8921
  583MOL0     H78699   5.618   5.193   3.565  1.2191  0.1834 -1.3941
  583MOL0     H78700   5.793   5.162   3.535 -0.0290 -0.9279  1.8658
  583MOL0     H78701   5.819   5.164   3.941 -0.2219 -0.1265 -0.5409
  583MOL0     H78702   6.048   5.329   3.766 -0.7355 -0.2263 -0.3625
  583MOL0     H78703   6.064   5.275   3.979  2.7398 -2.0622 -1.4337
  583MOL0     H78704   6.202   5.307   4.073 -0.9713 -1.1667 -0.0819
  583MOL0     H78705   6.082   5.434   4.055  2.2207  2.8674 -1.3789
  584MOL0     O78706  10.477   2.764   3.346 -0.7322  0.2333  0.0323
  584MOL0     C78707  10.403   2.739   3.439  0.5715  0.5920 -0.0755
  584MOL0     O78708  10.434   2.715   3.571  0.4087  0.1206  0.1208
  584MOL0     C78709  10.565   2.724   3.597  0.3988 -0.1922  0.5877
  584MOL0     C78710  10.640   2.610   3.607  0.3168 -1.4529  0.4700
  584MOL0     C78711  10.779   2.616   3.651  0.3593 -0.5138 -0.0604
  584MOL0     C78712  10.835   2.743   3.669 -0.0269  0.0052 -0.4260
  584MOL0     O78713  10.969   2.747   3.715  0.8341  0.2912  0.6415
  584MOL0     C78714  11.034   2.869   3.699 -0.3117  0.2147  0.0397
  584MOL0     C78715  11.183   2.846   3.684  0.1582  0.0454  0.0909
  584MOL0     C78716  11.272   2.972   3.702  0.3121  0.5106 -0.5924
  584MOL0     C78717  11.385   2.943   3.808 -0.8962  0.3457  0.3568
  584MOL0     C78718  11.454   3.071   3.855  0.3973  0.8816  0.6106
  584MOL0     C78719  11.558   3.051   3.962 -0.8113 -0.1318  0.2785
  584MOL0     C78720  11.616   3.182   4.002 -0.5436 -0.6893  0.5183
  584MOL0     C78721  11.729   3.181   4.104 -0.2865  0.3205  0.5013
  584MOL0     N78722  11.857   3.137   4.046 -0.1474 -0.3936  0.5037
  584MOL0     C78723  11.920   3.195   3.938 -0.0522  0.2435  0.1481
  584MOL0     C78724  12.043   3.155   3.941 -0.0193  0.3365  0.2596
  584MOL0     C78725  12.151   3.222   3.865 -0.1687 -0.2554  0.1488
  584MOL0     C78726  12.205   3.134   3.747 -0.0968  0.8549 -0.2243
  584MOL0     C78727  12.317   3.213   3.675 -0.2380 -0.8380 -0.4222
  584MOL0     C78728  12.363   3.138   3.554 -0.1787 -0.5816  0.0853
  584MOL0     O78729  12.451   3.215   3.471  0.3828 -0.3762 -0.2684
  584MOL0     C78730  12.583   3.212   3.495  0.8587  0.0037  0.2375
  584MOL0     C78731  12.661   3.287   3.405  0.0921 -0.4232 -0.2712
  584MOL0     C78732  12.797   3.290   3.424  0.3398 -0.4406  0.1958
  584MOL0     C78733  12.868   3.219   3.528  0.3145 -0.5405  1.2978
  584MOL0     C78734  13.016   3.230   3.540 -0.1832 -0.3132 -0.1355
  584MOL0     O78735  13.086   3.128   3.615  0.7347  0.6137  0.9713
  584MOL0     C78736  13.215   3.135   3.637 -1.3205 -0.0041 -0.1457
  584MOL0     C78737  13.257   3.095   3.769  0.1700  0.0738  0.3054
  584MOL0     C78738  13.398   3.092   3.796 -0.5169  0.8562 -0.4089
  584MOL0     C78739  13.490   3.143   3.708 -0.2232 -0.0022 -0.2705
  584MOL0     O78740  13.624   3.149   3.749  0.1669 -0.7271 -0.3713
  584MOL0     C78741  13.720   3.168   3.645  0.0462 -0.0576  0.6895
  584MOL0     C78742  13.858   3.169   3.716  0.9273  0.0697  0.3225
  584MOL0     C78743  13.965   3.207   3.609 -0.6261  0.1066 -0.4719
  584MOL0     C78744  14.100   3.203   3.674 -0.1545  0.2909 -0.1364
  584MOL0     C78745  14.223   3.223   3.570 -0.0518 -0.2339 -0.4764
  584MOL0     C78746  14.224   3.115   3.462 -0.1405  0.2745 -0.8012
  584MOL0     C78747  14.224   2.972   3.516  0.8019  0.5855  0.3256
  584MOL0     C78748  14.332   2.939   3.607  0.2773  0.5885  0.3250
  584MOL0    Cl78749  14.314   2.761   3.647  0.1820 -0.0697  0.1247
  584MOL0     C78750  13.443   3.170   3.581 -0.1012 -0.5938 -0.2834
  584MOL0     C78751  13.310   3.172   3.539 -0.7134  0.2179  0.3872
  584MOL0     O78752  13.072   3.328   3.496 -0.1273 -0.0721  0.1089
  584MOL0     C78753  12.791   3.147   3.617  0.2023 -0.0602 -0.4713
  584MOL0     C78754  12.651   3.137   3.600 -0.6792 -0.2735  0.2625
  584MOL0     N78755  12.059   3.054   4.032 -0.3260 -0.6899 -0.2910
  584MOL0     N78756  11.941   3.042   4.092  0.0814 -0.3367 -0.0354
  584MOL0     C78757  10.757   2.859   3.650 -0.8730 -0.6328 -0.0689
  584MOL0     C78758  10.622   2.846   3.624 -0.7758 -0.8875 -0.7720
  584MOL0     C78759  10.249   2.728   3.420 -0.9777 -0.4343 -0.3587
  584MOL0     C78760  10.184   2.612   3.469  0.0653 -0.2437  0.3851
  584MOL0     C78761  10.043   2.609   3.446  0.3565  0.3677 -0.1948
  584MOL0     C78762   9.976   2.711   3.385 -0.3626 -1.0956  0.0672
  584MOL0     O78763   9.843   2.718   3.373  0.3662  0.1297 -0.6842
  584MOL0     C78764   9.763   2.614   3.437  0.0637 -0.3216  0.6617
  584MOL0     C78765   9.608   2.647   3.426 -0.7454  0.8047 -0.0553
  584MOL0     C78766   9.519   2.536   3.483  0.6266 -0.3068 -0.1106
  584MOL0     C78767   9.364   2.568   3.456 -0.3512  0.3302 -1.2227
  584MOL0     C78768   9.303   2.697   3.519 -0.2096  0.3744  0.7207
  584MOL0     C78769   9.250   2.797   3.562 -0.3156 -0.2749  0.0036
  584MOL0     C78770  10.051   2.818   3.327  0.7034 -0.3288  0.6902
  584MOL0     C78771  10.185   2.836   3.349  0.4088  0.2398 -0.1730
  584MOL0     C78772  10.260   2.958   3.300 -0.2027  0.1104 -0.2095
  584MOL0     H78773  10.604   2.512   3.580  0.9196 -1.5285 -0.0979
  584MOL0     H78774  10.836   2.524   3.653 -0.9049 -1.3282  1.4749
  584MOL0     H78775  11.010   2.926   3.609 -0.4360  0.2673  0.1058
  584MOL0     H78776  11.018   2.938   3.782  2.3779  0.2094  0.6571
  584MOL0     H78777  11.195   2.795   3.588  0.7462  0.2936  0.0258
  584MOL0     H78778  11.224   2.778   3.759  0.5743  0.7457  0.5074
  584MOL0     H78779  11.211   3.060   3.722  2.6132  1.6756  2.1230
  584MOL0     H78780  11.321   2.989   3.606  0.5810  0.8537 -0.3961
  584MOL0     H78781  11.360   2.885   3.897 -0.5197 -2.5282 -1.2964
  584MOL0     H78782  11.457   2.881   3.754 -1.7865 -0.9456  0.5938
  584MOL0     H78783  11.503   3.116   3.768 -0.3345 -1.1632 -0.9459
  584MOL0     H78784  11.373   3.131   3.899 -0.0959 -0.0160  0.9462
  584MOL0     H78785  11.522   2.993   4.048  0.0513 -1.1461 -0.0333
  584MOL0     H78786  11.638   2.994   3.916  0.3795  0.9117  0.9962
  584MOL0     H78787  11.539   3.249   4.041  0.4786  2.4767 -2.3955
  584MOL0     H78788  11.640   3.233   3.908 -1.7518  0.9919  1.0774
  584MOL0     H78789  11.738   3.287   4.132  2.4843  0.3048 -0.0149
  584MOL0     H78790  11.707   3.119   4.192  0.9133  2.2679  2.2788
  584MOL0     H78791  11.881   3.274   3.874  0.2486 -0.0473 -0.4000
  584MOL0     H78792  12.110   3.316   3.828 -0.1019 -0.6093 -0.8383
  584MOL0     H78793  12.235   3.231   3.935  2.1756 -0.2553 -2.4782
  584MOL0     H78794  12.234   3.031   3.771 -0.0909  0.7264 -0.7769
  584MOL0     H78795  12.122   3.133   3.676  0.1669  0.0424 -0.5252
  584MOL0     H78796  12.400   3.228   3.746 -0.0908  0.5502 -0.8566
  584MOL0     H78797  12.286   3.314   3.650  0.3842  0.2381  2.6661
  584MOL0     H78798  12.268   3.114   3.505 -1.4961  1.9029  1.2407
  584MOL0     H78799  12.413   3.047   3.590  1.2366  0.9900  2.4134
  584MOL0     H78800  12.609   3.341   3.326 -0.3276 -1.0903 -0.4560
  584MOL0     H78801  12.846   3.351   3.348  0.2985 -2.8626 -1.9465
  584MOL0     H78802  13.180   3.073   3.843 -2.4500 -1.1866 -2.5462
  584MOL0     H78803  13.429   3.046   3.890 -0.9903 -0.5663 -0.9185
  584MOL0     H78804  13.717   3.089   3.570 -3.1261  3.0917 -2.9552
  584MOL0     H78805  13.705   3.264   3.595 -0.5270 -0.4363  0.1261
  584MOL0     H78806  13.856   3.238   3.800 -2.6562  3.9785 -2.5562
  584MOL0     H78807  13.870   3.071   3.764  1.2652 -0.0553 -0.0079
  584MOL0     H78808  13.969   3.138   3.525 -0.9120  1.6144 -1.7863
  584MOL0     H78809  13.954   3.304   3.559  0.7094  0.2637 -0.4891
  584MOL0     H78810  14.107   3.107   3.725 -1.0567 -0.5529 -1.5569
  584MOL0     H78811  14.110   3.278   3.754  0.5909 -1.8458  1.8943
  584MOL0     H78812  14.314   3.215   3.630  1.3567  3.5491 -1.8195
  584MOL0     H78813  14.221   3.320   3.519  1.8654  0.4223  0.5865
  584MOL0     H78814  14.132   3.120   3.403 -1.8239 -1.7762  1.4448
  584MOL0     H78815  14.313   3.142   3.404  0.1644  3.3697  0.9120
  584MOL0     H78816  14.225   2.909   3.427  0.8023 -0.9001  1.3351
  584MOL0     H78817  14.129   2.961   3.570  1.0225  0.6751  0.7281
  584MOL0     H78818  14.433   2.953   3.567 -0.7196 -0.2489 -2.8707
  584MOL0     H78819  14.319   2.995   3.699  0.3860 -0.9919  1.3403
  584MOL0     H78820  13.507   3.221   3.511  0.5728 -0.3912  0.4587
  584MOL0     H78821  13.279   3.202   3.440  1.2337  0.1552 -0.2960
  584MOL0     H78822  12.822   3.073   3.690 -2.0678 -1.2406 -0.6375
  584MOL0     H78823  12.603   3.064   3.665  0.8242 -0.0659  1.6823
  584MOL0     H78824  10.806   2.954   3.667  0.7840 -1.4462 -0.0916
  584MOL0     H78825  10.561   2.934   3.607  0.7235  0.6400  1.1957
  584MOL0     H78826  10.244   2.539   3.523  2.0787  0.2641 -1.0290
  584MOL0     H78827   9.983   2.536   3.499 -1.7567  0.6279 -2.1350
  584MOL0     H78828   9.784   2.629   3.544  2.3496  0.8990  0.0885
  584MOL0     H78829   9.787   2.516   3.395  0.1514  0.5192 -1.3251
  584MOL0     H78830   9.573   2.650   3.322 -1.7445  2.1115  0.2956
  584MOL0     H78831   9.592   2.745   3.473  1.1142  0.5994  1.1111
  584MOL0     H78832   9.539   2.515   3.588 -3.1871  2.1247  1.2979
  584MOL0     H78833   9.540   2.448   3.421 -0.6837 -0.0001 -1.0416
  584MOL0     H78834   9.347   2.557   3.349 -0.5751  0.2676 -1.1812
  584MOL0     H78835   9.307   2.492   3.510 -0.4257  2.0625  1.3231
  584MOL0     H78836   9.192   2.884   3.585 -3.7961 -2.3815 -0.0312
  584MOL0     H78837   9.982   2.881   3.272 -0.4801 -1.1876  1.1549
  584MOL0     H78838  10.196   3.046   3.290  1.9458  1.5045 -3.5448
  584MOL0     H78839  10.355   2.983   3.348  1.1656 -0.1745 -2.6095
  584MOL0     H78840  10.284   2.935   3.196 -0.1709 -0.0484 -0.1679
  585MOL0     O78841   3.430   7.550  10.614 -0.1267 -0.0866  0.0852
  585MOL0     C78842   3.365   7.481  10.534  0.0029 -0.1012  0.2818
  585MOL0     O78843   3.422   7.382  10.456 -0.2075  0.4346 -0.7058
  585MOL0     C78844   3.554   7.352  10.477  0.9630 -0.0598 -0.1902
  585MOL0     C78845   3.594   7.218  10.454  0.3806 -0.9179  0.8920
  585MOL0     C78846   3.726   7.171  10.465 -0.5954  0.4670  0.9256
  585MOL0     C78847   3.830   7.261  10.493  0.1261 -0.5474  0.1040
  585MOL0     O78848   3.951   7.206  10.507  0.7877 -0.3526 -0.4415
  585MOL0     C78849   4.068   7.293  10.521  0.7241  0.7043 -0.0315
  585MOL0     C78850   4.184   7.205  10.584  0.5529  0.0700  0.2574
  585MOL0     C78851   4.330   7.249  10.566 -0.0175 -0.1306 -1.2192
  585MOL0     C78852   4.348   7.399  10.569  1.1402  0.5231  0.4707
  585MOL0     C78853   4.487   7.460  10.578 -0.6124 -0.5310  0.8393
  585MOL0     C78854   4.547   7.481  10.433 -0.3043  0.0933 -0.2767
  585MOL0     C78855   4.635   7.363  10.381 -0.3080 -0.0063  0.8689
  585MOL0     C78856   4.777   7.345  10.451  0.0844  0.2690 -0.8334
  585MOL0     N78857   4.850   7.240  10.392  0.1786  0.7201 -0.0074
  585MOL0     C78858   4.886   7.233  10.260 -0.2633 -1.1719 -0.2659
  585MOL0     C78859   4.947   7.120  10.245  0.4655  0.1026  0.2759
  585MOL0     C78860   5.022   7.083  10.119  0.1226 -0.4808 -0.5166
  585MOL0     C78861   5.176   7.099  10.137  0.0003  0.0696 -0.3929
  585MOL0     C78862   5.243   7.063  10.003 -0.0171 -0.1526 -0.3245
  585MOL0     C78863   5.389   7.028  10.042 -0.6898  0.5256 -0.2355
  585MOL0     O78864   5.463   7.144  10.089 -0.3726 -0.1388  0.8447
  585MOL0     C78865   5.585   7.137  10.146 -0.6841  0.2094 -0.7578
  585MOL0     C78866   5.621   7.220  10.252 -0.5267  0.5570  0.1966
  585MOL0     C78867   5.733   7.195  10.338  0.4507  0.2295 -0.1467
  585MOL0     C78868   5.825   7.095  10.307  0.1297 -0.4548  0.3446
  585MOL0     C78869   5.948   7.077  10.380 -0.2699 -0.9164  0.1398
  585MOL0     O78870   5.971   7.171  10.474  0.3381 -0.5484 -0.0644
  585MOL0     C78871   6.108   7.194  10.497  0.2183  0.2718 -1.0147
  585MOL0     C78872   6.162   7.149  10.615 -0.6376  0.5465  0.6041
  585MOL0     C78873   6.296   7.166  10.638 -0.3174 -0.7341 -0.1727
  585MOL0     C78874   6.377   7.241  10.550 -0.7919  0.3312  0.0634
  585MOL0     O78875   6.513   7.256  10.575 -0.4673  0.0107  0.0072
  585MOL0     C78876   6.559   7.271  10.713  0.8770 -0.6184  0.5492
  585MOL0     C78877   6.711   7.278  10.700 -0.5494 -0.1674 -0.3860
  585MOL0     C78878   6.750   7.407  10.630 -1.3306 -0.9398  0.2050
  585MOL0     C78879   6.896   7.414  10.609 -0.1952  0.6994  0.0714
  585MOL0     C78880   6.939   7.549  10.557 -0.5950  0.2560 -0.0018
  585MOL0     C78881   7.085   7.534  10.502  0.5321 -1.3015 -0.3685
  585MOL0     C78882   7.184   7.512  10.610 -0.1450  0.5202  0.5045
  585MOL0     C78883   7.325   7.507  10.554 -0.2379  0.5377 -0.1294
  585MOL0    Cl78884   7.361   7.370  10.457 -0.2678  0.0307 -0.2647
  585MOL0     C78885   6.315   7.290  10.440  0.4297  0.5772  0.2264
  585MOL0     C78886   6.178   7.274  10.413 -0.2817  1.2939  0.4775
  585MOL0     O78887   6.027   6.993  10.346  0.7516 -0.1964  0.0918
  585MOL0     C78888   5.789   7.013  10.195 -0.0741 -0.4817 -0.1891
  585MOL0     C78889   5.673   7.030  10.121 -0.9264  0.2103  0.2069
  585MOL0     N78890   4.928   7.035  10.357 -0.4981  0.4413 -0.6292
  585MOL0     N78891   4.863   7.111  10.444  0.4523  0.6085  0.5082
  585MOL0     C78892   3.794   7.398  10.506  0.6908  0.3859 -0.4302
  585MOL0     C78893   3.657   7.444  10.499 -0.4118  0.0566  0.5007
  585MOL0     C78894   3.223   7.506  10.509  0.2664  0.2429 -1.6988
  585MOL0     C78895   3.169   7.458  10.387 -0.4181 -0.1713 -0.2706
  585MOL0     C78896   3.034   7.475  10.359  0.1182 -0.3519 -0.6920
  585MOL0     C78897   2.942   7.529  10.449 -0.1778  0.7567  0.2740
  585MOL0     O78898   2.808   7.558  10.432  0.6290 -0.0000  0.1519
  585MOL0     C78899   2.741   7.496  10.318 -0.4711 -0.4462  0.0855
  585MOL0     C78900   2.594   7.535  10.309 -0.0006 -0.2833 -0.2180
  585MOL0     C78901   2.584   7.683  10.269 -0.3060  0.4602 -1.0062
  585MOL0     C78902   2.439   7.710  10.220  0.1600 -1.0465 -0.2886
  585MOL0     C78903   2.352   7.696  10.325  0.9111  0.0201 -0.7559
  585MOL0     C78904   2.281   7.682  10.424 -1.2011 -0.4085 -0.4179
  585MOL0     C78905   2.994   7.579  10.565 -0.3621  0.0047  0.0263
  585MOL0     C78906   3.130   7.570  10.603 -0.5532  0.4674 -0.0288
  585MOL0     C78907   3.158   7.633  10.742 -0.4314 -0.4084  0.0166
  585MOL0     H78908   3.512   7.149  10.437 -2.0395  1.4323  2.2186
  585MOL0     H78909   3.751   7.068  10.441  3.8740  1.3185  1.1117
  585MOL0     H78910   4.105   7.333  10.427 -0.2082 -0.1587 -0.7910
  585MOL0     H78911   4.058   7.378  10.589  0.3866 -0.4757  1.4621
  585MOL0     H78912   4.177   7.109  10.533 -0.6497  0.7336 -0.8773
  585MOL0     H78913   4.163   7.194  10.691 -0.7434  2.3518  0.3019
  585MOL0     H78914   4.355   7.213  10.466  2.9276 -1.8489  0.0044
  585MOL0     H78915   4.393   7.197  10.640  0.7514  2.2734 -0.0930
  585MOL0     H78916   4.292   7.441  10.485 -0.8578  0.2677  1.6168
  585MOL0     H78917   4.291   7.426  10.659  0.8874 -3.5607  1.7573
  585MOL0     H78918   4.478   7.564  10.612 -0.3046 -0.8972  2.1095
  585MOL0     H78919   4.551   7.406  10.649 -0.4450 -1.7975 -0.2318
  585MOL0     H78920   4.463   7.508  10.368  0.8058 -2.3044 -2.8994
  585MOL0     H78921   4.608   7.572  10.432  2.3208 -1.5618 -0.5510
  585MOL0     H78922   4.645   7.365  10.272 -1.3894 -1.0918  0.7371
  585MOL0     H78923   4.571   7.281  10.413  0.3669  0.3870  3.4955
  585MOL0     H78924   4.842   7.432  10.434  2.5441 -1.0977  0.9656
  585MOL0     H78925   4.764   7.331  10.558 -4.1230 -1.4242 -1.4130
  585MOL0     H78926   4.886   7.307  10.181  0.8076  0.5071  1.2305
  585MOL0     H78927   4.997   6.977  10.104 -2.8436 -0.3472  2.3964
  585MOL0     H78928   4.989   7.148  10.038  5.6137  0.8231 -2.1753
  585MOL0     H78929   5.197   7.200  10.171 -0.9915  0.4367 -0.8398
  585MOL0     H78930   5.209   7.024  10.210 -0.8561  0.2693  0.2151
  585MOL0     H78931   5.230   7.135   9.921 -1.3620  0.0582  0.0523
  585MOL0     H78932   5.199   6.972   9.960 -1.7168  0.6268 -0.3110
  585MOL0     H78933   5.438   6.991   9.952 -0.1614 -1.9354  0.9881
  585MOL0     H78934   5.392   6.948  10.116 -1.6551  0.8685  0.1889
  585MOL0     H78935   5.562   7.306  10.283 -0.0568  0.8362  0.3380
  585MOL0     H78936   5.762   7.257  10.423  1.8628 -0.5361 -0.0397
  585MOL0     H78937   6.103   7.088  10.683 -1.2470 -0.2120 -0.5797
  585MOL0     H78938   6.336   7.135  10.734  1.6646  1.9256 -0.0275
  585MOL0     H78939   6.524   7.364  10.758  0.1555 -0.9024  0.5775
  585MOL0     H78940   6.534   7.190  10.783  2.5880 -0.4333  1.4421
  585MOL0     H78941   6.759   7.272  10.798 -0.4559  1.7968 -0.2666
  585MOL0     H78942   6.743   7.195  10.636 -0.4647 -1.3931  1.1911
  585MOL0     H78943   6.696   7.414  10.535  0.3833 -5.0712 -1.3061
  585MOL0     H78944   6.717   7.490  10.694 -0.6028  0.9361 -1.7275
  585MOL0     H78945   6.922   7.334  10.539 -1.1707  2.0565 -1.9590
  585MOL0     H78946   6.945   7.395  10.705  1.2505 -1.7049 -1.0538
  585MOL0     H78947   6.932   7.626  10.635  0.2588  0.1043  0.2418
  585MOL0     H78948   6.865   7.579  10.483  1.3656  0.8940 -1.8132
  585MOL0     H78949   7.080   7.454  10.427  0.5187 -0.1406 -1.6467
  585MOL0     H78950   7.111   7.626  10.449 -0.9461  0.7303  2.2060
  585MOL0     H78951   7.163   7.410  10.645 -2.2148  0.4337 -0.8252
  585MOL0     H78952   7.178   7.583  10.693 -0.6122 -0.1358  1.0451
  585MOL0     H78953   7.350   7.593  10.491 -0.6355 -0.3954 -1.6323
  585MOL0     H78954   7.399   7.503  10.634  2.2466 -1.7885 -2.3407
  585MOL0     H78955   6.376   7.345  10.369  0.3405  2.6496  1.6839
  585MOL0     H78956   6.132   7.321  10.327 -0.5770  0.9554  0.4428
  585MOL0     H78957   5.859   6.934  10.168 -0.7701 -0.2576 -3.0274
  585MOL0     H78958   5.661   6.971  10.031  0.4216  1.8219 -1.0841
  585MOL0     H78959   3.876   7.468  10.515  0.4929  0.4249  1.2909
  585MOL0     H78960   3.641   7.551  10.496  0.6496  0.2662  1.4690
  585MOL0     H78961   3.225   7.399  10.316  2.3285 -0.3133  1.8572
  585MOL0     H78962   2.990   7.455  10.261 -1.4161  0.8028 -0.2905
  585MOL0     H78963   2.748   7.387  10.328  4.9652 -0.4918 -1.0925
  585MOL0     H78964   2.794   7.529  10.229 -2.6167  2.1914 -0.3370
  585MOL0     H78965   2.547   7.506  10.403 -1.7673  1.5893 -0.4550
  585MOL0     H78966   2.553   7.478  10.225 -0.6543  0.5682 -0.4840
  585MOL0     H78967   2.658   7.709  10.193  3.5232 -0.7110  2.0147
  585MOL0     H78968   2.605   7.744  10.357 -1.4950  0.8586 -0.9768
  585MOL0     H78969   2.444   7.813  10.184 -4.1371 -0.3502  0.5799
  585MOL0     H78970   2.411   7.644  10.137 -0.3562 -2.0766  0.6757
  585MOL0     H78971   2.215   7.672  10.508 -0.4879 -0.5755  0.1394
  585MOL0     H78972   2.927   7.638  10.627 -0.5184 -1.6551  1.5193
  585MOL0     H78973   3.067   7.626  10.803  0.1926 -0.3037  0.9807
  585MOL0     H78974   3.230   7.575  10.800 -1.8159 -2.2145  0.0287
  585MOL0     H78975   3.189   7.737  10.728 -1.2473 -0.1699 -0.0662
  586MOL0     O78976   7.653   7.898   2.035  0.9368 -0.2378  0.5751
  586MOL0     C78977   7.582   7.800   2.016 -0.2186  0.3902 -0.1831
  586MOL0     O78978   7.616   7.697   1.936  0.3031 -0.0326  0.2642
  586MOL0     C78979   7.721   7.712   1.849  0.1161  0.2367  0.1153
  586MOL0     C78980   7.721   7.816   1.754  0.1573  0.0870  0.1110
  586MOL0     C78981   7.815   7.816   1.649 -0.6949 -1.5403 -0.3595
  586MOL0     C78982   7.902   7.701   1.629 -0.4832 -0.7077 -0.0346
  586MOL0     O78983   7.967   7.691   1.510 -0.4584  0.5615 -0.0024
  586MOL0     C78984   8.073   7.784   1.495 -0.5391  0.5551  0.0701
  586MOL0     C78985   8.050   7.875   1.374 -0.6533 -0.7348  0.4999
  586MOL0     C78986   8.181   7.945   1.327  0.5915  0.2298 -0.2446
  586MOL0     C78987   8.199   7.944   1.178  0.4900  0.4927  0.4341
  586MOL0     C78988   8.096   8.034   1.103 -0.5807 -0.0345  0.1219
  586MOL0     C78989   8.128   8.047   0.956 -0.5014  0.3863  0.9636
  586MOL0     C78990   8.065   8.166   0.879  0.3662 -0.6767  0.0914
  586MOL0     C78991   8.054   8.138   0.726  0.0989  0.6259  0.2665
  586MOL0     N78992   8.184   8.141   0.654 -0.1267  0.5696  0.2015
  586MOL0     C78993   8.202   8.079   0.537  0.7692  0.1891 -0.0984
  586MOL0     C78994   8.310   8.125   0.486 -0.2430  0.0113 -0.3917
  586MOL0     C78995   8.383   8.087   0.359 -0.0351  0.6416  0.2672
  586MOL0     C78996   8.504   8.176   0.327  0.4664  0.6758  0.1465
  586MOL0     C78997   8.460   8.322   0.312 -0.5512 -1.2900 -0.0011
  586MOL0     C78998   8.570   8.417   0.258 -0.1243  0.5529  0.5102
  586MOL0     O78999   8.625   8.361   0.138  0.7196  0.2528  0.1681
  586MOL0     C79000   8.731   8.420   0.081 -0.7372  0.0147 -0.2249
  586MOL0     C79001   8.804   8.340  -0.005 -0.0187  0.0050 -0.0432
  586MOL0     C79002   8.930   8.376  -0.058  0.5984 -0.1508 -0.8258
  586MOL0     C79003   8.978   8.505  -0.018 -0.2998  0.3919 -0.5489
  586MOL0     C79004   9.097   8.566  -0.077 -0.7079  0.3507  0.1273
  586MOL0     O79005   9.113   8.704  -0.078 -0.5252 -0.3324  0.1023
  586MOL0     C79006   9.236   8.740  -0.127 -0.2419 -0.0313  0.5448
  586MOL0     C79007   9.258   8.785  -0.256 -0.1660  1.1952 -0.0722
  586MOL0     C79008   9.388   8.815  -0.298 -0.2255  0.2677 -0.1804
  586MOL0     C79009   9.499   8.816  -0.213  0.3790  0.6930 -0.1633
  586MOL0     O79010   9.620   8.865  -0.268 -0.2045  0.6581  0.2565
  586MOL0     C79011   9.741   8.836  -0.201 -0.0865  0.3969  0.0794
  586MOL0     C79012   9.838   8.951  -0.210 -0.8584  0.7938 -0.1134
  586MOL0     C79013   9.976   8.910  -0.151  0.2333  0.2060 -0.4281
  586MOL0     C79014  10.079   9.030  -0.183 -0.0562 -0.4910 -0.3514
  586MOL0     C79015  10.217   9.016  -0.109 -0.4902  0.5213  0.7435
  586MOL0     C79016  10.322   9.124  -0.158  0.7285  0.3692 -0.0057
  586MOL0     C79017  10.452   9.103  -0.085 -0.6535  0.7695 -0.6670
  586MOL0     C79018  10.544   9.223  -0.119 -0.1546  0.2222 -0.1618
  586MOL0    Cl79019  10.505   9.367  -0.024  0.6776 -0.1646  0.1448
  586MOL0     C79020   9.479   8.767  -0.081 -0.3869 -0.0959 -0.4545
  586MOL0     C79021   9.344   8.740  -0.040  0.2842  0.5093  0.1632
  586MOL0     O79022   9.180   8.485  -0.122 -0.2872  0.0967  0.4651
  586MOL0     C79023   8.904   8.588   0.061 -0.7283 -0.4364 -0.7581
  586MOL0     C79024   8.779   8.550   0.108  0.0710  0.2375 -0.8324
  586MOL0     N79025   8.371   8.203   0.588  0.6128  0.0660  1.0614
  586MOL0     N79026   8.292   8.219   0.687 -0.2507  0.6284  0.2456
  586MOL0     C79027   7.894   7.598   1.719  0.4759  0.9543 -0.2537
  586MOL0     C79028   7.803   7.603   1.826 -0.2737  0.3596  0.0361
  586MOL0     C79029   7.443   7.783   2.067  0.4093  0.4797  0.0349
  586MOL0     C79030   7.349   7.682   2.020 -0.4373 -0.1068  0.6541
  586MOL0     C79031   7.223   7.663   2.076  0.3759 -0.2309 -0.8003
  586MOL0     C79032   7.173   7.744   2.182  0.1545  0.0795  1.3133
  586MOL0     O79033   7.047   7.717   2.221 -0.3353  0.5140  0.4448
  586MOL0     C79034   6.991   7.805   2.319  0.6079 -0.3417 -0.2098
  586MOL0     C79035   6.838   7.769   2.333 -1.3755  0.6289  0.0418
  586MOL0     C79036   6.789   7.823   2.467 -0.6758 -0.3360  0.5691
  586MOL0     C79037   6.642   7.836   2.459  1.1144 -0.9908 -0.0375
  586MOL0     C79038   6.566   7.712   2.459 -0.6412  0.0579 -0.3794
  586MOL0     C79039   6.500   7.612   2.479 -0.0873 -0.3766 -0.5628
  586MOL0     C79040   7.257   7.844   2.228  0.1192 -0.2548 -0.2114
  586MOL0     C79041   7.389   7.869   2.172  0.5335  1.0014 -0.0010
  586MOL0     C79042   7.457   7.981   2.240 -0.0078  0.0804 -0.0051
  586MOL0     H79043   7.658   7.902   1.774 -1.7493 -1.4266  1.0111
  586MOL0     H79044   7.826   7.895   1.575 -0.5793 -1.0359  0.1834
  586MOL0     H79045   8.086   7.844   1.585  0.4904 -1.0909  1.0646
  586MOL0     H79046   8.169   7.734   1.482 -1.5220 -0.8610 -2.4942
  586MOL0     H79047   7.979   7.950   1.411  0.4841  0.3969  0.4561
  586MOL0     H79048   7.992   7.816   1.302 -1.0923 -1.4786  1.4395
  586MOL0     H79049   8.267   7.895   1.372 -0.1876 -1.8172 -0.9464
  586MOL0     H79050   8.181   8.047   1.367 -1.1455 -0.1811  0.9266
  586MOL0     H79051   8.296   7.989   1.152  0.3143 -0.0759 -1.2982
  586MOL0     H79052   8.206   7.845   1.132  0.2056 -0.0544  1.5327
  586MOL0     H79053   7.997   7.991   1.120  0.9967 -2.9827  3.0600
  586MOL0     H79054   8.097   8.136   1.144  0.1072  0.2232 -0.5018
  586MOL0     H79055   8.234   8.042   0.928 -0.7596  1.5987 -0.3695
  586MOL0     H79056   8.084   7.956   0.916  0.6649 -0.8181  2.3025
  586MOL0     H79057   8.115   8.261   0.899 -1.6710  0.3777  0.5028
  586MOL0     H79058   7.965   8.178   0.923  0.0800 -1.7959 -0.2177
  586MOL0     H79059   8.006   8.041   0.713  0.1800  0.6250 -0.0262
  586MOL0     H79060   7.999   8.215   0.670  1.2301 -0.3801 -2.4000
  586MOL0     H79061   8.139   8.009   0.484 -0.9742 -1.3311  3.5970
  586MOL0     H79062   8.409   7.982   0.367 -3.9049 -0.8482 -3.1297
  586MOL0     H79063   8.309   8.090   0.278 -2.6088 -1.2145  2.3651
  586MOL0     H79064   8.585   8.164   0.399 -1.9829 -0.2695  2.9116
  586MOL0     H79065   8.541   8.141   0.229 -3.8300 -2.1918 -0.7238
  586MOL0     H79066   8.443   8.357   0.415  0.8755  0.6030 -0.3364
  586MOL0     H79067   8.374   8.329   0.246  1.3699 -1.3110 -2.6625
  586MOL0     H79068   8.644   8.440   0.334  0.2480 -0.7937  0.5867
  586MOL0     H79069   8.525   8.512   0.227  1.9318  1.2793 -0.4402
  586MOL0     H79070   8.759   8.248  -0.039 -2.2449  0.8190  0.5730
  586MOL0     H79071   8.981   8.316  -0.133  0.4124 -0.9106 -0.3629
  586MOL0     H79072   9.178   8.784  -0.329 -0.9332  0.0079  0.7364
  586MOL0     H79073   9.407   8.830  -0.404 -1.5688 -0.2800 -0.5178
  586MOL0     H79074   9.711   8.822  -0.097  1.4848  3.1038  0.9870
  586MOL0     H79075   9.790   8.750  -0.249  0.3896  0.8093 -0.1888
  586MOL0     H79076   9.854   8.979  -0.315 -1.1264 -2.6459 -1.1998
  586MOL0     H79077   9.798   9.040  -0.162  0.6734  1.9686 -0.9397
  586MOL0     H79078   9.957   8.896  -0.044 -0.0732  0.5783 -0.4301
  586MOL0     H79079  10.018   8.821  -0.197 -3.6134 -1.7577 -0.5705
  586MOL0     H79080  10.041   9.127  -0.151 -1.4966 -1.0866 -0.1876
  586MOL0     H79081  10.097   9.051  -0.289  0.1789  0.5298 -0.1231
  586MOL0     H79082  10.256   8.917  -0.136 -0.8265  1.1716 -2.5823
  586MOL0     H79083  10.212   9.012  -0.000  2.6714 -1.5697  0.9448
  586MOL0     H79084  10.330   9.122  -0.267  0.4601  0.6480 -0.0319
  586MOL0     H79085  10.279   9.223  -0.141  2.3042  1.2566 -0.9749
  586MOL0     H79086  10.495   9.008  -0.117 -1.4111 -0.0054  0.5452
  586MOL0     H79087  10.437   9.095   0.023  1.5333  1.2400 -0.2749
  586MOL0     H79088  10.651   9.211  -0.098  0.7738  5.3644 -0.7712
  586MOL0     H79089  10.554   9.242  -0.226  0.6355  1.7899  0.1694
  586MOL0     H79090   9.550   8.783  -0.001 -1.2290 -2.3046  0.8089
  586MOL0     H79091   9.325   8.714   0.064 -0.9377 -0.5747 -0.3093
  586MOL0     H79092   8.942   8.683   0.096 -0.5883  0.3145 -2.8029
  586MOL0     H79093   8.707   8.611   0.160 -0.6085 -1.1026 -0.1347
  586MOL0     H79094   7.958   7.515   1.688 -0.2783  1.3964 -3.3997
  586MOL0     H79095   7.798   7.519   1.894  0.2178 -1.1305 -1.7022
  586MOL0     H79096   7.369   7.611   1.941 -0.1917 -1.0713  1.5723
  586MOL0     H79097   7.151   7.591   2.039 -2.1476  0.4938  2.2258
  586MOL0     H79098   7.002   7.910   2.290 -0.8593 -0.5267 -1.6133
  586MOL0     H79099   7.039   7.790   2.416 -1.2973  1.5589  1.1307
  586MOL0     H79100   6.821   7.661   2.332 -2.1557  0.6966  1.9674
  586MOL0     H79101   6.797   7.817   2.244  1.9437  1.1182 -1.3646
  586MOL0     H79102   6.837   7.921   2.478 -1.0297 -0.2306  1.2335
  586MOL0     H79103   6.829   7.771   2.554  1.2682  1.4430  0.8338
  586MOL0     H79104   6.611   7.893   2.547 -0.4035  1.1490 -1.8390
  586MOL0     H79105   6.604   7.899   2.377  3.2489 -0.4693 -0.7041
  586MOL0     H79106   6.442   7.530   2.517 -0.6190 -0.8323 -2.2475
  586MOL0     H79107   7.220   7.910   2.305  0.6047  0.8712 -0.9262
  586MOL0     H79108   7.485   8.063   2.173  1.8647  0.8388  1.5918
  586MOL0     H79109   7.382   8.026   2.305  0.0404  1.3897 -0.8244
  586MOL0     H79110   7.550   7.957   2.293 -0.8350  2.7692  2.9915
  587MOL0     O79111   4.038   4.504   7.687 -0.5342 -0.0796 -0.1639
  587MOL0     C79112   4.051   4.595   7.768  0.6059  0.2936  0.2977
  587MOL0     O79113   3.975   4.613   7.881 -0.0918  0.1128  0.3824
  587MOL0     C79114   3.872   4.526   7.920  0.0699 -0.4495 -0.5036
  587MOL0     C79115   3.852   4.504   8.056 -0.0950 -1.8113 -0.8855
  587MOL0     C79116   3.747   4.423   8.105  1.1813  0.0113  0.0088
  587MOL0     C79117   3.663   4.360   8.023  0.1309 -0.6055  0.3416
  587MOL0     O79118   3.569   4.276   8.065  0.1336 -0.9343  0.2155
  587MOL0     C79119   3.440   4.338   8.077 -0.4412 -0.1484  0.5649
  587MOL0     C79120   3.361   4.303   7.946 -0.9234  0.3203  0.4813
  587MOL0     C79121   3.217   4.353   7.961  0.6020  0.3843  0.9134
  587MOL0     C79122   3.112   4.287   7.857 -0.3176 -0.0364 -0.3538
  587MOL0     C79123   2.970   4.354   7.861  0.6832 -0.3360 -0.0393
  587MOL0     C79124   2.971   4.503   7.827 -0.6445  0.1669 -0.2048
  587MOL0     C79125   2.838   4.556   7.762 -1.0518 -1.2939  0.6319
  587MOL0     C79126   2.835   4.525   7.608 -0.1093  0.3455 -0.2300
  587MOL0     N79127   2.709   4.566   7.545 -0.3120 -0.1670  1.0834
  587MOL0     C79128   2.595   4.484   7.533 -0.6031  0.6118 -0.6734
  587MOL0     C79129   2.512   4.557   7.465 -0.3230 -0.2169  0.1811
  587MOL0     C79130   2.379   4.521   7.416  0.1538  0.1995  0.2851
  587MOL0     C79131   2.251   4.584   7.499 -1.0891 -0.0987 -0.5481
  587MOL0     C79132   2.263   4.539   7.648 -0.2681  0.1271  0.2012
  587MOL0     C79133   2.148   4.590   7.737 -0.4344  0.6057 -0.0401
  587MOL0     O79134   2.034   4.546   7.670 -1.0715 -0.7133 -0.1393
  587MOL0     C79135   1.906   4.564   7.711 -0.5384  0.1938 -0.3707
  587MOL0     C79136   1.802   4.486   7.646  0.0086 -0.0378 -0.0971
  587MOL0     C79137   1.665   4.501   7.681 -1.1295 -0.0043 -0.1297
  587MOL0     C79138   1.635   4.584   7.796  0.4010 -0.3310  0.7018
  587MOL0     C79139   1.493   4.602   7.838 -0.2803  0.3000  0.3927
  587MOL0     O79140   1.395   4.574   7.748  0.3657  0.0089 -0.0675
  587MOL0     C79141   1.257   4.567   7.787 -0.6653 -0.6297 -0.2934
  587MOL0     C79142   1.215   4.531   7.912 -0.2284 -0.0039  0.3141
  587MOL0     C79143   1.081   4.535   7.943 -0.7107  0.1291 -0.3117
  587MOL0     C79144   0.983   4.565   7.850 -0.4823 -0.4736  0.9701
  587MOL0     O79145   0.842   4.560   7.875 -0.0204  0.1170  0.2414
  587MOL0     C79146   0.764   4.678   7.832  0.2888  0.1740 -0.3289
  587MOL0     C79147   0.635   4.646   7.762 -0.1501 -0.0366 -1.1230
  587MOL0     C79148   0.565   4.762   7.691  0.2609  0.7956  0.6353
  587MOL0     C79149   0.426   4.708   7.630 -0.2291 -0.3759  1.3630
  587MOL0     C79150   0.358   4.819   7.553 -0.0126  0.2536  0.1324
  587MOL0     C79151   0.214   4.782   7.509 -0.9794  0.5408  0.2937
  587MOL0     C79152   0.205   4.671   7.393  0.0380  0.3151  0.2455
  587MOL0     C79153   0.059   4.608   7.358  0.3311  0.6001 -0.6298
  587MOL0    Cl79154  -0.063   4.748   7.350  0.1020  0.0087 -0.0950
  587MOL0     C79155   1.024   4.591   7.718  0.0882 -0.0046  0.2590
  587MOL0     C79156   1.161   4.594   7.687 -0.3077  0.5888 -0.0814
  587MOL0     O79157   1.475   4.634   7.956 -0.3092 -1.4215 -0.0758
  587MOL0     C79158   1.733   4.664   7.861  0.5214 -0.4059 -0.8232
  587MOL0     C79159   1.865   4.656   7.816 -0.4035  0.3057 -0.5837
  587MOL0     N79160   2.565   4.680   7.429 -0.2886 -0.3094  0.3007
  587MOL0     N79161   2.685   4.680   7.476 -0.1101 -0.0524 -0.6605
  587MOL0     C79162   3.689   4.376   7.887  0.5506  0.4057  0.5124
  587MOL0     C79163   3.786   4.456   7.836 -0.7551 -0.9273 -0.2191
  587MOL0     C79164   4.166   4.682   7.745 -0.7753  0.1940  0.0374
  587MOL0     C79165   4.186   4.726   7.609  0.1308  0.4731 -0.2375
  587MOL0     C79166   4.296   4.802   7.580  0.0067 -0.2356 -1.0165
  587MOL0     C79167   4.375   4.852   7.687  0.0309 -1.0941  0.3474
  587MOL0     O79168   4.475   4.946   7.678  0.1693 -0.2867 -0.0202
  587MOL0     C79169   4.530   4.965   7.547 -0.6564 -0.2475  0.7274
  587MOL0     C79170   4.654   5.053   7.566  0.4572  0.7679  0.1517
  587MOL0     C79171   4.624   5.194   7.617 -0.6344  0.0743  0.5448
  587MOL0     C79172   4.742   5.286   7.613 -0.4781 -0.1678 -0.2892
  587MOL0     C79173   4.861   5.221   7.673  0.0868 -0.4789  0.4798
  587MOL0     C79174   4.961   5.164   7.721 -0.6270 -0.3589  0.0942
  587MOL0     C79175   4.355   4.814   7.813  0.0240 -0.2673 -0.9970
  587MOL0     C79176   4.251   4.729   7.850 -0.2976  0.8958  0.3617
  587MOL0     C79177   4.233   4.712   7.994  0.4218 -0.2646 -0.4946
  587MOL0     H79178   3.920   4.555   8.124 -4.3660  1.6981  1.2510
  587MOL0     H79179   3.728   4.415   8.211  0.2451  1.9621  0.0206
  587MOL0     H79180   3.383   4.293   8.159 -0.6530  1.7357  1.5208
  587MOL0     H79181   3.435   4.444   8.104 -0.6290 -0.5823  2.3627
  587MOL0     H79182   3.373   4.195   7.933  1.5592  0.3623  1.7682
  587MOL0     H79183   3.408   4.350   7.859  0.8466 -1.5421  0.3550
  587MOL0     H79184   3.217   4.461   7.945  2.7801  0.5197  1.4911
  587MOL0     H79185   3.180   4.342   8.064  2.3165  2.8924  1.8730
  587MOL0     H79186   3.157   4.298   7.758  2.2903  1.6906  0.9005
  587MOL0     H79187   3.102   4.184   7.892 -0.7213  0.0048 -0.3549
  587MOL0     H79188   2.905   4.308   7.786 -1.6824 -0.5623  1.9786
  587MOL0     H79189   2.916   4.351   7.957  0.0131  0.1717 -0.3897
  587MOL0     H79190   3.002   4.565   7.913 -3.6811  0.4190  0.8352
  587MOL0     H79191   3.050   4.521   7.753  2.1015 -2.1745  1.9130
  587MOL0     H79192   2.827   4.664   7.778  0.4918 -0.8296 -1.0792
  587MOL0     H79193   2.755   4.499   7.803 -2.5086 -1.9979 -2.9669
  587MOL0     H79194   2.916   4.573   7.554 -1.3228  2.5126 -0.2155
  587MOL0     H79195   2.838   4.416   7.598 -1.7456  0.2705 -0.1975
  587MOL0     H79196   2.586   4.379   7.561 -0.8371  1.0745  1.1094
  587MOL0     H79197   2.366   4.556   7.313 -0.6172  0.8479  0.5919
  587MOL0     H79198   2.376   4.412   7.418 -2.0204  0.2058  3.0044
  587MOL0     H79199   2.269   4.692   7.495  3.6749 -0.5382  1.6314
  587MOL0     H79200   2.157   4.561   7.449 -2.0681  2.6710 -0.1628
  587MOL0     H79201   2.365   4.564   7.680  0.2105 -0.8120 -0.5126
  587MOL0     H79202   2.258   4.430   7.655  2.0951 -0.0210  0.6466
  587MOL0     H79203   2.152   4.699   7.732 -0.7304  0.6665  0.8558
  587MOL0     H79204   2.149   4.565   7.843  1.3436  1.2056  0.1133
  587MOL0     H79205   1.824   4.423   7.561  0.7792 -1.3127  0.9890
  587MOL0     H79206   1.588   4.452   7.622 -0.6042 -1.1119  0.0960
  587MOL0     H79207   1.285   4.506   7.991  0.7250 -1.7689 -0.9935
  587MOL0     H79208   1.053   4.518   8.046  1.0625 -0.5814  0.0803
  587MOL0     H79209   0.738   4.729   7.925 -1.8642 -1.9219  0.3407
  587MOL0     H79210   0.825   4.749   7.776  0.2603  2.6517  2.5528
  587MOL0     H79211   0.648   4.562   7.694 -1.1370  0.9321 -2.5680
  587MOL0     H79212   0.569   4.607   7.840  2.0486 -0.8452  0.4297
  587MOL0     H79213   0.550   4.846   7.758  1.8643  0.1533  1.8614
  587MOL0     H79214   0.633   4.799   7.613  0.3748 -1.8955 -0.6747
  587MOL0     H79215   0.366   4.672   7.714 -0.1278 -1.3923  1.0209
  587MOL0     H79216   0.450   4.626   7.561 -0.4006  0.4192  0.3248
  587MOL0     H79217   0.421   4.826   7.464 -0.0304 -0.0613  0.0917
  587MOL0     H79218   0.360   4.913   7.608  2.2848  0.3488 -0.0228
  587MOL0     H79219   0.163   4.745   7.598  1.4550  1.9211  2.3724
  587MOL0     H79220   0.168   4.875   7.476 -0.7029  0.0587 -1.6255
  587MOL0     H79221   0.264   4.585   7.424  0.2212  1.0358  2.0273
  587MOL0     H79222   0.248   4.710   7.301 -1.1735  2.5800  0.5582
  587MOL0     H79223   0.059   4.559   7.261  1.3622 -1.3899  0.3211
  587MOL0     H79224   0.018   4.536   7.429  3.0330 -0.8549 -0.4419
  587MOL0     H79225   0.947   4.618   7.647 -2.0410 -0.4495  2.2655
  587MOL0     H79226   1.186   4.619   7.585 -1.1893 -0.5664 -0.6073
  587MOL0     H79227   1.696   4.731   7.938 -0.8224 -0.7170 -1.1712
  587MOL0     H79228   1.945   4.715   7.860 -0.1986  0.2890 -0.9330
  587MOL0     H79229   3.624   4.331   7.813  1.4828 -3.0930  1.6477
  587MOL0     H79230   3.793   4.460   7.728  1.3870 -0.2054 -0.1039
  587MOL0     H79231   4.118   4.704   7.527 -1.4440 -2.1529  1.6147
  587MOL0     H79232   4.310   4.834   7.477 -0.7099  0.6315 -0.8689
  587MOL0     H79233   4.463   5.006   7.471  0.4008 -2.4486 -1.5615
  587MOL0     H79234   4.567   4.876   7.495 -1.2037  0.9471 -1.9170
  587MOL0     H79235   4.710   5.061   7.472 -1.4319 -2.8880 -1.4840
  587MOL0     H79236   4.721   5.008   7.640 -0.6239 -1.9903 -0.4308
  587MOL0     H79237   4.600   5.169   7.721 -0.7407 -1.4557  0.1860
  587MOL0     H79238   4.536   5.238   7.568  0.5336  1.1107 -0.6858
  587MOL0     H79239   4.766   5.307   7.509  0.6861 -1.4324 -0.2980
  587MOL0     H79240   4.708   5.375   7.666  0.5255  0.9483 -1.4557
  587MOL0     H79241   5.049   5.128   7.770  0.5249  1.2307 -0.6969
  587MOL0     H79242   4.426   4.853   7.885  0.2321 -1.6930 -0.4032
  587MOL0     H79243   4.301   4.776   8.052 -0.6171  0.4692 -0.0512
  587MOL0     H79244   4.135   4.757   8.016 -0.8009 -2.0174 -2.0143
  587MOL0     H79245   4.234   4.607   8.022  2.0441  0.4475  2.4813
  588MOL0     O79246   6.875   4.984   0.610  0.2749 -0.4999 -0.0160
  588MOL0     C79247   6.847   4.990   0.730 -0.4014  0.4497 -0.4787
  588MOL0     O79248   6.941   5.025   0.822  0.2305 -1.0963 -0.6710
  588MOL0     C79249   7.070   5.040   0.780  0.1981  0.1375 -0.5991
  588MOL0     C79250   7.119   5.141   0.701 -0.5285 -0.4421  0.9228
  588MOL0     C79251   7.249   5.135   0.650 -0.9937  0.2661 -0.5292
  588MOL0     C79252   7.340   5.038   0.696  0.7700  0.0541 -0.9111
  588MOL0     O79253   7.470   5.034   0.667  0.1862 -0.3652  0.6528
  588MOL0     C79254   7.550   5.143   0.699  0.3600  0.5127  0.3154
  588MOL0     C79255   7.673   5.164   0.607  0.0542  0.3711 -0.3392
  588MOL0     C79256   7.780   5.062   0.644  0.6589  0.3474 -0.3194
  588MOL0     C79257   7.917   5.109   0.589  0.1858 -0.8600  0.1815
  588MOL0     C79258   8.041   5.019   0.621 -0.5107  0.0693  0.1962
  588MOL0     C79259   8.158   5.093   0.566 -0.0218 -0.2654  0.2929
  588MOL0     C79260   8.290   5.011   0.585  0.2301  0.7931  0.2936
  588MOL0     C79261   8.310   4.913   0.463  0.4688  0.5011 -0.1685
  588MOL0     N79262   8.425   4.822   0.489 -0.0113  0.2176  0.1094
  588MOL0     C79263   8.554   4.846   0.527  0.3368  0.8873 -0.2228
  588MOL0     C79264   8.603   4.717   0.549 -0.1577 -0.1207 -0.9179
  588MOL0     C79265   8.744   4.688   0.604  0.1406 -0.1811  0.4964
  588MOL0     C79266   8.859   4.744   0.517  0.8787  0.5230 -0.5457
  588MOL0     C79267   8.994   4.699   0.568 -0.0661 -0.4205  0.1465
  588MOL0     C79268   9.031   4.566   0.498  0.5810 -0.1751  0.8975
  588MOL0     O79269   9.129   4.499   0.574  0.1662  0.8294  0.9652
  588MOL0     C79270   9.262   4.534   0.572 -0.6737  0.0377 -0.3293
  588MOL0     C79271   9.331   4.649   0.517  0.4989  0.3209 -0.1109
  588MOL0     C79272   9.469   4.680   0.544 -0.1238  0.3001 -0.2459
  588MOL0     C79273   9.546   4.587   0.623 -0.7143  0.0677 -0.1532
  588MOL0     C79274   9.690   4.595   0.620  0.6815 -0.2273  0.7051
  588MOL0     O79275   9.741   4.714   0.571 -0.4903  0.1185  0.7752
  588MOL0     C79276   9.879   4.741   0.583  0.7701 -0.0693  0.1575
  588MOL0     C79277   9.925   4.830   0.684 -0.1613  0.5103 -0.6252
  588MOL0     C79278  10.058   4.846   0.713 -0.3746  0.5197  0.7641
  588MOL0     C79279  10.154   4.780   0.630  0.2524 -0.1201 -0.3328
  588MOL0     O79280  10.289   4.788   0.645 -0.4603 -0.6823  0.0547
  588MOL0     C79281  10.338   4.922   0.674 -0.1182  0.1414  0.0098
  588MOL0     C79282  10.483   4.945   0.643  0.8052  0.1797 -0.3683
  588MOL0     C79283  10.509   4.930   0.489 -0.3538  0.3377  0.2103
  588MOL0     C79284  10.454   5.032   0.390  0.2859  0.6098 -0.5793
  588MOL0     C79285  10.502   5.175   0.415  0.7609  0.7028 -0.6862
  588MOL0     C79286  10.530   5.243   0.277 -0.2345  1.3002 -0.5112
  588MOL0     C79287  10.586   5.385   0.284  0.3214 -0.3307 -0.2521
  588MOL0     C79288  10.734   5.383   0.270  0.3788  0.3838  0.3112
  588MOL0    Cl79289  10.791   5.543   0.222  0.1980  0.1809  0.4669
  588MOL0     C79290  10.113   4.692   0.531 -0.4781 -0.0125 -0.0841
  588MOL0     C79291   9.977   4.678   0.502  0.1232 -1.5173  0.1541
  588MOL0     O79292   9.753   4.500   0.663 -0.1952  0.4010 -0.4532
  588MOL0     C79293   9.480   4.486   0.685  0.0971 -0.0660  0.0284
  588MOL0     C79294   9.336   4.462   0.664 -0.2488 -0.2300  0.8031
  588MOL0     N79295   8.509   4.619   0.518  0.5977 -0.1020  0.3344
  588MOL0     N79296   8.405   4.689   0.482  0.1289  0.2209 -0.6490
  588MOL0     C79297   7.291   4.934   0.782 -0.2943  0.1071  0.0862
  588MOL0     C79298   7.157   4.935   0.818 -0.1554 -0.2521  0.3621
  588MOL0     C79299   6.707   4.958   0.771 -0.6858  0.5329 -0.4546
  588MOL0     C79300   6.700   4.907   0.902 -0.5004 -0.2085 -0.5908
  588MOL0     C79301   6.583   4.869   0.960 -0.0106 -0.4615 -1.0878
  588MOL0     C79302   6.464   4.896   0.892  0.1020 -0.6811  0.1538
  588MOL0     O79303   6.354   4.853   0.958  0.3599  0.0864 -0.4236
  588MOL0     C79304   6.226   4.919   0.922  1.0948 -0.0648 -0.0795
  588MOL0     C79305   6.155   4.983   1.044 -0.4250  0.8635  0.5127
  588MOL0     C79306   6.258   5.093   1.107  0.1466  0.9604  0.3637
  588MOL0     C79307   6.176   5.208   1.144 -1.5648  0.4738 -0.4295
  588MOL0     C79308   6.083   5.161   1.250  0.6721 -0.4912  0.1888
  588MOL0     C79309   6.014   5.114   1.342 -0.4270  0.2114 -0.6898
  588MOL0     C79310   6.468   4.961   0.767  0.4412  0.3171 -0.5808
  588MOL0     C79311   6.586   4.981   0.699  0.1085  0.6457  0.4365
  588MOL0     C79312   6.577   5.033   0.557 -0.4127 -0.7743  0.8062
  588MOL0     H79313   7.044   5.215   0.674  2.7437  2.0361 -2.3382
  588MOL0     H79314   7.291   5.218   0.596 -0.2004  0.7194  0.7342
  588MOL0     H79315   7.487   5.232   0.687  2.3999  1.9728 -0.2501
  588MOL0     H79316   7.582   5.137   0.803 -1.3996  0.1670  0.8555
  588MOL0     H79317   7.717   5.262   0.631  1.1062 -0.6595  2.3864
  588MOL0     H79318   7.645   5.170   0.502 -3.4845  3.7435  0.5312
  588MOL0     H79319   7.746   4.965   0.607  2.2804 -0.9479  1.3956
  588MOL0     H79320   7.776   5.048   0.752 -0.8252 -1.1483 -0.5233
  588MOL0     H79321   7.912   5.115   0.480  1.6769 -1.6668  0.0447
  588MOL0     H79322   7.927   5.215   0.614 -2.7782 -0.7948  1.4309
  588MOL0     H79323   8.065   5.009   0.727  0.1044 -2.5263 -0.1233
  588MOL0     H79324   8.033   4.921   0.573  0.2475  0.1036 -0.0072
  588MOL0     H79325   8.146   5.119   0.461 -0.0934  1.4626  0.6876
  588MOL0     H79326   8.168   5.178   0.635  1.7531  1.2075 -1.6446
  588MOL0     H79327   8.280   4.947   0.673 -1.6348 -2.6120 -2.1764
  588MOL0     H79328   8.374   5.081   0.597  2.4268 -1.1154 -2.5638
  588MOL0     H79329   8.222   4.850   0.446  1.9019 -1.9352  0.9200
  588MOL0     H79330   8.342   4.975   0.378  0.9100  2.3657  1.2820
  588MOL0     H79331   8.603   4.942   0.542  1.8555  0.0667  0.2592
  588MOL0     H79332   8.753   4.727   0.706  0.6689 -0.3568  0.5202
  588MOL0     H79333   8.753   4.581   0.625  0.3004 -0.0828  0.9525
  588MOL0     H79334   8.843   4.705   0.416 -0.8665  1.8890 -0.8502
  588MOL0     H79335   8.856   4.853   0.523 -0.2145  0.6460 -2.3562
  588MOL0     H79336   8.977   4.681   0.675 -2.2246  2.2622  0.3737
  588MOL0     H79337   9.062   4.783   0.551 -3.9193  2.6140 -2.1577
  588MOL0     H79338   9.077   4.600   0.405 -1.2674 -1.1860 -0.4519
  588MOL0     H79339   8.951   4.496   0.470  0.3674  0.5039 -0.2384
  588MOL0     H79340   9.270   4.715   0.456 -0.8448 -1.9991 -1.4242
  588MOL0     H79341   9.512   4.772   0.505  4.5739 -1.7035 -0.4644
  588MOL0     H79342   9.853   4.875   0.750 -1.3187  0.1909 -1.6298
  588MOL0     H79343  10.080   4.911   0.797 -2.6475  0.0995  1.7695
  588MOL0     H79344  10.292   4.999   0.612  0.2620  0.7063  0.4202
  588MOL0     H79345  10.335   4.946   0.780 -1.2857 -0.1170  0.0400
  588MOL0     H79346  10.508   5.050   0.665  0.5505  0.4706 -1.4147
  588MOL0     H79347  10.549   4.874   0.693  0.5393 -0.6617 -1.1949
  588MOL0     H79348  10.617   4.940   0.477 -0.6530  3.5279 -0.7168
  588MOL0     H79349  10.472   4.831   0.461 -1.3406 -0.1751  3.0129
  588MOL0     H79350  10.345   5.032   0.381  0.2915 -0.7052 -0.7289
  588MOL0     H79351  10.491   4.999   0.293 -1.0683 -0.0104 -0.9080
  588MOL0     H79352  10.588   5.167   0.483 -1.7136 -0.5555  2.5589
  588MOL0     H79353  10.422   5.228   0.468  0.4445 -0.2908 -0.1521
  588MOL0     H79354  10.598   5.186   0.214  0.6283  2.6660 -0.8517
  588MOL0     H79355  10.433   5.258   0.228 -1.1342  2.5021  1.4756
  588MOL0     H79356  10.558   5.438   0.375  1.7580  0.0125  0.0138
  588MOL0     H79357  10.538   5.448   0.209  0.2439  1.3604  1.1616
  588MOL0     H79358  10.781   5.360   0.366  2.2140 -1.4816 -0.9494
  588MOL0     H79359  10.770   5.314   0.193 -1.1613  0.4494 -0.5054
  588MOL0     H79360  10.176   4.642   0.458 -1.5786 -1.4383 -0.0781
  588MOL0     H79361   9.950   4.612   0.420 -3.9783 -0.4571  0.4291
  588MOL0     H79362   9.536   4.407   0.735  0.1834 -0.7676 -1.1516
  588MOL0     H79363   9.296   4.378   0.720  3.2928 -2.0853  0.8403
  588MOL0     H79364   7.358   4.860   0.825 -0.9267 -0.7119 -0.3165
  588MOL0     H79365   7.120   4.857   0.883  0.4053  0.0571  1.0646
  588MOL0     H79366   6.789   4.884   0.959 -1.0760 -0.7863  0.1018
  588MOL0     H79367   6.583   4.815   1.055 -0.1677 -0.1948 -0.9327
  588MOL0     H79368   6.155   4.850   0.876  1.2629  0.4609 -1.1721
  588MOL0     H79369   6.227   4.989   0.838 -2.5791 -2.4394 -2.4196
  588MOL0     H79370   6.123   4.906   1.115  2.2135 -2.8878 -1.9890
  588MOL0     H79371   6.063   5.031   1.010 -0.7319  1.1843  1.7446
  588MOL0     H79372   6.340   5.120   1.040 -1.5613  1.2567 -1.7381
  588MOL0     H79373   6.302   5.047   1.196  3.9636  0.6830 -1.4824
  588MOL0     H79374   6.249   5.278   1.186  1.1903 -1.6061 -1.4275
  588MOL0     H79375   6.118   5.242   1.058 -1.1641  0.4062 -0.7325
  588MOL0     H79376   5.954   5.060   1.413  0.0783  2.0351  1.2337
  588MOL0     H79377   6.378   4.973   0.708  1.3109 -2.5749 -2.7437
  588MOL0     H79378   6.498   5.109   0.560  0.0693 -0.1961 -0.5105
  588MOL0     H79379   6.670   5.081   0.526 -1.6592  0.8910 -0.5592
  588MOL0     H79380   6.542   4.957   0.487  2.1505  0.0779 -1.5458
  589MOL0     O79381   2.467  10.700   3.753  0.8594  0.5504 -0.1243
  589MOL0     C79382   2.405  10.803   3.763  0.1555  0.6919 -0.7679
  589MOL0     O79383   2.462  10.917   3.801  0.0419  0.6746  0.5438
  589MOL0     C79384   2.596  10.929   3.821 -0.2337 -0.7755  0.1962
  589MOL0     C79385   2.654  10.948   3.945  0.3538 -0.4920  0.0317
  589MOL0     C79386   2.793  10.976   3.955  0.7194 -0.4376 -0.1397
  589MOL0     C79387   2.877  10.985   3.846  1.2734  1.1874 -0.4347
  589MOL0     O79388   3.013  10.990   3.875  0.0228 -0.0477 -0.2769
  589MOL0     C79389   3.105  10.950   3.765 -0.3757 -0.3857 -0.6605
  589MOL0     C79390   3.225  10.882   3.825  0.2059  0.2676 -0.5664
  589MOL0     C79391   3.311  10.981   3.903 -0.7943  0.7440  0.6041
  589MOL0     C79392   3.438  10.932   3.971 -0.3108  0.0396  0.2386
  589MOL0     C79393   3.559  10.947   3.880  0.4396 -0.7269 -0.1320
  589MOL0     C79394   3.680  10.899   3.957  0.5327  0.0088 -0.0270
  589MOL0     C79395   3.817  10.947   3.905  0.1263  0.0072  0.1843
  589MOL0     C79396   3.936  10.909   3.997  0.5796 -0.4452  0.2966
  589MOL0     N79397   4.058  10.973   3.954 -0.1276 -0.2032 -0.1494
  589MOL0     C79398   4.121  11.074   4.020  0.3722 -0.1547 -0.2524
  589MOL0     C79399   4.242  11.086   3.959  0.4781  0.8524 -0.3168
  589MOL0     C79400   4.358  11.161   4.010 -0.1265  0.0975  0.5586
  589MOL0     C79401   4.402  11.103   4.148  1.0181 -0.0665 -0.7780
  589MOL0     C79402   4.499  10.983   4.143 -0.1665  0.2929 -0.4879
  589MOL0     C79403   4.644  11.026   4.128  0.1162 -0.6213 -0.9070
  589MOL0     O79404   4.696  11.118   4.221  0.4339 -0.1733 -1.0599
  589MOL0     C79405   4.825  11.145   4.215 -1.1416  0.2399 -0.0958
  589MOL0     C79406   4.872  11.245   4.128  0.1430  0.4845  0.5232
  589MOL0     C79407   5.007  11.260   4.114  0.2707 -0.6027 -0.3791
  589MOL0     C79408   5.098  11.192   4.197 -0.0967  0.3021  0.6091
  589MOL0     C79409   5.240  11.206   4.170 -0.5251  0.4487 -0.4310
  589MOL0     O79410   5.316  11.165   4.277 -0.6354 -0.8617 -0.3352
  589MOL0     C79411   5.453  11.157   4.267 -0.5897 -0.0940 -0.4791
  589MOL0     C79412   5.537  11.218   4.174  0.2652  0.4708  0.4358
  589MOL0     C79413   5.681  11.203   4.189  0.3725 -0.4033 -0.5839
  589MOL0     C79414   5.739  11.131   4.292 -0.6979 -0.3894 -0.0868
  589MOL0     O79415   5.874  11.126   4.308  0.0624 -0.0257 -0.6034
  589MOL0     C79416   5.933  11.005   4.356  0.0119 -0.1764 -0.0285
  589MOL0     C79417   6.083  11.020   4.352 -0.2742 -0.3095  0.2322
  589MOL0     C79418   6.135  11.127   4.451  0.3428  0.2302  0.0719
  589MOL0     C79419   6.285  11.144   4.442 -0.5038 -0.7796 -0.5345
  589MOL0     C79420   6.355  11.242   4.540  0.1977 -0.1643 -0.3423
  589MOL0     C79421   6.508  11.249   4.539  1.1438  0.5220  0.7542
  589MOL0     C79422   6.554  11.347   4.426  0.4810 -0.1081  0.1940
  589MOL0     C79423   6.534  11.488   4.481 -0.4894  1.1278  0.8076
  589MOL0    Cl79424   6.690  11.579   4.465  0.4103 -0.6554  0.1811
  589MOL0     C79425   5.647  11.082   4.390 -0.4927 -1.1136  0.6637
  589MOL0     C79426   5.508  11.094   4.374 -0.7997  0.4633  0.0416
  589MOL0     O79427   5.279  11.241   4.060  0.7980 -0.0101  0.2056
  589MOL0     C79428   5.047  11.094   4.283 -0.0999  0.6141 -0.3317
  589MOL0     C79429   4.910  11.074   4.288  0.0796 -0.0191 -0.1892
  589MOL0     N79430   4.250  10.995   3.854 -0.3030 -0.2566 -0.2903
  589MOL0     N79431   4.144  10.923   3.867  0.2446  0.7120 -0.4970
  589MOL0     C79432   2.813  10.980   3.720 -0.3880 -0.5584  0.2915
  589MOL0     C79433   2.673  10.950   3.707 -0.4212  0.1211 -0.0684
  589MOL0     C79434   2.257  10.789   3.728  0.4235  0.2619 -0.0551
  589MOL0     C79435   2.202  10.659   3.738 -0.1702  0.0372 -0.3073
  589MOL0     C79436   2.062  10.643   3.734 -0.6646 -0.4194  0.5011
  589MOL0     C79437   1.978  10.752   3.703  0.3484 -0.7204 -0.1500
  589MOL0     O79438   1.846  10.724   3.698 -0.1157  0.0105  0.3348
  589MOL0     C79439   1.752  10.833   3.691  0.8496 -0.3869 -0.7438
  589MOL0     C79440   1.609  10.780   3.669 -0.4964 -0.9858  0.2322
  589MOL0     C79441   1.555  10.708   3.795  0.1401 -0.5394 -0.5553
  589MOL0     C79442   1.400  10.677   3.764 -0.1740  0.7876 -0.6521
  589MOL0     C79443   1.333  10.622   3.888  0.7347  0.3628 -0.6410
  589MOL0     C79444   1.281  10.572   3.985  0.3801  0.3619 -0.4102
  589MOL0     C79445   2.028  10.882   3.696 -0.4229 -0.1706  0.5010
  589MOL0     C79446   2.169  10.903   3.699  0.0830 -0.3281  0.6265
  589MOL0     C79447   2.221  11.045   3.672  0.3470 -0.0245 -0.2002
  589MOL0     H79448   2.593  10.930   4.034  1.3546  0.0318  0.8433
  589MOL0     H79449   2.847  10.990   4.048  1.4400  1.1595 -0.7703
  589MOL0     H79450   3.044  10.876   3.711 -0.6572 -1.2468  0.7682
  589MOL0     H79451   3.134  11.041   3.711  1.6296  0.1568  1.1900
  589MOL0     H79452   3.285  10.844   3.742  2.4563 -0.0126  1.0894
  589MOL0     H79453   3.193  10.808   3.900  1.3961  0.9031  0.6201
  589MOL0     H79454   3.253  11.026   3.984 -0.9370 -0.9309  1.4704
  589MOL0     H79455   3.333  11.068   3.840 -0.7257  0.8842  0.8188
  589MOL0     H79456   3.452  10.988   4.064  3.1580  0.4716 -0.4096
  589MOL0     H79457   3.433  10.825   3.994 -1.1916 -0.3134 -1.4408
  589MOL0     H79458   3.547  10.909   3.778  1.6436  0.7636 -0.8669
  589MOL0     H79459   3.576  11.053   3.858 -0.4837 -0.3116  1.0400
  589MOL0     H79460   3.667  10.935   4.059  1.6477  1.3370 -0.3261
  589MOL0     H79461   3.668  10.790   3.962 -1.2917  0.2257  1.5995
  589MOL0     H79462   3.817  11.056   3.899  0.1721  0.0388  0.6678
  589MOL0     H79463   3.836  10.904   3.807  3.3294  0.0895  0.6715
  589MOL0     H79464   3.902  10.942   4.096 -1.2804  0.9161 -0.7393
  589MOL0     H79465   3.948  10.800   3.988 -0.1539 -0.4298 -1.3367
  589MOL0     H79466   4.071  11.137   4.094 -2.8156  0.4574 -2.7330
  589MOL0     H79467   4.444  11.156   3.943  0.4238  4.1438  0.7100
  589MOL0     H79468   4.336  11.263   4.041  3.7106  1.3442 -0.2835
  589MOL0     H79469   4.451  11.183   4.204  1.2054 -0.5904 -0.1795
  589MOL0     H79470   4.308  11.084   4.202  0.0621  0.7712 -2.0805
  589MOL0     H79471   4.468  10.907   4.070 -0.0186 -3.2644  2.8181
  589MOL0     H79472   4.498  10.917   4.230 -1.9666  0.7598 -0.0966
  589MOL0     H79473   4.663  11.069   4.029 -0.7052  1.1963 -0.3267
  589MOL0     H79474   4.702  10.936   4.150  1.7124  0.5572 -0.0594
  589MOL0     H79475   4.803  11.304   4.068  0.5668 -0.4829 -0.9754
  589MOL0     H79476   5.049  11.333   4.045 -0.8235 -2.1813 -2.8495
  589MOL0     H79477   5.504  11.262   4.080 -1.5965 -0.4868  0.6045
  589MOL0     H79478   5.753  11.242   4.117  0.5758 -0.3988 -0.3795
  589MOL0     H79479   5.896  10.967   4.451 -1.6299 -2.7514 -1.5531
  589MOL0     H79480   5.916  10.928   4.280  2.0835  0.3792 -1.1441
  589MOL0     H79481   6.148  10.934   4.371 -0.6580 -0.5739  0.3633
  589MOL0     H79482   6.107  11.051   4.250 -1.8111  0.9956  0.2194
  589MOL0     H79483   6.094  11.228   4.441  0.8994  0.3062 -1.8631
  589MOL0     H79484   6.099  11.090   4.548 -1.3714  0.6982 -0.3477
  589MOL0     H79485   6.308  11.177   4.341 -3.5204 -0.4683 -1.2075
  589MOL0     H79486   6.331  11.047   4.465 -0.1115 -0.5338 -0.2738
  589MOL0     H79487   6.331  11.209   4.642 -0.4153 -2.5775 -1.2076
  589MOL0     H79488   6.311  11.342   4.532  1.2373  0.7842  3.5956
  589MOL0     H79489   6.555  11.283   4.631  0.5866  0.1115  1.1954
  589MOL0     H79490   6.550  11.151   4.514 -2.2185 -0.9030  0.0358
  589MOL0     H79491   6.507  11.350   4.327  3.3037  0.2720 -1.2374
  589MOL0     H79492   6.659  11.325   4.405  0.4674 -0.1460  0.1648
  589MOL0     H79493   6.462  11.545   4.423 -0.1215  0.5825 -0.2265
  589MOL0     H79494   6.514  11.497   4.588  1.5409  1.4351  1.2145
  589MOL0     H79495   5.690  11.035   4.478 -0.3392 -2.6100 -0.1960
  589MOL0     H79496   5.448  11.046   4.451 -0.2405 -2.3126 -1.1357
  589MOL0     H79497   5.119  11.028   4.332  1.4707  2.2554 -0.3190
  589MOL0     H79498   4.877  11.000   4.360  0.1771 -0.6456 -0.7891
  589MOL0     H79499   2.870  10.985   3.629  0.5917  1.2619  0.9506
  589MOL0     H79500   2.634  10.936   3.606  1.1560 -1.0636 -0.5622
  589MOL0     H79501   2.252  10.565   3.753 -4.5565 -2.5552 -0.1867
  589MOL0     H79502   2.025  10.542   3.743  1.4249 -1.3119 -0.3193
  589MOL0     H79503   1.769  10.888   3.598 -3.0651  0.7069 -0.9737
  589MOL0     H79504   1.763  10.894   3.781  2.2905  1.6863 -2.2161
  589MOL0     H79505   1.598  10.710   3.586 -1.7809 -0.1214 -0.3589
  589MOL0     H79506   1.544  10.868   3.656 -0.6089 -0.7840  1.8811
  589MOL0     H79507   1.552  10.774   3.882 -3.3573  0.0170 -0.9763
  589MOL0     H79508   1.617  10.621   3.819  1.3308  0.2662 -0.5844
  589MOL0     H79509   1.351  10.770   3.734 -0.4343  0.3077 -1.7530
  589MOL0     H79510   1.397  10.601   3.686  0.5727 -2.0120  1.8160
  589MOL0     H79511   1.255  10.515   4.072 -0.0158 -0.3096 -0.9578
  589MOL0     H79512   1.960  10.964   3.674 -0.1094 -0.1838 -0.5909
  589MOL0     H79513   2.229  11.102   3.765 -0.9402 -1.7422  1.0227
  589MOL0     H79514   2.315  11.052   3.617  1.3672 -0.2370  1.4319
  589MOL0     H79515   2.141  11.099   3.621 -0.7981 -1.1682  0.3206
  590MOL0     O79516   5.230   2.937   7.770  0.1903 -1.0360 -0.3452
  590MOL0     C79517   5.185   2.849   7.698 -0.7398  0.3220 -0.0830
  590MOL0     O79518   5.251   2.731   7.683  0.1765  0.5101  0.3073
  590MOL0     C79519   5.373   2.725   7.740  1.4967 -0.4465  0.6209
  590MOL0     C79520   5.387   2.629   7.841 -0.0385 -0.9230 -0.1566
  590MOL0     C79521   5.509   2.591   7.889  0.0670 -1.0902 -0.3828
  590MOL0     C79522   5.623   2.654   7.837  0.3635 -0.5594 -0.3057
  590MOL0     O79523   5.759   2.636   7.871 -0.0914 -0.0420 -0.1735
  590MOL0     C79524   5.780   2.603   8.005  0.0262  0.9434 -0.2232
  590MOL0     C79525   5.913   2.646   8.049  0.2700  0.6598  0.5290
  590MOL0     C79526   5.897   2.790   8.088 -0.6794 -0.1617 -0.5204
  590MOL0     C79527   6.027   2.844   8.157  0.1154 -0.0965  0.0974
  590MOL0     C79528   6.026   2.991   8.201 -0.2309 -0.3972 -0.1548
  590MOL0     C79529   6.135   3.036   8.301  0.5266  0.6534  0.5073
  590MOL0     C79530   6.263   3.074   8.224 -1.0448  0.4932  0.0413
  590MOL0     C79531   6.361   3.124   8.326 -0.8845 -0.3265  0.0997
  590MOL0     N79532   6.491   3.068   8.333  0.4720  0.0334 -0.4775
  590MOL0     C79533   6.603   3.110   8.266 -0.4917  0.0649 -0.0131
  590MOL0     C79534   6.704   3.040   8.319  0.0819  0.3286  0.7230
  590MOL0     C79535   6.852   3.056   8.294 -1.0487  0.6266 -0.1740
  590MOL0     C79536   6.923   2.929   8.243  0.0894 -0.6660  0.4695
  590MOL0     C79537   7.073   2.920   8.266 -0.0273 -0.2488  0.3387
  590MOL0     C79538   7.129   2.786   8.196 -0.0073 -0.6343  0.3349
  590MOL0     O79539   7.237   2.727   8.265 -0.0120  0.1492  0.0086
  590MOL0     C79540   7.370   2.762   8.232 -0.3489 -0.4816 -0.0099
  590MOL0     C79541   7.435   2.864   8.296 -0.3744  0.1584 -0.1100
  590MOL0     C79542   7.567   2.891   8.263 -0.3119 -0.3669 -0.2367
  590MOL0     C79543   7.635   2.814   8.156  0.2152 -0.3527  0.1465
  590MOL0     C79544   7.770   2.853   8.110 -0.1207  0.2069 -0.0957
  590MOL0     O79545   7.818   2.974   8.138  0.5760 -0.3576 -0.0536
  590MOL0     C79546   7.958   2.997   8.146  0.0081 -0.5679 -0.0536
  590MOL0     C79547   8.038   3.021   8.035 -0.1365 -0.3646 -0.4151
  590MOL0     C79548   8.176   3.055   8.059 -0.1932 -0.1465 -0.4444
  590MOL0     C79549   8.230   3.066   8.191  0.0494 -0.1927 -0.4983
  590MOL0     O79550   8.363   3.082   8.228 -1.0684  0.4068 -0.3771
  590MOL0     C79551   8.454   3.105   8.111  0.0633 -0.0243 -1.0744
  590MOL0     C79552   8.592   3.128   8.177  1.0325  0.4054 -0.2707
  590MOL0     C79553   8.712   3.151   8.081  0.3070 -0.3974  0.4396
  590MOL0     C79554   8.740   3.024   7.999  0.3249 -0.2985 -0.0325
  590MOL0     C79555   8.882   3.033   7.944  0.2425 -0.6490  0.1169
  590MOL0     C79556   8.920   2.910   7.856 -0.6309  0.5496 -0.3743
  590MOL0     C79557   9.060   2.899   7.803 -0.1724 -0.0850 -0.6949
  590MOL0     C79558   9.091   2.756   7.743  0.6967  0.6581 -0.8700
  590MOL0    Cl79559   9.236   2.752   7.658  0.4541  0.4547  0.0827
  590MOL0     C79560   8.143   3.043   8.301 -1.1465 -0.2027  0.4937
  590MOL0     C79561   8.017   3.009   8.274 -0.5332 -0.3932  1.1629
  590MOL0     O79562   7.833   2.759   8.062 -0.1870 -0.1402  0.0840
  590MOL0     C79563   7.563   2.717   8.092 -0.2141  0.2857 -0.1773
  590MOL0     C79564   7.436   2.686   8.132  0.4232 -0.2020  0.4585
  590MOL0     N79565   6.649   2.951   8.407  0.1788  0.0365  0.0702
  590MOL0     N79566   6.522   2.977   8.426 -0.0054 -0.0066  0.9730
  590MOL0     C79567   5.604   2.759   7.748 -0.5473  1.1183 -0.4244
  590MOL0     C79568   5.485   2.797   7.703  0.4026  0.4216 -0.0362
  590MOL0     C79569   5.047   2.849   7.648  0.0527  0.3214  0.2345
  590MOL0     C79570   4.973   2.731   7.662 -0.5912  0.6321  0.8645
  590MOL0     C79571   4.841   2.716   7.612 -0.3354  0.3050 -0.0216
  590MOL0     C79572   4.772   2.830   7.569  0.0848 -0.0316 -0.0445
  590MOL0     O79573   4.644   2.837   7.513 -0.5300 -0.2344  0.2686
  590MOL0     C79574   4.593   2.704   7.470  0.7247 -0.6417 -0.6912
  590MOL0     C79575   4.477   2.644   7.565 -0.3913 -0.3973  0.0994
  590MOL0     C79576   4.379   2.757   7.593  0.1052 -0.3458 -0.2820
  590MOL0     C79577   4.260   2.706   7.682 -0.5434 -0.2097  0.1040
  590MOL0     C79578   4.292   2.616   7.795 -0.3729  0.6180 -0.0940
  590MOL0     C79579   4.309   2.542   7.889 -0.2828  0.3637 -0.4847
  590MOL0     C79580   4.842   2.955   7.565  0.1018 -0.0593  0.1667
  590MOL0     C79581   4.977   2.966   7.598  0.8029 -0.6908 -0.1223
  590MOL0     C79582   5.029   3.109   7.589 -0.1798  0.1076  0.0795
  590MOL0     H79583   5.300   2.585   7.888 -0.2330  0.6494  1.0378
  590MOL0     H79584   5.509   2.514   7.965  1.2111 -2.5170 -1.7723
  590MOL0     H79585   5.704   2.650   8.068 -2.0644 -0.0636 -1.8744
  590MOL0     H79586   5.770   2.496   8.020  0.5296  0.8671 -0.4150
  590MOL0     H79587   5.991   2.625   7.976  1.2594 -0.9890  1.9655
  590MOL0     H79588   5.938   2.601   8.146 -1.6599 -0.2275  0.6630
  590MOL0     H79589   5.805   2.803   8.146 -1.1034  0.5829 -1.3394
  590MOL0     H79590   5.903   2.836   7.989  2.4080  1.2906  0.2082
  590MOL0     H79591   6.050   2.782   8.244 -1.9018 -1.5140 -0.3123
  590MOL0     H79592   6.101   2.824   8.080 -1.6488  0.2413 -1.7712
  590MOL0     H79593   6.028   3.051   8.109 -0.2578 -1.6226 -0.9744
  590MOL0     H79594   5.930   3.008   8.251 -0.3590 -1.3023 -0.0837
  590MOL0     H79595   6.103   3.130   8.348  2.9320  0.1604  3.4692
  590MOL0     H79596   6.157   2.966   8.383  1.3491  0.2652 -0.0317
  590MOL0     H79597   6.244   3.146   8.144  2.0952 -0.1143 -1.4181
  590MOL0     H79598   6.298   2.988   8.166 -0.6853  1.6441 -1.4926
  590MOL0     H79599   6.369   3.233   8.312 -0.7067 -0.2193  0.9440
  590MOL0     H79600   6.315   3.108   8.424 -1.5680 -0.6397 -0.2695
  590MOL0     H79601   6.619   3.179   8.184 -0.9070 -0.6710 -0.7261
  590MOL0     H79602   6.864   3.135   8.219  1.4821 -1.2744 -1.9416
  590MOL0     H79603   6.905   3.085   8.386 -0.2447 -2.0035  0.2666
  590MOL0     H79604   6.877   2.842   8.290 -0.6073 -1.6276 -1.8514
  590MOL0     H79605   6.902   2.921   8.136  0.2338 -2.3530  0.5486
  590MOL0     H79606   7.092   2.920   8.374  3.1845 -0.3700 -0.1356
  590MOL0     H79607   7.114   3.010   8.218 -2.0576 -0.3037 -1.6800
  590MOL0     H79608   7.150   2.807   8.091  0.2035 -3.9464 -0.3865
  590MOL0     H79609   7.041   2.721   8.187 -0.4862  0.2852 -3.0719
  590MOL0     H79610   7.386   2.920   8.375 -2.2560 -0.1456 -0.9884
  590MOL0     H79611   7.622   2.968   8.315 -1.5722  0.6617 -0.4008
  590MOL0     H79612   7.996   3.007   7.935 -1.8217 -0.2394  0.2398
  590MOL0     H79613   8.236   3.063   7.969 -1.7754  0.0230 -1.5139
  590MOL0     H79614   8.460   3.022   8.039  0.7050  0.7520 -1.9379
  590MOL0     H79615   8.419   3.193   8.057  0.7682 -0.3471 -2.0911
  590MOL0     H79616   8.599   3.203   8.257 -0.4303  1.2633 -0.9073
  590MOL0     H79617   8.615   3.037   8.233 -0.6474  0.2526  0.2363
  590MOL0     H79618   8.709   3.239   8.015  1.2674  0.3214  1.3295
  590MOL0     H79619   8.797   3.175   8.145 -0.1230 -2.8454  2.0600
  590MOL0     H79620   8.656   3.012   7.930 -1.2721 -1.0614  1.9451
  590MOL0     H79621   8.740   2.932   8.057  0.0759  0.5667  1.4000
  590MOL0     H79622   8.953   3.034   8.028  1.3603 -0.1748 -0.8103
  590MOL0     H79623   8.901   3.117   7.876  2.9330 -0.8159  0.5676
  590MOL0     H79624   8.909   2.826   7.924  1.5595 -0.7636 -1.5244
  590MOL0     H79625   8.848   2.910   7.773 -0.8417 -0.0017 -0.1913
  590MOL0     H79626   9.128   2.916   7.888 -2.3324 -0.3736  1.1805
  590MOL0     H79627   9.080   2.976   7.728  0.1007  1.1705  0.6117
  590MOL0     H79628   9.081   2.682   7.823 -0.6321  1.0084 -0.6762
  590MOL0     H79629   9.018   2.730   7.666  0.1562 -1.0048  0.1536
  590MOL0     H79630   8.182   3.050   8.402  1.9641 -4.5018 -0.1493
  590MOL0     H79631   7.950   2.997   8.359 -1.4831  1.3929  0.7224
  590MOL0     H79632   7.606   2.656   8.013  0.0824  0.8914 -0.4943
  590MOL0     H79633   7.381   2.619   8.066  0.7920  2.0531 -2.3438
  590MOL0     H79634   5.673   2.824   7.695 -0.1052 -0.9079 -2.5067
  590MOL0     H79635   5.465   2.876   7.631  1.8966  0.2508 -0.6563
  590MOL0     H79636   5.021   2.643   7.702 -0.4697  0.5803  0.6101
  590MOL0     H79637   4.793   2.618   7.610 -2.0207  1.0768  0.5361
  590MOL0     H79638   4.670   2.627   7.467  2.9752  1.2979  1.6005
  590MOL0     H79639   4.550   2.706   7.369  1.4578 -3.1728 -1.1124
  590MOL0     H79640   4.520   2.599   7.655  2.2475 -3.4259 -2.4391
  590MOL0     H79641   4.428   2.561   7.515  0.0137  0.1674 -1.2933
  590MOL0     H79642   4.334   2.798   7.502  1.1078  1.2415 -0.1008
  590MOL0     H79643   4.424   2.848   7.635 -4.3914  2.2279 -0.3476
  590MOL0     H79644   4.208   2.796   7.718  1.4312  1.5311 -1.1517
  590MOL0     H79645   4.185   2.666   7.613 -2.6945  2.4285  0.7294
  590MOL0     H79646   4.307   2.459   7.956  1.1828 -0.9350 -1.9600
  590MOL0     H79647   4.789   3.049   7.552  0.4469  0.1824  0.5007
  590MOL0     H79648   5.117   3.107   7.523  0.0975 -1.5950  0.4583
  590MOL0     H79649   4.958   3.184   7.552  0.5553  0.0439 -1.5684
  590MOL0     H79650   5.058   3.148   7.687 -0.1588  1.7400 -0.5409
  591MOL0     O79651   3.709   8.909   4.345 -0.0262  1.1420  0.0947
  591MOL0     C79652   3.629   9.000   4.342 -0.8162  0.5143  0.0059
  591MOL0     O79653   3.626   9.097   4.433  0.1918  0.0306  0.1087
  591MOL0     C79654   3.732   9.132   4.509  0.1665 -0.2379  0.4777
  591MOL0     C79655   3.718   9.157   4.646  0.8043  0.1757 -0.2960
  591MOL0     C79656   3.826   9.196   4.721 -0.9005 -0.7822  0.1987
  591MOL0     C79657   3.947   9.229   4.660 -0.2178  0.4333  1.9739
  591MOL0     O79658   4.046   9.275   4.739  0.7120 -0.0654  0.4307
  591MOL0     C79659   4.176   9.311   4.688  0.1027  0.6279 -0.0647
  591MOL0     C79660   4.261   9.390   4.792  0.3622  0.4464 -0.5736
  591MOL0     C79661   4.400   9.425   4.751  0.3503 -0.2907 -0.5356
  591MOL0     C79662   4.482   9.506   4.847  0.0074 -0.1462 -0.1629
  591MOL0     C79663   4.605   9.548   4.776 -0.1646 -0.4781  0.7698
  591MOL0     C79664   4.692   9.616   4.877 -0.1409 -0.2951 -0.0694
  591MOL0     C79665   4.830   9.646   4.813  0.3979  0.3778  0.5729
  591MOL0     C79666   4.926   9.711   4.912  0.4438  1.2022  0.0747
  591MOL0     N79667   5.048   9.756   4.848 -0.3352 -0.8888  0.7030
  591MOL0     C79668   5.063   9.873   4.779  0.9267 -0.3438  0.0402
  591MOL0     C79669   5.190   9.881   4.737  0.2786  1.2219  0.1246
  591MOL0     C79670   5.249   9.969   4.634 -0.3649 -0.8733 -0.4857
  591MOL0     C79671   5.396   9.977   4.649 -0.3239  0.0235 -0.2494
  591MOL0     C79672   5.477   9.868   4.579 -0.1275 -0.2751  0.5008
  591MOL0     C79673   5.628   9.900   4.594 -0.0557  0.4629 -0.0842
  591MOL0     O79674   5.694   9.787   4.544 -0.0504  0.7167  1.5615
  591MOL0     C79675   5.826   9.759   4.554  0.0284  0.5062 -0.1090
  591MOL0     C79676   5.916   9.850   4.597 -0.8749 -0.2172  0.5911
  591MOL0     C79677   6.052   9.813   4.606 -0.3458  0.4571  0.2539
  591MOL0     C79678   6.092   9.682   4.563  0.6410 -0.0549 -0.2892
  591MOL0     C79679   6.229   9.632   4.576  0.6372  0.0062 -0.0940
  591MOL0     O79680   6.323   9.724   4.574  0.1050 -0.0445 -0.0858
  591MOL0     C79681   6.448   9.699   4.627  0.2066 -0.7900  0.4798
  591MOL0     C79682   6.495   9.789   4.725 -0.5221 -0.2522 -0.3860
  591MOL0     C79683   6.631   9.762   4.765  0.6306 -0.2146  0.2142
  591MOL0     C79684   6.715   9.662   4.716 -0.7611  0.5781 -0.3709
  591MOL0     O79685   6.836   9.638   4.775  0.4971  0.0277 -0.9286
  591MOL0     C79686   6.936   9.560   4.712 -0.1319 -0.3978 -0.0398
  591MOL0     C79687   7.054   9.542   4.806  0.6970 -0.5961  0.1246
  591MOL0     C79688   7.168   9.459   4.742  0.0552 -0.3005 -1.0715
  591MOL0     C79689   7.316   9.494   4.789 -0.1037  0.2173 -0.6995
  591MOL0     C79690   7.369   9.614   4.712 -0.4556 -0.1957 -1.2870
  591MOL0     C79691   7.521   9.630   4.752  0.3159 -0.1535  0.4973
  591MOL0     C79692   7.614   9.541   4.665  0.0500  0.1229 -0.0933
  591MOL0     C79693   7.759   9.569   4.712 -0.1718 -0.1346 -0.3620
  591MOL0    Cl79694   7.816   9.717   4.628 -0.6747 -0.1142 -0.1587
  591MOL0     C79695   6.668   9.594   4.601 -0.1891  0.0650 -0.3265
  591MOL0     C79696   6.535   9.618   4.553  0.0794  0.3222 -1.3661
  591MOL0     O79697   6.244   9.511   4.577 -0.1748 -0.2223 -0.5107
  591MOL0     C79698   5.990   9.599   4.514  0.1460  0.0601 -0.2324
  591MOL0     C79699   5.859   9.636   4.511 -0.7009  0.1254  0.1640
  591MOL0     N79700   5.260   9.770   4.785  0.2306 -0.0347  0.0911
  591MOL0     N79701   5.168   9.697   4.835 -0.3899 -0.1646 -0.4243
  591MOL0     C79702   3.963   9.204   4.517  0.6494  0.4195  0.1817
  591MOL0     C79703   3.859   9.151   4.444  0.2516 -0.2161 -0.4703
  591MOL0     C79704   3.529   9.007   4.236  1.0794 -0.5335  0.4893
  591MOL0     C79705   3.420   9.093   4.248 -0.4601 -0.9509  0.5594
  591MOL0     C79706   3.315   9.097   4.150 -0.1953  0.2881 -0.0024
  591MOL0     C79707   3.332   9.033   4.020  0.2414  0.2834 -0.5009
  591MOL0     O79708   3.238   9.037   3.920 -0.7144  0.3862 -0.4805
  591MOL0     C79709   3.163   9.161   3.892 -0.7900 -0.0770 -0.5079
  591MOL0     C79710   3.014   9.148   3.886  0.1562 -0.4752  0.1949
  591MOL0     C79711   2.964   9.120   4.026  1.0337  0.0209  0.1828
  591MOL0     C79712   2.809   9.140   4.029 -0.0851  0.8226  0.4635
  591MOL0     C79713   2.750   9.083   4.150 -0.7593 -0.0929 -0.1627
  591MOL0     C79714   2.715   9.029   4.256 -0.0146 -0.1815  0.2331
  591MOL0     C79715   3.438   8.947   4.011  0.0115  0.1156  0.3046
  591MOL0     C79716   3.539   8.932   4.114  0.3104  0.1862  1.0316
  591MOL0     C79717   3.650   8.825   4.083 -0.0089 -0.0817  0.3003
  591MOL0     H79718   3.619   9.137   4.687  1.2492  2.6676  2.3874
  591MOL0     H79719   3.814   9.208   4.828 -0.7606  0.3757  0.1029
  591MOL0     H79720   4.224   9.224   4.643  0.3996  1.7860 -2.1523
  591MOL0     H79721   4.166   9.383   4.606 -2.9371 -0.4040 -0.7546
  591MOL0     H79722   4.282   9.330   4.881 -1.1532 -0.7226 -0.9677
  591MOL0     H79723   4.217   9.486   4.820  1.8546  1.0494 -0.1647
  591MOL0     H79724   4.391   9.468   4.651 -0.8384 -0.5453 -0.5455
  591MOL0     H79725   4.446   9.325   4.743 -0.5527 -1.1694  3.1759
  591MOL0     H79726   4.425   9.598   4.867  1.5703  0.7418  0.3496
  591MOL0     H79727   4.498   9.451   4.940 -0.5294  2.1005  1.3460
  591MOL0     H79728   4.656   9.461   4.735 -0.2841 -0.2589  0.1537
  591MOL0     H79729   4.570   9.623   4.705 -0.3957 -0.7505  0.5967
  591MOL0     H79730   4.649   9.714   4.902 -1.6417 -0.2901 -2.4671
  591MOL0     H79731   4.711   9.560   4.969 -0.0218 -0.5808 -0.2673
  591MOL0     H79732   4.812   9.717   4.732 -1.1947 -1.5148 -0.8383
  591MOL0     H79733   4.878   9.554   4.780  0.9501  0.1515  1.9481
  591MOL0     H79734   4.873   9.791   4.964  0.5103  1.2013  0.1435
  591MOL0     H79735   4.956   9.638   4.988 -0.7503  0.7475  0.1454
  591MOL0     H79736   4.992   9.949   4.749 -0.7315 -0.4394  3.3113
  591MOL0     H79737   5.221   9.930   4.535 -0.0388 -0.5374 -0.7142
  591MOL0     H79738   5.213  10.072   4.643  1.6919 -0.0291 -1.2759
  591MOL0     H79739   5.422  10.067   4.592  0.5278  1.1011  1.7434
  591MOL0     H79740   5.418   9.993   4.755  2.7190  0.1626 -0.7951
  591MOL0     H79741   5.451   9.859   4.473 -3.1415  1.1323  1.0195
  591MOL0     H79742   5.468   9.774   4.635  0.4625  0.1259  1.2854
  591MOL0     H79743   5.654   9.921   4.698  1.0031  1.1928 -0.4863
  591MOL0     H79744   5.670   9.982   4.536  1.7786  1.2750  2.2611
  591MOL0     H79745   5.886   9.951   4.625  1.3263  1.1520 -1.6256
  591MOL0     H79746   6.128   9.868   4.660  0.4185 -0.8222  0.5167
  591MOL0     H79747   6.445   9.867   4.781 -0.9486 -1.6006  1.2095
  591MOL0     H79748   6.667   9.830   4.841 -0.4356  1.4222 -0.6892
  591MOL0     H79749   6.898   9.460   4.691  0.3250 -0.8385  1.1631
  591MOL0     H79750   6.968   9.612   4.621  0.0024 -0.4514 -0.0233
  591MOL0     H79751   7.091   9.643   4.827 -3.9556  1.6959 -1.4045
  591MOL0     H79752   7.014   9.497   4.898 -0.7403 -1.7453 -1.0260
  591MOL0     H79753   7.143   9.357   4.772 -0.9555  1.0401  3.3881
  591MOL0     H79754   7.157   9.464   4.633 -2.9503  0.8399 -0.8066
  591MOL0     H79755   7.378   9.410   4.757  0.3022  0.5421 -0.7738
  591MOL0     H79756   7.314   9.512   4.897  2.9463  0.1859 -0.5645
  591MOL0     H79757   7.306   9.702   4.728 -1.3706 -1.0966  0.3073
  591MOL0     H79758   7.357   9.585   4.607  0.2080  1.8957 -1.9914
  591MOL0     H79759   7.554   9.733   4.735 -1.6454  0.2087 -1.7169
  591MOL0     H79760   7.538   9.605   4.857  1.5108 -1.1018  0.0896
  591MOL0     H79761   7.603   9.547   4.557  3.9286 -0.5672 -0.6422
  591MOL0     H79762   7.590   9.437   4.688  0.8821  0.6370  3.8934
  591MOL0     H79763   7.763   9.583   4.820  0.7194  1.9081 -0.5962
  591MOL0     H79764   7.808   9.476   4.684  1.1664  0.3298  0.3640
  591MOL0     H79765   6.725   9.523   4.542 -1.1426 -1.9786  1.1457
  591MOL0     H79766   6.487   9.563   4.472 -2.5954 -3.0894  2.1953
  591MOL0     H79767   6.005   9.499   4.474 -2.4244  0.4960 -2.6298
  591MOL0     H79768   5.775   9.569   4.492 -2.0983  0.3364  4.4558
  591MOL0     H79769   4.056   9.233   4.469  1.2067  1.8076  1.9701
  591MOL0     H79770   3.860   9.123   4.339 -1.1952 -1.1527 -0.2536
  591MOL0     H79771   3.417   9.148   4.341  4.6827  0.9626 -0.0597
  591MOL0     H79772   3.222   9.148   4.172 -0.4778  0.0423 -0.5880
  591MOL0     H79773   3.194   9.193   3.792  2.3461 -0.8140  0.1163
  591MOL0     H79774   3.194   9.240   3.961  1.3639 -0.0697 -1.4062
  591MOL0     H79775   2.974   9.073   3.817  2.8943  0.3031 -2.4248
  591MOL0     H79776   2.975   9.247   3.863  0.6556 -0.2192  0.4453
  591MOL0     H79777   3.021   9.189   4.089  0.6571  1.7863 -1.3333
  591MOL0     H79778   3.001   9.019   4.043  0.8644 -0.2166 -0.8153
  591MOL0     H79779   2.775   9.240   4.002  0.8070  1.1690  0.6197
  591MOL0     H79780   2.760   9.080   3.952  0.3250  1.1033 -0.0135
  591MOL0     H79781   2.687   8.973   4.343 -2.5998 -1.3299 -1.2324
  591MOL0     H79782   3.453   8.886   3.923 -2.7233 -2.9396  1.7543
  591MOL0     H79783   3.612   8.747   4.015  0.8079 -0.6358  0.4661
  591MOL0     H79784   3.730   8.872   4.025 -0.2958  0.3951  0.2890
  591MOL0     H79785   3.703   8.770   4.161  0.0953 -1.0797 -0.4461
  592MOL0     O79786   0.218   0.225   9.105  0.7649 -0.2116  0.1629
  592MOL0     C79787   0.125   0.149   9.127  0.1936 -0.4780 -0.4600
  592MOL0     O79788   0.139   0.018   9.162 -0.2180  1.3434  0.1162
  592MOL0     C79789   0.264  -0.040   9.155  0.1192  1.1395  0.2698
  592MOL0     C79790   0.368  -0.012   9.247  0.0992  0.2224  0.8549
  592MOL0     C79791   0.486  -0.094   9.240  0.3906  0.4287 -0.0575
  592MOL0     C79792   0.508  -0.190   9.138 -0.2493  0.0676 -0.2391
  592MOL0     O79793   0.618  -0.258   9.104 -0.1729  0.4554 -0.5041
  592MOL0     C79794   0.746  -0.238   9.183  0.3889  0.3867 -0.3671
  592MOL0     C79795   0.857  -0.331   9.142 -0.6787  0.3901  0.6700
  592MOL0     C79796   1.000  -0.290   9.188 -0.1421 -0.1167 -0.3716
  592MOL0     C79797   1.112  -0.364   9.109  0.7828  0.5449 -0.6633
  592MOL0     C79798   1.243  -0.286   9.108 -0.4268  0.1305  0.5833
  592MOL0     C79799   1.357  -0.382   9.086  0.1263  0.9865 -0.1240
  592MOL0     C79800   1.483  -0.300   9.086 -0.1875  0.3791  0.3651
  592MOL0     C79801   1.602  -0.393   9.080 -0.1440 -0.4206  0.2460
  592MOL0     N79802   1.639  -0.418   8.940  0.1731  0.2937  0.2412
  592MOL0     C79803   1.700  -0.325   8.858  0.5755  0.8301  0.4963
  592MOL0     C79804   1.754  -0.398   8.762  0.1251  0.0544  1.3013
  592MOL0     C79805   1.854  -0.347   8.655  0.0145 -0.1832  0.3197
  592MOL0     C79806   2.007  -0.372   8.691  0.9290 -0.3988 -0.8764
  592MOL0     C79807   2.043  -0.518   8.700  0.2315 -0.8761  0.2082
  592MOL0     C79808   2.195  -0.527   8.696  0.6012  0.2040  0.0291
  592MOL0     O79809   2.239  -0.656   8.721 -0.6046  0.1863 -0.1524
  592MOL0     C79810   2.371  -0.697   8.701 -0.5257  0.3724 -0.1511
  592MOL0     C79811   2.409  -0.822   8.757  0.2282  0.1086  0.3475
  592MOL0     C79812   2.541  -0.864   8.748 -0.6447  1.1252 -0.4187
  592MOL0     C79813   2.637  -0.782   8.683  0.0058 -0.1644  0.0517
  592MOL0     C79814   2.776  -0.825   8.687 -0.4462 -0.2556 -0.2960
  592MOL0     O79815   2.808  -0.944   8.749  0.0243  0.1641 -0.1543
  592MOL0     C79816   2.933  -0.980   8.775 -0.4663  0.8190 -0.1394
  592MOL0     C79817   3.005  -1.080   8.707 -0.1771 -0.2143  0.4741
  592MOL0     C79818   3.143  -1.098   8.750  0.6162 -0.0713  0.1553
  592MOL0     C79819   3.198  -1.039   8.861  0.3741 -0.1851 -0.5133
  592MOL0     O79820   3.323  -1.053   8.918 -0.0773  0.0553 -0.2336
  592MOL0     C79821   3.400  -1.161   8.874  0.0129  0.1640  0.4157
  592MOL0     C79822   3.366  -1.306   8.910  0.0032  0.0232  0.6901
  592MOL0     C79823   3.372  -1.321   9.059 -0.6178 -0.1734  0.1101
  592MOL0     C79824   3.385  -1.465   9.118  0.1792 -0.4653  0.5047
  592MOL0     C79825   3.395  -1.464   9.268 -0.6284  0.1958  0.3508
  592MOL0     C79826   3.410  -1.604   9.329  0.0889  0.1425  0.0205
  592MOL0     C79827   3.413  -1.582   9.479  0.1565  0.2989  0.0680
  592MOL0     C79828   3.477  -1.702   9.555  0.1108 -0.3023 -0.1427
  592MOL0    Cl79829   3.485  -1.656   9.731  0.1159 -0.0406 -0.4130
  592MOL0     C79830   3.123  -0.938   8.928  0.1953  0.3888 -0.1157
  592MOL0     C79831   2.987  -0.914   8.884  0.1903  0.5242  0.4452
  592MOL0     O79832   2.860  -0.752   8.630  0.5044  0.0430 -0.3117
  592MOL0     C79833   2.598  -0.657   8.625  1.0280  0.1264  0.0265
  592MOL0     C79834   2.468  -0.617   8.642  0.2910 -0.2727 -0.3089
  592MOL0     N79835   1.703  -0.524   8.769  0.0822  0.3434  1.4068
  592MOL0     N79836   1.634  -0.535   8.875  0.1690 -0.2996 -0.6318
  592MOL0     C79837   0.400  -0.212   9.048 -0.1963 -0.6359 -0.1709
  592MOL0     C79838   0.280  -0.133   9.056  0.3954  0.2439  0.4587
  592MOL0     C79839  -0.008   0.208   9.140  0.4463  1.0171 -0.6714
  592MOL0     C79840  -0.111   0.114   9.190 -0.5469  0.5120  0.0845
  592MOL0     C79841  -0.239   0.165   9.212 -0.5293 -0.3042  0.0222
  592MOL0     C79842  -0.272   0.289   9.166 -0.4140  0.4485 -0.1174
  592MOL0     O79843  -0.405   0.326   9.153  0.2610  0.0748  0.0374
  592MOL0     C79844  -0.468   0.337   9.281  0.1508 -0.2236  0.2050
  592MOL0     C79845  -0.616   0.317   9.272 -0.7993  0.3327  0.4753
  592MOL0     C79846  -0.686   0.443   9.222 -0.3474 -0.3646 -0.5988
  592MOL0     C79847  -0.840   0.427   9.189 -0.1672 -0.1382  0.3584
  592MOL0     C79848  -0.891   0.564   9.187 -0.1365  0.6866  0.5073
  592MOL0     C79849  -0.945   0.669   9.176  0.2546 -0.1321  0.5022
  592MOL0     C79850  -0.172   0.373   9.114  0.4025  0.4974 -0.2791
  592MOL0     C79851  -0.048   0.335   9.100 -0.5177  0.6388 -0.1467
  592MOL0     C79852   0.043   0.431   9.025 -0.7989  0.8049 -0.1084
  592MOL0     H79853   0.353   0.058   9.329 -3.2823  0.7349 -0.0264
  592MOL0     H79854   0.566  -0.079   9.311 -0.1504  0.9229  0.4595
  592MOL0     H79855   0.793  -0.139   9.177  1.0070  0.0639 -0.9307
  592MOL0     H79856   0.716  -0.242   9.288 -0.1592 -0.3034 -0.5463
  592MOL0     H79857   0.851  -0.344   9.033 -1.2458 -2.7973  0.9989
  592MOL0     H79858   0.832  -0.435   9.164  2.1789 -0.6340 -0.5055
  592MOL0     H79859   1.001  -0.300   9.297 -2.6392 -2.5336 -0.4538
  592MOL0     H79860   1.004  -0.183   9.165 -1.0271  0.7602  2.9444
  592MOL0     H79861   1.119  -0.462   9.157 -1.1549  1.2330  1.1785
  592MOL0     H79862   1.076  -0.382   9.008  0.4090 -0.6707 -0.3337
  592MOL0     H79863   1.252  -0.206   9.034  1.0631 -0.4794  0.0649
  592MOL0     H79864   1.256  -0.244   9.208 -0.0179 -1.1511  1.0910
  592MOL0     H79865   1.364  -0.450   9.171  1.5894  0.5453 -0.5665
  592MOL0     H79866   1.339  -0.438   8.994  0.9605  1.6073 -0.6734
  592MOL0     H79867   1.487  -0.237   9.176 -0.0944 -0.2124  0.7833
  592MOL0     H79868   1.493  -0.232   9.001  0.0571 -0.9319 -0.6790
  592MOL0     H79869   1.690  -0.346   9.124 -0.3023  0.1192 -0.0029
  592MOL0     H79870   1.584  -0.487   9.134 -2.9015 -0.3834 -0.4747
  592MOL0     H79871   1.734  -0.223   8.872  2.6125  0.0262  1.7565
  592MOL0     H79872   1.828  -0.396   8.561  1.0063  1.8350 -1.0784
  592MOL0     H79873   1.843  -0.239   8.650  3.0814  0.3217  2.1108
  592MOL0     H79874   2.086  -0.327   8.630  0.7415  3.1622  1.2266
  592MOL0     H79875   2.019  -0.328   8.790 -1.3334  1.3068 -1.2845
  592MOL0     H79876   1.999  -0.587   8.627 -1.9206 -1.2492  1.7524
  592MOL0     H79877   2.017  -0.559   8.799  2.5967 -0.4607  1.0595
  592MOL0     H79878   2.235  -0.462   8.774  0.9319  0.0881 -0.0417
  592MOL0     H79879   2.233  -0.491   8.600  1.8287 -0.9942  0.0448
  592MOL0     H79880   2.345  -0.879   8.825 -0.1252  0.2985  0.1737
  592MOL0     H79881   2.577  -0.953   8.799  0.6226  1.5768 -0.4915
  592MOL0     H79882   2.977  -1.127   8.613  1.0235  2.3543 -1.2800
  592MOL0     H79883   3.201  -1.161   8.683  2.5245  2.2151 -0.4981
  592MOL0     H79884   3.424  -1.150   8.768  1.0825 -2.7233  0.2484
  592MOL0     H79885   3.505  -1.152   8.903  1.6216 -2.7769 -3.5402
  592MOL0     H79886   3.272  -1.332   8.862 -0.1036  2.0762 -0.2819
  592MOL0     H79887   3.457  -1.361   8.884 -0.8814 -2.3376  2.2146
  592MOL0     H79888   3.455  -1.259   9.095 -0.9459 -0.7211  1.9032
  592MOL0     H79889   3.280  -1.273   9.093 -1.2344 -0.2774 -1.3546
  592MOL0     H79890   3.462  -1.527   9.071 -0.2351  1.7451 -3.5188
  592MOL0     H79891   3.289  -1.513   9.094 -0.8006  0.9013  1.5352
  592MOL0     H79892   3.309  -1.417   9.316 -1.6060 -1.6883  0.5317
  592MOL0     H79893   3.478  -1.400   9.299 -0.0370 -0.7783  0.8188
  592MOL0     H79894   3.331  -1.670   9.291 -2.0910  3.2923 -1.3361
  592MOL0     H79895   3.505  -1.644   9.292 -0.3199 -0.8001 -0.0495
  592MOL0     H79896   3.310  -1.573   9.515 -0.1112 -0.2593 -0.5432
  592MOL0     H79897   3.476  -1.496   9.505  1.8474 -0.5809 -0.9601
  592MOL0     H79898   3.416  -1.792   9.544 -0.4213  0.1524 -1.0252
  592MOL0     H79899   3.578  -1.728   9.522 -0.2144 -2.0798  0.1728
  592MOL0     H79900   3.165  -0.869   9.001 -2.1942  0.8532  0.8861
  592MOL0     H79901   2.925  -0.840   8.935 -0.9431  0.0006 -0.1341
  592MOL0     H79902   2.663  -0.599   8.560 -0.5406  1.4760 -0.3813
  592MOL0     H79903   2.441  -0.519   8.605  0.8284  1.5212  3.5446
  592MOL0     H79904   0.413  -0.286   8.970  0.9935  0.0559 -0.6484
  592MOL0     H79905   0.204  -0.157   8.982  0.2941  1.8443  0.0066
  592MOL0     H79906  -0.083   0.019   9.235 -1.0324  0.1866 -0.2836
  592MOL0     H79907  -0.318   0.103   9.254 -0.7267 -0.1925 -0.1865
  592MOL0     H79908  -0.451   0.439   9.318  0.3192 -1.2458  3.1824
  592MOL0     H79909  -0.440   0.264   9.357 -0.4762 -0.2562  0.4074
  592MOL0     H79910  -0.644   0.307   9.377  0.5880  0.8995  0.9147
  592MOL0     H79911  -0.634   0.223   9.219 -0.3452 -0.2113  1.2742
  592MOL0     H79912  -0.622   0.483   9.143  1.4354 -0.4569  0.7391
  592MOL0     H79913  -0.683   0.521   9.299 -0.8987  1.0538 -1.9550
  592MOL0     H79914  -0.842   0.386   9.087 -0.0020  2.8301 -0.9685
  592MOL0     H79915  -0.884   0.368   9.269  1.4038  0.6597  1.8933
  592MOL0     H79916  -0.983   0.769   9.169  1.4963  0.3094 -0.2090
  592MOL0     H79917  -0.211   0.468   9.080 -0.6454 -0.0256 -0.5601
  592MOL0     H79918   0.086   0.387   8.935 -0.7080  1.1194 -0.2188
  592MOL0     H79919  -0.013   0.522   9.003 -0.9039  0.9633  0.7577
  592MOL0     H79920   0.123   0.473   9.087 -1.1790 -1.1313  1.8271
  593MOL0     O79921   6.597   3.310   8.563  0.5099 -0.1048 -0.1643
  593MOL0     C79922   6.553   3.236   8.652 -0.3959  0.3437 -0.8420
  593MOL0     O79923   6.624   3.156   8.730  1.0672 -0.1846 -0.0215
  593MOL0     C79924   6.755   3.124   8.707  0.0008 -0.2696 -0.1078
  593MOL0     C79925   6.786   2.990   8.685 -0.1585 -0.4645 -0.7245
  593MOL0     C79926   6.916   2.951   8.672  0.5017 -0.0355  0.7181
  593MOL0     C79927   7.022   3.043   8.670  0.6291 -0.3735  0.2565
  593MOL0     O79928   7.145   2.988   8.670 -0.1834  0.1510 -0.4236
  593MOL0     C79929   7.238   3.034   8.771  0.1944  0.6548 -0.8679
  593MOL0     C79930   7.355   2.930   8.800 -0.0322 -0.1972  0.2103
  593MOL0     C79931   7.477   2.963   8.708  0.1663  0.4705  0.4984
  593MOL0     C79932   7.590   2.859   8.732  0.5659 -0.7062 -0.4133
  593MOL0     C79933   7.724   2.921   8.684 -0.5895 -0.3048  0.4060
  593MOL0     C79934   7.832   2.812   8.701 -0.7171 -0.2854  0.3833
  593MOL0     C79935   7.969   2.868   8.649  0.6900 -0.5658  0.0361
  593MOL0     C79936   8.090   2.838   8.745  0.4012 -0.6298  0.1531
  593MOL0     N79937   8.208   2.922   8.717  0.3753 -0.6150 -0.7343
  593MOL0     C79938   8.314   2.901   8.632 -0.7395 -0.3007 -0.4098
  593MOL0     C79939   8.389   3.015   8.626 -0.0885 -0.2030 -0.7572
  593MOL0     C79940   8.523   3.030   8.559  0.6137  0.6995  0.3047
  593MOL0     C79941   8.641   2.940   8.606  0.2509 -0.2133  0.0657
  593MOL0     C79942   8.719   2.999   8.735  0.2412  0.0826  0.2006
  593MOL0     C79943   8.869   2.966   8.723 -0.7319 -0.1218  0.2881
  593MOL0     O79944   8.896   2.829   8.704 -0.2113 -0.3758 -0.6006
  593MOL0     C79945   9.027   2.778   8.680 -0.1673  0.3934  1.1440
  593MOL0     C79946   9.040   2.652   8.608 -0.4511 -0.1890  0.0507
  593MOL0     C79947   9.168   2.607   8.574  0.1176 -0.3178 -0.2033
  593MOL0     C79948   9.287   2.680   8.597 -0.3249  0.7224 -0.7712
  593MOL0     C79949   9.411   2.629   8.544  0.1455  0.5860  0.0068
  593MOL0     O79950   9.519   2.715   8.539  0.2405 -0.9958  0.4504
  593MOL0     C79951   9.639   2.679   8.479 -0.8070  0.6772 -0.3369
  593MOL0     C79952   9.664   2.578   8.377  0.2616  0.1950 -0.2666
  593MOL0     C79953   9.794   2.558   8.332 -0.6659  0.0395  0.1385
  593MOL0     C79954   9.903   2.622   8.382 -1.0522 -0.1953  0.8035
  593MOL0     O79955  10.024   2.602   8.329 -0.5941 -0.1396  0.1096
  593MOL0     C79956  10.140   2.677   8.359  0.1770  0.3985  0.6739
  593MOL0     C79957  10.259   2.630   8.268 -0.3405 -0.0487 -0.1294
  593MOL0     C79958  10.214   2.630   8.119 -0.9031 -0.2664 -0.4121
  593MOL0     C79959  10.336   2.658   8.032 -0.0315 -0.3199  0.3910
  593MOL0     C79960  10.283   2.715   7.902  0.4452  0.4335  0.0520
  593MOL0     C79961  10.379   2.691   7.788 -0.4175  0.4013 -0.0213
  593MOL0     C79962  10.515   2.756   7.805  0.4177 -0.1006  0.1844
  593MOL0     C79963  10.600   2.750   7.672  0.1932 -0.4689 -0.3940
  593MOL0    Cl79964  10.754   2.829   7.694 -0.2124 -0.1270 -0.2768
  593MOL0     C79965   9.887   2.722   8.482 -0.1466 -0.3916 -0.0564
  593MOL0     C79966   9.752   2.751   8.526  0.8383 -0.2085  0.1385
  593MOL0     O79967   9.414   2.516   8.508  0.0941 -0.3892  0.9585
  593MOL0     C79968   9.271   2.803   8.664 -0.0463  0.4269 -0.1012
  593MOL0     C79969   9.144   2.854   8.704 -0.5538 -0.0591  1.2037
  593MOL0     N79970   8.318   3.106   8.704  0.1764  0.4113 -1.0875
  593MOL0     N79971   8.216   3.050   8.753  0.5226  0.2181 -0.2228
  593MOL0     C79972   7.002   3.174   8.700 -0.4513  0.0417 -0.0556
  593MOL0     C79973   6.863   3.216   8.715 -0.8816 -0.6373 -0.8036
  593MOL0     C79974   6.405   3.226   8.664  0.4161  0.1477  0.4136
  593MOL0     C79975   6.364   3.109   8.728  0.1184  0.4185 -0.7459
  593MOL0     C79976   6.231   3.093   8.736  0.1532  0.3808 -0.9543
  593MOL0     C79977   6.136   3.179   8.687 -0.1704  0.2171  0.8031
  593MOL0     O79978   6.009   3.128   8.692  0.6215  0.1357 -0.1059
  593MOL0     C79979   5.950   3.146   8.820 -0.1579 -0.0991 -0.3216
  593MOL0     C79980   5.928   3.013   8.899 -0.1712  0.3329  0.3518
  593MOL0     C79981   5.848   3.054   9.021  0.4219 -0.6256  0.1239
  593MOL0     C79982   5.820   2.942   9.122 -0.8518  0.0773 -0.2894
  593MOL0     C79983   5.752   2.999   9.241  0.2142 -0.0398  0.3757
  593MOL0     C79984   5.715   3.043   9.348 -0.3936  0.7500  1.0361
  593MOL0     C79985   6.172   3.300   8.623 -0.0728 -0.0041  0.0897
  593MOL0     C79986   6.311   3.327   8.620 -0.2390  0.0664  0.8689
  593MOL0     C79987   6.336   3.456   8.545 -0.7886 -0.2693 -0.4682
  593MOL0     H79988   6.709   2.915   8.679  0.0689 -0.5725 -2.9683
  593MOL0     H79989   6.945   2.849   8.652  1.1165  0.7064 -2.7003
  593MOL0     H79990   7.293   3.123   8.740  0.5335  1.0902  0.8875
  593MOL0     H79991   7.196   3.052   8.870  3.5320 -0.6978  0.9319
  593MOL0     H79992   7.309   2.832   8.790 -0.7475 -0.2366  3.1039
  593MOL0     H79993   7.395   2.953   8.899  1.4841 -1.8615  0.0409
  593MOL0     H79994   7.513   3.065   8.718 -0.4419  0.6956  0.4557
  593MOL0     H79995   7.439   2.965   8.605 -1.5941 -2.3393  0.9807
  593MOL0     H79996   7.596   2.844   8.840 -0.1734 -0.7246 -0.3686
  593MOL0     H79997   7.565   2.766   8.681  0.0380 -1.0091  0.3749
  593MOL0     H79998   7.726   2.955   8.580 -0.3378 -2.3996 -0.3405
  593MOL0     H79999   7.754   3.004   8.748 -0.8574 -1.2139  1.7316
  593MOL0     H80000   7.847   2.788   8.806  0.7975 -2.3153 -0.2510
  593MOL0     H80001   7.800   2.726   8.642 -0.1724  1.3086 -2.4732
  593MOL0     H80002   7.964   2.976   8.632 -1.0921 -1.2265 -5.5335
  593MOL0     H80003   7.974   2.833   8.546 -1.1506 -0.0479 -0.2622
  593MOL0     H80004   8.049   2.860   8.845  1.4799  0.4187  0.3939
  593MOL0     H80005   8.112   2.731   8.743  4.6190  0.0754 -1.9574
  593MOL0     H80006   8.330   2.811   8.571 -0.3779  1.1418 -2.5687
  593MOL0     H80007   8.493   3.007   8.456 -0.0999  1.3032  0.3632
  593MOL0     H80008   8.555   3.134   8.555  3.4487 -0.1131 -2.8678
  593MOL0     H80009   8.614   2.834   8.621 -1.4030  0.1362 -0.2164
  593MOL0     H80010   8.708   2.945   8.520  0.7782 -0.5564  0.4480
  593MOL0     H80011   8.683   2.946   8.823  1.5697  2.5413  2.3556
  593MOL0     H80012   8.704   3.106   8.750 -0.2959  0.5240 -2.7446
  593MOL0     H80013   8.929   3.000   8.808 -0.2143 -3.1065  1.2599
  593MOL0     H80014   8.902   3.016   8.632 -1.7341  2.7231  1.3829
  593MOL0     H80015   8.962   2.581   8.581  1.6692 -3.5231  1.8932
  593MOL0     H80016   9.176   2.512   8.522  0.0949 -0.3037 -0.2323
  593MOL0     H80017   9.577   2.528   8.337 -0.7792  2.1110 -0.5213
  593MOL0     H80018   9.821   2.480   8.261  2.3044  0.1683  1.0210
  593MOL0     H80019  10.127   2.785   8.345  1.3874  0.8170  2.4138
  593MOL0     H80020  10.171   2.655   8.462 -2.0623  2.4046  1.8713
  593MOL0     H80021  10.340   2.700   8.285  1.0782 -2.0260  1.8571
  593MOL0     H80022  10.282   2.531   8.310 -2.1594 -0.6727 -0.5195
  593MOL0     H80023  10.165   2.533   8.104  0.2534 -0.5862 -2.4503
  593MOL0     H80024  10.136   2.707   8.115 -1.6884 -1.0041  0.2650
  593MOL0     H80025  10.389   2.563   8.022 -3.2228 -2.3173  1.1315
  593MOL0     H80026  10.405   2.729   8.078  1.4305 -0.0854 -1.9934
  593MOL0     H80027  10.255   2.821   7.912 -2.8458 -0.1657 -1.3621
  593MOL0     H80028  10.184   2.675   7.875  0.9993 -0.9494 -0.0027
  593MOL0     H80029  10.398   2.584   7.780 -0.6152  0.5130 -2.9663
  593MOL0     H80030  10.340   2.721   7.691  3.0355  2.4611 -0.9197
  593MOL0     H80031  10.556   2.711   7.896  3.1512  2.1282  0.2155
  593MOL0     H80032  10.510   2.858   7.845  0.1683  0.0298 -0.1711
  593MOL0     H80033  10.612   2.646   7.641 -1.5814 -0.4902 -1.1386
  593MOL0     H80034  10.547   2.794   7.587 -1.7595 -3.0830 -0.6664
  593MOL0     H80035   9.966   2.785   8.522 -2.0135  0.8349  1.8710
  593MOL0     H80036   9.729   2.838   8.586  3.1667 -0.1666  1.0790
  593MOL0     H80037   9.362   2.850   8.699 -0.1879  1.0819 -0.6088
  593MOL0     H80038   9.145   2.952   8.750  1.9169  0.5433  0.0336
  593MOL0     H80039   7.092   3.235   8.710 -0.7846  0.4283  0.6942
  593MOL0     H80040   6.843   3.318   8.746  2.1489  0.2248 -1.3691
  593MOL0     H80041   6.436   3.037   8.765 -1.4800 -0.7079  0.3010
  593MOL0     H80042   6.200   3.003   8.788  0.4191  1.4085  1.1133
  593MOL0     H80043   5.855   3.198   8.805 -0.5555 -0.2963  1.3598
  593MOL0     H80044   6.007   3.215   8.884 -0.1186 -1.0695  0.7135
  593MOL0     H80045   6.012   2.953   8.936 -0.9514 -0.4799  0.8353
  593MOL0     H80046   5.860   2.949   8.843 -1.6966  1.0178  1.3640
  593MOL0     H80047   5.745   3.081   8.996 -0.2325 -1.3835  1.7979
  593MOL0     H80048   5.904   3.137   9.064  0.2435 -0.6899  0.4864
  593MOL0     H80049   5.758   2.864   9.079  0.6549 -1.5437  0.3496
  593MOL0     H80050   5.912   2.896   9.159 -0.6932  2.5043  2.7053
  593MOL0     H80051   5.684   3.066   9.448 -1.6985 -2.0661  1.3836
  593MOL0     H80052   6.096   3.373   8.597 -0.0801 -0.5072 -1.3519
  593MOL0     H80053   6.429   3.502   8.582 -1.2837 -0.5964  1.2983
  593MOL0     H80054   6.333   3.435   8.438  0.7138 -0.2116 -0.5452
  593MOL0     H80055   6.262   3.534   8.568 -1.9490 -0.4749 -3.1968
  594MOL0     O80056   9.552   5.115   6.620 -0.1405  0.0122 -0.0821
  594MOL0     C80057   9.449   5.120   6.552  0.2729 -0.0954  0.0463
  594MOL0     O80058   9.438   5.066   6.431 -0.2666 -0.4415  0.7257
  594MOL0     C80059   9.555   5.022   6.381 -0.0173  0.5036 -0.5245
  594MOL0     C80060   9.577   4.885   6.372  0.1035  0.5292 -0.2235
  594MOL0     C80061   9.683   4.833   6.293  0.3505  0.5719 -0.0645
  594MOL0     C80062   9.762   4.918   6.216  0.0252 -0.4384 -1.0704
  594MOL0     O80063   9.845   4.848   6.131 -0.3704 -1.2857  1.0070
  594MOL0     C80064   9.946   4.920   6.067  0.3099  0.3845  0.2473
  594MOL0     C80065  10.074   4.838   6.036 -0.6404  0.9899 -0.7268
  594MOL0     C80066  10.151   4.815   6.170 -0.1585 -0.1782  0.3897
  594MOL0     C80067  10.260   4.712   6.153  0.1025  0.4651  0.8235
  594MOL0     C80068  10.366   4.728   6.262  0.4392 -0.2760  0.0045
  594MOL0     C80069  10.482   4.630   6.237  0.1775 -0.0340 -0.6999
  594MOL0     C80070  10.587   4.638   6.342  0.1362 -0.6075  0.2142
  594MOL0     C80071  10.669   4.510   6.371 -0.0541 -0.3757 -0.0019
  594MOL0     N80072  10.768   4.542   6.471  0.7265 -0.5577  0.4006
  594MOL0     C80073  10.745   4.553   6.603  0.0920  0.2311 -0.0723
  594MOL0     C80074  10.863   4.580   6.656 -0.1614 -0.3515  0.5678
  594MOL0     C80075  10.900   4.591   6.803  0.7588  0.3930 -0.5800
  594MOL0     C80076  10.870   4.458   6.876  0.0970  0.0160  0.2702
  594MOL0     C80077  10.960   4.341   6.832 -0.1929 -0.3941  0.8844
  594MOL0     C80078  11.107   4.366   6.856 -0.7971  0.0602  0.5504
  594MOL0     O80079  11.139   4.447   6.965 -1.6198 -0.0128 -0.0924
  594MOL0     C80080  11.260   4.511   6.955  0.7320 -0.4785 -0.5556
  594MOL0     C80081  11.385   4.446   6.944 -0.3770  0.1318 -0.9181
  594MOL0     C80082  11.496   4.524   6.944  0.8341  0.2828  0.4125
  594MOL0     C80083  11.500   4.663   6.970  0.3901 -0.3445 -0.3523
  594MOL0     C80084  11.625   4.741   6.984 -0.8147  0.0759 -0.0841
  594MOL0     O80085  11.631   4.867   7.027 -0.1326 -0.6236 -0.6423
  594MOL0     C80086  11.750   4.943   7.019 -0.7033  1.1038 -0.4613
  594MOL0     C80087  11.758   5.041   7.122  0.4321  0.8532 -0.1612
  594MOL0     C80088  11.870   5.125   7.121 -0.3823 -0.9235  0.3656
  594MOL0     C80089  11.970   5.117   7.017  0.5282 -0.0426  0.1425
  594MOL0     O80090  12.085   5.196   7.018 -0.4284 -0.6904 -0.5970
  594MOL0     C80091  12.109   5.309   7.103 -1.1574 -0.0325 -0.1349
  594MOL0     C80092  12.254   5.363   7.088  0.6020  0.4205  0.9765
  594MOL0     C80093  12.269   5.470   6.976 -0.3249 -0.2335  0.0022
  594MOL0     C80094  12.240   5.607   7.036  0.1153 -0.3732 -0.6979
  594MOL0     C80095  12.371   5.655   7.110  0.4654 -0.9124  0.1622
  594MOL0     C80096  12.472   5.717   7.004 -0.9174  0.0435 -0.2698
  594MOL0     C80097  12.606   5.712   7.060 -0.2222  0.0697 -0.3708
  594MOL0     C80098  12.720   5.760   6.964  0.1726 -0.1405 -0.5019
  594MOL0    Cl80099  12.878   5.708   7.039 -0.6081 -0.1711  0.2201
  594MOL0     C80100  11.953   5.026   6.910 -0.2910  0.0806  0.0111
  594MOL0     C80101  11.847   4.936   6.916  0.8524 -0.7676 -0.8848
  594MOL0     O80102  11.726   4.682   6.937 -0.6666 -0.1849  0.2765
  594MOL0     C80103  11.374   4.720   7.011  0.6151  0.1066 -0.4630
  594MOL0     C80104  11.253   4.646   6.988 -0.6890  0.2327 -0.7252
  594MOL0     N80105  10.952   4.582   6.551 -0.3940 -0.3063 -0.1573
  594MOL0     N80106  10.894   4.558   6.438  0.2578 -0.6633  0.3729
  594MOL0     C80107   9.739   5.056   6.225  0.8807  0.0545  0.5750
  594MOL0     C80108   9.637   5.110   6.312 -0.2250  0.3501 -0.1751
  594MOL0     C80109   9.332   5.186   6.618 -0.3381 -0.7135  0.6986
  594MOL0     C80110   9.335   5.233   6.763 -0.3960 -0.0324 -0.0936
  594MOL0     C80111   9.225   5.287   6.825  0.4745 -0.3783  0.6520
  594MOL0     C80112   9.118   5.327   6.747  0.1193 -0.4872 -0.0329
  594MOL0     O80113   9.020   5.403   6.803 -0.2963 -0.0550  0.7654
  594MOL0     C80114   9.044   5.538   6.811  0.5904 -0.2452 -0.4692
  594MOL0     C80115   8.907   5.600   6.825  0.5094 -0.0392  0.2822
  594MOL0     C80116   8.836   5.560   6.962 -0.5046  0.1607  0.1426
  594MOL0     C80117   8.715   5.643   6.997  0.5089  0.0146  0.1432
  594MOL0     C80118   8.645   5.603   7.114 -1.0113  0.2684 -0.5938
  594MOL0     C80119   8.611   5.550   7.219 -0.6172 -0.0949 -0.0405
  594MOL0     C80120   9.111   5.298   6.614 -0.4904 -0.2567  0.4867
  594MOL0     C80121   9.210   5.219   6.548  0.6054  0.6206  0.0216
  594MOL0     C80122   9.190   5.190   6.401 -0.1903 -0.2439  0.3220
  594MOL0     H80123   9.504   4.822   6.423  0.6122  2.9518  3.9503
  594MOL0     H80124   9.695   4.726   6.277  0.5574  0.4482  0.8528
  594MOL0     H80125   9.898   4.945   5.971  0.7481  1.8823  0.3914
  594MOL0     H80126   9.976   5.015   6.111  0.6757  0.8919 -1.0635
  594MOL0     H80127  10.140   4.895   5.971 -1.3635  2.8802  0.1409
  594MOL0     H80128  10.053   4.738   5.996 -0.1345  0.8815 -0.7281
  594MOL0     H80129  10.085   4.787   6.252  1.4575  0.3083  1.9192
  594MOL0     H80130  10.204   4.907   6.195  0.6343 -0.9533  1.7150
  594MOL0     H80131  10.205   4.617   6.161 -1.9544  1.4572 -0.6604
  594MOL0     H80132  10.308   4.721   6.055  2.4541  0.5681  1.9192
  594MOL0     H80133  10.406   4.829   6.261  0.0546 -0.0996 -1.9807
  594MOL0     H80134  10.323   4.725   6.363  0.4445 -0.6625 -0.0031
  594MOL0     H80135  10.439   4.530   6.235  0.0438 -0.0310  0.8004
  594MOL0     H80136  10.532   4.645   6.140  0.8491 -2.2232 -0.7458
  594MOL0     H80137  10.543   4.675   6.435  3.4980  0.6025  1.4686
  594MOL0     H80138  10.651   4.717   6.303  0.7695 -1.5070 -0.6179
  594MOL0     H80139  10.603   4.427   6.399 -1.6934  0.7947 -0.2085
  594MOL0     H80140  10.720   4.477   6.281  1.1777 -1.8911  1.1967
  594MOL0     H80141  10.654   4.547   6.663 -0.2333 -1.5913 -0.6842
  594MOL0     H80142  11.004   4.617   6.824  0.5840  0.2279  0.5969
  594MOL0     H80143  10.831   4.667   6.840  0.2384 -0.0988 -0.5194
  594MOL0     H80144  10.891   4.460   6.984 -0.5965  0.1415  0.4039
  594MOL0     H80145  10.766   4.432   6.856  0.5696 -0.3519 -1.9868
  594MOL0     H80146  10.952   4.313   6.727  1.2766  2.8859 -0.2357
  594MOL0     H80147  10.931   4.261   6.901 -1.4756  0.1210  0.9680
  594MOL0     H80148  11.147   4.413   6.765 -0.5610  1.2259  1.2355
  594MOL0     H80149  11.139   4.262   6.869 -1.6993 -0.2271  0.5479
  594MOL0     H80150  11.385   4.338   6.938  4.4868 -0.1622  0.2755
  594MOL0     H80151  11.594   4.481   6.924  0.2352 -0.9057 -0.0827
  594MOL0     H80152  11.687   5.027   7.202  0.4174 -1.1193 -0.4458
  594MOL0     H80153  11.872   5.201   7.198  0.4843 -0.7994  0.2368
  594MOL0     H80154  12.049   5.397   7.075  2.6746  2.7181 -0.5515
  594MOL0     H80155  12.090   5.288   7.209 -0.0328 -1.9435 -0.2632
  594MOL0     H80156  12.296   5.396   7.183  0.7614 -1.8953  1.7787
  594MOL0     H80157  12.320   5.276   7.079  0.8776  0.5415  1.7726
  594MOL0     H80158  12.363   5.466   6.921 -0.3684 -0.6291 -0.0421
  594MOL0     H80159  12.189   5.448   6.905 -1.2362 -2.7564  1.6850
  594MOL0     H80160  12.162   5.595   7.112  3.9047  2.0078  4.2134
  594MOL0     H80161  12.203   5.684   6.969 -2.0780  1.2014  2.0890
  594MOL0     H80162  12.410   5.567   7.162 -0.2913 -1.0370  0.5311
  594MOL0     H80163  12.342   5.740   7.173 -0.7536  0.8749 -2.5927
  594MOL0     H80164  12.475   5.655   6.914 -2.4104  1.0730 -1.0704
  594MOL0     H80165  12.442   5.817   6.973  1.3947  0.9879  0.2923
  594MOL0     H80166  12.622   5.607   7.087 -2.4813  0.1389  1.5168
  594MOL0     H80167  12.619   5.769   7.152  1.9273  0.9853 -1.1691
  594MOL0     H80168  12.700   5.715   6.866 -2.4923 -0.1016 -0.0453
  594MOL0     H80169  12.712   5.869   6.960  0.7813  0.0520  1.9148
  594MOL0     H80170  12.020   5.009   6.827 -0.9872 -1.5502 -0.2665
  594MOL0     H80171  11.843   4.871   6.830  3.4799  0.2044 -1.8626
  594MOL0     H80172  11.375   4.822   7.048 -0.4776 -0.2852  0.7194
  594MOL0     H80173  11.152   4.683   6.999 -0.0513  1.6389  0.5984
  594MOL0     H80174   9.784   5.128   6.157 -0.7020 -0.9765 -1.6855
  594MOL0     H80175   9.616   5.217   6.308 -1.8205  0.0339 -2.0666
  594MOL0     H80176   9.416   5.198   6.827 -1.2812 -3.9022 -0.8286
  594MOL0     H80177   9.231   5.316   6.929  2.4107 -0.5654  0.6310
  594MOL0     H80178   9.090   5.574   6.718 -1.2839 -0.5338 -1.5533
  594MOL0     H80179   9.108   5.575   6.891 -0.0707  0.2842 -0.1828
  594MOL0     H80180   8.845   5.568   6.741 -0.0981 -0.1992  0.7801
  594MOL0     H80181   8.915   5.708   6.808  1.1492 -0.4404 -2.3443
  594MOL0     H80182   8.906   5.583   7.043 -0.2072 -0.6978  0.1399
  594MOL0     H80183   8.806   5.455   6.960 -2.1515  0.5833  0.9610
  594MOL0     H80184   8.748   5.747   7.008  1.5564 -0.3960  1.0961
  594MOL0     H80185   8.648   5.640   6.911 -0.6602 -3.4725  1.0273
  594MOL0     H80186   8.574   5.509   7.311 -2.8717  0.8958 -0.4259
  594MOL0     H80187   9.025   5.318   6.551 -0.0523  0.8160  0.2184
  594MOL0     H80188   9.267   5.242   6.343 -1.2635  1.9851  0.7612
  594MOL0     H80189   9.192   5.084   6.377  2.3413 -0.2766  0.4298
  594MOL0     H80190   9.091   5.230   6.376 -0.2189 -0.6916 -0.2838
  595MOL0     O80191   0.821   6.071   2.419 -0.8788 -0.2014 -0.5313
  595MOL0     C80192   0.792   6.038   2.306  0.6849 -0.2297 -0.3351
  595MOL0     O80193   0.847   6.087   2.194  0.1040  0.0039 -0.4398
  595MOL0     C80194   0.920   6.204   2.201 -0.2639 -0.8096 -0.9596
  595MOL0     C80195   0.853   6.329   2.199 -0.2009 -0.2520  0.4399
  595MOL0     C80196   0.922   6.449   2.204 -0.0901  0.1612 -1.2560
  595MOL0     C80197   1.061   6.443   2.217 -0.7249  0.1699  0.5587
  595MOL0     O80198   1.134   6.561   2.211 -0.3531  0.1778  0.2113
  595MOL0     C80199   1.084   6.676   2.286  0.1174 -0.3859  0.1554
  595MOL0     C80200   1.197   6.779   2.279 -0.8244 -0.4977  0.0472
  595MOL0     C80201   1.171   6.916   2.356  0.5468  0.9948  0.3699
  595MOL0     C80202   1.307   6.996   2.356  0.2755 -0.7532  0.1215
  595MOL0     C80203   1.279   7.141   2.389 -0.4174  0.3190  0.0059
  595MOL0     C80204   1.405   7.221   2.376  0.1369 -1.3763 -0.1637
  595MOL0     C80205   1.382   7.365   2.421 -0.3249 -0.4340 -0.2916
  595MOL0     C80206   1.509   7.444   2.457  0.1546  0.3773  0.6502
  595MOL0     N80207   1.607   7.428   2.341 -0.3895  0.8977  0.1847
  595MOL0     C80208   1.576   7.463   2.210  0.8538 -0.5430 -1.2139
  595MOL0     C80209   1.671   7.410   2.130 -0.0154  0.4892  0.3135
  595MOL0     C80210   1.671   7.426   1.983  0.0657 -0.0496 -0.2091
  595MOL0     C80211   1.748   7.550   1.933 -0.3642  0.0952  0.4232
  595MOL0     C80212   1.903   7.538   1.961 -0.4995 -0.3722 -0.7693
  595MOL0     C80213   1.967   7.656   1.904 -0.9123 -0.2894 -0.1086
  595MOL0     O80214   1.982   7.634   1.759 -0.1063  0.4650  0.4661
  595MOL0     C80215   2.100   7.602   1.692 -0.1906 -0.1367  0.3466
  595MOL0     C80216   2.084   7.569   1.556  0.8838 -1.0735 -0.9675
  595MOL0     C80217   2.199   7.531   1.487 -0.8005  0.0513 -0.0847
  595MOL0     C80218   2.330   7.536   1.550 -0.1989 -0.7894  0.0131
  595MOL0     C80219   2.457   7.510   1.479 -0.7832  0.3329 -0.0027
  595MOL0     O80220   2.471   7.489   1.340 -0.1688  0.4601 -0.1647
  595MOL0     C80221   2.600   7.468   1.302  0.5857 -0.5808  0.4081
  595MOL0     C80222   2.669   7.583   1.260 -0.5106 -0.7299 -0.8453
  595MOL0     C80223   2.802   7.574   1.224 -0.5993  0.6077 -0.7002
  595MOL0     C80224   2.874   7.448   1.229 -0.0787 -0.0641 -0.4191
  595MOL0     O80225   3.007   7.437   1.186 -0.4239 -0.5121 -0.0069
  595MOL0     C80226   3.088   7.353   1.274 -0.2480 -0.4197  0.0586
  595MOL0     C80227   3.234   7.408   1.265  0.0577  0.5818 -0.8161
  595MOL0     C80228   3.283   7.405   1.123 -0.3172  0.4887 -0.7378
  595MOL0     C80229   3.427   7.445   1.137  0.4348 -0.1632 -0.4501
  595MOL0     C80230   3.495   7.448   1.006 -0.0271 -0.1736 -0.2420
  595MOL0     C80231   3.651   7.457   1.039 -0.0044  0.3994 -0.4526
  595MOL0     C80232   3.742   7.434   0.912  0.6207  0.2269 -0.3448
  595MOL0     C80233   3.887   7.392   0.951 -0.9252  0.3450 -0.9592
  595MOL0    Cl80234   3.969   7.543   1.004 -0.5684  0.3565 -0.0036
  595MOL0     C80235   2.798   7.333   1.264  0.8919  0.4050 -1.1655
  595MOL0     C80236   2.663   7.340   1.298 -0.1846  0.5071 -0.5546
  595MOL0     O80237   2.550   7.502   1.559 -0.7510  0.4159  0.2640
  595MOL0     C80238   2.336   7.569   1.688  0.8849  0.2620 -0.2053
  595MOL0     C80239   2.221   7.602   1.753 -0.3507  0.2997  0.3990
  595MOL0     N80240   1.764   7.348   2.208 -1.0055  0.2425 -0.5932
  595MOL0     N80241   1.719   7.357   2.332  0.0413  0.1595 -0.0546
  595MOL0     C80242   1.128   6.322   2.216  0.4908  0.1057  0.7216
  595MOL0     C80243   1.054   6.200   2.219 -0.7805  0.0609  0.7135
  595MOL0     C80244   0.699   5.935   2.295 -0.6465  0.0572  0.2129
  595MOL0     C80245   0.710   5.853   2.179 -0.1606 -0.0698  0.1248
  595MOL0     C80246   0.620   5.748   2.160  0.3817  0.6991  0.7354
  595MOL0     C80247   0.519   5.733   2.247 -0.0386  0.5521 -0.0923
  595MOL0     O80248   0.429   5.629   2.247  0.4277  0.4867  0.2123
  595MOL0     C80249   0.497   5.497   2.248  0.9565  1.6164 -0.1615
  595MOL0     C80250   0.393   5.388   2.222  0.4880 -0.3076  0.2379
  595MOL0     C80251   0.464   5.254   2.227  0.4743 -0.7413  0.2068
  595MOL0     C80252   0.378   5.130   2.223 -0.2922 -0.0064  0.2978
  595MOL0     C80253   0.286   5.128   2.345  0.0972 -0.4599 -0.0372
  595MOL0     C80254   0.211   5.126   2.443  0.4172  0.1479  0.2187
  595MOL0     C80255   0.502   5.817   2.357 -0.0932 -0.0774 -0.0037
  595MOL0     C80256   0.586   5.926   2.383 -0.2144  1.1246 -0.2198
  595MOL0     C80257   0.562   6.015   2.503 -0.6266  0.1252  0.6283
  595MOL0     H80258   0.745   6.326   2.186 -0.1311  1.1507 -0.7950
  595MOL0     H80259   0.875   6.546   2.196 -2.4894 -0.8073  0.0606
  595MOL0     H80260   0.999   6.711   2.225 -0.5547 -1.1833  0.6048
  595MOL0     H80261   1.028   6.668   2.379 -0.0575  1.9279  0.3206
  595MOL0     H80262   1.239   6.791   2.179 -0.2661 -1.2390  0.1827
  595MOL0     H80263   1.289   6.742   2.325 -1.3291 -0.5159  1.0801
  595MOL0     H80264   1.139   6.897   2.459 -3.6864  2.5246 -0.4614
  595MOL0     H80265   1.099   6.986   2.313  1.9949  2.7517  0.6759
  595MOL0     H80266   1.374   6.954   2.431  0.3559  0.4075  0.7331
  595MOL0     H80267   1.353   6.991   2.258  1.8957  0.4308  0.7718
  595MOL0     H80268   1.195   7.189   2.339  0.1099  1.2261 -0.0192
  595MOL0     H80269   1.255   7.158   2.495 -2.1298  1.1037 -0.4715
  595MOL0     H80270   1.491   7.193   2.438  2.2755  0.1197 -2.2332
  595MOL0     H80271   1.441   7.220   2.272  2.8122  2.5131  0.5078
  595MOL0     H80272   1.318   7.367   2.510  2.6292 -0.7899  1.9822
  595MOL0     H80273   1.330   7.423   2.344  1.6366  0.8336 -0.7377
  595MOL0     H80274   1.476   7.545   2.481 -4.0601 -0.5739 -0.3298
  595MOL0     H80275   1.554   7.394   2.543  1.2901 -2.2206 -1.2938
  595MOL0     H80276   1.491   7.523   2.181  2.6843  2.3718 -0.9287
  595MOL0     H80277   1.727   7.338   1.948  0.7303 -0.1891  1.1364
  595MOL0     H80278   1.569   7.420   1.942  0.0599 -0.3005 -0.1628
  595MOL0     H80279   1.738   7.568   1.825 -1.3879 -0.3368  0.4306
  595MOL0     H80280   1.706   7.640   1.979 -1.4622 -0.1688 -0.0344
  595MOL0     H80281   1.938   7.442   1.921  0.4540 -0.9047  1.2489
  595MOL0     H80282   1.916   7.535   2.069 -1.0037 -0.7244 -0.7176
  595MOL0     H80283   2.067   7.672   1.945 -0.3544 -2.2955 -0.5990
  595MOL0     H80284   1.914   7.748   1.930  0.7847  1.2789 -1.7927
  595MOL0     H80285   1.991   7.571   1.501  1.0032  1.1023 -1.1661
  595MOL0     H80286   2.192   7.527   1.379 -0.7626  2.9953 -0.2857
  595MOL0     H80287   2.628   7.683   1.263  2.2577  0.6496 -3.6343
  595MOL0     H80288   2.861   7.664   1.210 -0.7706  1.2365  1.9767
  595MOL0     H80289   3.052   7.361   1.377 -0.3598  1.1249 -0.0846
  595MOL0     H80290   3.098   7.247   1.247  2.5308 -0.1525 -0.2614
  595MOL0     H80291   3.250   7.509   1.301 -0.4350  1.1001 -1.9876
  595MOL0     H80292   3.276   7.335   1.334 -1.1585  0.4277 -0.2067
  595MOL0     H80293   3.273   7.304   1.084 -0.6324 -1.1659  3.1624
  595MOL0     H80294   3.223   7.479   1.069 -0.0731  0.4590 -1.0515
  595MOL0     H80295   3.476   7.373   1.204 -0.1282 -0.2404 -0.1183
  595MOL0     H80296   3.436   7.536   1.197  0.8219  0.2291 -1.0902
  595MOL0     H80297   3.454   7.512   0.927 -0.3656 -1.6311 -1.2964
  595MOL0     H80298   3.483   7.346   0.967  0.5217 -0.1974 -0.3548
  595MOL0     H80299   3.676   7.556   1.079 -1.2669 -0.1913  1.9629
  595MOL0     H80300   3.674   7.389   1.122 -1.0591  0.4176 -0.1373
  595MOL0     H80301   3.726   7.530   0.862 -0.6980  0.3448  0.2679
  595MOL0     H80302   3.708   7.350   0.850  0.1167 -1.6303  2.3011
  595MOL0     H80303   3.897   7.327   1.038  2.2670  1.8352 -0.0597
  595MOL0     H80304   3.935   7.346   0.865  0.2640  2.4074 -1.4617
  595MOL0     H80305   2.845   7.235   1.262  1.8750  0.6728  2.4545
  595MOL0     H80306   2.601   7.252   1.312  1.6271 -0.5192  1.7004
  595MOL0     H80307   2.423   7.572   1.752  0.4380  1.0270  0.3786
  595MOL0     H80308   2.233   7.626   1.858 -0.2546 -1.6167  0.8718
  595MOL0     H80309   1.236   6.318   2.210  0.5162 -0.3542  1.4553
  595MOL0     H80310   1.113   6.109   2.227  1.9799  1.8038  2.1038
  595MOL0     H80311   0.789   5.871   2.107  0.7732 -0.5242  1.0102
  595MOL0     H80312   0.628   5.679   2.077  0.3500  0.0235  1.2866
  595MOL0     H80313   0.528   5.482   2.352 -1.1824 -0.1878  0.2898
  595MOL0     H80314   0.575   5.493   2.171  1.0007 -1.2315 -0.0684
  595MOL0     H80315   0.341   5.406   2.127  1.7324 -0.1585 -0.4320
  595MOL0     H80316   0.325   5.386   2.308 -2.0579  0.2522 -1.6383
  595MOL0     H80317   0.525   5.242   2.317  1.4313  0.7086 -0.2069
  595MOL0     H80318   0.535   5.248   2.143  2.1951  3.3650  1.1190
  595MOL0     H80319   0.315   5.140   2.135 -0.2015 -0.4464  0.1809
  595MOL0     H80320   0.439   5.040   2.213  2.4469  1.7716 -0.2626
  595MOL0     H80321   0.145   5.154   2.523  0.8110 -2.4330  1.5430
  595MOL0     H80322   0.409   5.802   2.410 -0.5766  1.4858 -0.3602
  595MOL0     H80323   0.473   5.985   2.560 -1.2968 -1.4823 -1.1350
  595MOL0     H80324   0.648   6.009   2.572 -2.9540  1.1301  3.8668
  595MOL0     H80325   0.552   6.122   2.484  1.3615  0.8929  3.2251
  596MOL0     O80326   9.268   8.232   5.622 -0.0168 -0.2152  0.2608
  596MOL0     C80327   9.318   8.233   5.511 -0.0202 -0.3210  0.5878
  596MOL0     O80328   9.247   8.211   5.393 -0.7022  1.0546  0.2004
  596MOL0     C80329   9.116   8.196   5.400  0.1865  0.2862 -0.5998
  596MOL0     C80330   9.023   8.303   5.392 -0.2261  0.0179 -0.5813
  596MOL0     C80331   8.883   8.278   5.405  0.0881  0.3361  0.0567
  596MOL0     C80332   8.838   8.150   5.434  0.4311 -0.1717  0.6100
  596MOL0     O80333   8.703   8.133   5.446 -0.0676  0.3206  0.3967
  596MOL0     C80334   8.649   7.998   5.414 -0.5355 -0.2376 -0.1355
  596MOL0     C80335   8.494   8.007   5.426  0.2427 -1.3122 -0.6644
  596MOL0     C80336   8.431   7.872   5.379  0.0575 -0.0853 -0.2391
  596MOL0     C80337   8.276   7.863   5.389 -0.3357  0.0058 -0.2105
  596MOL0     C80338   8.206   7.752   5.309 -1.1119 -0.2750  0.0073
  596MOL0     C80339   8.254   7.623   5.363  0.3358  0.4491  0.1047
  596MOL0     C80340   8.193   7.499   5.292 -0.0954  0.5374  0.2650
  596MOL0     C80341   8.228   7.366   5.365  0.0730 -0.2332  0.3161
  596MOL0     N80342   8.174   7.241   5.298  0.2689 -0.0490  0.5383
  596MOL0     C80343   8.248   7.154   5.222 -0.6611  0.2679  0.3222
  596MOL0     C80344   8.168   7.083   5.139 -0.2292  0.5614  0.4215
  596MOL0     C80345   8.209   7.001   5.017  0.1730  0.4863  0.6299
  596MOL0     C80346   8.096   6.916   4.967 -0.6404  0.5919 -0.4557
  596MOL0     C80347   8.133   6.837   4.845 -0.3164 -0.7772  0.8577
  596MOL0     C80348   8.265   6.772   4.837 -0.2074  0.8461 -0.8881
  596MOL0     O80349   8.282   6.670   4.933  0.1655 -0.8228  0.3429
  596MOL0     C80350   8.392   6.586   4.925  0.5389  0.1758  0.9538
  596MOL0     C80351   8.399   6.483   5.016 -0.5544  0.7787 -0.2224
  596MOL0     C80352   8.496   6.377   5.012 -0.1844 -0.1708  0.0088
  596MOL0     C80353   8.603   6.382   4.919  1.0478 -0.3420  0.4333
  596MOL0     C80354   8.705   6.282   4.903 -0.4707  0.7137 -0.3980
  596MOL0     O80355   8.699   6.179   4.997  0.3593  0.6448  0.4246
  596MOL0     C80356   8.790   6.077   4.979  0.0883  0.7316  0.3494
  596MOL0     C80357   8.929   6.088   5.000  0.7892 -0.4292  0.7567
  596MOL0     C80358   9.010   5.974   4.990 -0.1548  1.0619 -0.9462
  596MOL0     C80359   8.959   5.852   4.938  0.3764 -0.0751 -0.3701
  596MOL0     O80360   9.039   5.743   4.919 -0.1924 -0.3260  0.7657
  596MOL0     C80361   9.167   5.729   4.984  0.0111 -0.5171 -0.0320
  596MOL0     C80362   9.153   5.684   5.128  0.5230 -0.8269 -0.2305
  596MOL0     C80363   9.095   5.539   5.132 -0.0685  0.1640 -0.1495
  596MOL0     C80364   8.944   5.538   5.120 -0.0844 -0.4665  0.6290
  596MOL0     C80365   8.902   5.392   5.113 -0.9373  0.3687  0.2489
  596MOL0     C80366   8.747   5.377   5.079 -0.2216  0.2401 -0.5937
  596MOL0     C80367   8.693   5.241   5.133 -0.4623 -0.0300 -0.0561
  596MOL0     C80368   8.720   5.134   5.032 -0.0298 -0.0914 -0.0864
  596MOL0    Cl80369   8.679   4.968   5.087 -0.3561 -0.0812  0.1368
  596MOL0     C80370   8.826   5.847   4.893  0.1290 -0.0597 -0.2722
  596MOL0     C80371   8.749   5.960   4.921 -0.3662 -0.2984 -0.4837
  596MOL0     O80372   8.792   6.289   4.814 -0.1851 -0.5967 -0.1977
  596MOL0     C80373   8.593   6.493   4.824  0.6769 -0.2458  0.2151
  596MOL0     C80374   8.489   6.592   4.828 -0.3958  0.1495  0.4686
  596MOL0     N80375   8.037   7.116   5.177 -0.0580 -0.1374  0.7080
  596MOL0     N80376   8.043   7.207   5.269  0.3426 -0.4298 -0.0889
  596MOL0     C80377   8.930   8.048   5.450  0.5731  0.1668  0.4050
  596MOL0     C80378   9.064   8.068   5.425 -0.1941 -0.0189 -0.1529
  596MOL0     C80379   9.458   8.277   5.497  0.2139  0.8575  0.6482
  596MOL0     C80380   9.502   8.288   5.358  0.1400  0.0114  0.1235
  596MOL0     C80381   9.628   8.347   5.328 -0.0364  0.6354 -0.4710
  596MOL0     C80382   9.716   8.392   5.421  0.4194 -0.0857 -0.3784
  596MOL0     O80383   9.845   8.441   5.391  0.3623 -0.0182 -0.8061
  596MOL0     C80384   9.884   8.451   5.251 -0.3194 -0.3879 -0.1457
  596MOL0     C80385   9.990   8.555   5.217 -0.3463  0.4007 -0.3228
  596MOL0     C80386  10.016   8.573   5.064  0.3138 -0.3857 -0.5252
  596MOL0     C80387  10.122   8.678   5.030 -0.4838  0.2321 -0.5891
  596MOL0     C80388  10.124   8.810   5.090  0.3913 -0.5577 -0.0100
  596MOL0     C80389  10.128   8.928   5.137  0.1245  1.2093  0.3983
  596MOL0     C80390   9.678   8.369   5.560 -0.0591 -0.8930  0.1480
  596MOL0     C80391   9.555   8.319   5.605  0.3990 -0.1403 -0.4621
  596MOL0     C80392   9.513   8.318   5.757  0.6402 -0.5698 -0.5437
  596MOL0     H80393   9.060   8.404   5.375  0.6549 -0.7636 -4.1212
  596MOL0     H80394   8.808   8.352   5.383  2.2680  2.0212 -2.4348
  596MOL0     H80395   8.668   7.968   5.311  2.8885 -1.7573  0.7958
  596MOL0     H80396   8.690   7.919   5.477 -0.4406 -1.1689 -1.3454
  596MOL0     H80397   8.441   8.089   5.377 -1.1945 -1.5756  0.3658
  596MOL0     H80398   8.484   8.019   5.534 -1.3708  0.2238 -0.9241
  596MOL0     H80399   8.478   7.799   5.445 -1.8471 -0.9930  0.2043
  596MOL0     H80400   8.465   7.843   5.279  1.3678  4.1098 -1.1939
  596MOL0     H80401   8.245   7.848   5.493  0.8664 -1.2593  0.0029
  596MOL0     H80402   8.233   7.948   5.335 -1.5616 -1.0674 -0.9790
  596MOL0     H80403   8.099   7.752   5.332 -0.8123  2.4641  1.8568
  596MOL0     H80404   8.231   7.737   5.204 -1.2971 -0.7031  0.0225
  596MOL0     H80405   8.364   7.616   5.359  0.6349  2.9453  1.7026
  596MOL0     H80406   8.215   7.613   5.464  0.8817  0.2951  0.3053
  596MOL0     H80407   8.228   7.489   5.189 -1.0972  1.0481 -0.1383
  596MOL0     H80408   8.084   7.507   5.294 -0.4514 -2.6150  2.9134
  596MOL0     H80409   8.336   7.354   5.372 -0.2347 -2.4191  3.2798
  596MOL0     H80410   8.181   7.372   5.463 -2.1128  0.9843 -0.7299
  596MOL0     H80411   8.356   7.145   5.234 -1.0012 -0.9031  3.2792
  596MOL0     H80412   8.238   7.074   4.941 -1.7816 -1.2386 -1.9552
  596MOL0     H80413   8.299   6.947   5.049  1.2420 -0.4257 -3.3590
  596MOL0     H80414   8.062   6.837   5.035 -1.1287  1.1002 -0.0958
  596MOL0     H80415   8.014   6.981   4.937 -0.3443  1.6364  0.8962
  596MOL0     H80416   8.141   6.905   4.759  0.2577  0.9579  2.2154
  596MOL0     H80417   8.057   6.760   4.831 -1.9048  0.8919 -0.1259
  596MOL0     H80418   8.342   6.846   4.861 -0.5868  0.1373  3.2426
  596MOL0     H80419   8.278   6.732   4.736 -0.7247 -1.6768 -0.0099
  596MOL0     H80420   8.310   6.473   5.078 -0.0449 -2.5683  0.1287
  596MOL0     H80421   8.475   6.286   5.067 -1.1290  0.8465  1.3865
  596MOL0     H80422   8.965   6.179   5.047 -2.2665  1.4722 -0.2971
  596MOL0     H80423   9.109   5.988   5.030 -0.1076 -0.3014 -0.5199
  596MOL0     H80424   9.230   5.658   4.931  0.6717  1.3017 -1.8461
  596MOL0     H80425   9.225   5.821   4.974 -2.4192  0.9407 -2.2177
  596MOL0     H80426   9.250   5.690   5.178  0.3836  3.5206 -0.1304
  596MOL0     H80427   9.091   5.751   5.187  1.3198 -1.1484  1.0159
  596MOL0     H80428   9.139   5.476   5.053  2.0539 -0.4181  1.4108
  596MOL0     H80429   9.116   5.491   5.228 -0.4139  0.2974 -0.0050
  596MOL0     H80430   8.907   5.583   5.027 -1.1406  3.3921  2.7407
  596MOL0     H80431   8.896   5.591   5.202 -0.6102  0.1371 -0.0469
  596MOL0     H80432   8.912   5.340   5.209 -2.6143 -2.4006 -0.9619
  596MOL0     H80433   8.964   5.335   5.043  0.5625  2.0005  0.1479
  596MOL0     H80434   8.699   5.456   5.138 -0.3170  0.7179 -1.2932
  596MOL0     H80435   8.717   5.387   4.974 -0.9290 -1.2952 -0.5631
  596MOL0     H80436   8.586   5.251   5.155 -0.2660  0.8300  0.5929
  596MOL0     H80437   8.735   5.208   5.229 -0.6382  0.7784  0.3157
  596MOL0     H80438   8.660   5.155   4.943 -0.2877 -0.8308 -0.0941
  596MOL0     H80439   8.828   5.130   5.013  0.2050 -0.0509  1.1571
  596MOL0     H80440   8.781   5.758   4.851 -1.4267  1.3125 -1.6584
  596MOL0     H80441   8.644   5.955   4.898 -0.7034 -0.8690  1.0478
  596MOL0     H80442   8.678   6.495   4.757  2.0104 -1.5878  1.7688
  596MOL0     H80443   8.492   6.676   4.759  0.4839 -0.2800 -0.0333
  596MOL0     H80444   8.901   7.944   5.467 -1.2279  0.5686  0.0278
  596MOL0     H80445   9.136   7.987   5.429  0.0380  0.2199  2.6269
  596MOL0     H80446   9.448   8.240   5.277  0.9861 -1.3027  0.2970
  596MOL0     H80447   9.657   8.340   5.224  1.1157 -2.2634 -0.0544
  596MOL0     H80448   9.802   8.485   5.188  0.5405 -0.5091 -1.3744
  596MOL0     H80449   9.914   8.353   5.212  0.3933 -0.2348 -0.0093
  596MOL0     H80450  10.087   8.527   5.260  0.4239  1.5205 -1.2721
  596MOL0     H80451   9.958   8.655   5.251 -0.8829  0.7688 -1.8428
  596MOL0     H80452   9.922   8.587   5.011 -0.1567 -3.6853 -0.7606
  596MOL0     H80453  10.065   8.481   5.033  1.0641 -0.3545  0.4781
  596MOL0     H80454  10.218   8.627   5.040 -0.4946 -0.4205 -3.0721
  596MOL0     H80455  10.114   8.691   4.922 -1.4220 -0.3678 -0.6125
  596MOL0     H80456  10.114   9.030   5.166  1.9623  2.4458 -2.5386
  596MOL0     H80457   9.745   8.398   5.640  0.2568 -0.1886 -0.3639
  596MOL0     H80458   9.455   8.229   5.782 -0.5601  0.3672  0.1394
  596MOL0     H80459   9.597   8.319   5.827 -0.1387  0.8059  0.4176
  596MOL0     H80460   9.450   8.407   5.766  1.6142  0.2743 -1.7160
  597MOL0     O80461   0.493   4.798   1.982 -0.8924 -0.2449 -0.4399
  597MOL0     C80462   0.455   4.766   2.099  0.1747  0.4295  0.7729
  597MOL0     O80463   0.531   4.804   2.212 -0.0139 -0.2421  0.9218
  597MOL0     C80464   0.660   4.837   2.199 -0.2558  1.3781 -0.2925
  597MOL0     C80465   0.751   4.748   2.262 -0.7808 -0.1186  0.4832
  597MOL0     C80466   0.895   4.773   2.269 -0.0381  0.1580 -0.7122
  597MOL0     C80467   0.955   4.887   2.206 -0.2161 -0.0803 -0.8123
  597MOL0     O80468   1.085   4.926   2.207  0.4205  0.1823  0.3151
  597MOL0     C80469   1.175   4.860   2.280  0.1008 -0.0151 -0.4622
  597MOL0     C80470   1.304   4.930   2.253  0.4666  0.6755  0.0797
  597MOL0     C80471   1.414   4.830   2.261  0.3210 -0.0743 -0.1132
  597MOL0     C80472   1.554   4.889   2.264  0.7450 -0.4580 -0.7450
  597MOL0     C80473   1.664   4.786   2.215  0.4759 -0.6071  0.0700
  597MOL0     C80474   1.807   4.823   2.254 -0.3871 -0.1023  0.6677
  597MOL0     C80475   1.897   4.740   2.159  1.0022  0.6256  0.2108
  597MOL0     C80476   2.040   4.773   2.187 -0.6305 -0.0553 -0.1970
  597MOL0     N80477   2.096   4.726   2.320  0.1353 -0.5440  0.4096
  597MOL0     C80478   2.150   4.805   2.418 -0.4276 -0.2372 -0.2886
  597MOL0     C80479   2.188   4.722   2.519 -0.4847  0.5086 -0.6728
  597MOL0     C80480   2.255   4.776   2.645 -0.3659  0.0410  0.0583
  597MOL0     C80481   2.404   4.795   2.615  0.2944  0.0692 -0.3269
  597MOL0     C80482   2.483   4.770   2.742 -0.4334 -0.6634 -0.1597
  597MOL0     C80483   2.636   4.795   2.728  0.2988  0.0891 -0.3635
  597MOL0     O80484   2.689   4.814   2.849  0.2882  0.1140 -0.2522
  597MOL0     C80485   2.822   4.831   2.853  1.1891  0.5244  0.7752
  597MOL0     C80486   2.885   4.807   2.976 -0.1958 -0.2622  0.1667
  597MOL0     C80487   3.025   4.826   2.985 -0.1441 -0.2835 -0.0639
  597MOL0     C80488   3.106   4.854   2.873 -0.1151 -0.3678  0.2790
  597MOL0     C80489   3.252   4.852   2.885  0.3047 -0.1275  0.0043
  597MOL0     O80490   3.326   4.921   2.802 -1.1310  0.8501 -0.5401
  597MOL0     C80491   3.466   4.908   2.799 -0.4037 -0.2806  0.1280
  597MOL0     C80492   3.544   5.026   2.791 -0.8013  0.2044  0.2129
  597MOL0     C80493   3.688   5.014   2.767 -0.0043  0.1434  0.1369
  597MOL0     C80494   3.749   4.895   2.773 -0.2853  0.1672  0.1558
  597MOL0     O80495   3.884   4.902   2.764  0.1508  0.5266  0.2518
  597MOL0     C80496   3.968   4.784   2.780  0.1093  0.0106  0.1320
  597MOL0     C80497   4.113   4.821   2.764 -0.7417  0.3011  1.2544
  597MOL0     C80498   4.195   4.693   2.813 -0.5962 -0.2012 -0.6501
  597MOL0     C80499   4.348   4.723   2.798  0.3344  0.0329 -0.3994
  597MOL0     C80500   4.425   4.611   2.870 -0.5502 -0.5163  0.7911
  597MOL0     C80501   4.577   4.644   2.844  0.5518 -0.4815 -0.4173
  597MOL0     C80502   4.665   4.537   2.923 -0.1083 -0.6620  0.2971
  597MOL0     C80503   4.809   4.577   2.908  0.3591 -0.0923 -0.1157
  597MOL0    Cl80504   4.867   4.709   3.018 -0.0421 -0.0203  0.3253
  597MOL0     C80505   3.672   4.780   2.805 -0.0671 -0.1462 -0.2993
  597MOL0     C80506   3.527   4.787   2.807  0.0580  0.7774 -0.3186
  597MOL0     O80507   3.296   4.801   2.982 -0.5367  0.3731  0.2378
  597MOL0     C80508   3.041   4.864   2.737 -0.2594  0.4358 -0.1122
  597MOL0     C80509   2.899   4.857   2.729 -0.1076  0.5236 -0.1394
  597MOL0     N80510   2.155   4.587   2.486 -0.6005 -0.0621  0.0557
  597MOL0     N80511   2.097   4.600   2.366 -0.4512 -0.0994  0.7760
  597MOL0     C80512   0.860   4.971   2.154 -0.7983  0.2850  0.0020
  597MOL0     C80513   0.716   4.955   2.149 -0.3008  0.5678  0.1451
  597MOL0     C80514   0.336   4.683   2.113 -0.4112  0.2759  0.3997
  597MOL0     C80515   0.276   4.631   1.997 -0.1779 -1.1851 -0.3636
  597MOL0     C80516   0.161   4.551   2.009 -0.3385  0.1496  0.3405
  597MOL0     C80517   0.097   4.527   2.128 -0.2796  0.7817 -0.2647
  597MOL0     O80518  -0.027   4.472   2.145  0.0423  1.1835 -0.2425
  597MOL0     C80519  -0.117   4.483   2.043  0.0070 -0.1656 -0.3140
  597MOL0     C80520  -0.245   4.411   2.082  0.3044  0.8606 -0.8944
  597MOL0     C80521  -0.235   4.256   2.105 -0.6372 -0.2602  0.4906
  597MOL0     C80522  -0.360   4.186   2.150 -0.2549 -0.2300  0.5855
  597MOL0     C80523  -0.467   4.195   2.048  0.4731 -0.5461 -0.0946
  597MOL0     C80524  -0.555   4.211   1.972  1.5113 -0.3899 -0.4536
  597MOL0     C80525   0.161   4.570   2.242  0.9534 -0.1163  0.6024
  597MOL0     C80526   0.273   4.652   2.239 -0.2996  0.0829 -0.2720
  597MOL0     C80527   0.314   4.712   2.364 -0.3411  0.1750 -0.9606
  597MOL0     H80528   0.704   4.668   2.319 -0.9630  0.7990  1.6648
  597MOL0     H80529   0.955   4.698   2.318 -0.4223  0.9074  0.9546
  597MOL0     H80530   1.143   4.865   2.384 -0.1924  1.1748 -0.5958
  597MOL0     H80531   1.183   4.752   2.263 -0.9017 -0.7685  2.9514
  597MOL0     H80532   1.319   5.014   2.322 -0.7463 -0.4325  1.7879
  597MOL0     H80533   1.312   4.967   2.151 -0.7970 -1.3646 -0.8206
  597MOL0     H80534   1.394   4.763   2.177 -2.1422 -1.3148  1.3408
  597MOL0     H80535   1.403   4.769   2.351  4.3521  3.3553  3.1165
  597MOL0     H80536   1.553   4.988   2.217 -1.1692  0.2662  0.6467
  597MOL0     H80537   1.569   4.899   2.372  1.0456 -0.2694 -0.8041
  597MOL0     H80538   1.639   4.691   2.263 -1.1186 -0.6621 -0.7957
  597MOL0     H80539   1.651   4.772   2.108 -0.7166  0.9871 -0.0315
  597MOL0     H80540   1.817   4.929   2.229 -3.0280  0.2855  0.9355
  597MOL0     H80541   1.841   4.811   2.357  2.4316  1.8451  0.0757
  597MOL0     H80542   1.881   4.770   2.055  3.5460  0.9695 -0.1332
  597MOL0     H80543   1.865   4.638   2.184 -1.1707  1.9276  3.5446
  597MOL0     H80544   2.094   4.726   2.105 -3.0281 -1.0997 -1.2812
  597MOL0     H80545   2.058   4.881   2.185  2.3731 -0.4783  0.0978
  597MOL0     H80546   2.178   4.910   2.414  0.1344 -0.1944  2.7146
  597MOL0     H80547   2.213   4.873   2.672  2.7764  0.6133  3.7814
  597MOL0     H80548   2.245   4.707   2.730 -1.4090 -0.6183 -0.5880
  597MOL0     H80549   2.427   4.732   2.528 -1.2367 -1.7444  0.5001
  597MOL0     H80550   2.420   4.899   2.588  0.6139  0.0921 -0.0469
  597MOL0     H80551   2.469   4.669   2.780  0.3467 -0.5119  0.5575
  597MOL0     H80552   2.450   4.831   2.827  0.6220 -3.8243  2.7548
  597MOL0     H80553   2.644   4.889   2.673  2.7557 -0.3451 -0.8542
  597MOL0     H80554   2.678   4.717   2.664  0.0463  0.4640 -0.9954
  597MOL0     H80555   2.840   4.769   3.067 -0.5960  0.7920  0.4216
  597MOL0     H80556   3.073   4.814   3.082  0.0554  0.9780  0.0171
  597MOL0     H80557   3.516   5.130   2.780  1.8076  0.9183 -0.2951
  597MOL0     H80558   3.743   5.106   2.751 -1.3285  1.0824  0.7483
  597MOL0     H80559   3.965   4.748   2.883  0.6223  0.3428  0.2676
  597MOL0     H80560   3.928   4.702   2.720  0.3618  1.1008 -1.5836
  597MOL0     H80561   4.136   4.838   2.658  0.4924 -1.7901  1.1283
  597MOL0     H80562   4.138   4.908   2.825 -2.0245  1.0722  0.7150
  597MOL0     H80563   4.185   4.693   2.922  3.1126  2.3058 -0.1258
  597MOL0     H80564   4.157   4.608   2.756 -3.5094  2.2948 -2.7824
  597MOL0     H80565   4.359   4.823   2.842 -1.1108  0.0254  0.0523
  597MOL0     H80566   4.364   4.727   2.690 -0.2726  1.3004 -0.4723
  597MOL0     H80567   4.393   4.515   2.830  0.5297  0.2248 -2.0837
  597MOL0     H80568   4.412   4.615   2.979 -0.4973  2.8655  0.7914
  597MOL0     H80569   4.604   4.643   2.738  1.3228  0.7941 -0.2609
  597MOL0     H80570   4.596   4.745   2.883 -0.8697 -0.7592  1.0880
  597MOL0     H80571   4.649   4.443   2.871  0.5481 -0.0718 -1.0205
  597MOL0     H80572   4.633   4.530   3.027 -0.5815  0.1629  0.2213
  597MOL0     H80573   4.873   4.492   2.932  0.2366  0.0884  0.8622
  597MOL0     H80574   4.826   4.600   2.802 -0.4994 -3.3132 -1.0694
  597MOL0     H80575   3.711   4.678   2.803 -1.9815 -0.9173  0.0092
  597MOL0     H80576   3.457   4.704   2.809  0.2625  0.5668  2.4367
  597MOL0     H80577   3.112   4.871   2.655  1.0831  0.0016  0.9731
  597MOL0     H80578   2.853   4.867   2.631  1.8039  4.3128 -0.8656
  597MOL0     H80579   0.907   5.061   2.117 -0.6369  1.6191  3.2165
  597MOL0     H80580   0.663   5.039   2.106 -0.1622  0.6173  0.0706
  597MOL0     H80581   0.316   4.645   1.897 -0.8919 -5.0836 -1.3490
  597MOL0     H80582   0.126   4.517   1.911  0.3887 -0.5402  0.3082
  597MOL0     H80583  -0.084   4.446   1.945 -1.6659  1.6401 -1.6223
  597MOL0     H80584  -0.131   4.591   2.035  1.2348 -0.0012 -0.5571
  597MOL0     H80585  -0.314   4.426   1.998 -0.4163 -1.9856 -0.8883
  597MOL0     H80586  -0.283   4.450   2.177 -0.4720 -1.9203  0.0332
  597MOL0     H80587  -0.153   4.236   2.174 -0.5268 -1.1971  0.0960
  597MOL0     H80588  -0.213   4.206   2.011 -1.1524  0.4759 -0.0343
  597MOL0     H80589  -0.339   4.080   2.168  0.9547 -0.4064 -1.5417
  597MOL0     H80590  -0.400   4.228   2.243 -0.8693  1.0727 -0.2358
  597MOL0     H80591  -0.636   4.227   1.903  0.5187 -1.1979  0.4949
  597MOL0     H80592   0.112   4.546   2.336  1.2985 -0.7926  0.6165
  597MOL0     H80593   0.419   4.703   2.393 -0.7508  1.7973  1.2749
  597MOL0     H80594   0.311   4.821   2.354  2.0749  0.1713 -2.8055
  597MOL0     H80595   0.254   4.677   2.448  2.7575  1.7203  2.1265
  598MOL0     O80596  11.240   5.081   0.475  0.5847 -0.0918  0.3790
  598MOL0     C80597  11.203   5.132   0.581  0.2495 -0.6955 -0.6396
  598MOL0     O80598  11.245   5.259   0.630  0.0586 -0.2384 -0.2523
  598MOL0     C80599  11.349   5.324   0.556  0.8690 -0.2515  0.0751
  598MOL0     C80600  11.462   5.382   0.623  0.0051 -0.1942 -0.7722
  598MOL0     C80601  11.564   5.457   0.554 -0.5574  1.1578  1.1615
  598MOL0     C80602  11.557   5.453   0.405 -0.5749 -0.1793 -1.2388
  598MOL0     O80603  11.651   5.501   0.320 -0.5216 -0.4772 -0.4256
  598MOL0     C80604  11.747   5.585   0.389  0.0345  0.1500  0.2056
  598MOL0     C80605  11.844   5.645   0.288  0.1486  0.5957  0.3394
  598MOL0     C80606  11.892   5.533   0.195  0.6445 -0.3989  0.0420
  598MOL0     C80607  12.015   5.575   0.119  0.1877 -0.9125  0.1859
  598MOL0     C80608  12.084   5.451   0.051  0.2282 -0.4130  0.2729
  598MOL0     C80609  12.225   5.473   0.030 -0.4407 -0.3378  0.3164
  598MOL0     C80610  12.323   5.424   0.136  0.0044 -0.1486  0.9338
  598MOL0     C80611  12.283   5.314   0.219  0.1691  0.3351  0.0334
  598MOL0     N80612  12.237   5.194   0.160  0.3916  0.6217  1.6824
  598MOL0     C80613  12.308   5.135   0.060  0.1111 -0.5312 -0.1631
  598MOL0     C80614  12.251   5.019   0.050 -0.1720 -0.1330 -0.2860
  598MOL0     C80615  12.289   4.921  -0.053  0.5294 -0.8597  0.5435
  598MOL0     C80616  12.172   4.877  -0.143  0.4936 -0.3368  0.9853
  598MOL0     C80617  12.160   4.732  -0.180  0.5596 -0.1193 -0.6412
  598MOL0     C80618  12.027   4.693  -0.238 -0.4760  0.1631 -0.0127
  598MOL0     O80619  11.991   4.768  -0.351  0.6539  0.1323  0.0635
  598MOL0     C80620  11.887   4.731  -0.435  0.2835 -0.1862 -1.2177
  598MOL0     C80621  11.849   4.822  -0.535  0.3049  1.0951 -0.5272
  598MOL0     C80622  11.744   4.795  -0.620  0.0793 -0.5382 -0.8166
  598MOL0     C80623  11.660   4.685  -0.590 -0.0964 -0.9244 -0.1218
  598MOL0     C80624  11.533   4.664  -0.656 -0.3938 -0.0673  0.9230
  598MOL0     O80625  11.511   4.753  -0.763  0.1978 -0.1028 -0.7580
  598MOL0     C80626  11.379   4.755  -0.809 -0.3100  0.5197  0.6571
  598MOL0     C80627  11.307   4.873  -0.793  0.3663 -0.3051 -0.5989
  598MOL0     C80628  11.187   4.901  -0.853 -0.2144  0.5246  0.9792
  598MOL0     C80629  11.132   4.800  -0.941 -0.1315  0.0956 -0.4097
  598MOL0     O80630  11.016   4.808  -1.007 -0.5244  0.2352  0.1316
  598MOL0     C80631  10.938   4.922  -0.973 -1.0247  0.1425  0.7054
  598MOL0     C80632  10.828   4.943  -1.078 -0.5819  0.3534 -0.1913
  598MOL0     C80633  10.739   4.818  -1.075 -1.3219 -0.2775 -0.2879
  598MOL0     C80634  10.620   4.834  -1.171  0.6020  0.4364 -1.1703
  598MOL0     C80635  10.521   4.715  -1.150 -0.2221 -0.5582 -0.0089
  598MOL0     C80636  10.402   4.728  -1.255 -0.5158  0.6248 -0.3000
  598MOL0     C80637  10.337   4.870  -1.262  0.3453 -0.1816 -0.5441
  598MOL0     C80638  10.215   4.887  -1.344  0.1784 -0.3934 -0.3289
  598MOL0    Cl80639  10.145   5.054  -1.376 -0.2386 -0.0995 -0.1361
  598MOL0     C80640  11.211   4.687  -0.972  0.0241  0.2172  0.2645
  598MOL0     C80641  11.336   4.665  -0.914 -0.4608  0.2245  0.1272
  598MOL0     O80642  11.453   4.586  -0.609 -0.4454  0.5136  0.2950
  598MOL0     C80643  11.699   4.595  -0.492 -0.3868 -0.7482  0.1685
  598MOL0     C80644  11.813   4.610  -0.412 -0.2324 -0.6850  1.4543
  598MOL0     N80645  12.151   5.000   0.144  0.7615 -0.7930 -0.0444
  598MOL0     N80646  12.131   5.120   0.196  0.5749  0.3264 -0.6967
  598MOL0     C80647  11.448   5.400   0.342  0.3083 -0.0378  0.5940
  598MOL0     C80648  11.340   5.338   0.411  0.9591  0.3020  0.4958
  598MOL0     C80649  11.121   5.059   0.681 -0.5207 -0.1411 -0.7475
  598MOL0     C80650  11.138   5.090   0.817  0.0275 -0.0804  0.1982
  598MOL0     C80651  11.053   5.035   0.922 -0.8141 -0.1276  0.1780
  598MOL0     C80652  10.956   4.941   0.877  0.2196 -0.0485  0.3949
  598MOL0     O80653  10.871   4.880   0.970  0.1773 -0.0483  0.2720
  598MOL0     C80654  10.763   4.796   0.925 -0.4009  0.0106  0.5284
  598MOL0     C80655  10.648   4.792   1.020 -0.6626  0.5854 -0.9371
  598MOL0     C80656  10.533   4.694   0.981 -0.5118  1.1386 -0.4664
  598MOL0     C80657  10.410   4.727   1.065  1.3875  0.5438  0.3413
  598MOL0     C80658  10.293   4.671   0.996  0.1828 -1.1191  0.7923
  598MOL0     C80659  10.190   4.636   0.944 -0.6692  0.3028 -0.2358
  598MOL0     C80660  10.966   4.891   0.744 -0.2348 -0.0661  0.0895
  598MOL0     C80661  11.032   4.952   0.645 -0.4874 -0.3442  0.3820
  598MOL0     C80662  11.006   4.907   0.506  0.0883 -0.0676 -0.5453
  598MOL0     H80663  11.467   5.386   0.731 -0.3738 -0.4477 -0.7409
  598MOL0     H80664  11.645   5.502   0.611  0.5787  0.3822  0.2026
  598MOL0     H80665  11.685   5.662   0.436 -2.4960 -2.4385  1.4211
  598MOL0     H80666  11.801   5.532   0.468 -0.3862 -0.5539  0.0320
  598MOL0     H80667  11.922   5.693   0.348 -3.3953  4.0396  2.7242
  598MOL0     H80668  11.789   5.724   0.234  0.2507  0.6923  0.3771
  598MOL0     H80669  11.813   5.516   0.121  1.0333  0.6365 -0.6312
  598MOL0     H80670  11.908   5.440   0.251  0.2192 -0.0177  0.8085
  598MOL0     H80671  11.977   5.650   0.049 -0.1662 -0.3643  0.9491
  598MOL0     H80672  12.077   5.619   0.198 -2.0364 -0.4423  1.7571
  598MOL0     H80673  12.065   5.367   0.118  2.9182  0.4883  2.3676
  598MOL0     H80674  12.036   5.427  -0.044  2.3191  1.2889 -1.3499
  598MOL0     H80675  12.242   5.421  -0.065 -0.4338 -1.3481  0.8588
  598MOL0     H80676  12.236   5.582   0.032 -0.9823 -0.2495 -0.6386
  598MOL0     H80677  12.350   5.499   0.212 -1.4018  0.0964  1.2154
  598MOL0     H80678  12.415   5.408   0.079 -2.0900 -2.8640 -2.0052
  598MOL0     H80679  12.374   5.288   0.275 -1.1435 -1.2391  1.5695
  598MOL0     H80680  12.208   5.343   0.294  0.0833 -2.0101  0.9250
  598MOL0     H80681  12.391   5.174   0.002  0.1878  2.0033  1.5149
  598MOL0     H80682  12.355   4.964  -0.129  0.4387  0.0580  0.9694
  598MOL0     H80683  12.332   4.845   0.013 -0.6892  1.6835  4.6311
  598MOL0     H80684  12.078   4.916  -0.101  1.5915  0.8075  2.4643
  598MOL0     H80685  12.190   4.926  -0.238  0.1675 -4.5550 -1.5095
  598MOL0     H80686  12.162   4.677  -0.086 -1.5802 -1.0550 -1.0764
  598MOL0     H80687  12.248   4.705  -0.240  0.0656  0.4043 -1.6300
  598MOL0     H80688  11.951   4.714  -0.163 -0.8136  1.4500 -0.6807
  598MOL0     H80689  12.032   4.584  -0.245 -0.5952 -0.0074  2.0668
  598MOL0     H80690  11.902   4.916  -0.536 -1.8532  2.4538  1.1530
  598MOL0     H80691  11.729   4.861  -0.705 -1.6134  0.7073  0.3831
  598MOL0     H80692  11.346   4.942  -0.720 -0.7140 -0.2301 -0.0743
  598MOL0     H80693  11.142   4.997  -0.833  0.0658  0.9131 -0.1606
  598MOL0     H80694  10.902   4.906  -0.871  1.4222 -2.2213  1.3144
  598MOL0     H80695  10.993   5.016  -0.979  2.5928 -1.8240  0.2104
  598MOL0     H80696  10.767   5.031  -1.058 -2.4859 -0.6310 -1.4175
  598MOL0     H80697  10.870   4.946  -1.180 -0.8885 -1.9436 -0.4386
  598MOL0     H80698  10.797   4.729  -1.100  0.1262  0.9356 -1.4069
  598MOL0     H80699  10.702   4.818  -0.972 -1.2173  1.0528 -0.2321
  598MOL0     H80700  10.666   4.834  -1.271  1.6834  3.1597 -0.7504
  598MOL0     H80701  10.573   4.929  -1.145 -0.4174 -0.4749  0.4978
  598MOL0     H80702  10.484   4.710  -1.047 -3.4048 -2.8489 -1.1178
  598MOL0     H80703  10.564   4.619  -1.178 -1.7305 -1.0370 -0.7803
  598MOL0     H80704  10.438   4.713  -1.357  2.1943 -0.8239  0.7744
  598MOL0     H80705  10.329   4.647  -1.243 -0.5169  0.7214  0.4104
  598MOL0     H80706  10.411   4.940  -1.303  0.7872  0.2378  0.8917
  598MOL0     H80707  10.310   4.903  -1.161  1.1668  0.0190 -0.3774
  598MOL0     H80708  10.233   4.843  -1.442  1.8874 -0.6236  0.0577
  598MOL0     H80709  10.144   4.823  -1.289 -2.5427  2.8161  0.2034
  598MOL0     H80710  11.167   4.629  -1.052  2.0414 -0.0478 -0.7251
  598MOL0     H80711  11.389   4.571  -0.921 -0.4523  0.2281  0.1425
  598MOL0     H80712  11.633   4.512  -0.467 -1.7092  0.8477  2.3757
  598MOL0     H80713  11.831   4.539  -0.333  2.0471 -2.8575 -0.8313
  598MOL0     H80714  11.436   5.411   0.235  1.4453  0.2724  0.4895
  598MOL0     H80715  11.245   5.323   0.361  1.6864  3.6211 -2.2150
  598MOL0     H80716  11.212   5.164   0.846 -0.3049  0.7422 -1.0114
  598MOL0     H80717  11.075   5.076   1.021 -1.5871  1.8902 -0.4249
  598MOL0     H80718  10.803   4.694   0.911  0.8879  0.6988 -1.2775
  598MOL0     H80719  10.726   4.834   0.829 -0.4851 -0.3651  0.4093
  598MOL0     H80720  10.614   4.895   1.027 -2.1120  0.1102 -0.6276
  598MOL0     H80721  10.678   4.748   1.116  1.2764  0.8386 -1.3843
  598MOL0     H80722  10.561   4.589   0.994 -0.0832  1.0474 -1.9159
  598MOL0     H80723  10.522   4.718   0.875  1.1349  2.3086 -0.4290
  598MOL0     H80724  10.421   4.699   1.171 -0.9822 -2.0504  0.0143
  598MOL0     H80725  10.398   4.836   1.075 -0.7654  0.4468 -0.5066
  598MOL0     H80726  10.093   4.609   0.906 -0.0373 -1.2913 -0.8134
  598MOL0     H80727  10.905   4.807   0.712  0.8692 -1.6298  1.9117
  598MOL0     H80728  10.922   4.837   0.498 -1.9276  2.3277 -1.9267
  598MOL0     H80729  10.982   4.995   0.445  2.5747 -0.0829 -1.6337
  598MOL0     H80730  11.096   4.861   0.467  2.2148  3.0983  0.2570
  599MOL0     O80731   3.937   8.807   6.593 -0.6819  0.0235 -0.8334
  599MOL0     C80732   3.970   8.860   6.702  0.5126  0.0714  0.3665
  599MOL0     O80733   4.086   8.829   6.770  0.7014 -0.1099 -0.1972
  599MOL0     C80734   4.165   8.725   6.734 -0.1439 -1.5837 -0.2968
  599MOL0     C80735   4.293   8.764   6.697 -0.1982 -0.7944  0.5855
  599MOL0     C80736   4.389   8.668   6.692  0.0888  0.2975 -0.4603
  599MOL0     C80737   4.350   8.532   6.723  0.1727  0.4490  0.8822
  599MOL0     O80738   4.449   8.438   6.712  0.2323 -0.4330 -0.1994
  599MOL0     C80739   4.467   8.380   6.843 -0.0989  0.1139 -0.4100
  599MOL0     C80740   4.619   8.328   6.841 -0.0873  0.1285  0.7948
  599MOL0     C80741   4.638   8.202   6.756 -0.2118  0.4067  0.4615
  599MOL0     C80742   4.779   8.167   6.713  0.0210  0.1809  0.1720
  599MOL0     C80743   4.845   8.111   6.833 -0.7146  0.2653 -0.1256
  599MOL0     C80744   4.993   8.070   6.804  0.2210 -0.3168 -0.5515
  599MOL0     C80745   5.054   7.977   6.920 -1.0853  0.2581  0.4377
  599MOL0     C80746   5.201   7.974   6.884  0.7075  0.1827 -1.0087
  599MOL0     N80747   5.289   7.914   6.990 -0.5833  0.1432 -0.2522
  599MOL0     C80748   5.305   7.953   7.118 -0.1939  0.1219  0.7649
  599MOL0     C80749   5.393   7.865   7.170  0.0681 -0.2327 -0.1100
  599MOL0     C80750   5.432   7.855   7.314 -0.4644  0.0744 -0.2811
  599MOL0     C80751   5.499   7.983   7.363 -0.0799  0.0741 -0.1614
  599MOL0     C80752   5.545   7.970   7.511  0.2146  0.2464 -0.1440
  599MOL0     C80753   5.590   8.117   7.553 -0.2391  0.3925 -0.6375
  599MOL0     O80754   5.709   8.147   7.479  0.5504  0.2126  0.0706
  599MOL0     C80755   5.828   8.099   7.527 -0.5981  0.9736 -0.4492
  599MOL0     C80756   5.924   8.046   7.445  0.7439 -0.1345 -0.4069
  599MOL0     C80757   6.055   8.004   7.484  0.1927  0.5181  0.7031
  599MOL0     C80758   6.083   8.007   7.621  0.4746  0.3824  0.1933
  599MOL0     C80759   6.208   7.943   7.668  0.1943 -0.0076 -0.4881
  599MOL0     O80760   6.322   7.944   7.588  0.4361  0.0808 -0.2400
  599MOL0     C80761   6.422   7.872   7.631 -0.3962  1.0262  0.3545
  599MOL0     C80762   6.421   7.730   7.623  0.4705 -0.2083 -0.0151
  599MOL0     C80763   6.524   7.650   7.662 -0.2548  0.0530 -0.5980
  599MOL0     C80764   6.639   7.721   7.703 -0.2459  0.1755  0.2495
  599MOL0     O80765   6.756   7.664   7.745 -0.6467  1.3061  0.3477
  599MOL0     C80766   6.760   7.523   7.784  0.2495 -0.9749  0.1823
  599MOL0     C80767   6.848   7.502   7.901 -0.0391  0.6466  0.0008
  599MOL0     C80768   6.994   7.485   7.880 -0.0512 -0.0334  0.4326
  599MOL0     C80769   7.054   7.452   8.014  0.2089 -0.0394 -0.2182
  599MOL0     C80770   7.202   7.420   7.997 -0.5021 -0.5098  0.3419
  599MOL0     C80771   7.261   7.384   8.134  0.7694  0.0098 -0.1983
  599MOL0     C80772   7.408   7.345   8.130 -0.0719  1.1327 -0.0149
  599MOL0     C80773   7.458   7.320   8.263 -0.0554 -0.0760 -0.7339
  599MOL0    Cl80774   7.624   7.266   8.243  0.1864  0.3958 -0.0009
  599MOL0     C80775   6.637   7.859   7.710 -0.7352  0.8111  0.1648
  599MOL0     C80776   6.528   7.935   7.680 -0.3371  0.6352  0.2305
  599MOL0     O80777   6.195   7.886   7.778  0.5233  0.5060 -0.5134
  599MOL0     C80778   5.989   8.053   7.710  0.3469  0.7230  0.8806
  599MOL0     C80779   5.862   8.101   7.662 -0.7812 -0.5873  0.2634
  599MOL0     N80780   5.409   7.758   7.079 -0.3596 -0.2597  0.1574
  599MOL0     N80781   5.358   7.801   6.973  0.8137 -0.4599  0.5972
  599MOL0     C80782   4.221   8.497   6.764 -0.1572 -0.2737  0.0600
  599MOL0     C80783   4.125   8.597   6.759 -0.6565 -0.1714 -0.0798
  599MOL0     C80784   3.874   8.962   6.757  0.5783  0.2345 -0.3039
  599MOL0     C80785   3.919   9.050   6.858  0.0618 -0.2152 -0.6691
  599MOL0     C80786   3.843   9.157   6.898 -0.2825 -0.0391  0.1188
  599MOL0     C80787   3.710   9.181   6.851  0.1228 -0.8354  0.1747
  599MOL0     O80788   3.634   9.282   6.900 -0.7091  0.5397  0.1898
  599MOL0     C80789   3.540   9.336   6.802  0.1051  0.6504 -0.1163
  599MOL0     C80790   3.392   9.301   6.844 -0.4302 -0.0997 -0.1783
  599MOL0     C80791   3.285   9.333   6.734  0.2905 -0.2891 -0.3561
  599MOL0     C80792   3.142   9.286   6.777  0.2635 -0.2707 -0.6075
  599MOL0     C80793   3.050   9.362   6.691 -0.1885  0.2057 -0.8678
  599MOL0     C80794   2.982   9.410   6.611  0.0455 -0.1583  1.1092
  599MOL0     C80795   3.662   9.082   6.760 -0.5965  0.5286  0.2678
  599MOL0     C80796   3.743   8.984   6.711 -0.7074 -0.7968 -0.8033
  599MOL0     C80797   3.675   8.903   6.600  0.2764 -0.1410  0.3685
  599MOL0     H80798   4.326   8.866   6.678 -0.6728 -1.0696 -1.9538
  599MOL0     H80799   4.492   8.696   6.670  0.5124 -0.1569  0.8346
  599MOL0     H80800   4.466   8.452   6.926  2.4955  0.7593 -0.8183
  599MOL0     H80801   4.386   8.308   6.856 -0.6486  0.5657 -1.2504
  599MOL0     H80802   4.657   8.297   6.939  0.7731 -3.4784 -0.5130
  599MOL0     H80803   4.678   8.401   6.785 -0.7382 -1.7161 -2.5565
  599MOL0     H80804   4.565   8.211   6.675 -0.8584  0.0983  1.0018
  599MOL0     H80805   4.592   8.120   6.811  0.3256  0.4060  0.9136
  599MOL0     H80806   4.774   8.090   6.635  2.0128 -0.0471  0.2101
  599MOL0     H80807   4.834   8.254   6.675  0.6517 -0.5912 -0.7218
  599MOL0     H80808   4.839   8.174   6.923  2.1043  0.8405 -0.2242
  599MOL0     H80809   4.793   8.021   6.867  1.1190 -0.2477  1.4911
  599MOL0     H80810   4.982   8.018   6.709 -1.1690  1.0411 -1.1772
  599MOL0     H80811   5.050   8.163   6.793  0.1829  0.0402  1.7254
  599MOL0     H80812   5.015   7.875   6.914 -3.0822  0.9265  1.1647
  599MOL0     H80813   5.042   8.035   7.013 -1.1502  1.2301 -0.1570
  599MOL0     H80814   5.225   7.915   6.795  0.2122 -0.7331 -0.5509
  599MOL0     H80815   5.235   8.075   6.857 -1.4767  1.6726  1.4239
  599MOL0     H80816   5.253   8.034   7.169  2.1102  1.0119  1.8563
  599MOL0     H80817   5.347   7.829   7.379  0.6457 -4.2780 -0.2459
  599MOL0     H80818   5.506   7.775   7.327 -0.7247 -0.0685  0.3837
  599MOL0     H80819   5.587   8.010   7.303 -1.1817  4.0682 -0.2484
  599MOL0     H80820   5.434   8.071   7.358 -0.6571 -0.3714 -0.6728
  599MOL0     H80821   5.627   7.898   7.522 -0.8986 -1.5729 -2.6442
  599MOL0     H80822   5.448   7.955   7.558 -0.9760  1.5399 -2.0343
  599MOL0     H80823   5.608   8.117   7.661  0.0354 -1.6501 -0.6349
  599MOL0     H80824   5.511   8.189   7.531 -2.1219 -0.8021  1.7592
  599MOL0     H80825   5.889   8.041   7.342  0.7129 -0.4369 -0.3838
  599MOL0     H80826   6.126   7.967   7.411 -0.6046 -2.0166  1.1039
  599MOL0     H80827   6.337   7.674   7.583  0.9260 -2.6042  2.1113
  599MOL0     H80828   6.521   7.542   7.660  1.1777 -0.0835  1.5450
  599MOL0     H80829   6.660   7.492   7.816 -0.2476  0.3248 -0.0518
  599MOL0     H80830   6.798   7.463   7.701  0.4282  0.8054 -1.0779
  599MOL0     H80831   6.837   7.579   7.979 -0.5206 -2.0940  2.8386
  599MOL0     H80832   6.809   7.408   7.941  1.4956  1.3011  3.4307
  599MOL0     H80833   7.021   7.414   7.801  1.4570  1.4352 -0.4362
  599MOL0     H80834   7.039   7.580   7.850  0.0368 -0.1826  0.0889
  599MOL0     H80835   6.998   7.368   8.056  0.4053  0.1492  0.4350
  599MOL0     H80836   7.052   7.532   8.089  1.8447 -0.0903 -0.0890
  599MOL0     H80837   7.266   7.501   7.962  2.4025 -3.0911 -0.8527
  599MOL0     H80838   7.207   7.338   7.925  0.1411  0.5519 -0.8588
  599MOL0     H80839   7.252   7.476   8.192  3.5452  1.6360 -2.0708
  599MOL0     H80840   7.195   7.316   8.189 -0.6076 -0.2058 -2.0013
  599MOL0     H80841   7.465   7.420   8.074 -0.8074  2.0735  0.4666
  599MOL0     H80842   7.406   7.255   8.067  1.3349  1.6690 -0.8811
  599MOL0     H80843   7.461   7.409   8.326  0.9634 -0.3728 -0.3348
  599MOL0     H80844   7.391   7.247   8.309 -0.9123  0.0635 -1.7286
  599MOL0     H80845   6.728   7.902   7.751 -1.3988  1.9174  0.5447
  599MOL0     H80846   6.533   8.043   7.671 -0.4903  0.5506 -1.0196
  599MOL0     H80847   6.004   8.052   7.818  3.7625  1.2475  0.5433
  599MOL0     H80848   5.795   8.139   7.738  0.3367 -1.3638  1.6816
  599MOL0     H80849   4.212   8.392   6.787 -0.0673 -0.3042 -0.0402
  599MOL0     H80850   4.030   8.558   6.794 -0.0627 -0.3999  1.3865
  599MOL0     H80851   4.022   9.029   6.885 -0.5696 -3.5522 -0.3190
  599MOL0     H80852   3.884   9.226   6.971  0.5948  0.9670 -1.2578
  599MOL0     H80853   3.560   9.294   6.703  1.7194  0.9969  0.0460
  599MOL0     H80854   3.554   9.444   6.786  0.2047  0.3504 -2.4391
  599MOL0     H80855   3.358   9.340   6.940 -0.3822 -0.1949 -0.1227
  599MOL0     H80856   3.391   9.192   6.849  0.9948 -0.0758  2.3723
  599MOL0     H80857   3.313   9.285   6.640  1.1282  2.6285 -1.7239
  599MOL0     H80858   3.283   9.441   6.715  2.5078  0.2241  1.8948
  599MOL0     H80859   3.120   9.182   6.752 -0.9877 -0.6939  1.9418
  599MOL0     H80860   3.112   9.300   6.881  1.8402 -0.0093 -0.1732
  599MOL0     H80861   2.924   9.454   6.533  0.1205 -3.3455 -0.9355
  599MOL0     H80862   3.557   9.089   6.732 -1.0576 -1.5437  1.3106
  599MOL0     H80863   3.728   8.925   6.508  0.9566  0.2571  0.8488
  599MOL0     H80864   3.691   8.796   6.618  1.5806 -0.4410 -2.1487
  599MOL0     H80865   3.572   8.922   6.568  0.3274  0.6237  0.6335
  600MOL0     O80866   5.978  10.677   2.378 -0.0404  0.4773  0.1902
  600MOL0     C80867   5.923  10.569   2.355  1.0931  0.4716  0.0215
  600MOL0     O80868   5.988  10.456   2.303  0.5434 -0.7402  0.4750
  600MOL0     C80869   6.118  10.427   2.330  0.1265 -0.3734 -0.8436
  600MOL0     C80870   6.171  10.434   2.460 -0.0050  0.3515  0.2770
  600MOL0     C80871   6.310  10.412   2.477 -0.0348  0.0683  0.1216
  600MOL0     C80872   6.391  10.359   2.372 -0.0536  0.1267 -0.2092
  600MOL0     O80873   6.523  10.329   2.391 -0.1527  0.3113 -0.5170
  600MOL0     C80874   6.592  10.396   2.499 -0.7712 -0.5896  0.0528
  600MOL0     C80875   6.739  10.371   2.483 -0.2480 -0.1445 -0.3551
  600MOL0     C80876   6.815  10.409   2.607 -0.3416  0.6567  0.4419
  600MOL0     C80877   6.971  10.413   2.574 -0.1000 -0.3865 -0.3460
  600MOL0     C80878   7.054  10.429   2.709  0.2062  0.3789  0.5289
  600MOL0     C80879   7.207  10.408   2.686 -0.2561 -0.2800  0.3269
  600MOL0     C80880   7.267  10.469   2.813  0.6450  0.1418 -0.1096
  600MOL0     C80881   7.424  10.441   2.816  0.3822 -0.4977 -0.8927
  600MOL0     N80882   7.464  10.459   2.957  0.5105 -0.1284  0.5725
  600MOL0     C80883   7.543  10.372   3.027 -0.1854  0.5614  0.4084
  600MOL0     C80884   7.558  10.428   3.148 -0.7929  0.1452  0.2297
  600MOL0     C80885   7.616  10.362   3.267 -0.6395  0.3976 -0.4252
  600MOL0     C80886   7.764  10.392   3.290  0.5341 -0.3801  0.0369
  600MOL0     C80887   7.806  10.316   3.421 -0.6060 -0.3994  0.7221
  600MOL0     C80888   7.964  10.297   3.436  0.4764 -0.5824 -0.5516
  600MOL0     O80889   7.990  10.169   3.384  0.2224 -0.0696  0.0286
  600MOL0     C80890   8.096  10.160   3.296  0.5619 -0.1077  0.5683
  600MOL0     C80891   8.214  10.109   3.348  0.3402 -0.3352 -0.0828
  600MOL0     C80892   8.335  10.113   3.278  0.6515 -0.1199  0.4567
  600MOL0     C80893   8.335  10.186   3.152 -0.6646  0.5839 -0.5396
  600MOL0     C80894   8.457  10.197   3.071 -0.5231  0.0192 -0.4603
  600MOL0     O80895   8.569  10.136   3.129  0.4046  0.4364  0.1997
  600MOL0     C80896   8.680  10.154   3.056  0.4786  1.0649 -0.5289
  600MOL0     C80897   8.768  10.244   3.103  0.1773 -0.2241 -0.1928
  600MOL0     C80898   8.889  10.264   3.046  0.2293 -0.3442  0.3430
  600MOL0     C80899   8.925  10.194   2.933  0.0786 -0.1558 -0.0864
  600MOL0     O80900   9.052  10.225   2.885 -0.2853 -0.3522 -0.1424
  600MOL0     C80901   9.069  10.210   2.745 -0.2413  0.0919  0.3081
  600MOL0     C80902   9.198  10.284   2.700  0.1877 -0.6888 -0.5357
  600MOL0     C80903   9.329  10.212   2.746 -0.2896 -0.4755  0.1602
  600MOL0     C80904   9.453  10.290   2.706 -0.2399 -0.4357 -1.1142
  600MOL0     C80905   9.474  10.431   2.757  0.2600  0.0775  0.3188
  600MOL0     C80906   9.462  10.450   2.911 -0.3815  0.2626  0.4916
  600MOL0     C80907   9.480  10.601   2.939  0.6673 -0.7404 -0.7439
  600MOL0     C80908   9.525  10.638   3.086 -0.0170  1.0264 -0.5686
  600MOL0    Cl80909   9.705  10.614   3.095  0.0613  0.0048  0.2406
  600MOL0     C80910   8.822  10.120   2.870 -0.5054  0.2702  0.8258
  600MOL0     C80911   8.697  10.102   2.929 -0.2635 -0.4434  0.3717
  600MOL0     O80912   8.451  10.248   2.961 -0.1245  0.3632 -0.4554
  600MOL0     C80913   8.219  10.239   3.101 -0.2791  0.6449 -0.1395
  600MOL0     C80914   8.096  10.217   3.169 -0.3983 -0.4819 -0.3699
  600MOL0     N80915   7.483  10.544   3.155 -0.0787  0.0053  0.1470
  600MOL0     N80916   7.437  10.564   3.039 -0.4788 -0.4741  0.2208
  600MOL0     C80917   6.339  10.353   2.242  0.0992  0.0531  0.3393
  600MOL0     C80918   6.200  10.378   2.222 -0.2171  0.7602 -0.4837
  600MOL0     C80919   5.770  10.559   2.350 -0.1577 -0.3376 -0.4967
  600MOL0     C80920   5.712  10.474   2.260 -0.0287 -0.4989 -0.0550
  600MOL0     C80921   5.576  10.458   2.256  0.2592 -0.3423  0.3233
  600MOL0     C80922   5.488  10.534   2.333 -0.1894 -0.1870 -1.0398
  600MOL0     O80923   5.356  10.501   2.309 -0.0001  0.1423  0.1492
  600MOL0     C80924   5.252  10.563   2.381 -0.1864  0.3479  0.4468
  600MOL0     C80925   5.120  10.547   2.298  0.3301 -0.2297  0.4331
  600MOL0     C80926   4.994  10.603   2.360  0.3897  0.7325  0.6702
  600MOL0     C80927   4.888  10.611   2.248 -1.2306  1.0446 -0.4644
  600MOL0     C80928   4.779  10.687   2.314 -0.4776  0.5043  0.7733
  600MOL0     C80929   4.696  10.752   2.362  0.1288 -0.1733 -0.2411
  600MOL0     C80930   5.547  10.625   2.429 -0.6110  0.4881 -0.1598
  600MOL0     C80931   5.690  10.647   2.435 -0.2693  0.9313  0.3151
  600MOL0     C80932   5.740  10.738   2.548  0.0649  0.0181  0.2469
  600MOL0     H80933   6.116  10.473   2.546  1.7953  2.7062  0.4635
  600MOL0     H80934   6.350  10.431   2.576 -1.1813 -2.9193  1.2392
  600MOL0     H80935   6.565  10.502   2.513  1.1083  0.4658 -3.2335
  600MOL0     H80936   6.561  10.334   2.584 -0.7218 -0.4538  0.1718
  600MOL0     H80937   6.777  10.429   2.398  1.6797 -0.4205  0.2845
  600MOL0     H80938   6.755  10.266   2.458  0.5266  0.2048 -1.3880
  600MOL0     H80939   6.800  10.340   2.690  0.7040  1.7009  1.5272
  600MOL0     H80940   6.794  10.511   2.640  1.7623  0.5420  2.3363
  600MOL0     H80941   6.994  10.318   2.523  2.0661  0.4470 -1.0511
  600MOL0     H80942   6.995  10.491   2.501  0.7504 -0.6812 -0.4050
  600MOL0     H80943   7.030  10.529   2.748 -5.0532 -0.1026 -0.7063
  600MOL0     H80944   7.018  10.357   2.783  1.0071 -1.4554 -0.7971
  600MOL0     H80945   7.234  10.304   2.671 -1.0333 -0.3545 -0.6685
  600MOL0     H80946   7.243  10.463   2.599 -1.8646  0.2833 -0.0347
  600MOL0     H80947   7.228  10.414   2.900  0.1011 -0.0699 -0.4827
  600MOL0     H80948   7.240  10.575   2.809 -1.1840 -0.2824 -0.2195
  600MOL0     H80949   7.473  10.347   2.790 -0.2649 -1.9333  2.5084
  600MOL0     H80950   7.467  10.517   2.750 -1.3082  0.5812 -0.8074
  600MOL0     H80951   7.559  10.268   2.999  0.5563  1.4035 -2.7130
  600MOL0     H80952   7.575  10.404   3.358  0.8336  1.6772 -0.3048
  600MOL0     H80953   7.598  10.254   3.261  0.2713  0.1315  1.0724
  600MOL0     H80954   7.823  10.362   3.203  1.1445  1.7254 -0.3277
  600MOL0     H80955   7.781  10.499   3.304 -2.0415 -0.0306  0.9191
  600MOL0     H80956   7.761  10.217   3.425  0.8975 -1.4398 -3.2348
  600MOL0     H80957   7.781  10.378   3.508  0.4441  3.3623 -1.4237
  600MOL0     H80958   7.995  10.307   3.540 -0.6087 -1.2335 -0.1553
  600MOL0     H80959   8.013  10.376   3.377 -1.1393  0.9218  0.0477
  600MOL0     H80960   8.212  10.061   3.445 -0.8581 -3.5751 -1.5610
  600MOL0     H80961   8.426  10.072   3.321  1.3569  1.4404  0.5012
  600MOL0     H80962   8.744  10.292   3.198 -1.3141  0.3662 -0.8384
  600MOL0     H80963   8.958  10.330   3.098  0.5245  0.1317 -0.6220
  600MOL0     H80964   9.091  10.105   2.728  1.1373  0.4414 -0.1712
  600MOL0     H80965   8.982  10.246   2.687 -0.2362  1.8823  1.3358
  600MOL0     H80966   9.201  10.285   2.590 -0.9451 -1.7244 -0.5915
  600MOL0     H80967   9.184  10.387   2.734 -1.6098  0.1834 -3.5447
  600MOL0     H80968   9.333  10.211   2.856  3.2530  0.1471  0.1342
  600MOL0     H80969   9.344  10.114   2.701  2.4017  0.9940 -2.4728
  600MOL0     H80970   9.457  10.290   2.597 -0.6886 -0.3211 -1.1331
  600MOL0     H80971   9.532  10.233   2.755 -1.0594  0.7473  1.8396
  600MOL0     H80972   9.409  10.494   2.696  0.5736 -0.8543 -1.0326
  600MOL0     H80973   9.577  10.455   2.728  1.2183 -2.4859  1.3253
  600MOL0     H80974   9.376  10.405   2.961  1.0534 -2.0298  1.0705
  600MOL0     H80975   9.554  10.399   2.944  2.3686  2.6018 -2.8607
  600MOL0     H80976   9.392  10.662   2.915  0.8940 -1.8697 -5.4906
  600MOL0     H80977   9.557  10.639   2.871  2.0232 -0.2871  0.9793
  600MOL0     H80978   9.499  10.741   3.111 -0.2667  0.7354  0.4123
  600MOL0     H80979   9.481  10.576   3.165  1.2973 -0.1407 -0.7053
  600MOL0     H80980   8.839  10.073   2.774  0.3505  1.2770  0.4724
  600MOL0     H80981   8.632  10.038   2.870  0.4059 -1.4783  0.7354
  600MOL0     H80982   8.226  10.303   3.013  3.5781  1.6316  0.6824
  600MOL0     H80983   8.005  10.270   3.143  0.6769  2.5353  1.4321
  600MOL0     H80984   6.397  10.318   2.158 -2.0775 -2.8148 -0.1210
  600MOL0     H80985   6.149  10.374   2.126 -3.4440 -1.2748  1.1371
  600MOL0     H80986   5.774  10.412   2.195  1.9393  1.6300 -0.3357
  600MOL0     H80987   5.541  10.386   2.183  1.6394 -0.0718 -0.6550
  600MOL0     H80988   5.270  10.670   2.397  2.1898  0.2302 -0.9575
  600MOL0     H80989   5.232  10.518   2.478  0.9685  0.3929  0.7202
  600MOL0     H80990   5.112  10.440   2.276  0.3714 -0.2203  0.3668
  600MOL0     H80991   5.129  10.601   2.204 -3.3414  2.3023  1.3589
  600MOL0     H80992   5.002  10.690   2.426 -3.3623 -1.2921  4.2236
  600MOL0     H80993   4.955  10.533   2.434  0.3732  0.6540  0.5879
  600MOL0     H80994   4.923  10.658   2.156  2.2894  0.1802  0.3124
  600MOL0     H80995   4.843  10.515   2.222 -1.4445  0.6653  1.1529
  600MOL0     H80996   4.630  10.812   2.422 -2.7475  2.2055 -5.1380
  600MOL0     H80997   5.481  10.679   2.497 -1.1272  0.2939 -0.5028
  600MOL0     H80998   5.681  10.741   2.640  2.2883  0.4424  1.7342
  600MOL0     H80999   5.840  10.708   2.580  0.9146  2.4503  0.0669
  600MOL0     H81000   5.742  10.838   2.504 -3.4634  0.4646  0.7861
  601MOL0     O81001   7.513   4.620   1.631  0.2580 -0.5109  0.3988
  601MOL0     C81002   7.406   4.613   1.691 -0.3574 -1.0457 -0.3690
  601MOL0     O81003   7.393   4.616   1.832  0.3225 -0.3077 -0.7619
  601MOL0     C81004   7.507   4.623   1.909  0.8707  0.0483  0.0443
  601MOL0     C81005   7.552   4.751   1.932  0.0991  0.2847 -1.2467
  601MOL0     C81006   7.667   4.784   2.014  0.8865  0.3411 -0.3963
  601MOL0     C81007   7.722   4.684   2.090 -0.6097  0.1510  0.2294
  601MOL0     O81008   7.823   4.713   2.180  0.1463 -0.5088  0.2958
  601MOL0     C81009   7.905   4.604   2.239  0.1588  0.0929  0.0515
  601MOL0     C81010   8.024   4.654   2.325  0.4639  0.0065 -0.1582
  601MOL0     C81011   7.969   4.714   2.459  0.3639 -0.0760 -0.1768
  601MOL0     C81012   8.076   4.718   2.570 -0.0608 -0.3252 -0.4115
  601MOL0     C81013   8.168   4.843   2.571  1.2810 -0.5491  0.5273
  601MOL0     C81014   8.110   4.979   2.615  0.6717 -0.2603 -0.2047
  601MOL0     C81015   8.207   5.091   2.587  0.1616 -0.1615 -0.0023
  601MOL0     C81016   8.357   5.061   2.628  0.1762  0.4127  0.3158
  601MOL0     N81017   8.421   5.187   2.654  0.3223  0.0959  0.3932
  601MOL0     C81018   8.482   5.272   2.569 -0.5201  0.4010 -0.3291
  601MOL0     C81019   8.524   5.375   2.640 -0.1425  0.0097 -0.5817
  601MOL0     C81020   8.602   5.494   2.584  0.1043  0.2143 -0.4268
  601MOL0     C81021   8.757   5.460   2.569 -0.0925  0.0710  0.4410
  601MOL0     C81022   8.835   5.593   2.590  0.0296  1.0378  0.9238
  601MOL0     C81023   8.983   5.574   2.568 -0.9420  0.1827  0.1199
  601MOL0     O81024   9.052   5.694   2.612 -0.5446 -0.6151 -0.0475
  601MOL0     C81025   9.184   5.702   2.575 -0.6004  0.1006  0.1673
  601MOL0     C81026   9.247   5.823   2.592  0.9475  0.2877 -1.2443
  601MOL0     C81027   9.376   5.850   2.566 -0.6431  0.5732  0.1632
  601MOL0     C81028   9.469   5.748   2.523 -0.3514 -0.6258  0.0591
  601MOL0     C81029   9.611   5.768   2.500  0.3402 -0.2714 -0.2931
  601MOL0     O81030   9.680   5.663   2.445  0.1891  0.7499 -0.3198
  601MOL0     C81031   9.817   5.695   2.445  0.6500  0.8791  0.2705
  601MOL0     C81032   9.879   5.757   2.334 -0.0993  0.5863  0.1436
  601MOL0     C81033  10.019   5.781   2.331  1.0369  0.1483 -0.6855
  601MOL0     C81034  10.092   5.746   2.452 -0.0258 -0.2148  0.3133
  601MOL0     O81035  10.228   5.754   2.477  0.5506  0.0684  0.6121
  601MOL0     C81036  10.297   5.839   2.385 -0.1626 -0.0478  0.1680
  601MOL0     C81037  10.454   5.844   2.414  0.1064 -0.3832 -0.2507
  601MOL0     C81038  10.511   5.705   2.421  0.2618  0.2147 -0.2177
  601MOL0     C81039  10.671   5.690   2.446 -0.1029 -0.1592 -0.5745
  601MOL0     C81040  10.709   5.540   2.426 -0.4453  0.7071  0.7303
  601MOL0     C81041  10.849   5.512   2.488  0.6201  0.6337 -0.2570
  601MOL0     C81042  10.912   5.367   2.461  0.5165 -0.6478 -0.2213
  601MOL0     C81043  10.938   5.329   2.319 -0.0294 -0.3541 -0.1530
  601MOL0    Cl81044  11.095   5.395   2.264  0.3444  0.4590 -0.1005
  601MOL0     C81045  10.018   5.688   2.559 -0.7686  0.3291 -0.2156
  601MOL0     C81046   9.884   5.659   2.556 -0.6506 -1.2691 -0.9192
  601MOL0     O81047   9.650   5.885   2.519  0.1350 -0.7185  0.6272
  601MOL0     C81048   9.412   5.620   2.520 -0.0006 -0.4623 -1.2322
  601MOL0     C81049   9.276   5.598   2.551 -0.4065  0.2250  0.6677
  601MOL0     N81050   8.493   5.348   2.773  0.0517 -0.1338  0.7046
  601MOL0     N81051   8.426   5.237   2.781 -0.1992  0.0216  0.4864
  601MOL0     C81052   7.680   4.549   2.065  0.4238 -0.3817 -0.1698
  601MOL0     C81053   7.577   4.517   1.971  0.0183  0.2394 -0.8068
  601MOL0     C81054   7.284   4.598   1.605 -0.7580 -0.1371  0.5083
  601MOL0     C81055   7.294   4.627   1.466  0.1869 -0.3171 -0.5761
  601MOL0     C81056   7.182   4.604   1.385 -0.1666  0.7859 -0.0254
  601MOL0     C81057   7.066   4.566   1.436  0.3768 -0.2192  0.5303
  601MOL0     O81058   6.963   4.537   1.345 -0.1668  0.2121 -0.3844
  601MOL0     C81059   6.844   4.466   1.396 -0.4304 -0.4032 -0.8177
  601MOL0     C81060   6.758   4.397   1.285 -0.4187 -0.3116  0.6647
  601MOL0     C81061   6.713   4.496   1.179 -0.0692  0.0356 -0.1031
  601MOL0     C81062   6.628   4.412   1.083 -0.6449  0.3383  0.3695
  601MOL0     C81063   6.560   4.493   0.973 -0.9151 -0.7752  0.4270
  601MOL0     C81064   6.491   4.552   0.884 -0.0583 -0.7849  0.6304
  601MOL0     C81065   7.053   4.540   1.575  0.3030 -0.2994 -1.2315
  601MOL0     C81066   7.164   4.544   1.665  0.3234 -0.8659  0.0412
  601MOL0     C81067   7.151   4.500   1.805 -0.1509 -0.7446 -0.2483
  601MOL0     H81068   7.497   4.836   1.892 -0.3301  0.8626  0.5004
  601MOL0     H81069   7.689   4.889   2.027  0.2377  0.6325 -1.5630
  601MOL0     H81070   7.842   4.532   2.292 -1.5985  0.4600 -1.4490
  601MOL0     H81071   7.953   4.560   2.151  1.4753 -0.0676  0.8235
  601MOL0     H81072   8.084   4.730   2.275  0.6554  1.6131  2.3233
  601MOL0     H81073   8.086   4.564   2.334  1.2405  0.2235 -2.6191
  601MOL0     H81074   7.883   4.660   2.499  0.0138  0.8080  0.3033
  601MOL0     H81075   7.930   4.814   2.438 -0.8549 -0.5938 -0.4581
  601MOL0     H81076   8.041   4.692   2.670  0.9522 -2.1405 -0.5025
  601MOL0     H81077   8.138   4.632   2.544  1.2130  1.1050 -2.4371
  601MOL0     H81078   8.258   4.812   2.625  1.2834 -0.2490  0.6958
  601MOL0     H81079   8.198   4.851   2.466 -1.9824 -0.5205 -0.5015
  601MOL0     H81080   8.010   4.991   2.572 -0.0600  2.3458  1.9022
  601MOL0     H81081   8.086   4.971   2.722 -1.9422  1.5473 -0.5610
  601MOL0     H81082   8.167   5.180   2.636 -3.2210 -1.1142 -0.7714
  601MOL0     H81083   8.197   5.105   2.479 -1.3415  1.9145  0.3559
  601MOL0     H81084   8.357   4.997   2.716  0.0607  0.2648  0.2085
  601MOL0     H81085   8.409   5.011   2.545 -0.1163  2.3600 -1.1271
  601MOL0     H81086   8.494   5.258   2.462 -4.1354 -0.7574 -0.7321
  601MOL0     H81087   8.569   5.510   2.481  1.8754 -2.3033 -1.4926
  601MOL0     H81088   8.579   5.584   2.643  0.1954 -0.9552  1.4914
  601MOL0     H81089   8.800   5.384   2.635  0.8599 -1.7902 -2.1577
  601MOL0     H81090   8.781   5.432   2.466 -0.9966 -1.3746  0.6111
  601MOL0     H81091   8.823   5.631   2.692 -1.2077 -0.3370  1.3272
  601MOL0     H81092   8.803   5.664   2.514  1.9938 -0.3957 -1.4050
  601MOL0     H81093   9.017   5.554   2.466  1.4801  2.6448  0.3102
  601MOL0     H81094   9.015   5.489   2.629 -0.7929 -1.2279 -1.8362
  601MOL0     H81095   9.187   5.904   2.634  2.6057  0.9567 -0.0431
  601MOL0     H81096   9.416   5.950   2.576  4.0163 -0.6792 -2.5861
  601MOL0     H81097   9.820   5.794   2.251 -2.0198  3.6353  2.6583
  601MOL0     H81098  10.068   5.824   2.244  1.5567  1.4731  0.2191
  601MOL0     H81099  10.303   5.810   2.280  0.0345  0.1295  0.1284
  601MOL0     H81100  10.260   5.941   2.392  0.7321  0.2437  1.0030
  601MOL0     H81101  10.506   5.903   2.337  0.2608  1.2651  1.0619
  601MOL0     H81102  10.465   5.896   2.510  0.8630  1.4323 -1.2539
  601MOL0     H81103  10.460   5.657   2.505 -0.6993 -0.6641 -1.2670
  601MOL0     H81104  10.479   5.647   2.334 -0.3137  1.1175 -0.6258
  601MOL0     H81105  10.688   5.714   2.551 -1.6379  0.8835 -0.5363
  601MOL0     H81106  10.723   5.762   2.383  0.5343 -2.0293 -2.2748
  601MOL0     H81107  10.711   5.519   2.318  1.7114 -0.7215  1.0081
  601MOL0     H81108  10.631   5.484   2.479 -1.1768  1.0434  0.0349
  601MOL0     H81109  10.916   5.596   2.470 -0.8467  1.5810 -1.4947
  601MOL0     H81110  10.825   5.503   2.595 -1.5891 -3.0192 -0.8783
  601MOL0     H81111  10.844   5.295   2.506 -0.0632 -0.4980 -0.8357
  601MOL0     H81112  11.012   5.362   2.507  1.5658  1.1943 -2.1038
  601MOL0     H81113  10.954   5.221   2.324  1.9820 -0.0547  3.5437
  601MOL0     H81114  10.851   5.346   2.255 -1.3329  0.8518  1.8131
  601MOL0     H81115  10.071   5.673   2.653 -0.2555  1.5038 -0.2930
  601MOL0     H81116   9.830   5.612   2.638  0.1820 -1.2850 -0.3637
  601MOL0     H81117   9.466   5.531   2.489 -1.0947 -2.1420  1.3515
  601MOL0     H81118   9.249   5.495   2.574 -0.6061  0.1373  0.0545
  601MOL0     H81119   7.733   4.470   2.118  0.4822  0.2908  0.8044
  601MOL0     H81120   7.547   4.414   1.956 -0.3797  0.0047  1.2837
  601MOL0     H81121   7.387   4.674   1.435 -0.3110  1.1136 -0.0071
  601MOL0     H81122   7.186   4.599   1.276 -0.3312 -1.6840  0.0098
  601MOL0     H81123   6.783   4.535   1.456  0.9996  1.2323 -1.1667
  601MOL0     H81124   6.884   4.389   1.462  0.2328  0.4180 -0.2292
  601MOL0     H81125   6.674   4.348   1.335 -1.5093 -1.2938 -1.9283
  601MOL0     H81126   6.826   4.328   1.233  1.8719  2.2008  0.1155
  601MOL0     H81127   6.791   4.556   1.131 -0.3607  0.7032  0.2333
  601MOL0     H81128   6.649   4.575   1.221  1.1136  1.3963 -0.7611
  601MOL0     H81129   6.698   4.343   1.037 -0.3763  1.4583 -0.9906
  601MOL0     H81130   6.557   4.356   1.144  1.5672 -3.7527 -0.4663
  601MOL0     H81131   6.414   4.581   0.816 -1.3261  0.3900  2.4841
  601MOL0     H81132   6.959   4.523   1.626  1.4099  2.0577  1.8994
  601MOL0     H81133   7.056   4.448   1.816  0.4041 -1.5915  0.7531
  601MOL0     H81134   7.228   4.431   1.840 -1.3873 -1.6979  0.6684
  601MOL0     H81135   7.134   4.580   1.878 -4.7242 -0.5028 -1.3173
  602MOL0     O81136  10.580   0.310   5.179  0.4006 -0.0803 -0.3413
  602MOL0     C81137  10.528   0.379   5.263  0.0110 -0.2797 -0.1344
  602MOL0     O81138  10.599   0.434   5.368 -0.3464  0.1581 -0.0440
  602MOL0     C81139  10.739   0.452   5.359 -0.3599 -0.6648  1.2095
  602MOL0     C81140  10.814   0.439   5.475  1.0921  0.5369 -0.0493
  602MOL0     C81141  10.958   0.440   5.474 -0.4594  0.3371  0.1829
  602MOL0     C81142  11.034   0.455   5.353 -0.2323  1.0026  0.0523
  602MOL0     O81143  11.175   0.453   5.365 -0.0403 -0.2845  1.1465
  602MOL0     C81144  11.245   0.504   5.251  0.1560 -0.2411  0.7013
  602MOL0     C81145  11.395   0.506   5.277 -0.2915  0.3360 -0.8280
  602MOL0     C81146  11.486   0.551   5.159 -0.0800 -0.1315 -0.6502
  602MOL0     C81147  11.636   0.571   5.197  0.6497  0.3113 -0.0135
  602MOL0     C81148  11.712   0.609   5.074 -0.2534 -1.1845  0.6489
  602MOL0     C81149  11.867   0.612   5.108  1.3973  0.3800 -0.8660
  602MOL0     C81150  11.955   0.670   5.000  0.0296 -0.8085 -0.5479
  602MOL0     C81151  12.096   0.620   5.008  0.2599  0.4583  1.4229
  602MOL0     N81152  12.182   0.704   4.917 -1.1135 -0.0034 -0.0541
  602MOL0     C81153  12.265   0.807   4.959 -0.6986 -1.2582  0.8961
  602MOL0     C81154  12.334   0.836   4.846 -0.9462 -0.8063  0.2865
  602MOL0     C81155  12.441   0.944   4.823 -0.0762  0.7477  0.0968
  602MOL0     C81156  12.576   0.868   4.822 -0.4011 -0.3149 -0.8583
  602MOL0     C81157  12.686   0.966   4.828 -0.5873  0.1667 -0.1657
  602MOL0     C81158  12.828   0.906   4.848  0.3077  0.3628  0.4469
  602MOL0     O81159  12.907   0.978   4.943 -0.9286 -0.7327 -0.3896
  602MOL0     C81160  13.023   0.927   4.989 -0.3411  0.9244 -0.7478
  602MOL0     C81161  13.075   0.991   5.106  0.5462  0.0688  0.0780
  602MOL0     C81162  13.203   0.956   5.152 -0.0006  0.1847 -0.4298
  602MOL0     C81163  13.274   0.843   5.102  1.6613  0.2119  0.8561
  602MOL0     C81164  13.399   0.791   5.162  0.1131 -0.2503 -0.6329
  602MOL0     O81165  13.462   0.687   5.101 -0.5934  0.0840 -0.4568
  602MOL0     C81166  13.584   0.648   5.153  0.0386 -0.0685  0.4399
  602MOL0     C81167  13.596   0.584   5.271 -1.0303  0.0061 -0.2757
  602MOL0     C81168  13.718   0.523   5.302 -1.2698 -0.3465 -0.3588
  602MOL0     C81169  13.834   0.546   5.222  0.6532  1.3561 -0.7096
  602MOL0     O81170  13.946   0.483   5.279  0.4184 -0.1451 -0.0671
  602MOL0     C81171  14.073   0.541   5.244 -0.3862  0.5848 -0.4780
  602MOL0     C81172  14.187   0.452   5.307  0.0932  0.0774 -0.3593
  602MOL0     C81173  14.331   0.509   5.292  0.1676  0.2102 -0.1478
  602MOL0     C81174  14.425   0.392   5.316 -0.3123  1.0501  0.1871
  602MOL0     C81175  14.573   0.423   5.316  0.1571 -0.0026 -0.1656
  602MOL0     C81176  14.656   0.294   5.297 -0.3666  0.3349 -0.0001
  602MOL0     C81177  14.684   0.227   5.432 -0.3913 -0.5189  0.1834
  602MOL0     C81178  14.739   0.097   5.416 -0.9901 -0.0075  0.8085
  602MOL0    Cl81179  14.636  -0.011   5.320  0.5688 -0.1712 -0.0126
  602MOL0     C81180  13.813   0.616   5.103 -0.7260 -0.8860 -0.7966
  602MOL0     C81181  13.691   0.671   5.068  0.1128 -0.1861 -0.1055
  602MOL0     O81182  13.431   0.852   5.258  0.1017  0.3588  0.3322
  602MOL0     C81183  13.216   0.776   4.988 -1.2057 -0.5989  0.3563
  602MOL0     C81184  13.097   0.820   4.919  0.5058  0.0689  0.2793
  602MOL0     N81185  12.301   0.748   4.739  0.0550  0.7697 -0.4114
  602MOL0     N81186  12.206   0.675   4.791  0.3355 -0.0750  0.3408
  602MOL0     C81187  10.957   0.464   5.235 -0.3400 -0.1573 -1.1176
  602MOL0     C81188  10.817   0.468   5.235  0.3429 -0.5583  0.6429
  602MOL0     C81189  10.383   0.397   5.270  0.4795  0.6286 -0.0040
  602MOL0     C81190  10.338   0.490   5.364  0.2615 -0.0745  0.4216
  602MOL0     C81191  10.203   0.513   5.382 -0.5793 -0.0599 -0.0253
  602MOL0     C81192  10.104   0.463   5.295 -0.6508 -0.2449 -0.6952
  602MOL0     O81193   9.968   0.481   5.290  0.2182 -0.5107 -0.1999
  602MOL0     C81194   9.930   0.579   5.385  0.3738 -0.6912  0.5910
  602MOL0     C81195   9.786   0.603   5.377 -0.1651  0.3263  0.7424
  602MOL0     C81196   9.701   0.486   5.412 -0.4851 -0.1368  0.6423
  602MOL0     C81197   9.574   0.489   5.329 -0.6496 -0.8278 -0.0956
  602MOL0     C81198   9.464   0.413   5.388 -0.5427  1.1360 -0.5795
  602MOL0     C81199   9.365   0.374   5.447 -0.3233 -0.2083 -0.3262
  602MOL0     C81200  10.158   0.383   5.195 -0.0931 -0.0435  0.6990
  602MOL0     C81201  10.289   0.342   5.180  0.2071  0.6828 -0.0374
  602MOL0     C81202  10.314   0.247   5.061  0.0978  0.2005 -0.8203
  602MOL0     H81203  10.747   0.409   5.555  0.9771 -0.1066 -0.3725
  602MOL0     H81204  11.009   0.428   5.569 -0.4573 -0.3245  0.1004
  602MOL0     H81205  11.224   0.436   5.167 -0.2903 -1.6295  1.9020
  602MOL0     H81206  11.225   0.610   5.233  2.0918 -0.1303 -1.3744
  602MOL0     H81207  11.428   0.405   5.303 -3.3043 -0.2825  1.1582
  602MOL0     H81208  11.422   0.572   5.360 -1.8488  2.7717 -2.1314
  602MOL0     H81209  11.439   0.646   5.131 -0.6095 -0.3326 -0.4689
  602MOL0     H81210  11.493   0.475   5.081  2.5638 -1.2993  0.5900
  602MOL0     H81211  11.637   0.650   5.272  1.3292 -1.8136  2.3766
  602MOL0     H81212  11.686   0.480   5.231  4.0579  1.7480 -0.7477
  602MOL0     H81213  11.701   0.547   4.984  0.2449 -0.8048  0.3229
  602MOL0     H81214  11.683   0.710   5.047  0.5267 -1.1121  0.0272
  602MOL0     H81215  11.881   0.678   5.194 -0.2324 -0.1858 -0.1369
  602MOL0     H81216  11.902   0.512   5.136 -2.0459 -0.1265  2.4798
  602MOL0     H81217  11.943   0.779   4.993  1.0861 -0.5782  0.7864
  602MOL0     H81218  11.905   0.642   4.907  0.1332 -2.3877 -0.1487
  602MOL0     H81219  12.134   0.609   5.110 -1.6626 -1.4577  1.9968
  602MOL0     H81220  12.093   0.520   4.965 -0.5737  0.4320  1.5345
  602MOL0     H81221  12.278   0.857   5.054  0.9871  1.4830 -0.6175
  602MOL0     H81222  12.413   0.977   4.723 -1.3737  0.1180  0.2337
  602MOL0     H81223  12.441   1.022   4.900 -0.8322  0.3501  0.5036
  602MOL0     H81224  12.587   0.805   4.911 -1.0242 -0.9309 -1.2069
  602MOL0     H81225  12.585   0.807   4.732 -0.4012  0.9775 -1.7632
  602MOL0     H81226  12.667   1.032   4.913 -0.6503 -1.1855  0.9092
  602MOL0     H81227  12.690   1.030   4.740 -2.9902  1.4802  0.5819
  602MOL0     H81228  12.875   0.916   4.750  2.5728 -1.9059  1.1949
  602MOL0     H81229  12.815   0.803   4.880 -1.9591  1.4309  3.4576
  602MOL0     H81230  13.014   1.077   5.132  1.6590  0.4815  1.4509
  602MOL0     H81231  13.229   1.016   5.238 -4.3934  1.8176  0.0290
  602MOL0     H81232  13.515   0.566   5.341 -0.1109 -5.5153 -0.2172
  602MOL0     H81233  13.715   0.474   5.399 -0.6053  0.7055  0.2068
  602MOL0     H81234  14.089   0.541   5.136  2.3141 -0.6959 -0.1846
  602MOL0     H81235  14.071   0.642   5.285  0.5912 -0.0327  1.2221
  602MOL0     H81236  14.182   0.427   5.414 -0.2789  1.7482  0.0425
  602MOL0     H81237  14.177   0.365   5.243 -0.2573 -0.7241  0.7602
  602MOL0     H81238  14.337   0.550   5.191  1.4384  0.6803  0.0965
  602MOL0     H81239  14.357   0.581   5.371  1.8972  0.0121 -0.4964
  602MOL0     H81240  14.418   0.321   5.233  2.7235 -1.6708  2.0282
  602MOL0     H81241  14.405   0.334   5.406 -0.7974 -2.0266 -1.7394
  602MOL0     H81242  14.604   0.461   5.414 -2.3920 -0.1645  0.7953
  602MOL0     H81243  14.599   0.491   5.235  0.4544 -0.8012 -0.7484
  602MOL0     H81244  14.604   0.222   5.233  0.4733 -2.3349  2.1212
  602MOL0     H81245  14.749   0.332   5.254 -0.5870  0.5904 -0.2514
  602MOL0     H81246  14.586   0.217   5.479  0.0954 -0.7759  1.1709
  602MOL0     H81247  14.747   0.285   5.501  1.9585 -1.8602 -0.6879
  602MOL0     H81248  14.840   0.110   5.374 -0.8725  0.2867  1.1815
  602MOL0     H81249  14.770   0.053   5.511 -0.8187  2.0997  1.7878
  602MOL0     H81250  13.893   0.637   5.032  1.0673 -2.7662  0.5773
  602MOL0     H81251  13.673   0.733   4.981 -2.4797  0.6157  0.9013
  602MOL0     H81252  13.279   0.700   4.943  0.4448  2.2173 -2.4274
  602MOL0     H81253  13.066   0.780   4.823  0.0590  0.4045  0.2829
  602MOL0     H81254  11.019   0.479   5.147 -1.3398  0.3331 -1.7533
  602MOL0     H81255  10.756   0.479   5.146 -0.7009 -1.0978  1.2771
  602MOL0     H81256  10.404   0.521   5.444  0.7117 -2.1441  0.8991
  602MOL0     H81257  10.176   0.558   5.476 -1.1628 -0.0651 -0.1873
  602MOL0     H81258   9.982   0.670   5.356  0.3661 -0.9730 -0.3231
  602MOL0     H81259   9.944   0.554   5.491 -1.6877 -0.6199  0.9154
  602MOL0     H81260   9.773   0.634   5.273  2.3568  2.0856  0.8672
  602MOL0     H81261   9.758   0.684   5.444 -2.8527 -0.3961  0.5982
  602MOL0     H81262   9.685   0.489   5.521  1.9768 -2.9290  1.2235
  602MOL0     H81263   9.764   0.401   5.383 -0.1110  0.4937 -0.4142
  602MOL0     H81264   9.542   0.592   5.310 -1.0977 -0.8630  0.4267
  602MOL0     H81265   9.611   0.464   5.229  3.6310  1.1551  0.7849
  602MOL0     H81266   9.278   0.333   5.494  0.9451 -2.3295  0.3005
  602MOL0     H81267  10.088   0.341   5.123  0.2408 -1.1952  1.0304
  602MOL0     H81268  10.348   0.307   4.976  0.8620  1.7781  0.5412
  602MOL0     H81269  10.396   0.179   5.085 -1.2185 -0.6643  1.4657
  602MOL0     H81270  10.225   0.191   5.030  2.2579 -3.1085 -1.5270
  603MOL0     O81271   5.233   2.616  10.423  0.0719  0.4810  0.9278
  603MOL0     C81272   5.231   2.556  10.531  0.4581  0.9694  0.7610
  603MOL0     O81273   5.337   2.526  10.610 -0.9665 -0.2067  0.6399
  603MOL0     C81274   5.459   2.497  10.561  0.4589 -0.4499  0.6557
  603MOL0     C81275   5.461   2.427  10.438  0.0427  0.1871 -0.1072
  603MOL0     C81276   5.588   2.384  10.395  0.2890 -0.6959 -0.1765
  603MOL0     C81277   5.713   2.412  10.463  0.2843 -0.9602 -0.8456
  603MOL0     O81278   5.839   2.370  10.428 -0.2490  0.1584  0.1075
  603MOL0     C81279   5.832   2.257  10.337 -0.1248  0.1071 -0.2056
  603MOL0     C81280   5.964   2.198  10.300 -0.2055  0.5123  0.6156
  603MOL0     C81281   6.066   2.318  10.265 -0.3920 -0.2307 -0.7796
  603MOL0     C81282   6.196   2.264  10.210 -0.9278  0.3394  0.5452
  603MOL0     C81283   6.295   2.378  10.170  0.6256  0.0639 -0.4560
  603MOL0     C81284   6.421   2.314  10.115 -0.6873  0.4401  0.2317
  603MOL0     C81285   6.516   2.415  10.048  0.8918  0.1085 -0.2164
  603MOL0     C81286   6.649   2.344  10.000  0.0739  0.3568  0.0443
  603MOL0     N81287   6.750   2.439   9.949  0.2512 -0.5314  0.5998
  603MOL0     C81288   6.861   2.501  10.011  0.8854 -0.0835  0.4380
  603MOL0     C81289   6.913   2.583   9.917 -0.4363  0.7720 -0.1118
  603MOL0     C81290   7.020   2.684   9.936  0.6846  0.4541 -0.6082
  603MOL0     C81291   7.138   2.620  10.022  0.1780  0.3342 -0.0372
  603MOL0     C81292   7.271   2.696   9.983  0.3769 -0.0601  0.6187
  603MOL0     C81293   7.389   2.660  10.080 -0.2105  0.0346 -0.8874
  603MOL0     O81294   7.501   2.738  10.062  0.3748 -0.3287  0.2435
  603MOL0     C81295   7.614   2.732  10.142  0.7873 -0.0608  0.6533
  603MOL0     C81296   7.728   2.783  10.089 -0.3047  0.0156  0.2005
  603MOL0     C81297   7.849   2.771  10.147 -0.1126  0.0185  0.5459
  603MOL0     C81298   7.856   2.724  10.276 -0.5126 -0.5824 -0.2594
  603MOL0     C81299   7.991   2.717  10.350 -0.1098  0.3143  0.0625
  603MOL0     O81300   7.999   2.639  10.460 -0.5839 -0.6664 -0.3316
  603MOL0     C81301   8.115   2.620  10.526 -0.0421 -0.1433 -0.2109
  603MOL0     C81302   8.176   2.492  10.523 -0.1473  0.1162 -0.0713
  603MOL0     C81303   8.288   2.464  10.597 -1.2545  0.1352  0.4553
  603MOL0     C81304   8.346   2.561  10.675  0.2407  0.2162 -0.0012
  603MOL0     O81305   8.461   2.526  10.737  0.4369 -0.1562  0.2397
  603MOL0     C81306   8.537   2.612  10.822 -0.2929 -0.4360 -1.0018
  603MOL0     C81307   8.626   2.522  10.901  0.0853  0.0697  0.8533
  603MOL0     C81308   8.749   2.478  10.827  0.0587  0.5644  0.2584
  603MOL0     C81309   8.860   2.409  10.925  0.0656  0.0696  0.3620
  603MOL0     C81310   8.822   2.267  10.971  0.1677  0.0378  0.5329
  603MOL0     C81311   8.922   2.215  11.070 -0.3901 -0.5279  0.2246
  603MOL0     C81312   8.862   2.122  11.158 -0.6714 -0.0518  0.0593
  603MOL0     C81313   8.943   2.100  11.288 -0.2914  0.0767  0.8320
  603MOL0    Cl81314   8.891   1.945  11.365  0.4410  0.5633  0.2401
  603MOL0     C81315   8.290   2.692  10.675 -0.1833 -1.1068  0.0175
  603MOL0     C81316   8.169   2.716  10.610 -0.4098  0.4824  0.9796
  603MOL0     O81317   8.083   2.792  10.302  0.4221  0.3926 -0.1643
  603MOL0     C81318   7.737   2.678  10.340 -0.0685 -0.3293  0.0310
  603MOL0     C81319   7.617   2.665  10.270  0.5536  0.4215  0.6660
  603MOL0     N81320   6.833   2.575   9.807 -1.0335 -0.6497  0.0229
  603MOL0     N81321   6.742   2.492   9.821  0.4886  0.4549  0.1116
  603MOL0     C81322   5.701   2.484  10.583  0.0512 -0.1976  1.0030
  603MOL0     C81323   5.578   2.526  10.635 -0.4431  0.3020 -0.1006
  603MOL0     C81324   5.099   2.482  10.575 -0.0111 -0.4714 -0.9425
  603MOL0     C81325   5.102   2.382  10.676 -0.1366 -0.0254 -0.2553
  603MOL0     C81326   4.987   2.315  10.716  0.3737 -0.3846  0.7645
  603MOL0     C81327   4.865   2.344  10.654 -0.6974  0.6212 -0.3190
  603MOL0     O81328   4.742   2.299  10.692  0.2807  0.3751 -0.1448
  603MOL0     C81329   4.730   2.157  10.716 -0.8005 -0.0798  0.4667
  603MOL0     C81330   4.588   2.110  10.719 -0.9869 -0.4798  0.0862
  603MOL0     C81331   4.514   2.166  10.594  0.1001 -0.1408  0.1376
  603MOL0     C81332   4.372   2.107  10.566 -0.0643  0.0363 -0.5557
  603MOL0     C81333   4.286   2.131  10.677 -0.3254  0.1188  0.0085
  603MOL0     C81334   4.206   2.142  10.762 -0.1018 -0.2935  1.2180
  603MOL0     C81335   4.864   2.440  10.551  0.5805 -0.6026 -0.3730
  603MOL0     C81336   4.970   2.517  10.516 -1.1826 -0.1304  0.5490
  603MOL0     C81337   4.939   2.637  10.432  0.3535  0.1484 -0.3658
  603MOL0     H81338   5.372   2.411  10.378 -1.9155  1.3474  2.2799
  603MOL0     H81339   5.598   2.336  10.298  0.0133  1.0180 -1.0986
  603MOL0     H81340   5.779   2.180  10.393  0.1980 -0.4310 -0.6327
  603MOL0     H81341   5.785   2.286  10.242 -1.8283 -1.6865  0.0241
  603MOL0     H81342   5.955   2.137  10.209  3.4222  2.5077 -1.3299
  603MOL0     H81343   6.002   2.136  10.382  1.1052 -0.0562 -0.3815
  603MOL0     H81344   6.093   2.367  10.359 -0.9336 -0.7197 -0.3578
  603MOL0     H81345   6.023   2.400  10.207 -1.0326 -0.0491 -0.0710
  603MOL0     H81346   6.251   2.205  10.284 -3.3993 -2.1834  0.5307
  603MOL0     H81347   6.177   2.198  10.124 -1.0610  0.0684  0.7799
  603MOL0     H81348   6.251   2.447  10.097  0.0910  3.3151  2.6629
  603MOL0     H81349   6.307   2.443  10.257 -0.2283 -0.9697  0.4638
  603MOL0     H81350   6.469   2.248  10.188  0.5524 -1.1983 -1.9466
  603MOL0     H81351   6.376   2.253  10.036 -2.1773  2.3385 -0.4633
  603MOL0     H81352   6.537   2.501  10.111 -0.1966  0.2130  0.0266
  603MOL0     H81353   6.461   2.454   9.961 -0.9752 -0.1825  0.7755
  603MOL0     H81354   6.687   2.286  10.084  2.0627  0.7502 -0.5221
  603MOL0     H81355   6.630   2.279   9.914  1.7864  2.4813 -2.0864
  603MOL0     H81356   6.889   2.486  10.115  1.3904 -1.0327  0.1811
  603MOL0     H81357   7.054   2.701   9.833  0.9912 -2.0904 -0.9968
  603MOL0     H81358   6.985   2.777   9.980 -0.0851  0.8184 -1.9412
  603MOL0     H81359   7.134   2.628  10.131 -2.1593  0.7194 -0.1024
  603MOL0     H81360   7.140   2.512  10.000 -1.2429  0.2136  0.3335
  603MOL0     H81361   7.241   2.801   9.990  0.0099 -0.1708  0.7434
  603MOL0     H81362   7.293   2.673   9.878 -0.5598  0.3535  0.3166
  603MOL0     H81363   7.410   2.553  10.073  0.1680 -0.0608  0.9501
  603MOL0     H81364   7.354   2.681  10.182  0.8513  1.8616 -0.8583
  603MOL0     H81365   7.719   2.837   9.995 -2.7623  1.3870  1.1261
  603MOL0     H81366   7.935   2.818  10.100 -0.3964 -0.7377 -0.7719
  603MOL0     H81367   8.125   2.419  10.461 -2.7165 -0.1489  2.1796
  603MOL0     H81368   8.330   2.364  10.593  0.5395  0.8784 -1.7393
  603MOL0     H81369   8.592   2.685  10.762 -1.0293  0.9459 -0.0403
  603MOL0     H81370   8.476   2.667  10.894 -0.4861 -0.1370 -1.3930
  603MOL0     H81371   8.658   2.588  10.982  1.3480 -1.4781  1.6631
  603MOL0     H81372   8.570   2.437  10.940  0.3931  0.2030  1.5939
  603MOL0     H81373   8.715   2.409  10.749  0.7000  3.4006 -2.7746
  603MOL0     H81374   8.791   2.562  10.771  0.1647  0.6047  0.3989
  603MOL0     H81375   8.880   2.473  11.011  3.2116 -0.4075  0.0761
  603MOL0     H81376   8.958   2.400  10.877  0.1714 -1.5866  0.8173
  603MOL0     H81377   8.810   2.205  10.882 -1.2944  2.1718 -0.8793
  603MOL0     H81378   8.720   2.260  11.010  0.3300  0.5292  1.0728
  603MOL0     H81379   9.012   2.165  11.031  0.2136 -0.1593  1.1082
  603MOL0     H81380   8.958   2.301  11.127  2.4040 -0.0250 -2.0795
  603MOL0     H81381   8.855   2.024  11.111 -0.8387 -1.0183  1.9828
  603MOL0     H81382   8.758   2.145  11.184 -0.1095  0.4216  2.1055
  603MOL0     H81383   9.052   2.104  11.277 -0.4571  1.0191 -1.0362
  603MOL0     H81384   8.925   2.182  11.358 -4.2220 -0.7290  1.0047
  603MOL0     H81385   8.338   2.770  10.732  0.9203 -1.2583 -0.6734
  603MOL0     H81386   8.126   2.816  10.616  0.8382  1.4379 -2.8900
  603MOL0     H81387   7.751   2.632  10.437 -0.3689 -0.0712  0.1982
  603MOL0     H81388   7.535   2.604  10.308  0.8107 -1.3835 -1.4412
  603MOL0     H81389   5.791   2.499  10.641 -1.3153  2.8729  2.5183
  603MOL0     H81390   5.571   2.568  10.736 -0.1061 -0.8306  0.4047
  603MOL0     H81391   5.194   2.342  10.716 -0.6331 -1.5641 -0.6066
  603MOL0     H81392   4.995   2.241  10.795  1.2821 -1.7345 -0.5317
  603MOL0     H81393   4.793   2.125  10.799 -2.4583 -2.4440  0.9076
  603MOL0     H81394   4.779   2.111  10.629  1.4116  1.9574  0.5383
  603MOL0     H81395   4.539   2.148  10.809 -1.4862 -0.1124 -0.3347
  603MOL0     H81396   4.596   2.002  10.705  1.8789 -0.1253 -1.9956
  603MOL0     H81397   4.571   2.140  10.504 -0.0784  1.0937 -0.3520
  603MOL0     H81398   4.499   2.274  10.583 -2.5754 -0.0706  3.0912
  603MOL0     H81399   4.332   2.146  10.472 -0.6180  2.7234  0.7096
  603MOL0     H81400   4.384   1.998  10.563  2.2771  0.1596  1.4838
  603MOL0     H81401   4.132   2.147  10.839 -3.3900 -1.5540 -1.6412
  603MOL0     H81402   4.772   2.476  10.505  1.4926  0.7116 -1.2298
  603MOL0     H81403   4.835   2.669  10.441  0.6228  1.0413 -0.2937
  603MOL0     H81404   5.005   2.714  10.473 -0.8746  0.3481  1.3377
  603MOL0     H81405   4.966   2.633  10.326 -0.2325 -2.8636 -0.4851
  604MOL0     O81406   3.646   2.585   1.140 -0.6176 -0.0732 -0.4667
  604MOL0     C81407   3.594   2.474   1.135 -0.4634  0.3405 -0.4393
  604MOL0     O81408   3.460   2.446   1.133  0.2206  0.0991 -0.7034
  604MOL0     C81409   3.360   2.528   1.093  0.9303  0.6339  1.3292
  604MOL0     C81410   3.373   2.659   1.045 -0.0577  0.2836 -0.8349
  604MOL0     C81411   3.252   2.723   1.012 -0.7683  0.1077  0.6681
  604MOL0     C81412   3.129   2.662   1.013  0.4149  0.0252 -0.5267
  604MOL0     O81413   3.021   2.735   0.975 -0.1195  0.2519  0.6190
  604MOL0     C81414   2.984   2.812   1.095  1.1327 -0.3924  0.6232
  604MOL0     C81415   2.877   2.915   1.055 -0.3784 -0.0658  0.2111
  604MOL0     C81416   2.752   2.864   0.979 -0.3749 -0.2730  0.0820
  604MOL0     C81417   2.663   2.993   0.965  0.1437  0.1676  0.4213
  604MOL0     C81418   2.528   2.961   0.907  0.0387  0.8418 -0.0927
  604MOL0     C81419   2.467   3.097   0.886  0.1532  0.0840  0.2003
  604MOL0     C81420   2.310   3.103   0.873  0.8464 -0.2507 -0.1485
  604MOL0     C81421   2.250   3.054   0.739 -0.7965 -0.0145 -0.1952
  604MOL0     N81422   2.274   3.155   0.629  0.6271  0.8803 -0.7202
  604MOL0     C81423   2.354   3.133   0.519 -0.6279  0.2667 -0.2187
  604MOL0     C81424   2.326   3.251   0.450  0.3353  0.9199 -0.1514
  604MOL0     C81425   2.399   3.288   0.332  0.1674 -0.4158 -0.0256
  604MOL0     C81426   2.554   3.282   0.349 -0.1278 -0.2421 -0.0018
  604MOL0     C81427   2.627   3.365   0.238  0.5362 -0.3477  0.1925
  604MOL0     C81428   2.779   3.370   0.247  0.7390  0.0594  0.5446
  604MOL0     O81429   2.850   3.429   0.134  0.1132 -0.6652 -0.7198
  604MOL0     C81430   2.987   3.407   0.117  0.3149 -0.5302 -0.5032
  604MOL0     C81431   3.044   3.460  -0.001 -0.0940 -0.5185 -0.3318
  604MOL0     C81432   3.170   3.423  -0.050  0.6743  0.0944  0.0290
  604MOL0     C81433   3.249   3.330   0.012 -0.0182  0.2052 -0.1500
  604MOL0     C81434   3.385   3.295  -0.038  0.4258 -0.8227  0.0518
  604MOL0     O81435   3.448   3.388  -0.121 -0.1184 -0.1059 -0.2059
  604MOL0     C81436   3.581   3.364  -0.159  0.5851  0.3813 -0.4291
  604MOL0     C81437   3.604   3.368  -0.293  0.3884 -0.2812  0.2291
  604MOL0     C81438   3.730   3.340  -0.350  0.3070  0.7573  0.4371
  604MOL0     C81439   3.839   3.323  -0.270  0.5872  0.3889  0.3247
  604MOL0     O81440   3.971   3.301  -0.298 -0.2393 -1.7664 -0.3051
  604MOL0     C81441   4.006   3.338  -0.436  0.4006  0.1866  0.1516
  604MOL0     C81442   4.152   3.335  -0.455 -0.3755 -0.1855  0.2084
  604MOL0     C81443   4.225   3.403  -0.345 -0.5687 -0.0767 -0.4566
  604MOL0     C81444   4.355   3.486  -0.386  0.2778  0.4204 -0.0080
  604MOL0     C81445   4.429   3.562  -0.272  0.4884 -0.0227  0.1505
  604MOL0     C81446   4.554   3.495  -0.224 -0.7574 -0.6392  0.0512
  604MOL0     C81447   4.661   3.486  -0.331 -0.3909  0.0931 -0.8602
  604MOL0     C81448   4.793   3.478  -0.265 -0.6600  0.3313  0.2766
  604MOL0    Cl81449   4.812   3.325  -0.166 -0.6296 -0.2984  0.3554
  604MOL0     C81450   3.814   3.310  -0.130 -0.0771 -0.4228  0.0851
  604MOL0     C81451   3.692   3.335  -0.074  1.0105  1.2427  0.6627
  604MOL0     O81452   3.432   3.191   0.007 -0.5273  0.5524  0.6959
  604MOL0     C81453   3.196   3.271   0.129  0.1512 -0.4600 -0.5764
  604MOL0     C81454   3.064   3.306   0.177  0.3179 -0.1289 -0.2132
  604MOL0     N81455   2.227   3.318   0.510  0.9989 -0.0599  0.3770
  604MOL0     N81456   2.194   3.265   0.622 -0.7315  0.1398  0.3254
  604MOL0     C81457   3.115   2.527   1.047 -0.3415 -0.2733  1.0899
  604MOL0     C81458   3.233   2.467   1.089 -0.0196 -0.0423 -0.7394
  604MOL0     C81459   3.688   2.365   1.160 -0.1970  0.5015  0.4036
  604MOL0     C81460   3.813   2.370   1.093 -0.1435  0.3321 -0.2031
  604MOL0     C81461   3.910   2.270   1.088 -0.4840 -0.2241  0.0724
  604MOL0     C81462   3.885   2.153   1.157 -0.1617  0.7842 -0.4390
  604MOL0     O81463   3.995   2.066   1.161 -0.1665  0.0477 -0.6129
  604MOL0     C81464   3.989   1.959   1.257  0.6039  0.1093 -0.4441
  604MOL0     C81465   4.125   1.898   1.236  0.3316  0.4052 -0.6442
  604MOL0     C81466   4.244   1.982   1.297  0.1198  0.0288  0.1832
  604MOL0     C81467   4.380   1.909   1.327 -1.2639 -0.5339  0.0253
  604MOL0     C81468   4.432   1.864   1.200 -0.4020 -0.0922  0.5340
  604MOL0     C81469   4.485   1.819   1.099  0.0116 -0.0680  0.1903
  604MOL0     C81470   3.764   2.143   1.234  0.4359 -0.0261  0.3511
  604MOL0     C81471   3.662   2.244   1.236 -0.3222  0.4535  0.3424
  604MOL0     C81472   3.530   2.234   1.315  0.0153  1.1038 -0.0243
  604MOL0     H81473   3.472   2.703   1.045 -0.2735  0.8205  0.5251
  604MOL0     H81474   3.253   2.822   0.968  0.8815  0.8448  2.2045
  604MOL0     H81475   2.930   2.744   1.162 -0.1764  0.1161  0.1113
  604MOL0     H81476   3.066   2.856   1.153  0.1514  0.6270  1.2689
  604MOL0     H81477   2.938   2.985   0.996  2.3662 -1.1845  1.5717
  604MOL0     H81478   2.836   2.961   1.145 -0.0169 -1.1965  0.9613
  604MOL0     H81479   2.703   2.778   1.025 -0.3210 -0.6334 -0.5245
  604MOL0     H81480   2.784   2.831   0.879 -0.8359 -1.2742  0.2571
  604MOL0     H81481   2.646   3.049   1.057  0.4767 -0.9149  1.1690
  604MOL0     H81482   2.719   3.059   0.898  0.8550 -1.9574 -1.2122
  604MOL0     H81483   2.523   2.907   0.812 -0.5621 -0.1551  0.4959
  604MOL0     H81484   2.475   2.890   0.971  1.2058 -1.3978 -1.4772
  604MOL0     H81485   2.501   3.161   0.968 -0.6409  4.3071 -2.4605
  604MOL0     H81486   2.514   3.136   0.796  2.1296  0.1070  1.2017
  604MOL0     H81487   2.286   3.209   0.882  2.0542 -0.0585  1.2659
  604MOL0     H81488   2.269   3.044   0.956 -0.1726  1.1968  0.4184
  604MOL0     H81489   2.290   2.954   0.723 -0.8531 -0.0004 -0.4178
  604MOL0     H81490   2.142   3.041   0.750 -0.9568  0.5068 -1.0624
  604MOL0     H81491   2.427   3.055   0.500  0.3289  0.1944  3.0598
  604MOL0     H81492   2.367   3.220   0.253 -2.7622  1.9713 -1.1247
  604MOL0     H81493   2.374   3.390   0.299  0.4545  0.6612  2.7332
  604MOL0     H81494   2.570   3.340   0.440 -0.3681  0.8991 -0.6626
  604MOL0     H81495   2.589   3.179   0.359  3.2793  0.4969 -2.2685
  604MOL0     H81496   2.591   3.469   0.237 -1.7766 -1.1046  0.0824
  604MOL0     H81497   2.597   3.319   0.143  3.5482 -0.9859 -0.5436
  604MOL0     H81498   2.815   3.268   0.263  0.8406 -0.1758 -1.0783
  604MOL0     H81499   2.799   3.412   0.346 -0.5583 -3.3686  2.4355
  604MOL0     H81500   2.999   3.535  -0.065  2.8223  2.1717  0.5250
  604MOL0     H81501   3.208   3.461  -0.145  0.7897 -0.8863 -0.3229
  604MOL0     H81502   3.516   3.391  -0.351  1.1181 -0.4952 -1.0080
  604MOL0     H81503   3.740   3.343  -0.458 -2.4907  1.9230  0.1180
  604MOL0     H81504   3.965   3.265  -0.507 -1.1428  1.0445  0.1190
  604MOL0     H81505   3.968   3.438  -0.457  0.8702  0.0053 -1.6956
  604MOL0     H81506   4.190   3.232  -0.447 -0.1556  0.0440  2.5921
  604MOL0     H81507   4.177   3.373  -0.555  0.8420 -0.8329  0.2532
  604MOL0     H81508   4.167   3.480  -0.294 -0.0033 -0.3734  0.6588
  604MOL0     H81509   4.249   3.328  -0.269  1.0279  1.2457  0.4021
  604MOL0     H81510   4.331   3.567  -0.456 -0.0156  1.3467  1.1221
  604MOL0     H81511   4.426   3.427  -0.444  1.3110  1.1789  0.4508
  604MOL0     H81512   4.353   3.559  -0.193  0.4025 -2.8414  0.0394
  604MOL0     H81513   4.460   3.665  -0.294 -0.2605  0.4399  1.1452
  604MOL0     H81514   4.579   3.547  -0.131 -1.0562  0.3820 -0.4276
  604MOL0     H81515   4.533   3.392  -0.190  2.1270 -1.9010 -1.6748
  604MOL0     H81516   4.660   3.577  -0.392  0.3612  3.4765  3.6890
  604MOL0     H81517   4.648   3.397  -0.394  0.8891 -1.0730  0.4723
  604MOL0     H81518   4.872   3.476  -0.340  2.0303  0.9247  2.9256
  604MOL0     H81519   4.812   3.563  -0.199 -2.2206  1.9467 -1.2707
  604MOL0     H81520   3.899   3.280  -0.070 -1.5058  0.0088  2.4468
  604MOL0     H81521   3.677   3.321   0.033 -0.7818  0.6106  0.3668
  604MOL0     H81522   3.255   3.198   0.185  0.9514  0.5889 -0.0117
  604MOL0     H81523   3.028   3.251   0.263 -1.1147  0.0416 -0.6712
  604MOL0     H81524   3.023   2.470   1.043  0.1062 -1.0385  1.4472
  604MOL0     H81525   3.228   2.365   1.125 -0.1503  0.7049  1.4949
  604MOL0     H81526   3.833   2.444   1.016  0.7841  0.6037  0.2830
  604MOL0     H81527   3.999   2.268   1.025 -1.8501  0.1534 -1.9446
  604MOL0     H81528   3.908   1.886   1.246 -0.5685  1.3624 -0.4194
  604MOL0     H81529   3.976   2.007   1.355  1.7923 -0.2836 -0.0744
  604MOL0     H81530   4.145   1.870   1.132  3.1699  3.2698 -1.0361
  604MOL0     H81531   4.135   1.801   1.285  4.5356  1.0706  0.2174
  604MOL0     H81532   4.206   2.031   1.388  0.3052  1.0267 -0.2586
  604MOL0     H81533   4.271   2.072   1.241  0.7227  2.3999  3.8790
  604MOL0     H81534   4.459   1.974   1.365 -0.2241 -3.2951  3.1231
  604MOL0     H81535   4.367   1.823   1.393  0.9314  0.6112  2.1043
  604MOL0     H81536   4.520   1.773   1.009  3.9090  2.4069  0.2244
  604MOL0     H81537   3.739   2.055   1.293 -1.2783  0.1046 -0.1039
  604MOL0     H81538   3.495   2.328   1.358 -1.6948 -0.4261  2.2088
  604MOL0     H81539   3.453   2.187   1.253  1.0409 -0.3171 -0.2840
  604MOL0     H81540   3.537   2.170   1.404  1.7306  1.4782  0.1301
  605MOL0     O81541   9.220   8.970   2.140  0.4098 -0.1036 -0.4857
  605MOL0     C81542   9.211   9.006   2.258  0.1286 -0.3819  0.6072
  605MOL0     O81543   9.301   9.094   2.321  0.5061 -0.5272  0.8910
  605MOL0     C81544   9.386   9.174   2.241  0.0600  0.5981 -0.2083
  605MOL0     C81545   9.407   9.298   2.293 -0.0017 -0.3271 -1.0089
  605MOL0     C81546   9.501   9.387   2.240 -0.2194  0.8619  0.2315
  605MOL0     C81547   9.586   9.347   2.138 -0.1892  0.3512 -0.3422
  605MOL0     O81548   9.688   9.424   2.081  0.4604 -0.4203  0.2441
  605MOL0     C81549   9.718   9.555   2.137  0.9396  0.7264  0.0717
  605MOL0     C81550   9.823   9.621   2.052 -0.2359 -0.0337 -0.1798
  605MOL0     C81551   9.968   9.596   2.110 -0.1371 -0.6552 -0.5189
  605MOL0     C81552  10.064   9.708   2.062 -0.1782  0.4280 -0.6440
  605MOL0     C81553  10.213   9.694   2.092 -0.6127  0.3587 -0.5043
  605MOL0     C81554  10.305   9.802   2.046 -0.1657  0.4848  0.8577
  605MOL0     C81555  10.293   9.939   2.125  0.5207  0.8899  0.4505
  605MOL0     C81556  10.319   9.952   2.277  0.3854  0.0129 -0.7164
  605MOL0     N81557  10.462   9.949   2.307  0.7407  1.1176  0.4121
  605MOL0     C81558  10.563  10.044   2.288  1.1571  0.6421 -0.3633
  605MOL0     C81559  10.674   9.995   2.345  0.5425 -0.3107 -0.8810
  605MOL0     C81560  10.806  10.065   2.349 -0.5192 -0.5999 -0.1602
  605MOL0     C81561  10.918   9.985   2.296  0.8976  0.1589 -0.3236
  605MOL0     C81562  11.037  10.066   2.324 -0.4456  0.1754  0.0421
  605MOL0     C81563  11.163   9.987   2.290 -0.6431 -0.0923 -0.1954
  605MOL0     O81564  11.263  10.019   2.390 -0.2726 -0.8963  0.0763
  605MOL0     C81565  11.390   9.976   2.354  0.3073 -0.0844 -0.2392
  605MOL0     C81566  11.494  10.060   2.371 -0.0406  0.3817  0.0491
  605MOL0     C81567  11.623  10.025   2.347 -0.1761 -0.7644 -0.5227
  605MOL0     C81568  11.660   9.891   2.329  0.0145  0.1126  0.5854
  605MOL0     C81569  11.803   9.854   2.327  0.0564 -0.8326 -0.2989
  605MOL0     O81570  11.821   9.724   2.329  0.3383  0.0010 -0.1496
  605MOL0     C81571  11.932   9.652   2.309  0.2701 -0.5607 -0.0281
  605MOL0     C81572  11.922   9.528   2.246  0.0056 -0.1837 -1.0798
  605MOL0     C81573  12.034   9.456   2.202  0.1763  0.2331 -0.5290
  605MOL0     C81574  12.157   9.502   2.211 -0.0492 -0.1204 -0.4291
  605MOL0     O81575  12.269   9.441   2.163 -0.3530 -0.2132 -0.3717
  605MOL0     C81576  12.250   9.339   2.069  0.8000 -0.2423  0.1749
  605MOL0     C81577  12.382   9.296   2.019  0.5675  1.2288 -0.1475
  605MOL0     C81578  12.362   9.194   1.900  0.0277  1.3110 -0.2717
  605MOL0     C81579  12.316   9.053   1.952 -0.1717 -0.0226 -0.6638
  605MOL0     C81580  12.319   8.962   1.827  1.0179  0.3010 -0.5062
  605MOL0     C81581  12.272   8.822   1.858 -0.4146 -0.9759 -0.0365
  605MOL0     C81582  12.177   8.767   1.748 -0.5973 -0.4259  0.3730
  605MOL0     C81583  12.178   8.614   1.747  0.5433 -0.0565  1.0633
  605MOL0    Cl81584  12.340   8.549   1.695 -0.1806  0.4042  0.2428
  605MOL0     C81585  12.172   9.615   2.287 -0.1964 -0.6755 -0.9641
  605MOL0     C81586  12.066   9.692   2.340 -0.5840  1.0091  0.0164
  605MOL0     O81587  11.888   9.936   2.326 -0.6656  0.0461  0.8299
  605MOL0     C81588  11.553   9.792   2.326 -0.5765  0.2725  0.6342
  605MOL0     C81589  11.423   9.839   2.325 -0.0371 -0.5334  0.1409
  605MOL0     N81590  10.648   9.869   2.394 -0.2529 -0.2761  0.4261
  605MOL0     N81591  10.525   9.843   2.375  0.8148 -0.3899  0.3152
  605MOL0     C81592   9.561   9.223   2.084  0.2401  0.2949 -0.2211
  605MOL0     C81593   9.463   9.132   2.135 -0.5985 -0.4896  0.4330
  605MOL0     C81594   9.114   8.934   2.341  0.1640 -0.0089 -0.7418
  605MOL0     C81595   9.140   8.922   2.478  0.4505  0.2090 -0.5267
  605MOL0     C81596   9.046   8.868   2.568  0.7147 -1.0283  0.1783
  605MOL0     C81597   8.930   8.807   2.510 -0.3128  0.2263 -0.6231
  605MOL0     O81598   8.830   8.753   2.584 -0.2594 -0.4072  0.4959
  605MOL0     C81599   8.845   8.719   2.721  0.5258  0.5525 -0.0149
  605MOL0     C81600   8.761   8.592   2.751  0.5569  0.2468  0.0231
  605MOL0     C81601   8.786   8.477   2.653  0.0480 -0.0746 -1.1873
  605MOL0     C81602   8.700   8.358   2.701 -0.9457 -0.1613  0.6253
  605MOL0     C81603   8.742   8.240   2.619  0.5838 -0.5098  0.6360
  605MOL0     C81604   8.794   8.147   2.564  0.5698  0.3981  0.1548
  605MOL0     C81605   8.900   8.826   2.377 -0.9228  0.8871 -0.2256
  605MOL0     C81606   8.985   8.892   2.291 -0.2899 -1.1273  0.1779
  605MOL0     C81607   8.933   8.930   2.155 -0.0249  0.0982  0.7575
  605MOL0     H81608   9.341   9.334   2.371 -0.9087 -0.0449 -1.8895
  605MOL0     H81609   9.519   9.479   2.296  2.2051 -0.5289  1.9596
  605MOL0     H81610   9.638   9.626   2.114 -0.9089 -0.6918  1.8268
  605MOL0     H81611   9.748   9.560   2.242 -3.1643 -1.0044  1.5123
  605MOL0     H81612   9.806   9.730   2.053  1.9816  0.5753 -4.8486
  605MOL0     H81613   9.811   9.592   1.948  2.6452  0.5184 -0.7307
  605MOL0     H81614  10.005   9.497   2.082  3.2152 -0.8777  3.6633
  605MOL0     H81615   9.955   9.595   2.219  0.3753  2.2094 -0.3729
  605MOL0     H81616  10.058   9.717   1.953  1.3941 -1.9855 -1.0176
  605MOL0     H81617  10.029   9.802   2.107 -1.9486 -1.3991  2.1747
  605MOL0     H81618  10.245   9.682   2.196  3.2124 -1.8807 -1.7520
  605MOL0     H81619  10.245   9.607   2.034 -2.1637  0.0405 -0.9443
  605MOL0     H81620  10.410   9.772   2.044 -0.0786  0.6351 -2.1999
  605MOL0     H81621  10.275   9.822   1.942 -2.1107 -2.8513  0.6202
  605MOL0     H81622  10.194   9.981   2.101 -0.0170 -0.0723  0.9082
  605MOL0     H81623  10.368   9.998   2.072  1.4006 -1.2081 -0.7739
  605MOL0     H81624  10.271  10.042   2.317  0.4190 -1.4518  2.9865
  605MOL0     H81625  10.261   9.871   2.321 -1.1107  1.6123  0.4293
  605MOL0     H81626  10.543  10.142   2.246  1.3971  0.2776 -1.3484
  605MOL0     H81627  10.806  10.161   2.296 -1.7704 -0.7792 -0.5241
  605MOL0     H81628  10.827  10.080   2.455 -1.4651 -4.3220  0.7066
  605MOL0     H81629  10.927   9.886   2.340 -2.7159 -0.0980  0.1087
  605MOL0     H81630  10.912   9.966   2.188  2.3024 -1.2794 -0.1791
  605MOL0     H81631  11.039  10.085   2.432 -0.8976 -0.6331  0.2006
  605MOL0     H81632  11.022  10.157   2.266  0.6598 -0.6019 -1.5294
  605MOL0     H81633  11.193  10.018   2.190 -0.2033  0.9723  0.2599
  605MOL0     H81634  11.149   9.878   2.286  2.0814 -0.4896 -0.7876
  605MOL0     H81635  11.476  10.155   2.420  0.3049  0.3999  0.1437
  605MOL0     H81636  11.699  10.100   2.365 -0.5644 -0.8938  2.0602
  605MOL0     H81637  11.825   9.491   2.216 -0.5443  1.2392 -1.1129
  605MOL0     H81638  12.006   9.363   2.153 -1.3985 -0.3767  1.3803
  605MOL0     H81639  12.198   9.256   2.118 -1.3067  1.3515  0.7685
  605MOL0     H81640  12.185   9.376   1.990  1.4237  0.9274  0.1852
  605MOL0     H81641  12.437   9.387   1.993 -1.5269  3.0995  1.5368
  605MOL0     H81642  12.436   9.255   2.105 -0.5634  0.4161  0.1965
  605MOL0     H81643  12.286   9.224   1.826 -1.2103  1.5827  1.0635
  605MOL0     H81644  12.453   9.167   1.846 -0.2835 -2.3293  0.7821
  605MOL0     H81645  12.226   9.051   2.014  0.2611  1.5446  0.0756
  605MOL0     H81646  12.390   9.007   2.019 -0.5893  0.1562 -0.0690
  605MOL0     H81647  12.423   8.961   1.791  0.8474  3.3900 -1.3345
  605MOL0     H81648  12.261   9.008   1.746  0.2001 -0.8108 -0.5856
  605MOL0     H81649  12.372   8.778   1.864 -0.8270 -1.9582 -0.1232
  605MOL0     H81650  12.218   8.817   1.953 -1.3353 -1.8261 -0.5818
  605MOL0     H81651  12.217   8.796   1.650  0.4223  0.3518  1.0014
  605MOL0     H81652  12.077   8.809   1.759  0.0132  0.5868  2.5429
  605MOL0     H81653  12.152   8.571   1.844  2.8649 -2.0314  0.9271
  605MOL0     H81654  12.102   8.585   1.673  2.2770 -0.4393 -0.6684
  605MOL0     H81655  12.271   9.647   2.320 -2.2753  1.5708  4.2403
  605MOL0     H81656  12.086   9.787   2.389  3.1270  1.2134 -1.5547
  605MOL0     H81657  11.566   9.684   2.317  0.7565  0.5040 -0.6082
  605MOL0     H81658  11.338   9.772   2.316 -0.0220 -0.7653  1.5045
  605MOL0     H81659   9.617   9.191   1.997 -2.9507 -0.6012 -2.1395
  605MOL0     H81660   9.466   9.029   2.102  1.3796  0.5534 -3.1736
  605MOL0     H81661   9.232   8.965   2.518 -0.3715  2.0077 -0.4868
  605MOL0     H81662   9.076   8.865   2.672  0.8936  0.7036  0.2138
  605MOL0     H81663   8.813   8.803   2.783 -3.8577  0.8609 -2.3268
  605MOL0     H81664   8.947   8.688   2.749  0.7822  0.9251 -0.5303
  605MOL0     H81665   8.655   8.621   2.748  0.9429  1.6464 -0.9346
  605MOL0     H81666   8.795   8.559   2.849  0.9034 -1.5621 -0.6693
  605MOL0     H81667   8.892   8.453   2.640  0.2404 -1.0248  1.5104
  605MOL0     H81668   8.745   8.515   2.559 -0.0972  1.1073 -0.6712
  605MOL0     H81669   8.697   8.346   2.810 -1.5018 -2.6773  0.3940
  605MOL0     H81670   8.597   8.376   2.671 -0.3557 -0.3388 -1.6907
  605MOL0     H81671   8.817   8.059   2.507 -0.9010  0.0395  0.0816
  605MOL0     H81672   8.814   8.779   2.331  1.0661 -3.4051  0.0024
  605MOL0     H81673   8.963   9.033   2.132  1.7667 -0.4495  0.4215
  605MOL0     H81674   8.975   8.869   2.074 -0.0183 -1.3260  1.7915
  605MOL0     H81675   8.824   8.926   2.161  0.0736 -1.1175  2.6907
  606MOL0     O81676  11.212   2.099   4.010 -0.5269  0.2268 -0.5284
  606MOL0     C81677  11.207   2.068   4.130 -0.0391  0.3284 -0.2264
  606MOL0     O81678  11.320   2.035   4.202  0.1106 -0.2418  0.4151
  606MOL0     C81679  11.432   2.013   4.130  0.6170 -0.1639 -0.0155
  606MOL0     C81680  11.467   1.881   4.106 -0.0261 -0.1829 -0.0996
  606MOL0     C81681  11.579   1.848   4.030  0.2439  0.2770  0.2385
  606MOL0     C81682  11.644   1.950   3.955  0.7268 -0.2315 -0.3464
  606MOL0     O81683  11.754   1.925   3.875 -0.0539 -0.1910 -0.0166
  606MOL0     C81684  11.737   1.814   3.780  0.0106  0.3874  0.7352
  606MOL0     C81685  11.830   1.820   3.668 -0.1650  0.1950  0.7967
  606MOL0     C81686  11.805   1.956   3.596 -0.1587  0.8789  0.6827
  606MOL0     C81687  11.861   1.944   3.452  0.3726 -0.0368  0.2186
  606MOL0     C81688  12.012   1.937   3.457 -0.1574  0.8717  0.0714
  606MOL0     C81689  12.068   1.922   3.311 -0.4788  0.1323  0.2098
  606MOL0     C81690  12.225   1.902   3.319  1.3772  0.9679  0.4406
  606MOL0     C81691  12.275   1.874   3.175 -0.8307 -0.2633  0.8825
  606MOL0     N81692  12.422   1.861   3.202 -0.7061  0.2300  0.9356
  606MOL0     C81693  12.494   1.738   3.198  0.1417 -0.9316 -0.5893
  606MOL0     C81694  12.610   1.763   3.263  0.1464 -0.4975  0.2545
  606MOL0     C81695  12.715   1.667   3.295 -0.5791  0.6223  0.0168
  606MOL0     C81696  12.839   1.683   3.199 -0.7231  1.1025 -0.3293
  606MOL0     C81697  12.914   1.815   3.211 -0.4184 -0.0081 -0.0362
  606MOL0     C81698  12.889   1.919   3.101 -0.3775 -0.2510 -0.0354
  606MOL0     O81699  12.959   1.886   2.979 -0.0053  0.2610 -0.0122
  606MOL0     C81700  13.083   1.934   2.956  0.6777 -0.1265  1.1713
  606MOL0     C81701  13.156   2.014   3.045  0.4244  0.5123  0.8424
  606MOL0     C81702  13.284   2.053   3.010  0.1240  0.3994  0.3437
  606MOL0     C81703  13.346   2.009   2.895 -0.6564 -0.4120  0.3107
  606MOL0     C81704  13.478   2.063   2.865  0.3975 -0.4372  0.0605
  606MOL0     O81705  13.541   2.154   2.948  0.4003 -0.2436  0.0849
  606MOL0     C81706  13.679   2.176   2.924  0.1685  0.4480 -0.1910
  606MOL0     C81707  13.727   2.290   2.864 -0.4648  0.3029 -0.1264
  606MOL0     C81708  13.871   2.307   2.839  0.9035  0.3056  0.8353
  606MOL0     C81709  13.961   2.204   2.885 -0.8756 -0.0412 -0.1535
  606MOL0     O81710  14.105   2.213   2.887  0.6155 -0.4870  0.2156
  606MOL0     C81711  14.162   2.349   2.867  0.3693  0.6105  0.6817
  606MOL0     C81712  14.314   2.347   2.868 -0.8539  0.8972 -1.0664
  606MOL0     C81713  14.376   2.281   2.989 -0.7243  0.0651 -0.0969
  606MOL0     C81714  14.522   2.318   2.983 -1.0077 -0.2833 -0.1885
  606MOL0     C81715  14.602   2.244   3.082 -0.3196  0.3527 -0.4255
  606MOL0     C81716  14.747   2.278   3.076 -0.3118 -0.4317 -0.0745
  606MOL0     C81717  14.821   2.217   3.198 -0.3494 -0.4563 -0.2377
  606MOL0     C81718  14.971   2.268   3.199 -0.4381  0.3311 -0.2218
  606MOL0    Cl81719  15.052   2.204   3.350 -0.0519  0.0082  0.7398
  606MOL0     C81720  13.909   2.093   2.952  0.3148  0.6044 -0.4546
  606MOL0     C81721  13.766   2.081   2.974 -0.5189 -0.9900 -0.5110
  606MOL0     O81722  13.527   2.015   2.765 -0.2650  0.8058 -0.3616
  606MOL0     C81723  13.266   1.945   2.798 -0.3445 -0.3965  0.0095
  606MOL0     C81724  13.136   1.910   2.830 -0.1570  0.1264 -0.5501
  606MOL0     N81725  12.621   1.901   3.293  0.4322 -0.1829 -0.3109
  606MOL0     N81726  12.502   1.951   3.260 -0.0666  0.4167  0.3298
  606MOL0     C81727  11.599   2.079   3.961  0.4461 -0.1722 -0.0319
  606MOL0     C81728  11.499   2.107   4.049  0.4509 -0.8172  0.2934
  606MOL0     C81729  11.067   2.054   4.183 -0.0916 -0.5142  0.1881
  606MOL0     C81730  11.054   2.009   4.319 -0.5429  0.4488  0.0301
  606MOL0     C81731  10.934   2.006   4.383 -0.2301  0.0963  0.1751
  606MOL0     C81732  10.814   2.049   4.319 -0.1425  1.0422  0.7349
  606MOL0     O81733  10.703   2.036   4.398 -0.2669  0.5167 -0.1268
  606MOL0     C81734  10.579   2.103   4.376 -0.1213  0.4443 -0.1046
  606MOL0     C81735  10.561   2.224   4.464 -0.5884  0.3305 -0.0249
  606MOL0     C81736  10.603   2.205   4.609  0.1890 -0.6437 -0.0034
  606MOL0     C81737  10.556   2.074   4.676 -0.0370 -1.2061  0.3266
  606MOL0     C81738  10.573   2.093   4.816 -0.4260 -0.5958 -0.4296
  606MOL0     C81739  10.598   2.102   4.932  0.1687 -0.8332 -0.4400
  606MOL0     C81740  10.823   2.095   4.186 -0.6743  1.5970  0.8830
  606MOL0     C81741  10.949   2.096   4.113  0.8703  1.2647 -0.3058
  606MOL0     C81742  10.942   2.164   3.977 -0.1570 -0.2631  0.5235
  606MOL0     H81743  11.410   1.812   4.167  0.2596 -0.7379 -0.4604
  606MOL0     H81744  11.613   1.745   4.021 -0.2815  0.0695  0.5910
  606MOL0     H81745  11.735   1.716   3.827 -3.2184 -0.5809 -1.0487
  606MOL0     H81746  11.642   1.826   3.727  0.7705 -0.2996 -0.8419
  606MOL0     H81747  11.810   1.740   3.596 -0.6499  1.6224 -0.6959
  606MOL0     H81748  11.929   1.818   3.714  0.0147 -0.1063  0.4021
  606MOL0     H81749  11.851   2.037   3.654 -0.8643  1.3036  0.6587
  606MOL0     H81750  11.695   1.960   3.591 -0.4300 -3.2385 -2.5197
  606MOL0     H81751  11.820   1.855   3.406 -1.5855 -1.1249  3.7134
  606MOL0     H81752  11.831   2.036   3.401  0.0467  0.9847  2.1251
  606MOL0     H81753  12.051   2.028   3.503 -0.0234  1.7242 -1.6309
  606MOL0     H81754  12.035   1.852   3.521  1.0943  2.3661  1.6917
  606MOL0     H81755  12.025   1.835   3.261 -0.7294  0.8905 -0.9070
  606MOL0     H81756  12.056   2.012   3.251  2.5214 -1.5590 -3.3490
  606MOL0     H81757  12.239   1.811   3.377 -1.8382 -0.6513 -1.0773
  606MOL0     H81758  12.280   1.984   3.366  1.5314  0.6503  0.8186
  606MOL0     H81759  12.228   1.788   3.125 -1.3364 -0.8155  2.2716
  606MOL0     H81760  12.253   1.958   3.108 -2.4756  0.0320  1.7568
  606MOL0     H81761  12.453   1.647   3.155 -1.7410  0.1369 -1.1335
  606MOL0     H81762  12.744   1.678   3.400 -0.7840  0.0951  0.1325
  606MOL0     H81763  12.671   1.569   3.274  0.4304  0.0608  0.4345
  606MOL0     H81764  12.895   1.592   3.221 -4.2044 -1.4186 -1.0268
  606MOL0     H81765  12.810   1.674   3.093 -5.2639 -0.3663  0.7851
  606MOL0     H81766  13.023   1.806   3.218 -0.3730  0.9647  0.7796
  606MOL0     H81767  12.892   1.856   3.310 -1.7796  0.2198 -0.4089
  606MOL0     H81768  12.923   2.015   3.139  1.0818  0.0672 -2.0125
  606MOL0     H81769  12.780   1.927   3.088 -0.3338 -0.1666 -0.3527
  606MOL0     H81770  13.124   2.044   3.144  0.5272  1.4257  0.6125
  606MOL0     H81771  13.338   2.104   3.089 -0.0224 -1.6834  1.8980
  606MOL0     H81772  13.653   2.363   2.832 -0.7699 -0.4923 -1.2878
  606MOL0     H81773  13.915   2.396   2.794  0.0626  1.0139  1.3784
  606MOL0     H81774  14.145   2.399   2.772  1.2078  1.3694  0.9180
  606MOL0     H81775  14.121   2.411   2.947  0.5996  2.6999 -0.7713
  606MOL0     H81776  14.328   2.298   2.771 -0.9857 -1.2255 -0.0602
  606MOL0     H81777  14.366   2.443   2.857  0.2442  0.8669  2.5762
  606MOL0     H81778  14.327   2.327   3.075 -1.1491  0.9355 -0.7885
  606MOL0     H81779  14.348   2.176   2.978  0.2317 -0.2727  0.4525
  606MOL0     H81780  14.540   2.423   3.006 -2.3772 -0.2032  0.6713
  606MOL0     H81781  14.559   2.290   2.884  0.8874 -1.2182  0.7427
  606MOL0     H81782  14.590   2.136   3.082  1.4588  0.1048  1.2932
  606MOL0     H81783  14.576   2.285   3.179  1.3110 -3.7138  1.9804
  606MOL0     H81784  14.780   2.230   2.984  0.2856 -1.2206  0.5284
  606MOL0     H81785  14.761   2.386   3.066  3.4166 -0.9693 -2.5719
  606MOL0     H81786  14.807   2.110   3.183  0.5047 -0.4096 -1.4429
  606MOL0     H81787  14.777   2.257   3.290 -0.4527 -0.8104 -0.1300
  606MOL0     H81788  15.016   2.225   3.109 -0.8396 -2.9038  0.9947
  606MOL0     H81789  14.982   2.376   3.207 -0.7228  0.3478 -0.0163
  606MOL0     H81790  13.966   2.015   3.001  0.8942  0.4759 -1.3045
  606MOL0     H81791  13.734   1.995   3.033 -0.4856 -1.1245 -0.6895
  606MOL0     H81792  13.310   1.907   2.706 -0.3807 -2.4315  0.7674
  606MOL0     H81793  13.072   1.855   2.761 -0.7763  1.7542 -1.3257
  606MOL0     H81794  11.648   2.159   3.906 -1.0165 -1.0499 -2.8259
  606MOL0     H81795  11.472   2.212   4.042 -2.0519 -1.5199 -3.0875
  606MOL0     H81796  11.141   1.971   4.370  0.0218 -3.3418 -3.2433
  606MOL0     H81797  10.925   1.971   4.486 -0.1224 -0.6135 -0.0492
  606MOL0     H81798  10.510   2.023   4.402  0.0095  0.3092 -0.1742
  606MOL0     H81799  10.570   2.121   4.268  0.1608 -0.8769 -0.3638
  606MOL0     H81800  10.460   2.263   4.451 -0.5204  0.6443  0.3779
  606MOL0     H81801  10.640   2.292   4.430  0.9900 -1.9781 -1.2606
  606MOL0     H81802  10.559   2.291   4.659  2.6235  1.2558 -0.9459
  606MOL0     H81803  10.712   2.213   4.604  0.0885  1.3199  0.3693
  606MOL0     H81804  10.448   2.061   4.668 -0.6173  0.5705  3.5886
  606MOL0     H81805  10.607   1.986   4.637 -1.9275 -3.0086  1.6846
  606MOL0     H81806  10.620   2.106   5.037 -1.5097  1.0104 -0.0923
  606MOL0     H81807  10.728   2.120   4.140 -1.7069 -0.7921  1.5017
  606MOL0     H81808  10.955   2.104   3.887  0.0772 -1.2037  1.1660
  606MOL0     H81809  10.842   2.207   3.965  0.3969  0.7802 -0.4975
  606MOL0     H81810  11.018   2.243   3.969 -1.3733  0.8384 -0.6547
  607MOL0     O81811   6.650   3.669  10.347  0.1377  0.3026 -0.5167
  607MOL0     C81812   6.652   3.588  10.443  0.2158 -0.6477 -0.0919
  607MOL0     O81813   6.536   3.558  10.513 -0.2322  0.4181  0.2896
  607MOL0     C81814   6.424   3.630  10.478 -0.2950  0.7424 -0.2035
  607MOL0     C81815   6.373   3.637  10.344 -0.1182  0.2474  0.2941
  607MOL0     C81816   6.263   3.724  10.310 -0.5609  0.8132 -0.1775
  607MOL0     C81817   6.192   3.791  10.402  0.7933 -0.4564 -0.5023
  607MOL0     O81818   6.070   3.859  10.373 -0.0948  0.1531 -0.4186
  607MOL0     C81819   5.982   3.800  10.280  0.4276  0.7524 -0.4049
  607MOL0     C81820   5.839   3.862  10.275 -0.4102 -0.3716  0.1083
  607MOL0     C81821   5.776   3.854  10.415 -0.3875  0.0760 -0.1214
  607MOL0     C81822   5.652   3.945  10.426 -0.3049  0.2475 -0.5319
  607MOL0     C81823   5.583   3.919  10.560 -0.3312  0.5162  0.1575
  607MOL0     C81824   5.466   4.014  10.581 -0.1345 -0.2737  0.6300
  607MOL0     C81825   5.395   3.973  10.713 -0.6212 -0.2034  0.2350
  607MOL0     C81826   5.327   4.103  10.781 -1.3997  0.2510  0.2387
  607MOL0     N81827   5.420   4.178  10.874  0.7897 -0.1012 -0.0140
  607MOL0     C81828   5.482   4.130  10.981 -0.1529  0.0623 -0.3157
  607MOL0     C81829   5.559   4.229  11.030 -0.2424 -0.8828  0.4923
  607MOL0     C81830   5.641   4.217  11.156 -0.9691  0.5408  0.6134
  607MOL0     C81831   5.659   4.360  11.222 -0.1813  0.9359  0.0688
  607MOL0     C81832   5.756   4.465  11.157 -0.4019 -0.5697  0.4269
  607MOL0     C81833   5.784   4.585  11.252 -0.3902 -1.1297  0.1793
  607MOL0     O81834   5.876   4.539  11.359 -0.6245  0.7847 -0.3125
  607MOL0     C81835   6.016   4.538  11.336  0.1194 -1.4855  0.3680
  607MOL0     C81836   6.079   4.569  11.211  0.1257 -0.1350  0.9051
  607MOL0     C81837   6.209   4.565  11.192 -0.4262  0.6625  1.0772
  607MOL0     C81838   6.298   4.529  11.293 -0.2749 -1.1560  0.2566
  607MOL0     C81839   6.446   4.537  11.265  0.0730  0.3459 -0.0108
  607MOL0     O81840   6.538   4.507  11.370  0.0333  0.6729 -0.2763
  607MOL0     C81841   6.677   4.503  11.335  0.1672  0.6479  0.1990
  607MOL0     C81842   6.756   4.402  11.396 -0.7749 -0.6167  0.4299
  607MOL0     C81843   6.899   4.400  11.381 -0.2169 -0.6834 -0.1154
  607MOL0     C81844   6.968   4.489  11.299  0.6797  0.5460 -0.6665
  607MOL0     O81845   7.105   4.480  11.312  0.5610  0.4029  0.2396
  607MOL0     C81846   7.198   4.562  11.237 -0.1576 -0.6026  0.0662
  607MOL0     C81847   7.226   4.694  11.304  0.5837 -0.0777 -0.6204
  607MOL0     C81848   7.342   4.776  11.247  0.7702 -0.5895  0.1000
  607MOL0     C81849   7.469   4.693  11.199 -0.0547 -0.5715 -0.1852
  607MOL0     C81850   7.576   4.783  11.152  0.8784 -0.4454  0.6153
  607MOL0     C81851   7.693   4.706  11.080  0.3286  0.6244 -1.1495
  607MOL0     C81852   7.819   4.805  11.075 -0.5814  0.4533 -0.5828
  607MOL0     C81853   7.951   4.734  11.035  0.1149  0.1242  0.6589
  607MOL0    Cl81854   8.057   4.874  11.031  0.0546  0.0765  0.2611
  607MOL0     C81855   6.887   4.589  11.240  0.1567 -0.0438  0.0539
  607MOL0     C81856   6.746   4.595  11.259 -0.0325 -0.5978  0.7653
  607MOL0     O81857   6.482   4.573  11.156  0.0213 -0.5502  0.8667
  607MOL0     C81858   6.248   4.504  11.418  0.3348 -0.1043 -0.2347
  607MOL0     C81859   6.105   4.500  11.437  0.1024 -0.0986  0.2846
  607MOL0     N81860   5.558   4.333  10.938  0.0491  0.2172 -0.4348
  607MOL0     N81861   5.467   4.300  10.852  0.4988 -0.7064  0.0267
  607MOL0     C81862   6.230   3.768  10.536 -0.3811  0.2264 -0.1464
  607MOL0     C81863   6.347   3.696  10.576  0.1492  0.2087  0.7753
  607MOL0     C81864   6.763   3.500  10.473 -1.0647 -0.4466  0.4105
  607MOL0     C81865   6.761   3.443  10.601  1.7100  0.0343  0.4783
  607MOL0     C81866   6.861   3.357  10.642  0.5620  0.2674 -0.6021
  607MOL0     C81867   6.975   3.340  10.566  0.7111  0.3047 -0.6380
  607MOL0     O81868   7.071   3.250  10.594  0.4401 -0.6827 -0.3755
  607MOL0     C81869   7.077   3.190  10.726  0.0391  0.0295  0.4807
  607MOL0     C81870   7.216   3.139  10.741  1.1736  0.1259  0.0829
  607MOL0     C81871   7.248   3.109  10.884 -0.8558 -0.7992  0.1507
  607MOL0     C81872   7.381   3.037  10.902 -0.0559 -0.0058  0.3834
  607MOL0     C81873   7.493   3.125  10.882 -0.6114 -0.3777  0.5102
  607MOL0     C81874   7.583   3.208  10.889 -0.7360 -0.2056 -0.1928
  607MOL0     C81875   6.979   3.403  10.444 -0.2571  0.6757  0.1682
  607MOL0     C81876   6.881   3.484  10.389 -0.9440 -0.0815 -0.9554
  607MOL0     C81877   6.918   3.543  10.255  0.4113  0.3500 -0.2402
  607MOL0     H81878   6.426   3.581  10.268  2.2400 -0.4599  2.3032
  607MOL0     H81879   6.246   3.747  10.206 -1.8846 -3.2052 -0.9854
  607MOL0     H81880   6.018   3.808  10.177  2.3117 -1.6477 -0.0307
  607MOL0     H81881   5.978   3.696  10.313 -0.8026  0.5676 -1.1037
  607MOL0     H81882   5.788   3.811  10.193 -0.0875  0.2977 -0.5183
  607MOL0     H81883   5.844   3.968  10.249  0.6580 -0.8682 -1.9294
  607MOL0     H81884   5.846   3.873  10.497  0.1758 -2.7231  0.1444
  607MOL0     H81885   5.744   3.750  10.424 -0.0886 -0.1383 -1.4179
  607MOL0     H81886   5.691   4.046  10.416  4.1986 -1.3095 -1.1506
  607MOL0     H81887   5.581   3.925  10.345 -0.8789 -1.0346  0.2388
  607MOL0     H81888   5.546   3.816  10.553  2.5358 -0.7277  1.3367
  607MOL0     H81889   5.654   3.925  10.643 -1.0029 -1.3636  0.9203
  607MOL0     H81890   5.503   4.116  10.595 -0.4782 -0.1084  0.3457
  607MOL0     H81891   5.400   4.016  10.494 -0.4446 -1.3235  0.8191
  607MOL0     H81892   5.472   3.930  10.778  0.3538  1.2066  0.0621
  607MOL0     H81893   5.322   3.894  10.691 -0.7892  0.1548 -0.5104
  607MOL0     H81894   5.294   4.168  10.700  1.7314 -0.3149 -1.6670
  607MOL0     H81895   5.233   4.077  10.831 -1.3356  0.1793  0.3233
  607MOL0     H81896   5.475   4.034  11.032 -1.4939 -0.4212 -1.3389
  607MOL0     H81897   5.592   4.144  11.221 -0.2915 -1.9170 -1.4288
  607MOL0     H81898   5.737   4.180  11.118 -1.6804  1.9055 -2.8818
  607MOL0     H81899   5.559   4.405  11.227 -0.2899  0.7460 -0.4000
  607MOL0     H81900   5.693   4.333  11.322 -2.7754 -1.8297  0.3324
  607MOL0     H81901   5.691   4.506  11.079 -0.6866  0.3777  1.1410
  607MOL0     H81902   5.848   4.418  11.120 -0.5055 -0.8696  0.5441
  607MOL0     H81903   5.692   4.623  11.296 -0.4407 -1.8023  0.6753
  607MOL0     H81904   5.824   4.668  11.193  0.0024 -0.1890  1.7204
  607MOL0     H81905   6.024   4.577  11.117  0.7745 -3.0986  0.1893
  607MOL0     H81906   6.239   4.566  11.088  1.7334 -3.1387  1.4649
  607MOL0     H81907   6.699   4.329  11.452  2.3677 -2.5831  1.3058
  607MOL0     H81908   6.960   4.326  11.432 -1.4802 -3.1163 -1.8838
  607MOL0     H81909   7.295   4.513  11.237  1.4053  2.2590 -0.7503
  607MOL0     H81910   7.168   4.578  11.133  2.5005  1.9699 -0.4179
  607MOL0     H81911   7.141   4.762  11.309  1.0702  0.5676 -0.9082
  607MOL0     H81912   7.240   4.655  11.405 -0.5237  0.8907 -0.0604
  607MOL0     H81913   7.314   4.824  11.152 -1.0208 -1.1767  0.2940
  607MOL0     H81914   7.369   4.853  11.320  3.9586 -1.1141 -0.3755
  607MOL0     H81915   7.440   4.630  11.115 -4.5591  3.2470 -1.9268
  607MOL0     H81916   7.510   4.638  11.285 -1.5643 -3.0611 -0.9648
  607MOL0     H81917   7.620   4.835  11.237  2.6622 -1.1283  0.1495
  607MOL0     H81918   7.544   4.864  11.084  2.0126 -2.1188 -2.0880
  607MOL0     H81919   7.723   4.615  11.134  0.7265  2.1266  1.3349
  607MOL0     H81920   7.658   4.684  10.979  1.8514  2.5410 -2.1704
  607MOL0     H81921   7.831   4.852  11.173 -1.4016 -0.3164 -0.0984
  607MOL0     H81922   7.793   4.889  11.010 -0.7231  0.0315 -1.0735
  607MOL0     H81923   7.982   4.665  11.114 -1.1316 -1.0927  0.1308
  607MOL0     H81924   7.940   4.678  10.942  0.5094  0.3259  0.4899
  607MOL0     H81925   6.942   4.659  11.177  0.2537 -0.3499 -0.2074
  607MOL0     H81926   6.692   4.679  11.218  3.3396  1.5566  0.2930
  607MOL0     H81927   6.313   4.483  11.503  1.4574  1.5975 -0.6309
  607MOL0     H81928   6.070   4.459  11.531  0.0137  0.2594  0.4076
  607MOL0     H81929   6.158   3.818  10.600 -0.4430  0.8310 -0.6726
  607MOL0     H81930   6.372   3.683  10.680  2.0291 -0.6344  0.2644
  607MOL0     H81931   6.676   3.449  10.668 -0.4805 -0.7738 -2.0882
  607MOL0     H81932   6.853   3.313  10.740  2.0960 -1.4204 -1.1731
  607MOL0     H81933   6.991   3.133  10.762 -0.4587  0.2455 -0.3463
  607MOL0     H81934   7.066   3.278  10.790 -0.9222 -0.3024  0.7996
  607MOL0     H81935   7.294   3.205  10.702  1.9408 -0.2707  0.8884
  607MOL0     H81936   7.219   3.042  10.690 -1.0237  0.5715 -0.9868
  607MOL0     H81937   7.168   3.059  10.938 -1.1831  0.5513  0.9702
  607MOL0     H81938   7.277   3.204  10.929  4.0484 -2.3689  0.8494
  607MOL0     H81939   7.390   2.992  11.001  2.8648  1.2785  0.8284
  607MOL0     H81940   7.385   2.958  10.826  2.5379  0.1892  0.2080
  607MOL0     H81941   7.658   3.284  10.891 -2.1722  1.6366 -4.2831
  607MOL0     H81942   7.075   3.388  10.396 -1.3553 -1.5437 -1.4980
  607MOL0     H81943   7.024   3.559  10.234 -0.1482  0.6267 -3.3614
  607MOL0     H81944   6.883   3.480  10.172 -3.0704 -1.4948  2.3657
  607MOL0     H81945   6.865   3.635  10.229 -1.7840 -1.5008 -2.9146
  608MOL0     O81946   9.522   4.585   4.642  0.7901 -0.5819 -0.4840
  608MOL0     C81947   9.418   4.604   4.709 -0.2952  0.3059  0.7060
  608MOL0     O81948   9.421   4.662   4.836  0.0484  0.4490 -0.4304
  608MOL0     C81949   9.546   4.697   4.891 -0.2861 -0.1809  0.0665
  608MOL0     C81950   9.611   4.816   4.861  0.5544 -0.7110 -0.4905
  608MOL0     C81951   9.741   4.838   4.901  1.0823 -0.2780 -0.0514
  608MOL0     C81952   9.813   4.740   4.977 -0.2149  0.2277 -0.0218
  608MOL0     O81953   9.937   4.779   5.024 -0.6068  0.4931 -0.3483
  608MOL0     C81954   9.965   4.753   5.167  0.4569 -0.3935  0.8010
  608MOL0     C81955   9.973   4.868   5.264 -0.1221  0.0777  0.3764
  608MOL0     C81956  10.068   4.979   5.225  0.2922  0.0973  0.3604
  608MOL0     C81957  10.213   4.924   5.219 -0.0505 -0.3717  0.3283
  608MOL0     C81958  10.300   5.035   5.171  0.4195 -0.0001 -0.1042
  608MOL0     C81959  10.448   4.978   5.174  0.1798  0.9321 -0.0724
  608MOL0     C81960  10.552   5.074   5.139  0.6799 -0.0627  0.2714
  608MOL0     C81961  10.692   5.008   5.118 -0.2539 -0.3531 -0.2485
  608MOL0     N81962  10.683   4.914   5.003 -0.3106  0.3663  0.1416
  608MOL0     C81963  10.653   4.939   4.875 -0.0658  0.3541  0.2480
  608MOL0     C81964  10.647   4.818   4.819 -0.4964  0.5573  0.1628
  608MOL0     C81965  10.623   4.782   4.675  0.0825  0.5674 -0.6047
  608MOL0     C81966  10.753   4.742   4.612 -0.1141  0.4078  0.2483
  608MOL0     C81967  10.832   4.874   4.582  0.6144 -0.6900 -0.7476
  608MOL0     C81968  10.980   4.842   4.552 -0.0913  0.0984  0.1422
  608MOL0     O81969  11.047   4.969   4.545  0.0868  1.2088 -0.1094
  608MOL0     C81970  11.184   4.969   4.563  0.7095  0.6845  0.3085
  608MOL0     C81971  11.267   4.861   4.546  0.1003 -0.5482  0.3933
  608MOL0     C81972  11.409   4.889   4.563  1.1010  0.2391 -0.0419
  608MOL0     C81973  11.461   5.016   4.602  0.3248  0.4403  0.4830
  608MOL0     C81974  11.607   5.039   4.600 -0.3262 -0.4639 -0.0575
  608MOL0     O81975  11.652   5.163   4.623  0.6053  0.1370 -0.1808
  608MOL0     C81976  11.790   5.178   4.632  0.2444 -0.5569  0.4172
  608MOL0     C81977  11.861   5.179   4.754  0.0044 -0.3648 -0.0904
  608MOL0     C81978  11.995   5.196   4.759 -1.6617  0.2818  0.0086
  608MOL0     C81979  12.068   5.209   4.646 -0.2187  0.4998 -0.1172
  608MOL0     O81980  12.203   5.227   4.638 -0.0926  0.6258  0.1959
  608MOL0     C81981  12.290   5.150   4.719 -0.2052  0.6390 -0.8239
  608MOL0     C81982  12.440   5.150   4.664 -0.2852 -0.5506 -0.3358
  608MOL0     C81983  12.548   5.127   4.771  0.6969  0.3470  0.5267
  608MOL0     C81984  12.691   5.143   4.707 -1.0328 -0.3863 -0.5239
  608MOL0     C81985  12.815   5.103   4.788  0.2962  0.3084  0.5836
  608MOL0     C81986  12.939   5.105   4.693  0.7188  0.2591 -0.1719
  608MOL0     C81987  12.934   5.066   4.534 -0.1569  0.6889 -0.3387
  608MOL0     C81988  13.072   5.091   4.468  0.3734  0.1320  0.6673
  608MOL0    Cl81989  13.068   5.064   4.290  0.1262 -0.2713  0.1185
  608MOL0     C81990  12.006   5.198   4.521 -0.9582 -0.0307  0.0480
  608MOL0     C81991  11.868   5.186   4.511  0.6534 -0.4058 -0.2327
  608MOL0     O81992  11.683   4.942   4.584  0.3939 -0.7567  0.0927
  608MOL0     C81993  11.377   5.117   4.612 -0.3367 -0.2826 -0.6254
  608MOL0     C81994  11.239   5.096   4.595  0.2808  0.2915  0.5552
  608MOL0     N81995  10.695   4.722   4.906  0.3600  0.2807  0.2080
  608MOL0     N81996  10.702   4.776   5.021  0.0085  0.0164 -0.8823
  608MOL0     C81997   9.745   4.622   5.012  0.1570 -0.1538 -0.0711
  608MOL0     C81998   9.616   4.607   4.969  0.5743  0.0253 -1.1295
  608MOL0     C81999   9.289   4.558   4.659 -0.3459 -0.2313  0.0042
  608MOL0     C82000   9.184   4.530   4.758 -0.0046 -0.1409 -0.1919
  608MOL0     C82001   9.060   4.493   4.715 -0.5215  0.4719 -0.4469
  608MOL0     C82002   9.034   4.471   4.579 -0.1362 -0.1499  0.8251
  608MOL0     O82003   8.919   4.415   4.526  0.3010 -0.3555  0.4537
  608MOL0     C82004   8.821   4.367   4.624  0.2452 -0.2358 -0.0969
  608MOL0     C82005   8.713   4.285   4.551  0.7367  0.5262  0.1255
  608MOL0     C82006   8.612   4.366   4.458  0.3493  0.0192  0.0330
  608MOL0     C82007   8.543   4.273   4.356 -0.3193  0.6836 -0.3618
  608MOL0     C82008   8.479   4.352   4.251  0.6792 -0.3246 -0.4565
  608MOL0     C82009   8.438   4.429   4.171 -0.6609  0.3117  0.0542
  608MOL0     C82010   9.137   4.497   4.481 -0.4360  0.5389  0.6052
  608MOL0     C82011   9.259   4.547   4.519 -0.5819 -0.1214  0.1100
  608MOL0     C82012   9.359   4.581   4.408 -0.3243 -0.1061 -1.0228
  608MOL0     H82013   9.552   4.888   4.805 -0.6051  0.3127  1.8921
  608MOL0     H82014   9.797   4.928   4.877 -0.0436  0.4903  0.1765
  608MOL0     H82015   9.888   4.686   5.206 -0.4483 -0.4128 -0.9308
  608MOL0     H82016  10.057   4.696   5.182 -0.0981 -2.0422 -1.4970
  608MOL0     H82017   9.997   4.829   5.364  0.1657  1.5336  0.9057
  608MOL0     H82018   9.873   4.912   5.271 -0.1391  1.3144 -4.4802
  608MOL0     H82019  10.060   5.062   5.296  0.8512 -1.3166  2.1662
  608MOL0     H82020  10.045   5.015   5.125  2.1631  1.7368  0.4548
  608MOL0     H82021  10.234   4.906   5.325 -1.4728 -0.0222  0.6948
  608MOL0     H82022  10.219   4.836   5.154 -1.7405 -0.3412  0.0901
  608MOL0     H82023  10.274   5.055   5.066  1.2375  1.8864  0.0027
  608MOL0     H82024  10.289   5.128   5.228  3.2237  1.7594 -2.1474
  608MOL0     H82025  10.479   4.953   5.276  0.2605 -0.1863 -0.3551
  608MOL0     H82026  10.453   4.892   5.107 -1.7238  0.7326 -0.0016
  608MOL0     H82027  10.557   5.158   5.208 -0.0347  3.1819 -3.2694
  608MOL0     H82028  10.513   5.123   5.049 -1.8741 -0.7440  0.9333
  608MOL0     H82029  10.762   5.090   5.102 -2.5446  2.2868  2.0793
  608MOL0     H82030  10.717   4.942   5.202  1.7443 -2.3565 -2.2644
  608MOL0     H82031  10.629   5.039   4.841  2.2095  1.7642  2.4483
  608MOL0     H82032  10.553   4.698   4.678 -0.0035  0.6731  1.0050
  608MOL0     H82033  10.577   4.867   4.625  1.9948  1.0821 -1.6123
  608MOL0     H82034  10.807   4.660   4.659  0.7740  0.6625 -0.2924
  608MOL0     H82035  10.724   4.706   4.512 -0.1263 -0.9203  0.7183
  608MOL0     H82036  10.834   4.936   4.672 -0.1242  2.4643 -2.7151
  608MOL0     H82037  10.781   4.921   4.496 -0.3664  1.2903  0.8207
  608MOL0     H82038  10.994   4.779   4.464 -1.5951 -2.1571  1.4295
  608MOL0     H82039  11.014   4.778   4.633 -1.2326  0.5794  1.0344
  608MOL0     H82040  11.244   4.757   4.529 -0.0300 -0.5620  0.6509
  608MOL0     H82041  11.478   4.807   4.548 -1.3386 -2.4169  2.1188
  608MOL0     H82042  11.803   5.161   4.844  1.4455 -2.3168  0.5309
  608MOL0     H82043  12.041   5.201   4.858  1.6096  0.3209 -1.3876
  608MOL0     H82044  12.295   5.192   4.820 -0.5625 -2.3225  0.5315
  608MOL0     H82045  12.260   5.045   4.716 -0.5538  0.7735 -2.9841
  608MOL0     H82046  12.450   5.081   4.580  1.4745  0.9217 -1.4089
  608MOL0     H82047  12.448   5.252   4.626 -1.7622  0.3152  1.5273
  608MOL0     H82048  12.542   5.202   4.850 -0.5235  0.0880  0.6990
  608MOL0     H82049  12.531   5.028   4.815 -0.8849  1.3005  2.1889
  608MOL0     H82050  12.716   5.241   4.665  4.4309 -1.1389  0.2338
  608MOL0     H82051  12.682   5.078   4.619  0.4985 -0.1782 -0.8660
  608MOL0     H82052  12.810   4.998   4.818 -0.9168 -0.1779 -1.1426
  608MOL0     H82053  12.817   5.167   4.876 -0.9384  4.1968 -1.9777
  608MOL0     H82054  12.963   5.212   4.689  0.0803  0.3882 -0.8022
  608MOL0     H82055  13.024   5.052   4.736 -0.1531 -0.8554  0.2372
  608MOL0     H82056  12.858   5.129   4.485 -0.8672 -0.9310 -1.4196
  608MOL0     H82057  12.906   4.961   4.522  1.0591  0.4744 -1.6238
  608MOL0     H82058  13.106   5.190   4.500 -0.2051  0.3174  0.7132
  608MOL0     H82059  13.148   5.029   4.517 -0.5723  2.1154  5.1089
  608MOL0     H82060  12.060   5.225   4.431  0.3651  2.4892  1.4745
  608MOL0     H82061  11.807   5.188   4.421 -0.8125  0.1012  0.7256
  608MOL0     H82062  11.401   5.220   4.636 -2.2609 -0.3137  1.7702
  608MOL0     H82063  11.173   5.182   4.592  0.0586  0.1150  0.3071
  608MOL0     H82064   9.783   4.541   5.074 -0.8714 -1.4108 -1.0236
  608MOL0     H82065   9.572   4.509   4.986  1.1722 -0.1416 -0.4734
  608MOL0     H82066   9.197   4.533   4.866  0.1206  0.3221 -0.2183
  608MOL0     H82067   8.988   4.489   4.797  0.7786 -0.7187  0.7093
  608MOL0     H82068   8.762   4.442   4.677  0.6443  1.3052 -1.7175
  608MOL0     H82069   8.869   4.311   4.705  2.9447  1.7140 -0.1883
  608MOL0     H82070   8.650   4.235   4.624 -0.3521  3.9341  1.7168
  608MOL0     H82071   8.766   4.211   4.489 -0.0381  0.9476 -1.0799
  608MOL0     H82072   8.664   4.438   4.394  0.3519 -1.1234 -1.2986
  608MOL0     H82073   8.544   4.418   4.526 -1.3900  0.0998 -1.7038
  608MOL0     H82074   8.622   4.219   4.303 -0.8680 -0.2261 -0.2639
  608MOL0     H82075   8.476   4.203   4.406  0.9043  0.2413  0.7205
  608MOL0     H82076   8.404   4.491   4.090 -2.2712 -1.9865 -1.1607
  608MOL0     H82077   9.100   4.483   4.380 -0.8053  0.7383  0.7113
  608MOL0     H82078   9.424   4.667   4.423 -0.1790 -0.2752 -0.6489
  608MOL0     H82079   9.441   4.510   4.393 -0.8749 -1.0114  0.0655
  608MOL0     H82080   9.305   4.590   4.313  1.2413 -1.0374 -2.0471
  609MOL0     O82081   7.520   1.180  11.021 -0.2800  0.3460 -0.0082
  609MOL0     C82082   7.463   1.186  10.912  0.2322 -1.0132  0.1508
  609MOL0     O82083   7.525   1.225  10.796  0.0691  0.2776  0.2877
  609MOL0     C82084   7.658   1.227  10.788 -0.9097 -0.1429 -0.0958
  609MOL0     C82085   7.729   1.346  10.750 -0.1162 -0.3156  0.7217
  609MOL0     C82086   7.870   1.352  10.739 -0.2806  0.1735  0.5877
  609MOL0     C82087   7.946   1.245  10.771 -0.0407 -0.2599  0.2226
  609MOL0     O82088   8.080   1.248  10.770  0.0754  0.5266 -0.1538
  609MOL0     C82089   8.159   1.369  10.735  0.1137 -0.0203 -0.2762
  609MOL0     C82090   8.305   1.318  10.711  0.9921  0.1628 -0.6066
  609MOL0     C82091   8.401   1.416  10.650 -0.1345  0.7639  0.0414
  609MOL0     C82092   8.546   1.368  10.672 -0.6243  0.8733  0.1741
  609MOL0     C82093   8.643   1.435  10.573  0.2764 -0.4646 -0.5600
  609MOL0     C82094   8.780   1.377  10.600 -1.0095 -0.4036 -0.0342
  609MOL0     C82095   8.859   1.389  10.461  0.5060 -0.5347 -0.4665
  609MOL0     C82096   9.008   1.351  10.481  0.1436 -0.9950 -0.5134
  609MOL0     N82097   9.090   1.370  10.363  0.8938  0.8564  0.1704
  609MOL0     C82098   9.057   1.464  10.268  0.5375  0.5272  0.5960
  609MOL0     C82099   9.165   1.486  10.196  0.1153  0.9300 -0.3416
  609MOL0     C82100   9.166   1.574  10.076 -0.3455  0.0535 -0.4354
  609MOL0     C82101   9.091   1.509   9.962  0.1313  0.1140 -0.1310
  609MOL0     C82102   9.139   1.364   9.934  0.2603 -0.2501 -0.8664
  609MOL0     C82103   9.103   1.316   9.798 -0.5837 -0.7697 -0.4707
  609MOL0     O82104   9.141   1.182   9.779 -0.1124 -0.3312 -0.2729
  609MOL0     C82105   9.260   1.150   9.716  0.0264  0.2959 -0.3700
  609MOL0     C82106   9.284   1.013   9.676  0.2466  0.2246  0.0153
  609MOL0     C82107   9.399   0.965   9.621 -0.5775 -0.2355  1.0476
  609MOL0     C82108   9.496   1.062   9.583 -1.3254  0.3552 -0.2053
  609MOL0     C82109   9.633   1.020   9.526 -0.3490 -0.1575  0.1371
  609MOL0     O82110   9.731   1.115   9.507 -0.5913  0.1571  0.2872
  609MOL0     C82111   9.856   1.085   9.472  0.5304 -0.0136  0.9354
  609MOL0     C82112   9.955   1.161   9.532 -0.1853 -0.5235  0.4432
  609MOL0     C82113  10.090   1.152   9.496 -0.9657 -0.5229 -0.2744
  609MOL0     C82114  10.123   1.064   9.393  0.0152  0.1405  0.5947
  609MOL0     O82115  10.249   1.050   9.348 -0.7991 -0.0906  0.3526
  609MOL0     C82116  10.369   1.096   9.420  0.4907  0.8164  1.2811
  609MOL0     C82117  10.389   1.036   9.557  0.3521  0.2018 -0.0286
  609MOL0     C82118  10.538   1.032   9.597 -0.7854  0.0407  0.5268
  609MOL0     C82119  10.546   0.987   9.738 -0.2409  0.0461 -0.2061
  609MOL0     C82120  10.696   0.998   9.794 -0.0140 -1.2150  0.1745
  609MOL0     C82121  10.709   0.983   9.938  0.2251 -0.1219 -0.3335
  609MOL0     C82122  10.851   1.006   9.995 -0.2623  0.0229  0.6114
  609MOL0     C82123  10.861   1.144  10.046  0.3443 -0.2106  0.8154
  609MOL0    Cl82124  11.031   1.184  10.070  0.1669 -0.4889 -0.3945
  609MOL0     C82125  10.023   0.989   9.331  0.0142  0.0516  0.5895
  609MOL0     C82126   9.890   0.992   9.372 -0.1040  0.2014 -0.2682
  609MOL0     O82127   9.650   0.901   9.498 -0.4551  0.0523  0.4452
  609MOL0     C82128   9.473   1.196   9.618 -0.2838 -0.2210 -0.1317
  609MOL0     C82129   9.363   1.237   9.690 -0.5321  0.1061 -0.2181
  609MOL0     N82130   9.265   1.395  10.241 -0.5731  0.0778 -0.7828
  609MOL0     N82131   9.221   1.340  10.349  0.1695  0.6426  0.0599
  609MOL0     C82132   7.883   1.125  10.823 -0.7039  0.2229 -0.7722
  609MOL0     C82133   7.740   1.122  10.824 -0.7518  0.0313 -0.6598
  609MOL0     C82134   7.317   1.176  10.901  0.6042  0.2337  1.4132
  609MOL0     C82135   7.244   1.237  10.797 -0.0043  0.0356  0.1082
  609MOL0     C82136   7.107   1.235  10.803  0.1713 -0.3899  1.0263
  609MOL0     C82137   7.023   1.182  10.908 -0.7838  0.2817  0.9298
  609MOL0     O82138   6.892   1.168  10.907  0.7198 -0.2160 -0.3105
  609MOL0     C82139   6.821   1.281  10.863  0.7613 -0.6362  0.3240
  609MOL0     C82140   6.710   1.313  10.958  0.1875 -1.2121  0.3087
  609MOL0     C82141   6.583   1.367  10.884 -0.7246 -1.0158  0.1697
  609MOL0     C82142   6.460   1.386  10.978 -0.2432  0.4924  0.2080
  609MOL0     C82143   6.382   1.506  10.941  0.9721 -0.8225  0.5415
  609MOL0     C82144   6.311   1.608  10.921  0.8333 -0.6128  0.0056
  609MOL0     C82145   7.099   1.104  10.999  1.0624 -0.1270  0.3223
  609MOL0     C82146   7.236   1.093  10.992 -0.1186 -0.3169 -0.2184
  609MOL0     C82147   7.300   1.000  11.095 -0.3998 -0.0970  0.0180
  609MOL0     H82148   7.677   1.437  10.722  2.1351  0.5771 -0.9300
  609MOL0     H82149   7.913   1.447  10.710 -0.9613  0.1781 -0.4740
  609MOL0     H82150   8.118   1.410  10.643 -0.4641 -0.0379 -0.0319
  609MOL0     H82151   8.163   1.435  10.823  0.7608  1.6033 -1.4750
  609MOL0     H82152   8.307   1.221  10.661  3.1897  0.3261 -0.9533
  609MOL0     H82153   8.327   1.307  10.818 -1.2305 -0.6716 -0.1987
  609MOL0     H82154   8.388   1.509  10.706  0.0057  0.4410  0.6176
  609MOL0     H82155   8.382   1.431  10.543  2.3078 -0.1117 -0.5776
  609MOL0     H82156   8.569   1.370  10.779 -1.8862  0.0307  0.4914
  609MOL0     H82157   8.553   1.261  10.647  4.0062  1.0806 -0.3289
  609MOL0     H82158   8.623   1.407  10.469  3.0290  0.7036 -1.4660
  609MOL0     H82159   8.646   1.542  10.596  0.3592 -0.8412  1.3759
  609MOL0     H82160   8.833   1.441  10.672 -1.2821  1.0513 -1.0717
  609MOL0     H82161   8.773   1.275  10.638 -0.5687  0.5590  2.8657
  609MOL0     H82162   8.845   1.490  10.421 -1.1365 -1.6163 -2.8528
  609MOL0     H82163   8.814   1.318  10.390  1.8516 -1.0311 -0.8534
  609MOL0     H82164   9.046   1.413  10.563  1.0340  1.5560 -2.7010
  609MOL0     H82165   9.008   1.247  10.516  0.9132 -0.9265 -0.2882
  609MOL0     H82166   8.956   1.499  10.247  0.5420 -0.3237 -0.9982
  609MOL0     H82167   9.114   1.669  10.091 -2.1141 -0.6234 -1.8258
  609MOL0     H82168   9.270   1.599  10.053 -1.1050  4.6193  0.2132
  609MOL0     H82169   8.984   1.503   9.985 -0.2048  1.1610 -1.2908
  609MOL0     H82170   9.107   1.567   9.870  0.5650 -1.0610 -0.8152
  609MOL0     H82171   9.088   1.304  10.010 -0.2879  0.3074 -0.7868
  609MOL0     H82172   9.247   1.347   9.944  0.1234  0.1051  1.9862
  609MOL0     H82173   9.151   1.381   9.725  1.0605  0.0464  1.2605
  609MOL0     H82174   8.995   1.326   9.785 -1.1474 -1.7845  2.5933
  609MOL0     H82175   9.207   0.943   9.707 -0.4481 -0.1128 -2.2642
  609MOL0     H82176   9.415   0.859   9.605 -0.1133 -0.1309  0.8011
  609MOL0     H82177   9.914   1.214   9.619 -1.4712  0.7225 -0.8596
  609MOL0     H82178  10.165   1.213   9.545 -1.8719  0.7335 -0.4054
  609MOL0     H82179  10.442   1.047   9.355 -0.2663 -0.3153  1.2557
  609MOL0     H82180  10.392   1.202   9.416  1.0872  0.6479 -1.1107
  609MOL0     H82181  10.334   1.090   9.634  0.8842 -0.4866  0.8554
  609MOL0     H82182  10.355   0.932   9.562  0.6925  0.1125  0.5617
  609MOL0     H82183  10.595   0.973   9.525 -0.6370  2.0073 -1.0500
  609MOL0     H82184  10.576   1.134   9.588 -0.8011 -0.1356 -2.7070
  609MOL0     H82185  10.516   0.883   9.752 -0.3770  0.2384  1.0779
  609MOL0     H82186  10.481   1.046   9.803 -0.6375 -0.5546 -0.0508
  609MOL0     H82187  10.745   1.094   9.773 -0.2407 -0.5824  2.2970
  609MOL0     H82188  10.761   0.924   9.748  0.6234  0.3026 -1.4899
  609MOL0     H82189  10.644   1.047   9.998 -0.0364  0.3037 -1.0590
  609MOL0     H82190  10.691   0.876   9.956  0.0226 -0.9960 -4.4828
  609MOL0     H82191  10.919   0.990   9.911 -1.9821 -3.0168 -0.3471
  609MOL0     H82192  10.867   0.932  10.074  1.1603 -0.3398  0.0036
  609MOL0     H82193  10.816   1.217   9.978  0.3883 -0.6196  0.3433
  609MOL0     H82194  10.809   1.150  10.141  1.4537 -0.7203  1.4736
  609MOL0     H82195  10.046   0.915   9.255  0.3376 -1.2855  1.9365
  609MOL0     H82196   9.821   0.929   9.316  0.6078 -1.3711  0.5401
  609MOL0     H82197   9.553   1.266   9.594 -1.4603  0.0994 -3.6420
  609MOL0     H82198   9.350   1.341   9.716  0.9241  0.7825 -1.9823
  609MOL0     H82199   7.950   1.047  10.857  1.5016  1.5437 -1.8127
  609MOL0     H82200   7.686   1.039  10.868 -2.2861  0.5965 -1.4135
  609MOL0     H82201   7.303   1.280  10.718  1.1713 -2.6722 -0.5913
  609MOL0     H82202   7.054   1.278  10.718 -1.7771 -2.0178  1.3398
  609MOL0     H82203   6.778   1.255  10.766  2.2892  1.5656 -1.0409
  609MOL0     H82204   6.887   1.368  10.854  2.3049 -1.9185 -1.8324
  609MOL0     H82205   6.744   1.387  11.031 -3.3261 -0.2667  1.1700
  609MOL0     H82206   6.685   1.215  11.000 -1.5850 -1.1587 -0.5474
  609MOL0     H82207   6.557   1.302  10.800 -0.6634 -1.0862  0.2045
  609MOL0     H82208   6.609   1.464  10.841  1.0445 -1.8112 -0.6513
  609MOL0     H82209   6.400   1.295  10.988 -0.9780  1.2464  3.9810
  609MOL0     H82210   6.485   1.412  11.081 -2.2417 -1.6867  1.3414
  609MOL0     H82211   6.251   1.691  10.888 -0.0971  0.0374  3.0059
  609MOL0     H82212   7.040   1.061  11.080  0.8418 -0.5917 -0.0796
  609MOL0     H82213   7.238   0.911  11.110  0.1005 -0.0195  3.4184
  609MOL0     H82214   7.396   0.964  11.055 -1.4682 -3.1385 -0.1257
  609MOL0     H82215   7.317   1.044  11.194  2.7421  0.4867 -0.6797
  610MOL0     O82216  10.689   6.652   6.417  0.1896 -0.7152 -0.4679
  610MOL0     C82217  10.699   6.680   6.301 -0.1025 -0.2699  0.9407
  610MOL0     O82218  10.814   6.678   6.229 -0.4400 -0.3041  0.4449
  610MOL0     C82219  10.940   6.663   6.281 -0.1293 -0.1791 -0.0109
  610MOL0     C82220  10.989   6.651   6.412 -0.7506 -0.0947 -0.1496
  610MOL0     C82221  11.118   6.648   6.452 -1.5874 -0.5903  0.2458
  610MOL0     C82222  11.214   6.654   6.353 -0.0046  0.4384 -0.3244
  610MOL0     O82223  11.352   6.659   6.374 -0.1311 -0.3092  0.3529
  610MOL0     C82224  11.413   6.651   6.508 -0.3075 -0.1073  0.1171
  610MOL0     C82225  11.562   6.629   6.498 -0.1654  0.4465  0.1797
  610MOL0     C82226  11.635   6.727   6.406 -0.0910  0.1293 -0.0092
  610MOL0     C82227  11.785   6.679   6.390 -0.0267 -0.3446  0.4653
  610MOL0     C82228  11.864   6.756   6.279 -0.6672 -0.3180 -0.9676
  610MOL0     C82229  12.023   6.747   6.285 -0.3977  0.5866  0.8790
  610MOL0     C82230  12.093   6.834   6.176 -0.3171 -0.2400 -0.3545
  610MOL0     C82231  12.243   6.806   6.181  0.3106  0.4313  0.0780
  610MOL0     N82232  12.306   6.886   6.071 -0.2948  0.4917 -0.2245
  610MOL0     C82233  12.320   7.021   6.072 -0.9707  0.1893 -0.6254
  610MOL0     C82234  12.343   7.046   5.941 -0.3293  0.0216  0.1258
  610MOL0     C82235  12.372   7.184   5.895 -0.1880 -0.7065 -0.1883
  610MOL0     C82236  12.504   7.202   5.821 -0.5097  0.0484  0.1979
  610MOL0     C82237  12.612   7.131   5.901  0.2063 -0.4550  0.5130
  610MOL0     C82238  12.748   7.162   5.854  0.1496 -0.3971  0.3212
  610MOL0     O82239  12.772   7.109   5.726  0.1951 -0.5734  0.3602
  610MOL0     C82240  12.877   7.150   5.665 -0.0395 -0.2076 -0.1585
  610MOL0     C82241  12.926   7.061   5.566 -0.2335 -1.4107 -0.0203
  610MOL0     C82242  13.055   7.072   5.508  0.3014  0.3668 -0.2748
  610MOL0     C82243  13.136   7.184   5.541  0.3981  0.0481 -0.3476
  610MOL0     C82244  13.280   7.199   5.484  0.6126  0.5568  0.1515
  610MOL0     O82245  13.359   7.308   5.522 -0.0312  0.7541  0.5470
  610MOL0     C82246  13.493   7.320   5.493 -0.1826  0.0774  0.0898
  610MOL0     C82247  13.579   7.228   5.425  0.2818  1.1271 -0.1898
  610MOL0     C82248  13.717   7.250   5.412 -0.2639  0.1538  0.1900
  610MOL0     C82249  13.769   7.371   5.462  0.4601 -0.7420  0.1192
  610MOL0     O82250  13.894   7.419   5.462  0.0126 -0.2516 -0.1445
  610MOL0     C82251  13.984   7.345   5.374  1.2773  0.9606 -0.2175
  610MOL0     C82252  14.123   7.403   5.371 -0.4469 -0.2438 -0.6853
  610MOL0     C82253  14.124   7.542   5.309  0.3210 -0.1198 -0.1201
  610MOL0     C82254  14.257   7.621   5.334 -0.2054  0.5428  0.0246
  610MOL0     C82255  14.242   7.765   5.273  0.4789 -0.4537 -0.1328
  610MOL0     C82256  14.358   7.852   5.313 -0.8494 -0.6071  0.2650
  610MOL0     C82257  14.314   8.003   5.289  0.4639  0.3643 -0.2501
  610MOL0     C82258  14.443   8.093   5.307 -0.4820 -0.1049 -0.2737
  610MOL0    Cl82259  14.535   8.099   5.162  0.4248  0.1442 -0.0367
  610MOL0     C82260  13.682   7.465   5.524  0.5818 -0.1938  0.6544
  610MOL0     C82261  13.547   7.440   5.541 -0.8030  0.0766 -0.3912
  610MOL0     O82262  13.309   7.103   5.409  0.1729 -0.0135  0.0540
  610MOL0     C82263  13.088   7.282   5.635 -0.0205  1.1791 -1.1142
  610MOL0     C82264  12.964   7.265   5.697 -0.0045 -0.4177 -0.3384
  610MOL0     N82265  12.352   6.932   5.867  0.7824  0.7962  0.0856
  610MOL0     N82266  12.330   6.831   5.943 -0.2324  0.0409  0.2688
  610MOL0     C82267  11.177   6.662   6.215 -0.6318  0.8402 -0.1014
  610MOL0     C82268  11.041   6.665   6.181  0.3215 -0.0867  0.0355
  610MOL0     C82269  10.585   6.727   6.227 -0.2910  0.0721  0.3708
  610MOL0     C82270  10.610   6.784   6.092  0.5497 -0.3260  0.0331
  610MOL0     C82271  10.509   6.821   6.006  0.1641 -0.7902  0.7882
  610MOL0     C82272  10.375   6.823   6.054  0.4737 -0.1298 -0.6118
  610MOL0     O82273  10.277   6.878   5.976 -0.1299  0.4926 -0.1192
  610MOL0     C82274  10.157   6.928   6.037  0.3031 -0.5149  0.1423
  610MOL0     C82275  10.105   7.033   5.939 -0.3270 -0.4746 -0.1154
  610MOL0     C82276  10.105   6.969   5.806  0.0858 -0.0503  0.8353
  610MOL0     C82277  10.039   7.063   5.706  0.1137 -0.1265  0.5523
  610MOL0     C82278   9.895   7.085   5.741 -1.4014 -0.2368 -0.1293
  610MOL0     C82279   9.775   7.082   5.769  0.5437 -0.7900 -0.3361
  610MOL0     C82280  10.342   6.779   6.187  0.5497  0.4365 -0.0954
  610MOL0     C82281  10.445   6.720   6.267  0.0678 -0.5345  0.1331
  610MOL0     C82282  10.406   6.659   6.393  0.0264  0.8454 -0.5454
  610MOL0     H82283  10.922   6.652   6.497  0.3674 -3.2657  0.9260
  610MOL0     H82284  11.142   6.640   6.557  0.9003  2.0333 -0.0017
  610MOL0     H82285  11.386   6.747   6.555 -0.3099 -0.4710  0.8829
  610MOL0     H82286  11.364   6.570   6.564  1.4855  0.5655  2.8672
  610MOL0     H82287  11.585   6.528   6.462  1.3005  0.9614 -0.4217
  610MOL0     H82288  11.618   6.637   6.592  2.8151  1.0094 -1.5364
  610MOL0     H82289  11.637   6.824   6.456 -1.0914  0.2970 -0.2579
  610MOL0     H82290  11.579   6.730   6.312 -1.2037 -0.9272  0.5910
  610MOL0     H82291  11.832   6.684   6.488 -1.3801 -1.5442  1.2233
  610MOL0     H82292  11.795   6.573   6.364 -0.0993 -0.0429 -0.8693
  610MOL0     H82293  11.831   6.726   6.179  1.0582 -0.5771 -1.4835
  610MOL0     H82294  11.839   6.861   6.290 -2.8416 -0.9285  0.6170
  610MOL0     H82295  12.071   6.778   6.378 -0.7492  0.5589  1.0726
  610MOL0     H82296  12.059   6.644   6.288  0.4465  0.8887  2.1240
  610MOL0     H82297  12.063   6.938   6.195  0.0622 -0.2468  0.2855
  610MOL0     H82298  12.050   6.812   6.077  2.5020  2.6010 -2.4117
  610MOL0     H82299  12.278   6.828   6.282 -1.0729  1.7932  0.2919
  610MOL0     H82300  12.269   6.701   6.165 -0.8820  0.0385  0.6227
  610MOL0     H82301  12.317   7.092   6.154 -0.3520 -1.3127  0.7347
  610MOL0     H82302  12.292   7.206   5.824  3.6159  0.6195 -4.5808
  610MOL0     H82303  12.359   7.238   5.989 -2.1245 -2.5676  0.7080
  610MOL0     H82304  12.503   7.155   5.722 -2.2664 -0.3295  0.3573
  610MOL0     H82305  12.516   7.311   5.814 -2.3537  0.4483  2.2224
  610MOL0     H82306  12.604   7.022   5.895  0.8413 -0.4726 -0.1500
  610MOL0     H82307  12.609   7.165   6.005  1.4826 -1.1736  0.8067
  610MOL0     H82308  12.826   7.117   5.917  1.5859 -0.4859 -1.4327
  610MOL0     H82309  12.755   7.271   5.843  0.9481 -0.5409 -0.7368
  610MOL0     H82310  12.870   6.970   5.548  1.9886 -2.4987 -2.0091
  610MOL0     H82311  13.080   6.997   5.434 -0.6087  0.7895 -1.0325
  610MOL0     H82312  13.538   7.132   5.397  0.5228  0.7670  0.6623
  610MOL0     H82313  13.782   7.180   5.360 -1.5033 -0.5039 -0.5329
  610MOL0     H82314  13.982   7.242   5.410 -0.5398  0.3026 -1.9875
  610MOL0     H82315  13.942   7.332   5.274 -0.4706 -1.2491  0.7305
  610MOL0     H82316  14.159   7.409   5.474 -1.6749 -2.5070 -0.0637
  610MOL0     H82317  14.188   7.340   5.309 -1.3964  0.4679 -2.4892
  610MOL0     H82318  14.111   7.529   5.201 -0.6132 -1.9887  0.1826
  610MOL0     H82319  14.041   7.601   5.349 -0.4744 -2.2061  1.4828
  610MOL0     H82320  14.339   7.563   5.290  0.2153  1.3979 -0.3504
  610MOL0     H82321  14.278   7.636   5.440  0.4948  1.2419 -0.2020
  610MOL0     H82322  14.156   7.817   5.316  0.6141  1.2001 -1.7338
  610MOL0     H82323  14.242   7.756   5.164 -0.3806 -1.9790 -0.0306
  610MOL0     H82324  14.387   7.843   5.418 -0.8875 -0.2566  0.3087
  610MOL0     H82325  14.450   7.832   5.257 -0.3188  1.3856  0.3258
  610MOL0     H82326  14.245   8.030   5.369  0.9244 -1.0585  0.6675
  610MOL0     H82327  14.262   8.013   5.193 -0.2715 -4.3378 -0.6265
  610MOL0     H82328  14.414   8.193   5.342  1.8764  0.3778  0.4519
  610MOL0     H82329  14.496   8.046   5.389 -0.4423 -0.6632 -0.6145
  610MOL0     H82330  13.733   7.555   5.557  2.9516 -0.9711 -0.6523
  610MOL0     H82331  13.486   7.513   5.593  0.1881  1.1277 -0.6720
  610MOL0     H82332  13.154   7.363   5.662  0.2755 -0.2229  3.0636
  610MOL0     H82333  12.935   7.345   5.766  2.6201 -0.5059  0.9928
  610MOL0     H82334  11.253   6.665   6.137 -1.6158  0.3362 -1.1063
  610MOL0     H82335  11.025   6.665   6.074 -0.0529  0.0117  0.0920
  610MOL0     H82336  10.713   6.789   6.058  0.8342 -1.9859  0.5606
  610MOL0     H82337  10.525   6.865   5.908  0.1355 -1.3552  0.5280
  610MOL0     H82338  10.169   6.967   6.139  0.7223  2.3518 -0.9164
  610MOL0     H82339  10.089   6.842   6.042  2.4831 -2.3366  0.1042
  610MOL0     H82340  10.167   7.123   5.949  0.5780 -1.1964  1.0467
  610MOL0     H82341  10.013   7.076   5.980  1.0301  0.2818  2.3530
  610MOL0     H82342  10.035   6.887   5.821  0.2430  0.0492  2.2486
  610MOL0     H82343  10.199   6.942   5.757 -1.4674 -0.2841 -2.2603
  610MOL0     H82344  10.091   7.159   5.712 -2.0051  1.0761  0.6641
  610MOL0     H82345  10.050   7.025   5.604 -1.7955 -1.3173  0.7561
  610MOL0     H82346   9.673   7.071   5.798  0.5386 -0.4270 -0.2163
  610MOL0     H82347  10.239   6.777   6.222  0.1310 -1.3930 -1.2626
  610MOL0     H82348  10.297   6.668   6.401  0.1040  0.9905  0.3834
  610MOL0     H82349  10.430   6.552   6.392  3.2336  1.3785 -3.6605
  610MOL0     H82350  10.453   6.703   6.481  0.8158  2.9388 -1.9421
  611MOL0     O82351   9.954   4.531   9.566 -0.3849 -0.9339  0.4651
  611MOL0     C82352   9.944   4.627   9.648  1.0467  0.5605 -0.0206
  611MOL0     O82353  10.039   4.654   9.742 -0.2789 -0.2918  0.1807
  611MOL0     C82354  10.149   4.567   9.742 -0.1516 -0.1068 -0.4219
  611MOL0     C82355  10.273   4.612   9.705  0.1278 -0.3721  0.6446
  611MOL0     C82356  10.384   4.526   9.721 -0.0757  0.1905  0.3477
  611MOL0     C82357  10.374   4.396   9.778  0.4714  0.8018  0.1719
  611MOL0     O82358  10.493   4.318   9.775  0.4436 -0.6156  0.3094
  611MOL0     C82359  10.497   4.191   9.708 -0.2911 -0.3166 -0.5277
  611MOL0     C82360  10.557   4.075   9.787  0.2315  0.7707 -0.4069
  611MOL0     C82361  10.497   4.058   9.928 -0.1817 -0.5969  0.4006
  611MOL0     C82362  10.573   3.954  10.015 -0.0366 -0.1589  0.1172
  611MOL0     C82363  10.492   3.897  10.132  0.4365  0.7134  0.4989
  611MOL0     C82364  10.408   3.772  10.093 -0.6137  0.1759  1.1938
  611MOL0     C82365  10.302   3.735  10.193  0.1618  0.0542 -0.1716
  611MOL0     C82366  10.237   3.609  10.153  0.6189 -0.0085 -0.7881
  611MOL0     N82367  10.137   3.560  10.248 -0.1100  0.5743 -0.4456
  611MOL0     C82368  10.025   3.614  10.301 -0.3961  0.4316  0.1709
  611MOL0     C82369   9.988   3.523  10.396  1.0238 -0.0557 -0.2303
  611MOL0     C82370   9.860   3.549  10.471  0.0900 -0.0732  0.0571
  611MOL0     C82371   9.734   3.558  10.394  0.0510 -0.4192 -0.7095
  611MOL0     C82372   9.605   3.596  10.476 -0.4523 -0.5006 -0.2776
  611MOL0     C82373   9.474   3.632  10.386  0.4924 -0.4389 -1.2705
  611MOL0     O82374   9.352   3.593  10.458  0.9893 -0.0668 -0.5903
  611MOL0     C82375   9.230   3.656  10.445 -0.3300  0.3400  0.5477
  611MOL0     C82376   9.223   3.784  10.412  0.1376 -0.3173  0.3038
  611MOL0     C82377   9.095   3.847  10.407  0.2557  0.2665  0.5159
  611MOL0     C82378   8.978   3.769  10.433  0.0440 -0.2849  0.3185
  611MOL0     C82379   8.848   3.831  10.412  0.2700 -0.1365 -1.1798
  611MOL0     O82380   8.737   3.752  10.438  0.8731 -0.0323 -0.1182
  611MOL0     C82381   8.613   3.807  10.405  0.6730  0.4186  0.0164
  611MOL0     C82382   8.530   3.875  10.495 -0.3907 -0.0418 -0.0117
  611MOL0     C82383   8.406   3.918  10.447  0.9168 -0.6158 -0.0679
  611MOL0     C82384   8.359   3.879  10.321 -0.3152  0.3377 -0.2256
  611MOL0     O82385   8.234   3.907  10.274 -0.1447  0.1399 -0.1048
  611MOL0     C82386   8.126   3.922  10.364  0.3508  0.3790 -0.5208
  611MOL0     C82387   8.000   3.923  10.295 -0.6995 -0.1770  0.2107
  611MOL0     C82388   7.981   4.063  10.227  0.4395  0.4520  0.1576
  611MOL0     C82389   7.866   4.081  10.131  0.5246 -0.0771 -0.1651
  611MOL0     C82390   7.854   4.228  10.082  0.0184  0.3830 -0.1636
  611MOL0     C82391   7.743   4.258   9.980 -0.0074 -0.4413 -0.3000
  611MOL0     C82392   7.602   4.219  10.034  0.4059  0.7189 -0.0208
  611MOL0     C82393   7.494   4.262   9.937  0.8017 -0.0444  0.2016
  611MOL0    Cl82394   7.337   4.200   9.990 -0.5557  0.3142 -0.2273
  611MOL0     C82395   8.439   3.804  10.235 -0.8303 -0.2078 -0.0759
  611MOL0     C82396   8.570   3.771  10.275 -0.5255  0.1786 -0.3487
  611MOL0     O82397   8.847   3.947  10.374  0.0139  0.4830 -0.0159
  611MOL0     C82398   8.991   3.639  10.474  0.2785  0.0391  0.1652
  611MOL0     C82399   9.116   3.589  10.485 -0.0787  0.3466  0.9100
  611MOL0     N82400  10.077   3.426  10.405  0.4784 -0.4563  0.3210
  611MOL0     N82401  10.177   3.449  10.323 -0.2748  0.1019  0.3465
  611MOL0     C82402  10.245   4.346   9.809  0.7199 -0.6485 -0.2601
  611MOL0     C82403  10.138   4.436   9.791  0.6820  0.1129  1.5519
  611MOL0     C82404   9.824   4.709   9.638  0.6264 -0.1629  0.4332
  611MOL0     C82405   9.794   4.766   9.508 -0.5571  1.2744  0.4789
  611MOL0     C82406   9.697   4.863   9.496  0.6358 -0.1815 -0.2929
  611MOL0     C82407   9.613   4.898   9.607 -0.0871  0.0270 -0.7955
  611MOL0     O82408   9.525   4.997   9.584  0.9104 -0.3039  0.3543
  611MOL0     C82409   9.419   5.029   9.681  0.3477 -0.0418 -0.1624
  611MOL0     C82410   9.324   5.137   9.624  0.0632  0.3049 -0.4804
  611MOL0     C82411   9.253   5.219   9.736 -1.1774  0.0078  0.3456
  611MOL0     C82412   9.340   5.332   9.809 -1.2593 -0.8117 -0.4719
  611MOL0     C82413   9.463   5.298   9.887 -0.2742  0.4437 -0.2179
  611MOL0     C82414   9.554   5.291   9.966 -1.3394 -0.2823  0.2069
  611MOL0     C82415   9.648   4.850   9.735  0.0731  0.3480 -0.1984
  611MOL0     C82416   9.746   4.747   9.744 -0.1234 -0.3584 -0.3151
  611MOL0     C82417   9.766   4.682   9.876  0.3512 -0.5093 -0.0580
  611MOL0     H82418  10.288   4.714   9.672  2.0643 -0.2090  1.8718
  611MOL0     H82419  10.482   4.555   9.685  0.6753 -1.9597  0.5057
  611MOL0     H82420  10.397   4.165   9.671 -0.1766 -1.0778 -0.3165
  611MOL0     H82421  10.550   4.198   9.613 -3.0782 -0.0673 -2.1962
  611MOL0     H82422  10.665   4.089   9.790  0.1420  1.2874  1.0327
  611MOL0     H82423  10.528   3.988   9.727  0.0254  3.3981 -4.4793
  611MOL0     H82424  10.391   4.031   9.919  0.1648 -1.2052 -2.8720
  611MOL0     H82425  10.495   4.154   9.982 -2.5185 -1.8495  2.8196
  611MOL0     H82426  10.594   3.874   9.943 -0.3467  0.7793 -1.0523
  611MOL0     H82427  10.671   3.995  10.042 -0.0639  1.3779 -1.8993
  611MOL0     H82428  10.557   3.872  10.217  1.0183  1.0575  0.1562
  611MOL0     H82429  10.432   3.980  10.169  3.2887  2.4120  1.6372
  611MOL0     H82430  10.354   3.806  10.004  0.6040  1.2356  0.8258
  611MOL0     H82431  10.470   3.684  10.071  0.7398  1.4214 -0.2352
  611MOL0     H82432  10.230   3.818  10.196 -1.5386 -1.3649 -0.0586
  611MOL0     H82433  10.333   3.728  10.297 -0.8798  1.0021  0.2350
  611MOL0     H82434  10.196   3.620  10.053  2.1345 -0.5232 -1.4980
  611MOL0     H82435  10.320   3.538  10.139 -0.2208 -0.7867 -1.9218
  611MOL0     H82436   9.984   3.710  10.274  0.5008  0.6031 -0.6485
  611MOL0     H82437   9.846   3.460  10.532  3.1351 -0.6607  0.0408
  611MOL0     H82438   9.866   3.629  10.545 -3.0055  0.2287  0.1125
  611MOL0     H82439   9.746   3.642  10.325  1.4711  0.5190  0.6249
  611MOL0     H82440   9.715   3.462  10.344  1.3566 -1.7002  1.1233
  611MOL0     H82441   9.631   3.677  10.544  2.0398 -0.0373 -1.6515
  611MOL0     H82442   9.580   3.508  10.537  0.2063 -0.4700  0.0435
  611MOL0     H82443   9.478   3.562  10.303  0.6469 -0.8392 -0.9320
  611MOL0     H82444   9.480   3.737  10.356  0.3961  0.7867  2.4618
  611MOL0     H82445   9.317   3.837  10.405  1.1163 -1.9977  0.0879
  611MOL0     H82446   9.084   3.955  10.394  1.2730  0.0783 -2.6687
  611MOL0     H82447   8.568   3.891  10.596  1.1145 -2.4765 -0.0959
  611MOL0     H82448   8.352   3.986  10.514  1.4377 -1.0604  0.8261
  611MOL0     H82449   8.127   3.839  10.435 -0.9302  0.3717 -0.5004
  611MOL0     H82450   8.123   4.017  10.419 -0.9731  0.9157 -1.4716
  611MOL0     H82451   8.000   3.846  10.217  3.6353  0.5342 -0.7666
  611MOL0     H82452   7.922   3.903  10.369  1.1174 -0.5414  2.1207
  611MOL0     H82453   7.968   4.142  10.302 -1.3696 -0.3747  0.7925
  611MOL0     H82454   8.074   4.089  10.177  0.1641  0.9411 -0.1101
  611MOL0     H82455   7.772   4.048  10.174 -0.5888  2.1390 -0.7452
  611MOL0     H82456   7.892   4.014  10.048 -3.3175 -1.6963 -0.2359
  611MOL0     H82457   7.949   4.269  10.046 -0.4646  1.2396 -0.4860
  611MOL0     H82458   7.815   4.293  10.161  2.2979  0.3550  1.0873
  611MOL0     H82459   7.742   4.365   9.956  2.3525 -0.2515  0.2269
  611MOL0     H82460   7.771   4.204   9.890  0.3448  1.8798 -1.6567
  611MOL0     H82461   7.577   4.265  10.129 -2.1225  1.7424 -1.1017
  611MOL0     H82462   7.595   4.110  10.044 -4.3396  0.7114 -1.2095
  611MOL0     H82463   7.492   4.371   9.936 -5.8467  0.2610  2.2680
  611MOL0     H82464   7.522   4.223   9.839 -0.4904 -2.2945  0.6526
  611MOL0     H82465   8.398   3.767  10.142  0.8964  1.2235 -1.4659
  611MOL0     H82466   8.636   3.703  10.223 -0.3848  0.2704 -0.2920
  611MOL0     H82467   8.904   3.575  10.489  0.4008 -0.9885 -2.7787
  611MOL0     H82468   9.128   3.486  10.519  0.1105 -0.0135 -0.1974
  611MOL0     H82469  10.226   4.249   9.854  0.7921 -0.1326  0.9202
  611MOL0     H82470  10.043   4.384   9.793  0.6490  0.1680  1.4183
  611MOL0     H82471   9.852   4.739   9.420 -1.5202 -2.6445  0.8664
  611MOL0     H82472   9.690   4.915   9.401 -0.8626  1.8911  0.8644
  611MOL0     H82473   9.472   5.065   9.770  2.5259 -0.2354 -1.3109
  611MOL0     H82474   9.352   4.946   9.706 -2.4025  0.6473 -4.2805
  611MOL0     H82475   9.248   5.089   9.562  2.5309 -2.0378 -1.8434
  611MOL0     H82476   9.382   5.205   9.561 -0.1024  0.7171 -0.1967
  611MOL0     H82477   9.221   5.144   9.809  0.5588 -0.9283  0.1936
  611MOL0     H82478   9.163   5.267   9.698  0.5155  3.2142  0.0684
  611MOL0     H82479   9.369   5.411   9.740 -0.9298 -1.6304 -1.2888
  611MOL0     H82480   9.277   5.390   9.877 -1.3095  0.1496 -1.3175
  611MOL0     H82481   9.637   5.303  10.033 -0.0290  0.4496 -1.4724
  611MOL0     H82482   9.597   4.889   9.822  0.4510  1.5382 -0.4886
  611MOL0     H82483   9.848   4.726   9.935 -2.6212  0.6745  3.5819
  611MOL0     H82484   9.678   4.698   9.938  0.6086  0.5860  0.0426
  611MOL0     H82485   9.773   4.573   9.872 -1.2319 -0.5974 -1.0525
  612MOL0     O82486   8.530   6.296   9.083  0.3900  0.0104  0.6237
  612MOL0     C82487   8.509   6.194   9.147 -1.4426 -0.2310 -1.3400
  612MOL0     O82488   8.612   6.094   9.164 -0.0466  0.2887  0.4000
  612MOL0     C82489   8.740   6.096   9.107 -0.2730  0.6280 -0.7966
  612MOL0     C82490   8.852   6.059   9.186 -0.4789  0.5423  0.5622
  612MOL0     C82491   8.978   6.053   9.129  0.1540 -0.5779  0.0456
  612MOL0     C82492   8.996   6.103   9.002  0.4844 -0.3399  0.8405
  612MOL0     O82493   9.122   6.096   8.954  0.2727  0.3327 -0.3062
  612MOL0     C82494   9.185   6.210   8.897 -0.0655  0.3589  0.2326
  612MOL0     C82495   9.339   6.184   8.876  0.3069  0.3168  0.8664
  612MOL0     C82496   9.350   6.057   8.794  0.6803 -0.2371 -0.3854
  612MOL0     C82497   9.493   6.048   8.738  0.1989  0.6327 -0.0197
  612MOL0     C82498   9.596   5.996   8.845  0.2946  0.2728  0.0492
  612MOL0     C82499   9.743   6.024   8.792 -0.1217  0.8514  0.0521
  612MOL0     C82500   9.837   5.925   8.862  0.1097  0.1303  0.6990
  612MOL0     C82501   9.860   5.967   9.009 -0.3070  0.2584 -1.7376
  612MOL0     N82502   9.960   5.868   9.062 -0.4185 -0.2660  0.6057
  612MOL0     C82503   9.929   5.758   9.129 -0.3478  0.1874 -0.6547
  612MOL0     C82504  10.044   5.689   9.142  0.4487  0.2423 -0.2821
  612MOL0     C82505  10.061   5.556   9.208  0.1306  0.3294  0.1635
  612MOL0     C82506  10.201   5.538   9.271  0.3062  0.2758  0.1404
  612MOL0     C82507  10.202   5.414   9.368  0.6393 -0.1166 -0.5417
  612MOL0     C82508  10.345   5.406   9.416  0.6472  0.2944 -0.0912
  612MOL0     O82509  10.354   5.303   9.517 -0.1093  0.4053  0.1166
  612MOL0     C82510  10.461   5.283   9.598  0.5466 -0.6009  0.5510
  612MOL0     C82511  10.434   5.197   9.699 -0.5534 -0.8822 -0.1099
  612MOL0     C82512  10.537   5.166   9.786  0.4453  0.2416 -0.7776
  612MOL0     C82513  10.661   5.235   9.780 -0.3788 -0.1617 -0.6292
  612MOL0     C82514  10.768   5.195   9.878  0.0258 -0.9323 -0.1487
  612MOL0     O82515  10.880   5.277   9.886 -0.2143  1.2183  0.0054
  612MOL0     C82516  10.955   5.282  10.003 -0.4212 -0.5069  0.4133
  612MOL0     C82517  10.904   5.323  10.123 -0.2673 -0.0458 -0.3859
  612MOL0     C82518  10.982   5.317  10.237 -0.6982 -0.2618 -0.1753
  612MOL0     C82519  11.110   5.273  10.232 -0.1782 -0.3587 -0.5030
  612MOL0     O82520  11.176   5.239  10.352  0.6892 -0.0736 -0.2107
  612MOL0     C82521  11.315   5.258  10.355 -0.7207  0.7220  1.4370
  612MOL0     C82522  11.369   5.253  10.498 -0.2562 -0.8973 -0.9233
  612MOL0     C82523  11.522   5.262  10.510  0.3815 -0.3201 -0.7241
  612MOL0     C82524  11.578   5.355  10.617  0.0718 -0.2539 -0.3265
  612MOL0     C82525  11.730   5.382  10.599 -0.1535  0.3484 -0.2230
  612MOL0     C82526  11.816   5.253  10.614 -0.6927  0.1690  0.1620
  612MOL0     C82527  11.962   5.294  10.613 -0.1580  0.7080 -1.3164
  612MOL0     C82528  12.041   5.167  10.655 -0.5231 -0.5539 -0.1661
  612MOL0    Cl82529  12.227   5.208  10.674  0.3101  0.4190 -0.0056
  612MOL0     C82530  11.168   5.247  10.107 -0.1510 -0.2160 -0.4649
  612MOL0     C82531  11.089   5.250   9.990  0.2688 -0.3008 -0.2893
  612MOL0     O82532  10.744   5.099   9.955  0.3251 -0.5944 -0.1729
  612MOL0     C82533  10.680   5.327   9.682 -0.1794 -0.0490  0.3531
  612MOL0     C82534  10.582   5.350   9.586  0.2630  0.0445  0.1256
  612MOL0     N82535  10.147   5.762   9.077  0.2123 -0.4299  0.0291
  612MOL0     N82536  10.098   5.871   9.041 -0.3776 -0.2589  0.1795
  612MOL0     C82537   8.885   6.151   8.926  0.5220  0.2371 -0.3610
  612MOL0     C82538   8.759   6.142   8.976  0.5404 -0.9022 -0.5190
  612MOL0     C82539   8.389   6.177   9.217 -0.0580 -0.3620 -0.4477
  612MOL0     C82540   8.375   6.054   9.291  0.1550 -0.1036  0.0297
  612MOL0     C82541   8.248   6.020   9.343 -0.1895  0.3839 -0.6055
  612MOL0     C82542   8.134   6.110   9.336 -0.0886  0.7429  0.2646
  612MOL0     O82543   8.008   6.087   9.380 -0.2085 -0.0161 -0.2063
  612MOL0     C82544   7.937   5.986   9.304 -0.1404  0.3148  0.0669
  612MOL0     C82545   7.824   5.942   9.391 -0.0938  0.1211  0.2677
  612MOL0     C82546   7.880   5.862   9.518 -0.3553  0.0979  0.3523
  612MOL0     C82547   7.893   5.713   9.482  0.4026  0.5581  0.2387
  612MOL0     C82548   7.758   5.650   9.471 -0.1269  0.7076  0.7545
  612MOL0     C82549   7.655   5.596   9.467  0.1904  0.5689  0.1471
  612MOL0     C82550   8.161   6.230   9.273 -0.2377 -0.0867 -0.0173
  612MOL0     C82551   8.277   6.263   9.208  0.0817 -0.3356 -0.1456
  612MOL0     C82552   8.282   6.404   9.154  0.8701  0.5785 -0.0001
  612MOL0     H82553   8.849   6.017   9.286  1.7688 -0.8207  0.1367
  612MOL0     H82554   9.067   6.023   9.184  1.1795 -0.6582 -1.5818
  612MOL0     H82555   9.132   6.242   8.807 -2.2007  0.5651  1.5075
  612MOL0     H82556   9.190   6.286   8.975  1.6748  1.0257 -0.4754
  612MOL0     H82557   9.396   6.174   8.969 -0.3469 -2.3143  1.0529
  612MOL0     H82558   9.371   6.277   8.828  0.5358 -1.2216 -2.1695
  612MOL0     H82559   9.285   6.055   8.705  1.3122  1.1543 -0.9149
  612MOL0     H82560   9.344   5.964   8.851  0.6164  0.3483  0.5696
  612MOL0     H82561   9.473   5.982   8.653 -2.6733 -1.0107  1.7143
  612MOL0     H82562   9.517   6.146   8.698  1.6948  1.0906  1.8984
  612MOL0     H82563   9.579   6.059   8.933 -0.1618  1.5793 -0.9425
  612MOL0     H82564   9.580   5.891   8.871  3.7750 -0.6629 -1.0583
  612MOL0     H82565   9.750   5.999   8.686  1.1690 -0.8166  0.4834
  612MOL0     H82566   9.762   6.130   8.811 -2.2861  0.6572  4.7537
  612MOL0     H82567   9.935   5.929   8.814 -1.0768 -0.4131 -1.9359
  612MOL0     H82568   9.803   5.821   8.863  3.0720 -0.9647 -1.0336
  612MOL0     H82569   9.892   6.069   9.029  0.5414 -0.3116  0.1359
  612MOL0     H82570   9.770   5.951   9.070  1.0488  2.2802  0.9739
  612MOL0     H82571   9.831   5.728   9.164 -0.3725  0.9877  0.0000
  612MOL0     H82572   9.985   5.542   9.286 -1.2350  0.4728 -1.1032
  612MOL0     H82573  10.057   5.475   9.134 -1.8191  0.0775  0.4875
  612MOL0     H82574  10.274   5.522   9.192  0.1795  0.4112 -0.0060
  612MOL0     H82575  10.211   5.631   9.328 -2.1287 -0.1920  1.5185
  612MOL0     H82576  10.182   5.315   9.327  2.3141 -3.9415  6.3408
  612MOL0     H82577  10.132   5.429   9.452 -1.3174 -0.2543 -2.0742
  612MOL0     H82578  10.372   5.505   9.455  1.1906  0.3303 -0.5438
  612MOL0     H82579  10.419   5.388   9.338 -0.5348  0.8707 -1.3802
  612MOL0     H82580  10.339   5.148   9.716 -0.8687 -0.0449  0.6528
  612MOL0     H82581  10.520   5.080   9.850  5.5373  1.1965  2.4712
  612MOL0     H82582  10.804   5.362  10.134 -1.2510 -1.7972 -2.2223
  612MOL0     H82583  10.943   5.346  10.334 -0.9474  1.5713 -0.7765
  612MOL0     H82584  11.357   5.169  10.307  1.3852  1.5795  1.5779
  612MOL0     H82585  11.355   5.343  10.300  4.5726 -1.8426  0.6699
  612MOL0     H82586  11.322   5.336  10.552  1.3694  1.5785 -3.0484
  612MOL0     H82587  11.345   5.162  10.553 -0.8381 -0.6821 -0.8034
  612MOL0     H82588  11.566   5.163  10.527 -0.7111 -0.5851  0.7660
  612MOL0     H82589  11.557   5.292  10.411 -2.5456 -1.6546 -2.2807
  612MOL0     H82590  11.571   5.325  10.722  2.1995  2.0503  0.5766
  612MOL0     H82591  11.517   5.445  10.615 -1.3256 -1.1753 -1.2675
  612MOL0     H82592  11.760   5.460  10.670 -1.5935  0.4604  0.2849
  612MOL0     H82593  11.750   5.427  10.501  2.3954  3.1364  1.3749
  612MOL0     H82594  11.805   5.210  10.715  3.3380 -2.8253 -0.4584
  612MOL0     H82595  11.794   5.186  10.531  1.3905 -0.5320  0.1315
  612MOL0     H82596  11.985   5.385  10.669  0.8412  0.6451 -1.6027
  612MOL0     H82597  11.989   5.310  10.508 -1.2767 -2.0909 -2.1130
  612MOL0     H82598  12.007   5.137  10.755 -0.7990  1.5101  0.4178
  612MOL0     H82599  12.024   5.085  10.585 -1.4310 -0.4603 -0.0609
  612MOL0     H82600  11.274   5.224  10.105 -0.1327 -0.2246  0.2838
  612MOL0     H82601  11.130   5.230   9.892  0.5738 -1.5555  0.0746
  612MOL0     H82602  10.773   5.383   9.682 -0.3543  0.3158  2.2102
  612MOL0     H82603  10.594   5.425   9.509  1.1421  0.0911  0.3041
  612MOL0     H82604   8.911   6.193   8.829  2.1904 -0.3549 -0.2026
  612MOL0     H82605   8.671   6.177   8.922 -0.1762  0.1215  1.2302
  612MOL0     H82606   8.454   5.981   9.306 -0.1736 -0.5363 -0.3565
  612MOL0     H82607   8.240   5.929   9.402  0.1315  1.3063  0.8961
  612MOL0     H82608   7.996   5.899   9.275 -2.7936 -1.3650 -0.6190
  612MOL0     H82609   7.893   6.027   9.212  1.1240  1.1007 -0.2118
  612MOL0     H82610   7.763   5.872   9.333 -1.5786  1.3610  0.2690
  612MOL0     H82611   7.758   6.022   9.424 -0.0980  0.1407  0.2116
  612MOL0     H82612   7.805   5.869   9.597 -1.4710 -2.7274 -0.3140
  612MOL0     H82613   7.971   5.900   9.565  0.8058 -1.1825 -0.7417
  612MOL0     H82614   7.954   5.703   9.391  0.9693  1.9113  0.4481
  612MOL0     H82615   7.943   5.666   9.568  1.4900  0.8839 -0.1902
  612MOL0     H82616   7.563   5.540   9.465 -0.1792  0.9795  2.8826
  612MOL0     H82617   8.087   6.309   9.279  2.1853  2.1937  2.9805
  612MOL0     H82618   8.200   6.458   9.201 -1.1440 -0.5085 -2.0494
  612MOL0     H82619   8.378   6.455   9.171  3.1388 -1.2562 -5.0492
  612MOL0     H82620   8.261   6.397   9.047  0.4609 -1.9244  0.1711
  613MOL0     O82621  10.250  10.626  10.793 -0.3256 -0.4141 -0.0086
  613MOL0     C82622  10.168  10.533  10.802 -0.4209  0.1345  0.5114
  613MOL0     O82623  10.198  10.399  10.830 -0.0430 -0.6203  1.0908
  613MOL0     C82624  10.314  10.360  10.886 -0.4913  0.7972  0.3499
  613MOL0     C82625  10.443  10.388  10.841 -0.4060  0.1070 -0.2174
  613MOL0     C82626  10.555  10.328  10.899 -0.2389 -0.4892  0.2366
  613MOL0     C82627  10.540  10.230  10.999  0.0722 -0.3996 -0.7074
  613MOL0     O82628  10.652  10.164  11.036  0.2271  0.0117  0.0958
  613MOL0     C82629  10.659  10.018  11.016 -0.9396  0.3768  0.3781
  613MOL0     C82630  10.806   9.975  10.975 -0.0786 -0.0412  0.1499
  613MOL0     C82631  10.860  10.039  10.851  0.0941 -0.4148  0.3744
  613MOL0     C82632  10.954   9.956  10.755 -0.4966  0.0916 -0.1389
  613MOL0     C82633  10.883   9.845  10.677 -0.2416 -0.8423 -0.1600
  613MOL0     C82634  10.781   9.898  10.578 -0.0182  0.0090  0.3014
  613MOL0     C82635  10.709   9.792  10.499  0.0107 -0.1214  0.3423
  613MOL0     C82636  10.577   9.833  10.439 -0.1195  0.0867 -0.0510
  613MOL0     N82637  10.466   9.838  10.533  0.0708 -0.4320 -0.1976
  613MOL0     C82638  10.428   9.947  10.610  1.0035 -0.5994  0.1808
  613MOL0     C82639  10.327   9.904  10.688 -0.4663  0.2731  0.0018
  613MOL0     C82640  10.273   9.979  10.810  0.2123  0.4876  0.1664
  613MOL0     C82641  10.129   9.934  10.844 -0.5121  0.1078 -0.1754
  613MOL0     C82642  10.025   9.959  10.729  1.0496  0.7628  0.0438
  613MOL0     C82643   9.976  10.101  10.748  0.2103  0.4613  0.8758
  613MOL0     O82644   9.867  10.131  10.662 -0.0234  0.3096  0.9574
  613MOL0     C82645   9.885  10.170  10.527  0.1832  0.0307 -0.0887
  613MOL0     C82646   9.781  10.216  10.450  1.3235  0.2599  0.5240
  613MOL0     C82647   9.796  10.259  10.318  0.2103 -0.4665  1.1091
  613MOL0     C82648   9.923  10.256  10.256 -0.4066 -0.2127 -0.1307
  613MOL0     C82649   9.957  10.291  10.122  0.6376  0.3417  0.5552
  613MOL0     O82650  10.080  10.306  10.089 -0.6156 -0.1425 -0.2097
  613MOL0     C82651  10.123  10.275   9.967  0.6683  0.3178  0.6102
  613MOL0     C82652  10.152  10.371   9.870 -0.8490 -0.3590  0.4738
  613MOL0     C82653  10.199  10.337   9.740  0.2551  0.2279 -0.5327
  613MOL0     C82654  10.232  10.201   9.716  0.2492 -0.4871  0.0380
  613MOL0     O82655  10.291  10.163   9.598  0.2129  0.5790 -0.3229
  613MOL0     C82656  10.273  10.244   9.471  0.2432  0.4137 -0.1025
  613MOL0     C82657  10.296  10.145   9.360  0.4322 -0.0246  0.0124
  613MOL0     C82658  10.180  10.056   9.320  0.4323  0.1946  0.0582
  613MOL0     C82659  10.155   9.941   9.414 -0.1670  0.6725 -0.5543
  613MOL0     C82660  10.249   9.826   9.394 -0.1166  0.3980  0.0627
  613MOL0     C82661  10.237   9.708   9.499  0.7448 -0.1752 -1.0055
  613MOL0     C82662  10.236   9.750   9.646  0.6128 -0.9212  0.0755
  613MOL0     C82663  10.231   9.616   9.723  0.6986  0.5849  0.4212
  613MOL0    Cl82664  10.254   9.627   9.900  0.8224 -0.0876 -0.1035
  613MOL0     C82665  10.209  10.109   9.813 -0.4275  0.2110  0.2268
  613MOL0     C82666  10.148  10.142   9.936 -0.4929 -0.6659  0.0605
  613MOL0     O82667   9.870  10.263  10.039  0.3370 -0.7906  0.2389
  613MOL0     C82668  10.033  10.217  10.344  0.0354 -0.3954 -0.2363
  613MOL0     C82669  10.013  10.172  10.472  0.0653  0.4328 -0.0256
  613MOL0     N82670  10.300   9.769  10.654 -0.0685 -0.1249 -0.0021
  613MOL0     N82671  10.373   9.740  10.550  0.8401 -0.0779  0.0429
  613MOL0     C82672  10.410  10.202  11.045 -0.4867  0.2963  0.7943
  613MOL0     C82673  10.300  10.257  10.983 -0.3914  0.0953 -0.1142
  613MOL0     C82674  10.031  10.573  10.759 -0.3265 -0.6963 -0.5507
  613MOL0     C82675   9.952  10.470  10.710 -0.3871 -0.1077  0.4086
  613MOL0     C82676   9.815  10.496  10.680  0.3375 -0.0502  0.8770
  613MOL0     C82677   9.760  10.614  10.683  0.5123  0.2549 -0.6181
  613MOL0     O82678   9.631  10.612  10.650  0.5512  0.1892  0.6036
  613MOL0     C82679   9.552  10.731  10.673 -0.1381 -0.2033 -0.5743
  613MOL0     C82680   9.539  10.819  10.547  0.8374 -0.1155 -0.0493
  613MOL0     C82681   9.501  10.747  10.420  0.8643 -0.4557  0.4734
  613MOL0     C82682   9.435  10.830  10.309  0.4897  0.3796  0.1960
  613MOL0     C82683   9.513  10.943  10.264  0.1474  0.7221  0.3722
  613MOL0     C82684   9.549  11.051  10.234  0.8770 -0.3967  0.1600
  613MOL0     C82685   9.844  10.726  10.727  1.2680  0.1580 -0.0862
  613MOL0     C82686   9.976  10.709  10.768  0.0828  0.5628  0.5065
  613MOL0     C82687  10.029  10.836  10.820 -0.1650 -0.3915  0.1415
  613MOL0     H82688  10.443  10.467  10.767 -2.8602 -0.1472 -0.5694
  613MOL0     H82689  10.655  10.366  10.880 -0.7338  1.6364  1.6015
  613MOL0     H82690  10.632   9.955  11.102  0.0098 -0.0481  0.3882
  613MOL0     H82691  10.594   9.998  10.931  2.1195  0.0497 -2.0933
  613MOL0     H82692  10.807   9.867  10.955 -1.3163 -0.5074  2.2978
  613MOL0     H82693  10.870  10.000  11.060  1.1796  0.6668 -0.9711
  613MOL0     H82694  10.909  10.134  10.875  0.4467 -0.4028 -0.3819
  613MOL0     H82695  10.774  10.071  10.792  1.5284  0.0255 -1.5737
  613MOL0     H82696  11.003  10.027  10.688  2.1675 -0.2844  1.2526
  613MOL0     H82697  11.027   9.910  10.822  0.3742 -0.4019 -1.3868
  613MOL0     H82698  10.964   9.789  10.630  1.7331  1.5970  0.1920
  613MOL0     H82699  10.832   9.779  10.748  0.1156  1.2052  2.1237
  613MOL0     H82700  10.706   9.968  10.616 -0.7580 -0.8008  0.3492
  613MOL0     H82701  10.832   9.956  10.501 -1.3662  0.9708  0.0977
  613MOL0     H82702  10.684   9.710  10.566  1.8558 -0.6955  0.3844
  613MOL0     H82703  10.778   9.757  10.422 -0.5090 -1.2375  0.3747
  613MOL0     H82704  10.593   9.927  10.386  0.3864  0.1604  0.2296
  613MOL0     H82705  10.552   9.755  10.366 -1.0390 -0.2347  0.5848
  613MOL0     H82706  10.472  10.046  10.619  0.1718  0.1720 -3.0052
  613MOL0     H82707  10.326   9.956  10.903 -3.4245  1.1516  2.6136
  613MOL0     H82708  10.284  10.084  10.783  0.4983  0.0121 -1.6794
  613MOL0     H82709  10.150   9.827  10.853  0.5985  0.4596  2.1614
  613MOL0     H82710  10.104   9.978  10.941 -1.5613  1.0964 -0.8604
  613MOL0     H82711   9.935   9.897  10.737 -1.2835  3.3948 -2.9642
  613MOL0     H82712  10.074   9.941  10.633 -0.5665 -3.3221 -0.2132
  613MOL0     H82713  10.066  10.163  10.742  0.1751  0.4336 -0.0288
  613MOL0     H82714   9.936  10.102  10.850  0.7086 -0.0780  1.0821
  613MOL0     H82715   9.677  10.224  10.480  1.5549  1.7315  1.0031
  613MOL0     H82716   9.712  10.293  10.259  1.3749 -1.6606 -1.3980
  613MOL0     H82717  10.131  10.476   9.884 -1.5115 -0.6948  2.3403
  613MOL0     H82718  10.218  10.413   9.665 -4.1176  1.3719 -0.7157
  613MOL0     H82719  10.175  10.291   9.465  2.0724  4.9595  1.1336
  613MOL0     H82720  10.355  10.316   9.462  0.9198 -0.5154 -2.2065
  613MOL0     H82721  10.308  10.203   9.268  0.9256 -0.1270  0.0094
  613MOL0     H82722  10.387  10.088   9.381  1.6661  3.0035  4.1895
  613MOL0     H82723  10.090  10.117   9.308  0.8194  0.2546 -3.5960
  613MOL0     H82724  10.196  10.014   9.220 -0.0699 -0.2681  0.1688
  613MOL0     H82725  10.051   9.911   9.400  0.1896 -0.8221 -0.1442
  613MOL0     H82726  10.168   9.971   9.519  2.7615 -1.3487 -0.2182
  613MOL0     H82727  10.355   9.852   9.398 -0.3872  1.5638  0.0689
  613MOL0     H82728  10.221   9.790   9.295 -2.1000 -2.8452  1.6136
  613MOL0     H82729  10.144   9.656   9.474  0.6675 -0.7486  0.3939
  613MOL0     H82730  10.312   9.629   9.489  1.3305  0.4251 -1.3792
  613MOL0     H82731  10.149   9.814   9.664  0.7286 -0.9529  0.7614
  613MOL0     H82732  10.331   9.801   9.666 -1.2861  2.0890  2.3248
  613MOL0     H82733  10.137   9.561   9.710  1.1374  0.0672 -0.7366
  613MOL0     H82734  10.306   9.546   9.685  0.2215  0.6612 -0.6989
  613MOL0     H82735  10.228  10.005   9.791 -0.0557 -0.3732  3.0288
  613MOL0     H82736  10.109  10.061   9.996 -1.5915  0.7649  1.3503
  613MOL0     H82737  10.129  10.206  10.295 -0.3249 -0.1820 -1.0117
  613MOL0     H82738  10.102  10.141  10.525  0.0908  1.3583  0.4967
  613MOL0     H82739  10.394  10.140  11.133  1.1418  2.5795  2.8536
  613MOL0     H82740  10.203  10.227  11.022  0.1461 -1.8012 -0.1416
  613MOL0     H82741   9.991  10.372  10.686  1.1241  0.7197 -0.7390
  613MOL0     H82742   9.754  10.420  10.632 -0.2144  0.8955  0.0440
  613MOL0     H82743   9.586  10.789  10.759 -0.4305 -0.2963 -0.3940
  613MOL0     H82744   9.452  10.697  10.702  0.7751 -0.7682  2.1860
  613MOL0     H82745   9.627  10.884  10.539  0.4060  0.4911  0.0520
  613MOL0     H82746   9.460  10.889  10.578  0.9199 -0.2637  0.5131
  613MOL0     H82747   9.438  10.661  10.446  1.5962 -1.3357 -0.5535
  613MOL0     H82748   9.588  10.692  10.383 -0.0807 -1.8874  0.2807
  613MOL0     H82749   9.407  10.762  10.228  0.5252  0.1795  0.3519
  613MOL0     H82750   9.342  10.864  10.355 -0.3858  0.5872 -1.6170
  613MOL0     H82751   9.586  11.148  10.207 -1.3466 -0.2410 -2.8132
  613MOL0     H82752   9.799  10.824  10.735 -0.3343 -0.7328  3.5913
  613MOL0     H82753  10.139  10.837  10.821 -0.1518 -0.4499 -0.7706
  613MOL0     H82754  10.003  10.925  10.762  1.8832 -0.0250 -0.2951
  613MOL0     H82755  10.008  10.864  10.924  1.0645  0.0776  0.2843
  614MOL0     O82756   8.392   4.777  10.264  0.0823  0.2951 -0.2335
  614MOL0     C82757   8.348   4.663  10.287  0.1302 -0.0729 -0.0155
  614MOL0     O82758   8.429   4.550  10.317 -0.6851  0.0805 -0.5203
  614MOL0     C82759   8.565   4.569  10.324  0.0414  0.4253  0.1300
  614MOL0     C82760   8.636   4.556  10.211  0.4999  0.6039 -0.1528
  614MOL0     C82761   8.772   4.573  10.207  0.9053  0.5535 -0.3646
  614MOL0     C82762   8.840   4.592  10.333  0.4091 -0.2175 -0.0308
  614MOL0     O82763   8.973   4.608  10.341  0.2237 -0.4412  0.1611
  614MOL0     C82764   9.042   4.706  10.255 -0.0583 -0.0012  0.0255
  614MOL0     C82765   9.193   4.716  10.289  0.1214  0.5008  0.0518
  614MOL0     C82766   9.280   4.623  10.195 -0.2952  0.4864  0.4250
  614MOL0     C82767   9.419   4.604  10.253  0.2740 -0.0223 -0.0937
  614MOL0     C82768   9.515   4.543  10.159  1.6530 -0.1376 -0.0681
  614MOL0     C82769   9.655   4.558  10.207 -0.1779 -0.2742 -0.3331
  614MOL0     C82770   9.694   4.455  10.324  0.0309 -0.5833  0.7087
  614MOL0     C82771   9.822   4.489  10.381 -0.5787  0.5467 -0.4122
  614MOL0     N82772   9.933   4.433  10.299 -0.0495 -0.6548  0.1065
  614MOL0     C82773  10.006   4.318  10.325 -0.2484 -0.8187  0.0947
  614MOL0     C82774  10.098   4.313  10.228 -0.1506  0.8920 -0.1654
  614MOL0     C82775  10.205   4.208  10.209 -0.0909 -0.8772  0.3712
  614MOL0     C82776  10.333   4.259  10.267  0.0829  0.2860  0.6949
  614MOL0     C82777  10.419   4.363  10.202  0.4979 -0.4796  0.1858
  614MOL0     C82778  10.566   4.348  10.244 -0.5298 -0.3491  0.1098
  614MOL0     O82779  10.633   4.230  10.186  0.4853  0.0031  0.4951
  614MOL0     C82780  10.768   4.231  10.195 -0.4506 -0.6929 -0.5396
  614MOL0     C82781  10.841   4.271  10.306  1.1262  0.2778 -0.2323
  614MOL0     C82782  10.983   4.275  10.299 -0.8423  0.8857 -0.4106
  614MOL0     C82783  11.056   4.236  10.190  0.4443  0.2492  0.2059
  614MOL0     C82784  11.207   4.244  10.188  0.8857  0.3719  0.0862
  614MOL0     O82785  11.280   4.291  10.294  0.5315 -0.2472  0.2177
  614MOL0     C82786  11.408   4.260  10.334  0.1040  0.0773 -0.1408
  614MOL0     C82787  11.466   4.327  10.448  0.4724 -0.2124  0.2434
  614MOL0     C82788  11.591   4.292  10.497 -0.0503 -0.0909  0.5783
  614MOL0     C82789  11.666   4.185  10.444  0.7467  0.3390  0.3130
  614MOL0     O82790  11.781   4.145  10.500  0.4487 -0.3081 -0.0417
  614MOL0     C82791  11.854   4.036  10.448 -0.3194 -0.5705 -0.0612
  614MOL0     C82792  11.992   4.029  10.517 -0.0336 -0.1440  0.2470
  614MOL0     C82793  11.971   4.005  10.668  0.3415  0.0174 -0.3739
  614MOL0     C82794  11.922   3.864  10.712 -0.2005 -0.6400 -0.5235
  614MOL0     C82795  12.022   3.752  10.682  0.3921  0.3650 -0.1844
  614MOL0     C82796  11.957   3.611  10.703 -0.6287 -0.2589 -1.6993
  614MOL0     C82797  11.942   3.577  10.849  0.6386 -0.4239  0.7701
  614MOL0     C82798  11.882   3.437  10.865  1.2434 -0.2401  0.6451
  614MOL0    Cl82799  12.012   3.312  10.875 -0.4188  0.4545  0.4872
  614MOL0     C82800  11.607   4.113  10.332 -0.3582  0.2019 -0.2465
  614MOL0     C82801  11.487   4.150  10.280  0.3993  0.1667  0.2096
  614MOL0     O82802  11.254   4.203  10.084  0.2933 -0.5163 -0.0817
  614MOL0     C82803  10.986   4.192  10.078  0.1790  0.6337 -0.1509
  614MOL0     C82804  10.846   4.189  10.085 -0.5520 -0.2073  1.2356
  614MOL0     N82805  10.082   4.420  10.142 -0.6116 -0.3447 -0.0259
  614MOL0     N82806   9.986   4.492  10.187 -0.4196  0.9823 -1.0827
  614MOL0     C82807   8.764   4.605  10.454  0.1512  0.1988  0.3323
  614MOL0     C82808   8.623   4.603  10.444  0.2754 -0.4049 -0.8047
  614MOL0     C82809   8.198   4.637  10.273  0.1403  0.0516 -0.8395
  614MOL0     C82810   8.163   4.505  10.314  0.0027  0.5044  0.8608
  614MOL0     C82811   8.028   4.469  10.329  0.3994 -0.0126  0.3430
  614MOL0     C82812   7.931   4.568  10.304 -0.4150 -0.1587  0.2816
  614MOL0     O82813   7.804   4.533  10.333  0.2181 -0.1797 -1.1014
  614MOL0     C82814   7.696   4.597  10.280  0.8132 -0.0799 -0.1336
  614MOL0     C82815   7.561   4.531  10.311  0.2035 -0.2798 -0.4413
  614MOL0     C82816   7.442   4.593  10.236  0.6283 -0.0835 -0.2958
  614MOL0     C82817   7.304   4.584  10.310  0.2958  0.0575  0.1841
  614MOL0     C82818   7.289   4.450  10.368  0.3062 -0.2508  0.5048
  614MOL0     C82819   7.273   4.333  10.409  0.2933  0.3956  0.9754
  614MOL0     C82820   7.963   4.696  10.260 -0.0992 -0.1034  0.0747
  614MOL0     C82821   8.100   4.735  10.240  0.3456  0.8058  0.3981
  614MOL0     C82822   8.127   4.879  10.208  0.6550 -0.1058 -0.2398
  614MOL0     H82823   8.583   4.533  10.119  1.7872  1.7472 -1.2294
  614MOL0     H82824   8.820   4.546  10.114  0.6557 -1.5831  0.0741
  614MOL0     H82825   9.030   4.666  10.154  0.3468 -0.0087 -0.0218
  614MOL0     H82826   8.998   4.805  10.266  2.8075  1.1940  1.9485
  614MOL0     H82827   9.208   4.695  10.395 -1.7791 -1.0694  0.0598
  614MOL0     H82828   9.225   4.815  10.255 -0.3051  0.9917  1.0430
  614MOL0     H82829   9.282   4.655  10.090 -0.4013 -1.9329 -0.3793
  614MOL0     H82830   9.239   4.522  10.198  3.8574 -1.3930  2.6150
  614MOL0     H82831   9.456   4.701  10.288  0.7963 -0.5256  0.7892
  614MOL0     H82832   9.409   4.535  10.337 -0.8106  2.0834  1.5883
  614MOL0     H82833   9.488   4.437  10.156  0.0474  0.1560  1.8544
  614MOL0     H82834   9.499   4.588  10.061  2.0311 -2.6425 -1.3612
  614MOL0     H82835   9.720   4.532  10.123 -2.7468 -0.5914 -2.3495
  614MOL0     H82836   9.676   4.660  10.242  1.0208  0.2117 -2.3137
  614MOL0     H82837   9.699   4.354  10.283  4.1994 -1.0592  1.8831
  614MOL0     H82838   9.615   4.447  10.399 -3.7431  2.0068 -2.5432
  614MOL0     H82839   9.841   4.596  10.390 -0.7836  0.8120 -2.6801
  614MOL0     H82840   9.838   4.450  10.482  2.8158  0.4553 -0.8678
  614MOL0     H82841  10.007   4.243  10.403  1.0030  0.3490  1.2687
  614MOL0     H82842  10.174   4.116  10.260 -2.6876  0.1506  0.7937
  614MOL0     H82843  10.221   4.176  10.106  0.7483 -1.1800  0.5900
  614MOL0     H82844  10.314   4.294  10.369 -0.8106  0.6434  0.4208
  614MOL0     H82845  10.396   4.171  10.283  0.0601  0.3434  1.1154
  614MOL0     H82846  10.389   4.457  10.249  0.6568 -0.7398  0.8138
  614MOL0     H82847  10.404   4.361  10.094  1.7955  1.8977 -0.0962
  614MOL0     H82848  10.568   4.339  10.353 -3.2549  0.8507  0.3454
  614MOL0     H82849  10.624   4.432  10.205 -2.2313  0.5950 -0.5124
  614MOL0     H82850  10.790   4.320  10.388 -1.2728 -1.5073 -0.5706
  614MOL0     H82851  11.021   4.297  10.398  0.5210 -1.0490 -0.4562
  614MOL0     H82852  11.414   4.403  10.506  0.2095  1.2884 -1.8535
  614MOL0     H82853  11.641   4.343  10.579  2.8006 -0.0174 -1.0927
  614MOL0     H82854  11.799   3.945  10.473 -1.3179  0.0880  0.1772
  614MOL0     H82855  11.864   4.050  10.340 -0.3718 -0.6411 -0.0744
  614MOL0     H82856  12.045   3.948  10.468  1.2713  1.2324 -0.7019
  614MOL0     H82857  12.059   4.114  10.498 -1.4936  0.8426 -0.7816
  614MOL0     H82858  12.067   4.004  10.722  0.0438 -1.4286  0.1763
  614MOL0     H82859  11.900   4.076  10.712  2.9299  0.6209  3.3968
  614MOL0     H82860  11.827   3.848  10.661 -1.9880  3.2747  1.1197
  614MOL0     H82861  11.907   3.857  10.820 -0.1500 -1.1458 -0.5484
  614MOL0     H82862  12.112   3.761  10.743 -0.1353  1.6662  0.4489
  614MOL0     H82863  12.063   3.760  10.581  0.3173  0.8032 -0.1793
  614MOL0     H82864  11.856   3.601  10.661 -1.7892 -1.5806  1.1264
  614MOL0     H82865  12.025   3.538  10.658  3.0946  1.9201 -0.0720
  614MOL0     H82866  11.867   3.650  10.881 -0.0909 -0.2424 -1.1643
  614MOL0     H82867  12.035   3.582  10.907  0.8331 -0.7392  0.4894
  614MOL0     H82868  11.823   3.435  10.957  2.8988  1.0155  1.8103
  614MOL0     H82869  11.819   3.416  10.778  2.1365  0.3235 -0.1740
  614MOL0     H82870  11.650   4.024  10.289 -2.0037 -0.7550  0.0026
  614MOL0     H82871  11.444   4.095  10.197  0.3285 -0.0359  0.3802
  614MOL0     H82872  11.026   4.165   9.981 -2.0083  0.3580 -1.0402
  614MOL0     H82873  10.796   4.159   9.993 -1.2102  0.4345  1.3777
  614MOL0     H82874   8.803   4.617  10.554 -3.1228  0.9742  1.6356
  614MOL0     H82875   8.565   4.601  10.536 -3.0428 -0.1513 -2.7264
  614MOL0     H82876   8.241   4.430  10.315  1.8253  2.2862  0.5802
  614MOL0     H82877   7.995   4.370  10.357  1.6384 -0.5059  0.1191
  614MOL0     H82878   7.710   4.604  10.172 -0.7587 -0.2470 -0.3797
  614MOL0     H82879   7.693   4.700  10.315  1.0294  0.6980 -2.2742
  614MOL0     H82880   7.551   4.522  10.419  1.7308  0.8158 -0.1918
  614MOL0     H82881   7.564   4.425  10.282  0.0827 -0.4070  0.0032
  614MOL0     H82882   7.440   4.548  10.136 -2.3317  1.5104 -1.0820
  614MOL0     H82883   7.467   4.700  10.230  0.0147  0.0019 -1.5569
  614MOL0     H82884   7.294   4.657  10.391 -0.0271 -0.2664  0.4417
  614MOL0     H82885   7.221   4.612  10.244 -1.1571  0.9628  2.2810
  614MOL0     H82886   7.233   4.235  10.429 -1.8831  0.9786 -0.1327
  614MOL0     H82887   7.887   4.770  10.235  1.0203  1.2670  0.5952
  614MOL0     H82888   8.152   4.935  10.299 -0.5801 -2.5783  1.7654
  614MOL0     H82889   8.219   4.874  10.150  0.0656 -0.1999 -1.1928
  614MOL0     H82890   8.049   4.928  10.149 -1.0191 -1.9854  0.2922
  615MOL0     O82891   2.541   5.449   9.288  0.3387 -0.4755 -0.1517
  615MOL0     C82892   2.474   5.365   9.343 -0.3173  0.8121  0.2413
  615MOL0     O82893   2.525   5.251   9.414  0.0348 -0.6852  0.4538
  615MOL0     C82894   2.658   5.237   9.420 -0.6047  0.2421  0.2019
  615MOL0     C82895   2.746   5.233   9.317 -0.0736 -0.6593  0.2970
  615MOL0     C82896   2.878   5.191   9.334 -0.9003  0.8369  0.5354
  615MOL0     C82897   2.922   5.152   9.463 -0.9505 -0.1568 -0.4054
  615MOL0     O82898   3.054   5.127   9.487 -0.1587  0.6670  0.2089
  615MOL0     C82899   3.148   5.085   9.380 -0.2789 -0.4965 -0.5373
  615MOL0     C82900   3.280   5.030   9.437 -0.6030  0.2556 -0.5354
  615MOL0     C82901   3.361   4.936   9.340 -0.3955 -0.6783 -0.6821
  615MOL0     C82902   3.474   4.842   9.397 -0.8756  0.2165 -0.4398
  615MOL0     C82903   3.479   4.716   9.315  0.6873  0.6947  0.0267
  615MOL0     C82904   3.583   4.615   9.362  0.2602 -0.4599  0.2950
  615MOL0     C82905   3.607   4.519   9.253  0.2230 -0.1931  0.7507
  615MOL0     C82906   3.683   4.387   9.291 -0.6450 -0.6401  0.3584
  615MOL0     N82907   3.824   4.409   9.328  0.5355 -1.0288  0.5382
  615MOL0     C82908   3.915   4.466   9.239  0.3280 -0.1235 -0.0486
  615MOL0     C82909   4.039   4.431   9.291  1.0864 -0.2881  0.3392
  615MOL0     C82910   4.159   4.461   9.216 -0.1632  0.1236  0.2224
  615MOL0     C82911   4.266   4.525   9.316  0.0921 -0.0877  0.5208
  615MOL0     C82912   4.402   4.483   9.257  0.5537  0.0175 -0.4598
  615MOL0     C82913   4.456   4.341   9.292  0.0549  0.4227  1.1376
  615MOL0     O82914   4.585   4.325   9.237 -0.3221 -0.6600  0.1097
  615MOL0     C82915   4.701   4.384   9.273  0.7220  0.8278  1.2016
  615MOL0     C82916   4.719   4.467   9.382  0.6535 -1.0000 -0.5039
  615MOL0     C82917   4.837   4.536   9.409 -0.0393  0.1395  0.0981
  615MOL0     C82918   4.946   4.521   9.324  0.3182  0.1697 -0.1828
  615MOL0     C82919   5.066   4.599   9.337  0.0060  0.1241  0.3165
  615MOL0     O82920   5.186   4.547   9.310  0.5787 -0.2245  0.3097
  615MOL0     C82921   5.296   4.634   9.315 -0.9428 -0.0133  0.3064
  615MOL0     C82922   5.417   4.580   9.370  0.9662 -0.3659 -0.3797
  615MOL0     C82923   5.535   4.656   9.369 -0.1575  0.5264 -0.0378
  615MOL0     C82924   5.540   4.791   9.322 -0.1857 -0.1163 -0.4993
  615MOL0     O82925   5.666   4.848   9.320 -0.0023  0.0274  0.3233
  615MOL0     C82926   5.667   4.991   9.289  0.3602  0.4588 -0.2321
  615MOL0     C82927   5.804   5.058   9.294 -0.3649  0.0369 -0.5272
  615MOL0     C82928   5.893   5.031   9.418  0.6903 -0.1472 -0.3876
  615MOL0     C82929   6.035   5.065   9.391 -0.6911  0.1544 -1.1701
  615MOL0     C82930   6.127   5.022   9.510 -0.2314 -1.0384  0.1586
  615MOL0     C82931   6.265   5.094   9.508 -0.0244 -0.6321 -0.4971
  615MOL0     C82932   6.362   5.030   9.413 -0.2242 -0.3372  0.5316
  615MOL0     C82933   6.489   5.109   9.394  0.4176 -0.1758 -0.3112
  615MOL0    Cl82934   6.622   5.015   9.328  0.2446  0.0656  0.0241
  615MOL0     C82935   5.419   4.843   9.261 -0.3890 -0.3290 -0.8564
  615MOL0     C82936   5.299   4.765   9.260  0.0933 -0.6253  0.3089
  615MOL0     O82937   5.050   4.710   9.384  0.0490 -0.5378  0.1837
  615MOL0     C82938   4.933   4.436   9.214 -0.2910  0.5007 -0.3274
  615MOL0     C82939   4.811   4.365   9.189  0.5332  0.6813  0.1205
  615MOL0     N82940   4.024   4.345   9.390 -0.4703  0.1648  0.1652
  615MOL0     N82941   3.899   4.338   9.417  0.2272 -0.2889 -0.1781
  615MOL0     C82942   2.830   5.158   9.571 -0.6891 -0.1279 -0.3470
  615MOL0     C82943   2.699   5.185   9.545 -0.3520  0.1556  0.9315
  615MOL0     C82944   2.331   5.384   9.345 -0.2121 -0.5557 -0.8786
  615MOL0     C82945   2.272   5.352   9.466 -0.3671  0.2378  0.5883
  615MOL0     C82946   2.139   5.366   9.483  1.0718 -1.2652  0.4198
  615MOL0     C82947   2.055   5.417   9.379  0.0380 -0.1585 -0.1765
  615MOL0     O82948   1.922   5.431   9.388 -0.4846  0.4519 -0.2184
  615MOL0     C82949   1.837   5.316   9.364 -0.0801  0.3641  0.0903
  615MOL0     C82950   1.824   5.222   9.494  0.2741 -0.3780 -0.4092
  615MOL0     C82951   1.720   5.110   9.475 -0.1568 -0.2589 -0.3780
  615MOL0     C82952   1.702   5.023   9.601  0.0517 -0.2806 -0.0543
  615MOL0     C82953   1.572   4.946   9.587 -0.7977  0.0546  0.9764
  615MOL0     C82954   1.477   4.885   9.549 -0.6291 -0.3031 -0.3150
  615MOL0     C82955   2.113   5.453   9.255  0.0122  0.0994  0.4120
  615MOL0     C82956   2.247   5.427   9.235  0.0861 -0.7541  0.0160
  615MOL0     C82957   2.311   5.455   9.104 -0.3896 -0.5747 -0.7355
  615MOL0     H82958   2.707   5.286   9.231  0.8983  2.0475  1.4041
  615MOL0     H82959   2.937   5.209   9.245 -1.2376 -3.0096 -0.6588
  615MOL0     H82960   3.104   5.012   9.312 -0.5948 -0.4956 -0.3386
  615MOL0     H82961   3.179   5.169   9.317  2.5538 -1.4809 -0.5510
  615MOL0     H82962   3.240   4.966   9.517  0.2471  0.5138  0.1184
  615MOL0     H82963   3.344   5.108   9.479  1.9178 -2.3197  0.8123
  615MOL0     H82964   3.401   4.998   9.260  0.0370 -1.0967 -0.7941
  615MOL0     H82965   3.284   4.873   9.296 -0.7541 -0.7921  0.0963
  615MOL0     H82966   3.570   4.893   9.389 -0.0182 -0.5073  3.1830
  615MOL0     H82967   3.463   4.820   9.504 -0.5690  0.0460 -0.4422
  615MOL0     H82968   3.377   4.679   9.327  0.3771  0.8262 -1.8586
  615MOL0     H82969   3.490   4.736   9.208 -0.4316 -1.1287 -0.4700
  615MOL0     H82970   3.680   4.661   9.383  1.1501 -1.2356 -1.8391
  615MOL0     H82971   3.532   4.566   9.446  1.4824 -0.7964  0.8686
  615MOL0     H82972   3.665   4.570   9.176  0.6110 -2.2289 -0.3616
  615MOL0     H82973   3.508   4.493   9.216  0.6267 -1.2340  0.3946
  615MOL0     H82974   3.641   4.342   9.381 -0.3063 -1.0377  0.3201
  615MOL0     H82975   3.676   4.312   9.212 -0.4138 -2.0575  1.6420
  615MOL0     H82976   3.894   4.531   9.154  0.6929 -1.8559 -1.5425
  615MOL0     H82977   4.205   4.369   9.177  0.9681  0.2811  1.1259
  615MOL0     H82978   4.141   4.527   9.131  2.4768  1.8823  0.8873
  615MOL0     H82979   4.248   4.633   9.317  1.3393  0.1453  2.3608
  615MOL0     H82980   4.260   4.495   9.421 -1.7283 -0.8703  0.2391
  615MOL0     H82981   4.466   4.561   9.300 -1.8298  1.0418  1.4137
  615MOL0     H82982   4.402   4.489   9.148  2.2630  2.7687 -0.4126
  615MOL0     H82983   4.389   4.263   9.255  1.3189 -0.0241 -0.3072
  615MOL0     H82984   4.465   4.328   9.400 -1.9882 -1.3384  1.1754
  615MOL0     H82985   4.636   4.492   9.448  1.1184 -0.4660 -0.1113
  615MOL0     H82986   4.839   4.595   9.500 -3.0768  0.7567 -0.1261
  615MOL0     H82987   5.420   4.478   9.407 -0.7480 -0.3273 -0.0676
  615MOL0     H82988   5.627   4.609   9.401 -0.1649  0.9304  0.5972
  615MOL0     H82989   5.637   5.008   9.185  1.4425  2.0660 -0.3320
  615MOL0     H82990   5.593   5.040   9.353 -0.0033  1.0970 -1.1163
  615MOL0     H82991   5.868   5.011   9.218 -1.3013  0.7365 -1.7812
  615MOL0     H82992   5.806   5.161   9.258 -1.5544  1.0399  2.0121
  615MOL0     H82993   5.869   5.093   9.505  2.1405 -0.0604 -0.0226
  615MOL0     H82994   5.883   4.923   9.437  1.1146 -0.0587  0.3792
  615MOL0     H82995   6.032   5.174   9.390  1.0877  0.3180  1.4255
  615MOL0     H82996   6.077   5.022   9.299  3.7453  2.6850 -0.6282
  615MOL0     H82997   6.138   4.914   9.519 -0.5336 -0.9414  2.0610
  615MOL0     H82998   6.078   5.050   9.604 -0.9846  1.6853 -0.9397
  615MOL0     H82999   6.238   5.199   9.488 -0.9122 -0.9047 -0.7815
  615MOL0     H83000   6.308   5.091   9.609 -0.6933  0.6030 -0.1409
  615MOL0     H83001   6.322   5.012   9.313  0.9951  3.3022 -0.7609
  615MOL0     H83002   6.386   4.935   9.462 -3.3974 -1.8456 -0.5551
  615MOL0     H83003   6.464   5.202   9.342 -1.8174  0.1477  1.2122
  615MOL0     H83004   6.516   5.129   9.498 -1.8492 -2.1052  0.7552
  615MOL0     H83005   5.421   4.944   9.222 -1.5325 -0.5521 -1.5265
  615MOL0     H83006   5.207   4.812   9.226  0.2023  0.2998  1.2504
  615MOL0     H83007   5.012   4.413   9.144  1.8616  4.3703  0.5589
  615MOL0     H83008   4.800   4.309   9.097 -1.0155  0.2178  0.5590
  615MOL0     H83009   2.864   5.125   9.669 -1.4458  1.3849  0.4666
  615MOL0     H83010   2.626   5.158   9.620 -1.2255 -0.9191 -0.2479
  615MOL0     H83011   2.334   5.311   9.545 -0.1384 -1.4097 -0.3992
  615MOL0     H83012   2.099   5.344   9.582  2.2335  0.5441  1.3699
  615MOL0     H83013   1.881   5.258   9.282  2.1174  2.1892 -0.1192
  615MOL0     H83014   1.739   5.345   9.325  0.8910 -0.3398 -3.1907
  615MOL0     H83015   1.794   5.288   9.576  3.3927 -0.7491  1.1609
  615MOL0     H83016   1.918   5.173   9.520  1.0297  2.3079  2.4394
  615MOL0     H83017   1.741   5.051   9.385  0.8103  1.8858 -1.6586
  615MOL0     H83018   1.622   5.156   9.460  0.6945  1.6920 -0.2403
  615MOL0     H83019   1.785   4.953   9.613  0.2063 -0.0853  0.0400
  615MOL0     H83020   1.698   5.078   9.696 -1.1748 -3.1870  1.7171
  615MOL0     H83021   1.402   4.822   9.504 -0.8583 -0.5047  0.3333
  615MOL0     H83022   2.050   5.498   9.179 -1.3411 -0.0190  1.4210
  615MOL0     H83023   2.388   5.380   9.084  0.9668  1.0031 -1.7482
  615MOL0     H83024   2.245   5.454   9.016  0.7643 -0.3165 -1.6310
  615MOL0     H83025   2.363   5.551   9.095  1.6044 -1.6413 -1.0930
  616MOL0     O83026   1.588   6.101   1.061 -0.1036 -0.0342 -0.0097
  616MOL0     C83027   1.542   6.113   1.176  0.1913 -0.2043  0.6502
  616MOL0     O83028   1.609   6.141   1.295 -0.6421 -0.4098  0.2920
  616MOL0     C83029   1.734   6.192   1.296 -0.5526 -0.3064 -0.3705
  616MOL0     C83030   1.767   6.320   1.235  0.5270  0.2012  0.7018
  616MOL0     C83031   1.893   6.370   1.255  0.3368 -0.4474 -0.1015
  616MOL0     C83032   1.998   6.294   1.311  0.8503  0.1950 -0.2298
  616MOL0     O83033   2.123   6.350   1.306 -0.3606 -0.3829  0.8513
  616MOL0     C83034   2.241   6.271   1.344  0.4074  0.0689 -0.0159
  616MOL0     C83035   2.375   6.336   1.310 -0.1573 -0.2902 -0.8247
  616MOL0     C83036   2.482   6.257   1.387 -0.6243  0.6395 -0.5203
  616MOL0     C83037   2.623   6.291   1.361  0.0249  0.0505  1.9409
  616MOL0     C83038   2.724   6.188   1.415  0.1203  0.1945  0.1620
  616MOL0     C83039   2.871   6.246   1.413 -0.1456  0.0695 -0.6220
  616MOL0     C83040   2.965   6.166   1.507 -0.4525 -0.1066  0.0642
  616MOL0     C83041   3.104   6.223   1.498 -0.9079 -0.3129 -0.7651
  616MOL0     N83042   3.184   6.182   1.610  0.1328 -0.4319  1.0153
  616MOL0     C83043   3.300   6.109   1.608 -0.2709 -0.2434 -0.2643
  616MOL0     C83044   3.339   6.099   1.739  0.4214 -0.5481  0.1801
  616MOL0     C83045   3.457   6.022   1.790 -0.7502  0.5898  0.1216
  616MOL0     C83046   3.420   5.879   1.836  0.1915  0.3588  0.1785
  616MOL0     C83047   3.353   5.885   1.973  0.3166  0.3468  0.2171
  616MOL0     C83048   3.320   5.741   2.019 -0.3668  0.4543 -0.0777
  616MOL0     O83049   3.430   5.642   2.014 -0.2714 -0.2591  0.0922
  616MOL0     C83050   3.533   5.659   2.103  0.1402  0.2715  0.2018
  616MOL0     C83051   3.671   5.675   2.063 -0.0136  0.6249 -0.8243
  616MOL0     C83052   3.776   5.701   2.150  0.3846 -0.5228 -0.3925
  616MOL0     C83053   3.748   5.701   2.292 -0.0087 -0.3936  0.1082
  616MOL0     C83054   3.860   5.721   2.380 -0.2137 -0.7919  0.6388
  616MOL0     O83055   3.839   5.692   2.513 -0.0601  0.4311 -0.3018
  616MOL0     C83056   3.927   5.720   2.613 -0.2860 -0.1479  0.3261
  616MOL0     C83057   4.071   5.722   2.590 -0.2934  0.4362 -0.6998
  616MOL0     C83058   4.147   5.736   2.706 -0.1286  0.2923 -0.2734
  616MOL0     C83059   4.099   5.725   2.838  0.1516 -0.9393  0.3288
  616MOL0     O83060   4.189   5.726   2.948  0.2360  0.0648  0.1730
  616MOL0     C83061   4.153   5.795   3.062 -0.0992  0.4003  0.4000
  616MOL0     C83062   4.273   5.801   3.153 -0.2630  0.3862  0.4622
  616MOL0     C83063   4.386   5.890   3.100  0.1350 -0.6456 -0.2573
  616MOL0     C83064   4.498   5.901   3.207 -0.3911  0.4287 -0.4672
  616MOL0     C83065   4.589   5.776   3.214  0.1052 -0.3780  0.9506
  616MOL0     C83066   4.660   5.739   3.086 -0.5237  0.7459 -0.8951
  616MOL0     C83067   4.764   5.624   3.119  0.8120  0.0340  0.1758
  616MOL0     C83068   4.858   5.599   3.000 -0.2614  0.5228  0.6370
  616MOL0    Cl83069   4.856   5.716   2.879 -0.3196  0.3334  0.3553
  616MOL0     C83070   3.962   5.736   2.852  1.3718  0.0313  0.2149
  616MOL0     C83071   3.876   5.731   2.742  0.2915 -0.0216  0.2252
  616MOL0     O83072   3.965   5.759   2.331  0.1452 -0.5885  0.3808
  616MOL0     C83073   3.617   5.678   2.336  0.3636 -0.1562 -0.5622
  616MOL0     C83074   3.515   5.656   2.244  0.8018 -0.4763 -0.2174
  616MOL0     N83075   3.243   6.170   1.813 -0.0780 -0.3093 -0.0459
  616MOL0     N83076   3.151   6.210   1.733  0.2393  0.2587 -0.2124
  616MOL0     C83077   1.964   6.178   1.380  0.7601  1.4163  0.3120
  616MOL0     C83078   1.831   6.132   1.376  0.0353 -0.2299 -0.3488
  616MOL0     C83079   1.400   6.088   1.180 -0.1573 -0.2925  0.1603
  616MOL0     C83080   1.348   5.978   1.254 -0.4194 -0.0689 -0.4649
  616MOL0     C83081   1.209   5.946   1.257  0.4010 -0.3219  0.5567
  616MOL0     C83082   1.124   6.034   1.197  0.0822 -1.1469  0.3312
  616MOL0     O83083   0.998   5.992   1.217 -0.2022  0.1523  0.3627
  616MOL0     C83084   0.891   6.078   1.167 -0.3715 -0.3159  0.0900
  616MOL0     C83085   0.812   6.118   1.292 -0.7544  0.1207  0.6868
  616MOL0     C83086   0.880   6.235   1.359 -0.4887  0.4197 -0.7041
  616MOL0     C83087   0.792   6.293   1.471  0.3290 -0.0176  0.6255
  616MOL0     C83088   0.836   6.427   1.493 -0.4385 -0.1054  0.2040
  616MOL0     C83089   0.871   6.537   1.519 -0.4232  0.2298  0.1520
  616MOL0     C83090   1.174   6.141   1.126  0.2649 -0.0157  0.2217
  616MOL0     C83091   1.313   6.172   1.105  0.7983  0.0450 -0.1544
  616MOL0     C83092   1.350   6.308   1.034 -0.2272  0.7379 -0.4744
  616MOL0     H83093   1.689   6.377   1.185 -0.8423 -1.7845  0.4289
  616MOL0     H83094   1.919   6.467   1.214 -0.1142 -0.5481 -0.6410
  616MOL0     H83095   2.240   6.261   1.453  0.1695  2.4460  0.2705
  616MOL0     H83096   2.237   6.172   1.299 -1.7854  1.2074 -2.5954
  616MOL0     H83097   2.376   6.439   1.345 -0.9608 -0.6084  0.1944
  616MOL0     H83098   2.407   6.336   1.205  2.0014  0.6596 -0.2306
  616MOL0     H83099   2.468   6.149   1.376 -0.7881  0.5603  0.4027
  616MOL0     H83100   2.464   6.285   1.491 -1.6859  1.3719 -0.8737
  616MOL0     H83101   2.645   6.303   1.254 -2.2421 -0.1921  1.4000
  616MOL0     H83102   2.639   6.384   1.415 -0.6751  1.3161  0.0630
  616MOL0     H83103   2.695   6.154   1.515 -0.8215 -1.4485 -0.6207
  616MOL0     H83104   2.729   6.105   1.344  1.0564  0.5175 -0.1671
  616MOL0     H83105   2.905   6.241   1.309  1.3390 -1.7324 -0.1161
  616MOL0     H83106   2.867   6.349   1.450 -1.3686  0.3595 -1.5203
  616MOL0     H83107   2.972   6.065   1.464 -1.3108  1.0759 -3.1270
  616MOL0     H83108   2.920   6.162   1.607  1.3300 -0.1371  0.8933
  616MOL0     H83109   3.147   6.204   1.399  0.3120  3.9008 -1.2655
  616MOL0     H83110   3.086   6.331   1.509 -0.7370 -0.3473 -0.1353
  616MOL0     H83111   3.365   6.070   1.531  3.3545  2.2882  1.2009
  616MOL0     H83112   3.537   6.013   1.716 -0.8425  1.9834 -0.1953
  616MOL0     H83113   3.499   6.082   1.871 -3.2460  3.2977 -0.4023
  616MOL0     H83114   3.356   5.822   1.768  0.1646 -0.8446  1.1717
  616MOL0     H83115   3.512   5.820   1.850  0.0633  0.6820  3.0068
  616MOL0     H83116   3.268   5.954   1.973  1.2068  1.4873 -0.4586
  616MOL0     H83117   3.414   5.934   2.049  0.8949 -0.7386  0.4812
  616MOL0     H83118   3.258   5.720   1.932  1.3257 -1.0093 -1.0098
  616MOL0     H83119   3.257   5.726   2.107  1.4069 -4.7417  0.6622
  616MOL0     H83120   3.698   5.659   1.959  0.2254  0.4898 -0.7432
  616MOL0     H83121   3.876   5.713   2.109  0.4180 -0.7492 -0.3747
  616MOL0     H83122   4.115   5.719   2.492 -0.2847  2.0666 -0.7643
  616MOL0     H83123   4.255   5.753   2.707  0.1196 -1.0719  0.8413
  616MOL0     H83124   4.114   5.893   3.034  0.1812  0.0303 -1.3959
  616MOL0     H83125   4.070   5.743   3.111  0.4068 -2.6658 -1.7081
  616MOL0     H83126   4.236   5.847   3.246  0.3637  1.0798  0.3818
  616MOL0     H83127   4.316   5.701   3.163  0.9467  0.9525  1.1492
  616MOL0     H83128   4.423   5.859   3.002  1.0579 -0.7367  0.1051
  616MOL0     H83129   4.349   5.992   3.099 -0.9127 -1.0191 -0.6258
  616MOL0     H83130   4.445   5.909   3.303 -0.3618  1.5778 -0.5444
  616MOL0     H83131   4.568   5.984   3.202  3.7856 -2.8338 -2.6140
  616MOL0     H83132   4.526   5.694   3.252 -1.0584 -0.6408 -1.4023
  616MOL0     H83133   4.665   5.796   3.291  1.2958 -2.4628  0.4114
  616MOL0     H83134   4.593   5.696   3.011 -1.1510  0.0707  0.0247
  616MOL0     H83135   4.701   5.832   3.045 -4.8085  3.4075  0.1468
  616MOL0     H83136   4.705   5.535   3.139 -2.0590  1.1187 -2.6155
  616MOL0     H83137   4.825   5.644   3.208  0.0103  1.0420  0.5204
  616MOL0     H83138   4.960   5.577   3.034  0.3363  0.0141 -1.3651
  616MOL0     H83139   4.826   5.499   2.971 -0.7568  1.0206 -0.6009
  616MOL0     H83140   3.923   5.744   2.953 -1.2799 -1.8812 -0.5354
  616MOL0     H83141   3.767   5.730   2.736  0.2321  1.7632  0.2549
  616MOL0     H83142   3.593   5.667   2.442  2.0506 -0.6120 -0.1966
  616MOL0     H83143   3.417   5.629   2.283  1.1817 -1.6063 -0.0116
  616MOL0     H83144   2.032   6.128   1.447 -1.2459 -1.4030  0.4425
  616MOL0     H83145   1.792   6.043   1.425  1.7665 -0.7141  0.2317
  616MOL0     H83146   1.418   5.922   1.315  0.8928  0.3325 -1.5473
  616MOL0     H83147   1.180   5.856   1.311 -0.9219  0.1135  0.6152
  616MOL0     H83148   0.833   6.002   1.114 -0.5914 -1.6372  2.1026
  616MOL0     H83149   0.922   6.150   1.090  0.2425  0.5333  1.1092
  616MOL0     H83150   0.800   6.026   1.349 -1.6521 -3.1229 -4.1565
  616MOL0     H83151   0.716   6.152   1.252 -0.6627  0.3822  0.6832
  616MOL0     H83152   0.889   6.311   1.280 -0.7886  0.9071 -0.2772
  616MOL0     H83153   0.979   6.214   1.399 -0.0937  0.2428 -1.7349
  616MOL0     H83154   0.685   6.292   1.451  0.2272 -2.7539  0.8757
  616MOL0     H83155   0.809   6.235   1.563 -0.4175  1.3290  1.6457
  616MOL0     H83156   0.921   6.630   1.537  0.2968 -0.3303  1.1437
  616MOL0     H83157   1.106   6.222   1.104 -1.1984 -0.3743  2.9578
  616MOL0     H83158   1.387   6.279   0.935  1.5485  0.5545  0.1994
  616MOL0     H83159   1.265   6.376   1.041 -0.0975  0.7447  2.5513
  616MOL0     H83160   1.441   6.357   1.072  0.5638  1.3066 -2.9188
  617MOL0     O83161   1.879   7.930   7.274 -0.4323 -0.5688  0.0095
  617MOL0     C83162   1.824   7.831   7.244  0.5561  0.5584 -0.0960
  617MOL0     O83163   1.875   7.705   7.254  0.4129  0.0321 -0.1931
  617MOL0     C83164   1.982   7.697   7.336 -0.0727  0.4454  0.0824
  617MOL0     C83165   1.976   7.691   7.477  0.0069 -0.8425  0.6495
  617MOL0     C83166   2.093   7.650   7.549  0.1190  0.5920  1.2903
  617MOL0     C83167   2.211   7.624   7.467 -0.9403  1.1189 -0.8328
  617MOL0     O83168   2.317   7.557   7.538 -0.2029  0.3692  0.2570
  617MOL0     C83169   2.443   7.560   7.471  0.0393 -0.1818 -0.1381
  617MOL0     C83170   2.537   7.544   7.592  0.2637  0.3187 -0.3627
  617MOL0     C83171   2.685   7.555   7.570  0.6347 -0.2392  0.9814
  617MOL0     C83172   2.761   7.590   7.693 -0.1254 -0.4221 -0.5799
  617MOL0     C83173   2.915   7.572   7.673  0.5880  0.5163 -0.7241
  617MOL0     C83174   2.962   7.665   7.566  0.2043  0.0792 -0.2616
  617MOL0     C83175   3.102   7.715   7.575 -0.0453 -0.3291  0.4021
  617MOL0     C83176   3.196   7.598   7.599  0.5461  0.2374 -0.2233
  617MOL0     N83177   3.330   7.629   7.564 -0.5731 -0.2175 -0.3661
  617MOL0     C83178   3.376   7.679   7.443  0.4596 -0.6651  0.3064
  617MOL0     C83179   3.504   7.721   7.466 -0.3914 -0.3988  0.5269
  617MOL0     C83180   3.591   7.795   7.365 -0.0509 -0.1310  0.4439
  617MOL0     C83181   3.629   7.701   7.253 -0.3803 -0.5313  0.2286
  617MOL0     C83182   3.719   7.780   7.160  1.1353  0.9110 -0.2643
  617MOL0     C83183   3.739   7.709   7.024 -0.1593  0.4393  0.2603
  617MOL0     O83184   3.790   7.573   7.031  0.0524  0.0793  0.0437
  617MOL0     C83185   3.916   7.546   7.068  0.6472 -0.3331 -0.3811
  617MOL0     C83186   4.014   7.642   7.107 -0.0579 -0.1587 -0.3964
  617MOL0     C83187   4.146   7.618   7.152 -0.4015  0.3497 -0.1960
  617MOL0     C83188   4.190   7.484   7.143  0.7975 -0.3670 -1.0955
  617MOL0     C83189   4.326   7.455   7.162  0.0483 -0.1994  0.4019
  617MOL0     O83190   4.408   7.562   7.152 -0.1685  0.0916  0.4691
  617MOL0     C83191   4.541   7.547   7.184 -0.5972 -0.3751  0.3527
  617MOL0     C83192   4.593   7.604   7.305  0.0653 -0.3061  0.2465
  617MOL0     C83193   4.726   7.603   7.342 -0.2608  0.3121 -0.5826
  617MOL0     C83194   4.811   7.529   7.263 -0.7213 -1.2560  0.4969
  617MOL0     O83195   4.947   7.537   7.310  0.1668 -0.1379  0.2608
  617MOL0     C83196   5.039   7.466   7.227  0.6436 -1.1485 -0.2851
  617MOL0     C83197   5.183   7.506   7.257 -0.1898 -0.4904 -0.7339
  617MOL0     C83198   5.214   7.492   7.410  0.2416  0.0720 -0.3320
  617MOL0     C83199   5.362   7.497   7.438 -0.2814 -0.4562  1.0394
  617MOL0     C83200   5.411   7.486   7.573  0.4307 -0.5024 -0.8471
  617MOL0     C83201   5.362   7.600   7.670 -0.2428  0.8370 -0.5197
  617MOL0     C83202   5.465   7.607   7.788  0.8871 -0.1494  1.1435
  617MOL0     C83203   5.424   7.692   7.907  0.2719 -0.3184  0.2444
  617MOL0    Cl83204   5.467   7.854   7.859  0.0548  0.0499 -0.1083
  617MOL0     C83205   4.768   7.477   7.139 -0.2055 -0.9183 -0.0070
  617MOL0     C83206   4.638   7.484   7.102  1.8103  0.3599 -0.2631
  617MOL0     O83207   4.359   7.340   7.200  0.5704 -0.5578  0.1645
  617MOL0     C83208   4.092   7.380   7.109 -0.4690  0.0113 -0.1130
  617MOL0     C83209   3.960   7.417   7.077 -0.4786  0.3390  0.1383
  617MOL0     N83210   3.539   7.704   7.594 -0.0081 -0.3344 -0.1963
  617MOL0     N83211   3.437   7.645   7.650  0.6287  0.1506 -0.6310
  617MOL0     C83212   2.210   7.632   7.328  0.3223  0.3741  0.8375
  617MOL0     C83213   2.096   7.667   7.267 -0.1979 -0.5512  0.7973
  617MOL0     C83214   1.686   7.834   7.183 -0.8476 -0.2759 -0.1774
  617MOL0     C83215   1.644   7.725   7.104  0.0029 -0.5114  0.5766
  617MOL0     C83216   1.527   7.729   7.033  0.3780  0.0021  0.5952
  617MOL0     C83217   1.432   7.830   7.053 -0.2581 -1.3894 -0.7434
  617MOL0     O83218   1.311   7.821   6.993 -0.4988  0.7042  0.1506
  617MOL0     C83219   1.195   7.913   7.005  0.2985  0.2915 -0.2112
  617MOL0     C83220   1.073   7.873   6.924 -0.6135  0.3149  0.4159
  617MOL0     C83221   1.010   7.739   6.975  0.6260 -0.6797  0.5644
  617MOL0     C83222   0.866   7.716   6.917 -0.9358 -0.2035 -0.1057
  617MOL0     C83223   0.754   7.799   6.969 -0.2474 -0.0905  0.2475
  617MOL0     C83224   0.668   7.878   7.011 -0.1870  0.1632  0.0915
  617MOL0     C83225   1.469   7.929   7.149  0.8325  1.1078  0.2754
  617MOL0     C83226   1.596   7.928   7.211  0.2575  0.0631  0.1331
  617MOL0     C83227   1.619   8.054   7.295 -0.5326  0.1933  1.0122
  617MOL0     H83228   1.883   7.685   7.534 -0.1669 -2.2333  0.2572
  617MOL0     H83229   2.086   7.630   7.656  1.3834 -0.1134  1.2626
  617MOL0     H83230   2.456   7.470   7.411 -1.6202 -0.2857 -0.3776
  617MOL0     H83231   2.465   7.655   7.423 -0.0959  0.2855  0.7022
  617MOL0     H83232   2.517   7.446   7.635  1.0552 -0.2657 -1.2837
  617MOL0     H83233   2.511   7.618   7.668 -2.1454 -1.0625  0.2694
  617MOL0     H83234   2.697   7.640   7.502 -0.4920 -0.1837  0.8229
  617MOL0     H83235   2.727   7.465   7.525 -0.5777  0.3493 -1.5443
  617MOL0     H83236   2.741   7.693   7.723  0.9515  0.6853 -3.3047
  617MOL0     H83237   2.725   7.521   7.770  0.6238  0.4778  0.6147
  617MOL0     H83238   2.963   7.593   7.769 -1.9722  0.7924  0.5702
  617MOL0     H83239   2.938   7.469   7.643  1.8917  0.9652 -1.3843
  617MOL0     H83240   2.952   7.613   7.470  0.9419 -0.0505 -0.2737
  617MOL0     H83241   2.896   7.751   7.556  1.3386  0.8221 -1.8575
  617MOL0     H83242   3.118   7.789   7.654 -2.2146 -0.2576  0.8424
  617MOL0     H83243   3.115   7.769   7.481 -1.6421  0.1242  0.4082
  617MOL0     H83244   3.185   7.558   7.700 -0.6574 -0.4949 -0.6175
  617MOL0     H83245   3.163   7.517   7.534  1.4410 -0.4339  0.1383
  617MOL0     H83246   3.317   7.689   7.353 -0.0394 -1.6988  0.5054
  617MOL0     H83247   3.537   7.883   7.328  2.8256  1.4224 -0.2922
  617MOL0     H83248   3.683   7.833   7.409  0.0299  0.0707  0.1018
  617MOL0     H83249   3.670   7.607   7.290 -0.5248 -0.1340  1.4237
  617MOL0     H83250   3.536   7.675   7.202  0.0495  1.0621 -1.4992
  617MOL0     H83251   3.814   7.781   7.215  1.5341 -0.1211 -0.9109
  617MOL0     H83252   3.666   7.871   7.130 -0.3720 -0.6609 -2.7177
  617MOL0     H83253   3.804   7.763   6.955  0.3515  3.0353  2.5762
  617MOL0     H83254   3.640   7.697   6.980  0.0785  0.8517 -0.3903
  617MOL0     H83255   3.995   7.749   7.104 -0.6074 -0.2643 -0.8833
  617MOL0     H83256   4.205   7.700   7.192 -0.3010  1.5608 -2.6750
  617MOL0     H83257   4.524   7.670   7.358 -0.6445  0.2433 -1.2974
  617MOL0     H83258   4.765   7.657   7.427 -2.6649  2.1112 -0.5101
  617MOL0     H83259   5.037   7.357   7.237 -0.8077 -1.0756  0.5409
  617MOL0     H83260   5.028   7.483   7.120  1.1026 -2.6151 -0.5908
  617MOL0     H83261   5.253   7.440   7.205 -1.4423 -2.8355  0.3689
  617MOL0     H83262   5.192   7.611   7.230  0.2532 -0.5492 -0.8106
  617MOL0     H83263   5.175   7.579   7.464 -0.2800  0.9697 -2.0705
  617MOL0     H83264   5.173   7.399   7.450  0.9811 -0.0958  0.0641
  617MOL0     H83265   5.397   7.587   7.385 -2.5632 -0.5693 -0.8053
  617MOL0     H83266   5.410   7.416   7.382  2.1414  0.3036  1.9006
  617MOL0     H83267   5.520   7.480   7.562  0.9199  3.0996  0.8610
  617MOL0     H83268   5.371   7.391   7.611  1.2509  0.1404  1.7785
  617MOL0     H83269   5.364   7.696   7.618  0.2173  0.2784 -1.5638
  617MOL0     H83270   5.262   7.581   7.710 -0.1948  1.9931  0.2028
  617MOL0     H83271   5.558   7.644   7.743 -0.0307  0.3875 -0.3746
  617MOL0     H83272   5.491   7.509   7.828  0.3788 -0.6675  0.2287
  617MOL0     H83273   5.319   7.684   7.938  0.2420 -1.0591 -0.0340
  617MOL0     H83274   5.483   7.663   7.995  2.8120 -1.9883 -1.8479
  617MOL0     H83275   4.831   7.421   7.071  1.1935 -1.0859  1.3702
  617MOL0     H83276   4.610   7.461   6.999  1.7450 -2.8260  0.3690
  617MOL0     H83277   4.125   7.277   7.121  1.8975  0.8199  1.0709
  617MOL0     H83278   3.881   7.347   7.054 -0.5503  0.8638 -1.2875
  617MOL0     H83279   2.293   7.605   7.263  0.0641  0.7888  0.3187
  617MOL0     H83280   2.092   7.663   7.159 -2.4472 -3.4337  0.8695
  617MOL0     H83281   1.715   7.647   7.078  0.5360  0.1271  0.0708
  617MOL0     H83282   1.501   7.641   6.975 -0.2697  0.9314 -0.5805
  617MOL0     H83283   1.230   8.013   6.976 -0.7655  0.5258 -0.7204
  617MOL0     H83284   1.172   7.911   7.112  1.5495 -0.6202  0.0612
  617MOL0     H83285   1.106   7.848   6.823 -2.1701  0.4501 -0.1547
  617MOL0     H83286   0.994   7.949   6.916 -1.5266 -0.4771  1.5081
  617MOL0     H83287   0.995   7.743   7.084  0.2765 -3.7677  0.7142
  617MOL0     H83288   1.070   7.650   6.955 -0.4635 -1.7327  1.7500
  617MOL0     H83289   0.877   7.737   6.810  0.3855  1.1961  0.2623
  617MOL0     H83290   0.831   7.614   6.936  1.5858 -1.4001 -1.4877
  617MOL0     H83291   0.604   7.954   7.051 -2.6370 -1.2683 -0.8868
  617MOL0     H83292   1.407   8.016   7.166 -1.1592 -0.0223 -0.8860
  617MOL0     H83293   1.701   8.113   7.252  1.2922 -2.3135  0.8458
  617MOL0     H83294   1.526   8.112   7.292 -4.8633 -5.7922 -1.9847
  617MOL0     H83295   1.648   8.037   7.399 -1.6924  3.3619  1.9809
  618MOL0     O83296  11.132   1.385  11.153 -0.5973  0.0805  0.6866
  618MOL0     C83297  11.183   1.308  11.230  0.6478  0.5051 -0.6594
  618MOL0     O83298  11.309   1.309  11.278  0.6287 -0.2397 -0.1893
  618MOL0     C83299  11.410   1.382  11.232  0.4395 -0.5335  0.0483
  618MOL0     C83300  11.431   1.417  11.107  0.0209 -0.7642 -0.0047
  618MOL0     C83301  11.540   1.490  11.065 -0.8077 -0.0890  0.1131
  618MOL0     C83302  11.635   1.530  11.158 -0.3106  0.3139  0.2908
  618MOL0     O83303  11.739   1.598  11.096 -0.4159  0.0283 -0.5425
  618MOL0     C83304  11.804   1.698  11.175 -0.5130  0.5023 -0.5426
  618MOL0     C83305  11.918   1.753  11.089  0.9453 -0.0250  0.0088
  618MOL0     C83306  12.009   1.822  11.185  0.1486  1.1119  0.4776
  618MOL0     C83307  12.125   1.885  11.109 -0.4072 -0.0438  0.8958
  618MOL0     C83308  12.237   1.945  11.186  0.0605  0.7245 -0.0880
  618MOL0     C83309  12.362   1.978  11.109 -0.0420  0.3047 -0.1395
  618MOL0     C83310  12.468   1.860  11.081 -0.5368 -0.4338 -0.3011
  618MOL0     C83311  12.615   1.904  11.070  0.1709  0.0207  0.0870
  618MOL0     N83312  12.646   2.014  10.971  0.5578  0.1788 -0.4534
  618MOL0     C83313  12.659   1.993  10.834 -0.4714 -0.1699  0.0643
  618MOL0     C83314  12.654   2.121  10.788  0.0742  0.0782 -0.3745
  618MOL0     C83315  12.674   2.163  10.641  0.3522  0.3378  0.1683
  618MOL0     C83316  12.826   2.183  10.607  0.2321 -0.2179 -0.0434
  618MOL0     C83317  12.840   2.193  10.459  0.0568 -0.2030  0.7334
  618MOL0     C83318  12.985   2.226  10.412  0.3909 -0.8574 -0.6639
  618MOL0     O83319  12.991   2.280  10.276 -0.0328 -0.1229  0.6150
  618MOL0     C83320  13.124   2.308  10.234  0.2150  0.3370  0.0239
  618MOL0     C83321  13.239   2.248  10.292  0.8075  0.5624  0.2161
  618MOL0     C83322  13.362   2.269  10.240  0.1008  0.1528 -0.0883
  618MOL0     C83323  13.389   2.362  10.138  0.4255 -0.4442  0.4139
  618MOL0     C83324  13.531   2.393  10.093  0.1376  0.1722 -0.0200
  618MOL0     O83325  13.637   2.346  10.169  0.2203 -0.8284 -0.2993
  618MOL0     C83326  13.763   2.350  10.114  0.5416 -0.9858 -0.6814
  618MOL0     C83327  13.836   2.468  10.098  0.0087 -0.5805 -1.0863
  618MOL0     C83328  13.978   2.473  10.071  1.2030 -0.1898 -0.2058
  618MOL0     C83329  14.050   2.356  10.058  0.2182  1.2067  0.2574
  618MOL0     O83330  14.169   2.350   9.997 -0.0126 -0.3853 -0.5769
  618MOL0     C83331  14.253   2.252  10.054  0.0722  0.3677 -0.1204
  618MOL0     C83332  14.409   2.286  10.043 -0.1403 -0.2614  0.0601
  618MOL0     C83333  14.439   2.329   9.903  0.1640 -0.2388  0.5886
  618MOL0     C83334  14.585   2.367   9.886 -0.4596  0.1697  0.2540
  618MOL0     C83335  14.679   2.237   9.855  1.3181 -0.1256  0.1560
  618MOL0     C83336  14.823   2.266   9.849 -0.5900 -0.0745  0.3258
  618MOL0     C83337  14.884   2.141   9.788 -0.7017  0.5271  0.1613
  618MOL0     C83338  15.038   2.149   9.773 -0.4224  0.0160 -0.4265
  618MOL0    Cl83339  15.109   1.995   9.792 -0.2086  0.1620 -0.3367
  618MOL0     C83340  13.976   2.233  10.078  0.7964  0.0664  0.3965
  618MOL0     C83341  13.832   2.230  10.094  0.6041  0.3315  0.6194
  618MOL0     O83342  13.542   2.440   9.976  0.1314 -0.4345  0.2972
  618MOL0     C83343  13.275   2.432  10.085  0.4061  1.3269 -0.6977
  618MOL0     C83344  13.149   2.407  10.133 -0.3868 -0.2768 -0.1724
  618MOL0     N83345  12.642   2.211  10.896  0.0221  0.5932  0.6315
  618MOL0     N83346  12.641   2.145  11.001  0.7822  0.3368 -0.1541
  618MOL0     C83347  11.612   1.504  11.295 -0.4202 -0.1926  0.1798
  618MOL0     C83348  11.504   1.428  11.332  1.2142  0.1773  0.1361
  618MOL0     C83349  11.102   1.186  11.261 -1.0433 -1.6255 -0.1570
  618MOL0     C83350  11.166   1.069  11.299  0.1982 -0.4451 -0.6960
  618MOL0     C83351  11.093   0.950  11.310  0.1983 -1.0736  0.2816
  618MOL0     C83352  10.959   0.938  11.276 -0.9982  0.6722  0.4475
  618MOL0     O83353  10.912   0.810  11.264 -0.0801 -0.0953  0.1691
  618MOL0     C83354  10.776   0.788  11.224  1.0137  0.4317 -0.0269
  618MOL0     C83355  10.738   0.636  11.236 -0.7742 -0.9464 -0.3337
  618MOL0     C83356  10.826   0.560  11.137  0.8012 -0.7237 -0.1404
  618MOL0     C83357  10.755   0.430  11.107  0.0034  1.3631 -0.0705
  618MOL0     C83358  10.850   0.329  11.054  0.2955 -0.6512 -0.0706
  618MOL0     C83359  10.931   0.255  11.015 -0.3403 -0.2522 -0.5556
  618MOL0     C83360  10.897   1.052  11.241 -0.3413 -0.0282  0.1978
  618MOL0     C83361  10.961   1.179  11.247 -0.0954 -0.4844  0.3700
  618MOL0     C83362  10.870   1.294  11.215  0.7857  0.6898 -1.0353
  618MOL0     H83363  11.356   1.395  11.032 -0.6028  0.2426  0.3054
  618MOL0     H83364  11.543   1.503  10.957 -2.7158  1.2058  0.1699
  618MOL0     H83365  11.739   1.778  11.210  0.4727 -0.0419  2.9369
  618MOL0     H83366  11.843   1.648  11.264 -1.2816  2.7278  1.1220
  618MOL0     H83367  11.887   1.823  11.010  0.3689 -0.4763 -0.1750
  618MOL0     H83368  11.974   1.667  11.050 -1.0966 -2.4691  2.0979
  618MOL0     H83369  12.052   1.753  11.257 -0.3806 -0.2808 -0.5048
  618MOL0     H83370  11.951   1.891  11.247 -1.3809 -0.1373  0.5007
  618MOL0     H83371  12.174   1.804  11.054  0.9569  0.8564  0.7497
  618MOL0     H83372  12.085   1.949  11.030  3.3418  0.4609 -0.8258
  618MOL0     H83373  12.206   2.038  11.233 -0.4382 -0.1364  1.3564
  618MOL0     H83374  12.253   1.874  11.268  3.2650 -1.2608 -2.2173
  618MOL0     H83375  12.333   2.030  11.017  0.6552  0.5800 -0.2062
  618MOL0     H83376  12.413   2.050  11.173 -0.9490 -2.5203  4.1499
  618MOL0     H83377  12.430   1.811  10.990 -1.8264 -2.2249  1.1060
  618MOL0     H83378  12.460   1.792  11.167  0.3455  1.0074  0.9660
  618MOL0     H83379  12.653   1.942  11.165 -0.2983  0.5381  0.0702
  618MOL0     H83380  12.673   1.817  11.039 -0.3877  0.1336 -1.3404
  618MOL0     H83381  12.672   1.900  10.781 -0.5380  0.1410 -0.5073
  618MOL0     H83382  12.632   2.084  10.578  0.9229  0.5926 -0.5514
  618MOL0     H83383  12.618   2.254  10.618  0.0647 -0.7319 -4.2292
  618MOL0     H83384  12.876   2.263  10.662  1.3880 -0.1337 -1.1659
  618MOL0     H83385  12.881   2.092  10.635  0.9458  0.0887 -0.4200
  618MOL0     H83386  12.778   2.272  10.415 -0.5630 -0.4951  1.0751
  618MOL0     H83387  12.813   2.096  10.417  1.0927 -0.3140  0.2899
  618MOL0     H83388  13.046   2.136  10.425  2.9381  0.8245 -0.2202
  618MOL0     H83389  13.016   2.310  10.477  1.4022 -0.8036 -1.1932
  618MOL0     H83390  13.236   2.165  10.361 -0.2752  0.1329 -0.3215
  618MOL0     H83391  13.445   2.210  10.278 -0.6338 -0.8401  0.0083
  618MOL0     H83392  13.772   2.556  10.101 -2.9117 -2.5761  0.0833
  618MOL0     H83393  14.022   2.568  10.042  0.6355  0.0650 -0.2466
  618MOL0     H83394  14.233   2.248  10.161  4.1967  0.4349  0.8358
  618MOL0     H83395  14.236   2.150  10.019 -0.7717  0.5201 -0.1693
  618MOL0     H83396  14.425   2.372  10.108  0.0170  0.3770 -0.8118
  618MOL0     H83397  14.480   2.207  10.070  1.4169  1.1492  0.2049
  618MOL0     H83398  14.413   2.247   9.835  1.2289 -0.2562  0.1808
  618MOL0     H83399  14.381   2.419   9.880  0.9438  0.0111 -0.4355
  618MOL0     H83400  14.625   2.420   9.973  0.1901  2.5506 -1.3855
  618MOL0     H83401  14.586   2.437   9.802 -0.5093  2.1480  1.8120
  618MOL0     H83402  14.648   2.191   9.761  0.5879  0.5366  0.0619
  618MOL0     H83403  14.665   2.171   9.941 -2.6203  0.6436  0.3028
  618MOL0     H83404  14.850   2.336   9.770  0.4280  1.7529  2.1794
  618MOL0     H83405  14.879   2.307   9.934 -0.6566  1.0091 -0.1295
  618MOL0     H83406  14.844   2.123   9.687  0.4292  0.4096 -0.2801
  618MOL0     H83407  14.850   2.051   9.840  0.0139  0.5947  0.7634
  618MOL0     H83408  15.062   2.192   9.675 -1.4926  2.4933  0.3089
  618MOL0     H83409  15.085   2.216   9.846  0.4255 -0.0243 -0.9240
  618MOL0     H83410  14.024   2.137  10.068  3.9212  1.3688  1.4438
  618MOL0     H83411  13.775   2.138  10.100  0.7511  0.0286 -1.7359
  618MOL0     H83412  13.291   2.507  10.008  1.5357 -0.5985 -2.4574
  618MOL0     H83413  13.067   2.470  10.098  1.4494  2.7656  0.6226
  618MOL0     H83414  11.684   1.533  11.371 -0.2264  0.2551 -0.1719
  618MOL0     H83415  11.470   1.413  11.434 -1.7663  0.9371 -0.6482
  618MOL0     H83416  11.271   1.070  11.325  0.2868 -1.3308 -0.9886
  618MOL0     H83417  11.143   0.855  11.330 -0.2480 -2.0251 -2.6089
  618MOL0     H83418  10.745   0.821  11.124 -2.2770 -3.0424 -0.3650
  618MOL0     H83419  10.725   0.834  11.309  0.0183 -4.5000  2.3637
  618MOL0     H83420  10.632   0.627  11.212 -1.2300 -1.6459  1.7393
  618MOL0     H83421  10.752   0.600  11.338  1.0339 -2.9251 -1.2098
  618MOL0     H83422  10.929   0.553  11.173  0.9519 -0.7509 -0.5694
  618MOL0     H83423  10.829   0.613  11.041  2.0657 -3.0000 -1.4340
  618MOL0     H83424  10.697   0.389  11.190 -0.3617 -2.1835 -1.8728
  618MOL0     H83425  10.687   0.439  11.021 -0.8978 -0.5770  0.3940
  618MOL0     H83426  11.017   0.201  10.980 -1.1095 -2.2233  0.4455
  618MOL0     H83427  10.797   1.046  11.201  0.0593 -1.0454 -0.7217
  618MOL0     H83428  10.821   1.291  11.117 -3.9564  0.8301  1.0351
  618MOL0     H83429  10.788   1.283  11.287  1.0257  0.9461 -0.7179
  618MOL0     H83430  10.914   1.393  11.233 -0.2088  1.2429 -1.5646
  619MOL0     O83431   8.781   9.914   9.221 -0.4885  0.4949  0.4960
  619MOL0     C83432   8.697   9.844   9.168  0.5180  0.3571  0.1357
  619MOL0     O83433   8.724   9.764   9.060  1.0203  0.1142 -0.3931
  619MOL0     C83434   8.848   9.744   9.005  0.2150  0.3233 -0.1825
  619MOL0     C83435   8.929   9.846   8.956 -0.5069 -0.3192  0.0506
  619MOL0     C83436   9.054   9.812   8.897  0.0061 -0.1053 -0.0727
  619MOL0     C83437   9.096   9.678   8.896 -0.9298  0.0223  0.6390
  619MOL0     O83438   9.218   9.662   8.832 -0.7661 -0.3601  0.0499
  619MOL0     C83439   9.259   9.527   8.800 -0.4167  0.2832  0.4557
  619MOL0     C83440   9.393   9.534   8.721 -0.2125  0.5932  0.1907
  619MOL0     C83441   9.519   9.575   8.808  0.6421 -0.1590 -0.3160
  619MOL0     C83442   9.654   9.555   8.737  0.1536 -0.1184 -0.6635
  619MOL0     C83443   9.761   9.619   8.821 -0.1961 -0.2259  0.1158
  619MOL0     C83444   9.892   9.625   8.740 -0.6853 -0.5837 -0.1167
  619MOL0     C83445  10.020   9.614   8.822 -0.4273  0.5889  0.0341
  619MOL0     C83446  10.145   9.628   8.730  0.1964  0.3013  0.0941
  619MOL0     N83447  10.256   9.705   8.795 -0.0827 -0.4890 -0.1376
  619MOL0     C83448  10.248   9.840   8.834 -0.5541 -0.4981  0.8727
  619MOL0     C83449  10.378   9.871   8.855 -0.3676  0.4311  0.8250
  619MOL0     C83450  10.419  10.018   8.879  0.1463 -0.4852 -0.6396
  619MOL0     C83451  10.527  10.081   8.796 -0.7893  0.2064  0.0410
  619MOL0     C83452  10.670  10.040   8.828  0.1649 -0.2637  0.2352
  619MOL0     C83453  10.778  10.119   8.752  0.1329 -0.1630  0.1227
  619MOL0     O83454  10.906  10.112   8.826 -0.3366  0.1393  0.8112
  619MOL0     C83455  11.019  10.133   8.761 -1.1083  0.4763  0.2851
  619MOL0     C83456  11.137  10.092   8.830 -0.1603  0.0658 -0.3201
  619MOL0     C83457  11.258  10.092   8.767 -0.6607 -0.8018 -0.6960
  619MOL0     C83458  11.267  10.158   8.638  0.3564 -0.6058 -0.4969
  619MOL0     C83459  11.386  10.161   8.557  0.2276 -0.2927  0.3880
  619MOL0     O83460  11.499  10.189   8.627  0.1015  0.7188  0.5359
  619MOL0     C83461  11.629  10.182   8.570  0.0645  0.0112  0.0415
  619MOL0     C83462  11.738  10.173   8.662  0.0509 -0.8391 -0.4956
  619MOL0     C83463  11.869  10.169   8.630 -0.5070 -0.2686 -0.4825
  619MOL0     C83464  11.912  10.174   8.500  0.2675 -0.2980 -0.5536
  619MOL0     O83465  12.043  10.172   8.466 -0.4130 -0.2637 -0.0075
  619MOL0     C83466  12.146  10.103   8.550  0.1781  0.2952  0.0064
  619MOL0     C83467  12.126   9.948   8.562 -0.2878  0.5994 -0.8483
  619MOL0     C83468  12.144   9.884   8.418  0.6984 -0.5441 -0.2318
  619MOL0     C83469  12.144   9.731   8.426 -0.1899 -0.8390 -0.2052
  619MOL0     C83470  12.140   9.697   8.273  0.2720 -0.5118 -0.1675
  619MOL0     C83471  12.180   9.545   8.268  0.1059  0.4897  0.0504
  619MOL0     C83472  12.085   9.461   8.343  0.2885  0.3357 -0.0882
  619MOL0     C83473  12.086   9.317   8.286  0.2218 -0.1705  0.8321
  619MOL0    Cl83474  12.257   9.266   8.264 -0.2762  0.0518  0.3219
  619MOL0     C83475  11.807  10.180   8.405 -0.5675 -0.4724  0.3835
  619MOL0     C83476  11.673  10.183   8.436 -1.0799  0.1279 -0.3897
  619MOL0     O83477  11.384  10.112   8.440  0.7410 -0.5617  0.8649
  619MOL0     C83478  11.145  10.203   8.575 -0.2026 -0.4492  0.0460
  619MOL0     C83479  11.025  10.192   8.637 -0.6187  1.1192  0.0212
  619MOL0     N83480  10.455   9.759   8.841  0.1980  0.9932 -0.7424
  619MOL0     N83481  10.379   9.655   8.815  0.6606 -0.2386  0.1527
  619MOL0     C83482   9.009   9.582   8.944  0.0546 -0.2760 -0.4903
  619MOL0     C83483   8.885   9.610   8.994 -0.3092 -0.8383 -1.0067
  619MOL0     C83484   8.553   9.847   9.227 -1.2782  0.6824 -0.2442
  619MOL0     C83485   8.517   9.947   9.322 -0.6789  0.0237 -0.1909
  619MOL0     C83486   8.388   9.958   9.381 -0.0827 -0.2543  0.3973
  619MOL0     C83487   8.294   9.862   9.346 -0.2637  0.3624 -0.8664
  619MOL0     O83488   8.176   9.874   9.414  0.8125  0.3367 -0.0834
  619MOL0     C83489   8.058   9.796   9.382 -0.0321  0.2653 -0.7590
  619MOL0     C83490   7.944   9.876   9.441 -0.5541  0.3342 -0.7569
  619MOL0     C83491   7.808   9.797   9.452  0.4007  0.0261  0.6220
  619MOL0     C83492   7.686   9.893   9.481  0.8019  0.3104  0.1984
  619MOL0     C83493   7.692   9.921   9.622 -1.3988  0.2560 -0.4853
  619MOL0     C83494   7.696   9.935   9.740 -1.1042 -1.5007  0.5095
  619MOL0     C83495   8.321   9.768   9.253 -0.0939  0.1285 -0.8307
  619MOL0     C83496   8.450   9.754   9.194  0.5318  0.2833 -0.1413
  619MOL0     C83497   8.458   9.641   9.091  0.5763 -0.3198  0.8344
  619MOL0     H83498   8.889   9.947   8.965 -1.2169 -0.5129 -0.7637
  619MOL0     H83499   9.127   9.883   8.860  0.6914  0.8664  2.8245
  619MOL0     H83500   9.275   9.474   8.894  2.8208  0.2037 -0.0230
  619MOL0     H83501   9.183   9.476   8.740  0.9800 -2.0535  0.5788
  619MOL0     H83502   9.378   9.619   8.653  0.3532 -0.7669 -1.7273
  619MOL0     H83503   9.422   9.444   8.667  0.9403  0.5599  0.8278
  619MOL0     H83504   9.517   9.526   8.906 -1.9762  1.7075  0.6778
  619MOL0     H83505   9.500   9.679   8.835 -0.0669  0.3765 -2.6849
  619MOL0     H83506   9.680   9.451   8.716 -0.8247 -0.2364 -1.3958
  619MOL0     H83507   9.650   9.603   8.639 -0.1353  0.1516 -0.5206
  619MOL0     H83508   9.730   9.719   8.854  1.3806  0.3733 -0.1264
  619MOL0     H83509   9.773   9.551   8.906  0.5388 -2.6242 -1.8134
  619MOL0     H83510   9.900   9.540   8.672  1.7765 -0.3376 -0.2347
  619MOL0     H83511   9.896   9.713   8.674  0.3470  0.2960  1.0729
  619MOL0     H83512  10.017   9.512   8.862 -3.7579  0.7012  0.4129
  619MOL0     H83513  10.011   9.686   8.904  1.1110 -0.4959  1.2179
  619MOL0     H83514  10.184   9.536   8.684 -1.5823  0.1204 -1.1837
  619MOL0     H83515  10.112   9.686   8.643  0.3723 -1.3464 -1.1378
  619MOL0     H83516  10.159   9.902   8.839  0.2891  0.7081  1.1669
  619MOL0     H83517  10.332  10.079   8.851 -0.3834 -0.5206  0.8465
  619MOL0     H83518  10.425  10.027   8.988  0.4780 -0.0469 -0.6897
  619MOL0     H83519  10.505  10.055   8.692  1.3852  0.0598 -0.4366
  619MOL0     H83520  10.518  10.189   8.808  0.4318  0.2991  0.2467
  619MOL0     H83521  10.689   9.933   8.819 -1.0799 -0.5435  0.7111
  619MOL0     H83522  10.681  10.070   8.933 -1.5100  1.2879  0.0321
  619MOL0     H83523  10.751  10.220   8.720  0.8839 -1.1560 -4.5089
  619MOL0     H83524  10.788  10.059   8.660 -0.7304 -0.3735  0.1541
  619MOL0     H83525  11.118  10.052   8.929 -3.8887  4.3668  1.1052
  619MOL0     H83526  11.340  10.045   8.819 -1.4099 -1.8127 -0.3869
  619MOL0     H83527  11.710  10.180   8.767 -2.1234 -0.4554 -1.0429
  619MOL0     H83528  11.944  10.189   8.706 -1.4114 -3.1571  1.3491
  619MOL0     H83529  12.246  10.113   8.506  2.4261 -2.4566  3.7858
  619MOL0     H83530  12.147  10.145   8.651 -0.4870 -0.0985  0.1843
  619MOL0     H83531  12.215   9.913   8.616 -0.0928  0.9090 -0.9630
  619MOL0     H83532  12.033   9.917   8.610  0.4947 -0.0513  0.3128
  619MOL0     H83533  12.053   9.917   8.367  1.5585  0.2509 -1.3058
  619MOL0     H83534  12.235   9.922   8.369  0.4120  0.3837 -0.0729
  619MOL0     H83535  12.047   9.707   8.470 -1.7938  2.5789 -1.5100
  619MOL0     H83536  12.233   9.695   8.478  0.5629  3.5194  1.9619
  619MOL0     H83537  12.208   9.753   8.207  1.1884 -0.0773  1.1047
  619MOL0     H83538  12.040   9.701   8.230  0.3112 -0.6436 -0.2733
  619MOL0     H83539  12.180   9.516   8.162 -1.1394  2.1770 -0.4546
  619MOL0     H83540  12.281   9.532   8.306  0.0838  2.6206  0.9350
  619MOL0     H83541  11.983   9.499   8.333 -0.1699 -1.3152 -3.0365
  619MOL0     H83542  12.106   9.457   8.450 -0.7491 -1.3430  0.0789
  619MOL0     H83543  12.029   9.247   8.348 -1.1012  1.1536  1.1947
  619MOL0     H83544  12.035   9.323   8.190  0.0188  0.3246  0.9635
  619MOL0     H83545  11.840  10.169   8.302  0.9651  1.1209  0.6605
  619MOL0     H83546  11.596  10.181   8.359 -0.3644  0.2702 -1.1245
  619MOL0     H83547  11.151  10.243   8.474  1.1331 -1.5623 -0.3580
  619MOL0     H83548  10.939  10.235   8.586  0.9050  1.0566 -2.7507
  619MOL0     H83549   9.044   9.479   8.946 -1.3393 -0.8521 -2.6840
  619MOL0     H83550   8.823   9.527   9.027  2.4934 -2.0447  1.6977
  619MOL0     H83551   8.593  10.021   9.347 -0.1507 -1.4984  3.1939
  619MOL0     H83552   8.364  10.036   9.453  1.9722 -0.6680  1.6127
  619MOL0     H83553   8.071   9.696   9.424  0.9377  1.6540  2.6460
  619MOL0     H83554   8.039   9.778   9.276 -1.9326 -0.4766 -0.3268
  619MOL0     H83555   7.935   9.961   9.374  1.4678  1.1106 -0.1211
  619MOL0     H83556   7.961   9.905   9.545 -2.1276  0.8377 -0.6132
  619MOL0     H83557   7.815   9.709   9.517 -1.6710  1.1047  2.4483
  619MOL0     H83558   7.791   9.755   9.353  0.9839  0.6891  0.2361
  619MOL0     H83559   7.692   9.989   9.429  0.8469 -0.4890 -1.3283
  619MOL0     H83560   7.591   9.846   9.452  0.5987 -0.7810  2.4521
  619MOL0     H83561   7.689   9.946   9.846 -1.3765  0.1430  0.3461
  619MOL0     H83562   8.244   9.697   9.223 -1.3116 -0.0952  2.3621
  619MOL0     H83563   8.550   9.583   9.105  1.4232  0.6268 -0.6077
  619MOL0     H83564   8.372   9.573   9.097 -1.3213  1.8808 -0.0129
  619MOL0     H83565   8.455   9.684   8.991  1.2175 -1.7461  0.1670
  620MOL0     O83566   5.266  11.080   5.919  0.3694  0.1450 -0.1533
  620MOL0     C83567   5.186  10.996   5.914  0.2309  0.6391  0.8554
  620MOL0     O83568   5.206  10.868   5.961 -0.1758  0.4393 -0.4808
  620MOL0     C83569   5.333  10.835   5.993 -0.1784 -0.1093  0.0311
  620MOL0     C83570   5.381  10.812   6.124 -0.1983 -0.5304  0.5917
  620MOL0     C83571   5.519  10.783   6.145 -0.7731  0.2427  0.7609
  620MOL0     C83572   5.606  10.754   6.035  0.0446 -0.4428  0.4929
  620MOL0     O83573   5.730  10.716   6.062 -0.2006 -0.1131  0.1867
  620MOL0     C83574   5.820  10.661   5.962  0.3419 -0.0010 -0.3881
  620MOL0     C83575   5.933  10.596   6.040  0.0140 -0.1255  0.5002
  620MOL0     C83576   5.878  10.471   6.101  0.3480  0.0822 -0.2068
  620MOL0     C83577   5.993  10.369   6.119  0.2667  0.5193 -0.0026
  620MOL0     C83578   5.949  10.239   6.196 -0.3092 -0.0139 -0.1008
  620MOL0     C83579   6.078  10.158   6.207  0.2936 -0.6372 -1.0685
  620MOL0     C83580   6.054  10.032   6.291  0.1679 -0.0554  0.3646
  620MOL0     C83581   6.059  10.049   6.437 -0.8250  0.3175 -0.4593
  620MOL0     N83582   6.181  10.118   6.490  0.2037 -0.2688 -0.5578
  620MOL0     C83583   6.313  10.071   6.484  0.8653  0.2675 -0.0195
  620MOL0     C83584   6.389  10.172   6.534 -0.6446  0.4809 -0.0735
  620MOL0     C83585   6.537  10.180   6.533 -0.0688 -0.2347  0.3238
  620MOL0     C83586   6.581  10.156   6.381 -0.1429  0.1854  0.5319
  620MOL0     C83587   6.735  10.177   6.363 -0.0483  0.1193 -0.5130
  620MOL0     C83588   6.768  10.249   6.232  0.2860  0.1273 -0.2726
  620MOL0     O83589   6.907  10.245   6.202  0.2350 -0.8160  0.1884
  620MOL0     C83590   6.954  10.326   6.097  0.4294  0.2149 -1.1506
  620MOL0     C83591   7.092  10.311   6.066  0.2300 -0.0782  0.2543
  620MOL0     C83592   7.156  10.391   5.969  0.0517 -0.0644 -0.1581
  620MOL0     C83593   7.088  10.493   5.899 -0.2194 -0.5239  0.2097
  620MOL0     C83594   7.147  10.569   5.784  0.6671  0.4298  0.2110
  620MOL0     O83595   7.075  10.670   5.726 -0.1864 -0.0579 -0.2587
  620MOL0     C83596   7.124  10.747   5.625  0.1435  0.0899  0.3884
  620MOL0     C83597   7.255  10.794   5.623  0.3827 -0.7159 -0.0987
  620MOL0     C83598   7.295  10.869   5.506  0.4066  0.0911 -0.3072
  620MOL0     C83599   7.204  10.908   5.407  0.3876 -0.5015 -0.3449
  620MOL0     O83600   7.229  10.978   5.292 -0.1618 -0.1640  0.3017
  620MOL0     C83601   7.362  10.999   5.258  0.3928  0.2053  0.0922
  620MOL0     C83602   7.432  10.863   5.220 -0.2423 -0.8790  0.3654
  620MOL0     C83603   7.578  10.880   5.204  0.2006 -0.2908  0.1615
  620MOL0     C83604   7.645  10.882   5.337 -0.2282 -0.0080 -0.6804
  620MOL0     C83605   7.803  10.888   5.332  0.4728 -0.0648  0.0384
  620MOL0     C83606   7.872  10.757   5.303  0.3280  0.0804 -0.0703
  620MOL0     C83607   8.019  10.755   5.315 -0.3303 -0.5235 -0.0589
  620MOL0     C83608   8.081  10.844   5.206  0.2193 -0.0953 -0.8699
  620MOL0    Cl83609   8.247  10.792   5.202 -0.1346 -0.1901 -0.2694
  620MOL0     C83610   7.081  10.856   5.420  0.1503  0.4674  0.3766
  620MOL0     C83611   7.041  10.773   5.519 -1.3638 -0.1545 -0.4486
  620MOL0     O83612   7.256  10.526   5.746  0.2734 -0.0736  0.9441
  620MOL0     C83613   6.954  10.511   5.937 -0.3837  0.6117  0.2629
  620MOL0     C83614   6.888  10.434   6.037 -0.1325 -0.2834  0.8988
  620MOL0     N83615   6.302  10.277   6.569 -0.1528  0.8585  0.2090
  620MOL0     N83616   6.178  10.243   6.553  0.8319  0.2133  0.4685
  620MOL0     C83617   5.557  10.766   5.907  0.6360  0.1284 -0.9185
  620MOL0     C83618   5.425  10.809   5.887  0.4729  0.6593  0.3021
  620MOL0     C83619   5.048  11.020   5.872 -0.0758  0.2589 -0.5194
  620MOL0     C83620   4.942  10.937   5.915 -0.2832  0.6929 -0.0800
  620MOL0     C83621   4.807  10.971   5.893 -0.4368 -0.5987  0.0955
  620MOL0     C83622   4.771  11.080   5.813 -0.3646  0.0768  0.7763
  620MOL0     O83623   4.641  11.117   5.782  0.4767  0.2629  0.1958
  620MOL0     C83624   4.525  11.043   5.832  0.0497 -0.2222 -0.8403
  620MOL0     C83625   4.408  11.134   5.828 -0.0920  0.0401 -0.2307
  620MOL0     C83626   4.298  11.081   5.924  0.1064 -0.2242 -0.2282
  620MOL0     C83627   4.153  11.114   5.877 -0.4709 -0.0020  0.6545
  620MOL0     C83628   4.057  11.061   5.982  0.0296 -0.4108  0.4524
  620MOL0     C83629   3.971  11.020   6.065 -0.1766 -1.3352 -0.9701
  620MOL0     C83630   4.878  11.153   5.757  0.6868 -0.5446  0.0765
  620MOL0     C83631   5.011  11.131   5.789  0.4143  0.3236 -0.0670
  620MOL0     C83632   5.113  11.236   5.737 -0.9390 -0.7329 -0.1939
  620MOL0     H83633   5.314  10.835   6.205 -1.6185 -0.8972 -0.4392
  620MOL0     H83634   5.564  10.795   6.244  0.4878  0.3469  0.1920
  620MOL0     H83635   5.777  10.586   5.894 -1.6892  0.8193 -0.0889
  620MOL0     H83636   5.853  10.743   5.897  0.8303 -0.3434 -0.5758
  620MOL0     H83637   5.968  10.657   6.124 -0.9967 -1.1406  1.6979
  620MOL0     H83638   6.008  10.583   5.962 -0.9979 -0.8978 -0.3873
  620MOL0     H83639   5.791  10.424   6.055 -1.4779  1.4737  1.6198
  620MOL0     H83640   5.846  10.502   6.201  2.4716  2.6945 -0.2061
  620MOL0     H83641   6.017  10.340   6.016 -0.3933 -0.9921  0.2508
  620MOL0     H83642   6.078  10.417   6.169  3.2792 -1.5053 -2.7154
  620MOL0     H83643   5.900  10.262   6.291 -0.5080  1.9465 -0.6348
  620MOL0     H83644   5.885  10.180   6.131  2.9225 -2.5403 -1.2900
  620MOL0     H83645   6.104  10.126   6.106  1.9981  0.5307 -1.0498
  620MOL0     H83646   6.170  10.209   6.239 -0.5343 -0.9631  2.2517
  620MOL0     H83647   6.125   9.954   6.263  0.8821  0.6061  0.2871
  620MOL0     H83648   5.954   9.995   6.270  0.2159  0.9385 -1.8512
  620MOL0     H83649   5.972  10.107   6.466 -0.6681  0.3604 -0.0617
  620MOL0     H83650   6.061   9.952   6.489 -1.1713  0.6038  0.1015
  620MOL0     H83651   6.352   9.977   6.444 -1.2153 -0.9916  0.7410
  620MOL0     H83652   6.561  10.283   6.560 -1.7545 -0.3807  2.6604
  620MOL0     H83653   6.588  10.120   6.609  1.4475  0.0283 -0.4588
  620MOL0     H83654   6.541  10.063   6.340  0.5217 -0.2709  0.8990
  620MOL0     H83655   6.532  10.234   6.322  0.4334 -1.6001 -2.5280
  620MOL0     H83656   6.779  10.077   6.362  1.9345  0.9268 -2.2149
  620MOL0     H83657   6.771  10.229   6.452  1.2643 -1.3584 -0.1325
  620MOL0     H83658   6.730  10.349   6.254 -0.6379 -0.4477  0.8763
  620MOL0     H83659   6.708  10.202   6.153 -1.1274  1.1305  0.1561
  620MOL0     H83660   7.156  10.230   6.098  1.7076  1.3437  1.0462
  620MOL0     H83661   7.256  10.369   5.931 -0.7044 -0.5888 -1.9643
  620MOL0     H83662   7.327  10.782   5.704  1.5552 -0.3776 -1.0508
  620MOL0     H83663   7.401  10.896   5.501  0.5228 -0.1709  0.5693
  620MOL0     H83664   7.355  11.068   5.174 -0.7503  0.7543  0.6080
  620MOL0     H83665   7.406  11.049   5.345  0.4673 -0.0838  0.2235
  620MOL0     H83666   7.419  10.789   5.300  0.4162  0.4799  1.7775
  620MOL0     H83667   7.394  10.824   5.125  1.9187  0.2454 -1.0555
  620MOL0     H83668   7.620  10.793   5.152  1.9591  1.1767 -0.9800
  620MOL0     H83669   7.602  10.968   5.144  0.4507 -1.0756 -0.9084
  620MOL0     H83670   7.622  10.786   5.385  0.1141 -0.6426 -1.7482
  620MOL0     H83671   7.603  10.960   5.400  2.4247  0.9485  0.0353
  620MOL0     H83672   7.846  10.931   5.423 -1.3206 -0.8270  1.3029
  620MOL0     H83673   7.834  10.960   5.255 -0.4353  1.3035  0.9155
  620MOL0     H83674   7.835  10.683   5.375 -2.9342  1.9511  0.3922
  620MOL0     H83675   7.856  10.728   5.198 -2.1990 -1.7864  0.7295
  620MOL0     H83676   8.050  10.651   5.300  0.8215  0.0402 -2.0487
  620MOL0     H83677   8.051  10.791   5.413 -1.1029 -1.3514  0.5132
  620MOL0     H83678   8.034  10.836   5.107 -1.7446 -0.8729  0.0738
  620MOL0     H83679   8.080  10.949   5.236 -1.8108 -0.1115 -0.7168
  620MOL0     H83680   7.018  10.856   5.331  0.1708 -1.0248  0.3309
  620MOL0     H83681   6.940  10.734   5.509 -0.8584 -1.9429  0.8562
  620MOL0     H83682   6.886  10.583   5.893  0.0110  0.8693  0.0743
  620MOL0     H83683   6.783  10.455   6.055 -0.7338  1.2076 -3.3284
  620MOL0     H83684   5.625  10.760   5.822 -0.5548 -2.3261 -1.7821
  620MOL0     H83685   5.393  10.811   5.784  2.3736 -0.1436 -0.3398
  620MOL0     H83686   4.963  10.849   5.975 -0.0522 -0.7807 -2.1985
  620MOL0     H83687   4.725  10.909   5.928 -2.1356  0.8953 -1.0016
  620MOL0     H83688   4.551  11.027   5.937  0.4899 -1.6951 -1.1459
  620MOL0     H83689   4.512  10.946   5.783  1.0696 -1.5890  1.4360
  620MOL0     H83690   4.374  11.143   5.724 -1.7554 -2.1659  0.0459
  620MOL0     H83691   4.435  11.235   5.862 -1.4262  0.4380 -0.3152
  620MOL0     H83692   4.317  11.131   6.020 -3.0044  3.0887 -1.1253
  620MOL0     H83693   4.313  10.975   5.943  0.7184 -0.3345 -1.2777
  620MOL0     H83694   4.138  11.221   5.862 -0.7026 -0.2460 -0.9631
  620MOL0     H83695   4.142  11.058   5.784 -1.0687  0.5247  0.3984
  620MOL0     H83696   3.901  10.985   6.138 -0.2749 -0.2980 -0.5542
  620MOL0     H83697   4.852  11.234   5.689  0.1137  0.1782  1.1204
  620MOL0     H83698   5.077  11.295   5.652  1.4651  0.0497 -0.7550
  620MOL0     H83699   5.154  11.302   5.813 -1.6362 -0.2355 -0.2428
  620MOL0     H83700   5.195  11.176   5.694  2.4255  0.3542  4.0512
  621MOL0     O83701   5.681   0.260   7.967 -0.2661  0.1259 -0.2662
  621MOL0     C83702   5.614   0.325   8.044 -0.2150 -0.1789  0.6542
  621MOL0     O83703   5.667   0.394   8.150 -0.0878 -0.7052  0.3898
  621MOL0     C83704   5.796   0.355   8.192 -0.0468  0.1779  0.6007
  621MOL0     C83705   5.824   0.288   8.310 -0.1505  0.0459  0.6135
  621MOL0     C83706   5.950   0.236   8.335 -0.3290  0.5917  1.0485
  621MOL0     C83707   6.058   0.264   8.255 -1.0573  0.1149 -0.4002
  621MOL0     O83708   6.187   0.227   8.278 -0.4463  0.2063  0.1276
  621MOL0     C83709   6.220   0.153   8.396  0.4447 -0.3519  0.6429
  621MOL0     C83710   6.273   0.253   8.498 -0.0493  0.2595 -0.5290
  621MOL0     C83711   6.314   0.186   8.635  0.2499  0.0414  0.1505
  621MOL0     C83712   6.380   0.279   8.733  0.2693 -0.0183  0.4237
  621MOL0     C83713   6.435   0.203   8.846 -0.1462 -0.1066  0.2640
  621MOL0     C83714   6.507   0.287   8.952  0.8484  0.7763  0.3494
  621MOL0     C83715   6.548   0.206   9.073 -0.1255 -0.5744 -0.8494
  621MOL0     C83716   6.644   0.288   9.166  0.3646 -0.3298 -0.5616
  621MOL0     N83717   6.664   0.212   9.287 -0.1605  0.8703 -0.2052
  621MOL0     C83718   6.776   0.210   9.357 -0.6375  1.2543 -0.0016
  621MOL0     C83719   6.751   0.116   9.456  0.2191 -0.5817  0.1595
  621MOL0     C83720   6.852   0.084   9.560  0.3112 -0.2141 -1.0879
  621MOL0     C83721   6.890  -0.052   9.575 -0.1862 -0.0105  0.4294
  621MOL0     C83722   6.986  -0.079   9.456 -0.9118  0.4778 -0.2303
  621MOL0     C83723   7.079  -0.193   9.502  0.2107  0.1470 -0.1494
  621MOL0     O83724   7.173  -0.141   9.596  0.4839  0.0109  1.0289
  621MOL0     C83725   7.295  -0.087   9.550 -0.0366 -0.3339  0.7609
  621MOL0     C83726   7.393  -0.063   9.648 -0.3792  1.0573 -0.0194
  621MOL0     C83727   7.514  -0.002   9.620  1.3927  0.0737 -0.4100
  621MOL0     C83728   7.542   0.044   9.491 -0.3581  0.3542 -0.0985
  621MOL0     C83729   7.665   0.122   9.466  0.3434  0.8743  0.3162
  621MOL0     O83730   7.764   0.111   9.563 -0.5852  0.0832 -0.2085
  621MOL0     C83731   7.881   0.175   9.562  0.0071  0.2974 -0.0852
  621MOL0     C83732   7.994   0.116   9.628  0.1644 -0.3504  0.4577
  621MOL0     C83733   8.120   0.177   9.629  0.2270 -0.1924 -0.2489
  621MOL0     C83734   8.140   0.295   9.556  0.6623  0.2109  0.5961
  621MOL0     O83735   8.272   0.335   9.553 -0.1378  0.5968 -0.0358
  621MOL0     C83736   8.310   0.409   9.434 -0.3147  0.3157  0.0486
  621MOL0     C83737   8.467   0.399   9.447 -0.0109  0.2488  0.4743
  621MOL0     C83738   8.526   0.476   9.315 -0.1041  0.2578  0.3461
  621MOL0     C83739   8.683   0.486   9.312  0.1828  0.5065 -0.1817
  621MOL0     C83740   8.728   0.564   9.188  0.2049 -0.3854  0.3868
  621MOL0     C83741   8.879   0.562   9.171  0.0657 -0.6552 -0.0713
  621MOL0     C83742   8.938   0.575   9.024 -0.1430  0.5086 -0.1297
  621MOL0     C83743   9.094   0.574   9.015  0.7310 -0.0272 -0.1321
  621MOL0    Cl83744   9.152   0.417   9.079 -0.3213 -0.3858  0.3667
  621MOL0     C83745   8.035   0.355   9.493 -0.0039 -0.5848 -0.4701
  621MOL0     C83746   7.906   0.302   9.504  0.3327 -0.4875  0.7451
  621MOL0     O83747   7.666   0.187   9.357 -0.4281  0.2292 -0.3017
  621MOL0     C83748   7.444   0.022   9.394 -1.0393  0.5305  0.1090
  621MOL0     C83749   7.322  -0.040   9.422  0.0709  0.0371  0.1141
  621MOL0     N83750   6.624   0.069   9.434  0.2713 -0.4815 -0.3429
  621MOL0     N83751   6.577   0.119   9.331  0.0993  0.7203  0.1732
  621MOL0     C83752   6.039   0.333   8.142  0.0502  0.4462 -0.4424
  621MOL0     C83753   5.909   0.372   8.105 -0.0253 -0.7502 -0.5091
  621MOL0     C83754   5.472   0.322   8.033 -0.0091 -0.6406  0.7966
  621MOL0     C83755   5.396   0.434   8.064 -0.4022  0.3622 -0.0554
  621MOL0     C83756   5.258   0.440   8.040 -0.5667 -0.6159  0.3077
  621MOL0     C83757   5.195   0.337   7.968 -0.1006 -0.2419 -0.5556
  621MOL0     O83758   5.060   0.336   7.941  0.4177  0.0954  0.5944
  621MOL0     C83759   4.968   0.435   7.984 -0.2142  0.0890 -0.6185
  621MOL0     C83760   4.844   0.424   7.902 -0.2000 -0.2041 -0.5786
  621MOL0     C83761   4.881   0.476   7.752  0.3506  0.3651  0.8915
  621MOL0     C83762   4.745   0.471   7.676 -0.7816  0.1106  0.4778
  621MOL0     C83763   4.705   0.327   7.644  0.2814 -1.3128 -1.0488
  621MOL0     C83764   4.674   0.211   7.628 -0.5879  0.4293  0.4149
  621MOL0     C83765   5.265   0.228   7.940 -0.6899  0.0196 -0.4622
  621MOL0     C83766   5.407   0.218   7.964  0.4194  0.0483 -0.1392
  621MOL0     C83767   5.466   0.080   7.937 -1.0628  0.4251 -0.0823
  621MOL0     H83768   5.744   0.283   8.383  0.3006  0.6284  1.1671
  621MOL0     H83769   5.957   0.184   8.430  0.7557 -0.2143  0.5419
  621MOL0     H83770   6.133   0.097   8.431 -1.0447  2.7752  2.3769
  621MOL0     H83771   6.304   0.089   8.371  0.0528 -0.5544 -0.1883
  621MOL0     H83772   6.190   0.321   8.522  0.3075  0.9762 -1.2644
  621MOL0     H83773   6.360   0.301   8.452  0.9856 -0.8908  0.1729
  621MOL0     H83774   6.382   0.101   8.625  1.8339  1.4267 -1.4911
  621MOL0     H83775   6.232   0.152   8.700 -0.2563 -0.0446 -0.5193
  621MOL0     H83776   6.457   0.345   8.692  2.1041 -0.7564  2.4504
  621MOL0     H83777   6.302   0.346   8.769 -0.1777 -1.4810  2.3288
  621MOL0     H83778   6.351   0.148   8.890 -0.5177  1.5638  1.7403
  621MOL0     H83779   6.511   0.144   8.794  0.3082  0.5026  0.2187
  621MOL0     H83780   6.598   0.328   8.906  0.9027  1.3880  0.9918
  621MOL0     H83781   6.440   0.369   8.979 -2.7486 -0.6835 -3.2278
  621MOL0     H83782   6.598   0.112   9.046 -1.0705 -1.7181  1.1385
  621MOL0     H83783   6.452   0.189   9.123 -0.5578  0.0215 -1.4758
  621MOL0     H83784   6.742   0.291   9.116  0.9471  0.7429  0.5707
  621MOL0     H83785   6.605   0.388   9.190 -2.0813 -1.4823  0.5396
  621MOL0     H83786   6.859   0.279   9.350  2.1593 -1.5496  2.3848
  621MOL0     H83787   6.938   0.151   9.555  0.1418 -0.0258 -1.5288
  621MOL0     H83788   6.805   0.110   9.655  0.8940  1.4199 -1.2152
  621MOL0     H83789   6.938  -0.069   9.672  2.6827  0.2861 -0.8196
  621MOL0     H83790   6.803  -0.118   9.570  0.6283 -1.0706 -0.5205
  621MOL0     H83791   7.045   0.012   9.441 -1.2638  0.8298  0.4540
  621MOL0     H83792   6.928  -0.111   9.370 -2.9258 -0.6430  1.4742
  621MOL0     H83793   7.138  -0.231   9.418  4.1286  0.9745  1.9955
  621MOL0     H83794   7.014  -0.270   9.545 -0.1078 -0.4967 -1.7189
  621MOL0     H83795   7.382  -0.102   9.749  1.0913  2.0858  0.5815
  621MOL0     H83796   7.592   0.007   9.694  0.0664  2.4230  0.8033
  621MOL0     H83797   7.978   0.019   9.674 -2.1033 -0.0897  0.3341
  621MOL0     H83798   8.206   0.125   9.671  0.1733 -0.8272 -0.8990
  621MOL0     H83799   8.288   0.362   9.338  2.1892  1.0952 -0.9962
  621MOL0     H83800   8.279   0.514   9.435 -1.1048  0.1385 -1.9535
  621MOL0     H83801   8.499   0.456   9.535  2.7435  0.9130 -0.8817
  621MOL0     H83802   8.503   0.296   9.451  3.3755  0.9148 -4.6975
  621MOL0     H83803   8.492   0.437   9.219 -0.1005  0.8021  0.1237
  621MOL0     H83804   8.488   0.578   9.326  1.3363  0.8922 -0.3904
  621MOL0     H83805   8.724   0.386   9.294 -0.4229  0.3329 -0.5880
  621MOL0     H83806   8.718   0.534   9.404  0.0483  1.1223 -0.4504
  621MOL0     H83807   8.693   0.667   9.201 -0.0888 -0.5028  0.5389
  621MOL0     H83808   8.685   0.515   9.100  1.5330 -1.5885  0.3707
  621MOL0     H83809   8.928   0.640   9.231  1.6296 -2.1767  0.7258
  621MOL0     H83810   8.917   0.465   9.206 -2.9529 -2.8899 -2.3778
  621MOL0     H83811   8.895   0.672   8.995  0.6415  2.1605  3.5882
  621MOL0     H83812   8.887   0.499   8.965  0.4847 -1.0149  1.2324
  621MOL0     H83813   9.125   0.595   8.912  2.1255  0.6697  0.3983
  621MOL0     H83814   9.143   0.650   9.076  1.5378 -1.7888  1.5418
  621MOL0     H83815   8.048   0.452   9.447 -0.0423  0.3492  1.4131
  621MOL0     H83816   7.820   0.362   9.476 -0.9827 -1.8054  1.7979
  621MOL0     H83817   7.454   0.062   9.293 -2.1451 -2.3710 -1.2605
  621MOL0     H83818   7.245  -0.053   9.347  1.3045 -1.0650 -1.0302
  621MOL0     H83819   6.123   0.348   8.074  0.9791 -0.8896  0.3554
  621MOL0     H83820   5.884   0.418   8.010 -1.1021 -2.1037 -0.9098
  621MOL0     H83821   5.429   0.523   8.116  0.8745  1.2954 -2.2956
  621MOL0     H83822   5.199   0.524   8.077 -2.2673 -1.4569 -0.3573
  621MOL0     H83823   5.022   0.530   7.972  2.2655 -0.3405  4.3779
  621MOL0     H83824   4.946   0.427   8.090  1.0269 -3.5010 -0.5168
  621MOL0     H83825   4.759   0.477   7.946 -1.2829 -1.4629 -1.0922
  621MOL0     H83826   4.820   0.318   7.902  0.0312 -0.2666 -1.3237
  621MOL0     H83827   4.957   0.410   7.709 -0.0567  0.5516 -0.1467
  621MOL0     H83828   4.932   0.571   7.764  2.7266 -0.6282 -0.5223
  621MOL0     H83829   4.667   0.508   7.742 -0.2647  1.0146  0.5912
  621MOL0     H83830   4.737   0.544   7.594 -0.5907  1.1821  1.4001
  621MOL0     H83831   4.641   0.114   7.597  2.4836 -0.7948  0.6288
  621MOL0     H83832   5.208   0.144   7.902 -2.1555  0.9724 -0.4296
  621MOL0     H83833   5.548   0.085   7.865 -0.3101 -3.5014  0.3250
  621MOL0     H83834   5.520   0.042   8.024  0.1637  2.5659  0.1579
  621MOL0     H83835   5.388   0.008   7.910  1.7407 -1.7382 -3.0928
  622MOL0     O83836   2.250   9.463   5.017 -0.3638  0.1572  0.2289
  622MOL0     C83837   2.177   9.376   5.052 -0.5866  0.5530 -0.1169
  622MOL0     O83838   2.202   9.297   5.167 -0.0534  0.7389 -0.1756
  622MOL0     C83839   2.325   9.315   5.221 -0.2883 -0.0520  0.0124
  622MOL0     C83840   2.440   9.285   5.149  0.1570  0.0681 -0.1401
  622MOL0     C83841   2.566   9.302   5.208  0.2162  0.0236  0.2851
  622MOL0     C83842   2.590   9.338   5.339 -0.8195  0.9566  0.1543
  622MOL0     O83843   2.709   9.343   5.406 -0.0694  0.6988  0.1575
  622MOL0     C83844   2.826   9.370   5.337  0.1896 -0.2888 -0.0259
  622MOL0     C83845   2.940   9.377   5.434 -0.1239  0.2442 -0.1186
  622MOL0     C83846   3.065   9.424   5.379 -0.1560 -0.5408 -0.0753
  622MOL0     C83847   3.178   9.423   5.482  0.0813  0.1957 -0.5583
  622MOL0     C83848   3.309   9.463   5.399 -0.2244 -0.3360 -0.1898
  622MOL0     C83849   3.424   9.471   5.501  0.4349  0.3629 -0.1171
  622MOL0     C83850   3.494   9.329   5.518 -0.6888 -0.1094 -0.4743
  622MOL0     C83851   3.573   9.328   5.647 -0.0432  0.3820  0.7097
  622MOL0     N83852   3.638   9.195   5.669  0.2227  0.6649  0.0992
  622MOL0     C83853   3.579   9.081   5.717 -0.4398 -1.0810 -0.3336
  622MOL0     C83854   3.668   8.980   5.698  0.1729  0.6786 -0.0344
  622MOL0     C83855   3.643   8.842   5.721  0.6768  0.5529 -0.5165
  622MOL0     C83856   3.497   8.804   5.746  0.6102  0.2044  0.2787
  622MOL0     C83857   3.475   8.656   5.783 -0.4840  0.1596  1.0471
  622MOL0     C83858   3.327   8.617   5.756 -0.6613  1.3576 -0.1019
  622MOL0     O83859   3.248   8.705   5.839  0.1747 -0.0525  0.3981
  622MOL0     C83860   3.109   8.703   5.825 -0.0146 -0.2003  0.6651
  622MOL0     C83861   3.036   8.609   5.749 -0.2061 -1.0389  0.3645
  622MOL0     C83862   2.897   8.628   5.723 -0.7786 -0.1580  0.1576
  622MOL0     C83863   2.831   8.744   5.773  1.0922  0.5226 -0.1643
  622MOL0     C83864   2.688   8.757   5.758 -0.3833  0.3056  1.0618
  622MOL0     O83865   2.628   8.873   5.806 -0.3827 -0.5500 -0.2768
  622MOL0     C83866   2.492   8.870   5.819  0.7452 -0.1395 -0.2422
  622MOL0     C83867   2.420   8.796   5.913  0.3916  0.1271 -0.1873
  622MOL0     C83868   2.275   8.798   5.925  0.0508  0.4741  0.4167
  622MOL0     C83869   2.207   8.900   5.860  1.1115  0.3275 -0.6153
  622MOL0     O83870   2.071   8.927   5.879  0.0217 -0.4357  0.0251
  622MOL0     C83871   1.999   8.836   5.973 -0.5414  0.1751  0.5484
  622MOL0     C83872   1.855   8.886   5.966  0.4843 -0.3565 -0.9298
  622MOL0     C83873   1.781   8.853   6.095  0.2771 -0.2869 -0.2153
  622MOL0     C83874   1.633   8.900   6.077  0.1997 -0.1713 -0.6021
  622MOL0     C83875   1.541   8.871   6.202 -0.1503  0.3756  0.2949
  622MOL0     C83876   1.394   8.903   6.188  0.0908 -0.4983  0.3145
  622MOL0     C83877   1.312   8.839   6.304  0.5348 -0.8135 -0.1508
  622MOL0     C83878   1.168   8.859   6.287  0.0232  0.0545 -0.0597
  622MOL0    Cl83879   1.121   9.029   6.304  0.2781 -0.0710  0.0274
  622MOL0     C83880   2.280   8.985   5.773  0.4367 -0.0957 -0.6856
  622MOL0     C83881   2.419   8.963   5.753 -1.0916 -0.8550 -0.4229
  622MOL0     O83882   2.631   8.664   5.705  0.2244 -0.4190 -0.2968
  622MOL0     C83883   2.906   8.835   5.856  0.2294  0.1539 -0.4345
  622MOL0     C83884   3.040   8.814   5.879  0.4999 -0.4746  0.1735
  622MOL0     N83885   3.793   9.043   5.663  0.0230 -0.2083  0.6538
  622MOL0     N83886   3.771   9.162   5.638  0.7065  0.2282 -0.0694
  622MOL0     C83887   2.473   9.360   5.415 -0.4589  0.4482  0.1695
  622MOL0     C83888   2.347   9.354   5.354  0.9555  0.2882 -0.5461
  622MOL0     C83889   2.068   9.338   4.965  0.6420 -0.0486 -0.1907
  622MOL0     C83890   2.002   9.216   4.998  0.4520  0.6473 -0.0248
  622MOL0     C83891   1.909   9.159   4.915 -0.3286 -0.3861  0.0845
  622MOL0     C83892   1.875   9.225   4.798  0.4298  0.5144  0.2983
  622MOL0     O83893   1.780   9.193   4.707 -0.7916  1.1854  0.5784
  622MOL0     C83894   1.694   9.075   4.724  0.2138  0.6141  0.3332
  622MOL0     C83895   1.604   9.066   4.595  0.5189  0.6989  0.0984
  622MOL0     C83896   1.679   9.003   4.482  0.3404 -0.0175 -0.0040
  622MOL0     C83897   1.596   9.008   4.349  0.0679 -0.7214  0.2381
  622MOL0     C83898   1.486   8.916   4.352  0.2439  0.5253 -0.2599
  622MOL0     C83899   1.390   8.829   4.365  0.2574 -0.3406 -0.0030
  622MOL0     C83900   1.949   9.340   4.764 -0.2247  0.3368 -0.1824
  622MOL0     C83901   2.051   9.398   4.836  0.1330  0.1560  0.2337
  622MOL0     C83902   2.105   9.530   4.788  0.3830 -0.1168  0.4050
  622MOL0     H83903   2.426   9.241   5.051 -2.4999 -0.8106  0.5451
  622MOL0     H83904   2.649   9.277   5.143 -0.6042 -0.1376 -0.7344
  622MOL0     H83905   2.849   9.303   5.254  1.0914  1.2180 -1.0543
  622MOL0     H83906   2.823   9.475   5.304 -0.8461 -0.7739 -1.5286
  622MOL0     H83907   2.961   9.279   5.478  1.0564 -0.9370 -3.1040
  622MOL0     H83908   2.913   9.443   5.517  0.5189  1.0541 -0.5332
  622MOL0     H83909   3.048   9.524   5.338 -3.8900 -1.1310 -0.2600
  622MOL0     H83910   3.088   9.353   5.299 -1.3385  1.4102 -2.2541
  622MOL0     H83911   3.157   9.502   5.555  2.8823  0.3735  0.1894
  622MOL0     H83912   3.196   9.326   5.529 -2.3173  0.9880  2.3345
  622MOL0     H83913   3.314   9.381   5.325 -2.1776  0.1485 -0.9180
  622MOL0     H83914   3.292   9.552   5.339 -0.9562 -0.3444 -0.0015
  622MOL0     H83915   3.495   9.550   5.475  2.0806 -0.8982  0.3976
  622MOL0     H83916   3.379   9.497   5.597 -1.1559  1.2311 -1.0546
  622MOL0     H83917   3.550   9.305   5.428 -1.2709 -0.4459 -0.7496
  622MOL0     H83918   3.417   9.255   5.537 -0.0627 -1.3005 -2.3944
  622MOL0     H83919   3.654   9.401   5.642  1.1200 -0.9512 -1.2222
  622MOL0     H83920   3.500   9.346   5.727 -1.8711  0.5951 -0.9440
  622MOL0     H83921   3.481   9.069   5.762 -0.0588 -0.1362  0.8015
  622MOL0     H83922   3.680   8.781   5.638 -1.5310 -2.8164  0.7415
  622MOL0     H83923   3.700   8.812   5.810 -0.3814 -1.0342 -0.3161
  622MOL0     H83924   3.458   8.865   5.828  2.4761  0.7245  0.8335
  622MOL0     H83925   3.430   8.818   5.661 -0.7578  2.2059  1.6007
  622MOL0     H83926   3.488   8.652   5.891 -0.8453  0.0271  1.0850
  622MOL0     H83927   3.541   8.587   5.729 -2.0957  1.1232 -2.4474
  622MOL0     H83928   3.308   8.512   5.782 -3.2090  2.2174  1.8719
  622MOL0     H83929   3.299   8.625   5.651  1.8707 -2.6179 -1.3101
  622MOL0     H83930   3.084   8.528   5.695 -1.4881 -2.9473  1.9803
  622MOL0     H83931   2.845   8.539   5.688  0.6228 -0.7925 -0.3931
  622MOL0     H83932   2.477   8.711   5.949  2.6684 -0.2611 -4.0904
  622MOL0     H83933   2.224   8.721   5.983 -2.1060  1.8151  0.4231
  622MOL0     H83934   1.991   8.730   5.946  1.5536  0.1229 -0.0318
  622MOL0     H83935   2.045   8.850   6.071 -0.0341 -0.4234  0.4032
  622MOL0     H83936   1.858   8.994   5.951  2.0219 -0.1137  0.7899
  622MOL0     H83937   1.804   8.839   5.881 -0.4676 -3.2269  1.0976
  622MOL0     H83938   1.794   8.747   6.117 -2.0443 -0.3325  1.1896
  622MOL0     H83939   1.822   8.900   6.185 -2.1313 -0.6208  1.1342
  622MOL0     H83940   1.587   8.845   5.995 -0.1795  1.0962 -1.2746
  622MOL0     H83941   1.629   9.008   6.058  5.9172  0.5775  0.6246
  622MOL0     H83942   1.583   8.923   6.289  1.5270  1.1473 -0.9289
  622MOL0     H83943   1.548   8.764   6.222  1.5668 -0.4305 -3.6037
  622MOL0     H83944   1.403   9.011   6.177  3.1187 -0.6506  0.3946
  622MOL0     H83945   1.366   8.871   6.087  3.1310  1.1368 -1.1835
  622MOL0     H83946   1.350   8.877   6.400 -0.6326 -0.0619  0.0411
  622MOL0     H83947   1.330   8.732   6.295 -2.6090 -1.3005 -1.8941
  622MOL0     H83948   1.129   8.825   6.190 -1.6148 -1.0340  0.9144
  622MOL0     H83949   1.115   8.790   6.354 -1.0064  1.1737  0.3153
  622MOL0     H83950   2.216   9.057   5.722 -1.0335  2.0160  3.6044
  622MOL0     H83951   2.464   9.022   5.674  1.6680 -1.2603  0.7556
  622MOL0     H83952   2.863   8.928   5.893 -0.4760 -0.0275 -0.7754
  622MOL0     H83953   3.096   8.891   5.932  0.6713 -0.0245 -0.6435
  622MOL0     H83954   2.482   9.369   5.523 -2.9555  0.3234  0.4529
  622MOL0     H83955   2.251   9.356   5.405  1.3575 -3.3946  0.6895
  622MOL0     H83956   2.027   9.157   5.086 -0.6231  0.2234  0.0010
  622MOL0     H83957   1.865   9.061   4.927 -0.6212 -0.5350 -1.9459
  622MOL0     H83958   1.636   9.090   4.816 -2.1434  1.9627 -1.2771
  622MOL0     H83959   1.755   8.986   4.744  0.6741  0.4061 -1.7638
  622MOL0     H83960   1.582   9.171   4.575  0.7709  1.8336  4.6794
  622MOL0     H83961   1.508   9.023   4.625  0.2112  2.5997  2.0785
  622MOL0     H83962   1.702   8.900   4.510  1.1431  0.8057  2.6510
  622MOL0     H83963   1.778   9.046   4.464 -1.0828  3.4495 -0.2388
  622MOL0     H83964   1.553   9.105   4.322 -3.7097 -1.7494  1.9485
  622MOL0     H83965   1.663   8.971   4.270 -0.8643 -0.9697 -0.4489
  622MOL0     H83966   1.305   8.764   4.369 -0.4999  0.6820  1.6644
  622MOL0     H83967   1.912   9.386   4.673  0.8453  2.5244  0.4200
  622MOL0     H83968   2.211   9.519   4.762  0.2757 -2.4395  0.7728
  622MOL0     H83969   2.042   9.570   4.709 -0.8926 -1.8144  0.4976
  622MOL0     H83970   2.104   9.608   4.865 -0.3109 -1.5679  1.9200
  623MOL0     O83971   7.894   4.641   7.379  0.3547  0.5092  0.7298
  623MOL0     C83972   7.891   4.738   7.452  0.1496 -0.1538  0.2640
  623MOL0     O83973   7.994   4.789   7.526 -0.2646  0.0286 -0.0888
  623MOL0     C83974   8.120   4.728   7.528  0.5113  0.4986  0.1245
  623MOL0     C83975   8.212   4.820   7.578  0.9669 -0.1270  0.8016
  623MOL0     C83976   8.346   4.786   7.583  0.8482 -0.7186  0.6238
  623MOL0     C83977   8.390   4.651   7.560 -0.0917  0.2228 -0.4277
  623MOL0     O83978   8.521   4.624   7.604  0.5422 -0.0868  0.0312
  623MOL0     C83979   8.533   4.496   7.660  1.4893  0.1611  0.1192
  623MOL0     C83980   8.653   4.512   7.756 -0.4301  0.1805 -0.0907
  623MOL0     C83981   8.792   4.528   7.680 -0.2968  0.4162  0.5463
  623MOL0     C83982   8.922   4.532   7.771  0.1201 -0.1767  0.9107
  623MOL0     C83983   9.037   4.597   7.699  0.4274  0.0642  0.6789
  623MOL0     C83984   9.174   4.532   7.733  1.0719 -0.9080 -0.1156
  623MOL0     C83985   9.285   4.544   7.623  0.0537  0.1173 -0.8365
  623MOL0     C83986   9.423   4.507   7.677 -0.1637  0.1865  0.0902
  623MOL0     N83987   9.485   4.598   7.786 -0.6295  1.0755  0.2836
  623MOL0     C83988   9.522   4.729   7.755  0.1617 -0.5398  0.3011
  623MOL0     C83989   9.527   4.787   7.880 -0.1579 -0.0808  0.3407
  623MOL0     C83990   9.558   4.924   7.905 -0.7569 -0.2301  0.1076
  623MOL0     C83991   9.639   4.988   7.792 -0.3775 -0.8846  0.5867
  623MOL0     C83992   9.704   5.130   7.818 -0.0055 -0.0367  0.6932
  623MOL0     C83993   9.789   5.172   7.693 -0.3909  0.3091 -0.4757
  623MOL0     O83994   9.884   5.269   7.731  0.4301 -0.1747 -0.7325
  623MOL0     C83995  10.004   5.228   7.779  1.5080 -0.0981  0.4261
  623MOL0     C83996  10.082   5.334   7.815 -0.1560  0.5660  0.0970
  623MOL0     C83997  10.212   5.309   7.857 -0.0933  0.6201 -0.9512
  623MOL0     C83998  10.255   5.181   7.879  1.0362 -0.0535 -0.0817
  623MOL0     C83999  10.398   5.157   7.902 -0.0688 -0.0249 -0.6956
  623MOL0     O84000  10.482   5.264   7.909  0.1489  0.4291  0.6515
  623MOL0     C84001  10.617   5.244   7.938 -0.3792  0.2332 -0.3053
  623MOL0     C84002  10.712   5.272   7.835 -0.4242 -0.7502  0.2412
  623MOL0     C84003  10.849   5.266   7.856 -0.3804  0.6257 -0.8659
  623MOL0     C84004  10.901   5.228   7.987  1.0740 -0.8338  0.1565
  623MOL0     O84005  11.031   5.239   8.011 -0.0856 -0.5686  0.1809
  623MOL0     C84006  11.082   5.172   8.123 -0.1730 -0.8209 -0.2163
  623MOL0     C84007  11.234   5.195   8.119  0.0558  0.3226 -0.1801
  623MOL0     C84008  11.299   5.123   8.242  0.7623 -0.5090  0.2184
  623MOL0     C84009  11.451   5.119   8.216 -0.3177 -0.1259  0.1463
  623MOL0     C84010  11.520   5.256   8.261 -0.1714  0.3299 -0.0697
  623MOL0     C84011  11.547   5.265   8.413  0.1883 -0.5018 -0.5262
  623MOL0     C84012  11.661   5.171   8.459 -0.1068  0.7695 -0.1571
  623MOL0     C84013  11.787   5.236   8.421 -0.2274  0.6922  0.5773
  623MOL0    Cl84014  11.906   5.120   8.504  0.2513  0.2038  0.1028
  623MOL0     C84015  10.801   5.184   8.082 -0.1875 -0.1255  0.2378
  623MOL0     C84016  10.667   5.190   8.058 -0.3191 -0.6400 -0.7361
  623MOL0     O84017  10.430   5.042   7.911 -0.4032  0.4577  0.1604
  623MOL0     C84018  10.164   5.077   7.866 -0.1398  0.0539  0.5276
  623MOL0     C84019  10.038   5.099   7.815 -0.1692  0.8240 -0.4654
  623MOL0     N84020   9.501   4.695   7.979  0.2928 -0.2969 -0.0824
  623MOL0     N84021   9.475   4.578   7.920  0.6862  0.2872 -0.0443
  623MOL0     C84022   8.301   4.562   7.498 -0.8241 -0.4393  0.5635
  623MOL0     C84023   8.165   4.598   7.488 -0.8157 -0.5789  0.3171
  623MOL0     C84024   7.758   4.803   7.464  0.1430  0.7737 -0.1631
  623MOL0     C84025   7.738   4.888   7.577 -0.5844  0.7331  0.0670
  623MOL0     C84026   7.612   4.939   7.605 -1.0578 -0.3891  0.3051
  623MOL0     C84027   7.504   4.927   7.525 -0.3736 -0.1894  0.2658
  623MOL0     O84028   7.379   4.979   7.565  1.0384 -0.2104 -0.6666
  623MOL0     C84029   7.258   4.964   7.487 -1.0147  0.2462 -0.5559
  623MOL0     C84030   7.138   5.021   7.556  0.1148  0.1314  0.4245
  623MOL0     C84031   7.110   4.943   7.690  0.0974  0.0372  0.0493
  623MOL0     C84032   7.023   4.818   7.670  0.0786 -0.4229 -0.8312
  623MOL0     C84033   6.893   4.863   7.618  0.4316  0.6820  0.1433
  623MOL0     C84034   6.788   4.894   7.568  0.9249  0.2069 -0.2427
  623MOL0     C84035   7.521   4.841   7.415 -0.4320 -0.4332 -0.1654
  623MOL0     C84036   7.648   4.784   7.381  1.0934  0.3566 -0.1442
  623MOL0     C84037   7.653   4.689   7.257 -0.2479 -0.6028  0.0295
  623MOL0     H84038   8.180   4.919   7.607  1.8577 -0.2472  2.2829
  623MOL0     H84039   8.425   4.857   7.605  0.6862  0.6962 -2.7535
  623MOL0     H84040   8.444   4.462   7.715  1.6853 -3.2789 -1.4374
  623MOL0     H84041   8.535   4.419   7.582  0.3512 -0.3625  0.5740
  623MOL0     H84042   8.665   4.419   7.813  0.5916 -1.0246 -2.1638
  623MOL0     H84043   8.628   4.598   7.820 -1.8778 -0.9307  0.9318
  623MOL0     H84044   8.794   4.621   7.622 -0.0966 -0.1476 -0.3702
  623MOL0     H84045   8.800   4.443   7.612  2.8032  1.0842 -0.0772
  623MOL0     H84046   8.916   4.582   7.868  0.9812 -0.6637  1.2268
  623MOL0     H84047   8.948   4.428   7.791 -0.7582 -0.4282  0.7975
  623MOL0     H84048   9.014   4.584   7.593  0.8697 -1.5706  0.7532
  623MOL0     H84049   9.039   4.704   7.719  1.0425  1.3555 -4.6106
  623MOL0     H84050   9.212   4.582   7.822 -1.1883 -0.8760  0.8988
  623MOL0     H84051   9.158   4.428   7.765 -0.4516 -0.2852  1.3132
  623MOL0     H84052   9.294   4.643   7.577  2.1714 -1.0767 -3.2631
  623MOL0     H84053   9.260   4.487   7.534 -1.0195  1.3244 -1.3403
  623MOL0     H84054   9.417   4.408   7.724  0.4646  0.6192  1.1118
  623MOL0     H84055   9.492   4.507   7.592 -0.0247  0.9216  0.1993
  623MOL0     H84056   9.538   4.779   7.660 -2.4297  1.5705  0.8612
  623MOL0     H84057   9.467   4.983   7.908 -1.0039 -0.5701 -0.5458
  623MOL0     H84058   9.605   4.939   8.003 -1.5889 -0.4796  0.5574
  623MOL0     H84059   9.721   4.920   7.766 -1.0796 -0.8017 -2.2204
  623MOL0     H84060   9.574   4.991   7.704 -1.7169 -1.2337  1.5383
  623MOL0     H84061   9.764   5.122   7.909 -0.3285 -3.9735  0.7475
  623MOL0     H84062   9.621   5.199   7.835 -1.7907 -1.8579 -0.0708
  623MOL0     H84063   9.727   5.202   7.608 -1.3360  0.3147  0.1986
  623MOL0     H84064   9.846   5.086   7.655  1.5496  2.4273 -2.6797
  623MOL0     H84065  10.045   5.435   7.799 -1.4074  0.2056  0.6623
  623MOL0     H84066  10.276   5.395   7.876 -0.9336  0.7324  1.7279
  623MOL0     H84067  10.677   5.308   7.738 -2.1615 -0.3008  0.9822
  623MOL0     H84068  10.915   5.302   7.778 -1.0793 -0.0213 -1.7853
  623MOL0     H84069  11.053   5.197   8.225 -0.2364  1.0321 -0.6489
  623MOL0     H84070  11.067   5.068   8.093  1.7787 -1.7561  1.7935
  623MOL0     H84071  11.278   5.159   8.025  0.4976 -3.7027  1.3631
  623MOL0     H84072  11.254   5.302   8.128  0.1473  0.1763  1.9482
  623MOL0     H84073  11.279   5.176   8.335 -1.1232 -0.2988 -0.2561
  623MOL0     H84074  11.261   5.020   8.248 -2.5592  0.4208 -1.8219
  623MOL0     H84075  11.486   5.093   8.116  1.6286 -1.3120  1.0848
  623MOL0     H84076  11.491   5.040   8.280  1.6750 -1.3239 -2.3840
  623MOL0     H84077  11.467   5.341   8.218  1.8324 -0.1962 -3.9900
  623MOL0     H84078  11.611   5.270   8.203 -0.8973  3.6634 -0.6114
  623MOL0     H84079  11.573   5.366   8.447 -3.1067 -0.2802  1.8127
  623MOL0     H84080  11.444   5.249   8.447  0.4703  3.6423  3.3122
  623MOL0     H84081  11.655   5.069   8.421  1.6167  1.6290 -3.0595
  623MOL0     H84082  11.649   5.168   8.568 -1.4863 -0.8827 -0.3081
  623MOL0     H84083  11.799   5.246   8.313 -0.4061 -0.1760  0.4684
  623MOL0     H84084  11.794   5.336   8.466  1.5855  0.1480  1.6426
  623MOL0     H84085  10.833   5.164   8.184 -0.4117 -2.5503 -0.1184
  623MOL0     H84086  10.595   5.162   8.134 -0.1772  1.7009  0.3349
  623MOL0     H84087  10.203   4.977   7.881 -0.1922  0.3160  2.8164
  623MOL0     H84088   9.963   5.021   7.803 -0.5293  0.9207  1.0044
  623MOL0     H84089   8.334   4.468   7.456 -0.8746 -0.0054 -0.4816
  623MOL0     H84090   8.096   4.536   7.433  0.9332  1.6686 -5.0924
  623MOL0     H84091   7.819   4.900   7.649 -0.5414  1.7290 -0.1366
  623MOL0     H84092   7.604   4.992   7.700 -0.6435 -1.4587  0.9510
  623MOL0     H84093   7.249   4.857   7.465 -0.1373 -0.0044  0.2463
  623MOL0     H84094   7.268   5.016   7.392  3.3450  1.2139  0.2388
  623MOL0     H84095   7.059   5.022   7.480  2.9779 -0.9171 -2.8143
  623MOL0     H84096   7.167   5.124   7.580  2.6644 -0.7854  1.6210
  623MOL0     H84097   7.066   5.007   7.768 -0.8271 -0.8190  0.2488
  623MOL0     H84098   7.204   4.908   7.734  1.1698 -2.3038 -3.7000
  623MOL0     H84099   7.070   4.747   7.601  1.2583 -2.2145  1.6849
  623MOL0     H84100   7.007   4.766   7.765  0.1398  1.0066 -0.0096
  623MOL0     H84101   6.694   4.929   7.531  1.6845  1.3502 -1.1539
  623MOL0     H84102   7.431   4.830   7.356 -2.3046 -1.1154  2.5958
  623MOL0     H84103   7.663   4.582   7.278 -2.3064 -1.2456 -1.9628
  623MOL0     H84104   7.558   4.693   7.203 -1.6828 -0.4504  2.4085
  623MOL0     H84105   7.731   4.729   7.191 -0.5166  1.1884  0.7476
  624MOL0     O84106   3.355   3.541   1.061 -0.0456 -0.2623 -0.0508
  624MOL0     C84107   3.264   3.468   1.102 -0.2776 -0.0756  0.9926
  624MOL0     O84108   3.277   3.336   1.139  0.2128 -0.2186 -0.2812
  624MOL0     C84109   3.399   3.264   1.119 -0.1331  0.8096 -0.9950
  624MOL0     C84110   3.525   3.309   1.172  0.2981  1.0214  0.6696
  624MOL0     C84111   3.649   3.240   1.156 -0.3014 -0.5625 -0.4807
  624MOL0     C84112   3.644   3.120   1.085 -0.0809  0.7994  0.2488
  624MOL0     O84113   3.749   3.039   1.066  0.0811 -0.0653  0.7668
  624MOL0     C84114   3.884   3.088   1.104  0.3406 -0.1248  0.1022
  624MOL0     C84115   3.987   2.972   1.067  0.3487 -0.3151 -0.4704
  624MOL0     C84116   3.953   2.911   0.927 -0.5242  0.1866 -0.4921
  624MOL0     C84117   4.030   2.776   0.892 -0.2664 -0.1373  0.1676
  624MOL0     C84118   3.975   2.717   0.760  0.2252 -0.3498  0.3347
  624MOL0     C84119   4.043   2.576   0.744  0.1551  0.3192 -0.2453
  624MOL0     C84120   3.949   2.479   0.682 -0.5374 -0.1528  0.4806
  624MOL0     C84121   3.914   2.510   0.535  1.4246  0.8403 -0.6666
  624MOL0     N84122   4.033   2.534   0.457 -0.5297  0.0325 -0.7517
  624MOL0     C84123   4.121   2.437   0.428 -0.5653 -0.1034 -0.6300
  624MOL0     C84124   4.229   2.512   0.387 -0.5205 -0.7647  0.4742
  624MOL0     C84125   4.365   2.469   0.332  1.2633 -0.2958 -0.0057
  624MOL0     C84126   4.429   2.363   0.424  0.0972 -0.1255  0.5759
  624MOL0     C84127   4.466   2.405   0.570  0.3390  0.0267 -0.2870
  624MOL0     C84128   4.552   2.534   0.573  1.3957  0.1857  0.3850
  624MOL0     O84129   4.654   2.522   0.472 -0.0985  0.0419  0.4353
  624MOL0     C84130   4.759   2.440   0.495 -0.4485  0.2840 -0.2044
  624MOL0     C84131   4.810   2.411   0.631 -0.1809  0.5897  0.2259
  624MOL0     C84132   4.916   2.322   0.643  0.0502 -0.1532 -0.1607
  624MOL0     C84133   4.964   2.243   0.540 -0.6275  0.6540  0.5913
  624MOL0     C84134   5.077   2.154   0.554  0.0244  0.3099  0.2789
  624MOL0     O84135   5.112   2.121   0.683 -0.4152  0.1106 -0.2073
  624MOL0     C84136   5.220   2.038   0.697  0.4217  0.6542 -0.3624
  624MOL0     C84137   5.234   1.914   0.638  0.3456  0.3326 -0.5401
  624MOL0     C84138   5.347   1.832   0.658  0.2314 -0.7142 -0.0188
  624MOL0     C84139   5.447   1.880   0.740  0.5101  0.2144 -0.1011
  624MOL0     O84140   5.569   1.818   0.773 -0.0891  0.1694 -0.3301
  624MOL0     C84141   5.616   1.713   0.690 -0.0133  0.9427  0.4070
  624MOL0     C84142   5.739   1.640   0.751  0.7196 -0.3515  0.3780
  624MOL0     C84143   5.878   1.706   0.728 -0.1133 -0.0420 -0.2310
  624MOL0     C84144   5.980   1.631   0.809 -0.4968  0.5509 -0.3427
  624MOL0     C84145   6.121   1.674   0.767 -0.3010  0.2841  0.8712
  624MOL0     C84146   6.217   1.633   0.881  0.5510 -0.6790 -0.8884
  624MOL0     C84147   6.348   1.707   0.858 -0.1341 -0.4160  0.0777
  624MOL0     C84148   6.457   1.668   0.952  0.2243  0.0808 -0.4104
  624MOL0    Cl84149   6.503   1.496   0.921 -0.0480 -0.3319 -0.4084
  624MOL0     C84150   5.431   1.993   0.813 -0.1890 -0.1285 -0.5898
  624MOL0     C84151   5.316   2.065   0.794 -0.7365 -0.6106 -0.4086
  624MOL0     O84152   5.124   2.094   0.453 -0.8891 -0.2316  0.0058
  624MOL0     C84153   4.910   2.268   0.418  0.3877 -0.0338  0.5438
  624MOL0     C84154   4.813   2.361   0.396 -0.0916 -0.1558  0.5633
  624MOL0     N84155   4.203   2.648   0.395 -0.2069  0.3998  0.9976
  624MOL0     N84156   4.083   2.659   0.428 -0.3293 -0.5829  0.1201
  624MOL0     C84157   3.520   3.072   1.042  0.0879  0.3016  0.1481
  624MOL0     C84158   3.402   3.151   1.048 -0.4592 -0.6711 -0.8896
  624MOL0     C84159   3.129   3.511   1.121  0.2998  0.4724  0.7763
  624MOL0     C84160   3.056   3.463   1.226 -0.1290 -0.3164  0.0658
  624MOL0     C84161   2.925   3.515   1.253  0.0091  1.1645 -0.1875
  624MOL0     C84162   2.857   3.618   1.175 -0.3862 -0.1241  0.0678
  624MOL0     O84163   2.727   3.661   1.187 -0.0698 -0.0530  0.3735
  624MOL0     C84164   2.683   3.701   1.317 -0.3734  0.3698 -0.5333
  624MOL0     C84165   2.640   3.851   1.342 -0.8501  0.0902  0.3794
  624MOL0     C84166   2.555   3.899   1.220 -0.2204 -0.2658 -0.3470
  624MOL0     C84167   2.536   4.050   1.244 -0.1755 -0.3660  0.1422
  624MOL0     C84168   2.428   4.069   1.344  0.1610  0.0590  0.3707
  624MOL0     C84169   2.344   4.076   1.434 -0.5548 -0.5928  0.3992
  624MOL0     C84170   2.934   3.669   1.067  0.1399 -0.3075  0.1375
  624MOL0     C84171   3.066   3.612   1.036 -0.1374 -0.4981 -0.2032
  624MOL0     C84172   3.126   3.678   0.918  0.0133 -0.5837  0.2065
  624MOL0     H84173   3.518   3.410   1.209  0.0262  0.1521  3.1328
  624MOL0     H84174   3.737   3.286   1.200 -0.2381 -1.4028  0.3184
  624MOL0     H84175   3.910   3.181   1.053  0.1141  0.6558  1.3857
  624MOL0     H84176   3.900   3.104   1.211 -0.9234 -0.9683  0.4346
  624MOL0     H84177   3.985   2.898   1.147  0.0294 -0.0873 -0.2668
  624MOL0     H84178   4.084   3.021   1.055 -0.5820  1.1278 -2.7339
  624MOL0     H84179   3.977   2.983   0.848 -1.3504 -0.3554 -1.2519
  624MOL0     H84180   3.848   2.885   0.917 -0.1762 -1.6883  0.4008
  624MOL0     H84181   4.134   2.793   0.864 -0.2926 -3.6214 -2.7589
  624MOL0     H84182   4.017   2.703   0.973 -1.6531  0.7821  0.8181
  624MOL0     H84183   3.866   2.704   0.757 -0.0689  1.6924  0.7058
  624MOL0     H84184   4.007   2.779   0.676  1.4667 -0.0491  1.0041
  624MOL0     H84185   4.138   2.580   0.690  0.4223 -5.8627 -0.9367
  624MOL0     H84186   4.072   2.528   0.838 -1.4797 -1.0564 -0.3999
  624MOL0     H84187   3.860   2.478   0.746  0.1757 -1.8346  1.5351
  624MOL0     H84188   3.984   2.376   0.698 -1.2730 -0.1962  2.0699
  624MOL0     H84189   3.868   2.426   0.483  3.3625 -0.0294 -1.0662
  624MOL0     H84190   3.841   2.591   0.540 -1.8467 -1.9662  0.8067
  624MOL0     H84191   4.106   2.332   0.447  0.5499  0.2954  3.2664
  624MOL0     H84192   4.346   2.419   0.237  0.2734 -1.5620  0.8063
  624MOL0     H84193   4.430   2.556   0.327 -1.3611  1.7710 -0.5705
  624MOL0     H84194   4.367   2.273   0.432 -0.6031  0.1171 -1.4613
  624MOL0     H84195   4.522   2.325   0.381  1.1551 -0.9322  3.3546
  624MOL0     H84196   4.507   2.314   0.614 -1.7989 -0.7836  0.1568
  624MOL0     H84197   4.374   2.431   0.623  2.0144  1.0442  2.2857
  624MOL0     H84198   4.583   2.560   0.674 -0.6148 -0.3463  1.1951
  624MOL0     H84199   4.485   2.616   0.543  0.9494 -0.1997  0.3088
  624MOL0     H84200   4.783   2.471   0.718 -0.3026  2.3524 -0.9681
  624MOL0     H84201   4.949   2.318   0.747 -2.0787 -0.1633  0.5700
  624MOL0     H84202   5.147   1.882   0.580 -0.3982  0.3374  0.5509
  624MOL0     H84203   5.363   1.732   0.620  1.6835 -0.8325  0.8599
  624MOL0     H84204   5.540   1.637   0.669  0.8242  0.0891  0.4064
  624MOL0     H84205   5.645   1.754   0.593 -1.8674  1.7468  0.1406
  624MOL0     H84206   5.727   1.609   0.855  2.3439 -0.2019  0.6411
  624MOL0     H84207   5.743   1.552   0.687 -2.9811  0.0794 -0.6351
  624MOL0     H84208   5.900   1.707   0.621 -0.3220  0.6100 -0.2692
  624MOL0     H84209   5.879   1.807   0.770 -1.2852 -0.7449  1.5825
  624MOL0     H84210   5.976   1.522   0.795  0.9464  0.0479  2.5431
  624MOL0     H84211   5.975   1.650   0.916  0.5478  0.1088 -0.2027
  624MOL0     H84212   6.118   1.782   0.752 -2.9824  0.2612  0.8101
  624MOL0     H84213   6.150   1.633   0.669 -1.4878  1.0803  0.1599
  624MOL0     H84214   6.187   1.669   0.980  2.7577  2.5606 -1.2400
  624MOL0     H84215   6.224   1.524   0.888 -0.5850 -0.7410 -0.4905
  624MOL0     H84216   6.322   1.812   0.874  0.1309 -0.5686  1.6874
  624MOL0     H84217   6.387   1.692   0.757 -1.6276 -0.9178 -0.4514
  624MOL0     H84218   6.545   1.732   0.945  0.1581  0.1359 -0.7472
  624MOL0     H84219   6.409   1.667   1.051 -1.1955  1.7519 -1.0323
  624MOL0     H84220   5.509   2.031   0.878 -2.6695  0.8734  2.0487
  624MOL0     H84221   5.293   2.157   0.846 -1.0643  0.4247 -2.2693
  624MOL0     H84222   4.946   2.218   0.328 -0.7601 -1.8579  1.0659
  624MOL0     H84223   4.786   2.362   0.291  3.5498  2.5265 -0.5616
  624MOL0     H84224   3.512   2.975   0.993  3.0877 -0.8237  1.6747
  624MOL0     H84225   3.308   3.108   1.015 -1.7949  1.6675 -0.3847
  624MOL0     H84226   3.095   3.400   1.305  1.6811  0.4832 -0.1465
  624MOL0     H84227   2.871   3.461   1.331  1.0283  1.3493  0.6581
  624MOL0     H84228   2.765   3.688   1.387 -0.7914 -1.1601 -0.3033
  624MOL0     H84229   2.606   3.640   1.364  0.8501 -0.7843  0.0072
  624MOL0     H84230   2.730   3.912   1.336 -3.0469  3.7236  1.1472
  624MOL0     H84231   2.589   3.856   1.438 -1.1575 -1.3106  0.3091
  624MOL0     H84232   2.462   3.841   1.220  0.9941 -2.2902  0.7502
  624MOL0     H84233   2.599   3.875   1.123  2.2022  0.8929  0.3913
  624MOL0     H84234   2.626   4.104   1.275  0.4793 -1.9291  1.1170
  624MOL0     H84235   2.498   4.086   1.148  0.1930  2.2934  0.9038
  624MOL0     H84236   2.261   4.092   1.500 -1.0894  1.0143 -0.5820
  624MOL0     H84237   2.879   3.736   1.001 -0.5767  1.4213  2.3826
  624MOL0     H84238   3.228   3.712   0.934  0.4622 -2.0516  0.6559
  624MOL0     H84239   3.123   3.621   0.824  1.2391  1.9410 -1.4539
  624MOL0     H84240   3.085   3.778   0.902 -0.4827 -0.9532 -0.9167
  625MOL0     O84241   0.754   2.793   9.309 -0.0559  0.2293  0.2733
  625MOL0     C84242   0.724   2.864   9.214  0.0348 -0.2893 -0.7609
  625MOL0     O84243   0.816   2.924   9.131  0.1042 -0.3059 -0.1550
  625MOL0     C84244   0.945   2.927   9.176  0.8895  0.3837  0.8994
  625MOL0     C84245   1.027   2.815   9.188  0.0656  0.1917 -0.1538
  625MOL0     C84246   1.149   2.819   9.256  1.2043 -0.2369 -0.8962
  625MOL0     C84247   1.194   2.935   9.313 -0.1307 -0.4220 -0.0418
  625MOL0     O84248   1.301   2.925   9.403 -0.7070 -0.1569 -0.0013
  625MOL0     C84249   1.361   3.042   9.458  0.1682 -0.4230 -0.0585
  625MOL0     C84250   1.476   2.999   9.536 -0.0866 -0.2371  0.0743
  625MOL0     C84251   1.540   3.107   9.624  0.0585 -0.6006  0.1513
  625MOL0     C84252   1.690   3.088   9.659 -0.3824  1.1741  0.1564
  625MOL0     C84253   1.720   3.160   9.790  0.1952  0.3369  0.0016
  625MOL0     C84254   1.865   3.134   9.842  2.0617 -0.4307 -0.1950
  625MOL0     C84255   1.876   3.180   9.989  0.3747  0.5562 -0.8073
  625MOL0     C84256   2.026   3.185  10.035 -0.3662  0.3788 -0.5272
  625MOL0     N84257   2.091   3.051  10.021 -0.5909 -0.0233 -0.5514
  625MOL0     C84258   2.208   3.019   9.956  0.2216 -0.0237  0.1714
  625MOL0     C84259   2.245   2.893   9.996 -0.1704 -0.0609  0.7223
  625MOL0     C84260   2.351   2.805   9.952 -0.5152  0.5108 -0.6375
  625MOL0     C84261   2.481   2.855  10.011  0.0893 -0.5302 -0.0037
  625MOL0     C84262   2.480   2.887  10.158 -0.4932  0.1479 -0.5096
  625MOL0     C84263   2.616   2.934  10.214  0.6740  0.3300  0.5823
  625MOL0     O84264   2.713   2.833  10.190 -0.2683  0.2037  0.2175
  625MOL0     C84265   2.847   2.876  10.169 -0.0470 -0.1572  0.3727
  625MOL0     C84266   2.884   3.011  10.184 -0.0152 -0.7300  0.3260
  625MOL0     C84267   3.015   3.051  10.162 -0.2964  0.1039  1.0716
  625MOL0     C84268   3.119   2.959  10.114  0.1547 -0.6403  0.8966
  625MOL0     C84269   3.262   3.002  10.103  0.2067  0.1393 -0.3903
  625MOL0     O84270   3.296   3.117  10.170 -0.0886  0.5700 -0.3697
  625MOL0     C84271   3.404   3.185  10.124 -0.1234 -0.4175 -0.2623
  625MOL0     C84272   3.393   3.261   9.998  0.4014 -1.2366 -0.7959
  625MOL0     C84273   3.494   3.351   9.966 -0.6156  0.2035 -0.6009
  625MOL0     C84274   3.611   3.362  10.053 -0.6415 -0.0314  0.4882
  625MOL0     O84275   3.714   3.442  10.015  0.1379  0.4008 -0.0851
  625MOL0     C84276   3.843   3.415  10.065  0.2907  0.1665  0.1544
  625MOL0     C84277   3.967   3.492  10.013  0.9310  0.5974  0.3057
  625MOL0     C84278   4.096   3.398   9.992  0.5071 -0.1476  0.1263
  625MOL0     C84279   4.173   3.379  10.123 -0.4723 -0.0357  0.5802
  625MOL0     C84280   4.277   3.273  10.102 -0.3978  0.0347  0.1232
  625MOL0     C84281   4.378   3.251  10.213 -0.4960 -0.8300 -1.5683
  625MOL0     C84282   4.317   3.214  10.355 -0.4085  0.0528 -0.0237
  625MOL0     C84283   4.432   3.179  10.455  0.0753  0.2957  0.9709
  625MOL0    Cl84284   4.527   3.330  10.480 -0.3028  0.0309  0.1191
  625MOL0     C84285   3.612   3.294  10.178 -0.5297  0.8277  0.3904
  625MOL0     C84286   3.501   3.211  10.206  0.4333 -0.8133  0.7688
  625MOL0     O84287   3.339   2.937  10.035  0.7660 -0.4611 -0.2470
  625MOL0     C84288   3.073   2.831  10.085  0.4681 -0.2995  0.5881
  625MOL0     C84289   2.947   2.791  10.117  0.2121  0.5491 -0.5841
  625MOL0     N84290   2.143   2.847  10.082  0.2374 -0.6456  0.2275
  625MOL0     N84291   2.059   2.945  10.094  0.1634  0.4659 -1.1683
  625MOL0     C84292   1.116   3.049   9.299  0.3896 -0.6467  0.2386
  625MOL0     C84293   0.989   3.046   9.237 -0.0877 -0.0708  0.0370
  625MOL0     C84294   0.580   2.887   9.194  0.0473  0.9352  0.1170
  625MOL0     C84295   0.542   2.962   9.080  0.1972  0.4060 -0.3809
  625MOL0     C84296   0.405   2.993   9.054  0.0473  0.7389 -1.0747
  625MOL0     C84297   0.308   2.961   9.151 -0.5153  0.1520  0.6200
  625MOL0     O84298   0.176   2.998   9.113  0.2813 -0.2998  0.4545
  625MOL0     C84299   0.067   2.982   9.195 -0.1875 -0.3524 -0.6915
  625MOL0     C84300  -0.032   3.094   9.170 -0.1843 -0.3283  0.2634
  625MOL0     C84301  -0.140   3.048   9.073 -0.0473 -0.1305 -0.5615
  625MOL0     C84302  -0.226   3.175   9.043 -0.3813  0.1742 -0.2193
  625MOL0     C84303  -0.332   3.133   8.953  0.0254  0.3168 -0.8620
  625MOL0     C84304  -0.422   3.093   8.883  0.1945 -0.2957  0.1294
  625MOL0     C84305   0.342   2.881   9.259 -0.0743 -0.2499  0.0418
  625MOL0     C84306   0.478   2.842   9.285  1.3659 -1.0328  0.0125
  625MOL0     C84307   0.492   2.758   9.410 -0.6555  0.2747 -0.3260
  625MOL0     H84308   0.987   2.716   9.168 -2.1990  1.6367 -3.7518
  625MOL0     H84309   1.203   2.727   9.274 -1.7376 -1.6652  1.4316
  625MOL0     H84310   1.406   3.105   9.380  1.0776 -2.4442 -1.2509
  625MOL0     H84311   1.290   3.099   9.519  1.3021 -0.7075  1.5963
  625MOL0     H84312   1.559   2.970   9.472 -0.9276 -2.2827 -0.1588
  625MOL0     H84313   1.448   2.911   9.595  2.1291 -1.9028 -1.2392
  625MOL0     H84314   1.487   3.104   9.720  2.3074  2.6035  1.6948
  625MOL0     H84315   1.523   3.210   9.590 -1.3013 -0.9637 -0.3150
  625MOL0     H84316   1.711   2.980   9.655  0.6428  1.3933 -1.5066
  625MOL0     H84317   1.748   3.137   9.580  0.2705  1.0469  0.5463
  625MOL0     H84318   1.690   3.265   9.784  1.7815  0.7360 -1.8249
  625MOL0     H84319   1.656   3.107   9.862 -3.8332  2.7755 -1.4562
  625MOL0     H84320   1.886   3.027   9.842  1.8173 -0.4766 -0.3810
  625MOL0     H84321   1.939   3.190   9.784  0.0105  3.0121  0.2291
  625MOL0     H84322   1.829   3.107  10.056  2.0800 -0.5178 -0.7200
  625MOL0     H84323   1.828   3.277   9.998  0.0316  0.1974  1.8693
  625MOL0     H84324   2.077   3.251   9.965 -0.5994 -0.3149 -1.3705
  625MOL0     H84325   2.034   3.237  10.131 -0.3034 -0.1722 -0.2350
  625MOL0     H84326   2.264   3.078   9.884 -1.0172  1.2451  0.1960
  625MOL0     H84327   2.343   2.703   9.988 -0.6202  0.9669  0.6768
  625MOL0     H84328   2.362   2.794   9.844 -1.9579 -0.6343 -0.6807
  625MOL0     H84329   2.562   2.786   9.986  0.8423  0.3396  0.0269
  625MOL0     H84330   2.503   2.950   9.962 -0.0425  1.4109  3.4177
  625MOL0     H84331   2.448   2.803  10.221 -0.0416  0.6553  0.4125
  625MOL0     H84332   2.410   2.969  10.177  0.1097  0.9761 -1.7585
  625MOL0     H84333   2.607   2.956  10.321  1.9956  1.7281  0.4441
  625MOL0     H84334   2.628   3.036  10.178  0.3679  0.3406  0.5041
  625MOL0     H84335   2.818   3.094  10.209  1.9640  1.1534 -0.3739
  625MOL0     H84336   3.044   3.153  10.186  0.3639  0.1001  0.3343
  625MOL0     H84337   3.304   3.252   9.937  1.7089 -0.1906 -2.9507
  625MOL0     H84338   3.488   3.397   9.868  1.7359  1.9686 -0.0022
  625MOL0     H84339   3.833   3.454  10.167 -0.2622 -0.3787  0.3157
  625MOL0     H84340   3.856   3.306  10.064  0.2564  0.1648 -0.8812
  625MOL0     H84341   3.935   3.527   9.915  0.6544 -1.8692 -0.5555
  625MOL0     H84342   3.986   3.584  10.070 -1.0017  1.5168 -0.4329
  625MOL0     H84343   4.074   3.297   9.955  0.8243 -0.8302  1.7063
  625MOL0     H84344   4.163   3.444   9.919  0.4401 -2.2245 -1.3599
  625MOL0     H84345   4.106   3.355  10.206  0.4946  0.3388  1.4887
  625MOL0     H84346   4.219   3.474  10.151  0.9820  0.6176 -3.3559
  625MOL0     H84347   4.330   3.308  10.013  0.7914 -0.7045  0.5126
  625MOL0     H84348   4.237   3.174  10.079  1.4744 -1.2617  2.0247
  625MOL0     H84349   4.446   3.171  10.183  0.6669 -0.0892 -0.9654
  625MOL0     H84350   4.444   3.338  10.218  0.6085 -1.6945  1.9001
  625MOL0     H84351   4.245   3.132  10.345 -0.3252  0.0633 -0.7232
  625MOL0     H84352   4.266   3.302  10.394  0.6410  0.3524  0.7253
  625MOL0     H84353   4.386   3.131  10.542 -1.6597  0.0534 -0.0270
  625MOL0     H84354   4.493   3.097  10.418  1.6656  2.3263 -1.2422
  625MOL0     H84355   3.686   3.318  10.253  0.7455 -3.8617  0.9318
  625MOL0     H84356   3.495   3.166  10.305 -2.9066  2.0447  2.0926
  625MOL0     H84357   3.151   2.770  10.040  1.0587 -0.2448  1.5078
  625MOL0     H84358   2.932   2.685  10.097 -0.2753  0.5264 -0.1114
  625MOL0     H84359   1.153   3.140   9.345  1.4161 -0.8261 -0.2176
  625MOL0     H84360   0.925   3.133   9.245 -0.8116 -0.7575  2.7644
  625MOL0     H84361   0.617   2.984   9.004 -0.2689  0.2459 -0.8884
  625MOL0     H84362   0.376   3.065   8.979  0.0096  0.2974 -1.4845
  625MOL0     H84363   0.102   2.996   9.298 -0.8755  1.8766 -0.7050
  625MOL0     H84364   0.021   2.884   9.175 -3.9195  1.1648 -0.4673
  625MOL0     H84365   0.019   3.182   9.130  1.2500  0.7247  3.9835
  625MOL0     H84366  -0.063   3.119   9.272  2.2845  2.0853  0.5544
  625MOL0     H84367  -0.209   2.974   9.114  0.1658  0.0455  0.1330
  625MOL0     H84368  -0.091   3.008   8.983 -0.0088  1.2039 -1.1589
  625MOL0     H84369  -0.256   3.216   9.140  2.2985 -2.2632  1.7965
  625MOL0     H84370  -0.170   3.255   8.994 -1.5305 -0.5222 -2.8715
  625MOL0     H84371  -0.500   3.045   8.829  0.5738 -0.7360 -0.0344
  625MOL0     H84372   0.258   2.849   9.319 -3.2895  0.8262 -3.4946
  625MOL0     H84373   0.539   2.821   9.486  0.8861  1.9045 -2.5035
  625MOL0     H84374   0.394   2.723   9.444 -0.4738 -0.4335 -0.5182
  625MOL0     H84375   0.555   2.672   9.383 -0.7769 -0.0407  0.3723
  626MOL0     O84376   7.539   7.499   3.167  0.1100 -0.1093 -0.3466
  626MOL0     C84377   7.456   7.470   3.251 -0.1432  0.0785  0.3416
  626MOL0     O84378   7.477   7.418   3.378  0.7972 -0.1655 -0.6117
  626MOL0     C84379   7.611   7.404   3.399 -0.2850 -0.4318 -0.4108
  626MOL0     C84380   7.674   7.285   3.360  0.3658  0.6474  0.1173
  626MOL0     C84381   7.801   7.260   3.395  0.6390 -0.7687 -0.0406
  626MOL0     C84382   7.873   7.352   3.477  0.2474  0.3695 -0.4031
  626MOL0     O84383   7.999   7.326   3.516 -0.1183  0.4823  1.0112
  626MOL0     C84384   7.999   7.297   3.651 -0.6683 -0.4760  0.1847
  626MOL0     C84385   8.145   7.294   3.701 -0.2752  0.4659 -0.5965
  626MOL0     C84386   8.192   7.444   3.712  0.7052  0.4317  0.1255
  626MOL0     C84387   8.330   7.450   3.764  0.6219 -0.3939 -0.7785
  626MOL0     C84388   8.377   7.601   3.786  0.3386 -0.9879  0.8387
  626MOL0     C84389   8.531   7.601   3.798  0.3182  0.0052  0.5359
  626MOL0     C84390   8.570   7.726   3.869  0.0507  0.0759  0.1823
  626MOL0     C84391   8.551   7.868   3.807 -0.4443 -0.6470  0.1155
  626MOL0     N84392   8.655   7.898   3.712  0.0408 -0.5371  0.4144
  626MOL0     C84393   8.786   7.903   3.755 -0.4385  0.2020 -0.5258
  626MOL0     C84394   8.853   7.912   3.638  0.4675  0.2582  0.3316
  626MOL0     C84395   8.999   7.934   3.616  0.2357  0.0401 -0.3256
  626MOL0     C84396   9.052   8.025   3.731  0.0766 -0.1694  0.6411
  626MOL0     C84397   9.193   8.073   3.696  0.0514  0.1725 -1.3121
  626MOL0     C84398   9.279   7.951   3.675  0.0985  0.3891 -0.4081
  626MOL0     O84399   9.410   7.991   3.720 -0.1815  0.3232  0.3069
  626MOL0     C84400   9.525   7.929   3.677  0.4076  0.3286  0.2133
  626MOL0     C84401   9.531   7.819   3.601 -0.1562  0.6491 -0.2832
  626MOL0     C84402   9.658   7.778   3.551 -0.1091 -0.3925 -0.1638
  626MOL0     C84403   9.780   7.833   3.600 -0.2894 -0.4237 -0.3018
  626MOL0     C84404   9.910   7.773   3.558  0.1052 -0.0437 -0.4857
  626MOL0     O84405  10.026   7.820   3.620  0.4365 -0.2516 -0.0078
  626MOL0     C84406  10.142   7.767   3.600 -0.7877  0.3637  0.2497
  626MOL0     C84407  10.171   7.634   3.590  0.8108 -0.6774 -0.1274
  626MOL0     C84408  10.299   7.580   3.570  0.4286 -0.8309 -0.3510
  626MOL0     C84409  10.406   7.680   3.564 -0.0392  0.8684 -0.0429
  626MOL0     O84410  10.542   7.647   3.547  0.4404 -0.3012 -0.3306
  626MOL0     C84411  10.579   7.514   3.563  0.3369 -0.3072 -0.4017
  626MOL0     C84412  10.726   7.499   3.522 -0.4471 -0.0013 -0.3019
  626MOL0     C84413  10.763   7.362   3.451  0.2883  0.2057 -0.0190
  626MOL0     C84414  10.914   7.358   3.409 -0.6247 -0.5136 -0.3275
  626MOL0     C84415  10.978   7.218   3.438  0.8119 -0.0888  0.6416
  626MOL0     C84416  11.123   7.212   3.384 -0.1362 -0.6153  0.1996
  626MOL0     C84417  11.239   7.286   3.459 -0.0276 -0.2336 -0.1527
  626MOL0     C84418  11.361   7.308   3.376  0.2738 -0.0885 -0.2819
  626MOL0    Cl84419  11.494   7.375   3.473 -0.1740  0.0533  0.2578
  626MOL0     C84420  10.379   7.815   3.581  0.4672  0.2602  0.4808
  626MOL0     C84421  10.251   7.853   3.602 -0.7656  0.3166 -0.0516
  626MOL0     O84422   9.906   7.689   3.468  0.4319  0.3109 -0.2309
  626MOL0     C84423   9.776   7.946   3.695  0.1794  0.2588  0.2918
  626MOL0     C84424   9.644   7.992   3.719 -0.3672 -0.8571  0.4652
  626MOL0     N84425   8.760   7.909   3.531 -0.2673  0.3746  0.2598
  626MOL0     N84426   8.645   7.905   3.573 -0.3356 -0.2416  0.0409
  626MOL0     C84427   7.806   7.467   3.520  0.5143  0.0318 -0.1282
  626MOL0     C84428   7.669   7.493   3.487  1.0471 -0.5349 -0.1949
  626MOL0     C84429   7.307   7.480   3.229 -0.0822 -0.0658 -0.6919
  626MOL0     C84430   7.221   7.420   3.325 -0.7327  0.5427  0.3820
  626MOL0     C84431   7.087   7.426   3.312  1.0746  0.5724  0.0200
  626MOL0     C84432   7.035   7.494   3.201 -0.2545 -0.0893 -0.7948
  626MOL0     O84433   6.908   7.532   3.191  0.3046 -0.8463  0.8362
  626MOL0     C84434   6.817   7.515   3.300 -0.6018  1.3765 -0.3094
  626MOL0     C84435   6.696   7.597   3.266 -0.0712 -0.7574 -0.0370
  626MOL0     C84436   6.609   7.619   3.387  0.1980 -0.4656 -0.1211
  626MOL0     C84437   6.566   7.489   3.454 -0.0457  0.1708  0.0037
  626MOL0     C84438   6.490   7.406   3.361  0.1678  0.9482  0.1674
  626MOL0     C84439   6.438   7.335   3.273  0.0007  0.5266 -0.5056
  626MOL0     C84440   7.120   7.529   3.095 -0.3952 -0.5347 -0.4231
  626MOL0     C84441   7.257   7.521   3.109  0.7668  0.4567 -0.3091
  626MOL0     C84442   7.347   7.569   2.992  0.6487  0.5048  1.0528
  626MOL0     H84443   7.611   7.218   3.303  0.9429  1.3648 -1.4414
  626MOL0     H84444   7.845   7.166   3.363  0.2311 -0.7874 -0.5438
  626MOL0     H84445   7.948   7.366   3.719 -1.1615 -0.0693 -0.5788
  626MOL0     H84446   7.950   7.200   3.667  2.0012 -1.5306  3.0588
  626MOL0     H84447   8.205   7.233   3.632 -0.7852 -1.3112  0.4821
  626MOL0     H84448   8.145   7.249   3.800 -0.1992  0.0546 -0.7784
  626MOL0     H84449   8.131   7.505   3.780  0.7401  0.1144  0.4464
  626MOL0     H84450   8.185   7.486   3.612 -0.7463 -1.0846 -0.4373
  626MOL0     H84451   8.328   7.404   3.864  0.0376  2.8982  0.8681
  626MOL0     H84452   8.403   7.403   3.698 -1.4735  0.0245 -3.5441
  626MOL0     H84453   8.352   7.661   3.699  0.8053 -1.1815  0.5678
  626MOL0     H84454   8.328   7.652   3.870 -1.9872  1.5709 -1.8392
  626MOL0     H84455   8.566   7.514   3.854  2.7968 -0.0026 -0.8736
  626MOL0     H84456   8.581   7.596   3.702 -1.3873 -1.0349 -0.3385
  626MOL0     H84457   8.678   7.716   3.884  0.7624 -1.0023 -4.2441
  626MOL0     H84458   8.522   7.723   3.967  2.4883  0.9240  1.5134
  626MOL0     H84459   8.448   7.886   3.774 -0.3607  0.1258  0.2463
  626MOL0     H84460   8.571   7.944   3.883  0.3718 -0.0447 -0.6764
  626MOL0     H84461   8.823   7.889   3.856  2.5473  0.2614 -1.5196
  626MOL0     H84462   9.046   7.836   3.622 -0.2572 -0.1495  0.7545
  626MOL0     H84463   9.013   7.979   3.517 -0.7341 -1.6453 -1.2992
  626MOL0     H84464   8.982   8.109   3.741  0.0940 -0.0323 -0.2576
  626MOL0     H84465   9.051   7.975   3.828 -0.6116  0.5693  1.0285
  626MOL0     H84466   9.234   8.142   3.770  1.4425 -0.0428 -1.8513
  626MOL0     H84467   9.188   8.124   3.600 -2.4307  1.5615 -0.5390
  626MOL0     H84468   9.279   7.936   3.567  0.6318 -3.6932 -0.0193
  626MOL0     H84469   9.247   7.858   3.723  1.1699 -0.3563 -1.0894
  626MOL0     H84470   9.432   7.785   3.572 -1.4132  2.2944  1.8116
  626MOL0     H84471   9.659   7.694   3.483 -1.1446 -1.9386  1.6421
  626MOL0     H84472  10.085   7.573   3.618 -0.7367  1.3481 -0.2325
  626MOL0     H84473  10.318   7.474   3.574  6.1196 -0.1705 -1.3948
  626MOL0     H84474  10.568   7.479   3.666 -0.8790  1.9815  0.3154
  626MOL0     H84475  10.517   7.450   3.499 -1.5676  0.3830  0.6745
  626MOL0     H84476  10.752   7.574   3.447  0.5799 -0.8349 -0.8202
  626MOL0     H84477  10.789   7.515   3.610 -1.7080  2.1188  0.2730
  626MOL0     H84478  10.747   7.283   3.525  0.7826  1.9084  2.0085
  626MOL0     H84479  10.700   7.348   3.363 -2.1623 -2.3482  1.9654
  626MOL0     H84480  10.961   7.430   3.476 -0.2408  0.4752 -1.6234
  626MOL0     H84481  10.935   7.389   3.306  2.1562 -2.4225 -0.4484
  626MOL0     H84482  10.916   7.150   3.378 -0.1240  1.5569 -0.3523
  626MOL0     H84483  10.961   7.196   3.543 -3.8148 -2.4694 -0.3166
  626MOL0     H84484  11.132   7.103   3.391 -2.0544 -0.8295 -0.1611
  626MOL0     H84485  11.117   7.241   3.279 -0.2815 -0.2427  0.3104
  626MOL0     H84486  11.260   7.218   3.543  2.4886 -0.0599 -0.5393
  626MOL0     H84487  11.204   7.377   3.509 -0.4630  0.5672 -1.8623
  626MOL0     H84488  11.385   7.216   3.323 -1.8378 -0.7919 -0.1290
  626MOL0     H84489  11.341   7.375   3.291 -0.3363 -0.9304 -0.8156
  626MOL0     H84490  10.465   7.881   3.570  2.7064 -2.1910  2.0550
  626MOL0     H84491  10.229   7.960   3.602  0.9239  0.7128 -1.9020
  626MOL0     H84492   9.866   7.990   3.737  1.7547 -1.7419 -0.7559
  626MOL0     H84493   9.632   8.083   3.778  1.8577  0.5852 -1.1253
  626MOL0     H84494   7.853   7.540   3.586 -1.0225  1.3123 -0.3757
  626MOL0     H84495   7.611   7.577   3.524 -0.7337 -1.3534 -1.0361
  626MOL0     H84496   7.260   7.367   3.411  0.2470 -2.4180 -1.7220
  626MOL0     H84497   7.021   7.374   3.381  0.2957 -0.8829 -1.7337
  626MOL0     H84498   6.859   7.545   3.397 -0.7425 -1.2351  0.6452
  626MOL0     H84499   6.800   7.408   3.312 -0.4153  1.3169 -0.5685
  626MOL0     H84500   6.639   7.559   3.180 -0.1983 -0.6224 -0.0122
  626MOL0     H84501   6.733   7.693   3.229 -2.8113 -0.5894 -2.7859
  626MOL0     H84502   6.516   7.666   3.353  2.4348  1.9995 -3.5262
  626MOL0     H84503   6.659   7.680   3.462 -0.9188  0.9239 -0.4540
  626MOL0     H84504   6.661   7.445   3.486  2.3786  1.8803 -4.0843
  626MOL0     H84505   6.495   7.508   3.535  0.6309  1.3738  0.3373
  626MOL0     H84506   6.402   7.273   3.193  0.8078  0.4864 -0.8512
  626MOL0     H84507   7.080   7.581   3.009 -1.3983  0.4217  0.5861
  626MOL0     H84508   7.406   7.657   3.019  0.4168  0.8651  0.4218
  626MOL0     H84509   7.409   7.489   2.951 -2.6489 -0.7740 -2.0717
  626MOL0     H84510   7.289   7.596   2.903  1.5137 -0.4601  0.1564
  627MOL0     O84511  10.033  10.432   1.305  0.5749  0.5688  0.3839
  627MOL0     C84512  10.006  10.466   1.420 -0.5309 -0.2236 -1.1243
  627MOL0     O84513  10.082  10.549   1.498  0.2092 -0.2710  0.1214
  627MOL0     C84514  10.214  10.578   1.467 -0.0972 -0.1780 -0.4812
  627MOL0     C84515  10.249  10.620   1.340 -0.7920  0.3021 -0.0117
  627MOL0     C84516  10.381  10.663   1.311  0.2136  0.5635  0.2799
  627MOL0     C84517  10.483  10.666   1.412 -0.2273 -0.1047  0.2790
  627MOL0     O84518  10.609  10.707   1.397 -0.1856 -0.6035 -0.2615
  627MOL0     C84519  10.638  10.777   1.275  0.0701  0.7521  0.7470
  627MOL0     C84520  10.781  10.812   1.283  0.4974  0.0291  0.0386
  627MOL0     C84521  10.829  10.860   1.144 -0.0535  0.7266 -0.1177
  627MOL0     C84522  10.968  10.903   1.150 -0.4651  0.2189  0.1931
  627MOL0     C84523  11.030  10.948   1.018 -0.0828 -0.3878 -0.7080
  627MOL0     C84524  11.162  11.015   1.033 -1.0754  0.1750  0.2796
  627MOL0     C84525  11.212  11.070   0.895  0.9728  0.1672  0.4878
  627MOL0     C84526  11.343  11.150   0.903  0.0991  0.1789  0.5162
  627MOL0     N84527  11.359  11.243   0.792  0.0246 -0.3665  0.2855
  627MOL0     C84528  11.392  11.381   0.799 -1.2203  0.4652  0.1711
  627MOL0     C84529  11.375  11.433   0.677  0.2239  0.1578  0.2533
  627MOL0     C84530  11.388  11.576   0.633  0.6684  0.9425 -0.0358
  627MOL0     C84531  11.286  11.673   0.697  0.1437  0.2322 -0.0310
  627MOL0     C84532  11.147  11.623   0.699  0.0792 -0.2017  0.0945
  627MOL0     C84533  11.105  11.587   0.555 -0.1203 -0.3352 -0.2731
  627MOL0     O84534  10.961  11.574   0.559  0.0736  0.0463  0.2358
  627MOL0     C84535  10.898  11.474   0.635  0.1760  0.4134  0.1134
  627MOL0     C84536  10.952  11.351   0.674 -1.0127 -0.4635 -0.8441
  627MOL0     C84537  10.874  11.262   0.744 -1.3124  0.4604  0.0602
  627MOL0     C84538  10.730  11.277   0.761  0.4401  0.1143  0.3562
  627MOL0     C84539  10.651  11.174   0.820 -0.1761 -0.0009 -0.5788
  627MOL0     O84540  10.518  11.199   0.832 -0.3561  0.1361 -0.0053
  627MOL0     C84541  10.442  11.125   0.915 -1.1472 -0.7800 -0.2993
  627MOL0     C84542  10.401  11.188   1.035 -0.6369  0.8054 -0.5032
  627MOL0     C84543  10.309  11.128   1.121 -0.3051 -0.3581 -0.1752
  627MOL0     C84544  10.269  10.997   1.100  0.7476 -0.4208 -0.3475
  627MOL0     O84545  10.194  10.921   1.189 -0.0646 -0.2157 -0.3647
  627MOL0     C84546  10.077  10.981   1.239 -0.5359 -0.8437 -0.0329
  627MOL0     C84547   9.991  10.865   1.295 -0.2851  0.4059 -0.5609
  627MOL0     C84548   9.851  10.916   1.357  0.1375 -0.6871 -0.3421
  627MOL0     C84549   9.761  10.805   1.408  0.0757  0.8434 -0.3800
  627MOL0     C84550   9.610  10.826   1.440 -0.2104 -0.4728 -0.1662
  627MOL0     C84551   9.542  10.705   1.507  0.6786  0.4054 -0.4485
  627MOL0     C84552   9.391  10.731   1.516  0.7501  0.5129 -0.3419
  627MOL0     C84553   9.304  10.611   1.574  0.1158 -1.0154  0.1785
  627MOL0    Cl84554   9.132  10.647   1.545 -0.1530  0.5113  0.1705
  627MOL0     C84555  10.300  10.943   0.975  0.0040  0.5375 -0.5368
  627MOL0     C84556  10.394  11.004   0.890  0.9680 -0.6942 -0.4193
  627MOL0     O84557  10.710  11.068   0.854  0.2036 -0.1484 -0.3150
  627MOL0     C84558  10.681  11.408   0.724 -0.5092 -0.6150  0.6770
  627MOL0     C84559  10.760  11.507   0.653  0.4398 -0.0620  0.7775
  627MOL0     N84560  11.345  11.326   0.592 -0.0169 -0.3299 -0.6483
  627MOL0     N84561  11.329  11.220   0.663  0.1554 -0.9635  0.3352
  627MOL0     C84562  10.448  10.617   1.544  0.4425 -0.9741  0.0458
  627MOL0     C84563  10.319  10.566   1.564  0.1417 -0.0331 -0.0100
  627MOL0     C84564   9.881  10.420   1.485 -0.1381 -0.9012 -0.2828
  627MOL0     C84565   9.845  10.460   1.618 -0.7857 -0.3877 -0.0853
  627MOL0     C84566   9.720  10.425   1.673  0.6872  0.2216 -0.1546
  627MOL0     C84567   9.629  10.337   1.607 -0.6063 -0.0287 -0.3990
  627MOL0     O84568   9.507  10.310   1.665 -1.2354  0.6800 -0.5217
  627MOL0     C84569   9.414  10.220   1.603 -1.0645 -0.5699 -0.2530
  627MOL0     C84570   9.283  10.210   1.688  0.0176 -0.2977 -0.6947
  627MOL0     C84571   9.162  10.156   1.605 -0.0428 -0.2288 -0.1132
  627MOL0     C84572   9.025  10.195   1.663  0.4832  0.6814 -0.5141
  627MOL0     C84573   9.019  10.153   1.804 -0.8771  0.3435 -0.1056
  627MOL0     C84574   9.020  10.123   1.923 -0.3586 -0.7629  0.2027
  627MOL0     C84575   9.671  10.298   1.475  0.8012 -0.0687 -0.9112
  627MOL0     C84576   9.793  10.337   1.416 -0.0131  0.9475 -0.0298
  627MOL0     C84577   9.819  10.270   1.282  0.5166  0.3370  0.4249
  627MOL0     H84578  10.186  10.619   1.252 -0.2708  0.7726 -0.3986
  627MOL0     H84579  10.390  10.690   1.206 -2.0698 -0.1963 -0.1740
  627MOL0     H84580  10.625  10.719   1.183 -0.1345  0.2217  1.1056
  627MOL0     H84581  10.589  10.874   1.268  0.4249  0.8569 -0.5261
  627MOL0     H84582  10.837  10.727   1.323  2.4667  1.6849  0.9949
  627MOL0     H84583  10.788  10.899   1.349 -2.7547 -0.8185  1.7454
  627MOL0     H84584  10.775  10.953   1.125  0.0104  0.8055  0.0928
  627MOL0     H84585  10.812  10.778   1.074  3.0374  0.4744 -0.7103
  627MOL0     H84586  10.976  10.981   1.226 -1.0424  0.9165 -0.4511
  627MOL0     H84587  11.032  10.819   1.181 -0.1789 -0.7427 -2.7497
  627MOL0     H84588  11.034  10.861   0.952 -1.8506  0.2594 -1.7292
  627MOL0     H84589  10.965  11.020   0.969  0.0179  0.8793  0.9265
  627MOL0     H84590  11.139  11.104   1.093 -0.7494  1.5595 -1.5604
  627MOL0     H84591  11.235  10.948   1.079 -1.1820  0.7476  1.3142
  627MOL0     H84592  11.132  11.128   0.848  0.2675 -1.0358  0.1760
  627MOL0     H84593  11.227  10.988   0.824  0.9626  0.6316 -0.0588
  627MOL0     H84594  11.351  11.206   0.996  1.7006 -0.0442  0.5344
  627MOL0     H84595  11.434  11.090   0.891 -0.2323  0.0109 -1.5348
  627MOL0     H84596  11.416  11.436   0.889 -0.2632 -0.7579  0.6909
  627MOL0     H84597  11.486  11.621   0.649 -0.2771  3.7646 -1.3881
  627MOL0     H84598  11.367  11.579   0.525  0.5705 -1.4465 -0.1322
  627MOL0     H84599  11.308  11.691   0.803 -2.4567  1.7945  0.3360
  627MOL0     H84600  11.286  11.770   0.646  0.1352 -1.2508 -3.0941
  627MOL0     H84601  11.090  11.706   0.743 -1.5929 -1.7779  1.0427
  627MOL0     H84602  11.146  11.536   0.765 -0.2127 -1.3727 -1.4066
  627MOL0     H84603  11.138  11.485   0.533 -0.7428 -0.0421 -2.9694
  627MOL0     H84604  11.138  11.659   0.479 -0.1619  2.6082  2.3201
  627MOL0     H84605  11.059  11.331   0.665 -1.1688 -1.3424 -0.8003
  627MOL0     H84606  10.910  11.164   0.775 -1.2820 -0.2638 -2.1371
  627MOL0     H84607  10.446  11.283   1.063  1.6314 -0.1002 -0.8300
  627MOL0     H84608  10.289  11.183   1.213  1.1297 -1.6527  0.9440
  627MOL0     H84609  10.094  11.061   1.311  0.4247 -0.8858 -0.1995
  627MOL0     H84610  10.023  11.025   1.154  2.2748  0.5135 -1.2233
  627MOL0     H84611   9.968  10.785   1.223  0.0916  0.2927 -0.5585
  627MOL0     H84612  10.050  10.810   1.370 -0.8512  0.5752  0.0204
  627MOL0     H84613   9.889  10.976   1.440 -1.2763 -0.0612 -0.1166
  627MOL0     H84614   9.801  10.977   1.282  0.9705 -1.9176 -1.9704
  627MOL0     H84615   9.803  10.771   1.503 -0.6719  2.4890  0.5712
  627MOL0     H84616   9.774  10.720   1.341 -2.2596  1.4242 -1.6546
  627MOL0     H84617   9.568  10.854   1.342  1.3149 -0.6856 -0.9129
  627MOL0     H84618   9.595  10.916   1.501  1.6408  2.3660 -3.5071
  627MOL0     H84619   9.560  10.613   1.451 -1.2897  0.1853 -0.7907
  627MOL0     H84620   9.580  10.695   1.609  1.3416  3.9407 -0.2219
  627MOL0     H84621   9.350  10.758   1.418  0.2352  2.5564  0.3752
  627MOL0     H84622   9.377  10.820   1.578  1.6613  0.1277  0.4390
  627MOL0     H84623   9.335  10.517   1.529  0.1101 -1.2030  0.5614
  627MOL0     H84624   9.319  10.613   1.683  0.9534  2.2212  0.1269
  627MOL0     H84625  10.264  10.846   0.940 -0.0283 -0.4291  1.9289
  627MOL0     H84626  10.426  10.951   0.801 -0.7479 -0.7296 -1.0621
  627MOL0     H84627  10.579  11.434   0.752 -0.1116  0.5134  1.1224
  627MOL0     H84628  10.713  11.599   0.623 -1.3613 -0.8558  1.0359
  627MOL0     H84629  10.524  10.607   1.621  0.0818 -2.6232  0.2335
  627MOL0     H84630  10.298  10.524   1.662 -0.6292 -1.2952 -0.6944
  627MOL0     H84631   9.913  10.520   1.678 -2.8500  1.2270  0.7774
  627MOL0     H84632   9.688  10.455   1.772  1.5792 -2.4828  1.0583
  627MOL0     H84633   9.448  10.117   1.591  0.5017 -0.3211  1.5795
  627MOL0     H84634   9.388  10.267   1.508  0.8168 -1.6851 -1.3665
  627MOL0     H84635   9.253  10.308   1.725 -1.6649  1.4031 -5.7395
  627MOL0     H84636   9.297  10.143   1.774 -2.5715 -0.4017 -0.2575
  627MOL0     H84637   9.178  10.049   1.620  2.5673  0.0185 -0.6653
  627MOL0     H84638   9.170  10.188   1.501  1.2731  0.5872  0.2126
  627MOL0     H84639   9.007  10.302   1.673 -0.0811  0.5017  0.5831
  627MOL0     H84640   8.947  10.161   1.593  1.5350  1.0208 -1.8877
  627MOL0     H84641   9.015  10.091   2.025  0.1385  1.6260  1.0437
  627MOL0     H84642   9.607  10.226   1.424  0.2593 -0.0069 -0.3350
  627MOL0     H84643   9.812  10.349   1.206  2.9042 -1.8569 -2.3298
  627MOL0     H84644   9.914  10.215   1.284  1.2891  1.6446  0.9786
  627MOL0     H84645   9.748  10.193   1.250 -0.0298  0.1127  2.0990
  628MOL0     O84646  10.638   0.332   2.647  0.1919 -0.7312  0.1621
  628MOL0     C84647  10.686   0.321   2.759 -0.0451  0.1462  0.3789
  628MOL0     O84648  10.810   0.265   2.785  0.4177 -0.1022  0.9626
  628MOL0     C84649  10.888   0.240   2.678  0.5968  0.0664  0.4455
  628MOL0     C84650  10.926   0.111   2.661 -0.4792  0.2373 -0.8621
  628MOL0     C84651  11.014   0.070   2.562 -0.7238  0.5301  0.0830
  628MOL0     C84652  11.058   0.166   2.468 -0.1717 -0.2580  0.2212
  628MOL0     O84653  11.131   0.128   2.362 -0.2084 -0.6336  0.0194
  628MOL0     C84654  11.244   0.213   2.327  0.4216 -0.0973  0.4846
  628MOL0     C84655  11.341   0.120   2.255 -0.9556 -0.2721  0.2870
  628MOL0     C84656  11.477   0.181   2.234 -0.0027  0.0573 -0.2588
  628MOL0     C84657  11.549   0.081   2.146  0.1543  0.1626 -0.2517
  628MOL0     C84658  11.699   0.112   2.141  0.0964  0.1543 -0.5061
  628MOL0     C84659  11.783   0.003   2.073  0.3983 -0.2841  0.1152
  628MOL0     C84660  11.920   0.053   2.044  0.6354 -0.3430  0.6322
  628MOL0     C84661  11.998  -0.058   1.960 -0.3649  0.2233 -0.0402
  628MOL0     N84662  12.136  -0.003   1.930  0.3334  0.3415  0.6281
  628MOL0     C84663  12.172   0.066   1.817  0.6438 -1.0500 -0.7743
  628MOL0     C84664  12.311   0.068   1.827 -0.2929 -0.2328  0.1293
  628MOL0     C84665  12.406   0.109   1.725  0.4018 -0.6136 -0.0420
  628MOL0     C84666  12.397   0.030   1.590  0.3700 -0.2634 -1.1718
  628MOL0     C84667  12.467   0.095   1.472  0.4907  0.0715 -0.5024
  628MOL0     C84668  12.606   0.143   1.506  0.5908 -0.1535  0.7313
  628MOL0     O84669  12.690   0.039   1.549  0.2855 -0.2594 -0.2681
  628MOL0     C84670  12.826   0.062   1.551  0.4083 -0.4511 -0.2640
  628MOL0     C84671  12.880   0.197   1.551 -0.2207 -0.8446 -0.3335
  628MOL0     C84672  13.015   0.213   1.568 -0.2223 -0.5925  0.4666
  628MOL0     C84673  13.097   0.099   1.575  0.6088  0.2509 -0.6314
  628MOL0     C84674  13.248   0.114   1.579  0.4656  0.2899 -0.3735
  628MOL0     O84675  13.330   0.002   1.562  0.2983  0.2344 -0.2462
  628MOL0     C84676  13.459   0.011   1.528 -0.5497 -0.0961  0.4515
  628MOL0     C84677  13.509   0.111   1.446 -0.0302  0.3070  1.0519
  628MOL0     C84678  13.650   0.126   1.434  1.0753  0.6937  0.3092
  628MOL0     C84679  13.734   0.020   1.470 -0.1576 -0.1980  0.4804
  628MOL0     O84680  13.872   0.016   1.450 -0.1141  0.2743  0.2743
  628MOL0     C84681  13.938   0.140   1.429 -0.0916 -0.0787  0.6423
  628MOL0     C84682  14.095   0.126   1.415  0.2214  0.2635 -0.0413
  628MOL0     C84683  14.124   0.017   1.311  1.1082 -0.7853  0.8947
  628MOL0     C84684  14.076   0.074   1.168  0.6511  0.0936 -0.0644
  628MOL0     C84685  14.170   0.019   1.062 -0.4611  0.1938  0.0144
  628MOL0     C84686  14.146   0.077   0.924  1.3854 -0.1109 -0.6394
  628MOL0     C84687  14.252   0.016   0.837  0.3121  0.3199 -0.1350
  628MOL0     C84688  14.231   0.030   0.684  0.5060 -0.3757  0.4571
  628MOL0    Cl84689  14.241   0.199   0.629  0.4165  0.5616  0.0937
  628MOL0     C84690  13.676  -0.088   1.537 -0.5495 -0.3752  0.0128
  628MOL0     C84691  13.542  -0.092   1.570 -0.4175  0.4423 -0.1033
  628MOL0     O84692  13.289   0.229   1.584  0.5608 -0.0899  0.4201
  628MOL0     C84693  13.047  -0.030   1.575  0.4946  0.0799 -0.1347
  628MOL0     C84694  12.911  -0.046   1.563  1.3363  0.0858  0.1118
  628MOL0     N84695  12.353  -0.003   1.940  0.2451  0.5465  0.3925
  628MOL0     N84696  12.247  -0.037   1.996  0.2613  0.2723 -0.2261
  628MOL0     C84697  11.011   0.292   2.476 -0.1087 -1.0681  0.1868
  628MOL0     C84698  10.928   0.337   2.583  0.0117 -0.7713 -0.3035
  628MOL0     C84699  10.602   0.367   2.873  0.0482 -0.4505 -0.1623
  628MOL0     C84700  10.645   0.334   3.001 -0.2907 -0.0743 -0.2370
  628MOL0     C84701  10.596   0.381   3.115  0.3582 -0.9575  0.1792
  628MOL0     C84702  10.489   0.476   3.112 -0.1742  0.3568 -0.0025
  628MOL0     O84703  10.437   0.534   3.225 -0.1240 -0.3886  0.8529
  628MOL0     C84704  10.300   0.490   3.242 -0.2633 -0.2345  0.1832
  628MOL0     C84705  10.250   0.492   3.394 -0.0190 -0.9354 -1.0872
  628MOL0     C84706  10.286   0.361   3.478  0.2496 -1.0273  0.1149
  628MOL0     C84707  10.432   0.350   3.506 -0.2209  0.2295  0.4822
  628MOL0     C84708  10.467   0.226   3.588 -0.2858 -0.5186  0.7314
  628MOL0     C84709  10.489   0.136   3.667  0.1720 -0.4690 -0.1878
  628MOL0     C84710  10.439   0.508   2.989  0.3030 -0.4345  0.4830
  628MOL0     C84711  10.483   0.447   2.868  0.0206  0.5642  0.0444
  628MOL0     C84712  10.401   0.474   2.742  1.1123 -0.2878 -0.1494
  628MOL0     H84713  10.885   0.039   2.730 -0.1780  0.2364 -0.6847
  628MOL0     H84714  11.059  -0.029   2.554 -0.3092  0.7206  0.0610
  628MOL0     H84715  11.223   0.291   2.253  2.6438  0.6938  0.6144
  628MOL0     H84716  11.288   0.256   2.417 -0.4216  4.3460 -0.9567
  628MOL0     H84717  11.300   0.090   2.158 -0.5252  1.3690 -0.4399
  628MOL0     H84718  11.362   0.028   2.310  0.6993 -1.2187 -1.7605
  628MOL0     H84719  11.525   0.190   2.332 -0.0675  1.6587 -0.3508
  628MOL0     H84720  11.477   0.280   2.188  1.1705  1.0666  1.8027
  628MOL0     H84721  11.541  -0.022   2.184 -1.5883  0.7803  1.1665
  628MOL0     H84722  11.501   0.093   2.048 -3.5009 -0.4895  1.3057
  628MOL0     H84723  11.711   0.198   2.074 -2.2904  0.4041 -0.7116
  628MOL0     H84724  11.743   0.123   2.240  1.2732 -1.2149 -0.8441
  628MOL0     H84725  11.785  -0.085   2.138 -0.6365  0.9718  1.9011
  628MOL0     H84726  11.738  -0.031   1.979  0.3304 -0.6397  0.2725
  628MOL0     H84727  11.966   0.069   2.142  1.2968  1.9105  0.0076
  628MOL0     H84728  11.919   0.145   1.986  1.0495 -0.0271  1.1228
  628MOL0     H84729  11.994  -0.157   2.005 -0.0581 -1.7451 -3.9185
  628MOL0     H84730  11.961  -0.078   1.859  2.3081  0.3584 -1.1399
  628MOL0     H84731  12.103   0.101   1.741 -1.2753 -2.3774  0.2788
  628MOL0     H84732  12.377   0.213   1.707  0.6779 -0.7976 -1.6251
  628MOL0     H84733  12.501   0.097   1.778  0.6668  0.5412 -0.2207
  628MOL0     H84734  12.426  -0.075   1.598  0.0563 -0.3136 -0.6466
  628MOL0     H84735  12.295   0.036   1.551  0.3081  0.4634 -0.9141
  628MOL0     H84736  12.409   0.178   1.431 -1.5259 -0.8090  0.4449
  628MOL0     H84737  12.474   0.013   1.399  1.3069 -2.1293  1.8890
  628MOL0     H84738  12.590   0.215   1.586  0.6982 -0.7888  1.3288
  628MOL0     H84739  12.641   0.201   1.420  1.8028  0.2117  1.4516
  628MOL0     H84740  12.819   0.286   1.545 -0.3476 -1.0173 -3.7127
  628MOL0     H84741  13.053   0.314   1.559 -0.8073 -0.3750  0.4346
  628MOL0     H84742  13.434   0.170   1.395  0.2005  0.7175  1.1859
  628MOL0     H84743  13.695   0.205   1.376 -0.6067  0.0781 -1.9900
  628MOL0     H84744  13.909   0.185   1.333  1.0734 -0.2342  0.1936
  628MOL0     H84745  13.911   0.197   1.518  2.7513 -0.6190  1.9713
  628MOL0     H84746  14.156   0.212   1.385  0.1585  0.7297  1.0957
  628MOL0     H84747  14.130   0.087   1.511  4.3100  2.2772 -0.4564
  628MOL0     H84748  14.233   0.007   1.313  1.0710 -1.4634  0.2097
  628MOL0     H84749  14.089  -0.084   1.336  0.7827 -1.4497 -1.8605
  628MOL0     H84750  14.091   0.182   1.163 -0.2192  0.3073  1.2698
  628MOL0     H84751  13.969   0.055   1.159  1.0554 -2.4853 -0.3202
  628MOL0     H84752  14.165  -0.090   1.054  1.2387 -0.0643  1.8548
  628MOL0     H84753  14.272   0.046   1.092 -0.0972  0.9276 -1.7442
  628MOL0     H84754  14.046   0.056   0.885  0.0126  0.8629  2.1190
  628MOL0     H84755  14.153   0.186   0.928 -1.1562  0.0869  2.2739
  628MOL0     H84756  14.250  -0.092   0.850 -1.8098  0.2389 -0.7509
  628MOL0     H84757  14.351   0.058   0.860  0.8918  0.3679 -2.5099
  628MOL0     H84758  14.302  -0.032   0.629 -1.6232 -1.6620 -0.9569
  628MOL0     H84759  14.136  -0.009   0.646  1.2232 -0.3189 -1.4952
  628MOL0     H84760  13.741  -0.168   1.570 -2.0757 -1.6221  0.1074
  628MOL0     H84761  13.497  -0.171   1.628 -0.6778  2.3327  2.4268
  628MOL0     H84762  13.118  -0.111   1.591 -1.1724 -1.3139  0.6096
  628MOL0     H84763  12.866  -0.144   1.559 -1.0529  1.1373 -0.1611
  628MOL0     H84764  11.047   0.366   2.405 -0.2677  0.5793  1.7279
  628MOL0     H84765  10.890   0.438   2.595 -2.6708 -1.2905 -3.2645
  628MOL0     H84766  10.731   0.268   3.007 -0.0188  0.1161 -1.6120
  628MOL0     H84767  10.635   0.351   3.212 -2.4267 -0.1604  1.6514
  628MOL0     H84768  10.296   0.385   3.211  1.3414 -0.9596  2.2344
  628MOL0     H84769  10.233   0.547   3.177 -1.3211 -1.7017 -0.0470
  628MOL0     H84770  10.141   0.490   3.391 -0.1529  1.2784  0.2057
  628MOL0     H84771  10.283   0.582   3.446 -2.3858 -0.2690 -0.6255
  628MOL0     H84772  10.253   0.268   3.431  1.2049 -2.8267  2.7743
  628MOL0     H84773  10.235   0.365   3.574  0.2188  1.1600  0.0553
  628MOL0     H84774  10.482   0.340   3.409 -2.9479  1.8582 -1.2140
  628MOL0     H84775  10.467   0.435   3.565 -3.0950  0.7603  1.5681
  628MOL0     H84776  10.520   0.068   3.743  0.4983  1.1093  1.1566
  628MOL0     H84777  10.363   0.585   2.980  0.6972 -0.2250 -1.5331
  628MOL0     H84778  10.326   0.553   2.754  1.4690 -0.1123  1.2019
  628MOL0     H84779  10.462   0.505   2.657  0.6320 -1.0266 -0.7759
  628MOL0     H84780  10.342   0.385   2.719 -1.1507  0.0821  3.3725
  629MOL0     O84781   5.440   9.921   8.644  0.4253 -0.1981 -0.3658
  629MOL0     C84782   5.384  10.011   8.576 -0.9182  1.1481 -0.3000
  629MOL0     O84783   5.457  10.123   8.517 -0.4410 -0.2701 -0.0542
  629MOL0     C84784   5.583  10.154   8.562 -0.1758 -0.3203  1.6100
  629MOL0     C84785   5.685  10.134   8.466  0.1620  0.5920 -0.4947
  629MOL0     C84786   5.814  10.164   8.492 -1.0427 -0.9077  0.3794
  629MOL0     C84787   5.862  10.195   8.627  0.2292 -0.6200  0.5392
  629MOL0     O84788   5.997  10.202   8.655  0.1923  0.1461 -0.1058
  629MOL0     C84789   6.038  10.302   8.748  0.4942 -0.8897  0.6511
  629MOL0     C84790   6.188  10.321   8.737  0.9141  0.5032 -0.4408
  629MOL0     C84791   6.224  10.439   8.829 -0.4417 -0.1208 -0.6303
  629MOL0     C84792   6.237  10.388   8.969 -0.6516  0.1943 -0.9390
  629MOL0     C84793   6.291  10.497   9.057  0.1262 -0.1457 -0.0003
  629MOL0     C84794   6.326  10.454   9.197  1.2500  0.0124 -0.1791
  629MOL0     C84795   6.384  10.564   9.283 -0.7106  0.0872  0.7524
  629MOL0     C84796   6.389  10.519   9.434  0.3638  0.0199  0.1468
  629MOL0     N84797   6.439  10.617   9.527 -0.5816 -0.5833  0.3539
  629MOL0     C84798   6.368  10.723   9.572 -1.1897 -0.1277 -0.1259
  629MOL0     C84799   6.450  10.794   9.654 -0.2413 -0.2170 -0.6364
  629MOL0     C84800   6.426  10.926   9.718 -0.1890 -0.2020 -1.0001
  629MOL0     C84801   6.525  11.029   9.680 -0.2700  0.0422 -0.4237
  629MOL0     C84802   6.525  11.165   9.757  0.5941  0.1829  0.1713
  629MOL0     C84803   6.563  11.137   9.912 -0.5680 -0.0979  0.2705
  629MOL0     O84804   6.701  11.103   9.930  0.1035 -0.3340  0.9449
  629MOL0     C84805   6.804  11.202   9.932  0.0767 -0.0087 -0.7548
  629MOL0     C84806   6.944  11.162   9.951  0.3099  0.4189 -0.2337
  629MOL0     C84807   7.044  11.257   9.953  0.0910  0.2119 -0.1373
  629MOL0     C84808   7.021  11.390   9.931 -0.3865  0.1160  0.4628
  629MOL0     C84809   7.138  11.482   9.904 -0.0282 -0.2759  0.4182
  629MOL0     O84810   7.260  11.428   9.905  0.2152 -0.2722  0.3183
  629MOL0     C84811   7.366  11.515   9.876  0.6470  0.5541 -0.9430
  629MOL0     C84812   7.440  11.568   9.981  0.3066  0.1815  0.3657
  629MOL0     C84813   7.544  11.659   9.948 -0.0460  0.0828  0.5404
  629MOL0     C84814   7.566  11.696   9.819  0.2876 -0.1619  0.4437
  629MOL0     O84815   7.671  11.783   9.781  0.2977  0.6007 -0.4903
  629MOL0     C84816   7.791  11.766   9.867 -0.6031  0.1091 -0.8098
  629MOL0     C84817   7.905  11.838   9.793  0.0090  0.5383  0.4430
  629MOL0     C84818   8.040  11.812   9.871  0.2231  0.4309  0.3301
  629MOL0     C84819   8.164  11.877   9.810 -0.6945 -0.5992 -0.0501
  629MOL0     C84820   8.283  11.798   9.850  0.8579  0.6081  0.2092
  629MOL0     C84821   8.417  11.878   9.826  0.3024  0.0125  0.7332
  629MOL0     C84822   8.547  11.805   9.853  0.4170  0.4140  0.7538
  629MOL0     C84823   8.678  11.892   9.815  0.3462 -0.4642  0.4280
  629MOL0    Cl84824   8.678  12.049   9.911  0.4138 -0.2515 -0.1819
  629MOL0     C84825   7.491  11.641   9.717 -0.4427 -0.1667 -1.1028
  629MOL0     C84826   7.395  11.546   9.743 -0.6549  0.2375 -0.2578
  629MOL0     O84827   7.110  11.602   9.864  0.1197 -0.3927 -0.3495
  629MOL0     C84828   6.887  11.431   9.921 -0.9252  0.2184  0.0269
  629MOL0     C84829   6.781  11.341   9.922 -0.3968 -0.0903  0.1431
  629MOL0     N84830   6.567  10.721   9.663  0.4957 -0.2101  0.5374
  629MOL0     N84831   6.563  10.617   9.587  0.8395  0.1700  0.5140
  629MOL0     C84832   5.755  10.217   8.722  0.1523 -0.3069  0.1290
  629MOL0     C84833   5.619  10.194   8.687  0.7311  0.6280  0.3746
  629MOL0     C84834   5.245   9.987   8.533  0.2937  0.1619 -0.2778
  629MOL0     C84835   5.181  10.097   8.470  0.8177 -0.4201  0.2047
  629MOL0     C84836   5.043  10.091   8.445  0.3946 -0.7536 -0.4941
  629MOL0     C84837   4.966   9.978   8.479 -0.7944 -0.7496 -0.2425
  629MOL0     O84838   4.830   9.979   8.460 -0.3205 -0.0797  0.1272
  629MOL0     C84839   4.796  10.005   8.325 -0.1714 -0.0253 -1.1525
  629MOL0     C84840   4.718   9.889   8.281 -0.2663  0.0044  0.0094
  629MOL0     C84841   4.702   9.903   8.130  0.0121 -0.3145 -0.6355
  629MOL0     C84842   4.597   9.804   8.073  0.0492  0.5462 -0.3492
  629MOL0     C84843   4.448   9.836   8.089 -0.1557  1.0538 -0.0675
  629MOL0     C84844   4.328   9.851   8.082 -0.2328  0.4477 -0.6619
  629MOL0     C84845   5.028   9.864   8.537 -0.1359 -0.6926  0.4759
  629MOL0     C84846   5.169   9.868   8.560  0.1093 -0.6098 -0.5276
  629MOL0     C84847   5.223   9.742   8.618  0.3183  0.0531 -0.2802
  629MOL0     H84848   5.664  10.103   8.364  2.8723 -0.0036 -0.9318
  629MOL0     H84849   5.889  10.147   8.416  0.0759 -0.4138  1.3504
  629MOL0     H84850   5.993  10.400   8.729  0.4969 -0.5217  2.4278
  629MOL0     H84851   6.003  10.272   8.847 -3.0817 -1.6463 -0.6836
  629MOL0     H84852   6.206  10.350   8.633  0.3517  0.0681 -0.6686
  629MOL0     H84853   6.243  10.228   8.755 -2.9034 -2.4670 -2.3985
  629MOL0     H84854   6.146  10.515   8.817 -0.1800  0.4858  1.2103
  629MOL0     H84855   6.322  10.475   8.798 -0.0407  1.9661  2.5798
  629MOL0     H84856   6.142  10.355   9.010 -0.2147  1.6310  1.4185
  629MOL0     H84857   6.312  10.308   8.970  2.7466  3.1241  0.7938
  629MOL0     H84858   6.375  10.544   9.006 -0.7147 -0.9719 -2.2691
  629MOL0     H84859   6.217  10.578   9.059  2.3354  2.0684 -1.9583
  629MOL0     H84860   6.235  10.410   9.237  1.4921 -1.8051 -1.4561
  629MOL0     H84861   6.393  10.367   9.192 -3.1165 -3.6704 -0.5496
  629MOL0     H84862   6.330  10.659   9.284 -2.8902 -1.0809  1.6386
  629MOL0     H84863   6.490  10.579   9.263 -0.4654 -0.8292  1.3045
  629MOL0     H84864   6.292  10.487   9.473 -1.3238  1.6402 -2.3587
  629MOL0     H84865   6.461  10.437   9.437  2.1754  1.5215 -0.3719
  629MOL0     H84866   6.268  10.751   9.540 -0.9089  1.0739  0.0051
  629MOL0     H84867   6.326  10.947   9.680 -0.7444 -0.8496  0.0426
  629MOL0     H84868   6.432  10.895   9.822 -0.0961 -1.4324 -1.3562
  629MOL0     H84869   6.626  10.987   9.689 -0.6760 -1.1275 -1.1270
  629MOL0     H84870   6.516  11.050   9.573 -0.9310 -0.1798 -0.4103
  629MOL0     H84871   6.432  11.222   9.749  1.7878  2.5727  1.8350
  629MOL0     H84872   6.608  11.224   9.717  0.8854  1.5888  2.6087
  629MOL0     H84873   6.499  11.066   9.965 -1.9906  1.6206  0.9516
  629MOL0     H84874   6.534  11.223   9.973 -0.2885  1.0793 -1.1974
  629MOL0     H84875   6.968  11.058   9.974 -2.2312 -0.7847 -2.4103
  629MOL0     H84876   7.146  11.226   9.974  0.8675  2.7763  0.1643
  629MOL0     H84877   7.425  11.533  10.082  1.0451  1.0518  0.7830
  629MOL0     H84878   7.595  11.708  10.030  0.4085  3.5703 -1.6221
  629MOL0     H84879   7.790  11.825   9.959  2.5218  0.1126 -0.6732
  629MOL0     H84880   7.815  11.663   9.895  0.2278  1.0452  2.3443
  629MOL0     H84881   7.912  11.800   9.691  1.3575  3.1049 -0.5012
  629MOL0     H84882   7.887  11.946   9.794  2.5230  1.0846 -2.1097
  629MOL0     H84883   8.028  11.847   9.973 -4.3304 -0.1126  0.1913
  629MOL0     H84884   8.052  11.703   9.878 -0.8891  0.1728 -1.0840
  629MOL0     H84885   8.166  11.980   9.845 -2.1245 -0.0367 -1.5232
  629MOL0     H84886   8.158  11.882   9.701 -1.3518 -2.2165 -0.1280
  629MOL0     H84887   8.280  11.703   9.796  0.4039 -0.0130  1.2896
  629MOL0     H84888   8.275  11.773   9.957  2.1375 -0.7560  0.0340
  629MOL0     H84889   8.418  11.916   9.723 -0.2449  0.2177  0.7963
  629MOL0     H84890   8.414  11.969   9.886  0.1517  0.2168  0.4198
  629MOL0     H84891   8.549  11.712   9.796  0.4306  1.6374 -1.3689
  629MOL0     H84892   8.564  11.776   9.957  2.6519 -2.0017 -0.1687
  629MOL0     H84893   8.770  11.842   9.845  0.7266  0.9649  1.7659
  629MOL0     H84894   8.679  11.914   9.708 -2.1284  0.0255  0.4264
  629MOL0     H84895   7.521  11.684   9.622 -1.1890 -0.9794 -1.7268
  629MOL0     H84896   7.346  11.492   9.663  2.3651 -2.9468 -0.2130
  629MOL0     H84897   6.870  11.538   9.909 -1.2387 -0.0937 -3.0579
  629MOL0     H84898   6.677  11.373   9.920  0.6566  3.6854 -0.9159
  629MOL0     H84899   5.775  10.243   8.826 -1.0530  1.1420  0.0424
  629MOL0     H84900   5.540  10.210   8.759  0.5807  0.4293  0.2528
  629MOL0     H84901   5.234  10.190   8.450  1.0045 -0.1990  1.6138
  629MOL0     H84902   4.997  10.179   8.403 -0.9366 -0.2396  1.8712
  629MOL0     H84903   4.883  10.023   8.261  0.5409  0.7888 -0.0040
  629MOL0     H84904   4.749  10.103   8.313  1.8654  1.1217 -0.3746
  629MOL0     H84905   4.618   9.881   8.325 -1.6098 -1.2737 -3.0098
  629MOL0     H84906   4.766   9.794   8.308 -0.2438 -0.0986 -0.3821
  629MOL0     H84907   4.800   9.905   8.081  0.1067  2.4658 -0.4778
  629MOL0     H84908   4.664  10.003   8.112  1.0352  0.4821  1.3039
  629MOL0     H84909   4.621   9.806   7.966 -0.4868  1.7470 -0.4667
  629MOL0     H84910   4.617   9.703   8.108 -0.2743  0.6914  0.2587
  629MOL0     H84911   4.221   9.860   8.077 -0.6193 -1.4725  1.9037
  629MOL0     H84912   4.964   9.781   8.565 -1.0671  0.0797  0.6915
  629MOL0     H84913   5.319   9.720   8.571  0.5316  0.8685 -0.2450
  629MOL0     H84914   5.221   9.747   8.727 -2.7471 -0.2498 -0.2293
  629MOL0     H84915   5.151   9.663   8.594 -1.7367  1.7449  0.0030
  630MOL0     O84916   9.883   3.452   4.685 -0.2705  0.5032  0.6264
  630MOL0     C84917   9.824   3.557   4.659 -0.4963 -0.7585  1.2488
  630MOL0     O84918   9.846   3.677   4.722 -0.0800  0.5445  0.0861
  630MOL0     C84919   9.905   3.666   4.844  0.6466 -0.1590 -0.6671
  630MOL0     C84920   9.820   3.669   4.949  0.1318 -0.0729  0.3981
  630MOL0     C84921   9.880   3.673   5.074  1.2962 -0.0520 -0.9180
  630MOL0     C84922  10.014   3.663   5.098  0.4243 -0.6398  0.7339
  630MOL0     O84923  10.063   3.678   5.226 -0.3783 -0.0805  0.6920
  630MOL0     C84924  10.169   3.595   5.274  0.5182  0.2424 -0.2026
  630MOL0     C84925  10.182   3.612   5.425 -0.0601  0.4651 -0.8052
  630MOL0     C84926  10.088   3.523   5.504  0.5309  0.4302  0.0461
  630MOL0     C84927  10.096   3.528   5.657 -0.2611 -0.2066 -0.7370
  630MOL0     C84928   9.989   3.436   5.716  0.0016 -0.4606  0.3686
  630MOL0     C84929   9.948   3.464   5.861  0.6187 -0.5194 -0.0933
  630MOL0     C84930   9.846   3.357   5.903 -0.3353 -0.2326 -0.9276
  630MOL0     C84931   9.774   3.403   6.022 -0.8091  0.6947 -0.0093
  630MOL0     N84932   9.869   3.410   6.143 -0.3678 -0.0623  0.7918
  630MOL0     C84933   9.880   3.302   6.228 -0.7140  0.3829  0.1690
  630MOL0     C84934   9.947   3.350   6.342  0.2618 -0.5535  0.0377
  630MOL0     C84935   9.983   3.291   6.478  0.9066  0.3558 -0.2231
  630MOL0     C84936  10.028   3.139   6.456  0.6435 -0.4383 -0.0502
  630MOL0     C84937  10.096   3.092   6.581  0.2522  1.0154 -0.1639
  630MOL0     C84938  10.144   2.946   6.563  0.1130 -0.2670  0.0434
  630MOL0     O84939  10.044   2.858   6.512  0.0695 -0.3506  0.6154
  630MOL0     C84940   9.923   2.838   6.567  1.1715  0.0133 -0.0528
  630MOL0     C84941   9.818   2.771   6.496 -0.3478  0.5704 -0.3142
  630MOL0     C84942   9.693   2.749   6.553  0.3245 -0.5215  0.3038
  630MOL0     C84943   9.671   2.770   6.687 -0.0302  0.0766 -0.0216
  630MOL0     C84944   9.531   2.739   6.746 -0.0664  0.1738 -0.3080
  630MOL0     O84945   9.507   2.772   6.871 -0.4684 -0.2570 -0.4681
  630MOL0     C84946   9.376   2.749   6.908  0.9655 -0.6787 -0.9479
  630MOL0     C84947   9.269   2.837   6.877 -0.2593  0.4771  0.0698
  630MOL0     C84948   9.141   2.801   6.929  1.2243  0.7696  0.2167
  630MOL0     C84949   9.124   2.686   6.998  0.1932 -0.3298  0.3117
  630MOL0     O84950   8.993   2.661   7.043  0.2804 -0.1654  0.1274
  630MOL0     C84951   8.969   2.578   7.159 -0.3425  0.1099  0.0070
  630MOL0     C84952   8.824   2.538   7.156  0.5225  0.2546 -0.4330
  630MOL0     C84953   8.775   2.473   7.030  0.7263  0.3987 -0.2793
  630MOL0     C84954   8.623   2.438   7.034 -0.0653  0.0631 -1.1562
  630MOL0     C84955   8.580   2.337   7.139 -0.2468  0.3315 -0.0696
  630MOL0     C84956   8.442   2.294   7.098  0.2955 -0.7628 -0.0623
  630MOL0     C84957   8.377   2.192   7.188 -0.5372  0.5570 -0.0490
  630MOL0     C84958   8.221   2.195   7.166 -0.2426 -0.4075  0.1889
  630MOL0    Cl84959   8.152   2.063   7.268  0.4230  0.3105  0.0495
  630MOL0     C84960   9.227   2.597   7.025  0.4504  1.0013 -0.0375
  630MOL0     C84961   9.355   2.629   6.977 -0.2875 -0.5268  0.0973
  630MOL0     O84962   9.445   2.699   6.667 -0.0970  0.1827  0.3948
  630MOL0     C84963   9.775   2.824   6.761 -0.7901 -0.3206  0.0120
  630MOL0     C84964   9.901   2.853   6.707 -0.3449  0.3878 -0.1377
  630MOL0     N84965   9.979   3.483   6.315 -0.2117  0.5866 -0.9358
  630MOL0     N84966   9.940   3.516   6.196 -0.2224  0.2012  0.2739
  630MOL0     C84967  10.100   3.647   4.982 -0.0724  0.0664  0.6322
  630MOL0     C84968  10.043   3.661   4.857 -0.0480 -0.5697  0.7992
  630MOL0     C84969   9.734   3.561   4.542  0.9475 -1.1228 -0.2121
  630MOL0     C84970   9.714   3.679   4.472 -0.6697  0.3827 -0.1664
  630MOL0     C84971   9.618   3.694   4.376  0.0314 -0.5083  0.7753
  630MOL0     C84972   9.541   3.589   4.330  0.3277 -0.2030  0.3712
  630MOL0     O84973   9.453   3.612   4.228 -0.0818  0.1218 -0.6952
  630MOL0     C84974   9.342   3.527   4.201  0.1364  0.0121 -0.3513
  630MOL0     C84975   9.267   3.584   4.086  0.4149 -0.6417  0.1781
  630MOL0     C84976   9.128   3.515   4.062  0.3262 -0.4805  0.1773
  630MOL0     C84977   9.076   3.551   3.926  0.2148  0.1939  0.3542
  630MOL0     C84978   8.964   3.455   3.895  0.4186 -0.2071  0.4597
  630MOL0     C84979   8.861   3.392   3.881  0.1740  0.2813 -1.6603
  630MOL0     C84980   9.563   3.463   4.394 -0.7541 -0.1469  0.0485
  630MOL0     C84981   9.657   3.452   4.498  0.5205 -0.2875  0.7490
  630MOL0     C84982   9.671   3.313   4.565  0.2442  0.5264 -0.2380
  630MOL0     H84983   9.713   3.687   4.954  0.5890  3.1400  0.6717
  630MOL0     H84984   9.814   3.679   5.160  0.6132  0.8284 -1.4929
  630MOL0     H84985  10.147   3.488   5.262 -3.1313  0.8529 -0.0325
  630MOL0     H84986  10.265   3.621   5.229  0.6499 -1.1081 -0.7605
  630MOL0     H84987  10.161   3.715   5.455 -2.4857 -0.0843 -0.4707
  630MOL0     H84988  10.285   3.587   5.455  0.9974  2.6670 -2.3157
  630MOL0     H84989  10.122   3.423   5.477  0.0373  0.8712 -2.5420
  630MOL0     H84990   9.985   3.535   5.468  0.2109 -0.4704  0.6460
  630MOL0     H84991  10.199   3.503   5.684  1.1668  4.4754 -0.9082
  630MOL0     H84992  10.076   3.623   5.707 -2.3352 -1.6071  1.2945
  630MOL0     H84993   9.896   3.431   5.659 -0.6386 -0.4034  1.3837
  630MOL0     H84994  10.031   3.336   5.702  0.0809 -0.1794 -1.8292
  630MOL0     H84995  10.033   3.470   5.929  0.1244 -0.4567  0.5236
  630MOL0     H84996   9.901   3.563   5.863 -0.3081 -0.9247 -0.5899
  630MOL0     H84997   9.910   3.270   5.919  0.8799  0.1742 -3.0788
  630MOL0     H84998   9.773   3.339   5.823  1.9326  1.4412 -3.5495
  630MOL0     H84999   9.738   3.502   5.991  0.5692 -0.1455 -5.2058
  630MOL0     H85000   9.688   3.337   6.033 -1.5653  1.4185 -1.3906
  630MOL0     H85001   9.844   3.201   6.211  0.7020  0.0536 -0.9815
  630MOL0     H85002  10.061   3.355   6.520  2.2058 -1.0617 -0.3902
  630MOL0     H85003   9.892   3.281   6.537 -0.7924 -0.5563 -2.8215
  630MOL0     H85004   9.949   3.069   6.429 -0.2921 -0.3645  2.2711
  630MOL0     H85005  10.096   3.147   6.370 -1.2145  1.8252 -1.4367
  630MOL0     H85006  10.016   3.088   6.656  1.0560  1.4519  0.7351
  630MOL0     H85007  10.178   3.149   6.625  0.2661  3.7558 -3.3624
  630MOL0     H85008  10.178   2.905   6.659 -0.3081 -1.9521 -0.5025
  630MOL0     H85009  10.228   2.951   6.494 -0.8318 -0.8377 -1.1739
  630MOL0     H85010   9.839   2.736   6.395 -0.5919 -0.1995 -0.1058
  630MOL0     H85011   9.609   2.724   6.489  0.3066 -1.5622  0.7268
  630MOL0     H85012   9.291   2.928   6.823  1.3403  2.5610  3.8490
  630MOL0     H85013   9.050   2.855   6.905  1.9413  1.3366 -1.3434
  630MOL0     H85014   9.042   2.496   7.167 -0.4199  0.0456  0.0499
  630MOL0     H85015   8.970   2.645   7.246 -1.8965  0.8367 -0.5048
  630MOL0     H85016   8.814   2.467   7.239 -2.0607 -0.7656 -1.4979
  630MOL0     H85017   8.757   2.617   7.191 -2.7597 -1.7790 -1.6371
  630MOL0     H85018   8.803   2.544   6.950 -0.1242  1.9895  0.7854
  630MOL0     H85019   8.812   2.373   7.007  0.1258  0.3410 -1.0416
  630MOL0     H85020   8.609   2.388   6.937 -2.1858  0.3686 -1.0479
  630MOL0     H85021   8.566   2.531   7.028  1.0688  0.7957 -1.0064
  630MOL0     H85022   8.577   2.376   7.241 -0.4320 -1.1189  0.4990
  630MOL0     H85023   8.641   2.247   7.147  0.3005  0.7378  0.3801
  630MOL0     H85024   8.387   2.389   7.094  1.7510  0.1492  0.8444
  630MOL0     H85025   8.448   2.243   7.001  1.2348  1.0566 -1.0178
  630MOL0     H85026   8.393   2.215   7.294  0.8081  1.0863 -0.3398
  630MOL0     H85027   8.423   2.093   7.180  1.7151  1.4459  1.0044
  630MOL0     H85028   8.178   2.291   7.199  0.1025  0.4382 -1.7038
  630MOL0     H85029   8.205   2.172   7.061  0.8526 -2.5733  0.4454
  630MOL0     H85030   9.218   2.500   7.073 -0.1718  0.1116 -1.8606
  630MOL0     H85031   9.435   2.559   6.999 -1.1775 -0.7006  3.2218
  630MOL0     H85032   9.756   2.851   6.864 -0.7929  3.1781 -0.7834
  630MOL0     H85033   9.981   2.888   6.771  2.5210 -1.8505 -2.1894
  630MOL0     H85034  10.208   3.636   4.986 -0.2333 -1.4820  1.8916
  630MOL0     H85035  10.112   3.665   4.773 -1.0226 -1.9166 -0.1102
  630MOL0     H85036   9.767   3.768   4.506  0.6028 -1.0849  1.8903
  630MOL0     H85037   9.603   3.791   4.329  0.7922  0.4065  2.3366
  630MOL0     H85038   9.268   3.531   4.282  0.6003 -1.3136  0.1764
  630MOL0     H85039   9.370   3.422   4.186 -0.0685 -0.4023  1.8337
  630MOL0     H85040   9.329   3.577   3.996 -1.2526  2.1152 -1.3348
  630MOL0     H85041   9.237   3.688   4.097  1.0960 -0.1334 -2.1523
  630MOL0     H85042   9.067   3.544   4.148  1.1302  0.5759  0.4135
  630MOL0     H85043   9.142   3.407   4.075 -2.1567 -1.5959 -4.3235
  630MOL0     H85044   9.036   3.652   3.941 -2.2801 -0.6145 -0.3927
  630MOL0     H85045   9.148   3.552   3.843 -2.2030  0.4543 -1.8779
  630MOL0     H85046   8.776   3.330   3.862 -0.9147  1.6161 -1.3149
  630MOL0     H85047   9.507   3.374   4.364  1.4370 -2.0517  1.2994
  630MOL0     H85048   9.775   3.280   4.576  0.3863  0.4460 -1.5862
  630MOL0     H85049   9.626   3.321   4.664 -0.9879  2.6767 -0.9191
  630MOL0     H85050   9.609   3.241   4.509 -0.9925  1.3999 -0.0393
  631MOL0     O85051  10.777   9.619   1.778 -0.2452 -0.3824  0.6107
  631MOL0     C85052  10.692   9.695   1.750 -0.1560  0.1024  0.5595
  631MOL0     O85053  10.710   9.829   1.727  0.6069 -1.0470  0.1151
  631MOL0     C85054  10.836   9.886   1.749  0.2067  0.1535  0.1917
  631MOL0     C85055  10.933   9.887   1.646  0.1175  0.9005 -0.7371
  631MOL0     C85056  11.060   9.942   1.663  0.3644 -0.0892 -0.6454
  631MOL0     C85057  11.088   9.998   1.783  0.0596  0.3058 -0.2615
  631MOL0     O85058  11.200  10.068   1.790 -1.0630  0.0652  0.5813
  631MOL0     C85059  11.290  10.017   1.894  0.5637  0.1656 -0.4310
  631MOL0     C85060  11.386  10.128   1.924  0.3714  0.2051 -0.2879
  631MOL0     C85061  11.477  10.171   1.814  0.5453 -1.0486  0.2202
  631MOL0     C85062  11.576  10.283   1.848  0.5235  0.1192 -0.4169
  631MOL0     C85063  11.660  10.329   1.723  0.7778  0.6057  0.2227
  631MOL0     C85064  11.747  10.443   1.770 -0.6211  0.2605 -0.2216
  631MOL0     C85065  11.850  10.474   1.671  0.8174  0.2647  0.1107
  631MOL0     C85066  11.960  10.573   1.714 -0.0411 -0.2894 -0.3576
  631MOL0     N85067  12.048  10.611   1.603  0.2965  0.6333 -0.4060
  631MOL0     C85068  12.184  10.638   1.619 -0.2015 -0.7616 -0.5931
  631MOL0     C85069  12.226  10.653   1.487 -0.9020  0.9673 -0.6354
  631MOL0     C85070  12.359  10.675   1.434 -0.1654 -0.0285  0.0023
  631MOL0     C85071  12.439  10.781   1.513 -0.7734 -0.5257  0.7811
  631MOL0     C85072  12.562  10.837   1.446 -0.6847  0.3799 -0.4001
  631MOL0     C85073  12.665  10.731   1.421  0.4398  0.2059  0.0728
  631MOL0     O85074  12.783  10.798   1.378  0.1386 -0.5258 -0.2975
  631MOL0     C85075  12.903  10.728   1.385 -0.5008  0.5911 -0.0293
  631MOL0     C85076  13.017  10.801   1.367 -1.5151  0.7412  0.2470
  631MOL0     C85077  13.137  10.737   1.377  1.0148 -0.5044  0.2880
  631MOL0     C85078  13.153  10.596   1.389  0.7093 -0.0926  0.1801
  631MOL0     C85079  13.286  10.537   1.398 -0.7901  0.2180  0.0878
  631MOL0     O85080  13.298  10.403   1.397 -0.0341 -0.0169 -0.0686
  631MOL0     C85081  13.425  10.353   1.410 -0.0708  0.6057 -0.4398
  631MOL0     C85082  13.539  10.399   1.343  0.6462  0.3276 -0.1624
  631MOL0     C85083  13.660  10.327   1.361 -0.6446 -0.4483  0.4745
  631MOL0     C85084  13.674  10.209   1.437  0.0452 -0.3346  0.4296
  631MOL0     O85085  13.787  10.128   1.455  0.2222  0.1821 -0.7199
  631MOL0     C85086  13.912  10.190   1.456  0.1026  0.8078  0.4375
  631MOL0     C85087  14.001  10.068   1.506  0.1261  0.4076 -1.0118
  631MOL0     C85088  14.034   9.963   1.399  0.3814 -0.4981  0.6540
  631MOL0     C85089  14.134   9.861   1.449 -0.7378 -0.0104  0.6480
  631MOL0     C85090  14.160   9.760   1.336 -0.5406  0.8593 -0.2866
  631MOL0     C85091  14.293   9.683   1.362  0.9065 -0.0977  0.1568
  631MOL0     C85092  14.420   9.764   1.320  0.4990 -0.5018 -0.0881
  631MOL0     C85093  14.553   9.689   1.354 -0.6816  0.2258  0.0192
  631MOL0    Cl85094  14.567   9.678   1.527  0.0343  0.2413 -0.2646
  631MOL0     C85095  13.562  10.169   1.503 -0.1034  0.0586  0.6766
  631MOL0     C85096  13.439  10.236   1.490 -0.2255 -0.8463  0.1083
  631MOL0     O85097  13.374  10.621   1.422 -0.4406  0.3441 -0.1782
  631MOL0     C85098  13.032  10.527   1.406  0.3711 -0.1782 -0.3195
  631MOL0     C85099  12.911  10.588   1.398  0.3392 -0.5594 -0.3491
  631MOL0     N85100  12.120  10.629   1.398  0.5761 -0.0851  0.1878
  631MOL0     N85101  12.016  10.605   1.471  0.4053 -0.2547  0.8593
  631MOL0     C85102  10.995  10.000   1.892 -0.8318  0.0914  0.1902
  631MOL0     C85103  10.871   9.942   1.873  0.7839  0.2580  0.4068
  631MOL0     C85104  10.548   9.658   1.725  0.0175 -0.0301  0.3097
  631MOL0     C85105  10.444   9.762   1.685  0.5754  0.2322 -1.0831
  631MOL0     C85106  10.314   9.718   1.671 -0.3107 -0.8352  0.4194
  631MOL0     C85107  10.269   9.590   1.684  0.0657  0.4481  0.4108
  631MOL0     O85108  10.136   9.557   1.683  0.6793  0.0195 -0.2261
  631MOL0     C85109  10.086   9.422   1.728 -0.1002 -0.1414 -0.4190
  631MOL0     C85110   9.934   9.418   1.728  0.2035 -0.0799 -0.3067
  631MOL0     C85111   9.874   9.297   1.790  0.5889 -0.2125  0.3048
  631MOL0     C85112   9.879   9.181   1.682  0.0960  0.2053 -1.2738
  631MOL0     C85113   9.782   9.201   1.569 -1.1210  0.6105  0.3004
  631MOL0     C85114   9.709   9.197   1.472 -0.3133 -0.8257  0.5557
  631MOL0     C85115  10.362   9.495   1.724  0.1211  0.4364  0.3187
  631MOL0     C85116  10.499   9.527   1.732 -0.9045 -0.4115  0.2148
  631MOL0     C85117  10.589   9.406   1.749 -0.5280  0.6915 -0.9506
  631MOL0     H85118  10.888   9.845   1.557 -3.6187  1.6729  0.5912
  631MOL0     H85119  11.127   9.940   1.578  0.7430 -0.7964 -0.3344
  631MOL0     H85120  11.249   9.981   1.989  1.8784 -0.5327 -0.0982
  631MOL0     H85121  11.339   9.927   1.854  0.6482 -0.5994  1.3004
  631MOL0     H85122  11.441  10.101   2.014 -1.9778  1.3397  1.6227
  631MOL0     H85123  11.337  10.223   1.949 -2.6053 -1.1091 -0.7382
  631MOL0     H85124  11.420  10.209   1.728 -0.3600 -0.9799  0.8400
  631MOL0     H85125  11.523  10.077   1.781  2.6773 -0.2915  0.8951
  631MOL0     H85126  11.524  10.371   1.888 -1.2167 -0.2644 -1.7126
  631MOL0     H85127  11.644  10.250   1.926  1.4423  2.0714 -0.3206
  631MOL0     H85128  11.705  10.244   1.670 -0.7069  0.3378 -0.6819
  631MOL0     H85129  11.588  10.356   1.645 -1.5427 -3.4026  0.6731
  631MOL0     H85130  11.683  10.530   1.790 -2.5509 -1.0293 -0.5334
  631MOL0     H85131  11.791  10.414   1.865 -1.4390  0.5044  0.2471
  631MOL0     H85132  11.795  10.509   1.583  1.5493 -3.6017 -2.0840
  631MOL0     H85133  11.893  10.380   1.636 -1.2705 -1.1763  1.1836
  631MOL0     H85134  11.926  10.670   1.751 -1.0590 -0.5704 -0.5328
  631MOL0     H85135  12.022  10.530   1.794  0.3687  0.1738 -0.4236
  631MOL0     H85136  12.241  10.649   1.711  0.9168  0.9514 -1.4471
  631MOL0     H85137  12.411  10.579   1.429  1.3249  0.7460  0.2527
  631MOL0     H85138  12.353  10.695   1.327  0.4409 -1.8798 -0.4140
  631MOL0     H85139  12.369  10.862   1.534  1.7845  2.2715 -0.7180
  631MOL0     H85140  12.464  10.738   1.611 -0.9318 -0.4295  0.8635
  631MOL0     H85141  12.619  10.911   1.503 -0.2810 -0.7032  0.6317
  631MOL0     H85142  12.523  10.871   1.349 -1.0362 -3.0231 -1.5831
  631MOL0     H85143  12.627  10.649   1.361 -0.7176 -0.1738  1.2796
  631MOL0     H85144  12.679  10.689   1.521  0.4147  2.0630  0.9062
  631MOL0     H85145  13.007  10.904   1.333  1.6757  1.8012  2.0313
  631MOL0     H85146  13.216  10.807   1.351 -0.8087  1.7901  0.5908
  631MOL0     H85147  13.541  10.500   1.304  0.6256  0.7127  0.8075
  631MOL0     H85148  13.753  10.362   1.317  0.1537  0.5502  2.7899
  631MOL0     H85149  13.943  10.223   1.356  0.8803  0.2917  0.4955
  631MOL0     H85150  13.929  10.279   1.517  1.8078  1.2381 -0.5709
  631MOL0     H85151  14.097  10.106   1.541  0.3621  0.2973 -1.5182
  631MOL0     H85152  13.955  10.011   1.588 -1.7822  4.3948  0.9337
  631MOL0     H85153  13.941   9.910   1.378 -0.4222  1.8322 -2.3431
  631MOL0     H85154  14.069  10.019   1.312 -0.6952 -2.2732 -1.0044
  631MOL0     H85155  14.114   9.809   1.544  1.8355  1.5320  2.1803
  631MOL0     H85156  14.224   9.918   1.474 -1.3164  0.7582  1.0118
  631MOL0     H85157  14.163   9.806   1.237  0.1663 -1.7398 -1.5706
  631MOL0     H85158  14.076   9.690   1.332  0.2490 -0.1056 -0.2720
  631MOL0     H85159  14.304   9.662   1.469 -3.0905  0.7127  0.8792
  631MOL0     H85160  14.281   9.589   1.306 -1.2488 -0.8897  1.8194
  631MOL0     H85161  14.428   9.859   1.373 -0.8198 -0.9811  1.0178
  631MOL0     H85162  14.404   9.790   1.215  0.7538 -1.1310 -0.2900
  631MOL0     H85163  14.541   9.590   1.309 -0.6913  0.0485  0.4153
  631MOL0     H85164  14.640   9.735   1.306  2.0237 -2.6310  1.8079
  631MOL0     H85165  13.563  10.078   1.562  1.3971 -0.9985 -0.9140
  631MOL0     H85166  13.351  10.200   1.541 -0.6599 -1.2777 -0.9232
  631MOL0     H85167  13.034  10.420   1.426 -1.7440 -0.3091 -0.5626
  631MOL0     H85168  12.831  10.516   1.407  0.6142 -0.9445 -0.9110
  631MOL0     H85169  11.019  10.054   1.983 -0.4099 -0.4600  0.4127
  631MOL0     H85170  10.800   9.934   1.955 -1.0166  4.2032 -0.5077
  631MOL0     H85171  10.469   9.868   1.676 -1.3866  1.5876  4.9915
  631MOL0     H85172  10.231   9.787   1.662  1.4541  1.7025  2.3103
  631MOL0     H85173  10.121   9.401   1.829 -1.7093  3.5492  1.0749
  631MOL0     H85174  10.117   9.341   1.660 -0.2555  0.6154 -1.4266
  631MOL0     H85175   9.905   9.431   1.624 -2.6267  0.1621  0.4528
  631MOL0     H85176   9.896   9.509   1.773 -1.1305 -1.1708  0.8680
  631MOL0     H85177   9.767   9.317   1.805  0.5422 -0.7220  0.6830
  631MOL0     H85178   9.926   9.262   1.880  3.7664  0.4718 -1.1567
  631MOL0     H85179   9.978   9.165   1.637  1.1732  1.2389  0.6011
  631MOL0     H85180   9.838   9.087   1.721 -0.0516  1.3840  1.6726
  631MOL0     H85181   9.657   9.169   1.383 -1.7416  0.0790  1.0671
  631MOL0     H85182  10.333   9.391   1.734  0.1907  0.4934  1.1393
  631MOL0     H85183  10.537   9.310   1.757  2.8995 -1.1736  1.5104
  631MOL0     H85184  10.663   9.392   1.671 -0.2532 -1.0383 -0.4277
  631MOL0     H85185  10.643   9.421   1.843  1.1006 -2.0197 -1.3605
  632MOL0     O85186   6.068   9.290   7.325 -0.3600  0.5018 -0.0494
  632MOL0     C85187   5.977   9.332   7.398  0.4146  0.6522 -0.5819
  632MOL0     O85188   5.992   9.365   7.527  0.3312 -0.6454  0.0991
  632MOL0     C85189   6.108   9.335   7.592  1.0486  0.0030 -1.2564
  632MOL0     C85190   6.108   9.219   7.672 -0.1345  0.1540 -0.7941
  632MOL0     C85191   6.215   9.187   7.748 -0.3471  0.4684 -0.1084
  632MOL0     C85192   6.329   9.265   7.748 -0.0860 -0.2226  1.1249
  632MOL0     O85193   6.443   9.242   7.819  0.6020 -0.2896 -0.2042
  632MOL0     C85194   6.448   9.149   7.929 -0.3673  0.3037 -0.7509
  632MOL0     C85195   6.594   9.147   7.985 -0.7440 -0.4401 -1.3387
  632MOL0     C85196   6.714   9.114   7.895 -0.2430  0.6894  0.2115
  632MOL0     C85197   6.854   9.121   7.973  0.1448 -0.1184 -0.4750
  632MOL0     C85198   6.966   9.101   7.876 -0.5297 -0.6510 -0.0148
  632MOL0     C85199   7.099   9.099   7.948  1.1540  0.1928  0.3431
  632MOL0     C85200   7.222   9.137   7.870 -0.0807 -1.1464  0.0643
  632MOL0     C85201   7.343   9.142   7.961 -0.2640  0.2584  0.0391
  632MOL0     N85202   7.464   9.137   7.877 -0.3192 -0.1014  0.1906
  632MOL0     C85203   7.548   9.033   7.866  0.0970 -0.4042  0.9247
  632MOL0     C85204   7.653   9.087   7.799  0.1899 -0.1337 -0.0415
  632MOL0     C85205   7.781   9.001   7.773  0.1689 -0.2154 -0.3641
  632MOL0     C85206   7.895   9.016   7.872  0.0625 -0.2577  0.1114
  632MOL0     C85207   7.924   9.159   7.884 -0.2753  0.2672  0.4427
  632MOL0     C85208   8.051   9.175   7.973 -0.1337 -0.7747 -0.4728
  632MOL0     O85209   8.123   9.297   7.934  0.1761  0.1363  0.0253
  632MOL0     C85210   8.249   9.271   7.888  0.3416 -0.6881  0.2883
  632MOL0     C85211   8.344   9.352   7.946 -0.6003  0.4116 -0.3294
  632MOL0     C85212   8.475   9.352   7.904  0.5434  0.6027  0.5293
  632MOL0     C85213   8.510   9.264   7.800 -0.6305  0.3579  0.6228
  632MOL0     C85214   8.649   9.248   7.763  0.6507  0.5091 -0.7170
  632MOL0     O85215   8.672   9.149   7.669  0.1656  0.2460 -0.1850
  632MOL0     C85216   8.798   9.140   7.614 -0.4125 -0.4256 -0.0682
  632MOL0     C85217   8.849   9.236   7.521  0.4006  0.1382 -1.1061
  632MOL0     C85218   8.977   9.230   7.482 -0.1803 -0.0741  0.3390
  632MOL0     C85219   9.056   9.121   7.510  0.3987 -0.2104 -0.3383
  632MOL0     O85220   9.188   9.117   7.467  0.7590  0.4740 -0.1541
  632MOL0     C85221   9.208   9.165   7.335  0.5567 -0.6156 -0.3649
  632MOL0     C85222   9.354   9.144   7.311 -0.8837  0.3845 -0.6944
  632MOL0     C85223   9.388   9.174   7.163  0.5401  0.2975  0.2314
  632MOL0     C85224   9.540   9.153   7.139 -0.1244  0.5155  0.0309
  632MOL0     C85225   9.574   9.166   6.991  0.3095 -0.8450 -0.8641
  632MOL0     C85226   9.725   9.163   6.989  0.1885  0.3047  0.2213
  632MOL0     C85227   9.780   9.215   6.861  0.1616 -0.1947  0.9478
  632MOL0     C85228   9.934   9.213   6.865 -0.4199 -0.6721  0.7800
  632MOL0    Cl85229   9.996   9.342   6.973 -0.5153  0.2162  0.4904
  632MOL0     C85230   9.006   9.020   7.593 -0.3790  0.0180 -0.1064
  632MOL0     C85231   8.884   9.036   7.652  0.3772  0.1728 -0.3827
  632MOL0     O85232   8.738   9.309   7.823  0.1287  0.0730  0.3708
  632MOL0     C85233   8.408   9.198   7.731  0.0729  0.1476  0.3150
  632MOL0     C85234   8.275   9.210   7.766 -0.1865  0.2003  0.3904
  632MOL0     N85235   7.613   9.218   7.751  0.3835  0.4631 -0.3049
  632MOL0     N85236   7.500   9.246   7.805  0.7897  0.3729  0.1599
  632MOL0     C85237   6.331   9.378   7.660  0.1359  1.0152 -0.9364
  632MOL0     C85238   6.223   9.410   7.574  0.0228 -0.2366 -0.6664
  632MOL0     C85239   5.838   9.355   7.337 -0.6723  0.8585  0.0843
  632MOL0     C85240   5.820   9.295   7.205  0.5363  0.3622 -0.2644
  632MOL0     C85241   5.697   9.280   7.138  0.2892  0.0388 -0.1300
  632MOL0     C85242   5.585   9.334   7.204 -0.5850  0.3021  0.8227
  632MOL0     O85243   5.465   9.316   7.135 -0.4788  0.2659 -0.0790
  632MOL0     C85244   5.336   9.352   7.207 -0.2510 -0.1479 -0.1894
  632MOL0     C85245   5.202   9.324   7.114 -0.5588  0.3611  0.7110
  632MOL0     C85246   5.184   9.184   7.053  0.3442  0.4555  0.2139
  632MOL0     C85247   5.092   9.173   6.933 -0.3898  0.0852 -0.0180
  632MOL0     C85248   4.958   9.238   6.957  0.3879 -0.3842  0.3620
  632MOL0     C85249   4.847   9.288   6.949  0.2424  0.0174  0.4880
  632MOL0     C85250   5.602   9.405   7.330 -0.5152  0.1120 -0.4034
  632MOL0     C85251   5.728   9.422   7.394 -0.1714  0.0653  0.3391
  632MOL0     C85252   5.733   9.500   7.531  0.0683  0.4355  0.4369
  632MOL0     H85253   6.030   9.144   7.676 -0.1193  0.1171 -1.2597
  632MOL0     H85254   6.222   9.101   7.814  1.7485  0.3780 -0.3789
  632MOL0     H85255   6.376   9.174   8.008  2.8867  1.7121  2.0343
  632MOL0     H85256   6.436   9.051   7.882  3.6292 -0.5333 -0.3924
  632MOL0     H85257   6.617   9.077   8.066 -0.4401  1.1974  0.0469
  632MOL0     H85258   6.608   9.245   8.031 -0.0128 -1.4483  0.7159
  632MOL0     H85259   6.721   9.184   7.811 -0.2527  0.0598 -0.3280
  632MOL0     H85260   6.702   9.013   7.852  1.0630 -0.6818  2.8596
  632MOL0     H85261   6.858   9.217   8.024 -1.1794  1.3620 -2.9752
  632MOL0     H85262   6.843   9.041   8.047 -1.2189  1.4624  1.1193
  632MOL0     H85263   6.946   9.011   7.816 -0.3653 -0.5094 -0.2847
  632MOL0     H85264   6.968   9.187   7.809  3.6508  0.5552  1.3435
  632MOL0     H85265   7.092   9.163   8.037 -0.1595 -0.9597  1.1165
  632MOL0     H85266   7.121   9.000   7.990 -1.1675  0.0038  1.2378
  632MOL0     H85267   7.204   9.237   7.829 -1.8303 -1.6965 -0.6195
  632MOL0     H85268   7.233   9.064   7.789  0.3146  0.3963 -1.3346
  632MOL0     H85269   7.345   9.224   8.033  1.4244 -0.4767  0.8898
  632MOL0     H85270   7.357   9.058   8.029  3.0336 -0.6475 -1.5367
  632MOL0     H85271   7.541   8.938   7.916  0.0066 -0.1420  1.4120
  632MOL0     H85272   7.756   8.895   7.775  3.0981 -1.0388 -1.9923
  632MOL0     H85273   7.824   9.022   7.675 -1.0141  0.9650 -0.6483
  632MOL0     H85274   7.860   8.973   7.967 -0.4595 -0.6926 -0.2653
  632MOL0     H85275   7.978   8.955   7.836 -0.6613 -1.0656 -0.2593
  632MOL0     H85276   7.839   9.218   7.920  1.1740  2.0444  1.0843
  632MOL0     H85277   7.954   9.189   7.784  2.9136  0.0967  1.2615
  632MOL0     H85278   8.119   9.089   7.970  0.1603 -0.6045  0.7448
  632MOL0     H85279   8.010   9.191   8.073  2.0042 -0.8637  0.4747
  632MOL0     H85280   8.321   9.415   8.032  3.6008 -0.2404  1.5225
  632MOL0     H85281   8.550   9.412   7.954  1.1260 -1.3742  2.1471
  632MOL0     H85282   8.804   9.334   7.513  0.4213  0.3423  0.8384
  632MOL0     H85283   9.015   9.315   7.426 -1.3419 -0.8147 -1.7138
  632MOL0     H85284   9.150   9.118   7.256 -0.1228  3.0448 -2.2587
  632MOL0     H85285   9.187   9.272   7.325  0.9041 -0.5409 -0.3043
  632MOL0     H85286   9.408   9.216   7.373 -2.6678  0.6179  0.6466
  632MOL0     H85287   9.385   9.041   7.333 -1.6431  0.6203  1.6896
  632MOL0     H85288   9.325   9.118   7.094  0.4836 -1.6494  1.7675
  632MOL0     H85289   9.363   9.277   7.139  0.5880  0.4453  0.7905
  632MOL0     H85290   9.556   9.053   7.181 -4.1442 -0.7979 -1.1492
  632MOL0     H85291   9.589   9.232   7.196  0.2598 -0.3684  0.9630
  632MOL0     H85292   9.550   9.269   6.961  1.7585 -0.0040  0.6392
  632MOL0     H85293   9.523   9.092   6.929 -1.2657 -1.4447  1.0605
  632MOL0     H85294   9.770   9.226   7.066  1.5475 -0.9022  0.4538
  632MOL0     H85295   9.754   9.061   7.015 -0.8718  0.3078  1.5097
  632MOL0     H85296   9.737   9.312   6.836 -2.9507 -2.2558 -2.8538
  632MOL0     H85297   9.750   9.157   6.773  0.4605 -1.5511  1.7152
  632MOL0     H85298   9.962   9.114   6.903  1.7298 -0.4042 -0.0090
  632MOL0     H85299   9.978   9.228   6.766 -0.8570  3.0393  1.0105
  632MOL0     H85300   9.077   8.940   7.612  0.9770  0.7608 -1.7844
  632MOL0     H85301   8.843   8.963   7.721  3.4309  0.0747  1.5506
  632MOL0     H85302   8.422   9.137   7.643 -1.2002 -1.4728  1.1758
  632MOL0     H85303   8.185   9.173   7.718  0.8857 -1.6134 -0.3227
  632MOL0     H85304   6.419   9.442   7.662  0.6343  0.3426 -0.7315
  632MOL0     H85305   6.227   9.497   7.510  5.6488  0.9513  0.6747
  632MOL0     H85306   5.909   9.246   7.166  2.8084  1.5419  3.0182
  632MOL0     H85307   5.683   9.226   7.046 -0.6129  0.4407 -0.2398
  632MOL0     H85308   5.333   9.457   7.239  4.4203  0.4402 -1.0561
  632MOL0     H85309   5.334   9.281   7.290 -0.4583 -0.0174 -0.0808
  632MOL0     H85310   5.215   9.394   7.032 -1.8712  1.5070  1.4346
  632MOL0     H85311   5.123   9.346   7.187  0.0900 -0.8581  1.8250
  632MOL0     H85312   5.132   9.123   7.127 -0.6829 -1.1245 -1.7032
  632MOL0     H85313   5.280   9.135   7.035 -0.9495 -2.5312  0.8882
  632MOL0     H85314   5.145   9.217   6.848  0.3836  1.0100  0.9226
  632MOL0     H85315   5.077   9.065   6.920  1.0105 -0.1117 -0.0865
  632MOL0     H85316   4.742   9.300   6.935  0.5798  1.9768 -0.8447
  632MOL0     H85317   5.516   9.457   7.370  0.8085  0.9236  1.5677
  632MOL0     H85318   5.764   9.432   7.611 -1.7346  1.1760  1.8498
  632MOL0     H85319   5.793   9.591   7.519  0.0986  0.0576 -3.4066
  632MOL0     H85320   5.631   9.534   7.552  0.8754  4.1167 -0.7512
  633MOL0     O85321   3.994   0.108   7.227  0.2670 -0.4073  0.0409
  633MOL0     C85322   3.953   0.209   7.293 -0.3450  1.0476  1.2727
  633MOL0     O85323   4.017   0.313   7.340 -0.2739  0.9135  0.0780
  633MOL0     C85324   4.147   0.319   7.307 -0.0273  0.7365  0.0030
  633MOL0     C85325   4.191   0.424   7.221  0.2196  0.1498 -0.1724
  633MOL0     C85326   4.326   0.423   7.186  0.1625 -0.5503  0.4112
  633MOL0     C85327   4.414   0.326   7.227  0.3096 -0.5992  1.0851
  633MOL0     O85328   4.547   0.340   7.188 -0.7249  0.3856  0.1210
  633MOL0     C85329   4.637   0.225   7.208 -0.4313 -0.9354  0.3003
  633MOL0     C85330   4.779   0.252   7.163  0.8321  0.0421  0.1274
  633MOL0     C85331   4.827   0.369   7.247 -0.6231 -0.0107 -0.8034
  633MOL0     C85332   4.975   0.398   7.207  0.8888 -0.5723  0.3022
  633MOL0     C85333   5.025   0.517   7.286 -0.8459 -0.4565  0.4187
  633MOL0     C85334   5.172   0.542   7.256 -0.5425  0.8188  0.3729
  633MOL0     C85335   5.240   0.662   7.329  0.1664  0.5349  0.2439
  633MOL0     C85336   5.396   0.670   7.324  0.1502  0.0346 -0.2366
  633MOL0     N85337   5.454   0.785   7.399  0.9011 -0.2468  0.4572
  633MOL0     C85338   5.422   0.912   7.363 -0.5345 -0.1567  0.1988
  633MOL0     C85339   5.497   0.985   7.437  0.1221 -0.3366 -0.2677
  633MOL0     C85340   5.494   1.138   7.420 -0.0364  0.0172 -0.2397
  633MOL0     C85341   5.635   1.184   7.390  0.0292 -0.2024 -0.3796
  633MOL0     C85342   5.633   1.321   7.331 -0.0189 -0.0936  0.5980
  633MOL0     C85343   5.776   1.363   7.296  1.1124 -0.0016  1.4301
  633MOL0     O85344   5.767   1.494   7.238  0.5538  0.6889 -0.2059
  633MOL0     C85345   5.878   1.572   7.266  0.6222  1.0406  0.2371
  633MOL0     C85346   5.858   1.698   7.321  0.5720  0.2224  1.1299
  633MOL0     C85347   5.968   1.777   7.363  0.5204 -0.5259  0.2739
  633MOL0     C85348   6.099   1.733   7.330 -0.5624 -0.0965 -0.6712
  633MOL0     C85349   6.209   1.812   7.370 -0.0829 -1.1324 -0.5818
  633MOL0     O85350   6.184   1.928   7.433  0.1580 -0.0349  0.2229
  633MOL0     C85351   6.294   2.007   7.466  0.3054  0.2787 -0.7017
  633MOL0     C85352   6.394   1.952   7.554 -0.2635 -1.0102  0.2124
  633MOL0     C85353   6.509   2.034   7.564 -0.7341  0.0768 -0.1243
  633MOL0     C85354   6.516   2.168   7.520  0.3550  0.7645  0.1448
  633MOL0     O85355   6.616   2.255   7.533 -0.1217  0.7274 -0.6910
  633MOL0     C85356   6.747   2.221   7.571  0.7947  0.5090  0.5840
  633MOL0     C85357   6.760   2.224   7.727  0.4433  0.2130 -0.1766
  633MOL0     C85358   6.890   2.170   7.774  0.0419  0.2569 -0.6013
  633MOL0     C85359   6.893   2.136   7.921  0.7114  0.6294 -0.0276
  633MOL0     C85360   7.029   2.098   7.987 -0.2448  0.4233  0.4006
  633MOL0     C85361   7.112   2.228   7.998 -0.5487  0.2363 -0.7848
  633MOL0     C85362   7.227   2.213   8.104 -0.7145 -0.6061 -0.2899
  633MOL0     C85363   7.324   2.333   8.108 -1.1549  0.0091  0.4825
  633MOL0    Cl85364   7.456   2.304   8.226  0.0197  0.1086 -0.0060
  633MOL0     C85365   6.418   2.221   7.437  0.3171 -0.4572 -0.5782
  633MOL0     C85366   6.301   2.139   7.415 -0.6071 -0.4893  0.8496
  633MOL0     O85367   6.318   1.775   7.344 -0.0854  0.0867  0.2241
  633MOL0     C85368   6.118   1.606   7.267  0.2579  0.0181  0.6919
  633MOL0     C85369   6.006   1.529   7.226  0.3101  0.1164 -0.4532
  633MOL0     N85370   5.572   0.906   7.525  0.2424  0.4387  0.1399
  633MOL0     N85371   5.543   0.784   7.504 -1.1928 -0.2294  0.3143
  633MOL0     C85372   4.370   0.216   7.303  0.1489  0.2116  0.8360
  633MOL0     C85373   4.238   0.217   7.348 -0.7174  0.1700 -0.4279
  633MOL0     C85374   3.803   0.203   7.321  0.6330 -0.2206 -0.5406
  633MOL0     C85375   3.738   0.081   7.308 -0.9355 -0.0290 -0.0330
  633MOL0     C85376   3.606   0.056   7.318  0.1341  0.0721 -0.3832
  633MOL0     C85377   3.522   0.164   7.353  0.2157  0.1906 -0.4266
  633MOL0     O85378   3.392   0.141   7.369  0.8473  0.3962  0.9674
  633MOL0     C85379   3.305   0.245   7.413  0.3373 -0.3365  0.1416
  633MOL0     C85380   3.171   0.189   7.455 -0.0436 -0.4271 -0.0069
  633MOL0     C85381   3.070   0.301   7.481  0.3299  0.1102  0.8907
  633MOL0     C85382   2.923   0.251   7.511 -0.2168  0.6314  0.2022
  633MOL0     C85383   2.832   0.369   7.510 -0.5372 -0.3092 -0.0849
  633MOL0     C85384   2.756   0.462   7.511  0.2221  0.3298 -0.5998
  633MOL0     C85385   3.582   0.293   7.366  0.6193  0.7394 -0.6191
  633MOL0     C85386   3.719   0.317   7.347  0.0015 -0.3323  0.3608
  633MOL0     C85387   3.772   0.455   7.382  0.2729 -0.0622  0.7781
  633MOL0     H85388   4.121   0.501   7.192 -1.8853 -0.6803  2.3751
  633MOL0     H85389   4.371   0.501   7.127  0.4377 -0.0990  1.2045
  633MOL0     H85390   4.639   0.202   7.315  3.9165  1.0132  0.8663
  633MOL0     H85391   4.592   0.147   7.145  0.5619 -2.3524  1.2684
  633MOL0     H85392   4.783   0.281   7.058 -0.9587  2.0587  0.5713
  633MOL0     H85393   4.831   0.156   7.178  0.4108 -0.1886  0.1128
  633MOL0     H85394   4.804   0.346   7.351  2.3130 -3.2488 -0.6947
  633MOL0     H85395   4.774   0.462   7.220  0.5273  0.0985 -2.9334
  633MOL0     H85396   5.031   0.310   7.240  0.9217 -0.4442  0.5887
  633MOL0     H85397   4.979   0.411   7.098 -1.0790  0.3564  0.3021
  633MOL0     H85398   4.967   0.609   7.272 -1.7269 -0.9667  0.6106
  633MOL0     H85399   5.009   0.494   7.392 -2.5689  1.1817  0.5649
  633MOL0     H85400   5.220   0.445   7.270 -4.0982 -1.1617  0.1563
  633MOL0     H85401   5.181   0.563   7.149 -0.6060 -0.0265  0.1977
  633MOL0     H85402   5.207   0.663   7.434 -0.6781  0.3796 -0.0075
  633MOL0     H85403   5.199   0.755   7.289  1.1045  2.0169  2.4825
  633MOL0     H85404   5.445   0.582   7.368  1.7245 -0.4345 -2.7281
  633MOL0     H85405   5.434   0.673   7.222 -0.3731 -0.7378 -0.4645
  633MOL0     H85406   5.354   0.943   7.285 -1.3852  2.9062  2.0047
  633MOL0     H85407   5.421   1.162   7.343  0.3538  1.6058 -0.1476
  633MOL0     H85408   5.454   1.194   7.505 -2.3259 -0.6550 -0.8141
  633MOL0     H85409   5.700   1.176   7.478 -0.2919 -0.0004 -0.1204
  633MOL0     H85410   5.680   1.129   7.307  1.0107 -0.7699  0.4923
  633MOL0     H85411   5.603   1.390   7.411 -1.7163 -1.3057  1.0677
  633MOL0     H85412   5.562   1.334   7.249 -1.4772  1.2298  1.9806
  633MOL0     H85413   5.821   1.293   7.225  0.6727  1.1266 -0.0145
  633MOL0     H85414   5.840   1.358   7.384 -0.4161 -0.1978  2.5572
  633MOL0     H85415   5.758   1.736   7.341  0.8409  3.0028 -1.9075
  633MOL0     H85416   5.950   1.866   7.422 -0.9718 -0.1627 -0.6923
  633MOL0     H85417   6.389   1.850   7.590  0.3033 -1.2194 -0.2794
  633MOL0     H85418   6.591   2.009   7.632  0.6159  2.1361 -0.9101
  633MOL0     H85419   6.774   2.124   7.529 -0.9675 -0.3891  1.4326
  633MOL0     H85420   6.828   2.288   7.539  3.3481 -1.1427  3.0668
  633MOL0     H85421   6.757   2.332   7.748 -2.2914  0.8984 -3.1763
  633MOL0     H85422   6.671   2.178   7.771  0.0020  1.2314  0.0483
  633MOL0     H85423   6.921   2.082   7.717  0.1811 -0.0219 -0.1044
  633MOL0     H85424   6.966   2.246   7.753  0.4278 -0.1736 -0.7695
  633MOL0     H85425   6.811   2.064   7.929  0.6244  0.8059  0.7965
  633MOL0     H85426   6.855   2.221   7.978  0.9122  0.8138 -0.1652
  633MOL0     H85427   7.079   2.029   7.918  1.7084  0.7305  1.4574
  633MOL0     H85428   7.010   2.045   8.081  3.2261 -3.4841 -0.7863
  633MOL0     H85429   7.150   2.245   7.897  2.6208  1.1932  0.4587
  633MOL0     H85430   7.052   2.318   8.016 -2.6855 -1.0260 -1.2873
  633MOL0     H85431   7.291   2.129   8.076  1.2077  0.5491  0.4350
  633MOL0     H85432   7.189   2.204   8.206 -0.1039 -1.6152 -0.1334
  633MOL0     H85433   7.376   2.352   8.013  0.0245  1.9074  1.4543
  633MOL0     H85434   7.276   2.427   8.136 -0.3026 -0.1659  2.6694
  633MOL0     H85435   6.445   2.311   7.384  0.8903  0.4602  1.1921
  633MOL0     H85436   6.220   2.173   7.351 -2.4022 -1.0752  2.6850
  633MOL0     H85437   6.218   1.569   7.247 -0.0485 -0.0942 -0.6905
  633MOL0     H85438   6.013   1.426   7.193  1.1310 -0.3186  0.9774
  633MOL0     H85439   4.433   0.130   7.324 -0.7659 -1.8915 -3.7328
  633MOL0     H85440   4.199   0.137   7.410 -1.6771  1.1675  0.3057
  633MOL0     H85441   3.796  -0.007   7.286  0.0734  1.5043 -4.4641
  633MOL0     H85442   3.570  -0.045   7.298  3.0001 -1.1593  0.2508
  633MOL0     H85443   3.293   0.320   7.334  0.4236 -0.8073 -0.3277
  633MOL0     H85444   3.352   0.291   7.500  0.2035  0.9294 -0.4286
  633MOL0     H85445   3.182   0.133   7.548  0.3192  0.2952  0.3944
  633MOL0     H85446   3.127   0.124   7.379  0.4208 -0.6770 -0.0694
  633MOL0     H85447   3.054   0.348   7.383  1.5653 -2.3248 -0.5577
  633MOL0     H85448   3.109   0.372   7.555  1.6422  0.8895 -0.4771
  633MOL0     H85449   2.902   0.174   7.435  1.3944 -0.6015  0.9412
  633MOL0     H85450   2.927   0.189   7.602  0.9604 -1.2782 -1.0748
  633MOL0     H85451   2.691   0.547   7.515 -1.1401 -0.6713 -0.5538
  633MOL0     H85452   3.524   0.380   7.393 -1.1364 -1.1798  2.4049
  633MOL0     H85453   3.693   0.529   7.400 -0.0183  0.1970 -1.3374
  633MOL0     H85454   3.833   0.455   7.473 -0.2245  3.9515  1.2884
  633MOL0     H85455   3.832   0.495   7.299 -2.3644  2.7306  0.0261
  634MOL0     O85456   2.787   5.381   2.185  0.3009  0.6420 -0.2844
  634MOL0     C85457   2.776   5.469   2.100  0.0182 -1.0039  0.2561
  634MOL0     O85458   2.879   5.545   2.056 -0.0087  0.2561 -0.5818
  634MOL0     C85459   3.001   5.520   2.112 -0.1587  0.6505 -0.2744
  634MOL0     C85460   3.096   5.459   2.030  1.4611  1.1522  0.0820
  634MOL0     C85461   3.214   5.402   2.089  0.3740 -0.9351  0.9030
  634MOL0     C85462   3.245   5.413   2.222  0.0566 -0.4784 -0.0956
  634MOL0     O85463   3.367   5.361   2.270  0.6138  0.3468  0.2791
  634MOL0     C85464   3.383   5.373   2.417  0.2645  0.1283  0.0038
  634MOL0     C85465   3.482   5.261   2.441 -0.0409 -0.6211  0.8744
  634MOL0     C85466   3.616   5.315   2.403 -0.4449  0.8459  0.8528
  634MOL0     C85467   3.737   5.219   2.422 -0.1490  0.0848  0.2902
  634MOL0     C85468   3.871   5.292   2.406  0.0255 -0.3294  0.0517
  634MOL0     C85469   3.893   5.364   2.278  0.6516  0.8151  0.5487
  634MOL0     C85470   4.036   5.402   2.284  0.1748 -0.2257  0.5056
  634MOL0     C85471   4.092   5.480   2.169 -0.0891  0.2334  0.5797
  634MOL0     N85472   4.238   5.497   2.200 -0.5477  0.2652 -0.1605
  634MOL0     C85473   4.339   5.416   2.144 -0.5207  0.1801  0.3804
  634MOL0     C85474   4.453   5.474   2.186 -0.9957  0.3170 -0.8822
  634MOL0     C85475   4.592   5.417   2.153 -0.2268 -0.3336  0.1645
  634MOL0     C85476   4.683   5.406   2.277  0.4757 -0.2070  0.5709
  634MOL0     C85477   4.825   5.374   2.232  0.6620  0.3618 -0.6845
  634MOL0     C85478   4.909   5.317   2.348 -0.1066  0.0307 -0.0776
  634MOL0     O85479   4.915   5.413   2.462  0.3662 -0.1992  0.0104
  634MOL0     C85480   5.027   5.403   2.532 -0.4916 -0.1817 -0.3933
  634MOL0     C85481   5.114   5.297   2.533 -0.1439  0.3775  0.2217
  634MOL0     C85482   5.213   5.284   2.636 -0.1139  0.5728  0.5245
  634MOL0     C85483   5.234   5.387   2.730 -0.2704 -0.1074  0.4554
  634MOL0     C85484   5.337   5.368   2.834  1.2596 -0.8998 -0.1200
  634MOL0     O85485   5.425   5.264   2.824 -0.2247  0.3014  0.0168
  634MOL0     C85486   5.498   5.219   2.935  0.3435  0.0991  0.1738
  634MOL0     C85487   5.520   5.076   2.943 -0.1649  0.9970 -0.4103
  634MOL0     C85488   5.597   5.024   3.052 -0.4588  0.5071 -0.2320
  634MOL0     C85489   5.647   5.105   3.152  0.0970 -0.8201  0.2443
  634MOL0     O85490   5.705   5.071   3.267 -1.0157 -0.0109  0.2223
  634MOL0     C85491   5.725   4.927   3.292  0.4593  0.7586 -0.3152
  634MOL0     C85492   5.800   4.896   3.427 -0.3142  0.2447 -0.5911
  634MOL0     C85493   5.946   4.924   3.407 -0.0925 -0.2472  0.5845
  634MOL0     C85494   6.045   4.852   3.498  0.1971 -0.1095 -0.0221
  634MOL0     C85495   6.192   4.871   3.460  0.3856  0.0675  0.9112
  634MOL0     C85496   6.284   4.799   3.564  0.1595 -0.7465  0.9645
  634MOL0     C85497   6.434   4.823   3.541 -0.5081  0.3152 -0.5114
  634MOL0     C85498   6.519   4.778   3.665 -0.0701  0.2698  0.4218
  634MOL0    Cl85499   6.508   4.603   3.688  0.1203 -0.6698 -0.1689
  634MOL0     C85500   5.642   5.241   3.135  0.8148 -0.0262 -0.4234
  634MOL0     C85501   5.565   5.299   3.027  0.3041  0.4547 -0.0687
  634MOL0     O85502   5.328   5.444   2.930  0.2019 -0.4188 -0.3112
  634MOL0     C85503   5.142   5.500   2.728 -0.1917 -0.0163 -0.2489
  634MOL0     C85504   5.034   5.491   2.644  0.2697 -0.0007  0.8681
  634MOL0     N85505   4.416   5.584   2.271 -0.3388  0.2819  0.4481
  634MOL0     N85506   4.292   5.588   2.286  0.3783  0.1628 -0.2331
  634MOL0     C85507   3.154   5.492   2.302  0.1877 -0.4314 -0.1046
  634MOL0     C85508   3.037   5.539   2.249  0.3896 -0.9599 -0.6541
  634MOL0     C85509   2.643   5.485   2.037 -0.2473  0.4399 -0.3351
  634MOL0     C85510   2.644   5.529   1.905  0.1191 -0.8408  0.3090
  634MOL0     C85511   2.531   5.524   1.824  0.0299 -0.0651 -0.2615
  634MOL0     C85512   2.410   5.481   1.880  0.3785  0.5879  0.4712
  634MOL0     O85513   2.290   5.483   1.804 -0.1363 -0.1402 -0.1472
  634MOL0     C85514   2.165   5.516   1.863 -0.1316  0.5550 -0.2943
  634MOL0     C85515   2.055   5.471   1.775  0.4903 -0.2310  0.8238
  634MOL0     C85516   1.912   5.484   1.822  0.3388  0.8885 -0.1746
  634MOL0     C85517   1.884   5.614   1.900 -0.1589  0.4210  0.3032
  634MOL0     C85518   1.748   5.601   1.958 -0.2548 -0.0432  0.9066
  634MOL0     C85519   1.630   5.603   2.006  0.0793 -0.2673  0.0129
  634MOL0     C85520   2.404   5.452   2.021 -0.2498  0.0409 -0.5215
  634MOL0     C85521   2.519   5.447   2.099 -0.7130  0.3889  0.4482
  634MOL0     C85522   2.502   5.395   2.236  0.5228  0.3800  0.4582
  634MOL0     H85523   3.071   5.450   1.925  0.6324  2.6771  0.1210
  634MOL0     H85524   3.292   5.355   2.030  1.7794  1.4546  0.7060
  634MOL0     H85525   3.421   5.474   2.438  1.6921 -0.1600 -1.0511
  634MOL0     H85526   3.292   5.334   2.463 -1.2919  0.7873 -2.3209
  634MOL0     H85527   3.448   5.176   2.381  1.4082  0.1261 -1.1141
  634MOL0     H85528   3.489   5.225   2.544 -0.7387  0.5326  1.3321
  634MOL0     H85529   3.643   5.408   2.454  0.1964 -0.3433  2.7603
  634MOL0     H85530   3.603   5.342   2.298  0.6644 -3.3196 -0.5517
  634MOL0     H85531   3.717   5.171   2.518 -2.4901  0.4902  0.0859
  634MOL0     H85532   3.712   5.153   2.338 -1.2450  0.0008  0.6635
  634MOL0     H85533   3.879   5.362   2.490  2.2522 -1.2904  0.6955
  634MOL0     H85534   3.952   5.220   2.415 -0.3393 -0.9480 -1.4221
  634MOL0     H85535   3.879   5.289   2.200  2.4956 -1.6046  2.4073
  634MOL0     H85536   3.824   5.445   2.251 -0.3019 -0.4615 -1.0207
  634MOL0     H85537   4.089   5.306   2.286 -0.0365 -0.3859 -0.7019
  634MOL0     H85538   4.062   5.457   2.375 -1.9571 -0.1776  1.1519
  634MOL0     H85539   4.063   5.415   2.086 -1.1302 -2.1783  2.6727
  634MOL0     H85540   4.050   5.580   2.156 -1.9753 -0.5850 -0.0274
  634MOL0     H85541   4.321   5.337   2.071 -0.3370  1.2595 -0.8606
  634MOL0     H85542   4.582   5.322   2.101  0.0167 -0.2124 -0.1083
  634MOL0     H85543   4.650   5.480   2.085  4.5562 -2.0285  2.2262
  634MOL0     H85544   4.672   5.502   2.327  0.5957 -0.1375  0.4658
  634MOL0     H85545   4.641   5.331   2.344  0.9261 -1.9386 -0.9848
  634MOL0     H85546   4.866   5.468   2.196 -1.9444  3.6219  3.7730
  634MOL0     H85547   4.818   5.302   2.150  0.1367 -0.9558  0.4715
  634MOL0     H85548   5.006   5.291   2.305 -0.6897  0.6559 -1.9032
  634MOL0     H85549   4.859   5.223   2.373  0.7773 -0.8629 -1.5518
  634MOL0     H85550   5.110   5.212   2.466  1.9910  0.1998  0.2408
  634MOL0     H85551   5.267   5.190   2.643  0.5319  0.5495 -2.9231
  634MOL0     H85552   5.481   5.006   2.870  0.4811  0.5340 -0.3179
  634MOL0     H85553   5.601   4.916   3.061  2.3595  0.6355  1.0191
  634MOL0     H85554   5.627   4.878   3.290 -0.4501  2.2398  2.3015
  634MOL0     H85555   5.783   4.873   3.217 -0.8276 -2.3182  0.7409
  634MOL0     H85556   5.757   4.951   3.511  0.2205  1.0363 -0.8170
  634MOL0     H85557   5.797   4.788   3.442 -1.2964  0.0012 -2.2015
  634MOL0     H85558   5.984   4.903   3.306  0.2786 -0.5563  0.7867
  634MOL0     H85559   5.965   5.032   3.412  1.5614 -0.5211  0.7142
  634MOL0     H85560   6.025   4.745   3.487 -2.0902  0.4352 -2.0332
  634MOL0     H85561   6.027   4.885   3.601 -0.0553  2.2381 -0.7730
  634MOL0     H85562   6.212   4.976   3.481 -1.2465  0.2041  1.9535
  634MOL0     H85563   6.221   4.833   3.362  2.7098 -2.5574  2.4503
  634MOL0     H85564   6.262   4.841   3.663 -1.9529 -1.3149  0.7830
  634MOL0     H85565   6.270   4.691   3.565 -2.3789 -0.4966  0.1437
  634MOL0     H85566   6.461   4.926   3.520  0.7282  0.8545  2.9458
  634MOL0     H85567   6.468   4.756   3.461 -1.8230 -0.4276 -0.4700
  634MOL0     H85568   6.622   4.798   3.634 -0.1688  0.7977  0.4325
  634MOL0     H85569   6.496   4.833   3.757  0.7963  4.0102 -1.4077
  634MOL0     H85570   5.684   5.305   3.212 -1.7287 -2.6121  3.5253
  634MOL0     H85571   5.576   5.406   3.012 -0.1167  0.4635 -0.3302
  634MOL0     H85572   5.139   5.574   2.808  2.6150 -0.3170  0.2244
  634MOL0     H85573   4.947   5.552   2.664  0.5243  0.7848 -0.2749
  634MOL0     H85574   3.162   5.515   2.408  2.2051 -0.1395 -0.2719
  634MOL0     H85575   2.965   5.596   2.307 -1.0220 -2.8147 -0.4687
  634MOL0     H85576   2.730   5.565   1.849 -0.3712 -1.1691 -0.6877
  634MOL0     H85577   2.532   5.552   1.719 -1.2583  3.5362  0.5413
  634MOL0     H85578   2.156   5.624   1.874 -1.2755  0.3994  0.5295
  634MOL0     H85579   2.139   5.464   1.956 -1.6854 -2.0481 -2.0411
  634MOL0     H85580   2.073   5.368   1.742 -3.3201 -0.7593 -0.0349
  634MOL0     H85581   2.058   5.529   1.682  1.1684 -0.4926  0.6704
  634MOL0     H85582   1.897   5.404   1.895 -0.3397 -0.1590 -1.4233
  634MOL0     H85583   1.843   5.475   1.738 -0.0805  0.4380  0.2074
  634MOL0     H85584   1.952   5.642   1.981  1.3557 -5.9973  1.8289
  634MOL0     H85585   1.882   5.690   1.822  1.3028 -0.6104 -0.8124
  634MOL0     H85586   1.534   5.619   2.051  0.8872 -2.6466  2.9091
  634MOL0     H85587   2.313   5.411   2.063  1.0186 -4.2255 -1.4224
  634MOL0     H85588   2.569   5.454   2.301 -1.1266  1.0542  1.6145
  634MOL0     H85589   2.396   5.390   2.261  0.2091 -0.0126 -0.8997
  634MOL0     H85590   2.545   5.295   2.230 -1.5768 -0.4931 -1.0485
  635MOL0     O85591   7.433   9.117   4.094 -0.1892 -0.7739 -1.0316
  635MOL0     C85592   7.410   9.154   3.978 -0.0126  0.3804  0.3329
  635MOL0     O85593   7.512   9.201   3.891  0.4925 -0.4514 -0.7864
  635MOL0     C85594   7.646   9.190   3.929 -0.5412  0.0388  0.0110
  635MOL0     C85595   7.707   9.075   3.987 -0.0913 -0.0750 -0.0077
  635MOL0     C85596   7.844   9.086   4.012  0.0005 -0.3896 -0.5271
  635MOL0     C85597   7.921   9.198   3.983  0.1666  0.5555 -0.7818
  635MOL0     O85598   8.054   9.216   4.005  0.1528 -0.8652  0.5757
  635MOL0     C85599   8.132   9.104   4.049 -0.0854  0.3909  0.5946
  635MOL0     C85600   8.282   9.157   4.074 -0.1469 -0.2184 -0.2600
  635MOL0     C85601   8.367   9.037   4.127  0.3247 -0.5503  0.4662
  635MOL0     C85602   8.513   9.084   4.130 -0.0949 -0.8122 -0.1905
  635MOL0     C85603   8.593   8.984   4.217 -0.1780  0.3271  0.1982
  635MOL0     C85604   8.748   8.977   4.201  0.1691 -0.4351  0.1124
  635MOL0     C85605   8.809   9.119   4.171 -0.0736 -0.2436  0.0877
  635MOL0     C85606   8.961   9.101   4.171 -0.1271 -0.7773 -0.4978
  635MOL0     N85607   9.030   9.235   4.151  0.4063  0.1067  0.4341
  635MOL0     C85608   9.061   9.303   4.034  0.1028  0.2873  0.3059
  635MOL0     C85609   9.142   9.407   4.076  0.4173  0.1541 -0.4685
  635MOL0     C85610   9.200   9.509   3.977  1.0946 -0.4166  0.5502
  635MOL0     C85611   9.295   9.438   3.877 -0.6489 -0.3476  0.0180
  635MOL0     C85612   9.434   9.432   3.937  0.2148  1.2607 -0.6610
  635MOL0     C85613   9.551   9.395   3.833  0.4125 -0.7160 -0.2761
  635MOL0     O85614   9.676   9.373   3.904 -0.0949  0.0540 -0.0252
  635MOL0     C85615   9.797   9.366   3.834 -0.1359  0.3480  0.4283
  635MOL0     C85616   9.904   9.327   3.906 -0.0880 -0.3869  0.7012
  635MOL0     C85617  10.024   9.295   3.840  0.2771 -0.6319 -0.1320
  635MOL0     C85618  10.044   9.318   3.704 -0.0566  0.1912 -0.7697
  635MOL0     C85619  10.175   9.289   3.642 -0.0149 -0.6870  0.2196
  635MOL0     O85620  10.280   9.304   3.726  0.1900  0.2500 -0.6482
  635MOL0     C85621  10.403   9.309   3.668  0.0745 -0.5230  0.3868
  635MOL0     C85622  10.471   9.429   3.663  1.0066  0.3732 -1.2794
  635MOL0     C85623  10.603   9.436   3.619 -0.5241  0.6333  0.3041
  635MOL0     C85624  10.679   9.317   3.610  0.2200  0.0914 -0.1380
  635MOL0     O85625  10.810   9.337   3.584 -0.6789 -0.2348  0.6489
  635MOL0     C85626  10.891   9.224   3.544 -0.2120  0.4520  0.1249
  635MOL0     C85627  10.963   9.158   3.673  1.0857  0.0758 -0.2532
  635MOL0     C85628  11.034   9.021   3.648 -0.5389 -0.1524  0.5517
  635MOL0     C85629  11.086   8.976   3.776  0.0244  0.1488  0.2433
  635MOL0     C85630  11.125   8.828   3.763  0.5104  0.2393 -1.0762
  635MOL0     C85631  11.253   8.813   3.675 -0.4480  0.4152  0.5091
  635MOL0     C85632  11.319   8.676   3.686 -0.1764  0.1921  0.6637
  635MOL0     C85633  11.418   8.651   3.568 -0.2231  0.0217 -0.1720
  635MOL0    Cl85634  11.550   8.771   3.547  0.2607 -0.4519 -0.0311
  635MOL0     C85635  10.617   9.198   3.626 -0.3934 -0.1672  0.3789
  635MOL0     C85636  10.477   9.182   3.651 -0.3460  0.0833 -0.0749
  635MOL0     O85637  10.182   9.259   3.527 -0.1721  0.5511 -0.3695
  635MOL0     C85638   9.933   9.369   3.634 -0.3054  0.2864  0.0307
  635MOL0     C85639   9.813   9.398   3.699 -0.0295  0.5136  0.2359
  635MOL0     N85640   9.160   9.402   4.213  0.4807 -0.1519  0.0817
  635MOL0     N85641   9.097   9.293   4.254  0.7400  0.2137 -0.0391
  635MOL0     C85642   7.855   9.317   3.943 -0.0856  0.3400  0.1562
  635MOL0     C85643   7.720   9.308   3.913 -0.0734  0.2073 -0.5737
  635MOL0     C85644   7.266   9.159   3.926 -0.7587  0.0604 -0.0931
  635MOL0     C85645   7.260   9.202   3.791  0.4727 -0.4848 -0.0521
  635MOL0     C85646   7.138   9.217   3.735  1.0545 -0.0584  0.3887
  635MOL0     C85647   7.014   9.196   3.811 -0.9260  0.7815  1.0217
  635MOL0     O85648   6.901   9.213   3.739  0.1374  0.2469 -0.0841
  635MOL0     C85649   6.795   9.124   3.762  0.0054  0.2452 -0.1029
  635MOL0     C85650   6.724   9.115   3.632  0.8883  0.3838  0.7649
  635MOL0     C85651   6.612   9.019   3.622 -0.0920 -0.0620 -0.4583
  635MOL0     C85652   6.504   9.050   3.737 -0.4715 -0.5386  0.0331
  635MOL0     C85653   6.421   9.163   3.698 -0.2304 -0.1391  0.0220
  635MOL0     C85654   6.346   9.253   3.663  0.0097 -0.0879  0.1989
  635MOL0     C85655   7.021   9.150   3.937  0.2940 -0.1322 -0.4050
  635MOL0     C85656   7.151   9.129   3.994  0.8731  1.3990 -0.5574
  635MOL0     C85657   7.157   9.052   4.121 -0.0761  0.8735 -0.3317
  635MOL0     H85658   7.649   8.986   4.008 -0.8065  0.5071  0.5460
  635MOL0     H85659   7.886   9.006   4.072  2.7180 -1.0275 -3.0387
  635MOL0     H85660   8.086   9.049   4.131  0.4967 -0.5958  0.2663
  635MOL0     H85661   8.131   9.036   3.963 -2.0313 -1.4590  1.9647
  635MOL0     H85662   8.260   9.227   4.155 -1.1883  1.2923 -1.7610
  635MOL0     H85663   8.327   9.200   3.984 -0.6083  1.7174  0.3834
  635MOL0     H85664   8.355   8.949   4.063 -1.9592 -0.5494  0.8001
  635MOL0     H85665   8.336   8.996   4.224 -1.5991  0.2273  0.2224
  635MOL0     H85666   8.551   9.087   4.027 -1.0380  1.3051 -0.5165
  635MOL0     H85667   8.531   9.185   4.168  0.3118 -0.8459 -0.2839
  635MOL0     H85668   8.561   8.991   4.321  0.5237 -0.5969  0.4905
  635MOL0     H85669   8.563   8.886   4.178  0.8476  0.6590 -1.5298
  635MOL0     H85670   8.792   8.945   4.296 -0.3416 -0.4906  0.3319
  635MOL0     H85671   8.776   8.904   4.124  0.9160 -2.5001  2.2274
  635MOL0     H85672   8.780   9.189   4.249 -2.1798 -0.3697 -0.5118
  635MOL0     H85673   8.764   9.161   4.080  2.2807  0.7179 -0.7059
  635MOL0     H85674   9.006   9.060   4.262 -3.4588  2.1312  2.8061
  635MOL0     H85675   8.984   9.043   4.081  0.2622  0.1297 -1.0017
  635MOL0     H85676   9.040   9.294   3.927  0.7659 -0.8636  0.2525
  635MOL0     H85677   9.117   9.557   3.924  0.7784 -2.7675 -1.2644
  635MOL0     H85678   9.253   9.587   4.032  0.6538  0.3884 -0.1382
  635MOL0     H85679   9.258   9.341   3.843  0.2755 -2.0111  3.3764
  635MOL0     H85680   9.311   9.507   3.794 -2.8703  0.8816  0.5182
  635MOL0     H85681   9.426   9.358   4.016 -2.1978  1.7272 -0.3863
  635MOL0     H85682   9.460   9.528   3.983 -1.1425  1.7696 -0.8817
  635MOL0     H85683   9.568   9.480   3.767  0.0157 -0.1808  0.2967
  635MOL0     H85684   9.536   9.313   3.763 -0.3000 -0.1399 -0.8084
  635MOL0     H85685   9.900   9.318   4.014 -0.8292  2.0532  0.9518
  635MOL0     H85686  10.105   9.247   3.895 -1.4526 -0.9266  2.3124
  635MOL0     H85687  10.431   9.527   3.685 -0.6053 -0.6117  0.5164
  635MOL0     H85688  10.657   9.529   3.602  0.2359 -0.1114 -1.6808
  635MOL0     H85689  10.841   9.146   3.486  0.8285  1.2660 -1.9777
  635MOL0     H85690  10.965   9.259   3.471  0.1779  1.6757  1.0606
  635MOL0     H85691  11.044   9.224   3.709 -0.0351  0.3131  2.0160
  635MOL0     H85692  10.891   9.146   3.754  2.8173  0.1694  1.3813
  635MOL0     H85693  10.963   8.948   3.607  0.6426 -0.4620 -1.0351
  635MOL0     H85694  11.118   9.028   3.579 -0.4564  0.3204  0.6957
  635MOL0     H85695  10.998   8.974   3.841  0.6267 -0.4599  1.0556
  635MOL0     H85696  11.163   9.045   3.814  0.2636  0.4678 -0.7932
  635MOL0     H85697  11.045   8.773   3.714  0.6216  0.9136 -2.0496
  635MOL0     H85698  11.132   8.784   3.863 -0.5158 -1.6210 -1.7829
  635MOL0     H85699  11.244   8.825   3.567  0.5785  1.2042  0.4914
  635MOL0     H85700  11.332   8.886   3.698  1.4389 -1.5158  0.5806
  635MOL0     H85701  11.249   8.592   3.691  0.2503 -0.6072 -3.2657
  635MOL0     H85702  11.376   8.672   3.779 -2.4402 -1.4295  2.0783
  635MOL0     H85703  11.466   8.555   3.588  4.8395  2.1544 -0.7043
  635MOL0     H85704  11.373   8.631   3.470  0.0873 -0.6022 -0.1895
  635MOL0     H85705  10.671   9.104   3.617  1.3926  0.8447 -0.0019
  635MOL0     H85706  10.444   9.081   3.669  1.5556 -0.8146 -1.3418
  635MOL0     H85707   9.934   9.400   3.530 -3.0518 -1.6386 -0.6780
  635MOL0     H85708   9.731   9.443   3.645 -0.1637 -0.8340 -0.7097
  635MOL0     H85709   7.907   9.411   3.925  2.1155 -1.2601 -2.9084
  635MOL0     H85710   7.660   9.394   3.886 -2.9284 -1.6838 -0.7396
  635MOL0     H85711   7.346   9.217   3.726 -1.4226  0.3257 -2.5181
  635MOL0     H85712   7.132   9.248   3.631  0.1051 -1.0402  0.1298
  635MOL0     H85713   6.736   9.165   3.844 -1.3785  1.6023 -1.7211
  635MOL0     H85714   6.832   9.027   3.799  0.7000  0.1436 -1.0215
  635MOL0     H85715   6.795   9.088   3.553  1.8163  0.0721  1.6840
  635MOL0     H85716   6.692   9.215   3.603  1.8985  0.2444 -0.9957
  635MOL0     H85717   6.650   8.919   3.644  0.1422  0.4192  1.5104
  635MOL0     H85718   6.574   9.017   3.520  2.0327 -2.5767 -1.3176
  635MOL0     H85719   6.450   8.958   3.761 -2.3179  0.5875  0.3638
  635MOL0     H85720   6.559   9.076   3.827  0.3143  2.5563 -1.2167
  635MOL0     H85721   6.290   9.340   3.635  0.4762  0.4113  0.7875
  635MOL0     H85722   6.933   9.120   3.993 -0.8937 -1.4473 -2.8456
  635MOL0     H85723   7.234   8.974   4.112  1.0159  1.8557  0.3093
  635MOL0     H85724   7.192   9.117   4.201 -0.2889  0.4165  0.1424
  635MOL0     H85725   7.061   9.009   4.150  0.3053  1.1872  1.5233
  636MOL0     O85726   9.142  10.669  10.087  0.3017 -0.3047 -0.8216
  636MOL0     C85727   9.049  10.654  10.004  0.4287 -0.3082  0.8787
  636MOL0     O85728   9.039  10.717   9.881  0.5302 -0.3408 -0.1603
  636MOL0     C85729   9.134  10.806   9.834 -1.4463 -0.2287 -0.1570
  636MOL0     C85730   9.090  10.924   9.772  0.3512 -0.2739 -0.4881
  636MOL0     C85731   9.183  11.025   9.729  0.0485  0.0529 -0.0047
  636MOL0     C85732   9.318  11.017   9.762  0.6393  0.1663  0.4379
  636MOL0     O85733   9.401  11.119   9.703  0.6109 -0.1100 -0.3741
  636MOL0     C85734   9.533  11.084   9.680 -0.4783  0.1063  0.2354
  636MOL0     C85735   9.547  10.990   9.565 -0.2011 -0.1600  0.2517
  636MOL0     C85736   9.691  10.962   9.519 -0.9855  0.3100  0.0307
  636MOL0     C85737   9.737  11.055   9.406  0.0861  0.5496 -0.0367
  636MOL0     C85738   9.884  11.048   9.356  0.1836  0.4948 -0.4680
  636MOL0     C85739   9.995  11.070   9.468 -0.3611  0.4090  0.6380
  636MOL0     C85740  10.136  11.049   9.417 -1.0080  0.4758 -0.3855
  636MOL0     C85741  10.248  11.113   9.510  0.8618  0.8081 -0.2491
  636MOL0     N85742  10.392  11.097   9.471  1.0358  0.4260 -0.6031
  636MOL0     C85743  10.485  11.187   9.435  0.3443  0.7412  0.4553
  636MOL0     C85744  10.596  11.114   9.407  0.2813 -0.2451 -0.0014
  636MOL0     C85745  10.727  11.168   9.346 -0.9169  0.0942  0.1432
  636MOL0     C85746  10.835  11.156   9.451 -0.0309  0.5180  0.3289
  636MOL0     C85747  10.790  11.221   9.582  0.2038 -0.3597  0.7394
  636MOL0     C85748  10.897  11.217   9.683 -0.6890  0.3289 -0.3546
  636MOL0     O85749  11.025  11.263   9.637 -0.4277  0.1901 -0.5314
  636MOL0     C85750  11.131  11.177   9.629 -0.7949  0.0415 -0.2226
  636MOL0     C85751  11.227  11.211   9.531 -0.3714 -0.2733  0.2955
  636MOL0     C85752  11.333  11.129   9.514 -0.2760  0.2958 -0.6007
  636MOL0     C85753  11.359  11.015   9.587  0.1701 -0.0332 -0.0015
  636MOL0     C85754  11.468  10.925   9.555 -0.2709 -0.1551  0.7765
  636MOL0     O85755  11.523  10.949   9.428  1.1416 -0.7452  0.1696
  636MOL0     C85756  11.630  10.873   9.388 -0.4630 -0.4446 -0.2725
  636MOL0     C85757  11.610  10.749   9.328 -0.8907  0.1924 -0.8163
  636MOL0     C85758  11.724  10.666   9.299 -0.4829  0.2586  0.2414
  636MOL0     C85759  11.851  10.717   9.337  0.4310 -0.6404  0.2798
  636MOL0     O85760  11.971  10.655   9.297  0.0949  0.2126  0.4220
  636MOL0     C85761  11.975  10.516   9.274  0.1862 -0.1749 -0.4499
  636MOL0     C85762  12.121  10.454   9.291  1.4457  0.5380 -0.5969
  636MOL0     C85763  12.226  10.501   9.197 -0.1105 -0.0242 -0.0637
  636MOL0     C85764  12.371  10.454   9.228 -0.7706 -0.3284 -0.8856
  636MOL0     C85765  12.456  10.507   9.126  0.5124 -1.1612  0.9017
  636MOL0     C85766  12.601  10.510   9.151 -0.3246  0.1480  0.3551
  636MOL0     C85767  12.654  10.362   9.176 -0.8048  0.4808  0.1156
  636MOL0     C85768  12.806  10.345   9.152  0.3911 -1.1994 -0.0201
  636MOL0    Cl85769  12.855  10.181   9.128  0.8965 -0.2880  0.0359
  636MOL0     C85770  11.864  10.840   9.395 -0.1610 -0.2122  0.7527
  636MOL0     C85771  11.755  10.916   9.433  0.5173 -1.1014 -0.1405
  636MOL0     O85772  11.493  10.830   9.629  0.0384 -0.4338 -0.2387
  636MOL0     C85773  11.273  10.990   9.695  0.6788  0.3314  0.3577
  636MOL0     C85774  11.158  11.070   9.715  0.2816 -0.4674  0.4793
  636MOL0     N85775  10.569  10.976   9.423 -0.0832 -0.0541 -0.1885
  636MOL0     N85776  10.447  10.969   9.470 -0.4279  0.3380  0.1514
  636MOL0     C85777   9.366  10.899   9.826  0.2753 -0.6292  0.0260
  636MOL0     C85778   9.273  10.796   9.860  0.3554 -0.2053 -0.0068
  636MOL0     C85779   8.933  10.571  10.044  0.3789 -0.8418  0.6506
  636MOL0     C85780   8.846  10.525   9.939 -0.0194 -0.4183  1.2460
  636MOL0     C85781   8.737  10.453   9.960 -0.2434 -0.3878 -0.9943
  636MOL0     C85782   8.702  10.410  10.086  0.1489 -0.7479 -0.4099
  636MOL0     O85783   8.597  10.325  10.099  0.1675 -0.2192  0.4073
  636MOL0     C85784   8.544  10.286  10.228 -0.1508  0.1582  0.4590
  636MOL0     C85785   8.411  10.218  10.214 -0.8729  0.3777 -1.4159
  636MOL0     C85786   8.339  10.179  10.351  0.7790 -0.2348  1.1071
  636MOL0     C85787   8.365  10.035  10.405 -0.2544  0.4347 -0.1229
  636MOL0     C85788   8.278   9.998  10.527  0.5646 -0.4538  0.0657
  636MOL0     C85789   8.198   9.971  10.614  0.2543  0.0629  0.2336
  636MOL0     C85790   8.793  10.436  10.191 -0.0240  0.0945  0.3566
  636MOL0     C85791   8.906  10.516  10.173  0.2129 -0.1116 -0.0452
  636MOL0     C85792   8.984  10.537  10.300  0.7039  0.2510  0.0189
  636MOL0     H85793   8.987  10.952   9.751  0.3661  0.5239  0.4375
  636MOL0     H85794   9.159  11.117   9.677  2.2802  1.0161  0.5417
  636MOL0     H85795   9.579  11.174   9.639 -1.3824  0.6737  0.4482
  636MOL0     H85796   9.592  11.043   9.763 -1.8830  0.9895  1.7428
  636MOL0     H85797   9.494  11.044   9.487  0.7037  1.6134  0.8193
  636MOL0     H85798   9.500  10.895   9.596  1.7282 -0.0725  4.0753
  636MOL0     H85799   9.699  10.859   9.484 -1.3072  0.4637 -0.5202
  636MOL0     H85800   9.755  10.967   9.608 -0.4987  0.3142 -0.3117
  636MOL0     H85801   9.670  11.042   9.321  1.4722 -0.4194 -1.0115
  636MOL0     H85802   9.720  11.157   9.442 -2.2336 -0.5105  2.2328
  636MOL0     H85803   9.909  10.950   9.315  0.4418 -0.5145  1.9268
  636MOL0     H85804   9.892  11.120   9.275  0.0191 -0.4124 -1.3066
  636MOL0     H85805   9.979  11.173   9.501  0.8034  1.0759 -0.7779
  636MOL0     H85806   9.979  10.998   9.549 -2.1020 -1.2836 -1.0870
  636MOL0     H85807  10.140  11.078   9.311 -3.9704  0.7030 -0.5115
  636MOL0     H85808  10.163  10.943   9.416 -0.0307  0.7147 -0.1829
  636MOL0     H85809  10.227  11.219   9.527 -2.0753  0.0659  1.4603
  636MOL0     H85810  10.243  11.066   9.609  1.9389 -0.6859 -0.8663
  636MOL0     H85811  10.463  11.293   9.425 -0.1878  0.5065 -1.2510
  636MOL0     H85812  10.750  11.103   9.260 -2.3777 -1.6629  1.0023
  636MOL0     H85813  10.709  11.270   9.312  0.0934  0.2919  0.1724
  636MOL0     H85814  10.854  11.049   9.467  1.6814  0.8830  0.9482
  636MOL0     H85815  10.916  11.217   9.412 -1.2609  3.0735  1.5509
  636MOL0     H85816  10.706  11.168   9.628 -1.9690  2.3441  0.1540
  636MOL0     H85817  10.747  11.319   9.559  1.0163  0.2366  1.6785
  636MOL0     H85818  10.899  11.116   9.727  1.1189  1.3884  2.2581
  636MOL0     H85819  10.861  11.274   9.769  0.1719 -0.1475  0.3337
  636MOL0     H85820  11.216  11.302   9.474  0.2409  1.4062  2.6920
  636MOL0     H85821  11.410  11.158   9.443  0.8009 -0.7365  0.1019
  636MOL0     H85822  11.511  10.712   9.303 -0.7759 -0.4194 -0.3897
  636MOL0     H85823  11.704  10.571   9.249  0.3879  0.2251 -0.0505
  636MOL0     H85824  11.899  10.458   9.327 -0.8611  1.2597 -0.2954
  636MOL0     H85825  11.950  10.511   9.167 -1.0407  3.8365 -0.5114
  636MOL0     H85826  12.145  10.456   9.398 -0.3710  2.8422 -0.1499
  636MOL0     H85827  12.106  10.350   9.261  0.9080  0.5724 -0.4614
  636MOL0     H85828  12.193  10.462   9.101  1.1724 -1.7188  0.1331
  636MOL0     H85829  12.218  10.609   9.181 -0.1981  0.0923  0.7214
  636MOL0     H85830  12.375  10.346   9.247  2.9988  0.2408  3.1313
  636MOL0     H85831  12.413  10.499   9.317 -2.5111  1.6681 -1.0127
  636MOL0     H85832  12.426  10.611   9.109 -1.6793 -1.5394  2.0865
  636MOL0     H85833  12.429  10.459   9.032  0.8074 -0.5316  0.4890
  636MOL0     H85834  12.654  10.547   9.063  2.6089  1.5758  2.5328
  636MOL0     H85835  12.628  10.575   9.235  0.3811 -0.3996  0.5723
  636MOL0     H85836  12.607  10.289   9.109 -1.7327 -1.3201  2.6038
  636MOL0     H85837  12.640  10.331   9.280 -0.0546  0.5998  0.2573
  636MOL0     H85838  12.833  10.415   9.072  3.0431 -1.7759  0.2926
  636MOL0     H85839  12.852  10.386   9.242  0.8760 -1.9798  0.0881
  636MOL0     H85840  11.961  10.868   9.435 -0.3367  3.9122 -1.1670
  636MOL0     H85841  11.772  11.002   9.497  1.9817 -1.3157 -0.2206
  636MOL0     H85842  11.278  10.901   9.757 -2.1782 -0.0884  0.1150
  636MOL0     H85843  11.089  11.040   9.793  1.7621 -3.7384  0.7151
  636MOL0     H85844   9.472  10.893   9.849  0.1258 -0.1132  0.8794
  636MOL0     H85845   9.313  10.704   9.901  1.7594  0.6735  0.6809
  636MOL0     H85846   8.860  10.561   9.838 -0.4136 -3.0623  0.1696
  636MOL0     H85847   8.661  10.448   9.883 -1.4011  1.6053 -0.0615
  636MOL0     H85848   8.540  10.378  10.288  0.0919  1.4421 -1.4302
  636MOL0     H85849   8.617  10.219  10.275  0.4934  0.0251 -0.6918
  636MOL0     H85850   8.417  10.134  10.145 -1.0922 -2.5463  1.8421
  636MOL0     H85851   8.340  10.285  10.165 -0.4735  1.7068 -0.2513
  636MOL0     H85852   8.231  10.185  10.336  0.8488 -2.6226 -1.0989
  636MOL0     H85853   8.372  10.251  10.426  0.4612  2.0832 -0.8242
  636MOL0     H85854   8.358   9.959  10.326  1.4919 -0.5626  0.6213
  636MOL0     H85855   8.467  10.036  10.444 -0.0223 -1.9982 -0.5054
  636MOL0     H85856   8.136   9.942  10.696  0.0998  2.2535  0.9491
  636MOL0     H85857   8.763  10.399  10.288 -2.0827  3.0814  1.0135
  636MOL0     H85858   9.091  10.542  10.282  0.8146  3.0506  0.8993
  636MOL0     H85859   8.961  10.635  10.343  2.2923  1.3222 -1.4469
  636MOL0     H85860   8.960  10.455  10.368  0.7533 -0.8826 -1.3053
  637MOL0     O85861   7.306   8.689   0.914 -0.0862  0.0707 -0.1839
  637MOL0     C85862   7.334   8.804   0.877  0.0226  0.3116  0.7916
  637MOL0     O85863   7.459   8.850   0.872 -0.5989  0.7005  0.9944
  637MOL0     C85864   7.556   8.760   0.908 -0.4331  0.0705  0.2336
  637MOL0     C85865   7.647   8.714   0.813 -1.2779 -0.2321  0.8000
  637MOL0     C85866   7.773   8.653   0.847  0.3097 -0.6967  0.9418
  637MOL0     C85867   7.807   8.636   0.977  1.1872 -0.2896  0.5614
  637MOL0     O85868   7.916   8.556   1.001 -0.1610  0.3944 -0.3370
  637MOL0     C85869   8.016   8.633   1.072 -0.0984 -0.4079 -0.6771
  637MOL0     C85870   8.159   8.600   1.040 -0.1350  0.5708  0.5813
  637MOL0     C85871   8.202   8.633   0.901  0.4052 -0.7107 -0.2049
  637MOL0     C85872   8.352   8.611   0.880  0.1332  0.9873  0.6504
  637MOL0     C85873   8.391   8.621   0.725  0.3407 -0.2088  0.2875
  637MOL0     C85874   8.548   8.595   0.696 -0.0881 -0.4506 -0.0611
  637MOL0     C85875   8.587   8.453   0.692 -0.5233 -0.3541  0.3272
  637MOL0     C85876   8.734   8.422   0.726  0.9128 -0.0809  0.2911
  637MOL0     N85877   8.823   8.441   0.611  0.0555 -0.4693  0.5454
  637MOL0     C85878   8.918   8.539   0.607 -0.6781 -0.4457 -0.2564
  637MOL0     C85879   8.979   8.520   0.488 -0.1149 -0.5982  0.3474
  637MOL0     C85880   9.085   8.605   0.417  0.3641 -0.9750  0.0259
  637MOL0     C85881   9.022   8.742   0.392 -0.2727 -0.0218  0.0431
  637MOL0     C85882   9.112   8.849   0.329 -0.2871 -1.2534 -0.1587
  637MOL0     C85883   9.222   8.898   0.432 -0.5727 -0.3547  0.3523
  637MOL0     O85884   9.299   9.015   0.393 -0.0076  0.0787  0.2996
  637MOL0     C85885   9.401   9.042   0.478  1.1505 -1.0935 -1.0907
  637MOL0     C85886   9.370   9.102   0.608 -1.2214  0.0203  0.4150
  637MOL0     C85887   9.471   9.136   0.697  0.6143  0.2359 -0.4660
  637MOL0     C85888   9.611   9.125   0.658  0.0224 -0.2461  0.5928
  637MOL0     C85889   9.729   9.162   0.742  0.4670  0.6452  0.2620
  637MOL0     O85890   9.857   9.140   0.694  0.0156 -0.2402  0.3185
  637MOL0     C85891   9.959   9.218   0.731 -0.2905 -0.4992 -0.1895
  637MOL0     C85892   9.955   9.355   0.701 -0.8669 -0.0045 -0.2037
  637MOL0     C85893  10.060   9.443   0.737 -0.3562  0.0805 -0.2830
  637MOL0     C85894  10.170   9.393   0.813 -0.8559  0.1426  0.1522
  637MOL0     O85895  10.276   9.469   0.862  0.2820 -0.2643 -0.0054
  637MOL0     C85896  10.285   9.601   0.812  0.0880  0.5126  0.4755
  637MOL0     C85897  10.427   9.654   0.851  0.3961  0.0841  0.0374
  637MOL0     C85898  10.539   9.616   0.758  0.4447 -0.2133 -0.7726
  637MOL0     C85899  10.652   9.712   0.779  0.3645  0.4793  0.3066
  637MOL0     C85900  10.762   9.669   0.683 -0.0076 -0.7494  0.0989
  637MOL0     C85901  10.872   9.772   0.671 -0.2406 -0.3118 -0.5546
  637MOL0     C85902  10.982   9.708   0.575  0.0531 -1.0432 -0.5418
  637MOL0     C85903  11.090   9.809   0.546 -0.1778  0.1853  0.1848
  637MOL0    Cl85904  11.224   9.738   0.453 -0.0167  0.1780 -0.1174
  637MOL0     C85905  10.174   9.254   0.845  1.0227  0.6428  0.0717
  637MOL0     C85906  10.065   9.169   0.804 -0.4029  0.0261  0.7069
  637MOL0     O85907   9.694   9.216   0.850 -0.0164 -0.9489 -0.0859
  637MOL0     C85908   9.638   9.073   0.523  0.2257 -0.1620 -0.3076
  637MOL0     C85909   9.532   9.040   0.434  0.8016  0.5780 -0.1918
  637MOL0     N85910   8.923   8.410   0.422  0.1396 -0.8546  0.3315
  637MOL0     N85911   8.829   8.366   0.499 -0.2329  0.1124  0.2446
  637MOL0     C85912   7.721   8.679   1.083 -0.2931  0.6823  0.9014
  637MOL0     C85913   7.596   8.737   1.041 -0.3773 -0.6339 -0.4580
  637MOL0     C85914   7.214   8.897   0.877  0.3857  0.6029 -0.0830
  637MOL0     C85915   7.235   9.033   0.893 -0.0352 -0.3805 -0.3685
  637MOL0     C85916   7.135   9.127   0.928 -0.0663  0.1014 -0.1260
  637MOL0     C85917   7.001   9.090   0.936 -1.4192  0.1404  0.7394
  637MOL0     O85918   6.918   9.191   0.980 -0.1908 -0.0245 -0.3858
  637MOL0     C85919   6.778   9.162   1.004 -0.3964 -0.9420 -0.4139
  637MOL0     C85920   6.692   9.293   0.989  0.8097  0.1965  0.0755
  637MOL0     C85921   6.723   9.422   1.069  0.9805  0.3480 -0.2315
  637MOL0     C85922   6.615   9.526   1.039  0.2546  0.0895  0.0282
  637MOL0     C85923   6.478   9.493   1.091 -0.2357  1.2340 -0.0786
  637MOL0     C85924   6.362   9.474   1.129 -0.8507  0.3856 -1.8338
  637MOL0     C85925   6.974   8.955   0.922  0.3791 -0.3293 -1.5339
  637MOL0     C85926   7.073   8.861   0.901 -0.3518  0.0668  0.4674
  637MOL0     C85927   7.034   8.722   0.904  0.3020  0.3034  0.7169
  637MOL0     H85928   7.628   8.729   0.707 -0.7503 -1.3941  0.5204
  637MOL0     H85929   7.834   8.609   0.769  2.1520  1.0053  1.3674
  637MOL0     H85930   8.013   8.739   1.047 -0.0106  0.4089  2.4687
  637MOL0     H85931   8.008   8.615   1.179  0.5515  1.5490 -0.2757
  637MOL0     H85932   8.160   8.492   1.055 -0.5220  0.5584  0.5389
  637MOL0     H85933   8.224   8.648   1.113  3.9063 -2.7134 -0.4540
  637MOL0     H85934   8.194   8.742   0.889 -1.4134 -0.7338  0.5700
  637MOL0     H85935   8.132   8.592   0.828 -0.9880  3.5537 -1.5816
  637MOL0     H85936   8.404   8.685   0.941  1.8207  1.0184 -0.7294
  637MOL0     H85937   8.379   8.515   0.923  0.1925  0.9432  0.5167
  637MOL0     H85938   8.329   8.546   0.675 -2.1830  0.1936  2.6096
  637MOL0     H85939   8.365   8.720   0.688  1.5142  0.7126  1.7853
  637MOL0     H85940   8.572   8.639   0.599 -1.6007 -1.1355 -0.7797
  637MOL0     H85941   8.606   8.656   0.767 -1.0718 -0.4354  0.7706
  637MOL0     H85942   8.570   8.415   0.591 -4.9878  0.6540  0.4821
  637MOL0     H85943   8.531   8.391   0.763  0.0986 -0.3491  0.8337
  637MOL0     H85944   8.764   8.483   0.813 -1.6153  2.1282 -0.2559
  637MOL0     H85945   8.733   8.319   0.762  0.8862 -1.4912 -3.4152
  637MOL0     H85946   8.952   8.606   0.686  0.3993  0.3415 -1.3493
  637MOL0     H85947   9.170   8.618   0.486  0.6135 -0.4936 -0.3706
  637MOL0     H85948   9.115   8.560   0.322  0.1337  0.2985 -0.6712
  637MOL0     H85949   8.942   8.723   0.319 -0.9356 -0.1390  0.7801
  637MOL0     H85950   8.980   8.784   0.485 -0.5806 -0.3681  0.0612
  637MOL0     H85951   9.048   8.933   0.300 -0.6526 -2.0250 -1.6989
  637MOL0     H85952   9.160   8.812   0.237 -0.3611 -0.5028 -0.5055
  637MOL0     H85953   9.284   8.809   0.445  1.5058  1.2944  2.3358
  637MOL0     H85954   9.166   8.927   0.522 -0.3019  2.9267 -0.4175
  637MOL0     H85955   9.263   9.103   0.630 -1.1383 -1.4181  1.0232
  637MOL0     H85956   9.445   9.174   0.795 -0.4271  0.1589 -0.7060
  637MOL0     H85957   9.871   9.403   0.652  0.4896  0.4557 -2.1875
  637MOL0     H85958  10.045   9.547   0.709 -1.5247  0.2619  0.9453
  637MOL0     H85959  10.265   9.605   0.704 -2.1648  0.5951  0.8331
  637MOL0     H85960  10.208   9.665   0.858 -0.8957 -0.4774  0.2512
  637MOL0     H85961  10.414   9.761   0.869  1.1422 -0.3129  3.9257
  637MOL0     H85962  10.451   9.623   0.953  2.3720 -0.7826 -0.6426
  637MOL0     H85963  10.568   9.513   0.782 -0.9613 -1.0059 -2.2664
  637MOL0     H85964  10.511   9.627   0.653  1.2520  2.0835 -0.7991
  637MOL0     H85965  10.690   9.719   0.881  1.4402  1.1997 -0.1349
  637MOL0     H85966  10.611   9.807   0.744 -3.0489 -0.5400  1.0999
  637MOL0     H85967  10.708   9.666   0.588 -3.2460  0.2489  1.7762
  637MOL0     H85968  10.801   9.569   0.707 -0.3869 -0.5803  1.5235
  637MOL0     H85969  10.832   9.866   0.633 -0.1540  0.2953  0.7841
  637MOL0     H85970  10.916   9.786   0.770 -0.4929 -3.4856  0.1110
  637MOL0     H85971  10.937   9.675   0.481 -0.1277  0.9271 -1.1919
  637MOL0     H85972  11.028   9.627   0.633  1.0790  0.5167  0.9154
  637MOL0     H85973  11.055   9.896   0.490 -1.4247  1.3495  2.6033
  637MOL0     H85974  11.128   9.850   0.640 -2.5016  1.1421  0.7656
  637MOL0     H85975  10.260   9.208   0.891  0.0869 -0.5909  0.6341
  637MOL0     H85976  10.078   9.063   0.826  1.0173  0.0741  0.2171
  637MOL0     H85977   9.742   9.061   0.497  0.1468  0.7650 -1.1006
  637MOL0     H85978   9.548   8.999   0.335  1.7741 -1.0819  0.6018
  637MOL0     H85979   7.740   8.655   1.187 -2.0371 -1.0587  0.8717
  637MOL0     H85980   7.529   8.765   1.122  0.7541 -0.5087  0.4609
  637MOL0     H85981   7.333   9.080   0.891 -0.8220  1.6831  2.6758
  637MOL0     H85982   7.175   9.224   0.955  0.0302 -0.4352  1.8547
  637MOL0     H85983   6.761   9.130   1.108  1.0102  2.8366  1.1483
  637MOL0     H85984   6.739   9.092   0.929 -1.6419  1.4070 -2.0930
  637MOL0     H85985   6.591   9.262   1.019  1.6654 -0.3332  2.6471
  637MOL0     H85986   6.702   9.317   0.883  1.1357 -0.2513  0.0044
  637MOL0     H85987   6.826   9.452   1.047  1.2855 -0.7635 -0.4016
  637MOL0     H85988   6.714   9.396   1.174 -0.4918  0.1827 -0.3733
  637MOL0     H85989   6.653   9.622   1.077  0.1520  0.9225 -1.8403
  637MOL0     H85990   6.605   9.523   0.931  1.2142 -1.3296 -0.0418
  637MOL0     H85991   6.261   9.453   1.159 -1.8377  3.6153 -2.5448
  637MOL0     H85992   6.871   8.925   0.933 -0.0809  1.9761  2.4595
  637MOL0     H85993   7.056   8.679   0.806  0.0893 -2.0619  1.6334
  637MOL0     H85994   7.076   8.652   0.977 -1.6068 -3.1511 -1.2425
  637MOL0     H85995   6.926   8.711   0.915  0.5258 -0.5204  2.4019
  638MOL0     O85996   9.080   5.178   1.251 -0.1929 -0.3440 -0.4103
  638MOL0     C85997   9.013   5.275   1.286 -0.8870  0.0780 -0.2329
  638MOL0     O85998   9.062   5.411   1.287  0.3180  0.1020  0.5870
  638MOL0     C85999   9.192   5.431   1.306  0.0875 -1.2851 -0.3184
  638MOL0     C86000   9.257   5.531   1.239 -1.0357  0.1752 -0.2761
  638MOL0     C86001   9.403   5.548   1.241  0.5664  0.0697  0.1702
  638MOL0     C86002   9.478   5.466   1.327  0.2248  0.1962  0.2365
  638MOL0     O86003   9.610   5.455   1.340 -0.9771  0.0525 -0.0882
  638MOL0     C86004   9.692   5.455   1.219 -1.2430  0.1541  0.1325
  638MOL0     C86005   9.836   5.385   1.240  0.2580 -0.2040 -0.0286
  638MOL0     C86006   9.916   5.450   1.347  0.4443  0.1812 -0.0132
  638MOL0     C86007  10.044   5.374   1.350 -0.3737 -0.6624 -0.1215
  638MOL0     C86008  10.129   5.421   1.469 -0.4457  0.0252  0.3845
  638MOL0     C86009  10.254   5.336   1.478  0.6865  0.6426  0.1079
  638MOL0     C86010  10.335   5.355   1.604 -0.0788  0.3932  0.2729
  638MOL0     C86011  10.456   5.269   1.624 -0.0270 -0.0352 -0.8455
  638MOL0     N86012  10.566   5.278   1.529 -0.2199 -0.2237  0.0124
  638MOL0     C86013  10.567   5.249   1.393 -0.3371  0.0673  0.1628
  638MOL0     C86014  10.691   5.289   1.350 -1.5400  0.0029 -0.2904
  638MOL0     C86015  10.747   5.314   1.214  0.4980 -0.0024 -0.0604
  638MOL0     C86016  10.898   5.350   1.220  0.6003 -0.8346  0.0126
  638MOL0     C86017  10.942   5.384   1.075  0.2112 -0.4916  0.2606
  638MOL0     C86018  10.917   5.530   1.033 -0.3702  0.2058 -0.1224
  638MOL0     O86019  10.988   5.627   1.114 -0.1366 -0.7317  0.8532
  638MOL0     C86020  11.118   5.652   1.071 -0.6622  0.2976 -0.1690
  638MOL0     C86021  11.181   5.759   1.141  0.3504  0.6235  0.2021
  638MOL0     C86022  11.307   5.804   1.104 -0.1116 -0.5331 -0.6754
  638MOL0     C86023  11.383   5.741   1.010 -0.0957  0.5190  0.9790
  638MOL0     C86024  11.521   5.783   0.973 -0.4046 -0.5095 -0.2144
  638MOL0     O86025  11.586   5.722   0.875 -0.4889  0.5283  0.0390
  638MOL0     C86026  11.719   5.757   0.851  0.1297  0.3493 -0.0426
  638MOL0     C86027  11.813   5.663   0.898  1.1367  0.1909 -0.1652
  638MOL0     C86028  11.949   5.680   0.884 -0.4061  0.7341  0.2757
  638MOL0     C86029  11.992   5.800   0.836 -0.0503  0.0204 -0.3978
  638MOL0     O86030  12.127   5.828   0.821  0.4330 -0.4342 -0.0788
  638MOL0     C86031  12.218   5.756   0.902 -0.8225 -0.3991  0.0872
  638MOL0     C86032  12.352   5.822   0.924 -0.0746  1.2138  0.6893
  638MOL0     C86033  12.467   5.754   0.837 -0.0713 -0.5831 -0.2421
  638MOL0     C86034  12.588   5.855   0.840 -0.1954 -0.3660  0.2152
  638MOL0     C86035  12.694   5.799   0.751 -1.1549 -0.1308 -0.4018
  638MOL0     C86036  12.794   5.903   0.709 -0.8786  0.4665 -0.1474
  638MOL0     C86037  12.923   5.844   0.639  0.0049  0.1797  0.1904
  638MOL0     C86038  13.052   5.901   0.702  1.2914  0.6491  0.5530
  638MOL0    Cl86039  13.196   5.878   0.608  0.2930  0.0094 -0.2241
  638MOL0     C86040  11.903   5.891   0.781  0.8057  1.3049  0.5277
  638MOL0     C86041  11.765   5.870   0.786  1.0324  0.5275 -0.3009
  638MOL0     O86042  11.563   5.880   1.033  0.4011  0.0752 -0.9203
  638MOL0     C86043  11.322   5.638   0.938 -0.2257 -0.2346 -0.2171
  638MOL0     C86044  11.191   5.591   0.967 -0.0989  0.7157  0.7085
  638MOL0     N86045  10.763   5.323   1.463 -0.0372 -0.1812  0.5045
  638MOL0     N86046  10.691   5.304   1.565 -0.0296  0.0309  0.7025
  638MOL0     C86047   9.409   5.371   1.405 -0.7551 -0.3639 -0.0597
  638MOL0     C86048   9.272   5.353   1.393 -0.6768  0.6524 -0.9110
  638MOL0     C86049   8.870   5.257   1.306 -0.0812 -0.2353 -0.6719
  638MOL0     C86050   8.786   5.356   1.260 -0.3573 -0.1554  0.7882
  638MOL0     C86051   8.650   5.355   1.288 -0.6447 -0.0565  0.1139
  638MOL0     C86052   8.596   5.249   1.358 -0.0154  0.8335  0.2194
  638MOL0     O86053   8.460   5.240   1.377  0.5449  0.1369  0.2249
  638MOL0     C86054   8.369   5.246   1.260 -1.1309 -0.2020 -0.6191
  638MOL0     C86055   8.239   5.183   1.288  0.0593 -1.1311  0.3598
  638MOL0     C86056   8.134   5.201   1.174  0.5691  1.0064  0.0317
  638MOL0     C86057   8.010   5.112   1.179  0.3992  0.6204  0.3978
  638MOL0     C86058   7.908   5.133   1.080 -0.7244  0.7315 -0.0186
  638MOL0     C86059   7.818   5.157   1.005 -0.1076  0.1098 -0.1536
  638MOL0     C86060   8.681   5.143   1.398  0.4613  0.2570 -0.4999
  638MOL0     C86061   8.814   5.139   1.367 -0.2397 -0.5127  0.9059
  638MOL0     C86062   8.901   5.020   1.421  0.6579 -0.6760 -0.5930
  638MOL0     H86063   9.204   5.608   1.183 -2.3244 -1.3566 -1.2684
  638MOL0     H86064   9.443   5.632   1.184 -2.7343  2.4956  1.1030
  638MOL0     H86065   9.645   5.403   1.135  1.5283  0.3093 -1.6218
  638MOL0     H86066   9.710   5.559   1.191 -2.3708  0.5963  0.9446
  638MOL0     H86067   9.890   5.379   1.145 -0.0356 -1.8880 -0.1311
  638MOL0     H86068   9.827   5.279   1.269 -2.0477  0.0893  0.5615
  638MOL0     H86069   9.861   5.449   1.442  0.2956 -0.0654 -0.1017
  638MOL0     H86070   9.940   5.555   1.330  0.6663  0.0318 -0.6631
  638MOL0     H86071  10.022   5.267   1.355 -0.7576 -0.6520 -1.2326
  638MOL0     H86072  10.109   5.390   1.262  0.4297 -0.7356  0.4458
  638MOL0     H86073  10.161   5.526   1.475  1.2741 -0.5362  2.3390
  638MOL0     H86074  10.069   5.396   1.556  0.6088  0.8291  1.3722
  638MOL0     H86075  10.229   5.230   1.462  2.9374  0.0913 -0.0880
  638MOL0     H86076  10.310   5.364   1.388 -0.2216 -2.0092 -1.4153
  638MOL0     H86077  10.261   5.351   1.685 -0.3592  2.1437  0.1315
  638MOL0     H86078  10.367   5.458   1.616  2.7065 -0.6791  3.6954
  638MOL0     H86079  10.502   5.285   1.722  1.9104 -3.2455 -1.1003
  638MOL0     H86080  10.430   5.164   1.637 -0.3540  0.1362 -0.0789
  638MOL0     H86081  10.485   5.210   1.333  0.0864  1.7876 -1.6426
  638MOL0     H86082  10.744   5.218   1.162  1.3101 -1.8525  2.9970
  638MOL0     H86083  10.682   5.392   1.175  1.0022  2.0979  2.9835
  638MOL0     H86084  10.929   5.431   1.287  2.5978  0.5668 -2.4341
  638MOL0     H86085  10.961   5.264   1.241  1.4316 -1.5223 -4.3342
  638MOL0     H86086  10.901   5.312   1.003 -0.0096  1.0335 -1.1912
  638MOL0     H86087  11.048   5.361   1.070 -0.2869 -2.8560 -2.4902
  638MOL0     H86088  10.809   5.547   1.035 -1.3253 -3.9606 -2.8995
  638MOL0     H86089  10.955   5.540   0.931  2.0311 -2.3475  0.4136
  638MOL0     H86090  11.126   5.809   1.220 -3.5171 -1.5636 -0.8718
  638MOL0     H86091  11.366   5.860   1.176 -1.3956  0.9313 -0.7074
  638MOL0     H86092  11.770   5.579   0.952  1.7661  1.3127  2.2701
  638MOL0     H86093  12.026   5.608   0.910  1.7930  1.8381 -2.6103
  638MOL0     H86094  12.176   5.724   0.998 -0.5857 -1.5987 -0.1895
  638MOL0     H86095  12.244   5.657   0.863 -2.2549 -0.7378 -0.0744
  638MOL0     H86096  12.341   5.928   0.897  0.2170  0.9815 -0.3849
  638MOL0     H86097  12.365   5.812   1.032 -1.6906  1.1648  0.9109
  638MOL0     H86098  12.491   5.660   0.888 -0.1743 -0.4497  0.0565
  638MOL0     H86099  12.430   5.717   0.742 -0.2432  1.6573 -1.1069
  638MOL0     H86100  12.628   5.865   0.941  0.3139 -0.8400  0.0671
  638MOL0     H86101  12.559   5.949   0.791 -0.8366 -0.0817  1.1159
  638MOL0     H86102  12.655   5.748   0.662 -0.5771 -1.0444 -0.1376
  638MOL0     H86103  12.761   5.729   0.801  1.5433  0.5407 -2.7814
  638MOL0     H86104  12.752   5.977   0.640 -1.8012  0.1915  0.1084
  638MOL0     H86105  12.825   5.953   0.801 -0.3368  1.0943 -0.6663
  638MOL0     H86106  12.930   5.859   0.531  0.2265  0.5688  0.2591
  638MOL0     H86107  12.926   5.735   0.652 -0.9601  0.1016 -0.1390
  638MOL0     H86108  13.043   6.010   0.698 -0.4099  0.5364  0.6143
  638MOL0     H86109  13.054   5.862   0.805 -2.7840  0.1466  0.6175
  638MOL0     H86110  11.945   5.979   0.734  2.4027  1.2604  1.7826
  638MOL0     H86111  11.685   5.934   0.749 -0.0920 -0.0514  1.0439
  638MOL0     H86112  11.378   5.596   0.855  1.5265 -0.2396  0.9210
  638MOL0     H86113  11.151   5.510   0.906  1.1103  1.0017 -0.5206
  638MOL0     H86114   9.472   5.308   1.467  0.8544 -1.0039 -2.2613
  638MOL0     H86115   9.226   5.271   1.446  1.9024 -1.6185 -1.9268
  638MOL0     H86116   8.822   5.439   1.201 -3.0172 -1.7505 -3.5271
  638MOL0     H86117   8.585   5.436   1.256 -1.6839 -0.6579  0.6487
  638MOL0     H86118   8.409   5.190   1.175 -0.1410 -0.5823  0.0781
  638MOL0     H86119   8.355   5.350   1.230 -1.7688 -0.3805 -0.9440
  638MOL0     H86120   8.204   5.212   1.387 -5.8673 -2.5309 -0.9524
  638MOL0     H86121   8.264   5.078   1.303 -2.6306 -1.6272  1.9507
  638MOL0     H86122   8.187   5.184   1.080 -1.9537  2.1112 -1.7204
  638MOL0     H86123   8.095   5.303   1.163 -0.2379  0.6838 -0.1951
  638MOL0     H86124   8.034   5.006   1.163 -1.1219 -0.0788  2.4227
  638MOL0     H86125   7.960   5.132   1.274 -1.7932  0.8055 -0.7256
  638MOL0     H86126   7.742   5.168   0.930  0.4423  1.0706 -0.5922
  638MOL0     H86127   8.633   5.064   1.455  0.0605  0.0904 -1.0614
  638MOL0     H86128   8.859   4.993   1.519  2.4427  2.0987  1.0744
  638MOL0     H86129   8.898   4.935   1.352 -0.5239 -0.4230 -0.8744
  638MOL0     H86130   9.007   5.034   1.445 -0.0525  0.2379  2.5720
  639MOL0     O86131   5.200   3.071   2.913  0.1730  0.0742 -0.3716
  639MOL0     C86132   5.125   3.040   2.826 -0.5492  0.1818  0.7195
  639MOL0     O86133   4.992   3.069   2.820  0.2961 -0.4194  0.2920
  639MOL0     C86134   4.907   3.120   2.915  0.1568 -0.4947  0.2241
  639MOL0     C86135   4.932   3.114   3.055 -0.5700  0.3528  1.0752
  639MOL0     C86136   4.828   3.131   3.145 -0.7497 -0.3331  0.6417
  639MOL0     C86137   4.699   3.166   3.110 -0.7163 -0.5928  0.0786
  639MOL0     O86138   4.603   3.193   3.205 -0.5060  0.1960 -0.0578
  639MOL0     C86139   4.544   3.324   3.183  0.1986 -0.3590  0.6178
  639MOL0     C86140   4.467   3.372   3.306  0.3349  0.1448 -0.2243
  639MOL0     C86141   4.367   3.273   3.354  0.4014  0.4128  0.0598
  639MOL0     C86142   4.248   3.251   3.261  0.0719  0.5330  0.1894
  639MOL0     C86143   4.255   3.138   3.159  0.4599  0.2838 -0.4927
  639MOL0     C86144   4.116   3.107   3.087 -0.2584 -0.1781 -0.3791
  639MOL0     C86145   4.037   3.226   3.042  0.1726 -0.1409 -0.1165
  639MOL0     C86146   3.923   3.179   2.962 -0.1511 -0.1378 -0.8719
  639MOL0     N86147   3.819   3.122   3.044  0.4931 -0.4953 -0.2775
  639MOL0     C86148   3.714   3.193   3.108  0.7177  0.2986 -0.8646
  639MOL0     C86149   3.641   3.092   3.151 -0.1995  0.0876 -0.4231
  639MOL0     C86150   3.507   3.116   3.202  0.7001 -0.1333 -0.0022
  639MOL0     C86151   3.502   3.148   3.353  0.3147  0.6410 -0.2742
  639MOL0     C86152   3.355   3.165   3.395  0.2710 -0.2479 -0.6362
  639MOL0     C86153   3.361   3.202   3.543  0.1989  0.5804  0.0445
  639MOL0     O86154   3.448   3.120   3.622  0.0218 -0.2062  0.6834
  639MOL0     C86155   3.549   3.184   3.694  0.3819 -0.1144  0.2431
  639MOL0     C86156   3.670   3.120   3.702  0.1922  0.1674 -0.1795
  639MOL0     C86157   3.773   3.176   3.776 -0.4840 -0.2038 -0.1460
  639MOL0     C86158   3.765   3.292   3.849  0.0695  0.0795  0.2642
  639MOL0     C86159   3.875   3.357   3.917 -0.6114 -0.5357 -0.1044
  639MOL0     O86160   3.998   3.301   3.900 -0.1404  0.2888  0.1192
  639MOL0     C86161   4.095   3.339   3.983  0.1887  0.4831  0.0812
  639MOL0     C86162   4.088   3.329   4.121 -0.0161 -0.1721 -0.0596
  639MOL0     C86163   4.189   3.357   4.214 -0.1248  0.2161 -0.5765
  639MOL0     C86164   4.316   3.394   4.156 -0.4978 -1.3401 -0.1217
  639MOL0     O86165   4.417   3.419   4.242 -0.0842  0.2173 -0.2615
  639MOL0     C86166   4.553   3.452   4.205 -0.2369  0.0881 -0.2568
  639MOL0     C86167   4.642   3.341   4.147 -0.2756  0.2322  0.7761
  639MOL0     C86168   4.785   3.386   4.129  0.2704  0.1377 -0.0085
  639MOL0     C86169   4.866   3.384   4.265 -0.5102  1.3434  0.3467
  639MOL0     C86170   5.014   3.383   4.223 -0.9984 -0.0932  0.2901
  639MOL0     C86171   5.106   3.396   4.347  0.0827  0.4711 -0.0652
  639MOL0     C86172   5.256   3.411   4.303  0.1540 -0.6827 -0.1001
  639MOL0     C86173   5.346   3.385   4.422 -0.2308 -0.5529  0.4865
  639MOL0    Cl86174   5.514   3.446   4.384  0.1527 -0.0213  0.2390
  639MOL0     C86175   4.325   3.422   4.013  0.7756  0.2582 -0.1386
  639MOL0     C86176   4.215   3.392   3.929 -0.3945  0.2202  0.2425
  639MOL0     O86177   3.853   3.454   3.981  0.0475  0.2283 -0.3589
  639MOL0     C86178   3.639   3.359   3.844 -0.4381 -0.0487  0.0117
  639MOL0     C86179   3.532   3.306   3.766 -0.3057  0.0631 -0.0857
  639MOL0     N86180   3.700   2.969   3.132 -0.4460 -0.0828 -0.3207
  639MOL0     N86181   3.808   2.989   3.060  0.3143 -0.0682 -0.8575
  639MOL0     C86182   4.674   3.180   2.975  0.8952 -0.2534  0.3159
  639MOL0     C86183   4.773   3.141   2.887 -0.8777  0.0555  0.3903
  639MOL0     C86184   5.180   2.969   2.707 -0.1877 -0.3380 -0.8935
  639MOL0     C86185   5.081   2.920   2.613 -0.5493  0.4326  0.3524
  639MOL0     C86186   5.124   2.856   2.489 -0.1535 -0.0240  0.0260
  639MOL0     C86187   5.261   2.838   2.460  0.9520 -0.3441  0.0200
  639MOL0     O86188   5.301   2.777   2.346  0.4194  0.4184 -0.1039
  639MOL0     C86189   5.443   2.758   2.312  0.3233 -0.6240 -0.2911
  639MOL0     C86190   5.503   2.893   2.263 -0.2830 -0.2903 -0.5429
  639MOL0     C86191   5.645   2.892   2.231 -0.6981 -0.4530  0.1754
  639MOL0     C86192   5.676   2.884   2.083 -0.0991 -0.5342  0.6611
  639MOL0     C86193   5.812   2.912   2.048 -0.1543 -1.4336  0.0910
  639MOL0     C86194   5.923   2.920   2.010 -1.5578 -0.1244  0.1861
  639MOL0     C86195   5.357   2.879   2.556 -0.6322  0.5798 -1.1860
  639MOL0     C86196   5.318   2.945   2.673  0.3176 -0.1883 -0.1313
  639MOL0     C86197   5.420   3.038   2.741 -0.7378  0.5773  0.1929
  639MOL0     H86198   5.035   3.093   3.085 -0.7774  0.0935  1.6143
  639MOL0     H86199   4.847   3.128   3.252 -0.9875  3.5112  0.9331
  639MOL0     H86200   4.628   3.392   3.169 -1.6387  2.5533  2.7051
  639MOL0     H86201   4.476   3.333   3.099  1.0266  2.1462  0.1404
  639MOL0     H86202   4.424   3.472   3.307 -2.2146 -0.8811  0.7043
  639MOL0     H86203   4.550   3.382   3.377 -0.2730 -0.1649  0.5410
  639MOL0     H86204   4.330   3.319   3.446  0.0928  0.9144 -0.3150
  639MOL0     H86205   4.407   3.173   3.375 -3.6686 -1.3121  0.4882
  639MOL0     H86206   4.151   3.236   3.310  0.5283  0.5799  1.1469
  639MOL0     H86207   4.235   3.341   3.201  0.1958  0.6785  0.3796
  639MOL0     H86208   4.329   3.165   3.083  1.1356  0.0939  0.0983
  639MOL0     H86209   4.285   3.047   3.211 -0.0937 -1.9174 -3.6907
  639MOL0     H86210   4.134   3.051   2.995  0.6422  0.8096 -0.8254
  639MOL0     H86211   4.056   3.037   3.146 -0.2005 -1.2467 -1.5454
  639MOL0     H86212   4.108   3.296   2.998 -1.3292  1.4792 -0.0521
  639MOL0     H86213   4.003   3.274   3.134 -1.9490  1.0614 -1.4683
  639MOL0     H86214   3.876   3.258   2.903 -1.9034 -0.5411 -0.0771
  639MOL0     H86215   3.955   3.103   2.890 -2.7202  0.1337 -2.4071
  639MOL0     H86216   3.684   3.297   3.107 -0.6094 -0.0641 -1.6370
  639MOL0     H86217   3.454   3.193   3.145 -0.2178  0.5954  1.7679
  639MOL0     H86218   3.444   3.027   3.193 -0.0515  0.0242  2.8334
  639MOL0     H86219   3.573   3.079   3.398  0.5372  0.2905 -1.1291
  639MOL0     H86220   3.547   3.245   3.377 -0.4822  0.8213  0.5385
  639MOL0     H86221   3.297   3.075   3.374  1.1443 -1.2212  0.9207
  639MOL0     H86222   3.303   3.240   3.335 -1.3910 -1.2837 -0.5537
  639MOL0     H86223   3.264   3.187   3.590  0.7235  0.6956  1.2081
  639MOL0     H86224   3.380   3.309   3.554 -1.3350  0.7047  1.9483
  639MOL0     H86225   3.684   3.031   3.641  2.8104 -0.3712  1.0745
  639MOL0     H86226   3.870   3.127   3.774 -0.0746  0.2800  2.7605
  639MOL0     H86227   3.993   3.306   4.168 -0.3294 -0.6986 -0.9307
  639MOL0     H86228   4.168   3.355   4.321  3.2861 -2.3778  0.2449
  639MOL0     H86229   4.553   3.539   4.139  0.7390  0.5044  0.2767
  639MOL0     H86230   4.606   3.496   4.290 -0.4193 -0.2796  0.0544
  639MOL0     H86231   4.643   3.245   4.200  0.4468 -0.6357 -0.7403
  639MOL0     H86232   4.610   3.328   4.043  1.4877  0.3038  0.1984
  639MOL0     H86233   4.835   3.320   4.057  0.5570 -0.1398  0.4387
  639MOL0     H86234   4.773   3.486   4.087 -0.1322 -0.0192 -0.2705
  639MOL0     H86235   4.852   3.288   4.316  0.4436 -1.0015 -3.4619
  639MOL0     H86236   4.842   3.469   4.331 -3.2657  2.1557 -1.5221
  639MOL0     H86237   5.026   3.470   4.158 -0.7914  0.3128  0.8638
  639MOL0     H86238   5.032   3.288   4.172 -1.7765 -0.6129  0.9573
  639MOL0     H86239   5.065   3.479   4.404 -3.7075 -0.4349 -1.2039
  639MOL0     H86240   5.091   3.304   4.404  1.9081 -0.7840 -1.4813
  639MOL0     H86241   5.266   3.512   4.263  1.0942 -0.4261  0.7664
  639MOL0     H86242   5.286   3.341   4.224  1.3100 -2.5649  1.9007
  639MOL0     H86243   5.304   3.429   4.514  1.3469  1.6583  0.2408
  639MOL0     H86244   5.347   3.277   4.434 -1.7881 -0.6142  0.2663
  639MOL0     H86245   4.419   3.462   3.978  0.9560  1.6777  1.7727
  639MOL0     H86246   4.231   3.401   3.822  1.9573  0.3917  0.5475
  639MOL0     H86247   3.630   3.443   3.912  0.6663  0.2335 -0.1708
  639MOL0     H86248   3.431   3.344   3.775 -0.1041  0.6024 -0.1004
  639MOL0     H86249   4.579   3.212   2.933  1.4107  0.7704 -0.1083
  639MOL0     H86250   4.756   3.124   2.781 -2.8369  2.0395  0.2990
  639MOL0     H86251   4.975   2.921   2.637 -1.0161 -2.0371 -1.2081
  639MOL0     H86252   5.050   2.822   2.417  1.1701  1.1936 -2.0109
  639MOL0     H86253   5.469   2.682   2.238  3.3333  0.9520 -1.0164
  639MOL0     H86254   5.490   2.729   2.407 -0.7136  0.0468  0.4366
  639MOL0     H86255   5.492   2.967   2.342 -1.9160 -1.4693  0.3930
  639MOL0     H86256   5.459   2.936   2.172  0.8240  2.2182  0.0173
  639MOL0     H86257   5.693   2.802   2.270  0.6954  0.5332  0.8181
  639MOL0     H86258   5.698   2.978   2.274 -0.1827 -0.4695 -0.4155
  639MOL0     H86259   5.655   2.780   2.056  0.2672 -0.8865  1.7030
  639MOL0     H86260   5.606   2.954   2.036  0.2296  0.2141  1.2746
  639MOL0     H86261   6.023   2.919   1.972 -2.1277 -0.7741 -1.3672
  639MOL0     H86262   5.464   2.867   2.547 -0.5045 -0.7665  1.1814
  639MOL0     H86263   5.388   3.143   2.739 -1.7187  0.3416 -3.4600
  639MOL0     H86264   5.430   3.008   2.846 -0.5984 -2.3364 -0.5862
  639MOL0     H86265   5.518   3.034   2.694 -0.3473  1.7937  0.8484
  640MOL0     O86266   3.858   1.928   2.194 -0.1254  0.6538  0.5445
  640MOL0     C86267   3.829   1.844   2.278 -1.0093  0.1341 -0.6181
  640MOL0     O86268   3.925   1.778   2.352 -0.1126 -0.8763  0.3585
  640MOL0     C86269   4.057   1.758   2.309 -0.4095 -0.3567  1.0988
  640MOL0     C86270   4.154   1.727   2.409  0.1247 -1.0657 -0.3383
  640MOL0     C86271   4.283   1.684   2.383 -0.4939  0.4295  1.0134
  640MOL0     C86272   4.318   1.674   2.250 -0.6885  0.5964  0.2544
  640MOL0     O86273   4.439   1.618   2.237 -0.8256  0.4954  0.0248
  640MOL0     C86274   4.472   1.560   2.101  0.3747 -0.1095 -0.5094
  640MOL0     C86275   4.611   1.504   2.091  0.7434 -0.9803  0.1731
  640MOL0     C86276   4.721   1.605   2.104  0.1401 -0.4513  0.0900
  640MOL0     C86277   4.850   1.538   2.046  0.2099  0.1067 -0.1449
  640MOL0     C86278   4.949   1.649   2.039 -1.3775 -0.1578 -0.1595
  640MOL0     C86279   5.076   1.607   1.957  0.1710  0.9730  0.1477
  640MOL0     C86280   5.174   1.541   2.050 -0.1281  0.2515 -0.0637
  640MOL0     C86281   5.286   1.484   1.967  0.5249 -0.4870  0.0764
  640MOL0     N86282   5.393   1.439   2.060  0.0411 -0.2664 -0.0476
  640MOL0     C86283   5.383   1.329   2.147 -0.0897 -0.2338  0.1939
  640MOL0     C86284   5.506   1.336   2.216  0.7766 -0.5632  1.1458
  640MOL0     C86285   5.559   1.236   2.311  0.3623 -0.7143 -0.5181
  640MOL0     C86286   5.547   1.287   2.457 -0.0788  0.4653  0.6215
  640MOL0     C86287   5.638   1.210   2.555  0.0079  0.4951 -0.6707
  640MOL0     C86288   5.789   1.220   2.527  0.5142  0.2853  0.1518
  640MOL0     O86289   5.824   1.112   2.439  0.0005 -0.0925  0.3473
  640MOL0     C86290   5.948   1.116   2.394 -0.7449 -0.2295 -1.2405
  640MOL0     C86291   5.977   1.116   2.259  0.3677  0.2677  0.3937
  640MOL0     C86292   6.113   1.106   2.214 -0.6594 -0.3772  0.3548
  640MOL0     C86293   6.221   1.090   2.305 -0.0602  0.7696 -0.9137
  640MOL0     C86294   6.363   1.086   2.261 -0.7345  0.2131  0.6319
  640MOL0     O86295   6.454   1.020   2.338  0.1306  0.7138 -0.6055
  640MOL0     C86296   6.586   1.015   2.306 -0.5306  0.2219 -0.1044
  640MOL0     C86297   6.626   0.934   2.198  0.4308  0.1944  0.3030
  640MOL0     C86298   6.762   0.931   2.162 -0.1423  0.0796  0.2751
  640MOL0     C86299   6.858   1.011   2.232  0.5823 -0.4426 -0.3313
  640MOL0     O86300   6.992   1.040   2.199  0.5237  0.0481 -0.1392
  640MOL0     C86301   7.075   0.951   2.128  0.2539  0.5809 -0.0458
  640MOL0     C86302   7.220   0.996   2.150 -0.1242 -0.7271  0.2487
  640MOL0     C86303   7.317   0.888   2.094  0.2670  0.5623  0.1743
  640MOL0     C86304   7.464   0.940   2.104  1.2964  0.8780 -0.4247
  640MOL0     C86305   7.546   0.848   2.027 -0.8340  0.5808  0.5889
  640MOL0     C86306   7.697   0.874   2.067 -0.6490 -0.8497 -0.4661
  640MOL0     C86307   7.761   0.990   1.998 -0.3344 -0.4737  0.2719
  640MOL0     C86308   7.915   1.002   2.025  0.1800  1.0754  0.7666
  640MOL0    Cl86309   7.976   1.123   1.911  0.4743  0.0498 -0.3669
  640MOL0     C86310   6.813   1.091   2.347 -0.1584  0.6148 -0.1569
  640MOL0     C86311   6.680   1.094   2.383  0.2105  1.2454  0.2755
  640MOL0     O86312   6.392   1.137   2.150  0.2440  0.9299 -0.0345
  640MOL0     C86313   6.186   1.104   2.443  0.2126  0.1436  0.5344
  640MOL0     C86314   6.059   1.117   2.485  0.0436  0.3540 -0.2225
  640MOL0     N86315   5.592   1.437   2.163 -0.1706 -0.6559 -0.0228
  640MOL0     N86316   5.522   1.497   2.066  0.4615 -0.5834 -1.1919
  640MOL0     C86317   4.230   1.702   2.147  0.2551 -0.3895 -0.6899
  640MOL0     C86318   4.103   1.742   2.177  0.5183  0.2489 -0.2696
  640MOL0     C86319   3.685   1.806   2.302 -0.4339  1.2736  0.2915
  640MOL0     C86320   3.663   1.724   2.416  0.7675 -0.3004 -0.3293
  640MOL0     C86321   3.531   1.704   2.458  0.2855  0.1120  0.0645
  640MOL0     C86322   3.422   1.753   2.381 -1.3910  0.7178 -0.5630
  640MOL0     O86323   3.291   1.726   2.401  0.0339  0.2377 -0.0797
  640MOL0     C86324   3.257   1.635   2.509  0.6358  0.1427  0.7426
  640MOL0     C86325   3.108   1.620   2.502 -0.5449 -0.6415  0.1653
  640MOL0     C86326   3.053   1.584   2.361 -0.2794 -0.3165  0.1453
  640MOL0     C86327   2.906   1.529   2.371 -0.1098  0.7044  0.0948
  640MOL0     C86328   2.832   1.553   2.246  0.2644  0.3751  0.3790
  640MOL0     C86329   2.762   1.573   2.150  0.7133 -0.0597 -0.1504
  640MOL0     C86330   3.455   1.826   2.266  0.9734  0.6796 -0.1873
  640MOL0     C86331   3.580   1.842   2.221  0.0152  0.3689 -1.1625
  640MOL0     C86332   3.594   1.911   2.091 -0.5678 -0.3448  0.2724
  640MOL0     H86333   4.123   1.719   2.513 -2.3499 -1.0546 -1.0141
  640MOL0     H86334   4.356   1.663   2.461 -0.4993 -2.4784  0.3583
  640MOL0     H86335   4.395   1.490   2.068 -1.0143  1.5557 -0.9892
  640MOL0     H86336   4.465   1.641   2.027 -0.9998 -0.7435 -1.1081
  640MOL0     H86337   4.612   1.452   1.995  0.7515  1.2526 -1.1245
  640MOL0     H86338   4.613   1.441   2.180  0.0533  0.7651  1.4783
  640MOL0     H86339   4.737   1.628   2.210 -0.8458  1.6697 -0.1788
  640MOL0     H86340   4.690   1.697   2.052 -0.1178  0.7665  2.2787
  640MOL0     H86341   4.884   1.458   2.113  0.0021  0.1655  0.0340
  640MOL0     H86342   4.832   1.482   1.954  0.1963 -0.7346  0.3495
  640MOL0     H86343   4.903   1.733   1.987  0.4915 -0.1232 -1.8713
  640MOL0     H86344   4.976   1.681   2.140 -0.6278 -0.0145 -0.4013
  640MOL0     H86345   5.038   1.536   1.882 -1.0113 -0.4347  1.9922
  640MOL0     H86346   5.119   1.691   1.901 -1.6603  0.9298 -1.4429
  640MOL0     H86347   5.139   1.462   2.117  1.5984  0.6773  1.4253
  640MOL0     H86348   5.217   1.621   2.111 -1.3713  2.0432 -1.4199
  640MOL0     H86349   5.237   1.401   1.915 -2.1278  0.6367  0.6207
  640MOL0     H86350   5.326   1.560   1.899 -0.5372  0.7839  0.8248
  640MOL0     H86351   5.307   1.252   2.151 -0.5771  0.3022  1.7710
  640MOL0     H86352   5.511   1.139   2.292 -1.8070 -0.2227  1.8331
  640MOL0     H86353   5.663   1.219   2.281  0.0817 -0.7677 -1.4994
  640MOL0     H86354   5.580   1.391   2.461  1.4294  0.0552 -0.3155
  640MOL0     H86355   5.439   1.281   2.477 -0.0286 -4.0076  0.5632
  640MOL0     H86356   5.616   1.103   2.562  1.1469  0.3211  0.6074
  640MOL0     H86357   5.616   1.254   2.653  0.0428 -0.8815 -0.0257
  640MOL0     H86358   5.846   1.213   2.620  1.3143  0.6177 -0.3050
  640MOL0     H86359   5.807   1.318   2.481 -0.3872  1.2405  1.7366
  640MOL0     H86360   5.900   1.118   2.182  0.1950  0.0482  0.5600
  640MOL0     H86361   6.139   1.108   2.108 -1.2955 -0.5676  0.1913
  640MOL0     H86362   6.548   0.874   2.153 -0.1708 -2.0252  3.9844
  640MOL0     H86363   6.798   0.859   2.089  0.2170  0.7853 -0.2512
  640MOL0     H86364   7.061   0.856   2.179  0.0444  0.8420  0.3816
  640MOL0     H86365   7.049   0.959   2.022  0.2314  1.9540  0.0422
  640MOL0     H86366   7.244   1.088   2.096  2.4782 -2.1997 -1.2910
  640MOL0     H86367   7.230   1.024   2.256 -0.2265 -1.5486  0.4821
  640MOL0     H86368   7.296   0.788   2.135 -3.3709  1.0317 -0.2016
  640MOL0     H86369   7.287   0.882   1.989 -0.3306  0.6265  0.3404
  640MOL0     H86370   7.494   0.933   2.209  2.1474  1.2505 -0.6444
  640MOL0     H86371   7.488   1.040   2.068 -0.2862  0.3909 -3.1322
  640MOL0     H86372   7.527   0.864   1.920  0.2122 -0.5712  0.2024
  640MOL0     H86373   7.524   0.747   2.063 -1.1856  0.6419  0.5487
  640MOL0     H86374   7.708   0.884   2.176  1.4019 -1.4918 -0.5832
  640MOL0     H86375   7.757   0.789   2.034  0.0456  0.8371 -3.9321
  640MOL0     H86376   7.716   1.087   2.021  0.8143 -0.1229  1.0860
  640MOL0     H86377   7.747   0.974   1.890 -0.7089  2.8025 -0.2901
  640MOL0     H86378   7.928   1.036   2.129  0.2523  1.7364  0.5517
  640MOL0     H86379   7.960   0.905   2.004 -0.9954  0.5565  0.5874
  640MOL0     H86380   6.892   1.136   2.406  0.7566 -1.0699 -0.0485
  640MOL0     H86381   6.652   1.138   2.479  3.4484  0.1591  1.8452
  640MOL0     H86382   6.263   1.111   2.520  0.4753 -1.1099  0.4079
  640MOL0     H86383   6.038   1.131   2.591  0.2205 -4.3212  0.6825
  640MOL0     H86384   4.242   1.674   2.043  0.9763 -1.8771 -0.2324
  640MOL0     H86385   4.033   1.748   2.094  1.2020 -1.0837 -0.9667
  640MOL0     H86386   3.738   1.685   2.484 -0.3824 -0.7492  0.7298
  640MOL0     H86387   3.518   1.653   2.554  2.8154  0.2138  0.5191
  640MOL0     H86388   3.262   1.670   2.613 -2.3140 -0.5916  1.2290
  640MOL0     H86389   3.291   1.532   2.494 -2.0548 -0.6494 -0.5621
  640MOL0     H86390   3.061   1.707   2.551 -0.9593 -1.1266  0.6423
  640MOL0     H86391   3.085   1.534   2.565  0.1356  0.9042  2.7020
  640MOL0     H86392   3.127   1.518   2.314  0.1293 -1.0411  1.7315
  640MOL0     H86393   3.050   1.684   2.316  0.1698 -0.1732  0.4279
  640MOL0     H86394   2.915   1.422   2.391  4.1922  0.7193 -0.7838
  640MOL0     H86395   2.860   1.579   2.456  1.2079 -0.3615  1.4833
  640MOL0     H86396   2.693   1.587   2.070 -0.4786  0.1403  0.8899
  640MOL0     H86397   3.375   1.851   2.197 -0.1145  1.0903  1.1724
  640MOL0     H86398   3.631   2.014   2.095 -1.7629  0.1065  0.0656
  640MOL0     H86399   3.657   1.854   2.022  1.8983 -1.5920  3.3005
  640MOL0     H86400   3.498   1.912   2.039  0.2963  0.6730 -1.3783
  641MOL0     O86401   8.386   7.653   9.350 -0.3101  0.8621  0.2412
  641MOL0     C86402   8.326   7.757   9.315  0.5349 -0.1083  0.1331
  641MOL0     O86403   8.362   7.833   9.209  0.1576 -0.0688 -0.3559
  641MOL0     C86404   8.471   7.782   9.143 -0.0474 -0.2056  0.1302
  641MOL0     C86405   8.452   7.704   9.029  0.7147  0.2513 -0.5274
  641MOL0     C86406   8.569   7.677   8.952  0.2039  0.5787  0.2392
  641MOL0     C86407   8.701   7.702   8.991  0.6788  0.0804 -0.3654
  641MOL0     O86408   8.817   7.664   8.932 -0.2482  0.2855 -0.5583
  641MOL0     C86409   8.801   7.625   8.800 -0.2414  0.8843  0.8622
  641MOL0     C86410   8.935   7.573   8.750  0.0132 -1.2815  0.4005
  641MOL0     C86411   9.028   7.693   8.706 -0.0577  1.0512  0.2633
  641MOL0     C86412   9.105   7.747   8.826 -0.3491  0.2761 -0.0088
  641MOL0     C86413   9.220   7.837   8.778  0.0147 -0.9069 -0.0051
  641MOL0     C86414   9.179   7.965   8.726  0.0310 -0.1927 -0.6419
  641MOL0     C86415   9.271   8.081   8.756  0.0346  0.6319 -0.1401
  641MOL0     C86416   9.242   8.210   8.668 -0.9238 -0.1983  0.0187
  641MOL0     N86417   9.275   8.200   8.524  0.2045  0.1439 -0.2927
  641MOL0     C86418   9.390   8.235   8.464 -0.6768  0.7779 -0.4445
  641MOL0     C86419   9.379   8.207   8.334 -0.0747 -0.3799  0.5475
  641MOL0     C86420   9.480   8.217   8.226 -0.1440 -0.7261  0.7873
  641MOL0     C86421   9.433   8.291   8.109  0.0820  0.0500  0.9879
  641MOL0     C86422   9.549   8.334   8.013  0.0986 -0.9852 -0.2227
  641MOL0     C86423   9.591   8.226   7.919 -0.3462  0.5455  0.0786
  641MOL0     O86424   9.648   8.275   7.798  0.3016 -0.3161 -0.5964
  641MOL0     C86425   9.784   8.282   7.798 -0.5861 -0.6435 -0.5427
  641MOL0     C86426   9.844   8.202   7.696 -0.5008  0.2452 -0.5004
  641MOL0     C86427   9.979   8.215   7.661 -0.2081  0.3213 -0.9841
  641MOL0     C86428  10.056   8.306   7.732  0.1180  0.7843  0.5764
  641MOL0     C86429  10.200   8.324   7.703 -0.5773 -0.9450 -0.0532
  641MOL0     O86430  10.249   8.248   7.611  0.1956  0.5383 -0.1448
  641MOL0     C86431  10.386   8.258   7.584  0.5172  0.6216 -0.2940
  641MOL0     C86432  10.473   8.160   7.646  0.5838 -0.8459 -0.8742
  641MOL0     C86433  10.610   8.177   7.621  0.4847  0.6812 -0.0088
  641MOL0     C86434  10.659   8.282   7.539 -0.3553 -0.3117 -0.0279
  641MOL0     O86435  10.793   8.290   7.518 -0.1273 -0.5048 -0.1747
  641MOL0     C86436  10.857   8.358   7.403  0.0386  0.0579 -0.0032
  641MOL0     C86437  11.006   8.309   7.401 -0.3514 -0.2679 -0.5399
  641MOL0     C86438  11.079   8.358   7.269 -0.6671 -0.5210 -0.7750
  641MOL0     C86439  11.228   8.334   7.264 -0.2129 -0.8403 -0.4956
  641MOL0     C86440  11.295   8.398   7.141  0.6417 -0.1599  0.3470
  641MOL0     C86441  11.239   8.340   7.011 -0.1542 -0.3914 -0.7591
  641MOL0     C86442  11.339   8.350   6.892  0.3433  0.6214  0.1491
  641MOL0     C86443  11.318   8.250   6.778  0.1504  0.7036  0.4856
  641MOL0    Cl86444  11.301   8.072   6.831 -0.1101  0.2786  0.5366
  641MOL0     C86445  10.574   8.373   7.478  0.4536  0.2215 -0.6053
  641MOL0     C86446  10.436   8.362   7.503 -0.4671 -0.1094 -0.0519
  641MOL0     O86447  10.258   8.421   7.750 -0.0989 -0.5698 -0.6730
  641MOL0     C86448   9.997   8.380   7.835  0.0989 -0.4241 -0.1519
  641MOL0     C86449   9.864   8.377   7.864  0.0973 -0.2581 -0.1728
  641MOL0     N86450   9.245   8.174   8.309 -0.1194  0.1915  0.7236
  641MOL0     N86451   9.183   8.173   8.424  0.9725 -0.3386 -0.0066
  641MOL0     C86452   8.717   7.773   9.108  0.0368  0.3440 -0.5939
  641MOL0     C86453   8.602   7.813   9.186 -0.5834 -0.2176 -0.5520
  641MOL0     C86454   8.202   7.791   9.385  0.6380  0.3637 -0.3297
  641MOL0     C86455   8.089   7.830   9.316 -0.1859 -0.1358  0.0019
  641MOL0     C86456   7.963   7.858   9.376 -0.4685  0.2524 -0.2936
  641MOL0     C86457   7.951   7.842   9.514  0.4246  0.1223  0.8505
  641MOL0     O86458   7.833   7.868   9.583 -0.3286  0.4350 -0.3063
  641MOL0     C86459   7.718   7.918   9.512  0.4895  0.5107 -0.5214
  641MOL0     C86460   7.597   7.918   9.595  0.1022  0.3938  0.4478
  641MOL0     C86461   7.462   7.943   9.516 -0.6213 -0.7803 -0.2236
  641MOL0     C86462   7.438   7.876   9.386 -0.2520  0.3259 -0.5277
  641MOL0     C86463   7.299   7.905   9.348 -1.6166  0.5904 -0.6165
  641MOL0     C86464   7.187   7.936   9.321 -0.4149 -1.0839  0.6178
  641MOL0     C86465   8.059   7.790   9.583  0.8543 -0.5183 -0.0205
  641MOL0     C86466   8.183   7.777   9.527  0.3972 -0.3216  0.6785
  641MOL0     C86467   8.290   7.719   9.614 -0.2820 -0.3910  0.7955
  641MOL0     H86468   8.354   7.672   8.996  0.5797  0.6534 -0.5109
  641MOL0     H86469   8.544   7.627   8.859 -0.3467  3.6487 -1.4000
  641MOL0     H86470   8.736   7.537   8.789 -1.8149  1.9854  1.0753
  641MOL0     H86471   8.768   7.705   8.733  1.0271  1.6969  1.1642
  641MOL0     H86472   8.925   7.512   8.660  0.2187  0.3963 -0.8030
  641MOL0     H86473   8.976   7.517   8.835 -0.6387 -0.8597  1.0089
  641MOL0     H86474   8.977   7.774   8.653  1.6091  0.7348 -1.9608
  641MOL0     H86475   9.088   7.650   8.625 -1.6592 -0.4614 -0.1599
  641MOL0     H86476   9.043   7.803   8.897 -1.8198 -0.3954 -0.7054
  641MOL0     H86477   9.137   7.655   8.875  0.1178  0.1223 -0.5929
  641MOL0     H86478   9.285   7.857   8.864 -0.0268  0.2474 -0.2246
  641MOL0     H86479   9.287   7.782   8.712  1.9435 -1.1006  1.9631
  641MOL0     H86480   9.178   7.968   8.617 -1.0712  2.3023 -0.6215
  641MOL0     H86481   9.078   7.996   8.753  1.0372  3.1545 -0.3059
  641MOL0     H86482   9.378   8.059   8.758 -0.6647 -3.5168  0.2403
  641MOL0     H86483   9.251   8.113   8.859  1.2404 -1.1916  0.7064
  641MOL0     H86484   9.137   8.241   8.672 -2.1779 -3.8755 -0.7367
  641MOL0     H86485   9.302   8.291   8.710 -0.4571 -1.2508  1.4425
  641MOL0     H86486   9.482   8.254   8.517 -0.3250 -2.3231  0.2110
  641MOL0     H86487   9.567   8.275   8.259 -1.0897  2.1691 -1.3547
  641MOL0     H86488   9.514   8.118   8.195  0.5992 -0.7758  1.7199
  641MOL0     H86489   9.359   8.237   8.048 -0.3083  2.4116 -0.7865
  641MOL0     H86490   9.381   8.379   8.148  0.2040 -0.3291  2.0368
  641MOL0     H86491   9.638   8.368   8.067  0.1465 -1.1203 -0.2156
  641MOL0     H86492   9.502   8.412   7.953  1.7853 -1.3641 -2.1450
  641MOL0     H86493   9.501   8.174   7.883 -0.0224  0.6298 -0.8890
  641MOL0     H86494   9.651   8.146   7.963  0.4995  1.7405  1.1454
  641MOL0     H86495   9.777   8.155   7.625 -2.9398  1.3228  0.9291
  641MOL0     H86496  10.028   8.164   7.579  1.1685  0.4531 -0.2726
  641MOL0     H86497  10.427   8.080   7.703  0.0085  0.0896  0.0213
  641MOL0     H86498  10.680   8.109   7.667 -1.3478 -0.2492  1.5588
  641MOL0     H86499  10.806   8.325   7.312 -0.1643 -2.1177  0.8359
  641MOL0     H86500  10.869   8.467   7.408 -1.3743  0.2116  0.3280
  641MOL0     H86501  11.063   8.340   7.489  0.3881 -1.1607 -0.6956
  641MOL0     H86502  11.019   8.201   7.410  0.1884 -0.0282  2.3020
  641MOL0     H86503  11.041   8.300   7.184 -2.3788 -2.5031  1.2117
  641MOL0     H86504  11.045   8.462   7.263 -0.6538 -0.4450  0.3821
  641MOL0     H86505  11.252   8.227   7.260 -1.0187 -1.1692  1.6909
  641MOL0     H86506  11.259   8.386   7.355 -0.8074  0.9534 -1.2650
  641MOL0     H86507  11.404   8.392   7.141  0.6416 -0.3274 -0.9226
  641MOL0     H86508  11.286   8.507   7.146 -0.2586 -0.2773  2.0482
  641MOL0     H86509  11.211   8.235   7.029  0.6421 -0.6578 -1.0160
  641MOL0     H86510  11.143   8.386   6.987  0.4636  0.7302 -1.1449
  641MOL0     H86511  11.440   8.325   6.922  0.2863 -2.5659 -1.8186
  641MOL0     H86512  11.336   8.452   6.851 -3.8698  0.5534 -0.2109
  641MOL0     H86513  11.228   8.273   6.720 -0.3303 -0.2108  0.8395
  641MOL0     H86514  11.397   8.254   6.703 -1.1946 -0.8477 -1.1247
  641MOL0     H86515  10.587   8.452   7.406 -1.8935  0.7317 -0.5469
  641MOL0     H86516  10.353   8.417   7.459 -0.9082  1.1960  2.2524
  641MOL0     H86517  10.066   8.448   7.884 -1.1910  0.8498 -0.0355
  641MOL0     H86518   9.819   8.443   7.937  0.3253 -0.7893  0.4527
  641MOL0     H86519   8.816   7.793   9.148  1.1121 -3.1135 -1.2126
  641MOL0     H86520   8.628   7.877   9.270 -2.9230 -3.9993  3.5045
  641MOL0     H86521   8.104   7.838   9.208 -0.5423 -0.4523 -0.0746
  641MOL0     H86522   7.877   7.890   9.318 -0.5931 -2.5803 -1.7846
  641MOL0     H86523   7.702   7.850   9.427 -0.3767  2.6342 -2.1452
  641MOL0     H86524   7.742   8.011   9.461  2.3063  0.0069 -0.6580
  641MOL0     H86525   7.606   7.993   9.675  0.4359  1.1873 -0.3164
  641MOL0     H86526   7.601   7.818   9.640  2.5265 -0.3111 -1.1315
  641MOL0     H86527   7.445   8.050   9.506 -1.2337 -0.8256  0.2818
  641MOL0     H86528   7.380   7.919   9.584 -0.7580 -0.2176 -0.1900
  641MOL0     H86529   7.504   7.921   9.312 -0.6106  0.4311 -0.7866
  641MOL0     H86530   7.457   7.770   9.407 -1.9399  0.1696  0.3565
  641MOL0     H86531   7.082   7.957   9.313 -0.3731 -1.0216  0.2354
  641MOL0     H86532   8.046   7.762   9.687  3.0567 -1.9349 -0.0755
  641MOL0     H86533   8.371   7.793   9.618 -1.0532  0.5424 -0.3399
  641MOL0     H86534   8.262   7.697   9.718  0.8640  0.2225  1.2488
  641MOL0     H86535   8.327   7.622   9.577  0.6509  0.5590 -0.8691
  642MOL0     O86536   0.653  10.226   0.205 -0.2964  0.1220 -0.2595
  642MOL0     C86537   0.647  10.302   0.300  0.3431 -0.2135 -0.1693
  642MOL0     O86538   0.760  10.326   0.391  0.3910  0.2687  0.1777
  642MOL0     C86539   0.881  10.266   0.357 -0.0192 -0.3216  0.6413
  642MOL0     C86540   0.948  10.189   0.456  0.5286  0.1431 -0.2852
  642MOL0     C86541   1.065  10.125   0.424 -0.7477  0.1828 -0.3959
  642MOL0     C86542   1.126  10.151   0.304 -0.1576 -0.4183  0.5093
  642MOL0     O86543   1.253  10.099   0.286  0.7676 -0.2844 -0.6186
  642MOL0     C86544   1.339  10.151   0.184  0.3767  0.7164 -0.7769
  642MOL0     C86545   1.488  10.106   0.201 -0.2230  0.3708 -0.8641
  642MOL0     C86546   1.600  10.197   0.137 -0.9161 -0.0538 -0.0762
  642MOL0     C86547   1.572  10.233  -0.013  0.1155 -0.1851 -0.4272
  642MOL0     C86548   1.669  10.344  -0.071 -0.2997 -0.2728 -0.6976
  642MOL0     C86549   1.822  10.301  -0.066 -0.2487 -0.7733  0.2787
  642MOL0     C86550   1.855  10.204  -0.177 -0.1011 -1.5407  0.6095
  642MOL0     C86551   2.005  10.171  -0.177  0.6159  0.4542 -1.2019
  642MOL0     N86552   2.088  10.290  -0.214 -0.7105  0.7002 -0.3464
  642MOL0     C86553   2.182  10.348  -0.125 -0.5269  0.6454  0.4350
  642MOL0     C86554   2.259  10.427  -0.197  0.7868  0.6442 -1.0667
  642MOL0     C86555   2.375  10.509  -0.140 -0.2016  0.1888 -0.3594
  642MOL0     C86556   2.510  10.425  -0.168 -0.2862  0.3162  1.0171
  642MOL0     C86557   2.569  10.432  -0.311  0.1011  0.0761 -0.0457
  642MOL0     C86558   2.628  10.574  -0.344  0.2118  0.3362 -0.0944
  642MOL0     O86559   2.695  10.589  -0.471 -0.0690 -0.2578 -0.2737
  642MOL0     C86560   2.824  10.548  -0.486  0.2513  0.2489  1.3104
  642MOL0     C86561   2.879  10.553  -0.618  0.0642 -0.1199 -0.0903
  642MOL0     C86562   3.017  10.515  -0.642 -0.7672 -0.2552  0.2746
  642MOL0     C86563   3.096  10.485  -0.532  0.2685  0.1629  0.5728
  642MOL0     C86564   3.232  10.442  -0.545 -0.6275  0.1225 -0.4141
  642MOL0     O86565   3.312  10.477  -0.435  0.3662 -0.0310  0.2714
  642MOL0     C86566   3.443  10.434  -0.429  0.3085 -0.0811  0.0329
  642MOL0     C86567   3.529  10.393  -0.529  0.4618 -0.6943  0.5643
  642MOL0     C86568   3.663  10.360  -0.508 -0.4621  0.2110  0.9530
  642MOL0     C86569   3.715  10.358  -0.377 -0.0224 -0.1231  0.6583
  642MOL0     O86570   3.847  10.317  -0.365  0.5994  0.2905  0.6905
  642MOL0     C86571   3.899  10.349  -0.232  0.1194 -0.1573  0.5694
  642MOL0     C86572   4.053  10.330  -0.234  0.0031 -0.1001 -0.3028
  642MOL0     C86573   4.124  10.376  -0.104 -0.0444 -0.0741 -0.1077
  642MOL0     C86574   4.273  10.344  -0.106 -0.6919  0.5342  0.2628
  642MOL0     C86575   4.347  10.384   0.026  0.5263  0.1959  0.9398
  642MOL0     C86576   4.493  10.337   0.036 -0.9806 -0.6125 -0.2328
  642MOL0     C86577   4.557  10.425   0.147  0.3248  0.3388  0.2304
  642MOL0     C86578   4.695  10.384   0.196 -0.1259  0.4173 -0.0584
  642MOL0    Cl86579   4.666  10.243   0.301  0.2146  0.0760 -0.0461
  642MOL0     C86580   3.622  10.397  -0.271  0.0556 -0.2173 -0.3490
  642MOL0     C86581   3.491  10.436  -0.299  0.4281  0.0760  0.2546
  642MOL0     O86582   3.259  10.365  -0.636 -0.2750  0.1655  0.4523
  642MOL0     C86583   3.034  10.468  -0.410 -0.6572  0.3861  0.6850
  642MOL0     C86584   2.905  10.498  -0.385  1.2869  0.0844 -0.1768
  642MOL0     N86585   2.224  10.412  -0.328  0.4228  0.1116 -1.0378
  642MOL0     N86586   2.114  10.347  -0.329 -0.6066 -0.4821  0.4126
  642MOL0     C86587   1.069  10.226   0.208  0.2923  0.2070  0.1763
  642MOL0     C86588   0.943  10.286   0.233 -1.1021  0.1072  0.4209
  642MOL0     C86589   0.519  10.374   0.339 -0.9475  0.8495 -0.5190
  642MOL0     C86590   0.525  10.453   0.457 -0.0254  0.3768  0.1546
  642MOL0     C86591   0.412  10.524   0.498  0.4983 -0.5985  0.2052
  642MOL0     C86592   0.286  10.510   0.432  0.5313  0.0679  0.5011
  642MOL0     O86593   0.172  10.575   0.476  0.4776 -0.2863  0.5379
  642MOL0     C86594   0.107  10.545   0.597 -0.6624 -0.2640 -0.0808
  642MOL0     C86595  -0.041  10.505   0.574  0.3441 -0.5887 -0.2139
  642MOL0     C86596  -0.075  10.357   0.552 -0.8789  0.2651 -0.1276
  642MOL0     C86597  -0.016  10.315   0.417 -0.8158 -0.4853 -0.3503
  642MOL0     C86598  -0.085  10.202   0.366 -0.1544 -0.9154 -0.7364
  642MOL0     C86599  -0.148  10.106   0.336  0.5178  0.7098  0.3668
  642MOL0     C86600   0.282  10.436   0.311 -0.2803  0.0975 -0.0059
  642MOL0     C86601   0.397  10.369   0.263  0.1128  0.2131  0.3111
  642MOL0     C86602   0.374  10.287   0.138  0.0165 -0.2718  0.3931
  642MOL0     H86603   0.905  10.188   0.555  1.3903  1.8892  0.1552
  642MOL0     H86604   1.113  10.046   0.481  0.9491 -0.4119 -2.5141
  642MOL0     H86605   1.316  10.123   0.080  1.1884  0.3648 -0.8749
  642MOL0     H86606   1.339  10.261   0.180 -0.2145  0.6866 -2.4414
  642MOL0     H86607   1.501  10.005   0.161  1.4216 -0.1888  0.9131
  642MOL0     H86608   1.499  10.080   0.307  1.2840 -2.9457 -1.6862
  642MOL0     H86609   1.696  10.144   0.144 -0.1351  0.7318 -3.2358
  642MOL0     H86610   1.608  10.289   0.195 -1.1542 -0.1201  0.0615
  642MOL0     H86611   1.558  10.141  -0.071 -1.3645 -0.7464  0.7602
  642MOL0     H86612   1.471  10.274  -0.022  0.5990  0.8307 -1.4870
  642MOL0     H86613   1.640  10.359  -0.176 -0.3346  2.1172 -0.4153
  642MOL0     H86614   1.655  10.431  -0.006 -1.0092 -0.4678 -0.5817
  642MOL0     H86615   1.871  10.398  -0.079 -2.1270  0.8336  3.7758
  642MOL0     H86616   1.842  10.269   0.037 -3.5049  0.5288  1.4390
  642MOL0     H86617   1.825  10.240  -0.276 -1.4461 -2.4068  0.6725
  642MOL0     H86618   1.802  10.109  -0.166  1.1721 -2.3018  0.3745
  642MOL0     H86619   2.034  10.134  -0.077  0.6407  0.9070 -1.0421
  642MOL0     H86620   2.018  10.088  -0.247 -0.6785 -1.2765  0.4906
  642MOL0     H86621   2.200  10.327  -0.021 -1.3723 -0.4911  0.3642
  642MOL0     H86622   2.387  10.608  -0.185 -1.7037  0.2062 -0.7918
  642MOL0     H86623   2.347  10.520  -0.035 -3.2658  5.4378 -1.3801
  642MOL0     H86624   2.596  10.431  -0.101  1.2086  1.6741 -0.9041
  642MOL0     H86625   2.484  10.320  -0.153  3.4873 -0.4385  3.8468
  642MOL0     H86626   2.490  10.427  -0.386 -0.3140  0.6543  0.3438
  642MOL0     H86627   2.642  10.353  -0.329  1.8489  1.7494 -0.6966
  642MOL0     H86628   2.687  10.618  -0.263  0.2678 -1.9853  1.2126
  642MOL0     H86629   2.534  10.628  -0.356 -0.4888 -0.9076 -0.3411
  642MOL0     H86630   2.814  10.594  -0.694 -1.5320 -1.3276  0.5667
  642MOL0     H86631   3.064  10.525  -0.739 -1.5457 -1.5856 -0.2583
  642MOL0     H86632   3.501  10.382  -0.634  1.5543 -2.8464  0.4497
  642MOL0     H86633   3.732  10.337  -0.589 -2.5534  2.6464 -1.7297
  642MOL0     H86634   3.876  10.452  -0.203 -0.7057 -0.5021  1.1786
  642MOL0     H86635   3.854  10.290  -0.152 -0.5545 -0.8858 -0.3184
  642MOL0     H86636   4.073  10.223  -0.241 -0.0202 -0.1406  0.2188
  642MOL0     H86637   4.086  10.382  -0.325 -0.2493  0.5380 -0.0386
  642MOL0     H86638   4.110  10.483  -0.086  0.0110 -0.0014 -0.4904
  642MOL0     H86639   4.081  10.323  -0.019 -1.2685 -3.0323 -2.3817
  642MOL0     H86640   4.314  10.394  -0.194  0.9565 -4.3780 -2.1384
  642MOL0     H86641   4.278  10.239  -0.136 -0.1462  0.8748 -0.8687
  642MOL0     H86642   4.294  10.336   0.109 -0.0584  0.6372  0.8219
  642MOL0     H86643   4.350  10.493   0.029  0.3290  0.2370 -0.2225
  642MOL0     H86644   4.496  10.232   0.067  0.9795  0.5468  4.4463
  642MOL0     H86645   4.559  10.348  -0.050  2.6083 -1.1742  2.2371
  642MOL0     H86646   4.494  10.420   0.236 -1.3046  0.3490 -0.8761
  642MOL0     H86647   4.564  10.526   0.106  0.4761  0.9975  1.8234
  642MOL0     H86648   4.769  10.351   0.124  1.0786 -4.3267  2.9204
  642MOL0     H86649   4.722  10.467   0.262  0.0767  0.4789 -0.2205
  642MOL0     H86650   3.649  10.407  -0.166  2.1311  2.5831 -1.0057
  642MOL0     H86651   3.430  10.479  -0.220 -0.4137  0.6259 -0.6653
  642MOL0     H86652   3.089  10.435  -0.322  0.1919  0.6747  0.2664
  642MOL0     H86653   2.859  10.497  -0.287  2.5993  0.5258  0.4791
  642MOL0     H86654   1.121  10.243   0.114 -0.0059 -1.8453 -0.3934
  642MOL0     H86655   0.895  10.353   0.163 -2.6159  0.1674  1.4499
  642MOL0     H86656   0.619  10.465   0.510  0.4574  2.5168 -1.0700
  642MOL0     H86657   0.423  10.588   0.585  2.8844  2.3655 -2.0273
  642MOL0     H86658   0.105  10.634   0.660  1.4580  1.7142 -2.6269
  642MOL0     H86659   0.162  10.461   0.642 -0.2461  0.2131  0.3037
  642MOL0     H86660  -0.081  10.559   0.488 -1.1660  0.6594  1.2016
  642MOL0     H86661  -0.095  10.538   0.664  0.0144 -1.0359 -0.2471
  642MOL0     H86662  -0.183  10.345   0.549 -0.9901  1.2317 -2.5302
  642MOL0     H86663  -0.049  10.291   0.635 -2.2651 -0.0910  0.0452
  642MOL0     H86664  -0.017  10.407   0.358  4.7114  1.0309  1.3269
  642MOL0     H86665   0.089  10.291   0.433  0.1113  2.1499 -1.8562
  642MOL0     H86666  -0.188  10.008   0.319  0.7097  0.5516  0.8078
  642MOL0     H86667   0.191  10.438   0.252 -0.2074 -2.3051 -0.2805
  642MOL0     H86668   0.373  10.181   0.164 -1.9582 -0.5098 -0.4877
  642MOL0     H86669   0.286  10.310   0.077  0.2921 -0.5063 -0.1059
  642MOL0     H86670   0.459  10.309   0.072  2.2134 -0.6444  2.9127
  643MOL0     O86671   0.643   8.377   1.390 -0.2073  0.0090  0.5237
  643MOL0     C86672   0.683   8.344   1.279  0.5237  0.7821 -0.2525
  643MOL0     O86673   0.788   8.399   1.205 -0.2613 -0.2306  0.2063
  643MOL0     C86674   0.845   8.517   1.244 -0.1349  0.2621 -0.5969
  643MOL0     C86675   0.991   8.519   1.253 -0.2097 -0.8487  0.3981
  643MOL0     C86676   1.054   8.637   1.307 -0.0867  0.4496  0.2808
  643MOL0     C86677   0.972   8.744   1.342 -0.5938 -0.2236  0.0485
  643MOL0     O86678   1.020   8.853   1.408  0.4743 -0.7022 -0.2028
  643MOL0     C86679   1.161   8.875   1.438 -0.5315  0.1553 -0.3907
  643MOL0     C86680   1.164   9.026   1.434 -0.1510  0.7319  0.7114
  643MOL0     C86681   1.293   9.087   1.482  0.0172  0.6531  0.0560
  643MOL0     C86682   1.275   9.229   1.523  0.0673  0.1041  0.7744
  643MOL0     C86683   1.406   9.278   1.598  0.5015  1.2483  0.3025
  643MOL0     C86684   1.375   9.393   1.683  0.1622 -0.1638 -0.2345
  643MOL0     C86685   1.309   9.510   1.614  0.3628  0.4233 -0.2897
  643MOL0     C86686   1.297   9.619   1.712 -0.1104 -0.9099  0.1048
  643MOL0     N86687   1.233   9.739   1.651  0.4311  0.5137  0.5673
  643MOL0     C86688   1.111   9.745   1.587  0.3629 -0.4484  0.4511
  643MOL0     C86689   1.098   9.880   1.559  0.1945  0.1085  0.3793
  643MOL0     C86690   0.982   9.940   1.485  0.3541 -1.0830 -0.0483
  643MOL0     C86691   0.935  10.072   1.557 -1.2939 -0.0617 -0.4615
  643MOL0     C86692   0.806  10.116   1.497  0.1314 -0.6361 -0.1487
  643MOL0     C86693   0.676  10.027   1.513 -0.2255  0.6790 -0.1330
  643MOL0     O86694   0.633  10.030   1.651 -0.3009 -0.2704  0.1810
  643MOL0     C86695   0.521   9.955   1.678 -0.3497 -0.0920 -0.8567
  643MOL0     C86696   0.500   9.922   1.816 -0.5003  0.1820  0.4104
  643MOL0     C86697   0.410   9.822   1.859  0.5591  0.9351 -0.2006
  643MOL0     C86698   0.320   9.764   1.768  0.5010  0.8093 -0.3104
  643MOL0     C86699   0.218   9.669   1.813 -0.3636  0.0601 -0.1582
  643MOL0     O86700   0.123   9.635   1.722 -0.1259  0.8968  0.6379
  643MOL0     C86701   0.038   9.541   1.770  0.2147  0.3546  0.3788
  643MOL0     C86702  -0.102   9.558   1.762  0.8436 -0.3027  0.5675
  643MOL0     C86703  -0.195   9.457   1.790  0.0612 -1.4286 -0.7053
  643MOL0     C86704  -0.150   9.334   1.841 -1.1357 -1.4739  0.1419
  643MOL0     O86705  -0.236   9.234   1.875  1.0394 -0.8312  0.6705
  643MOL0     C86706  -0.360   9.223   1.804 -0.3744  0.1470  0.0750
  643MOL0     C86707  -0.425   9.100   1.873  0.3833 -0.5084 -0.4334
  643MOL0     C86708  -0.574   9.096   1.825  0.3465  0.4978  0.3833
  643MOL0     C86709  -0.627   8.947   1.837  0.5926 -0.1695  0.6357
  643MOL0     C86710  -0.779   8.940   1.809  0.3288 -0.6339 -0.0472
  643MOL0     C86711  -0.813   8.796   1.838  0.1622 -0.7314 -1.1912
  643MOL0     C86712  -0.960   8.788   1.887  0.3947 -0.5909  0.4098
  643MOL0     C86713  -1.001   8.658   1.957 -0.2227 -0.0808  0.3609
  643MOL0    Cl86714  -1.001   8.519   1.842  0.3798 -0.2058  0.2000
  643MOL0     C86715  -0.014   9.319   1.846 -0.2487  0.6805 -0.1042
  643MOL0     C86716   0.078   9.414   1.815 -0.2382  0.2967  0.6081
  643MOL0     O86717   0.228   9.638   1.933 -0.2306  0.1981  0.2962
  643MOL0     C86718   0.343   9.796   1.632  0.2750  0.1843  0.1488
  643MOL0     C86719   0.438   9.889   1.586  0.0623 -0.1467 -0.9270
  643MOL0     N86720   1.206   9.948   1.618  0.2528  1.3751  0.3937
  643MOL0     N86721   1.282   9.861   1.671 -0.2864 -0.1872  0.0549
  643MOL0     C86722   0.832   8.741   1.327 -0.8040 -0.7341 -0.0638
  643MOL0     C86723   0.772   8.624   1.282  0.7048  0.0906 -0.1472
  643MOL0     C86724   0.642   8.207   1.235  0.1840 -0.3125 -0.9899
  643MOL0     C86725   0.749   8.116   1.216 -0.1795 -0.1992  0.4167
  643MOL0     C86726   0.729   7.978   1.201 -0.4791 -1.0962 -1.0292
  643MOL0     C86727   0.596   7.937   1.211  0.0669  0.0954  0.0716
  643MOL0     O86728   0.581   7.802   1.206 -0.2254 -0.4031  0.1723
  643MOL0     C86729   0.462   7.737   1.265 -0.0494 -0.5626  0.3645
  643MOL0     C86730   0.481   7.581   1.255 -0.8282 -1.1436  0.3635
  643MOL0     C86731   0.351   7.509   1.281 -0.2523 -0.1072 -0.2987
  643MOL0     C86732   0.276   7.537   1.409 -0.8899 -0.0468 -0.6270
  643MOL0     C86733   0.167   7.444   1.428  0.7878  0.1227  0.7818
  643MOL0     C86734   0.068   7.373   1.446 -0.1773  1.4466 -0.0079
  643MOL0     C86735   0.481   8.024   1.214  0.0269  0.2431  0.2184
  643MOL0     C86736   0.506   8.161   1.224 -0.4951  0.2496 -0.6930
  643MOL0     C86737   0.390   8.259   1.218 -0.2020  0.4336 -1.3520
  643MOL0     H86738   1.042   8.432   1.215 -1.5473 -2.4474  2.1092
  643MOL0     H86739   1.162   8.634   1.307 -0.0864  0.4065 -0.0613
  643MOL0     H86740   1.186   8.834   1.536 -1.8206  1.2497  0.4280
  643MOL0     H86741   1.228   8.832   1.362  0.0335  1.6275 -0.7600
  643MOL0     H86742   1.073   9.065   1.481  0.2373  1.1237  1.1411
  643MOL0     H86743   1.160   9.049   1.327  0.7614 -2.3239 -0.0878
  643MOL0     H86744   1.365   9.072   1.402  1.4447 -0.7434  1.5204
  643MOL0     H86745   1.334   9.032   1.567 -1.7820 -0.9597 -0.0378
  643MOL0     H86746   1.254   9.289   1.433  1.8356 -1.1892 -0.5633
  643MOL0     H86747   1.195   9.239   1.596 -0.2380  1.6707  0.2682
  643MOL0     H86748   1.445   9.203   1.666 -0.6514  0.4678  0.1284
  643MOL0     H86749   1.477   9.294   1.516  0.7958  0.2763  0.3516
  643MOL0     H86750   1.318   9.369   1.773 -0.7858  4.3749  0.6054
  643MOL0     H86751   1.467   9.436   1.722 -1.0099  2.4935 -0.1783
  643MOL0     H86752   1.208   9.477   1.586 -0.1557  0.6423  1.2214
  643MOL0     H86753   1.370   9.536   1.527  2.8152  0.5020  1.3419
  643MOL0     H86754   1.232   9.586   1.793 -0.5650  0.5739  0.3814
  643MOL0     H86755   1.392   9.658   1.751 -0.0587  0.1672 -1.0421
  643MOL0     H86756   1.051   9.659   1.557 -2.8749  1.3390  1.3356
  643MOL0     H86757   1.020   9.976   1.388  1.3175 -0.1964  0.6394
  643MOL0     H86758   0.903   9.869   1.461  0.7177 -1.0055 -1.6268
  643MOL0     H86759   0.932  10.056   1.665  0.9117 -0.8210 -0.4707
  643MOL0     H86760   1.013  10.148   1.549  0.9533 -2.1449  0.5941
  643MOL0     H86761   0.820  10.140   1.391 -1.7899  0.7772 -0.1350
  643MOL0     H86762   0.773  10.213   1.536 -3.2481 -1.8805  0.4133
  643MOL0     H86763   0.689   9.925   1.475 -1.1038 -0.2460  1.8986
  643MOL0     H86764   0.601  10.086   1.459 -0.3395 -0.6902 -1.5470
  643MOL0     H86765   0.565   9.964   1.891 -1.2134 -0.2231  1.2676
  643MOL0     H86766   0.412   9.794   1.964  0.3649  2.6702  0.2846
  643MOL0     H86767  -0.152   9.652   1.738  0.8980 -0.4913 -0.3157
  643MOL0     H86768  -0.301   9.477   1.789 -0.0874 -2.0637  0.4342
  643MOL0     H86769  -0.434   9.302   1.818  0.7823  1.2490  0.0842
  643MOL0     H86770  -0.345   9.202   1.698 -3.5099  0.3983 -0.5373
  643MOL0     H86771  -0.365   9.010   1.858 -2.8946 -2.9935  0.1925
  643MOL0     H86772  -0.428   9.122   1.980 -0.1527  2.4728 -0.9833
  643MOL0     H86773  -0.635   9.169   1.879  0.4908  0.7607  0.1931
  643MOL0     H86774  -0.583   9.137   1.724  0.1600  2.1346  1.0310
  643MOL0     H86775  -0.618   8.918   1.942  0.6486  2.8699  1.5851
  643MOL0     H86776  -0.580   8.883   1.762  0.0738  1.3146 -1.0486
  643MOL0     H86777  -0.807   8.963   1.706 -1.6651 -1.3949  0.2919
  643MOL0     H86778  -0.826   9.011   1.878  3.1261 -1.3413  2.8561
  643MOL0     H86779  -0.805   8.743   1.743  3.6171  0.1032 -1.5003
  643MOL0     H86780  -0.749   8.749   1.913 -0.4220 -1.3605 -1.0812
  643MOL0     H86781  -1.031   8.809   1.806 -0.4597 -0.7304  1.1002
  643MOL0     H86782  -0.978   8.872   1.954 -0.8701  0.9843 -1.7488
  643MOL0     H86783  -0.931   8.634   2.037 -0.6399 -0.3906  0.6317
  643MOL0     H86784  -1.100   8.676   2.000  1.0257  4.1492  1.9453
  643MOL0     H86785   0.023   9.228   1.893 -1.6223  0.4938  0.6625
  643MOL0     H86786   0.183   9.395   1.833  0.6200  0.8316 -2.9181
  643MOL0     H86787   0.276   9.751   1.558 -1.2561  3.3725 -0.5628
  643MOL0     H86788   0.442   9.906   1.479 -1.8387 -0.1336 -1.0232
  643MOL0     H86789   0.772   8.820   1.371 -1.7408 -0.4787 -1.7355
  643MOL0     H86790   0.663   8.620   1.279  0.6709  0.4289  0.5987
  643MOL0     H86791   0.852   8.146   1.234  0.6511 -2.2500 -0.5413
  643MOL0     H86792   0.814   7.912   1.210  0.4128  0.2291  1.3832
  643MOL0     H86793   0.375   7.775   1.210  0.7081  1.0180  0.2120
  643MOL0     H86794   0.455   7.770   1.369  1.4970 -0.2699  0.3894
  643MOL0     H86795   0.549   7.572   1.340  2.4063  0.4473 -1.8681
  643MOL0     H86796   0.534   7.550   1.165  1.5159  0.2329  1.1751
  643MOL0     H86797   0.368   7.401   1.279 -1.6583 -0.4467  2.5436
  643MOL0     H86798   0.282   7.529   1.198 -1.1729 -0.8854  0.2656
  643MOL0     H86799   0.341   7.517   1.496 -0.3348 -0.2260 -1.0714
  643MOL0     H86800   0.240   7.640   1.406 -1.0579 -0.1261 -1.5056
  643MOL0     H86801  -0.007   7.305   1.479  0.9264  0.4079  0.4472
  643MOL0     H86802   0.379   7.989   1.207  0.8007 -1.9939 -1.2632
  643MOL0     H86803   0.413   8.345   1.155  2.3811 -0.1949 -1.3837
  643MOL0     H86804   0.302   8.201   1.190  0.7879 -0.6679 -2.3185
  643MOL0     H86805   0.372   8.290   1.321  1.5526 -4.9150  0.9374
  644MOL0     O86806   9.325   9.169   5.823 -0.4121  0.0435 -0.4043
  644MOL0     C86807   9.318   9.056   5.773 -0.3663 -0.0083 -1.1644
  644MOL0     O86808   9.213   8.974   5.775 -0.4272  0.1412 -0.3055
  644MOL0     C86809   9.087   9.009   5.800 -0.2082  0.4248 -0.0811
  644MOL0     C86810   9.020   9.122   5.758  0.9536 -1.1651  0.3424
  644MOL0     C86811   8.877   9.128   5.774  0.0262 -0.7803  0.0194
  644MOL0     C86812   8.815   9.028   5.839  0.3638  0.6181 -0.6093
  644MOL0     O86813   8.680   9.034   5.867 -0.5760 -0.3557  0.3900
  644MOL0     C86814   8.599   8.917   5.859 -0.1264  0.2008  1.1530
  644MOL0     C86815   8.461   8.960   5.809  0.6767  0.2548  0.6183
  644MOL0     C86816   8.363   8.844   5.788  0.0303  0.7038 -0.3081
  644MOL0     C86817   8.333   8.774   5.926 -0.6283  0.2507 -0.2637
  644MOL0     C86818   8.234   8.654   5.904  0.4225 -0.0452 -0.5805
  644MOL0     C86819   8.202   8.581   6.038  0.1990  0.1731  0.1630
  644MOL0     C86820   8.116   8.661   6.130  0.1840 -0.0282 -0.6290
  644MOL0     C86821   7.976   8.706   6.064 -0.6282 -0.2526 -0.1025
  644MOL0     N86822   7.888   8.599   6.021 -0.1363 -0.1575  0.8784
  644MOL0     C86823   7.789   8.544   6.090  0.2595  0.3338 -0.3492
  644MOL0     C86824   7.758   8.434   6.011 -0.4862 -0.8172 -0.4074
  644MOL0     C86825   7.646   8.337   6.052 -0.0370 -0.0364  0.4508
  644MOL0     C86826   7.714   8.216   6.108 -0.5427  0.2620 -1.0973
  644MOL0     C86827   7.762   8.238   6.250  0.1899  0.4236 -0.4026
  644MOL0     C86828   7.823   8.110   6.316  0.2784 -0.3071 -0.4481
  644MOL0     O86829   7.900   8.143   6.445  0.4400  0.2734  0.5592
  644MOL0     C86830   8.011   8.223   6.440  0.4234 -0.5890  0.5144
  644MOL0     C86831   8.040   8.299   6.556 -0.2060  0.6745 -0.1054
  644MOL0     C86832   8.154   8.377   6.567 -0.7542 -0.1938  1.1105
  644MOL0     C86833   8.237   8.389   6.453  0.2680 -0.1532  0.6711
  644MOL0     C86834   8.345   8.493   6.438  0.3815  0.2223 -0.6250
  644MOL0     O86835   8.430   8.481   6.330 -0.5919  0.7983 -0.4975
  644MOL0     C86836   8.529   8.576   6.311  0.1196 -0.4679 -0.2052
  644MOL0     C86837   8.662   8.534   6.301  0.2342 -0.2783 -0.5469
  644MOL0     C86838   8.773   8.623   6.286 -0.0873  0.4942  0.5029
  644MOL0     C86839   8.746   8.759   6.263 -0.9839  0.4547  0.9023
  644MOL0     O86840   8.839   8.852   6.215 -0.2998 -0.4921 -0.4333
  644MOL0     C86841   8.975   8.820   6.232  0.2412 -0.5764  0.3421
  644MOL0     C86842   9.027   8.963   6.213  0.0462 -0.0607 -0.5573
  644MOL0     C86843   9.183   8.958   6.220 -0.3010  0.6489 -0.9970
  644MOL0     C86844   9.243   9.089   6.159 -0.1046 -0.2645  0.3314
  644MOL0     C86845   9.393   9.113   6.170  0.1043 -0.4748  0.0520
  644MOL0     C86846   9.488   9.002   6.116  0.7982  0.1471 -0.0303
  644MOL0     C86847   9.626   9.063   6.089  0.4928  0.2378 -0.9574
  644MOL0     C86848   9.711   8.952   6.024  0.8727 -0.2374 -0.3175
  644MOL0    Cl86849   9.876   9.001   5.965 -0.2100 -0.0658 -0.0720
  644MOL0     C86850   8.610   8.796   6.260  0.2161 -0.4331  0.3548
  644MOL0     C86851   8.504   8.711   6.291  0.7314  0.0519  0.3731
  644MOL0     O86852   8.354   8.575   6.529  0.0768  0.2985  0.1609
  644MOL0     C86853   8.201   8.314   6.332  0.2436 -0.1791 -0.4217
  644MOL0     C86854   8.087   8.234   6.327 -0.1251 -0.8125  0.1973
  644MOL0     N86855   7.833   8.430   5.894 -0.0991 -0.3078 -0.4264
  644MOL0     N86856   7.910   8.534   5.904  0.2127  0.9593  0.2920
  644MOL0     C86857   8.885   8.922   5.893  0.4736 -0.7263  0.2897
  644MOL0     C86858   9.020   8.910   5.864  0.1492  0.7837 -0.3293
  644MOL0     C86859   9.454   9.007   5.712  0.3044  0.6243 -0.5009
  644MOL0     C86860   9.454   8.865   5.696  0.5522  0.3334 -0.8082
  644MOL0     C86861   9.567   8.805   5.655 -0.1124  0.6603  0.5772
  644MOL0     C86862   9.680   8.884   5.647 -0.0815 -0.3592  0.4055
  644MOL0     O86863   9.809   8.842   5.636 -0.2287  0.3048 -0.1663
  644MOL0     C86864   9.829   8.701   5.658 -0.5015  0.2962  0.2775
  644MOL0     C86865   9.980   8.679   5.655 -0.1004 -0.3397  0.8002
  644MOL0     C86866  10.054   8.719   5.524  0.2544 -0.1055  0.0475
  644MOL0     C86867  10.205   8.690   5.544 -0.5084  0.1983  0.0856
  644MOL0     C86868  10.280   8.704   5.421 -0.2940  0.0096 -0.2568
  644MOL0     C86869  10.344   8.720   5.322  0.2864  0.2387 -0.2971
  644MOL0     C86870   9.678   9.022   5.656 -0.1687 -0.5734  0.7836
  644MOL0     C86871   9.559   9.085   5.686 -0.0732  0.3581 -0.0447
  644MOL0     C86872   9.556   9.242   5.688  0.0623  0.2229 -0.1769
  644MOL0     H86873   9.079   9.193   5.701  2.0374 -1.2166  1.3639
  644MOL0     H86874   8.819   9.216   5.748  0.7048 -0.3677 -0.1235
  644MOL0     H86875   8.636   8.834   5.798  0.9397  0.2749  1.6898
  644MOL0     H86876   8.588   8.877   5.960  1.6787 -2.1047  0.5065
  644MOL0     H86877   8.480   8.984   5.703 -2.8479 -1.5231 -0.5885
  644MOL0     H86878   8.418   9.046   5.860 -0.5693  0.3073 -0.4516
  644MOL0     H86879   8.402   8.778   5.711  1.1690  1.5114 -0.4508
  644MOL0     H86880   8.273   8.894   5.751  0.2332  1.4597  0.1814
  644MOL0     H86881   8.423   8.728   5.968 -1.6295 -0.8225  0.8116
  644MOL0     H86882   8.293   8.838   6.005  1.2464  0.4072  0.5980
  644MOL0     H86883   8.147   8.693   5.851  1.1410  1.3281 -0.8081
  644MOL0     H86884   8.270   8.579   5.833  0.8172  1.4874 -2.0532
  644MOL0     H86885   8.142   8.493   6.014 -0.9849  1.1818 -0.6869
  644MOL0     H86886   8.289   8.549   6.097 -0.1972 -1.8929 -0.2842
  644MOL0     H86887   8.168   8.750   6.168 -0.2813  0.5066 -1.2130
  644MOL0     H86888   8.080   8.594   6.209 -0.0852  1.2742  0.3848
  644MOL0     H86889   7.920   8.771   6.132 -2.8627 -0.6967 -1.4355
  644MOL0     H86890   7.988   8.774   5.979  2.2124 -1.6905 -0.9723
  644MOL0     H86891   7.744   8.577   6.183  0.3257 -3.5222  1.2346
  644MOL0     H86892   7.582   8.388   6.124  1.3245  1.6769  0.5218
  644MOL0     H86893   7.591   8.305   5.963 -0.8419  2.1755  0.1078
  644MOL0     H86894   7.652   8.126   6.111  0.8996 -0.7601  2.1313
  644MOL0     H86895   7.800   8.191   6.046 -0.5803  0.0826 -1.0788
  644MOL0     H86896   7.683   8.277   6.314 -0.6530  0.7144 -1.5872
  644MOL0     H86897   7.835   8.319   6.260  0.2355  0.6087 -1.9563
  644MOL0     H86898   7.891   8.049   6.256  1.1940 -1.6676  1.8261
  644MOL0     H86899   7.748   8.035   6.345 -0.9071  0.2635 -1.9535
  644MOL0     H86900   7.986   8.284   6.649 -0.0421 -1.6118 -0.3392
  644MOL0     H86901   8.169   8.442   6.652  2.2159  1.2096 -0.3156
  644MOL0     H86902   8.675   8.427   6.318  1.4948 -0.1752 -0.7241
  644MOL0     H86903   8.872   8.580   6.297 -0.4944 -0.1145  2.0242
  644MOL0     H86904   8.997   8.793   6.336  3.5827  3.0985  0.8602
  644MOL0     H86905   9.018   8.757   6.154  1.4382 -0.0576  0.5574
  644MOL0     H86906   8.997   9.010   6.119  4.0006  0.3282 -1.8042
  644MOL0     H86907   8.998   9.035   6.290  2.3541 -0.4339  0.7700
  644MOL0     H86908   9.210   8.947   6.326 -1.5976 -1.5485 -0.8206
  644MOL0     H86909   9.211   8.868   6.165 -0.9486  0.6674 -1.3684
  644MOL0     H86910   9.199   9.175   6.210 -1.1396 -0.5742 -0.0120
  644MOL0     H86911   9.219   9.085   6.053 -0.9259  0.7037  0.4653
  644MOL0     H86912   9.406   9.124   6.278  0.5772 -0.4676 -0.0031
  644MOL0     H86913   9.422   9.206   6.119  2.5220 -0.6944  0.8932
  644MOL0     H86914   9.496   8.915   6.182  1.5056  0.5156  0.3827
  644MOL0     H86915   9.447   8.976   6.018 -0.1974  3.6557 -0.6576
  644MOL0     H86916   9.684   9.110   6.169  0.6410 -0.7020 -0.5069
  644MOL0     H86917   9.609   9.137   6.010  0.2164 -0.1551 -1.2737
  644MOL0     H86918   9.722   8.881   6.106 -0.4680  1.2872  1.2612
  644MOL0     H86919   9.656   8.910   5.939  0.7533  0.4238 -0.5776
  644MOL0     H86920   8.585   8.900   6.240 -0.3916 -0.2066  2.1282
  644MOL0     H86921   8.403   8.751   6.282  0.6067 -0.6095 -2.2488
  644MOL0     H86922   8.259   8.326   6.241  0.9611  0.0423  0.0558
  644MOL0     H86923   8.072   8.173   6.238 -2.4867  0.6315 -0.4897
  644MOL0     H86924   8.834   8.830   5.917  0.6480 -1.0885 -0.6884
  644MOL0     H86925   9.061   8.813   5.893  0.5823  0.4247 -1.9918
  644MOL0     H86926   9.372   8.797   5.718  0.2541  0.3682 -1.7741
  644MOL0     H86927   9.573   8.697   5.654 -2.4078  0.4726  0.9345
  644MOL0     H86928   9.789   8.636   5.580 -0.3635 -0.8617  1.1407
  644MOL0     H86929   9.794   8.670   5.757  2.6267 -0.2809  1.3294
  644MOL0     H86930   9.993   8.573   5.680 -1.0138 -0.1850  2.0405
  644MOL0     H86931  10.022   8.743   5.733 -1.0923  2.3446 -0.7414
  644MOL0     H86932  10.036   8.825   5.503  1.8563 -0.3078 -2.7804
  644MOL0     H86933  10.030   8.653   5.440  0.2073 -1.9528  1.4534
  644MOL0     H86934  10.242   8.759   5.621 -1.2979  1.3912 -0.5780
  644MOL0     H86935  10.219   8.590   5.586 -0.9552  0.4486  0.8719
  644MOL0     H86936  10.402   8.713   5.232  0.6355  1.5951 -0.1891
  644MOL0     H86937   9.775   9.072   5.662 -0.5291  0.1083  0.9941
  644MOL0     H86938   9.580   9.273   5.790 -1.0579  2.1098 -0.4584
  644MOL0     H86939   9.631   9.285   5.621  2.0875  0.3318  2.0018
  644MOL0     H86940   9.455   9.275   5.665 -0.8425 -2.5566 -0.6038
  645MOL0     O86941   1.796   8.622   5.821 -0.3025  0.0260  0.5904
  645MOL0     C86942   1.826   8.513   5.870  0.4571  0.0997  0.5654
  645MOL0     O86943   1.737   8.429   5.924  0.2002 -0.3190 -0.5409
  645MOL0     C86944   1.603   8.455   5.914 -0.4230 -0.0075  0.3186
  645MOL0     C86945   1.533   8.528   6.010  0.1752 -0.4765 -0.6943
  645MOL0     C86946   1.392   8.541   6.002 -0.4623 -0.3197 -0.0567
  645MOL0     C86947   1.316   8.470   5.909 -0.8638  0.1515 -0.1244
  645MOL0     O86948   1.187   8.459   5.907 -0.0573  0.1953  0.2015
  645MOL0     C86949   1.121   8.501   6.027 -0.4941 -0.4626  0.4490
  645MOL0     C86950   0.975   8.451   6.018 -0.1873 -0.4895  0.2947
  645MOL0     C86951   0.869   8.480   6.139 -0.2509  0.3804 -0.7015
  645MOL0     C86952   0.866   8.635   6.178  1.1558 -0.6110  0.4594
  645MOL0     C86953   0.746   8.670   6.276  0.4334 -0.2675  0.5726
  645MOL0     C86954   0.751   8.822   6.317 -0.8345 -0.1534  0.0053
  645MOL0     C86955   0.657   8.849   6.433  0.6053  0.1707  1.4440
  645MOL0     C86956   0.601   8.988   6.431 -0.6745  0.0226  0.2000
  645MOL0     N86957   0.695   9.084   6.504  0.2669  0.0357  0.0958
  645MOL0     C86958   0.811   9.132   6.454 -0.0459 -0.0345  0.0061
  645MOL0     C86959   0.858   9.207   6.558  0.1637 -0.6179 -0.4623
  645MOL0     C86960   0.987   9.284   6.565 -0.5554  1.1305  0.5237
  645MOL0     C86961   1.101   9.208   6.647  0.1384  0.1400  0.1444
  645MOL0     C86962   1.067   9.203   6.801  0.1191 -0.1045 -0.6523
  645MOL0     C86963   1.184   9.176   6.886  0.4688  0.3172 -0.1214
  645MOL0     O86964   1.256   9.060   6.845 -0.0115 -0.2400  0.1113
  645MOL0     C86965   1.340   9.015   6.935  0.6048  0.1833  0.6258
  645MOL0     C86966   1.459   9.087   6.958 -0.8216  0.1034  0.0270
  645MOL0     C86967   1.555   9.034   7.046 -0.4102 -0.2699  0.4884
  645MOL0     C86968   1.543   8.908   7.106 -0.5198  0.1091  0.2058
  645MOL0     C86969   1.652   8.853   7.193 -0.9006 -0.9938  0.4798
  645MOL0     O86970   1.651   8.717   7.228 -0.4989 -0.6486 -0.2653
  645MOL0     C86971   1.756   8.676   7.302 -0.5687 -0.7054 -0.4689
  645MOL0     C86972   1.874   8.640   7.233 -0.7737  0.2866 -0.7249
  645MOL0     C86973   1.991   8.626   7.313  1.2694 -0.5364 -0.0715
  645MOL0     C86974   1.986   8.616   7.451 -0.3030  0.6981  0.2175
  645MOL0     O86975   2.097   8.565   7.527  0.6626 -0.2150 -0.3115
  645MOL0     C86976   2.229   8.577   7.469 -0.4251  0.4424  0.2232
  645MOL0     C86977   2.331   8.516   7.565  0.2364 -0.0781 -0.3368
  645MOL0     C86978   2.476   8.521   7.511 -0.3099 -0.4115  0.1218
  645MOL0     C86979   2.573   8.466   7.618 -0.6927 -0.5382  0.6070
  645MOL0     C86980   2.722   8.509   7.598 -0.3505  0.1500 -0.1078
  645MOL0     C86981   2.803   8.458   7.715 -0.3030 -0.8512 -0.1982
  645MOL0     C86982   2.954   8.502   7.711 -1.0714 -0.8072 -0.1199
  645MOL0     C86983   3.035   8.424   7.813 -0.6180 -0.3131  0.4377
  645MOL0    Cl86984   3.218   8.452   7.784  0.2084 -0.0716  0.6475
  645MOL0     C86985   1.864   8.628   7.514 -0.1803  0.7335  0.5978
  645MOL0     C86986   1.754   8.668   7.444  0.3185 -0.1882  0.0936
  645MOL0     O86987   1.752   8.929   7.212 -0.1885 -0.3560  0.6324
  645MOL0     C86988   1.430   8.836   7.071  0.6326 -0.9142  0.2654
  645MOL0     C86989   1.328   8.886   6.983 -0.9685 -0.1639 -0.2408
  645MOL0     N86990   0.765   9.208   6.661 -0.1580 -0.2668 -1.0950
  645MOL0     N86991   0.669   9.120   6.633  0.2652  0.4939  0.5342
  645MOL0     C86992   1.386   8.390   5.823 -0.1037  0.0050 -0.3124
  645MOL0     C86993   1.528   8.391   5.818 -0.1336  0.4928  0.3523
  645MOL0     C86994   1.967   8.454   5.863  0.1941 -0.2969  0.8101
  645MOL0     C86995   1.995   8.343   5.934 -0.3068  0.6298 -0.6360
  645MOL0     C86996   2.117   8.285   5.939  0.4718 -0.5960  0.7958
  645MOL0     C86997   2.231   8.340   5.881  0.1437  0.5443 -0.1863
  645MOL0     O86998   2.353   8.281   5.902  0.0941 -0.3455 -0.5188
  645MOL0     C86999   2.470   8.367   5.874 -0.3463  0.2304 -0.1905
  645MOL0     C87000   2.561   8.333   5.756 -0.3415 -0.1602  0.3268
  645MOL0     C87001   2.659   8.230   5.798  0.2520 -0.3836 -0.4017
  645MOL0     C87002   2.712   8.155   5.684  0.4168  0.3173 -1.2522
  645MOL0     C87003   2.836   8.220   5.636 -0.2388 -0.1551  1.1855
  645MOL0     C87004   2.934   8.269   5.582 -0.0755  0.1233 -1.7789
  645MOL0     C87005   2.202   8.451   5.797 -0.1303  0.2674 -0.6561
  645MOL0     C87006   2.071   8.508   5.778  0.3156 -0.7400 -0.4315
  645MOL0     C87007   2.046   8.597   5.658 -0.7062 -0.5348  0.4258
  645MOL0     H87008   1.586   8.581   6.088  0.1429  0.4295 -1.2736
  645MOL0     H87009   1.344   8.601   6.079 -0.0973  0.4695 -0.4363
  645MOL0     H87010   1.159   8.447   6.114 -0.6654 -1.2903  0.0150
  645MOL0     H87011   1.120   8.610   6.040 -1.2315 -0.3900 -0.1375
  645MOL0     H87012   0.969   8.348   5.982 -1.7973 -0.1329 -0.5485
  645MOL0     H87013   0.951   8.514   5.932  0.1478 -1.6166 -0.6505
  645MOL0     H87014   0.876   8.404   6.217  0.3776  1.4226  0.2812
  645MOL0     H87015   0.769   8.462   6.100  0.1876 -0.0397 -1.6588
  645MOL0     H87016   0.960   8.674   6.218  0.5397  3.2303 -1.3928
  645MOL0     H87017   0.851   8.690   6.085 -0.8744 -1.8742 -0.0211
  645MOL0     H87018   0.647   8.641   6.241  0.6515 -2.0601  1.3301
  645MOL0     H87019   0.760   8.611   6.367  2.8424 -0.5464  0.1061
  645MOL0     H87020   0.853   8.836   6.354 -1.8030  0.8336  2.5468
  645MOL0     H87021   0.733   8.890   6.234 -1.7793  0.8639  1.0132
  645MOL0     H87022   0.718   8.823   6.520  1.2338  1.2950  1.3522
  645MOL0     H87023   0.572   8.781   6.423  1.3265 -0.4509 -1.2093
  645MOL0     H87024   0.580   9.030   6.332 -1.0992  1.0825  0.7198
  645MOL0     H87025   0.504   8.991   6.482 -0.5533  2.9551  0.4360
  645MOL0     H87026   0.858   9.103   6.360  1.2317  0.0196  0.6031
  645MOL0     H87027   1.022   9.293   6.462  2.5052  0.1711  1.3717
  645MOL0     H87028   0.976   9.387   6.599 -3.8062  1.3725 -0.8929
  645MOL0     H87029   1.112   9.105   6.609  2.3292  1.1806 -2.3630
  645MOL0     H87030   1.195   9.262   6.636  0.1012  0.8402  2.6372
  645MOL0     H87031   0.995   9.125   6.824 -0.5488  1.0465  1.3744
  645MOL0     H87032   1.022   9.299   6.829  0.4202 -0.1011 -0.1736
  645MOL0     H87033   1.145   9.167   6.988  1.3051  0.3057  0.2082
  645MOL0     H87034   1.245   9.267   6.881 -0.3934  0.9056 -0.3146
  645MOL0     H87035   1.478   9.181   6.908  1.5494 -1.6194 -2.6315
  645MOL0     H87036   1.644   9.094   7.064 -0.1575 -0.9617  1.6476
  645MOL0     H87037   1.880   8.637   7.124  1.5220 -0.2598 -0.6204
  645MOL0     H87038   2.082   8.619   7.255  0.8481  2.5017 -1.2680
  645MOL0     H87039   2.237   8.516   7.378  0.6462 -0.5688  0.9723
  645MOL0     H87040   2.262   8.673   7.428  1.0074 -1.3604 -3.4298
  645MOL0     H87041   2.326   8.585   7.650  1.7841  1.8709 -1.7332
  645MOL0     H87042   2.299   8.412   7.577 -2.6863  0.4849 -2.1829
  645MOL0     H87043   2.475   8.451   7.426 -1.1530 -2.8540  2.0093
  645MOL0     H87044   2.502   8.621   7.477  2.2351 -0.9968  0.1263
  645MOL0     H87045   2.570   8.357   7.625  1.2276 -0.5735  1.6229
  645MOL0     H87046   2.534   8.493   7.717 -1.6132 -3.7582  1.2350
  645MOL0     H87047   2.718   8.618   7.595 -2.3603  0.2489  2.5898
  645MOL0     H87048   2.754   8.456   7.508 -1.1103  0.7364 -0.7280
  645MOL0     H87049   2.757   8.501   7.805  0.1674  1.4786 -1.0037
  645MOL0     H87050   2.790   8.350   7.727 -0.1895 -0.8118  0.2823
  645MOL0     H87051   2.960   8.606   7.744 -1.1106 -1.0472  0.6859
  645MOL0     H87052   3.006   8.502   7.615  0.9380  3.0824  0.7557
  645MOL0     H87053   3.004   8.468   7.908 -1.9905  0.7069 -0.4372
  645MOL0     H87054   3.015   8.316   7.813  1.6948 -0.8086  2.4619
  645MOL0     H87055   1.860   8.622   7.623 -0.1588 -1.6688  0.5312
  645MOL0     H87056   1.656   8.681   7.489 -0.8203  1.4743 -2.5967
  645MOL0     H87057   1.413   8.738   7.115 -1.4639 -0.5208  0.4258
  645MOL0     H87058   1.255   8.823   6.934  0.7186 -1.0757 -1.6627
  645MOL0     H87059   1.317   8.334   5.759 -0.3576 -1.2488  1.0139
  645MOL0     H87060   1.580   8.327   5.746 -1.6993  0.8919 -1.2122
  645MOL0     H87061   1.917   8.298   5.995 -1.4909  2.0856 -1.0189
  645MOL0     H87062   2.137   8.206   6.011  3.5098 -1.1811 -0.5323
  645MOL0     H87063   2.537   8.371   5.961  1.0727  0.6040 -1.2643
  645MOL0     H87064   2.441   8.469   5.845  0.5565  1.1348  1.8819
  645MOL0     H87065   2.609   8.423   5.716  0.8789 -1.1163 -0.4179
  645MOL0     H87066   2.503   8.295   5.672  1.3022  2.4791 -2.1551
  645MOL0     H87067   2.601   8.153   5.851  2.3446 -0.5748  1.7354
  645MOL0     H87068   2.738   8.268   5.863  0.3827  1.6586 -1.6559
  645MOL0     H87069   2.722   8.052   5.720 -1.1372  0.4504 -0.3454
  645MOL0     H87070   2.628   8.154   5.614  0.3876  0.8358 -1.2311
  645MOL0     H87071   3.013   8.319   5.530  1.8302 -1.6782 -0.7514
  645MOL0     H87072   2.278   8.482   5.726  1.2666 -1.4988  0.0095
  645MOL0     H87073   2.141   8.615   5.606 -0.7965 -2.8855 -0.6676
  645MOL0     H87074   1.989   8.537   5.586 -0.9914 -0.6151  0.7197
  645MOL0     H87075   1.992   8.689   5.680 -0.0716  0.0388 -0.3531
  646MOL0     O87076   9.533   1.094   0.433 -0.7141  0.3770  0.0162
  646MOL0     C87077   9.492   1.064   0.542 -0.5236 -0.5637  0.9931
  646MOL0     O87078   9.567   1.085   0.654 -0.1059 -0.7536 -0.8492
  646MOL0     C87079   9.687   1.158   0.650 -0.0164  0.4725 -0.9268
  646MOL0     C87080   9.704   1.280   0.718  0.6859 -0.1888 -0.1988
  646MOL0     C87081   9.825   1.346   0.738 -0.5714  0.1748 -0.0091
  646MOL0     C87082   9.936   1.295   0.674 -0.3343 -0.3000 -0.1446
  646MOL0     O87083  10.059   1.367   0.688  0.6930 -0.4290 -0.0574
  646MOL0     C87084  10.155   1.345   0.587 -0.3517  0.1699  0.3782
  646MOL0     C87085  10.223   1.483   0.580 -0.2875  0.5424  0.1123
  646MOL0     C87086  10.335   1.477   0.464  0.5219  0.3046  0.4805
  646MOL0     C87087  10.426   1.604   0.452  0.2252  0.2982 -0.9555
  646MOL0     C87088  10.527   1.583   0.342 -1.0215  0.8469  0.0814
  646MOL0     C87089  10.649   1.501   0.393 -1.3416  0.0855  0.4209
  646MOL0     C87090  10.724   1.474   0.270  0.2119 -0.3432  0.7476
  646MOL0     C87091  10.876   1.469   0.289  0.2190  0.3230 -0.2549
  646MOL0     N87092  10.928   1.605   0.272  0.8853  0.5694  0.0647
  646MOL0     C87093  11.030   1.626   0.177  0.3344  0.8183  0.5072
  646MOL0     C87094  11.057   1.754   0.174 -0.0752 -0.0326  0.0019
  646MOL0     C87095  11.144   1.825   0.079 -0.2771 -0.0261  0.4834
  646MOL0     C87096  11.270   1.737   0.032  0.3832 -0.6152  0.0761
  646MOL0     C87097  11.378   1.819  -0.036  0.4248 -0.0403  0.3486
  646MOL0     C87098  11.447   1.897   0.070 -0.5070 -0.6594 -0.0948
  646MOL0     O87099  11.516   1.999  -0.014 -0.3342  0.2093  0.0632
  646MOL0     C87100  11.631   2.049   0.037 -0.3047  0.5997 -0.6653
  646MOL0     C87101  11.654   2.065   0.173  0.2046  0.6776 -0.3269
  646MOL0     C87102  11.768   2.115   0.220 -0.8737 -0.1736  0.9076
  646MOL0     C87103  11.879   2.148   0.134  0.2613  0.1532  0.4775
  646MOL0     C87104  12.008   2.184   0.179 -0.3801 -0.0008 -0.2286
  646MOL0     O87105  12.040   2.179   0.308 -0.4038  0.0912 -0.1252
  646MOL0     C87106  12.163   2.203   0.367 -0.8968  0.3973 -0.0428
  646MOL0     C87107  12.168   2.145   0.494  0.0964  0.5901 -1.1211
  646MOL0     C87108  12.288   2.155   0.569  1.0595  0.6099  1.2381
  646MOL0     C87109  12.399   2.225   0.518 -0.5411  0.6461 -0.0666
  646MOL0     O87110  12.509   2.226   0.603  0.6583 -0.5386  0.4327
  646MOL0     C87111  12.616   2.311   0.575  0.3946  0.4420  0.0009
  646MOL0     C87112  12.698   2.330   0.710 -0.0063  0.2345  0.3670
  646MOL0     C87113  12.846   2.370   0.685  0.5590 -0.1001  0.3305
  646MOL0     C87114  12.925   2.385   0.814 -0.3005 -0.3108  0.0146
  646MOL0     C87115  13.047   2.486   0.796 -0.0600  0.0633  1.0640
  646MOL0     C87116  13.139   2.488   0.921  0.0340  0.5679  0.6379
  646MOL0     C87117  13.273   2.549   0.886  0.1389 -0.3261 -0.8072
  646MOL0     C87118  13.270   2.693   0.841 -0.9853 -0.3924  0.2205
  646MOL0    Cl87119  13.439   2.742   0.813  0.0033  0.5111  0.2091
  646MOL0     C87120  12.395   2.280   0.389 -0.5562  0.3134  0.2859
  646MOL0     C87121  12.275   2.268   0.317  0.7375  0.8659  1.3090
  646MOL0     O87122  12.085   2.223   0.093 -0.3318 -0.3795 -0.7683
  646MOL0     C87123  11.854   2.130  -0.006  0.0023 -0.0835 -0.2622
  646MOL0     C87124  11.726   2.090  -0.048 -0.8915  0.3705  0.4567
  646MOL0     N87125  10.994   1.808   0.280  0.4285 -0.1061 -0.0969
  646MOL0     N87126  10.925   1.716   0.347  0.6279  0.0726 -0.2344
  646MOL0     C87127   9.922   1.178   0.605 -0.6674  0.1817  0.6098
  646MOL0     C87128   9.806   1.107   0.598  0.3798 -0.2668 -0.6592
  646MOL0     C87129   9.348   1.012   0.553 -0.4851  0.3480  0.2291
  646MOL0     C87130   9.288   1.052   0.671  1.0153 -0.3921 -0.4487
  646MOL0     C87131   9.153   1.012   0.694  0.7014 -0.5150  0.6143
  646MOL0     C87132   9.082   0.934   0.606 -0.1651  0.5854 -0.3843
  646MOL0     O87133   8.949   0.909   0.634  0.5894  0.1311  0.8850
  646MOL0     C87134   8.883   0.814   0.545  0.1147  0.7380 -0.0949
  646MOL0     C87135   8.805   0.887   0.434 -0.7240 -0.1524  0.4013
  646MOL0     C87136   8.742   0.793   0.335 -0.3609  0.1258  0.0922
  646MOL0     C87137   8.669   0.677   0.407  0.6478  0.1105 -0.1439
  646MOL0     C87138   8.562   0.613   0.320  0.3362 -0.2064 -0.3213
  646MOL0     C87139   8.469   0.564   0.260 -0.2609 -0.4243 -1.1745
  646MOL0     C87140   9.148   0.892   0.489 -0.1566 -0.5655  0.6393
  646MOL0     C87141   9.283   0.926   0.472  0.2027  0.4791  1.4547
  646MOL0     C87142   9.340   0.876   0.340 -0.0825  0.3660 -0.1689
  646MOL0     H87143   9.618   1.326   0.766  1.0187  0.2868 -0.0405
  646MOL0     H87144   9.846   1.439   0.789  0.6728 -0.2838  0.3330
  646MOL0     H87145  10.232   1.276   0.624  1.9303  2.9012  1.0221
  646MOL0     H87146  10.116   1.315   0.490 -0.7676 -0.3767  0.7030
  646MOL0     H87147  10.274   1.509   0.673 -0.5021 -1.0608  0.7041
  646MOL0     H87148  10.146   1.557   0.555 -1.0541 -0.0825  0.5724
  646MOL0     H87149  10.281   1.449   0.373 -1.1326  2.2763  0.7616
  646MOL0     H87150  10.395   1.388   0.483 -1.7857 -1.9564 -1.9875
  646MOL0     H87151  10.353   1.683   0.430 -0.3134  0.3294  0.7931
  646MOL0     H87152  10.471   1.627   0.549 -2.7322  2.7758 -0.0137
  646MOL0     H87153  10.480   1.524   0.263 -1.6345  1.0565  0.2858
  646MOL0     H87154  10.553   1.681   0.300  0.7882  0.1231 -0.5744
  646MOL0     H87155  10.707   1.571   0.455  1.4851 -0.0698 -1.8205
  646MOL0     H87156  10.624   1.406   0.441  1.8078  0.0573  2.2850
  646MOL0     H87157  10.696   1.533   0.182  0.3354  1.7486  2.0490
  646MOL0     H87158  10.686   1.376   0.239 -0.7896  0.4181 -0.5239
  646MOL0     H87159  10.907   1.437   0.389  0.0432 -0.3526 -0.4112
  646MOL0     H87160  10.919   1.400   0.215  2.0276  0.4058  0.6566
  646MOL0     H87161  11.064   1.558   0.100 -1.5636 -0.7832  1.0234
  646MOL0     H87162  11.095   1.856  -0.014  1.0322 -1.7874 -0.8799
  646MOL0     H87163  11.179   1.914   0.131  0.4245 -1.4789  2.6657
  646MOL0     H87164  11.302   1.683   0.121  2.3033 -0.6138 -0.5672
  646MOL0     H87165  11.221   1.664  -0.033 -1.6969  1.2430 -0.5796
  646MOL0     H87166  11.337   1.878  -0.118  0.5748 -0.7846 -0.2755
  646MOL0     H87167  11.446   1.750  -0.087 -0.6531  1.5437 -3.5842
  646MOL0     H87168  11.518   1.825   0.112 -0.2899 -1.1858 -1.3277
  646MOL0     H87169  11.382   1.939   0.147 -1.2057 -0.1229 -0.9553
  646MOL0     H87170  11.576   2.036   0.243 -0.8165  1.1412 -1.2391
  646MOL0     H87171  11.783   2.137   0.325 -0.5437  0.7381  0.6776
  646MOL0     H87172  12.087   2.084   0.534  1.4139 -0.4433  0.0633
  646MOL0     H87173  12.290   2.111   0.668  1.0607 -0.4980  0.7583
  646MOL0     H87174  12.677   2.253   0.505  1.6678  0.9034  0.6837
  646MOL0     H87175  12.592   2.407   0.530  2.0301 -0.6427 -3.5578
  646MOL0     H87176  12.657   2.408   0.774  0.9445  0.3407  0.8600
  646MOL0     H87177  12.685   2.242   0.774 -1.9735 -0.3592 -0.7567
  646MOL0     H87178  12.912   2.315   0.618  0.0212 -1.9347  1.2293
  646MOL0     H87179  12.841   2.465   0.630  1.8626 -0.9030 -1.2727
  646MOL0     H87180  12.971   2.291   0.846  2.9006 -0.0842 -3.3515
  646MOL0     H87181  12.864   2.420   0.898  0.2947 -2.6726  1.5245
  646MOL0     H87182  12.996   2.583   0.785  0.0403 -0.0130 -0.2601
  646MOL0     H87183  13.112   2.467   0.710  1.4099 -0.8808  2.3293
  646MOL0     H87184  13.096   2.532   1.011  2.0258  2.4815  0.7390
  646MOL0     H87185  13.165   2.384   0.944 -2.4029 -1.1627 -3.3758
  646MOL0     H87186  13.327   2.480   0.821 -0.0610 -1.0366 -0.2282
  646MOL0     H87187  13.325   2.553   0.983 -2.1871 -1.2469  0.5503
  646MOL0     H87188  13.228   2.697   0.739  3.6761 -0.4032 -1.9545
  646MOL0     H87189  13.210   2.757   0.906 -1.6411 -0.0818 -0.6566
  646MOL0     H87190  12.489   2.324   0.358  0.1169 -0.6575  0.8747
  646MOL0     H87191  12.262   2.302   0.215  0.8357 -0.5318  0.8145
  646MOL0     H87192  11.935   2.145  -0.078  0.3907 -3.1468 -0.6120
  646MOL0     H87193  11.700   2.084  -0.153  0.8024  2.9872 -0.2120
  646MOL0     H87194  10.006   1.135   0.551 -0.4314 -0.1048  1.1980
  646MOL0     H87195   9.822   1.018   0.538 -0.6102 -2.2829  1.8906
  646MOL0     H87196   9.331   1.120   0.744 -2.6612  0.8635  0.7492
  646MOL0     H87197   9.091   1.049   0.775 -1.3608 -1.0454 -0.6627
  646MOL0     H87198   8.800   0.774   0.605 -1.0175  2.0699 -0.7100
  646MOL0     H87199   8.944   0.730   0.511 -2.9245 -1.5808 -0.3133
  646MOL0     H87200   8.866   0.956   0.373 -1.7826  0.3206 -0.1554
  646MOL0     H87201   8.730   0.955   0.476 -0.6535  1.2683 -1.5950
  646MOL0     H87202   8.818   0.753   0.266 -1.3148 -1.1068 -0.2844
  646MOL0     H87203   8.684   0.854   0.265 -4.2092 -3.3308 -0.1101
  646MOL0     H87204   8.740   0.607   0.452  1.0643  1.9753  2.3236
  646MOL0     H87205   8.609   0.714   0.491 -1.1469 -3.3652  0.2970
  646MOL0     H87206   8.387   0.523   0.205 -2.4930  1.9422  0.1842
  646MOL0     H87207   9.103   0.835   0.409  2.0817 -0.0127 -1.1203
  646MOL0     H87208   9.288   0.927   0.259 -0.8620 -0.1111  0.0278
  646MOL0     H87209   9.447   0.898   0.335  0.0031 -0.2357 -1.4445
  646MOL0     H87210   9.323   0.769   0.327 -0.1021  0.3864 -0.3061
  647MOL0     O87211   9.816   0.531   4.606  0.0444  0.7584  0.0951
  647MOL0     C87212   9.797   0.596   4.708 -0.6099  0.8240  0.3893
  647MOL0     O87213   9.895   0.642   4.788  0.7610 -0.5531 -0.9736
  647MOL0     C87214  10.021   0.626   4.741 -0.9525  0.3099 -0.3523
  647MOL0     C87215  10.090   0.498   4.763 -0.3041  0.0745 -0.0459
  647MOL0     C87216  10.217   0.478   4.716  0.8629  0.1300 -0.1101
  647MOL0     C87217  10.273   0.571   4.622 -0.1562  0.5310 -0.7706
  647MOL0     O87218  10.400   0.549   4.572  0.6620 -0.5539  0.0607
  647MOL0     C87219  10.490   0.664   4.552 -0.0370 -0.3523 -0.9112
  647MOL0     C87220  10.624   0.601   4.509  0.0755  0.6483 -0.3634
  647MOL0     C87221  10.726   0.710   4.476  1.1087  0.2963  0.4966
  647MOL0     C87222  10.866   0.649   4.474  0.6086 -0.1044 -0.0220
  647MOL0     C87223  10.980   0.740   4.503 -0.1696 -0.0561 -0.2641
  647MOL0     C87224  11.112   0.657   4.479 -0.0503  0.2746 -0.3326
  647MOL0     C87225  11.153   0.668   4.333 -0.3336  0.1954 -0.9705
  647MOL0     C87226  11.244   0.554   4.270  0.0747  0.1534  0.2973
  647MOL0     N87227  11.378   0.560   4.311  0.2381 -0.8446  0.0691
  647MOL0     C87228  11.472   0.470   4.270  0.4386 -0.4138  0.0678
  647MOL0     C87229  11.578   0.488   4.348 -0.4034  0.2542  0.2077
  647MOL0     C87230  11.701   0.403   4.367 -0.4787 -0.2177  0.0849
  647MOL0     C87231  11.829   0.445   4.297  0.1095  0.2553 -0.0225
  647MOL0     C87232  11.830   0.382   4.150  0.0658 -0.4808 -0.2742
  647MOL0     C87233  11.967   0.373   4.102 -0.7412  0.6676  0.1076
  647MOL0     O87234  11.959   0.306   3.980 -0.0221 -0.1093  0.0673
  647MOL0     C87235  12.080   0.269   3.922 -0.4031 -0.0984  0.0798
  647MOL0     C87236  12.195   0.228   3.980  0.0866 -0.2465  0.5249
  647MOL0     C87237  12.319   0.220   3.906  0.2420 -1.0225  0.3657
  647MOL0     C87238  12.315   0.230   3.769 -0.8937 -0.2000  0.8103
  647MOL0     C87239  12.449   0.229   3.694  0.1859  0.7847  0.1095
  647MOL0     O87240  12.562   0.187   3.764 -0.0186 -0.2512 -0.2264
  647MOL0     C87241  12.681   0.196   3.699  0.0026  0.6375  0.1425
  647MOL0     C87242  12.746   0.083   3.647 -0.0104 -0.3734 -0.8275
  647MOL0     C87243  12.870   0.096   3.570  0.8012 -0.0063 -0.3276
  647MOL0     C87244  12.920   0.224   3.541 -0.0430 -0.3443  0.8716
  647MOL0     O87245  13.031   0.247   3.461 -0.2025 -0.8129  0.6287
  647MOL0     C87246  13.084   0.140   3.385 -0.0094 -0.6197  0.7089
  647MOL0     C87247  13.017   0.127   3.248 -0.3628  0.1996  0.9667
  647MOL0     C87248  13.024   0.256   3.163 -0.1020  0.1314  0.5827
  647MOL0     C87249  12.992   0.230   3.019  0.7003 -0.1702 -0.3769
  647MOL0     C87250  13.041   0.358   2.936  0.7330 -0.6771  0.0195
  647MOL0     C87251  13.023   0.350   2.787  0.8699  0.3778  0.0177
  647MOL0     C87252  12.881   0.322   2.750 -0.9465  0.6621 -0.4520
  647MOL0     C87253  12.859   0.337   2.598  0.5234 -0.5288 -0.5747
  647MOL0    Cl87254  12.940   0.203   2.507  0.3031  0.1276  0.0697
  647MOL0     C87255  12.855   0.335   3.606 -0.5776 -0.2860 -0.0608
  647MOL0     C87256  12.742   0.315   3.682 -0.3987 -0.8668  1.0706
  647MOL0     O87257  12.451   0.261   3.576 -0.0729  0.3837  0.8408
  647MOL0     C87258  12.194   0.272   3.708  0.3209  0.3285  0.6871
  647MOL0     C87259  12.075   0.281   3.781  0.6966 -0.0338  0.3290
  647MOL0     N87260  11.555   0.607   4.421 -0.9263 -0.3032 -0.4300
  647MOL0     N87261  11.437   0.641   4.408 -0.0765  0.2138  0.3360
  647MOL0     C87262  10.203   0.683   4.595  0.5717  0.6721 -0.1136
  647MOL0     C87263  10.076   0.717   4.651 -0.0731 -0.1787  0.3807
  647MOL0     C87264   9.660   0.630   4.740 -1.2566 -0.0478 -0.5526
  647MOL0     C87265   9.599   0.718   4.649 -0.8236 -0.4663  0.5986
  647MOL0     C87266   9.485   0.785   4.687 -0.8654 -1.4826  0.1758
  647MOL0     C87267   9.428   0.762   4.812 -0.1018 -0.2050  0.3138
  647MOL0     O87268   9.304   0.815   4.842 -0.5539  0.3239 -0.1876
  647MOL0     C87269   9.195   0.779   4.747  0.1720 -0.3435 -0.5385
  647MOL0     C87270   9.065   0.859   4.775 -1.0687 -0.1072 -0.1722
  647MOL0     C87271   9.020   0.839   4.916  0.1098  0.1415 -0.3541
  647MOL0     C87272   8.880   0.896   4.934  1.1037 -0.2359 -0.2793
  647MOL0     C87273   8.823   0.836   5.058  0.4290  0.4547 -0.3702
  647MOL0     C87274   8.772   0.798   5.162 -0.3459  0.2305 -0.5044
  647MOL0     C87275   9.485   0.666   4.891 -0.2358  0.3654  0.2402
  647MOL0     C87276   9.595   0.598   4.856 -0.8266  0.0602 -0.3208
  647MOL0     C87277   9.643   0.496   4.955  0.4440  0.1309 -0.4890
  647MOL0     H87278  10.048   0.429   4.836  0.9311  1.0257  1.6347
  647MOL0     H87279  10.279   0.396   4.752 -2.0715 -1.8148  0.8878
  647MOL0     H87280  10.443   0.726   4.476 -1.1985 -0.5095 -0.3496
  647MOL0     H87281  10.502   0.721   4.644  0.6066 -1.2976 -0.3895
  647MOL0     H87282  10.616   0.535   4.422 -2.4370 -0.2438  0.4355
  647MOL0     H87283  10.653   0.532   4.589  1.4828 -0.5574 -1.8377
  647MOL0     H87284  10.728   0.787   4.554 -1.5959  2.0146 -0.9810
  647MOL0     H87285  10.713   0.757   4.378  1.6222  0.3128  0.4317
  647MOL0     H87286  10.869   0.558   4.534  3.2736 -1.4230 -1.9700
  647MOL0     H87287  10.877   0.613   4.372  0.1364  0.0578 -0.1304
  647MOL0     H87288  10.972   0.831   4.443 -3.4584  0.0499  0.1268
  647MOL0     H87289  10.970   0.772   4.607 -0.1665  4.0312 -1.3547
  647MOL0     H87290  11.199   0.690   4.535  1.9010  2.9708 -4.4366
  647MOL0     H87291  11.100   0.553   4.509  2.4974  0.5617  2.0942
  647MOL0     H87292  11.201   0.765   4.313  0.4735 -0.0627 -0.3267
  647MOL0     H87293  11.064   0.671   4.269 -0.9362 -0.5291 -0.1905
  647MOL0     H87294  11.207   0.451   4.275  2.6222 -1.0017 -1.5791
  647MOL0     H87295  11.243   0.563   4.161  0.1093 -2.6707 -0.0163
  647MOL0     H87296  11.443   0.392   4.200  1.2149 -0.4634 -0.2032
  647MOL0     H87297  11.724   0.415   4.473 -0.7054 -0.7786  0.2019
  647MOL0     H87298  11.687   0.297   4.345 -0.7381 -0.0988 -0.3237
  647MOL0     H87299  11.833   0.554   4.286 -2.5442  0.3948 -0.2905
  647MOL0     H87300  11.907   0.403   4.361 -3.8081 -1.9267  3.8599
  647MOL0     H87301  11.767   0.443   4.084 -1.4397 -3.4936 -1.8766
  647MOL0     H87302  11.778   0.286   4.147 -0.7917 -0.0261 -0.4029
  647MOL0     H87303  12.029   0.318   4.173  2.7516  3.7290 -0.3117
  647MOL0     H87304  12.002   0.476   4.096  0.9781  0.0874 -0.1123
  647MOL0     H87305  12.191   0.223   4.088  1.1894  1.5473  0.7006
  647MOL0     H87306  12.415   0.217   3.957  0.8866  1.9903 -0.4946
  647MOL0     H87307  12.692  -0.011   3.651  0.4786 -0.7769 -2.5940
  647MOL0     H87308  12.921   0.001   3.552 -1.0720 -1.4504  1.5051
  647MOL0     H87309  13.190   0.166   3.378  0.0312 -0.5839  1.4369
  647MOL0     H87310  13.090   0.046   3.440 -1.6045 -0.2603  1.5461
  647MOL0     H87311  13.072   0.052   3.191  2.5430  1.5598  1.7926
  647MOL0     H87312  12.913   0.095   3.258 -0.0752 -1.7864 -1.3629
  647MOL0     H87313  12.967   0.339   3.204  0.6524  0.3988  1.1181
  647MOL0     H87314  13.126   0.296   3.163 -1.7449  5.0360 -1.4314
  647MOL0     H87315  12.884   0.211   3.012 -0.0728  2.4906  2.2749
  647MOL0     H87316  13.034   0.134   2.989 -2.2841 -1.3718 -1.1028
  647MOL0     H87317  13.149   0.376   2.948  0.6662  1.0210 -1.5170
  647MOL0     H87318  12.988   0.447   2.969 -0.8689 -1.0375 -1.4179
  647MOL0     H87319  13.055   0.443   2.740  4.2440 -0.3333  0.6867
  647MOL0     H87320  13.087   0.267   2.756  1.6397  1.0336 -0.1802
  647MOL0     H87321  12.804   0.387   2.793 -0.7758 -0.2240  1.2682
  647MOL0     H87322  12.861   0.219   2.781  2.6710  0.3042  1.2042
  647MOL0     H87323  12.750   0.336   2.585  0.4528 -0.2238 -0.0387
  647MOL0     H87324  12.886   0.440   2.571  0.9117 -0.8957 -1.6412
  647MOL0     H87325  12.889   0.438   3.598  1.6574 -0.9095  0.6327
  647MOL0     H87326  12.713   0.412   3.721 -1.9838 -0.9062  0.0439
  647MOL0     H87327  12.184   0.300   3.603  2.0931 -1.5436 -0.0622
  647MOL0     H87328  11.990   0.325   3.729 -0.7506 -2.7165  0.2207
  647MOL0     H87329  10.252   0.756   4.531  0.3580  1.4692  0.6161
  647MOL0     H87330  10.019   0.807   4.633  1.7803  1.1501  0.9513
  647MOL0     H87331   9.642   0.734   4.550 -5.0234  0.9731 -1.2291
  647MOL0     H87332   9.435   0.853   4.619 -1.2780 -2.3938 -0.4580
  647MOL0     H87333   9.177   0.671   4.741  1.2312 -0.6596  1.4112
  647MOL0     H87334   9.228   0.825   4.654 -0.0300  2.6923  0.7909
  647MOL0     H87335   8.986   0.831   4.705 -0.2885 -5.1204  0.5901
  647MOL0     H87336   9.088   0.966   4.767  1.2950 -0.0496  4.1561
  647MOL0     H87337   9.089   0.901   4.975 -1.4016  3.3183 -1.7169
  647MOL0     H87338   9.028   0.732   4.938 -2.0225  0.3189  1.6029
  647MOL0     H87339   8.876   1.005   4.947 -1.0257 -0.6241  3.9582
  647MOL0     H87340   8.818   0.861   4.851 -0.2393 -1.0520  1.0197
  647MOL0     H87341   8.744   0.766   5.260  0.5530  1.2605  0.1178
  647MOL0     H87342   9.450   0.634   4.989  0.7748  1.2459  0.9085
  647MOL0     H87343   9.558   0.444   5.001  0.4947 -0.2647 -0.8400
  647MOL0     H87344   9.701   0.414   4.913 -0.3914 -0.2585 -0.8945
  647MOL0     H87345   9.703   0.539   5.036 -0.1678  0.2065 -0.0624
  648MOL0     O87346   5.127   1.699   8.996  0.5179 -0.2063 -0.0924
  648MOL0     C87347   5.203   1.680   9.087  0.6786 -0.1472  0.0805
  648MOL0     O87348   5.235   1.769   9.192  0.3313  0.0979 -0.1543
  648MOL0     C87349   5.160   1.888   9.209  1.7041  0.3095 -0.6552
  648MOL0     C87350   5.220   1.975   9.305 -0.1007  0.6555 -0.4253
  648MOL0     C87351   5.168   2.106   9.317  0.3517  0.3528 -0.5074
  648MOL0     C87352   5.051   2.145   9.258 -0.5456 -0.1023 -0.0270
  648MOL0     O87353   5.025   2.277   9.282 -0.1885  0.1357  0.1390
  648MOL0     C87354   4.956   2.350   9.173  0.1266  0.4229 -0.3300
  648MOL0     C87355   4.888   2.475   9.234 -0.2642  0.5081  0.2811
  648MOL0     C87356   4.829   2.567   9.126 -0.3941 -0.4418  0.1287
  648MOL0     C87357   4.754   2.692   9.175  0.5909 -0.3961 -0.9226
  648MOL0     C87358   4.854   2.809   9.230 -0.3795  0.6400  0.2311
  648MOL0     C87359   4.788   2.949   9.256  1.0610 -0.2478 -1.0563
  648MOL0     C87360   4.751   3.030   9.136  0.1099 -0.0734 -0.2235
  648MOL0     C87361   4.688   3.169   9.181 -0.0334 -0.3820  1.0115
  648MOL0     N87362   4.792   3.254   9.258  0.4046  0.2908 -0.1707
  648MOL0     C87363   4.922   3.280   9.232  1.2338 -0.6310  0.2004
  648MOL0     C87364   4.960   3.384   9.306 -0.0993 -0.2173 -0.6283
  648MOL0     C87365   5.083   3.465   9.305  0.0301 -0.3452 -0.3266
  648MOL0     C87366   5.120   3.508   9.164 -0.5219  0.2246 -0.2624
  648MOL0     C87367   5.205   3.638   9.161 -0.3417  0.3168 -1.0336
  648MOL0     C87368   5.346   3.627   9.229 -0.3583  0.2693 -0.4550
  648MOL0     O87369   5.415   3.740   9.187  0.0409  0.3791 -0.7174
  648MOL0     C87370   5.542   3.751   9.236 -0.9242  0.2622  0.7867
  648MOL0     C87371   5.612   3.646   9.300 -0.5754  0.6562 -0.0699
  648MOL0     C87372   5.749   3.660   9.330  1.0147 -0.2707 -0.3560
  648MOL0     C87373   5.815   3.784   9.299 -0.3629  0.4345  0.1008
  648MOL0     C87374   5.959   3.794   9.321  0.1199  0.5339  0.1594
  648MOL0     O87375   6.035   3.679   9.346  0.1757  0.1754 -0.3785
  648MOL0     C87376   6.169   3.685   9.368  0.0012  0.3838 -0.2715
  648MOL0     C87377   6.207   3.680   9.501  0.4693  0.9105  0.4013
  648MOL0     C87378   6.336   3.663   9.542 -0.4873  0.0705 -0.1945
  648MOL0     C87379   6.432   3.640   9.451 -0.3507 -0.7055 -0.0024
  648MOL0     O87380   6.557   3.608   9.508  0.2663 -0.1354 -0.3612
  648MOL0     C87381   6.673   3.619   9.431 -0.1508  0.3249  0.0270
  648MOL0     C87382   6.794   3.590   9.518 -0.2678  0.3255 -0.1662
  648MOL0     C87383   6.927   3.624   9.441  0.8424  0.1129  0.7446
  648MOL0     C87384   7.062   3.617   9.524  0.5482  0.7325  0.2170
  648MOL0     C87385   7.119   3.470   9.536 -0.4634  0.0686 -0.2496
  648MOL0     C87386   7.216   3.439   9.429 -0.2407  0.8583 -0.0430
  648MOL0     C87387   7.274   3.291   9.427  0.6426  0.0568  0.7522
  648MOL0     C87388   7.355   3.270   9.298 -0.4614  0.2436 -0.0403
  648MOL0    Cl87389   7.532   3.313   9.316 -0.1302 -0.6956  0.0380
  648MOL0     C87390   6.407   3.643   9.310  0.0895 -0.5500  0.1684
  648MOL0     C87391   6.273   3.666   9.271  0.3875 -0.0669 -0.2798
  648MOL0     O87392   6.008   3.908   9.301 -0.6491  0.1070  0.4679
  648MOL0     C87393   5.737   3.886   9.238 -0.5784  0.5540 -0.4649
  648MOL0     C87394   5.607   3.873   9.205  0.6494  0.9798 -0.5444
  648MOL0     N87395   4.858   3.405   9.390 -0.1855 -0.3771 -1.2293
  648MOL0     N87396   4.764   3.331   9.362  0.0835 -0.2540 -0.2787
  648MOL0     C87397   4.991   2.058   9.170  0.3364 -0.0044  0.8404
  648MOL0     C87398   5.042   1.927   9.150  0.5068  0.2782  0.8132
  648MOL0     C87399   5.271   1.546   9.073  0.5298  0.3059  0.6238
  648MOL0     C87400   5.190   1.433   9.043 -0.3596 -0.4189 -0.0735
  648MOL0     C87401   5.242   1.309   9.017  0.2107  0.4106  0.6946
  648MOL0     C87402   5.375   1.286   9.025 -0.6837 -0.5974  0.7517
  648MOL0     O87403   5.412   1.156   8.999  0.4154  0.2011 -0.3776
  648MOL0     C87404   5.547   1.116   9.027  0.0857 -0.3916  0.1120
  648MOL0     C87405   5.565   0.962   9.001 -0.3579 -0.5040  0.2491
  648MOL0     C87406   5.479   0.871   9.091 -0.3131  0.2265  0.0180
  648MOL0     C87407   5.505   0.720   9.087 -0.3512 -0.4367  0.4259
  648MOL0     C87408   5.642   0.679   9.127 -0.0182 -0.4867  0.1071
  648MOL0     C87409   5.754   0.638   9.150 -0.3748  0.1574 -0.3890
  648MOL0     C87410   5.456   1.390   9.064  0.2696 -0.1571  0.5390
  648MOL0     C87411   5.410   1.524   9.089 -0.0105  0.2645  0.6450
  648MOL0     C87412   5.519   1.619   9.123  0.4299  0.6151 -0.2709
  648MOL0     H87413   5.317   1.946   9.345 -0.9616  1.5701  2.5750
  648MOL0     H87414   5.231   2.179   9.367  3.2346  0.1075 -3.4322
  648MOL0     H87415   5.027   2.385   9.098  2.7605 -0.5341  1.5632
  648MOL0     H87416   4.875   2.292   9.128 -1.7584  0.4472  2.7394
  648MOL0     H87417   4.957   2.532   9.297 -0.2255 -0.7892  1.4679
  648MOL0     H87418   4.800   2.441   9.289 -0.0471 -0.0109  0.3212
  648MOL0     H87419   4.765   2.509   9.059 -0.7210  0.4027 -0.3220
  648MOL0     H87420   4.915   2.606   9.071 -0.9531  0.9998  0.2247
  648MOL0     H87421   4.712   2.736   9.084  0.3619 -0.6114 -0.9196
  648MOL0     H87422   4.681   2.663   9.251  1.4088  1.4678  0.6699
  648MOL0     H87423   4.888   2.771   9.327  0.0087 -0.3185 -0.2713
  648MOL0     H87424   4.942   2.821   9.167  2.6539 -0.4229  3.9158
  648MOL0     H87425   4.696   2.930   9.313 -0.2117  1.8167 -2.3273
  648MOL0     H87426   4.855   3.010   9.317  1.8967 -1.0271 -1.1712
  648MOL0     H87427   4.677   2.982   9.071 -0.8779  3.6895 -2.1840
  648MOL0     H87428   4.838   3.056   9.075 -1.2790  1.1922 -1.7674
  648MOL0     H87429   4.657   3.226   9.093  0.6847 -0.0200  0.9855
  648MOL0     H87430   4.596   3.155   9.238 -0.6312 -0.1043  0.1351
  648MOL0     H87431   4.988   3.224   9.166 -1.2329 -2.6172 -0.7206
  648MOL0     H87432   5.069   3.558   9.360  2.1686  0.8571 -1.6539
  648MOL0     H87433   5.174   3.419   9.346 -1.1897 -2.8142 -0.2444
  648MOL0     H87434   5.161   3.420   9.114 -2.8266 -0.8394 -0.3649
  648MOL0     H87435   5.026   3.529   9.114 -1.6390  0.7039  1.9011
  648MOL0     H87436   5.140   3.719   9.195 -0.6133  0.1803 -1.2206
  648MOL0     H87437   5.208   3.654   9.053 -0.4330 -0.6400 -1.1866
  648MOL0     H87438   5.394   3.535   9.193 -0.2434  0.2317 -0.2141
  648MOL0     H87439   5.336   3.622   9.338 -0.5308 -0.4009 -0.4954
  648MOL0     H87440   5.575   3.547   9.322  0.3033  0.3490  0.0620
  648MOL0     H87441   5.794   3.571   9.373 -0.2540 -0.4221  0.7023
  648MOL0     H87442   6.127   3.677   9.575  1.1347 -0.1187  1.0991
  648MOL0     H87443   6.365   3.670   9.647 -0.3786 -0.5355 -0.1774
  648MOL0     H87444   6.668   3.546   9.350 -2.9342 -0.7475  1.0230
  648MOL0     H87445   6.686   3.715   9.380 -0.5406  0.7539  0.7186
  648MOL0     H87446   6.791   3.659   9.603 -1.0494  2.9805 -2.1763
  648MOL0     H87447   6.803   3.485   9.546 -0.0151  0.6762  1.1324
  648MOL0     H87448   6.936   3.557   9.355 -1.3940  0.9440 -0.2173
  648MOL0     H87449   6.926   3.729   9.411 -2.4004  0.3534  1.3462
  648MOL0     H87450   7.058   3.658   9.625  2.0795 -0.6394  0.8855
  648MOL0     H87451   7.140   3.666   9.465 -0.9313  1.6178 -1.0837
  648MOL0     H87452   7.038   3.398   9.543 -2.9695  2.5164 -1.9575
  648MOL0     H87453   7.168   3.464   9.634 -2.0438 -0.0788  0.5603
  648MOL0     H87454   7.172   3.454   9.330  0.2064 -2.5519 -0.8756
  648MOL0     H87455   7.310   3.494   9.444  0.4245 -1.1071  4.4656
  648MOL0     H87456   7.192   3.218   9.426  0.9212 -0.2656 -0.1922
  648MOL0     H87457   7.335   3.278   9.516 -0.2506  0.5398  1.4504
  648MOL0     H87458   7.358   3.161   9.288  0.9134 -0.3587  4.5362
  648MOL0     H87459   7.312   3.314   9.208 -2.1387 -0.6841  0.2415
  648MOL0     H87460   6.481   3.644   9.231 -0.5922  0.6799 -0.4902
  648MOL0     H87461   6.243   3.659   9.167 -0.5701 -0.6084  0.0272
  648MOL0     H87462   5.794   3.973   9.206  1.9025 -1.1298 -0.8563
  648MOL0     H87463   5.551   3.951   9.153 -3.0173 -0.1538  1.3740
  648MOL0     H87464   4.902   2.078   9.112  1.7211  0.6631 -1.1767
  648MOL0     H87465   4.979   1.865   9.087  1.3550 -0.4625  0.6606
  648MOL0     H87466   5.083   1.447   9.051 -0.0147  1.6947  2.0886
  648MOL0     H87467   5.177   1.222   9.012  1.7115 -0.8942  2.3000
  648MOL0     H87468   5.582   1.136   9.128  1.8557  0.2241 -0.5829
  648MOL0     H87469   5.605   1.166   8.949  0.6968 -1.1318  0.0778
  648MOL0     H87470   5.670   0.931   9.005 -0.1720 -0.4670 -2.4561
  648MOL0     H87471   5.543   0.937   8.897  0.0601  0.8674 -0.1918
  648MOL0     H87472   5.374   0.885   9.066 -0.5283  1.7416  1.6096
  648MOL0     H87473   5.496   0.895   9.196  2.1144 -0.9400 -0.0219
  648MOL0     H87474   5.434   0.675   9.157 -2.6259 -1.3083 -2.2711
  648MOL0     H87475   5.470   0.677   8.993  0.2428 -1.4403  0.6454
  648MOL0     H87476   5.852   0.616   9.187  0.6806  3.1726 -1.0788
  648MOL0     H87477   5.561   1.365   9.079  0.6067 -1.2183 -2.7495
  648MOL0     H87478   5.585   1.579   9.201  1.5752  0.3493 -1.3469
  648MOL0     H87479   5.587   1.637   9.039  0.2891  0.6172 -0.3844
  648MOL0     H87480   5.483   1.715   9.161  1.4721  0.9542 -0.1024
  649MOL0     O87481   8.062   4.543   1.396  0.3497  0.4001 -0.1466
  649MOL0     C87482   8.012   4.629   1.320 -0.0091  0.1192 -0.7066
  649MOL0     O87483   8.079   4.740   1.280  0.4755 -0.9496  0.4583
  649MOL0     C87484   8.210   4.750   1.323 -0.3668 -0.1136  0.1772
  649MOL0     C87485   8.323   4.715   1.250 -0.0168  0.5506 -0.1585
  649MOL0     C87486   8.456   4.737   1.292 -0.3792 -0.3613 -0.2941
  649MOL0     C87487   8.470   4.802   1.416 -0.8782 -0.2814  0.1085
  649MOL0     O87488   8.597   4.816   1.458  0.8327  0.9213  0.0825
  649MOL0     C87489   8.631   4.728   1.565 -0.4371 -0.2278 -0.5116
  649MOL0     C87490   8.692   4.591   1.529 -0.3026 -0.3468  0.4350
  649MOL0     C87491   8.821   4.619   1.454 -0.0047 -0.3588  0.7790
  649MOL0     C87492   8.941   4.666   1.546  0.6540  1.0937 -0.2729
  649MOL0     C87493   9.072   4.588   1.511  0.2323 -0.1869  0.1876
  649MOL0     C87494   9.194   4.641   1.599  0.2132 -1.0962  0.2882
  649MOL0     C87495   9.334   4.587   1.547  0.0907  0.0834 -0.4680
  649MOL0     C87496   9.353   4.441   1.593  0.9492  0.3223 -0.0377
  649MOL0     N87497   9.488   4.390   1.572  0.9991 -0.0801  0.1867
  649MOL0     C87498   9.545   4.316   1.467  0.0589  0.1533 -0.3656
  649MOL0     C87499   9.668   4.291   1.501 -0.2655 -0.5598  0.5705
  649MOL0     C87500   9.764   4.207   1.418 -0.1874 -0.1927 -0.9134
  649MOL0     C87501   9.741   4.060   1.458 -0.1033  0.8482 -0.4286
  649MOL0     C87502   9.806   3.952   1.364  0.8095  0.2336  0.5977
  649MOL0     C87503   9.918   3.870   1.428 -0.0338 -0.9795  0.2772
  649MOL0     O87504  10.014   3.963   1.479  0.1723 -0.5144  0.1917
  649MOL0     C87505  10.125   3.910   1.550  0.8412 -0.6546  0.3257
  649MOL0     C87506  10.219   4.003   1.581 -0.2906 -0.8267  0.2836
  649MOL0     C87507  10.350   3.980   1.631 -0.6729  0.5762 -0.9199
  649MOL0     C87508  10.372   3.842   1.656  0.0814  0.2204 -0.3850
  649MOL0     C87509  10.506   3.805   1.712 -0.1152 -0.2358  0.5662
  649MOL0     O87510  10.601   3.902   1.719 -0.2353 -0.5357 -0.7561
  649MOL0     C87511  10.724   3.860   1.762 -1.4617 -0.8169  0.7436
  649MOL0     C87512  10.825   3.807   1.678 -0.4665 -0.6304 -1.3275
  649MOL0     C87513  10.950   3.788   1.728 -0.3614 -0.1735  0.4276
  649MOL0     C87514  10.976   3.828   1.863 -0.2515  0.4234 -0.5716
  649MOL0     O87515  11.108   3.813   1.907  0.5426  0.8527 -0.2308
  649MOL0     C87516  11.219   3.786   1.820  0.8782 -0.3568 -0.0142
  649MOL0     C87517  11.342   3.802   1.904  0.5686  0.1416  1.1777
  649MOL0     C87518  11.476   3.790   1.829  0.0131 -0.0816  0.5323
  649MOL0     C87519  11.595   3.802   1.928  0.5541 -0.2572 -0.0332
  649MOL0     C87520  11.720   3.858   1.860  0.0006 -0.1295  0.1010
  649MOL0     C87521  11.818   3.879   1.978  0.3433 -0.5097  0.3089
  649MOL0     C87522  11.957   3.920   1.934 -0.2410  0.0614 -0.0014
  649MOL0     C87523  12.058   3.938   2.045 -0.3095  0.5148  0.8030
  649MOL0    Cl87524  12.233   3.953   1.993  0.1921  0.2866  0.9695
  649MOL0     C87525  10.875   3.874   1.950  0.5971  0.4935 -0.0043
  649MOL0     C87526  10.749   3.892   1.894 -0.2157  0.4915 -0.1695
  649MOL0     O87527  10.515   3.688   1.748 -0.8535 -0.5120 -0.4842
  649MOL0     C87528  10.272   3.745   1.634 -0.2381  0.5263  0.2647
  649MOL0     C87529  10.153   3.777   1.576  0.2209 -0.6437 -0.2167
  649MOL0     N87530   9.702   4.343   1.621  0.2221 -0.4513 -0.0296
  649MOL0     N87531   9.596   4.407   1.658  0.3207 -0.1313 -0.3800
  649MOL0     C87532   8.357   4.847   1.490 -0.8450  1.1624  1.0034
  649MOL0     C87533   8.237   4.816   1.442  0.3100 -0.1665 -0.2038
  649MOL0     C87534   7.875   4.615   1.270  0.5021  0.4002 -0.2220
  649MOL0     C87535   7.830   4.682   1.151  0.3330 -0.3837 -0.5512
  649MOL0     C87536   7.697   4.670   1.100 -1.0820 -0.8374 -0.3550
  649MOL0     C87537   7.605   4.585   1.162 -0.5533  0.0054  0.4815
  649MOL0     O87538   7.478   4.570   1.126 -0.0252 -0.2545  0.0424
  649MOL0     C87539   7.432   4.612   0.999  0.3103 -0.8224 -0.2172
  649MOL0     C87540   7.279   4.602   0.959  0.0490 -0.6100 -0.1107
  649MOL0     C87541   7.215   4.465   1.000  0.3548 -0.5173  0.0551
  649MOL0     C87542   7.061   4.469   1.014  0.9702  0.5541  0.5931
  649MOL0     C87543   6.983   4.532   0.909 -0.1937  0.4439  0.3620
  649MOL0     C87544   6.912   4.578   0.824 -0.0856 -0.9729  0.0830
  649MOL0     C87545   7.653   4.514   1.276  0.7946  0.1296 -0.4832
  649MOL0     C87546   7.781   4.522   1.327 -0.6799 -0.1373 -0.7890
  649MOL0     C87547   7.799   4.463   1.462  0.7621 -0.2006  0.3065
  649MOL0     H87548   8.298   4.669   1.155  0.2206  0.4755 -0.1850
  649MOL0     H87549   8.546   4.709   1.240 -0.4965 -0.3991 -0.4777
  649MOL0     H87550   8.698   4.782   1.632 -1.8126 -0.8337  1.4480
  649MOL0     H87551   8.536   4.705   1.614 -0.0395  0.3444  0.5530
  649MOL0     H87552   8.632   4.523   1.468 -0.1948  0.4680 -0.6162
  649MOL0     H87553   8.710   4.541   1.625  0.3252 -0.4485  0.2706
  649MOL0     H87554   8.800   4.690   1.373  3.1140  2.2812  2.0499
  649MOL0     H87555   8.858   4.527   1.410  0.3946 -0.4012  1.1949
  649MOL0     H87556   8.958   4.773   1.531 -0.2170  0.9866 -2.2719
  649MOL0     H87557   8.919   4.653   1.653 -2.3021 -0.9335 -1.0093
  649MOL0     H87558   9.062   4.483   1.539  1.7723  0.3017  2.8201
  649MOL0     H87559   9.102   4.600   1.406 -0.1881  0.1657  0.1058
  649MOL0     H87560   9.189   4.750   1.592 -2.1504 -1.1814 -0.1578
  649MOL0     H87561   9.170   4.608   1.700  2.8012  1.6096  1.9530
  649MOL0     H87562   9.414   4.645   1.593 -1.9152  3.5345 -1.0416
  649MOL0     H87563   9.342   4.601   1.439 -0.6929  3.1424 -0.2033
  649MOL0     H87564   9.342   4.448   1.701  2.0255  2.6670 -0.0181
  649MOL0     H87565   9.281   4.371   1.550  0.2814  0.9749  0.0037
  649MOL0     H87566   9.498   4.285   1.374 -2.1701 -0.0457  0.7614
  649MOL0     H87567   9.762   4.218   1.310  0.5778 -0.2608 -0.9413
  649MOL0     H87568   9.864   4.241   1.446  0.3505 -3.0763  1.1222
  649MOL0     H87569   9.776   4.051   1.561  1.6131 -2.5101 -1.1857
  649MOL0     H87570   9.632   4.054   1.448 -0.2112  2.5215 -0.5629
  649MOL0     H87571   9.836   3.994   1.268 -2.8100 -0.1757 -0.8731
  649MOL0     H87572   9.724   3.887   1.333 -0.4924  1.1723  1.9456
  649MOL0     H87573   9.969   3.816   1.347  1.0052  0.6397 -0.1945
  649MOL0     H87574   9.885   3.790   1.495 -1.9425 -2.6039 -2.3893
  649MOL0     H87575  10.197   4.106   1.554 -1.0193 -0.1852  2.9963
  649MOL0     H87576  10.412   4.069   1.641 -3.2648  2.4282 -0.4882
  649MOL0     H87577  10.803   3.786   1.574  0.0692  0.9242 -1.7730
  649MOL0     H87578  11.026   3.749   1.661 -0.0916  0.8620  0.1180
  649MOL0     H87579  11.221   3.687   1.774 -0.0801 -1.1533  1.5795
  649MOL0     H87580  11.221   3.862   1.741  1.5231 -1.7517 -1.4028
  649MOL0     H87581  11.331   3.903   1.943 -2.4399  0.7868 -0.9676
  649MOL0     H87582  11.333   3.727   1.983 -0.5764  0.5701  1.4821
  649MOL0     H87583  11.478   3.702   1.764 -0.5839 -0.5430  1.1263
  649MOL0     H87584  11.486   3.878   1.764 -1.8461 -0.9577 -1.0237
  649MOL0     H87585  11.621   3.700   1.961  2.1793  0.2394  0.3391
  649MOL0     H87586  11.568   3.865   2.013 -3.1351  0.8114 -1.8031
  649MOL0     H87587  11.709   3.949   1.799 -2.5711 -2.4731 -3.2583
  649MOL0     H87588  11.758   3.779   1.795 -0.3861  0.0482 -0.3470
  649MOL0     H87589  11.777   3.960   2.039  1.8195  1.0103 -0.6364
  649MOL0     H87590  11.815   3.783   2.030 -0.1666  0.5518  2.3518
  649MOL0     H87591  11.964   4.010   1.872  1.0916  0.4217  0.6347
  649MOL0     H87592  11.989   3.838   1.869 -1.3932 -2.0958  2.0144
  649MOL0     H87593  12.033   4.033   2.093  3.1720  2.1085 -0.1833
  649MOL0     H87594  12.046   3.852   2.110  1.0002 -0.7984 -0.6100
  649MOL0     H87595  10.888   3.892   2.056 -1.3146 -0.8874  0.5206
  649MOL0     H87596  10.666   3.930   1.953 -0.1737 -0.0783  0.2682
  649MOL0     H87597  10.287   3.642   1.665 -2.3988 -0.0444 -0.4566
  649MOL0     H87598  10.073   3.708   1.554 -2.4137  2.6583 -1.8514
  649MOL0     H87599   8.395   4.895   1.579  2.0740  0.4810  0.2522
  649MOL0     H87600   8.163   4.868   1.502 -0.6210 -0.7215 -0.8556
  649MOL0     H87601   7.898   4.757   1.111  1.2567 -1.8994 -1.9521
  649MOL0     H87602   7.667   4.737   1.020  0.4471 -1.7221 -1.7234
  649MOL0     H87603   7.482   4.546   0.928  0.5094  1.8203 -2.7006
  649MOL0     H87604   7.466   4.715   0.984  1.7355 -0.6340  3.1913
  649MOL0     H87605   7.275   4.607   0.850  0.3269 -1.0643 -0.1425
  649MOL0     H87606   7.229   4.685   1.010  0.3792 -1.7915  2.3008
  649MOL0     H87607   7.256   4.433   1.096 -0.5076  1.0181  0.9720
  649MOL0     H87608   7.238   4.397   0.917 -0.8369 -1.3540  0.3765
  649MOL0     H87609   7.022   4.369   1.032  0.0425  0.8482  0.2492
  649MOL0     H87610   7.037   4.521   1.107 -2.3614  0.0470  0.1124
  649MOL0     H87611   6.849   4.617   0.747 -1.0256 -1.7943  0.4110
  649MOL0     H87612   7.591   4.451   1.340  1.1800 -0.2464 -0.4767
  649MOL0     H87613   7.817   4.551   1.524 -1.3092  2.0315 -2.0334
  649MOL0     H87614   7.718   4.402   1.503  1.8227 -1.2322  0.9165
  649MOL0     H87615   7.884   4.395   1.457  0.2760 -0.7583 -3.0105
  650MOL0     O87616   1.267  10.970   9.738 -0.5517 -0.4264 -0.0863
  650MOL0     C87617   1.166  10.949   9.676 -0.3380  0.3942 -0.0713
  650MOL0     O87618   1.149  10.876   9.561 -0.5387  0.4278 -0.1790
  650MOL0     C87619   1.254  10.795   9.520  0.1807 -0.6249  0.1210
  650MOL0     C87620   1.256  10.655   9.537 -0.1675 -0.0521  0.1640
  650MOL0     C87621   1.369  10.575   9.507  0.2589 -0.3535  0.6395
  650MOL0     C87622   1.477  10.641   9.450 -0.1102  0.7168  0.0749
  650MOL0     O87623   1.581  10.564   9.407  0.3592 -0.4773  0.8594
  650MOL0     C87624   1.693  10.576   9.500 -0.3761 -0.5498 -0.3861
  650MOL0     C87625   1.809  10.510   9.427  0.1386 -0.1691 -0.7281
  650MOL0     C87626   1.941  10.503   9.517  0.4087 -0.0519 -0.6515
  650MOL0     C87627   2.063  10.495   9.423  0.7942  0.0291 -0.8851
  650MOL0     C87628   2.208  10.506   9.484  0.3986  0.4039 -0.1712
  650MOL0     C87629   2.268  10.374   9.537 -0.0484 -0.0561 -0.8180
  650MOL0     C87630   2.411  10.395   9.588 -0.3315 -0.1458 -0.2946
  650MOL0     C87631   2.515  10.398   9.473  0.9717  0.3429  0.7414
  650MOL0     N87632   2.639  10.427   9.541 -0.0370 -0.5450 -0.4366
  650MOL0     C87633   2.692  10.364   9.655 -0.2725 -0.6461  0.1669
  650MOL0     C87634   2.787  10.451   9.698  0.0015  1.3446 -0.4371
  650MOL0     C87635   2.872  10.422   9.819 -0.6550  0.6997  0.2101
  650MOL0     C87636   3.002  10.367   9.775 -0.5317  0.2458 -0.1186
  650MOL0     C87637   2.988  10.218   9.750  0.2666 -0.0318  0.3137
  650MOL0     C87638   3.108  10.155   9.681  0.0623 -0.0159  0.6787
  650MOL0     O87639   3.224  10.170   9.760  0.4772  0.5754  0.4331
  650MOL0     C87640   3.347  10.131   9.712  0.0736  0.2680  0.5959
  650MOL0     C87641   3.375  10.082   9.579 -1.1762  0.8600 -0.5281
  650MOL0     C87642   3.511  10.070   9.546  0.1459  0.5184 -0.8770
  650MOL0     C87643   3.612  10.075   9.649 -0.0125  0.8949  0.3643
  650MOL0     C87644   3.749  10.051   9.617  0.5254 -0.0281  0.0530
  650MOL0     O87645   3.778   9.986   9.500  0.4322 -0.5698 -0.2493
  650MOL0     C87646   3.907   9.954   9.478 -0.1826  0.4243  0.3686
  650MOL0     C87647   3.978   9.858   9.555 -0.4292  0.0986  0.1195
  650MOL0     C87648   4.105   9.819   9.524 -0.2373 -0.6100  0.3339
  650MOL0     C87649   4.172   9.888   9.417 -0.0551 -0.0175  0.3521
  650MOL0     O87650   4.299   9.882   9.380 -0.7049 -0.0467 -0.1333
  650MOL0     C87651   4.394   9.825   9.470 -0.2264 -0.1014  0.4604
  650MOL0     C87652   4.513   9.784   9.389 -0.2364 -0.0555  0.3528
  650MOL0     C87653   4.502   9.649   9.320  0.6542  0.3836  0.8823
  650MOL0     C87654   4.630   9.628   9.241  0.2633  0.2697 -0.2774
  650MOL0     C87655   4.608   9.520   9.140 -0.7989  0.4494 -0.7593
  650MOL0     C87656   4.735   9.500   9.057  0.5377  0.9661 -0.3989
  650MOL0     C87657   4.751   9.350   9.011  0.2263  0.7464 -0.0223
  650MOL0     C87658   4.832   9.328   8.888 -0.7765 -0.1240 -0.3317
  650MOL0    Cl87659   5.002   9.340   8.942  0.2039  0.5924 -0.3847
  650MOL0     C87660   4.099   9.982   9.337 -0.1109  0.1662  0.7231
  650MOL0     C87661   3.963  10.013   9.366 -0.0944 -0.2150  0.7089
  650MOL0     O87662   3.840  10.087   9.697  0.8195  0.3437 -0.2270
  650MOL0     C87663   3.572  10.112   9.777 -0.0033  0.2957 -1.1270
  650MOL0     C87664   3.444  10.145   9.809  0.1322 -0.5612 -0.5209
  650MOL0     N87665   2.800  10.561   9.612  0.3965  0.5852 -0.2201
  650MOL0     N87666   2.706  10.545   9.526  0.3834  0.3439 -0.0518
  650MOL0     C87667   1.467  10.778   9.417 -0.5527  0.1382  0.9490
  650MOL0     C87668   1.366  10.853   9.451  0.5101 -0.4887 -1.1425
  650MOL0     C87669   1.048  11.029   9.713  0.1181  0.4838  0.4902
  650MOL0     C87670   0.961  11.083   9.617  0.2364 -1.5929  0.3378
  650MOL0     C87671   0.846  11.155   9.652  0.1123 -1.3952 -0.6848
  650MOL0     C87672   0.824  11.191   9.784 -0.9099  0.1254 -1.0631
  650MOL0     O87673   0.732  11.276   9.831  0.3047  0.0181  0.0744
  650MOL0     C87674   0.630  11.330   9.746 -0.0828  0.3923 -0.0895
  650MOL0     C87675   0.515  11.240   9.742 -0.7963 -1.2071 -0.6384
  650MOL0     C87676   0.400  11.282   9.654  1.0573 -0.1769 -0.4681
  650MOL0     C87677   0.322  11.402   9.702  0.1241 -0.4063 -0.1337
  650MOL0     C87678   0.237  11.445   9.588  0.3191  0.0534 -0.0359
  650MOL0     C87679   0.173  11.477   9.487 -0.0565  0.4498 -0.0993
  650MOL0     C87680   0.907  11.134   9.882  0.1812 -0.9209  0.8323
  650MOL0     C87681   1.016  11.056   9.845 -0.1531  0.0912 -0.4722
  650MOL0     C87682   1.086  10.998   9.969  0.2944  0.0466 -1.1239
  650MOL0     H87683   1.173  10.615   9.594  0.3194  1.4127  2.0358
  650MOL0     H87684   1.370  10.468   9.524  1.0270 -0.5728 -0.6189
  650MOL0     H87685   1.698  10.682   9.530 -1.2446 -0.5785 -0.1082
  650MOL0     H87686   1.671  10.522   9.592  2.4355 -0.4087  0.4500
  650MOL0     H87687   1.835  10.570   9.340  2.9612  1.8510  1.3392
  650MOL0     H87688   1.781  10.409   9.394  3.2898 -0.8576 -1.7392
  650MOL0     H87689   1.933  10.419   9.587  0.4227  1.3970  1.1599
  650MOL0     H87690   1.942  10.578   9.596 -1.0448 -1.7674  1.1194
  650MOL0     H87691   2.058  10.400   9.370  1.3373 -1.7461  2.0095
  650MOL0     H87692   2.056  10.583   9.359  0.9349 -0.6506 -1.8673
  650MOL0     H87693   2.281  10.540   9.410  0.5347  0.0241 -0.2120
  650MOL0     H87694   2.198  10.577   9.566  0.2441  2.2274 -1.6873
  650MOL0     H87695   2.204  10.334   9.617  1.6720 -2.3456 -0.4702
  650MOL0     H87696   2.267  10.299   9.457  0.9629  0.9423 -1.7959
  650MOL0     H87697   2.413  10.303   9.646 -0.7885  0.2673  0.3950
  650MOL0     H87698   2.424  10.486   9.648  1.4202 -1.4297  1.4046
  650MOL0     H87699   2.517  10.305   9.415  0.8025  1.7466 -1.6354
  650MOL0     H87700   2.497  10.475   9.398 -0.5099 -0.0336  0.6852
  650MOL0     H87701   2.659  10.270   9.696 -1.2105 -0.3664  0.0740
  650MOL0     H87702   2.895  10.514   9.873 -0.1231 -0.0699  1.3325
  650MOL0     H87703   2.811  10.358   9.883  0.4282 -0.1796  0.3924
  650MOL0     H87704   3.044  10.413   9.685 -1.4633  1.0141 -0.1822
  650MOL0     H87705   3.081  10.387   9.847  0.0271 -2.0848  0.0075
  650MOL0     H87706   2.897  10.192   9.694 -0.0676  2.3007 -0.3226
  650MOL0     H87707   2.981  10.165   9.846  0.5598  0.1557  0.4389
  650MOL0     H87708   3.125  10.209   9.587 -1.6148 -0.3916  0.1164
  650MOL0     H87709   3.091  10.056   9.638  0.5004  0.2535 -0.1394
  650MOL0     H87710   3.303  10.052   9.504 -1.7446 -2.6646  1.1850
  650MOL0     H87711   3.541  10.044   9.445  1.4280  0.2821 -0.4606
  650MOL0     H87712   3.928   9.834   9.648  1.6425  1.9444  1.8375
  650MOL0     H87713   4.151   9.747   9.591 -1.7124  0.0870  2.1945
  650MOL0     H87714   4.409   9.903   9.545 -3.1268 -0.6702  1.7961
  650MOL0     H87715   4.351   9.740   9.524 -1.6755  1.2347  1.5062
  650MOL0     H87716   4.533   9.874   9.329 -0.3297  0.1391  0.6097
  650MOL0     H87717   4.590   9.779   9.466 -1.4372  0.3158  1.6279
  650MOL0     H87718   4.498   9.566   9.392  4.4735  0.4483  1.3415
  650MOL0     H87719   4.414   9.634   9.257  0.0456 -1.6145  2.1009
  650MOL0     H87720   4.705   9.594   9.313 -1.5011 -0.1531  1.4625
  650MOL0     H87721   4.667   9.721   9.197 -0.1973  0.5138 -0.1573
  650MOL0     H87722   4.523   9.536   9.072 -0.7700 -1.3351 -1.2663
  650MOL0     H87723   4.577   9.440   9.208 -0.5487  2.2522  1.5939
  650MOL0     H87724   4.731   9.557   8.964 -0.0317  1.0605 -0.3182
  650MOL0     H87725   4.823   9.527   9.117  0.4960  0.6927 -0.2127
  650MOL0     H87726   4.652   9.307   8.997  0.6522 -0.2663  0.0028
  650MOL0     H87727   4.800   9.291   9.089  0.5628 -0.1399 -0.8886
  650MOL0     H87728   4.816   9.226   8.851  0.0773  0.0597 -1.2339
  650MOL0     H87729   4.821   9.397   8.804  2.8095  2.3278  0.9527
  650MOL0     H87730   4.143  10.030   9.250  0.9826  2.1225  2.2774
  650MOL0     H87731   3.899  10.083   9.314 -0.8104 -1.2052  0.2308
  650MOL0     H87732   3.649  10.135   9.850 -0.2803  0.5409 -0.9105
  650MOL0     H87733   3.412  10.182   9.906 -0.4338  1.5561 -1.4356
  650MOL0     H87734   1.547  10.821   9.358 -1.8738  0.3458 -0.7730
  650MOL0     H87735   1.357  10.961   9.441  1.0504 -0.2259  0.8801
  650MOL0     H87736   0.981  11.072   9.511  3.0085 -1.3028  0.7654
  650MOL0     H87737   0.782  11.204   9.580 -1.3837  3.0276  3.1955
  650MOL0     H87738   0.659  11.355   9.644  2.0354  1.4998  0.7110
  650MOL0     H87739   0.593  11.425   9.788  0.7487  1.0130 -0.7198
  650MOL0     H87740   0.479  11.223   9.845  3.0133 -0.7157  0.9248
  650MOL0     H87741   0.559  11.146   9.707  0.6142 -1.2818  1.1655
  650MOL0     H87742   0.338  11.192   9.648  1.7901 -1.0076  2.5677
  650MOL0     H87743   0.446  11.307   9.558  2.0169  0.5744  0.1583
  650MOL0     H87744   0.259  11.377   9.787  0.3192  0.2538  0.2186
  650MOL0     H87745   0.388  11.483   9.734 -1.3942  1.3565 -1.2538
  650MOL0     H87746   0.111  11.497   9.402 -0.4098  1.2893  0.3417
  650MOL0     H87747   0.892  11.153   9.988  3.8607 -1.8002  1.6394
  650MOL0     H87748   1.038  11.033  10.061  1.0549 -0.9340 -0.3503
  650MOL0     H87749   1.061  10.892   9.970  0.1691  0.0778 -0.7297
  650MOL0     H87750   1.194  11.009   9.967  0.6063 -2.5914 -2.0641
  651MOL0     O87751   0.341   9.376   5.244 -0.2938 -0.1627  0.2103
  651MOL0     C87752   0.413   9.347   5.147  0.6849 -0.4532 -0.3344
  651MOL0     O87753   0.370   9.274   5.035  0.4472 -0.4167  0.2058
  651MOL0     C87754   0.248   9.211   5.034  0.9216  0.0561 -0.6957
  651MOL0     C87755   0.250   9.069   5.018  0.1068 -0.0574  0.3097
  651MOL0     C87756   0.129   8.996   5.025 -0.0633  0.2369  0.5315
  651MOL0     C87757   0.009   9.071   5.036 -0.0637  0.8401 -0.9208
  651MOL0     O87758  -0.110   8.999   5.046 -0.4017  0.0780  0.2738
  651MOL0     C87759  -0.215   9.039   4.952 -0.2132 -0.4783 -0.0451
  651MOL0     C87760  -0.191   8.975   4.811  0.1759  0.3237 -0.8184
  651MOL0     C87761  -0.148   9.081   4.710  0.0835  0.2761  0.2064
  651MOL0     C87762  -0.207   9.046   4.574 -0.3456  0.0072  0.7097
  651MOL0     C87763  -0.152   9.130   4.459 -0.0647 -0.0124  0.0620
  651MOL0     C87764  -0.126   9.275   4.497 -0.1324 -0.1203 -0.7426
  651MOL0     C87765  -0.095   9.367   4.384  0.5966  0.1666 -0.4046
  651MOL0     C87766  -0.038   9.501   4.427  0.0144 -0.3504 -0.3353
  651MOL0     N87767  -0.045   9.596   4.319  0.1215  0.1377 -0.0902
  651MOL0     C87768  -0.163   9.654   4.273  0.1193 -0.5048 -0.0647
  651MOL0     C87769  -0.128   9.770   4.223 -0.8609 -0.2900  0.1642
  651MOL0     C87770  -0.219   9.883   4.195  0.9552 -1.0808  0.4272
  651MOL0     C87771  -0.158   9.981   4.095 -0.5227 -1.0654 -0.3132
  651MOL0     C87772  -0.262  10.070   4.028 -0.4530 -0.1349  0.9123
  651MOL0     C87773  -0.194  10.198   3.981  0.7199  0.3223 -0.4294
  651MOL0     O87774  -0.280  10.297   3.918  0.3030 -0.8238 -0.1801
  651MOL0     C87775  -0.318  10.280   3.787  0.0906  0.4473  0.0898
  651MOL0     C87776  -0.276  10.176   3.706  0.0335  0.1985 -0.2766
  651MOL0     C87777  -0.298  10.187   3.564  0.0688  0.0107 -0.5985
  651MOL0     C87778  -0.388  10.286   3.506 -0.6017  0.9759 -1.0690
  651MOL0     C87779  -0.417  10.303   3.368  0.7023 -0.5683 -0.2125
  651MOL0     O87780  -0.411  10.190   3.293  0.3659  0.0584 -0.6026
  651MOL0     C87781  -0.439  10.194   3.158 -0.0086 -0.4914 -0.5815
  651MOL0     C87782  -0.563  10.223   3.101 -0.2838 -0.1198  0.9974
  651MOL0     C87783  -0.573  10.255   2.970 -0.2923 -0.0232  0.4872
  651MOL0     C87784  -0.469  10.220   2.879 -0.6581  0.3514  0.3285
  651MOL0     O87785  -0.473  10.241   2.743 -0.1580  0.1752 -0.1767
  651MOL0     C87786  -0.538  10.362   2.700  0.4013  0.1992  0.0702
  651MOL0     C87787  -0.501  10.396   2.548 -0.4499  0.3453  0.0341
  651MOL0     C87788  -0.347  10.385   2.534  0.1985 -0.1810  0.1355
  651MOL0     C87789  -0.300  10.443   2.397  0.1663  0.4031 -0.0196
  651MOL0     C87790  -0.153  10.405   2.379  0.0741 -0.8293  0.0426
  651MOL0     C87791  -0.127  10.434   2.231 -0.7400  0.4383  0.2308
  651MOL0     C87792   0.027  10.420   2.186 -0.7558 -0.3254  0.1778
  651MOL0     C87793   0.110  10.529   2.269 -0.0743  0.6222  0.8009
  651MOL0    Cl87794   0.278  10.538   2.195 -0.3397  0.0482 -0.3598
  651MOL0     C87795  -0.339  10.186   2.927  1.1270 -0.4063  0.1441
  651MOL0     C87796  -0.327  10.171   3.069 -0.1819  0.7043  0.2752
  651MOL0     O87797  -0.437  10.417   3.326  0.2064 -0.3054  0.5625
  651MOL0     C87798  -0.428  10.386   3.599 -0.0240  0.3962  0.9236
  651MOL0     C87799  -0.399  10.383   3.737 -0.4182 -0.6318  0.3129
  651MOL0     N87800   0.008   9.788   4.245 -0.4488  0.5053  0.1788
  651MOL0     N87801   0.056   9.681   4.305 -0.2817  0.0368 -0.6947
  651MOL0     C87802   0.010   9.220   5.055  0.2995  0.2774  0.9255
  651MOL0     C87803   0.130   9.282   5.053  0.3450 -0.4610  0.1722
  651MOL0     C87804   0.554   9.374   5.157 -0.3832 -0.0588 -0.1304
  651MOL0     C87805   0.636   9.339   5.050  0.1771 -0.3740  0.4752
  651MOL0     C87806   0.773   9.371   5.042  0.0997  0.1140  0.3924
  651MOL0     C87807   0.845   9.414   5.151  0.3031 -0.0502  0.8474
  651MOL0     O87808   0.980   9.440   5.139  0.1104  0.3700  0.4232
  651MOL0     C87809   1.053   9.508   5.241  0.0596 -0.3794 -0.6577
  651MOL0     C87810   1.200   9.512   5.191 -0.2722  0.2032 -0.5562
  651MOL0     C87811   1.280   9.586   5.300 -0.5433  0.0388 -0.7400
  651MOL0     C87812   1.425   9.576   5.275 -0.0268  0.5305 -0.1080
  651MOL0     C87813   1.474   9.634   5.157 -0.4247  0.4400  0.3190
  651MOL0     C87814   1.515   9.689   5.059 -0.3017  0.4196  0.1825
  651MOL0     C87815   0.765   9.446   5.265  0.8549 -0.1050 -0.5582
  651MOL0     C87816   0.623   9.416   5.277 -0.4631 -0.6099 -0.0847
  651MOL0     C87817   0.562   9.432   5.409  0.1998  0.3818 -0.4858
  651MOL0     H87818   0.348   9.022   5.009  0.2270  0.0314  1.0631
  651MOL0     H87819   0.123   8.889   5.011 -0.1500  0.3772 -0.6362
  651MOL0     H87820  -0.309   9.002   4.994  0.4438  0.0941  2.0705
  651MOL0     H87821  -0.229   9.146   4.936 -3.1729 -0.4098  2.2485
  651MOL0     H87822  -0.284   8.928   4.778  0.6323 -0.7746 -0.5739
  651MOL0     H87823  -0.117   8.896   4.821  0.8622  1.2524  2.7942
  651MOL0     H87824  -0.039   9.092   4.705  0.0529  0.1931 -0.9064
  651MOL0     H87825  -0.188   9.180   4.732 -1.7774 -0.4066  0.0692
  651MOL0     H87826  -0.201   8.937   4.563 -2.5516 -0.1046  0.2637
  651MOL0     H87827  -0.313   9.071   4.576 -0.2789  0.6990 -1.6225
  651MOL0     H87828  -0.062   9.090   4.412 -1.1303  2.1115 -4.2896
  651MOL0     H87829  -0.234   9.130   4.386 -1.6122  2.2652  1.6463
  651MOL0     H87830  -0.208   9.315   4.558 -0.4249 -2.5043  0.5444
  651MOL0     H87831  -0.042   9.283   4.566  0.5429 -3.9517 -0.9238
  651MOL0     H87832  -0.191   9.377   4.333  0.2012  0.5183  0.3927
  651MOL0     H87833  -0.023   9.316   4.318  0.5301 -1.2571  0.5758
  651MOL0     H87834  -0.081   9.540   4.520  1.5085  1.2747 -0.2790
  651MOL0     H87835   0.068   9.499   4.452  0.2769  0.5112 -1.3347
  651MOL0     H87836  -0.268   9.636   4.291 -0.2746  1.3785 -0.2749
  651MOL0     H87837  -0.317   9.842   4.171  1.0267  0.1602 -2.2780
  651MOL0     H87838  -0.225   9.928   4.295  2.4253  0.9809 -0.3441
  651MOL0     H87839  -0.089  10.041   4.154 -0.0628 -3.4973  1.7908
  651MOL0     H87840  -0.103   9.928   4.016  3.3447 -0.4232  1.7363
  651MOL0     H87841  -0.328  10.101   4.110  0.4761 -0.5180  1.8380
  651MOL0     H87842  -0.318  10.024   3.946 -0.5769  2.3791 -0.5171
  651MOL0     H87843  -0.119  10.159   3.911 -1.8914 -0.6868 -2.8745
  651MOL0     H87844  -0.150  10.237   4.074 -0.3029 -0.9274  0.6173
  651MOL0     H87845  -0.221  10.086   3.731 -2.8558 -1.0902  2.0240
  651MOL0     H87846  -0.248  10.119   3.496 -1.9033 -0.0908 -2.0027
  651MOL0     H87847  -0.655  10.207   3.157 -1.3120  2.1621  0.0776
  651MOL0     H87848  -0.671  10.283   2.934 -1.2247 -2.4763  0.8697
  651MOL0     H87849  -0.646  10.354   2.689  0.7265 -0.9137 -3.4062
  651MOL0     H87850  -0.513  10.448   2.763  0.6347  1.1639 -1.2938
  651MOL0     H87851  -0.545  10.327   2.475  0.0000  2.2760 -2.1665
  651MOL0     H87852  -0.537  10.495   2.520  1.7305  0.8458 -1.2307
  651MOL0     H87853  -0.290  10.418   2.622  2.6528 -3.6811  0.0298
  651MOL0     H87854  -0.341  10.276   2.540 -0.7006 -0.2110  0.7416
  651MOL0     H87855  -0.309  10.552   2.397 -3.1421  0.3423 -3.5544
  651MOL0     H87856  -0.367  10.412   2.316 -0.8286 -1.0238  1.2945
  651MOL0     H87857  -0.129  10.299   2.392 -1.0890 -1.6165 -3.3650
  651MOL0     H87858  -0.095  10.469   2.447 -0.3492  2.4768 -2.4744
  651MOL0     H87859  -0.184  10.358   2.176 -1.5390 -0.6523  2.4618
  651MOL0     H87860  -0.158  10.536   2.207  0.0827  0.7870  0.6202
  651MOL0     H87861   0.035  10.441   2.079 -1.1234  1.4962  0.4723
  651MOL0     H87862   0.069  10.322   2.211  0.1950 -0.4976 -1.9019
  651MOL0     H87863   0.061  10.626   2.277 -0.8029  0.2861  0.5481
  651MOL0     H87864   0.127  10.494   2.371  0.5998 -0.6801  0.2696
  651MOL0     H87865  -0.256  10.162   2.862  0.8035 -3.3760  0.6895
  651MOL0     H87866  -0.230  10.133   3.098 -1.2792 -2.4059  0.2063
  651MOL0     H87867  -0.486  10.469   3.560 -0.6516 -0.2805  0.3964
  651MOL0     H87868  -0.429  10.470   3.795  3.5281  1.2552 -0.2056
  651MOL0     H87869  -0.089   9.263   5.064  1.3056  2.7830  0.7712
  651MOL0     H87870   0.142   9.388   5.072  0.3687 -0.0223 -2.0066
  651MOL0     H87871   0.586   9.304   4.960  1.2224 -2.0178  0.4912
  651MOL0     H87872   0.825   9.339   4.952  0.3528  0.1538  0.5229
  651MOL0     H87873   1.050   9.458   5.338 -0.8050 -3.9832 -2.3741
  651MOL0     H87874   1.013   9.610   5.254  2.2268  0.2993  1.2068
  651MOL0     H87875   1.204   9.563   5.094 -0.3920  2.5207  0.5858
  651MOL0     H87876   1.248   9.416   5.171 -1.7487 -0.3218 -1.7432
  651MOL0     H87877   1.261   9.526   5.390  1.3070 -1.6836 -1.4205
  651MOL0     H87878   1.248   9.690   5.307 -1.2119 -0.2479  1.3882
  651MOL0     H87879   1.483   9.619   5.357  3.6950  1.8694 -3.1053
  651MOL0     H87880   1.448   9.469   5.276 -1.8438  0.1181 -0.0053
  651MOL0     H87881   1.534   9.735   4.964 -5.0554  0.6953 -0.9072
  651MOL0     H87882   0.811   9.472   5.359  1.1537  0.6774 -0.9094
  651MOL0     H87883   0.497   9.519   5.419 -0.8385 -0.5689  1.5746
  651MOL0     H87884   0.502   9.342   5.425 -1.1565  1.5759  1.6187
  651MOL0     H87885   0.647   9.424   5.479  0.5104 -5.5474 -0.9772
  652MOL0     O87886  10.968   6.603   4.755 -0.9456  0.8963  0.2775
  652MOL0     C87887  10.918   6.515   4.829  0.2331  0.1921 -0.6630
  652MOL0     O87888  10.985   6.424   4.905  0.7271 -0.5463  0.3110
  652MOL0     C87889  11.112   6.437   4.934  0.1295 -0.0870 -0.2104
  652MOL0     C87890  11.195   6.333   4.941 -0.4476 -0.0692  0.1931
  652MOL0     C87891  11.325   6.345   4.987  0.9664 -0.2049  0.0112
  652MOL0     C87892  11.381   6.463   5.034  0.2431  0.9619 -0.5589
  652MOL0     O87893  11.507   6.453   5.074  0.2999 -0.1936 -0.4863
  652MOL0     C87894  11.566   6.583   5.110  1.1547  0.6372  0.1958
  652MOL0     C87895  11.714   6.576   5.130 -0.4609 -0.6525 -0.8486
  652MOL0     C87896  11.736   6.486   5.255 -0.7079 -0.1684 -0.4515
  652MOL0     C87897  11.884   6.473   5.303 -0.2694 -0.0004 -0.4222
  652MOL0     C87898  11.908   6.353   5.398 -0.2571  0.1541 -0.0583
  652MOL0     C87899  12.028   6.373   5.487 -0.1736  0.1488 -0.5985
  652MOL0     C87900  12.156   6.359   5.404  0.5950 -0.7255  0.5534
  652MOL0     C87901  12.271   6.417   5.488 -0.5444  1.0131  0.6336
  652MOL0     N87902  12.409   6.386   5.422 -0.3050 -0.2158  0.2089
  652MOL0     C87903  12.515   6.338   5.495 -0.9473 -0.0836  0.2787
  652MOL0     C87904  12.610   6.308   5.406 -0.7655  0.2646 -0.3548
  652MOL0     C87905  12.739   6.245   5.447  0.4018 -0.2467  0.3178
  652MOL0     C87906  12.849   6.347   5.430 -0.4623  0.5410 -0.2271
  652MOL0     C87907  12.993   6.292   5.469 -0.1600  0.5943  0.4634
  652MOL0     C87908  13.092   6.394   5.416  0.3006  1.3461 -0.6959
  652MOL0     O87909  13.226   6.353   5.438 -0.1120  0.8255 -0.3735
  652MOL0     C87910  13.332   6.426   5.393  0.5774  0.3151 -0.5602
  652MOL0     C87911  13.323   6.562   5.376 -0.5492  0.0290 -0.2447
  652MOL0     C87912  13.433   6.640   5.332  0.2526  0.6293 -0.2395
  652MOL0     C87913  13.562   6.583   5.312  0.8489 -0.2115  0.0211
  652MOL0     C87914  13.671   6.667   5.262 -0.4109 -1.1325  0.2367
  652MOL0     O87915  13.680   6.791   5.294 -0.2085 -0.0283  0.1855
  652MOL0     C87916  13.766   6.871   5.232  0.3838 -0.4773  0.7006
  652MOL0     C87917  13.723   6.959   5.130 -0.9914  0.0969 -0.3087
  652MOL0     C87918  13.814   7.046   5.065  0.2965 -0.7574 -0.6486
  652MOL0     C87919  13.953   7.030   5.089  0.8227 -0.5019 -0.4469
  652MOL0     O87920  14.054   7.111   5.040  0.2804  0.1069  0.4342
  652MOL0     C87921  14.011   7.199   4.936 -0.0981 -0.0346 -0.5150
  652MOL0     C87922  14.124   7.228   4.836 -0.8668 -0.5482 -0.0328
  652MOL0     C87923  14.242   7.319   4.883 -0.2755  0.3207 -0.0285
  652MOL0     C87924  14.343   7.244   4.960 -0.2527 -0.3137  0.0996
  652MOL0     C87925  14.452   7.345   5.017 -0.5741 -0.3636 -0.0008
  652MOL0     C87926  14.568   7.274   5.088 -0.4167  0.1849 -0.7821
  652MOL0     C87927  14.692   7.362   5.119 -0.4660  0.6126 -0.3590
  652MOL0     C87928  14.658   7.488   5.188 -0.0334  0.0823  0.3212
  652MOL0    Cl87929  14.568   7.460   5.334 -0.1732 -0.6736  0.3032
  652MOL0     C87930  13.998   6.941   5.184  0.8503  0.1851 -0.2717
  652MOL0     C87931  13.910   6.860   5.251 -0.0155  0.1186 -0.8498
  652MOL0     O87932  13.740   6.613   5.174  0.0058  0.2928 -0.4273
  652MOL0     C87933  13.568   6.445   5.338 -0.3442 -0.1007  0.6496
  652MOL0     C87934  13.456   6.367   5.381 -0.1762  0.9092 -0.2670
  652MOL0     N87935  12.563   6.346   5.280  0.5185  0.6541  0.3190
  652MOL0     N87936  12.440   6.390   5.292  0.2267  0.7969 -0.2462
  652MOL0     C87937  11.293   6.573   5.035  0.0584  0.1916 -0.5196
  652MOL0     C87938  11.165   6.553   4.993 -0.1830  0.1234 -0.1814
  652MOL0     C87939  10.768   6.488   4.813 -0.0177 -0.4118  0.3736
  652MOL0     C87940  10.728   6.350   4.831 -0.3752 -0.1884 -0.0306
  652MOL0     C87941  10.597   6.312   4.836  0.3715  0.3414 -0.5119
  652MOL0     C87942  10.491   6.399   4.819 -0.6973 -0.5131 -0.2296
  652MOL0     O87943  10.362   6.352   4.824  0.5485  0.6115 -0.1524
  652MOL0     C87944  10.253   6.442   4.796  0.2363 -0.3080  0.0386
  652MOL0     C87945  10.106   6.389   4.815  0.5246  0.1494  0.3610
  652MOL0     C87946  10.031   6.303   4.708 -0.2797  0.1205 -0.5431
  652MOL0     C87947   9.915   6.229   4.777 -0.3681  0.6294  0.1885
  652MOL0     C87948   9.862   6.141   4.674 -0.0308 -0.2915  0.4931
  652MOL0     C87949   9.826   6.069   4.581 -0.1410  0.3865 -0.0758
  652MOL0     C87950  10.532   6.538   4.795  0.1895  0.2852  0.0138
  652MOL0     C87951  10.660   6.581   4.790  0.8251  0.0838 -0.2018
  652MOL0     C87952  10.683   6.723   4.743  0.6462  0.4232 -0.2441
  652MOL0     H87953  11.159   6.236   4.907 -0.5455  0.1179 -0.2434
  652MOL0     H87954  11.399   6.265   4.985  0.0644 -1.2219  2.4039
  652MOL0     H87955  11.542   6.664   5.041  0.1291 -1.4870 -2.1531
  652MOL0     H87956  11.527   6.620   5.205  0.4885 -1.2339  0.6979
  652MOL0     H87957  11.744   6.674   5.167  1.5525 -1.5772  0.0869
  652MOL0     H87958  11.770   6.553   5.039 -0.6252 -0.0425 -1.1061
  652MOL0     H87959  11.710   6.381   5.236 -0.6424 -0.1670 -0.5515
  652MOL0     H87960  11.667   6.523   5.331 -2.0792 -2.0786 -0.6902
  652MOL0     H87961  11.955   6.460   5.222  1.0464 -1.0063  0.8365
  652MOL0     H87962  11.914   6.563   5.359  2.8891 -1.6099  0.7181
  652MOL0     H87963  11.818   6.333   5.457 -0.4668  1.1663 -0.0103
  652MOL0     H87964  11.922   6.264   5.336 -0.0036 -0.3105  0.6580
  652MOL0     H87965  12.017   6.471   5.534 -3.5939 -1.1577  1.6586
  652MOL0     H87966  12.014   6.293   5.561 -2.3542  1.5123  0.5659
  652MOL0     H87967  12.149   6.401   5.303  0.2358  1.6697  1.5167
  652MOL0     H87968  12.158   6.252   5.381 -2.2597 -0.1341 -3.6791
  652MOL0     H87969  12.249   6.524   5.498 -2.0325  0.7879 -0.1403
  652MOL0     H87970  12.263   6.363   5.583 -1.0612 -0.6096 -0.3075
  652MOL0     H87971  12.519   6.322   5.602  0.1909 -3.0910 -0.1212
  652MOL0     H87972  12.738   6.209   5.550  0.3810  1.2079  0.8416
  652MOL0     H87973  12.758   6.156   5.386  0.4862 -1.2842  1.8100
  652MOL0     H87974  12.865   6.373   5.325  0.8860 -2.7347 -0.9427
  652MOL0     H87975  12.824   6.434   5.492  2.9067  0.7226  1.1105
  652MOL0     H87976  13.007   6.198   5.414 -1.4168 -0.5785  2.0366
  652MOL0     H87977  13.002   6.284   5.578 -0.5443 -2.8096  0.3703
  652MOL0     H87978  13.073   6.493   5.459 -0.9550  0.3150  1.3058
  652MOL0     H87979  13.085   6.379   5.308  3.3436 -2.6782 -0.5690
  652MOL0     H87980  13.229   6.613   5.391  0.3225  1.1577  1.9674
  652MOL0     H87981  13.413   6.747   5.324 -0.3408  0.4114 -2.0526
  652MOL0     H87982  13.615   6.960   5.114 -1.0106 -0.3910 -0.2360
  652MOL0     H87983  13.769   7.126   5.007 -1.2576 -1.1071  0.0316
  652MOL0     H87984  13.938   7.152   4.869  3.5800 -1.0465 -4.2106
  652MOL0     H87985  13.967   7.292   4.975  0.5527 -0.0128  0.1885
  652MOL0     H87986  14.153   7.134   4.788 -2.4904 -1.9449  1.5809
  652MOL0     H87987  14.074   7.277   4.752  1.0891 -0.9959 -1.5267
  652MOL0     H87988  14.288   7.350   4.789  2.6291 -1.4329  0.6852
  652MOL0     H87989  14.194   7.398   4.942 -0.5807  0.9014 -1.0303
  652MOL0     H87990  14.396   7.168   4.902  1.3263 -1.5542  2.9627
  652MOL0     H87991  14.295   7.195   5.045 -1.7861  1.0872  0.0936
  652MOL0     H87992  14.407   7.416   5.088  0.2053  1.0156 -0.8570
  652MOL0     H87993  14.492   7.409   4.938  1.1494 -0.4675  0.7500
  652MOL0     H87994  14.536   7.238   5.186 -0.9052 -0.5916 -1.2117
  652MOL0     H87995  14.605   7.186   5.035 -0.5945 -1.8189  2.1560
  652MOL0     H87996  14.748   7.392   5.030 -0.9566 -0.3654 -1.0121
  652MOL0     H87997  14.765   7.307   5.179  2.3291  0.6081 -3.4756
  652MOL0     H87998  14.754   7.529   5.222 -0.5213  1.2778  0.3047
  652MOL0     H87999  14.610   7.556   5.117  2.9946  0.8917 -1.1139
  652MOL0     H88000  14.106   6.936   5.195  1.0561 -1.5670 -2.4616
  652MOL0     H88001  13.953   6.790   5.322 -0.2239  1.8134  1.0570
  652MOL0     H88002  13.662   6.397   5.314 -1.0180 -0.4963 -1.3952
  652MOL0     H88003  13.449   6.258   5.381 -3.1284  1.0060 -0.6308
  652MOL0     H88004  11.329   6.668   5.074  1.6960 -1.0962  1.3120
  652MOL0     H88005  11.108   6.644   5.007  0.1643  0.0973  1.5984
  652MOL0     H88006  10.790   6.261   4.843  0.7581  0.1561 -2.6229
  652MOL0     H88007  10.564   6.209   4.848  2.8860 -0.3546  1.2800
  652MOL0     H88008  10.260   6.476   4.692 -1.8198  1.7936  0.4846
  652MOL0     H88009  10.276   6.528   4.859  3.1280 -1.2715  0.4272
  652MOL0     H88010  10.037   6.471   4.834 -1.7768 -1.6959  0.5068
  652MOL0     H88011  10.100   6.333   4.909  0.6298 -0.8945 -0.2396
  652MOL0     H88012  10.094   6.237   4.648 -1.1821  1.0034 -2.5704
  652MOL0     H88013   9.982   6.368   4.635 -0.8626  0.8022  0.4257
  652MOL0     H88014   9.952   6.161   4.855 -2.2233  1.3322  1.7631
  652MOL0     H88015   9.835   6.285   4.826 -1.2283  0.2949 -0.7964
  652MOL0     H88016   9.798   6.003   4.502  1.3683  0.5645 -0.7747
  652MOL0     H88017  10.445   6.601   4.773  0.8308  0.3406 -2.6453
  652MOL0     H88018  10.709   6.713   4.637  0.3142 -1.8524 -0.1577
  652MOL0     H88019  10.592   6.782   4.758  0.3789 -0.7224  3.7265
  652MOL0     H88020  10.761   6.767   4.806 -1.5730  1.0195  2.2742
  653MOL0     O88021   4.504   8.291   0.584  0.1397 -1.3340  1.1630
  653MOL0     C88022   4.432   8.308   0.680 -0.2554  0.4814  0.3267
  653MOL0     O88023   4.475   8.326   0.810  0.3465  0.0295  0.1406
  653MOL0     C88024   4.611   8.352   0.835  0.6820 -0.2428 -0.5345
  653MOL0     C88025   4.664   8.273   0.939 -0.6730 -0.5475 -0.0357
  653MOL0     C88026   4.803   8.288   0.979  0.2236 -0.3724  0.4394
  653MOL0     C88027   4.880   8.378   0.902  0.8155  0.4691  0.2997
  653MOL0     O88028   5.016   8.390   0.907 -0.9416  0.5066 -0.5645
  653MOL0     C88029   5.085   8.305   1.003  1.7561  0.0836 -0.1947
  653MOL0     C88030   5.226   8.335   1.003 -0.4217 -0.0958  0.0312
  653MOL0     C88031   5.309   8.241   1.093  0.4893  0.1342  0.0184
  653MOL0     C88032   5.451   8.301   1.105 -0.5592 -0.2547 -0.4802
  653MOL0     C88033   5.555   8.193   1.154 -0.2796 -0.1906 -0.0046
  653MOL0     C88034   5.695   8.258   1.150  0.4634  0.1564 -0.5044
  653MOL0     C88035   5.805   8.159   1.186 -0.6891 -0.0461  0.3287
  653MOL0     C88036   5.934   8.235   1.198 -0.4554  0.3521 -0.1589
  653MOL0     N88037   5.946   8.350   1.288 -0.6189 -1.1102  0.3334
  653MOL0     C88038   5.888   8.371   1.411 -0.2045  0.2632  0.1309
  653MOL0     C88039   5.895   8.511   1.421 -1.3206  0.2187  0.1424
  653MOL0     C88040   5.845   8.606   1.524  0.2479  0.0505 -0.5134
  653MOL0     C88041   5.689   8.602   1.525  0.2596 -0.4248  0.3589
  653MOL0     C88042   5.640   8.664   1.653 -0.5250  0.3880  0.4285
  653MOL0     C88043   5.490   8.686   1.669 -0.4939 -1.2395  0.1469
  653MOL0     O88044   5.449   8.792   1.583 -0.0626 -0.0576  0.3426
  653MOL0     C88045   5.343   8.873   1.624 -0.4501 -0.1244 -0.1779
  653MOL0     C88046   5.254   8.824   1.723 -0.2841  0.4573  0.3927
  653MOL0     C88047   5.143   8.899   1.772 -0.3014  0.4620 -0.8768
  653MOL0     C88048   5.114   9.026   1.722  0.8675 -0.3038  0.1590
  653MOL0     C88049   4.990   9.096   1.760  0.0447  0.0304  0.1274
  653MOL0     O88050   4.963   9.224   1.708 -0.5944 -0.2292 -0.1503
  653MOL0     C88051   4.836   9.274   1.727  0.2228  0.8768 -0.1828
  653MOL0     C88052   4.818   9.367   1.831 -0.6925  0.4741 -0.2408
  653MOL0     C88053   4.696   9.430   1.856 -0.1690 -0.1980  0.3277
  653MOL0     C88054   4.585   9.392   1.786  0.1825 -0.0852  0.2037
  653MOL0     O88055   4.473   9.458   1.824  0.6006 -0.3947 -0.2969
  653MOL0     C88056   4.346   9.390   1.804  0.0661  0.5877 -0.7783
  653MOL0     C88057   4.223   9.440   1.893 -0.1191  0.3957 -0.2124
  653MOL0     C88058   4.168   9.576   1.876  0.7865  0.6433 -0.5756
  653MOL0     C88059   4.144   9.612   1.733 -0.2312 -1.6331  0.2068
  653MOL0     C88060   4.055   9.733   1.717  0.1402 -0.6236  0.0387
  653MOL0     C88061   3.909   9.707   1.744 -0.9551  0.2288  0.1830
  653MOL0     C88062   3.826   9.827   1.708 -0.2572  0.1573 -0.3732
  653MOL0     C88063   3.672   9.808   1.721  0.5650  0.7081  0.0300
  653MOL0    Cl88064   3.645   9.674   1.603 -0.1049 -0.1542  0.2300
  653MOL0     C88065   4.598   9.299   1.680 -0.6218  0.5455 -1.0945
  653MOL0     C88066   4.733   9.244   1.647 -0.2003 -0.0265  0.0858
  653MOL0     O88067   4.918   9.050   1.850  0.2899 -0.0307 -0.4856
  653MOL0     C88068   5.193   9.076   1.622  0.2562  0.5957  0.1993
  653MOL0     C88069   5.305   8.996   1.566 -0.1113 -0.2287  0.9116
  653MOL0     N88070   5.958   8.565   1.306  1.0157 -0.4761 -0.7278
  653MOL0     N88071   5.995   8.467   1.238 -0.3370  0.4404 -0.1203
  653MOL0     C88072   4.824   8.450   0.800 -0.5934 -0.1887 -0.1516
  653MOL0     C88073   4.687   8.446   0.772  0.2416  0.6633 -0.7211
  653MOL0     C88074   4.288   8.314   0.652 -1.1164  0.2756 -0.7608
  653MOL0     C88075   4.215   8.405   0.727 -0.3481  0.9322  0.2840
  653MOL0     C88076   4.075   8.419   0.725 -0.0281 -0.4430  0.2795
  653MOL0     C88077   4.008   8.332   0.642  0.1573  0.0770  0.7885
  653MOL0     O88078   3.873   8.320   0.636  0.0604  0.0468  0.8278
  653MOL0     C88079   3.796   8.368   0.739 -0.1332  0.4392  0.1629
  653MOL0     C88080   3.654   8.312   0.743 -0.0580 -0.1189 -0.3063
  653MOL0     C88081   3.581   8.351   0.617 -0.1667 -0.0953  0.5652
  653MOL0     C88082   3.494   8.238   0.565 -0.1031  0.2139 -0.3442
  653MOL0     C88083   3.378   8.206   0.640 -0.2738 -0.3601  0.6467
  653MOL0     C88084   3.276   8.197   0.710 -0.7391 -0.0406  0.0187
  653MOL0     C88085   4.076   8.262   0.549  0.0319 -0.5780 -0.7663
  653MOL0     C88086   4.216   8.241   0.554  0.1026  0.3276  0.2030
  653MOL0     C88087   4.276   8.143   0.451  1.2950 -0.3831  0.1262
  653MOL0     H88088   4.612   8.220   1.018 -0.3150  0.9124  1.2395
  653MOL0     H88089   4.846   8.233   1.062 -3.0442 -1.1227  1.8190
  653MOL0     H88090   5.044   8.310   1.104 -2.0082 -2.1962 -1.3927
  653MOL0     H88091   5.065   8.202   0.970 -1.3304 -0.2221  2.1149
  653MOL0     H88092   5.232   8.436   1.043 -0.8092  0.5641 -1.5087
  653MOL0     H88093   5.266   8.339   0.901 -2.8500  1.1406 -0.9617
  653MOL0     H88094   5.304   8.139   1.055 -0.0437 -1.3019  3.4961
  653MOL0     H88095   5.258   8.242   1.190  0.0774  1.7050 -0.1815
  653MOL0     H88096   5.492   8.343   1.013  0.1996  2.3865  0.9730
  653MOL0     H88097   5.433   8.385   1.173 -5.5987 -2.7793  1.9173
  653MOL0     H88098   5.527   8.167   1.256 -0.7860  3.1201  0.7975
  653MOL0     H88099   5.563   8.109   1.084  0.4120 -0.3202  0.2198
  653MOL0     H88100   5.714   8.285   1.045  0.2163  0.1226 -0.5578
  653MOL0     H88101   5.693   8.344   1.218  0.0698  0.5853 -1.0451
  653MOL0     H88102   5.812   8.079   1.112 -3.3588 -0.5062  0.4765
  653MOL0     H88103   5.763   8.116   1.278 -1.5359 -0.9093 -0.4418
  653MOL0     H88104   6.009   8.165   1.236 -1.8389 -1.3654 -0.4701
  653MOL0     H88105   5.970   8.264   1.099 -1.1924 -0.1317 -0.5752
  653MOL0     H88106   5.825   8.304   1.467 -3.0337  2.1699 -0.5467
  653MOL0     H88107   5.880   8.567   1.619 -1.2470 -1.8373 -0.6688
  653MOL0     H88108   5.883   8.707   1.507  0.4214  0.0756  0.0069
  653MOL0     H88109   5.646   8.657   1.440 -2.5908 -1.1666  1.2337
  653MOL0     H88110   5.654   8.499   1.531  0.9486 -0.7005 -0.1782
  653MOL0     H88111   5.689   8.760   1.673  0.5621 -0.7212  3.6437
  653MOL0     H88112   5.680   8.610   1.739 -1.0215 -1.3210 -0.3687
  653MOL0     H88113   5.476   8.695   1.777 -0.9344 -2.4889  0.2097
  653MOL0     H88114   5.434   8.595   1.649 -2.0112  0.2745 -3.2357
  653MOL0     H88115   5.272   8.725   1.764  2.9499  1.0910  0.8253
  653MOL0     H88116   5.086   8.853   1.852 -0.6229  3.7567  0.9513
  653MOL0     H88117   4.893   9.394   1.905  0.3635  0.5357 -1.2988
  653MOL0     H88118   4.689   9.497   1.941  5.2941 -1.1591  1.9797
  653MOL0     H88119   4.323   9.381   1.698 -2.1594 -3.1131 -0.1615
  653MOL0     H88120   4.358   9.286   1.836 -1.0587  0.5057 -0.5594
  653MOL0     H88121   4.139   9.370   1.883  0.4090 -0.2153 -0.4831
  653MOL0     H88122   4.258   9.434   1.996  0.2989  1.5665 -0.2829
  653MOL0     H88123   4.071   9.584   1.926  0.4318  0.1686 -1.1862
  653MOL0     H88124   4.224   9.658   1.921  0.3697  0.6241 -0.0107
  653MOL0     H88125   4.103   9.523   1.684  2.2270 -1.9110 -1.4996
  653MOL0     H88126   4.242   9.633   1.688 -0.0188  1.3281  1.7774
  653MOL0     H88127   4.066   9.780   1.619  0.5076 -1.0220 -0.1143
  653MOL0     H88128   4.081   9.804   1.797  0.7925 -1.9864  1.0765
  653MOL0     H88129   3.886   9.619   1.684 -0.3924  0.3502 -0.2200
  653MOL0     H88130   3.895   9.680   1.849  2.0398 -0.1351  0.5762
  653MOL0     H88131   3.861   9.876   1.617  2.1632  5.8242  3.0495
  653MOL0     H88132   3.852   9.900   1.785  2.0484 -0.5691 -0.3889
  653MOL0     H88133   3.647   9.771   1.821 -1.7541  0.1757 -0.6924
  653MOL0     H88134   3.620   9.902   1.699  0.6543  0.1527 -2.8838
  653MOL0     H88135   4.509   9.274   1.624 -0.3894  0.2767 -1.3446
  653MOL0     H88136   4.754   9.187   1.557 -2.5077 -1.9202  0.6482
  653MOL0     H88137   5.177   9.169   1.569 -3.0261 -0.9288 -1.8495
  653MOL0     H88138   5.364   9.031   1.482 -0.0275 -0.4454  0.8781
  653MOL0     H88139   4.886   8.514   0.737 -0.2506  0.2457  0.6106
  653MOL0     H88140   4.645   8.514   0.699 -1.9111  0.6777  0.4483
  653MOL0     H88141   4.261   8.468   0.801 -1.0939  1.3709  0.3864
  653MOL0     H88142   4.024   8.493   0.787  1.4178  1.0859 -0.2711
  653MOL0     H88143   3.794   8.477   0.742 -1.2097  0.4543 -0.3626
  653MOL0     H88144   3.841   8.339   0.834  1.8736  1.2994 -0.4947
  653MOL0     H88145   3.598   8.350   0.829  2.0438 -2.7191  2.4389
  653MOL0     H88146   3.652   8.203   0.750 -0.2043 -0.1717 -1.0345
  653MOL0     H88147   3.651   8.371   0.535 -0.4449  0.2852  0.4179
  653MOL0     H88148   3.514   8.437   0.624 -2.6200 -1.5953 -2.2684
  653MOL0     H88149   3.455   8.272   0.468 -4.5338 -3.5601 -0.2105
  653MOL0     H88150   3.556   8.149   0.549 -1.8555 -0.6711 -3.0427
  653MOL0     H88151   3.193   8.195   0.778 -2.4059 -0.9077 -1.9076
  653MOL0     H88152   4.019   8.214   0.470 -1.3270  2.7458 -1.9577
  653MOL0     H88153   4.368   8.088   0.470  1.7287 -1.1935 -3.6151
  653MOL0     H88154   4.196   8.076   0.417  0.0941  1.1361 -0.1798
  653MOL0     H88155   4.301   8.213   0.371  1.6021 -0.5383  0.0871
  654MOL0     O88156   9.126  10.547   6.573  0.1554  0.0946 -0.2647
  654MOL0     C88157   9.189  10.505   6.671 -0.1258  0.5354 -0.9538
  654MOL0     O88158   9.320  10.529   6.713  0.9671 -0.6357  0.0825
  654MOL0     C88159   9.399  10.574   6.612 -1.0233  0.5084 -0.3519
  654MOL0     C88160   9.388  10.700   6.549  0.3161 -0.4409 -0.3522
  654MOL0     C88161   9.482  10.757   6.462  0.2377  0.6716  0.1321
  654MOL0     C88162   9.598  10.689   6.440  0.0906  0.5131  0.0448
  654MOL0     O88163   9.685  10.756   6.365 -0.1187  0.7082  0.1875
  654MOL0     C88164   9.826  10.712   6.360 -0.3645 -0.0155  0.5936
  654MOL0     C88165   9.902  10.810   6.263 -0.2795 -0.6272 -0.2228
  654MOL0     C88166  10.056  10.812   6.289 -0.0238  0.8208  0.6823
  654MOL0     C88167  10.133  10.914   6.206  0.3444  0.3574 -0.0541
  654MOL0     C88168  10.285  10.924   6.246 -0.0097  0.2225 -0.5595
  654MOL0     C88169  10.370  10.990   6.140  0.0663  0.1746  0.3244
  654MOL0     C88170  10.344  11.142   6.160 -0.2928 -0.5553 -0.3593
  654MOL0     C88171  10.421  11.208   6.051  0.5428 -0.2760 -0.3322
  654MOL0     N88172  10.573  11.218   6.070  0.1041  0.5136  0.2332
  654MOL0     C88173  10.661  11.129   6.013  1.0064 -0.2403  0.2029
  654MOL0     C88174  10.783  11.175   6.047 -0.9643  0.4421 -0.8339
  654MOL0     C88175  10.922  11.108   6.035  1.0134 -0.6664 -0.3509
  654MOL0     C88176  11.019  11.215   5.998 -0.8177  0.1791 -0.0194
  654MOL0     C88177  11.151  11.150   5.957 -0.0424  0.3822  0.4042
  654MOL0     C88178  11.265  11.233   6.009  0.2852  0.2935  0.5925
  654MOL0     O88179  11.384  11.162   5.981 -1.0582 -0.1325  0.2589
  654MOL0     C88180  11.499  11.193   6.047 -0.4219  0.2684  0.5381
  654MOL0     C88181  11.512  11.310   6.118  0.4914  0.3343 -0.0026
  654MOL0     C88182  11.642  11.351   6.160 -0.0106  0.2743 -0.2667
  654MOL0     C88183  11.754  11.270   6.147 -0.2678  0.2274 -0.2005
  654MOL0     C88184  11.877  11.311   6.213 -0.6120 -0.3807 -0.7391
  654MOL0     O88185  11.869  11.419   6.297  0.1107  0.6157 -0.6787
  654MOL0     C88186  11.981  11.469   6.347 -0.3963  0.0145  0.0100
  654MOL0     C88187  12.051  11.568   6.278 -1.0250 -0.9447  0.8673
  654MOL0     C88188  12.173  11.624   6.322 -0.3887  0.6431  0.7749
  654MOL0     C88189  12.218  11.605   6.455 -0.2272  0.1834 -0.8513
  654MOL0     O88190  12.337  11.668   6.496 -0.5826 -0.2049  0.2841
  654MOL0     C88191  12.403  11.628   6.618  0.4957 -0.1424  0.1796
  654MOL0     C88192  12.507  11.735   6.656  0.3049 -0.8574  0.1827
  654MOL0     C88193  12.606  11.658   6.744 -0.4359 -0.9391 -0.1971
  654MOL0     C88194  12.715  11.764   6.795  0.1505 -0.4009  0.3222
  654MOL0     C88195  12.804  11.700   6.903 -0.0826  0.1959  0.8714
  654MOL0     C88196  12.932  11.785   6.945 -0.3439 -0.0383 -0.1528
  654MOL0     C88197  13.008  11.708   7.053 -1.1168 -0.6655  1.0336
  654MOL0     C88198  13.128  11.791   7.104 -0.1254 -0.1083 -0.5124
  654MOL0    Cl88199  13.242  11.814   6.962  0.1296 -0.0683  0.0773
  654MOL0     C88200  12.136  11.507   6.533 -0.9659 -0.6086  0.8419
  654MOL0     C88201  12.033  11.441   6.470  0.5770 -0.1647  0.1743
  654MOL0     O88202  11.979  11.246   6.189 -0.0174 -0.2038  0.0913
  654MOL0     C88203  11.736  11.143   6.082 -0.6305 -0.3126 -0.2439
  654MOL0     C88204  11.614  11.112   6.036 -0.4923 -0.0198 -0.3676
  654MOL0     N88205  10.766  11.288   6.128  0.4073  0.7001  0.7759
  654MOL0     N88206  10.642  11.312   6.139  0.1452 -0.2967 -0.4766
  654MOL0     C88207   9.628  10.567   6.507 -0.2529 -0.2328 -0.2478
  654MOL0     C88208   9.528  10.506   6.591  0.2824  0.1147  0.5359
  654MOL0     C88209   9.116  10.411   6.758 -0.1938 -0.4270 -0.1995
  654MOL0     C88210   9.181  10.284   6.781 -0.3967 -0.9184 -0.5716
  654MOL0     C88211   9.120  10.188   6.853  0.4371 -0.7735  0.5856
  654MOL0     C88212   8.994  10.208   6.904  0.2099 -1.0967 -0.1510
  654MOL0     O88213   8.917  10.110   6.966 -0.7693 -0.3649  0.3811
  654MOL0     C88214   8.950   9.972   6.940  1.0260 -0.4816  0.3937
  654MOL0     C88215   8.844   9.873   6.988 -0.9098  0.0940  0.5864
  654MOL0     C88216   8.834   9.875   7.142 -0.2862  0.5325  0.3219
  654MOL0     C88217   8.743   9.773   7.206  1.6659  0.3360  1.1181
  654MOL0     C88218   8.614   9.749   7.149  1.1786 -0.6462 -0.4530
  654MOL0     C88219   8.506   9.721   7.101  0.0004  1.4812 -0.2225
  654MOL0     C88220   8.934  10.338   6.902  0.0591  0.3101 -0.0899
  654MOL0     C88221   8.993  10.442   6.820 -0.0896 -0.2818 -0.1826
  654MOL0     C88222   8.935  10.579   6.823  0.2939 -0.4770  0.4150
  654MOL0     H88223   9.298  10.757   6.573 -0.7209 -2.4410  0.7566
  654MOL0     H88224   9.466  10.856   6.420  1.5861  0.2133 -1.5766
  654MOL0     H88225   9.882  10.725   6.453  1.8969 -0.1021 -0.6798
  654MOL0     H88226   9.838  10.604   6.343 -0.7639 -0.0119  0.2848
  654MOL0     H88227   9.859  10.911   6.261 -0.4728 -0.6218  1.9261
  654MOL0     H88228   9.875  10.768   6.165 -3.6695  0.5728  0.0645
  654MOL0     H88229  10.095  10.710   6.279 -3.5812 -0.9630  2.8396
  654MOL0     H88230  10.078  10.839   6.392 -1.5288  2.5342  0.6049
  654MOL0     H88231  10.134  10.887   6.100  2.4648 -0.2168  0.0733
  654MOL0     H88232  10.083  11.010   6.220 -3.9159 -1.6712  0.3626
  654MOL0     H88233  10.293  10.971   6.344 -0.4809 -1.8242  0.5300
  654MOL0     H88234  10.327  10.824   6.264  0.7555  0.8110  1.0433
  654MOL0     H88235  10.473  10.971   6.171  0.3927 -1.4740 -1.5722
  654MOL0     H88236  10.349  10.951   6.040  0.1279 -1.8184  1.0526
  654MOL0     H88237  10.383  11.170   6.258  1.1305  0.2421 -1.1137
  654MOL0     H88238  10.237  11.162   6.157 -0.7612 -2.6370  0.7682
  654MOL0     H88239  10.388  11.182   5.950  1.2966  0.7015 -0.8510
  654MOL0     H88240  10.387  11.311   6.063 -0.6803 -0.6340 -0.5777
  654MOL0     H88241  10.634  11.035   5.965  1.3310 -0.3406  0.2121
  654MOL0     H88242  10.951  11.054   6.125 -3.3625 -1.3494  0.8760
  654MOL0     H88243  10.914  11.035   5.954 -0.8069 -0.2118 -0.6312
  654MOL0     H88244  10.983  11.277   5.915 -2.7722  0.3992  0.9458
  654MOL0     H88245  11.041  11.283   6.081  0.5294 -0.7615  0.4302
  654MOL0     H88246  11.150  11.140   5.848 -0.1425 -0.0930  0.4471
  654MOL0     H88247  11.148  11.049   6.001 -0.7953 -1.1650 -2.9048
  654MOL0     H88248  11.249  11.244   6.116 -0.1754  0.5621  0.5010
  654MOL0     H88249  11.268  11.327   5.951  2.2562  0.6479  1.1778
  654MOL0     H88250  11.429  11.380   6.123  0.2843  0.1675 -1.0076
  654MOL0     H88251  11.648  11.450   6.204 -1.0898 -0.3256  1.3322
  654MOL0     H88252  12.018  11.597   6.179 -0.6111  1.2806  1.3195
  654MOL0     H88253  12.224  11.691   6.253 -0.1448  1.2453  1.5197
  654MOL0     H88254  12.336  11.611   6.703  0.2321 -3.7683 -0.6106
  654MOL0     H88255  12.457  11.534   6.605 -1.9356 -1.2510 -3.3136
  654MOL0     H88256  12.563  11.754   6.564  0.9543 -2.0164  0.3080
  654MOL0     H88257  12.471  11.826   6.704 -0.2951  0.5100 -2.6540
  654MOL0     H88258  12.545  11.621   6.826 -3.3734 -0.8590 -2.2035
  654MOL0     H88259  12.657  11.571   6.700  0.1505 -2.1521  2.6224
  654MOL0     H88260  12.666  11.849   6.843  0.0366 -0.5021  0.3869
  654MOL0     H88261  12.782  11.791   6.713 -0.9978  0.6464 -0.2863
  654MOL0     H88262  12.853  11.608   6.870  1.3770  2.1691 -3.1721
  654MOL0     H88263  12.734  11.688   6.986 -1.8732  2.9954 -0.0739
  654MOL0     H88264  12.999  11.814   6.864  1.7250 -1.0862  1.1199
  654MOL0     H88265  12.903  11.884   6.982 -0.7379 -0.3580  0.4068
  654MOL0     H88266  13.046  11.611   7.020 -2.6321 -0.8085 -0.4089
  654MOL0     H88267  12.935  11.700   7.134  0.2399  1.0382  2.5112
  654MOL0     H88268  13.099  11.891   7.137 -0.8391  0.3934 -2.5261
  654MOL0     H88269  13.175  11.740   7.189 -2.2083  0.4384  1.0437
  654MOL0     H88270  12.161  11.490   6.638  1.9729 -0.7649  0.2245
  654MOL0     H88271  11.982  11.365   6.528  0.3401  0.7819  1.2469
  654MOL0     H88272  11.823  11.079   6.072 -0.7382 -0.7098  1.1558
  654MOL0     H88273  11.611  11.015   5.987  3.3079 -0.1221 -0.6778
  654MOL0     H88274   9.722  10.515   6.491  0.3366  0.3886  1.0362
  654MOL0     H88275   9.546  10.411   6.639 -1.1647 -0.9309 -0.8578
  654MOL0     H88276   9.282  10.271   6.742  0.6169 -0.2604  1.6816
  654MOL0     H88277   9.179  10.097   6.859  4.0030  1.1072 -2.3924
  654MOL0     H88278   9.049   9.957   6.983  0.6571  2.3310  2.5249
  654MOL0     H88279   8.950   9.958   6.831 -0.5183 -0.0034  0.3052
  654MOL0     H88280   8.868   9.769   6.962 -1.4799 -0.3066  1.5735
  654MOL0     H88281   8.746   9.898   6.945 -1.1112 -1.1571  0.2727
  654MOL0     H88282   8.794   9.974   7.169 -1.1971  0.1389  0.4506
  654MOL0     H88283   8.935   9.862   7.182  0.3158 -0.5930 -1.4855
  654MOL0     H88284   8.789   9.674   7.207 -2.0594 -1.5876  0.5705
  654MOL0     H88285   8.722   9.812   7.306  2.3508  2.6794  0.4227
  654MOL0     H88286   8.407   9.702   7.065  0.6409 -2.3454 -0.3178
  654MOL0     H88287   8.837  10.355   6.948  0.3271 -1.6338  1.3458
  654MOL0     H88288   8.870  10.598   6.909  0.0234  2.4735 -0.3419
  654MOL0     H88289   9.011  10.657   6.835  0.0515 -0.5510  3.0435
  654MOL0     H88290   8.881  10.600   6.730 -2.5332  3.0610  2.5706
  655MOL0     O88291   8.941   3.219   2.658  0.7805  0.1315 -0.6783
  655MOL0     C88292   8.950   3.247   2.545 -0.0118  0.6108 -0.6356
  655MOL0     O88293   9.072   3.254   2.477  0.3375  0.0138 -0.6898
  655MOL0     C88294   9.186   3.271   2.547 -0.4823 -0.1657 -0.2652
  655MOL0     C88295   9.237   3.403   2.562  0.7458  0.7133 -0.4842
  655MOL0     C88296   9.352   3.423   2.637 -0.0921 -0.2766 -0.3967
  655MOL0     C88297   9.419   3.324   2.709 -0.2595 -0.3228 -0.1702
  655MOL0     O88298   9.529   3.357   2.786 -0.5115 -0.5414 -0.2602
  655MOL0     C88299   9.509   3.307   2.919 -0.1848  0.6967  0.6528
  655MOL0     C88300   9.598   3.399   3.014  0.1131  0.7911  0.3264
  655MOL0     C88301   9.744   3.422   2.968 -0.7697  0.0068  0.7461
  655MOL0     C88302   9.827   3.289   2.949  0.5091  0.7403  0.1057
  655MOL0     C88303   9.975   3.305   2.956  0.5133 -0.1561  0.5503
  655MOL0     C88304  10.040   3.396   2.851 -0.1669  0.9289 -0.4080
  655MOL0     C88305  10.196   3.396   2.873  0.3153 -0.6163 -0.1415
  655MOL0     C88306  10.239   3.472   3.006 -0.4321  0.1553 -0.1415
  655MOL0     N88307  10.381   3.514   2.998 -0.3785  0.1900  0.1443
  655MOL0     C88308  10.491   3.438   3.041  0.7619 -0.3077  0.7175
  655MOL0     C88309  10.594   3.514   3.001  0.2158  0.4190 -0.4386
  655MOL0     C88310  10.735   3.458   3.005 -0.7566  0.8825  0.6185
  655MOL0     C88311  10.848   3.561   2.983  0.1170 -0.1885 -0.1653
  655MOL0     C88312  10.872   3.667   3.087 -0.0523  0.4122 -0.1440
  655MOL0     C88313  10.859   3.600   3.226 -0.2166 -0.4705 -0.2450
  655MOL0     O88314  10.890   3.692   3.326  0.3300 -0.5697 -0.5767
  655MOL0     C88315  11.019   3.712   3.377  0.5358  0.6476  0.7080
  655MOL0     C88316  11.131   3.656   3.319 -0.6049  0.1549  0.2271
  655MOL0     C88317  11.256   3.712   3.354 -0.1876  0.4900  0.1837
  655MOL0     C88318  11.265   3.815   3.456 -0.0676 -0.2535  0.7226
  655MOL0     C88319  11.393   3.869   3.494 -0.7678 -0.1635 -0.3881
  655MOL0     O88320  11.501   3.786   3.472 -0.0662 -0.1586 -0.6609
  655MOL0     C88321  11.629   3.832   3.492 -1.0355 -0.4740  0.1387
  655MOL0     C88322  11.724   3.770   3.573  0.1706  0.4159 -0.0659
  655MOL0     C88323  11.850   3.817   3.593 -0.6758 -0.0439  0.1543
  655MOL0     C88324  11.900   3.930   3.528  0.2110 -0.5166 -0.2012
  655MOL0     O88325  12.026   3.965   3.558  0.0227  0.1121 -0.3974
  655MOL0     C88326  12.079   4.082   3.491 -0.6819  0.0337 -0.7609
  655MOL0     C88327  12.232   4.054   3.492  0.4692 -0.0473 -0.3413
  655MOL0     C88328  12.299   4.113   3.363 -0.6356 -0.6660  0.2064
  655MOL0     C88329  12.276   4.270   3.365 -0.3331  0.2749  0.3553
  655MOL0     C88330  12.348   4.335   3.250  0.6591 -0.5608  0.5043
  655MOL0     C88331  12.363   4.489   3.276  0.4397  0.2946  0.0689
  655MOL0     C88332  12.342   4.550   3.136 -0.4551 -0.1846 -0.3121
  655MOL0     C88333  12.201   4.564   3.086  0.6432  0.2667  0.5774
  655MOL0    Cl88334  12.206   4.612   2.912  0.3964 -0.4545 -0.0885
  655MOL0     C88335  11.811   3.993   3.443 -0.0011  0.3904 -0.4515
  655MOL0     C88336  11.687   3.943   3.426 -0.1013  0.2930  1.0757
  655MOL0     O88337  11.405   3.986   3.543  0.3926 -0.8063  0.3833
  655MOL0     C88338  11.146   3.858   3.512 -0.5661 -0.4340 -0.3083
  655MOL0     C88339  11.025   3.811   3.470 -0.1760 -0.4345 -0.5714
  655MOL0     N88340  10.552   3.635   2.944 -0.2787 -0.0627 -0.0798
  655MOL0     N88341  10.417   3.634   2.947 -0.4680  0.4572 -0.3057
  655MOL0     C88342   9.366   3.193   2.691  0.3994 -0.2467 -0.0351
  655MOL0     C88343   9.246   3.165   2.612  0.0960 -0.3601  0.5820
  655MOL0     C88344   8.825   3.249   2.468  0.2455 -0.5490 -0.0980
  655MOL0     C88345   8.729   3.152   2.498 -0.4672 -0.7884 -0.7508
  655MOL0     C88346   8.603   3.154   2.432  0.8367  0.1915 -0.2627
  655MOL0     C88347   8.577   3.240   2.324 -0.2508 -0.2034 -0.5691
  655MOL0     O88348   8.464   3.228   2.252  0.9241 -0.4297  0.5367
  655MOL0     C88349   8.487   3.182   2.118  0.4477 -0.2113  0.4200
  655MOL0     C88350   8.394   3.064   2.104 -0.0560  0.1689  0.0366
  655MOL0     C88351   8.250   3.093   2.095 -0.6758 -0.8878  0.1270
  655MOL0     C88352   8.210   3.199   1.979 -0.6867  0.5093 -0.1298
  655MOL0     C88353   8.067   3.180   1.950 -0.1204 -0.0122 -0.4777
  655MOL0     C88354   7.947   3.160   1.922 -0.2352 -0.1957  0.3063
  655MOL0     C88355   8.674   3.328   2.300 -0.2820  0.0025  0.0091
  655MOL0     C88356   8.796   3.343   2.368 -0.7253  0.8040  0.3049
  655MOL0     C88357   8.886   3.450   2.331  0.4256  0.0298 -0.7419
  655MOL0     H88358   9.190   3.490   2.517 -1.3366 -0.4197 -0.5709
  655MOL0     H88359   9.402   3.519   2.648 -0.5576 -0.1576  0.7413
  655MOL0     H88360   9.410   3.328   2.960 -0.1420  3.4182 -0.4277
  655MOL0     H88361   9.527   3.201   2.935  0.6331  0.7479  0.1421
  655MOL0     H88362   9.601   3.365   3.118  0.5151  0.9805  0.3784
  655MOL0     H88363   9.550   3.497   3.014  2.1277  1.8551 -1.4022
  655MOL0     H88364   9.792   3.470   3.054 -0.0865 -0.4412  0.6227
  655MOL0     H88365   9.744   3.491   2.883  0.0158 -0.0870  0.6645
  655MOL0     H88366   9.797   3.225   3.032 -1.8680  0.7952 -0.6475
  655MOL0     H88367   9.794   3.241   2.856  0.8132  1.8120 -0.5765
  655MOL0     H88368   9.996   3.356   3.051  1.6693  2.1646 -0.8612
  655MOL0     H88369  10.019   3.206   2.951 -2.5158 -1.5755 -0.9068
  655MOL0     H88370  10.004   3.371   2.751 -1.8641 -4.8615  1.2949
  655MOL0     H88371  10.004   3.497   2.872  1.3783  1.7654 -1.5011
  655MOL0     H88372  10.244   3.433   2.782  1.9304 -0.1992  0.8337
  655MOL0     H88373  10.240   3.298   2.891 -0.9590 -1.0491  0.7478
  655MOL0     H88374  10.177   3.559   3.029  0.7153  1.6427 -2.3279
  655MOL0     H88375  10.226   3.402   3.089  0.6520 -1.2538 -1.1090
  655MOL0     H88376  10.499   3.341   3.091  1.1232 -0.0243  1.2248
  655MOL0     H88377  10.748   3.400   3.096  0.2099 -0.8221 -0.5591
  655MOL0     H88378  10.751   3.377   2.933 -0.4191  0.6579  0.9449
  655MOL0     H88379  10.939   3.503   2.963  0.9000 -0.5810  3.6655
  655MOL0     H88380  10.829   3.627   2.898 -2.0957 -2.5303 -1.6385
  655MOL0     H88381  10.800   3.748   3.076 -2.4267 -1.7341 -1.6109
  655MOL0     H88382  10.972   3.710   3.072 -0.9749  1.9025 -2.6458
  655MOL0     H88383  10.927   3.514   3.230 -2.0314 -1.9231  2.3461
  655MOL0     H88384  10.755   3.569   3.241  0.1062 -2.1107 -1.0785
  655MOL0     H88385  11.124   3.577   3.245  0.7599  2.1282 -2.1101
  655MOL0     H88386  11.348   3.680   3.305 -0.6629 -1.0187  0.2278
  655MOL0     H88387  11.697   3.675   3.617 -0.9017 -1.9150 -5.1399
  655MOL0     H88388  11.921   3.761   3.653 -2.3349 -0.3281  1.9344
  655MOL0     H88389  12.045   4.083   3.387 -1.5872 -4.8953 -0.7269
  655MOL0     H88390  12.055   4.174   3.545 -2.0887 -1.0449  0.5587
  655MOL0     H88391  12.289   4.100   3.573 -1.4231  1.2923  0.3229
  655MOL0     H88392  12.242   3.945   3.495  0.4509 -0.1350 -2.1866
  655MOL0     H88393  12.406   4.090   3.358 -0.9158 -2.3500  1.4808
  655MOL0     H88394  12.263   4.082   3.264 -1.9331 -0.2585  0.5383
  655MOL0     H88395  12.313   4.311   3.459  0.4138 -1.0059  0.6494
  655MOL0     H88396  12.173   4.308   3.368 -0.2371  0.6118 -0.3976
  655MOL0     H88397  12.285   4.302   3.168  0.7120 -1.2080  0.7144
  655MOL0     H88398  12.444   4.283   3.233  0.4543 -0.5479 -0.7897
  655MOL0     H88399  12.288   4.531   3.343  0.7708  1.9236 -0.5306
  655MOL0     H88400  12.460   4.504   3.323  0.2101 -0.3376  0.7642
  655MOL0     H88401  12.398   4.487   3.066 -1.1551 -1.5292  0.3079
  655MOL0     H88402  12.389   4.649   3.133 -0.4309 -0.1606  0.5368
  655MOL0     H88403  12.154   4.465   3.091  1.3759 -0.2758 -1.9952
  655MOL0     H88404  12.135   4.632   3.142 -0.4397  2.3442 -2.8978
  655MOL0     H88405  11.838   4.094   3.414  2.0025  0.2152  0.5658
  655MOL0     H88406  11.622   3.992   3.355 -0.7095 -0.6730  0.9383
  655MOL0     H88407  11.144   3.932   3.591 -0.2403 -1.5342  0.7580
  655MOL0     H88408  10.943   3.867   3.512  0.7807  2.0269 -1.8285
  655MOL0     H88409   9.409   3.113   2.751 -0.3342  0.6046  1.6709
  655MOL0     H88410   9.209   3.063   2.611 -1.2195  0.0806  1.7910
  655MOL0     H88411   8.745   3.088   2.584  0.6964 -1.1019 -1.1825
  655MOL0     H88412   8.519   3.092   2.463 -0.9414  2.7782  0.4583
  655MOL0     H88413   8.593   3.158   2.107  0.5992  1.0304 -1.1424
  655MOL0     H88414   8.461   3.254   2.040 -2.9779 -2.5978 -0.8810
  655MOL0     H88415   8.411   3.001   2.192  0.8997 -0.3650 -0.5136
  655MOL0     H88416   8.424   2.997   2.022  2.8813 -2.4436  2.9344
  655MOL0     H88417   8.201   3.122   2.188 -2.7623  0.7680 -1.3819
  655MOL0     H88418   8.196   3.001   2.069 -3.2567  1.2496 -2.8650
  655MOL0     H88419   8.239   3.302   2.001  0.8092  0.3440 -1.1695
  655MOL0     H88420   8.266   3.170   1.890 -1.2354 -4.0415  0.7538
  655MOL0     H88421   7.849   3.140   1.885  0.3230 -0.3889 -1.1221
  655MOL0     H88422   8.664   3.389   2.211  2.2523 -2.4226 -2.1174
  655MOL0     H88423   8.979   3.454   2.389  0.0863 -1.4670 -0.0510
  655MOL0     H88424   8.915   3.437   2.226  2.7549 -3.7497  0.1886
  655MOL0     H88425   8.829   3.543   2.342  1.8424  0.8501 -0.0463
  656MOL0     O88426   5.205   3.377   0.952  0.0702  0.1197 -0.1325
  656MOL0     C88427   5.107   3.308   0.911 -0.5426 -0.0235  0.4045
  656MOL0     O88428   5.126   3.177   0.859  0.7722 -0.9056 -0.1742
  656MOL0     C88429   5.258   3.130   0.836 -0.1491 -0.4055 -0.0638
  656MOL0     C88430   5.356   3.110   0.931  0.7289  0.2208 -0.3108
  656MOL0     C88431   5.471   3.044   0.909 -0.0768 -0.7418  0.6242
  656MOL0     C88432   5.503   2.992   0.781 -0.4916  1.0388  0.2604
  656MOL0     O88433   5.624   2.927   0.742 -0.1415  0.5242 -0.5064
  656MOL0     C88434   5.725   2.904   0.840  0.7166  0.4403  1.2676
  656MOL0     C88435   5.854   2.846   0.783 -0.0102  0.1122 -0.4752
  656MOL0     C88436   5.938   2.946   0.714 -0.2697 -0.3103 -0.2046
  656MOL0     C88437   6.042   3.010   0.806  0.6848 -0.6584 -0.1837
  656MOL0     C88438   6.140   3.105   0.745 -0.3062 -0.2647  0.5297
  656MOL0     C88439   6.238   3.023   0.656 -0.9442 -0.4486  0.1747
  656MOL0     C88440   6.320   3.124   0.572  0.2122  0.0678  0.0131
  656MOL0     C88441   6.432   3.041   0.495 -0.2711  0.5042  0.4808
  656MOL0     N88442   6.544   2.988   0.576  0.1215  0.4543 -0.1006
  656MOL0     C88443   6.652   2.920   0.533 -0.7238  0.2747  0.3858
  656MOL0     C88444   6.702   2.871   0.653  0.9602 -0.2311 -0.0028
  656MOL0     C88445   6.835   2.800   0.646  0.5399 -0.4115 -0.2992
  656MOL0     C88446   6.954   2.880   0.620 -0.2703  0.3490  0.9359
  656MOL0     C88447   7.088   2.809   0.657  0.1510  0.0467  0.9235
  656MOL0     C88448   7.197   2.913   0.681 -0.2661  0.1443  0.4031
  656MOL0     O88449   7.164   2.988   0.808 -0.4016 -0.2808 -0.8263
  656MOL0     C88450   7.251   3.093   0.844 -0.3173  0.4813 -0.4034
  656MOL0     C88451   7.384   3.068   0.858 -0.0121 -0.3292  0.0940
  656MOL0     C88452   7.470   3.167   0.907  0.8849  1.3082  0.3713
  656MOL0     C88453   7.427   3.289   0.948 -0.2343  0.7325 -0.0263
  656MOL0     C88454   7.528   3.378   1.007  0.1758  0.1766  0.1124
  656MOL0     O88455   7.662   3.359   0.962  0.1002 -0.4497 -0.7981
  656MOL0     C88456   7.752   3.443   1.006 -0.8051 -0.1582  0.2718
  656MOL0     C88457   7.771   3.494   1.134 -0.2638  0.2893 -0.2607
  656MOL0     C88458   7.889   3.564   1.166 -0.1262 -0.6836 -0.6266
  656MOL0     C88459   7.982   3.594   1.073 -0.2066  0.4343  0.2933
  656MOL0     O88460   8.087   3.667   1.116 -0.0648  0.2502  0.0680
  656MOL0     C88461   8.215   3.610   1.080  0.6064 -0.1351  0.5101
  656MOL0     C88462   8.319   3.697   1.143  0.2844 -0.0915 -0.2538
  656MOL0     C88463   8.446   3.706   1.067 -0.1351  0.1873  0.2122
  656MOL0     C88464   8.522   3.836   1.086  0.4875  0.7642 -0.6963
  656MOL0     C88465   8.665   3.843   1.037 -0.6662  0.9037  0.0077
  656MOL0     C88466   8.757   3.758   1.131  0.7732  0.0761 -0.0959
  656MOL0     C88467   8.905   3.764   1.101 -0.6494  0.5194 -0.4877
  656MOL0     C88468   8.957   3.912   1.082 -0.9930 -0.1805 -0.3732
  656MOL0    Cl88469   9.141   3.896   1.080  0.0879  0.6154 -0.2112
  656MOL0     C88470   7.966   3.547   0.941  0.0797 -0.6462  0.2064
  656MOL0     C88471   7.860   3.461   0.913  0.0649 -0.0375 -0.2484
  656MOL0     O88472   7.484   3.468   1.071 -0.1089 -0.8154 -0.2346
  656MOL0     C88473   7.289   3.315   0.948 -0.2768 -0.0123 -0.0515
  656MOL0     C88474   7.204   3.216   0.893 -0.1481 -0.2300  0.0573
  656MOL0     N88475   6.635   2.926   0.759  0.5637 -0.0274 -0.3150
  656MOL0     N88476   6.544   2.996   0.709 -0.0847 -0.2826 -0.3339
  656MOL0     C88477   5.396   2.999   0.683  0.2556  0.3001  0.7269
  656MOL0     C88478   5.279   3.066   0.712  0.8879  0.4895 -0.2930
  656MOL0     C88479   4.966   3.359   0.913 -0.5637 -0.2400 -0.4182
  656MOL0     C88480   4.890   3.313   0.808  0.0702  0.7460  0.2216
  656MOL0     C88481   4.767   3.367   0.783 -0.0766  0.1718 -0.1208
  656MOL0     C88482   4.713   3.478   0.857 -0.3426  0.6624  0.1901
  656MOL0     O88483   4.591   3.533   0.851  0.9141  0.5824 -0.0709
  656MOL0     C88484   4.502   3.495   0.747 -0.1960  0.1236  0.8253
  656MOL0     C88485   4.520   3.591   0.629 -0.5185  0.5507 -0.4056
  656MOL0     C88486   4.610   3.532   0.519 -0.3764  0.2748 -0.4232
  656MOL0     C88487   4.531   3.449   0.416 -0.7763 -0.3400  0.1660
  656MOL0     C88488   4.607   3.446   0.284 -1.4201  0.2953 -0.4220
  656MOL0     C88489   4.673   3.444   0.176 -0.5331  0.2518  0.3872
  656MOL0     C88490   4.795   3.535   0.955 -0.7092  0.1994 -0.9205
  656MOL0     C88491   4.917   3.475   0.988  0.1575  0.8259  0.7179
  656MOL0     C88492   4.997   3.538   1.092  0.0569  0.0414  0.5753
  656MOL0     H88493   5.327   3.142   1.031 -0.8465 -3.0530  0.3877
  656MOL0     H88494   5.535   3.026   0.995 -0.2714 -1.9230  0.5403
  656MOL0     H88495   5.744   2.997   0.894  2.1301  1.2588 -0.5499
  656MOL0     H88496   5.690   2.824   0.906  0.3968 -0.5997 -0.1129
  656MOL0     H88497   5.824   2.763   0.719 -0.8099  0.2868 -0.3297
  656MOL0     H88498   5.911   2.806   0.868  1.6448  0.4423 -1.3816
  656MOL0     H88499   5.879   3.032   0.682 -1.9550 -1.7660 -1.2467
  656MOL0     H88500   5.985   2.901   0.626 -0.7270 -0.3936 -0.4096
  656MOL0     H88501   5.977   3.055   0.881 -1.4249  0.4565 -2.5167
  656MOL0     H88502   6.106   2.942   0.864  1.5996 -0.1068 -0.5281
  656MOL0     H88503   6.095   3.178   0.677 -0.4502 -0.5270  0.3458
  656MOL0     H88504   6.194   3.151   0.829  0.3719 -0.8882  0.4473
  656MOL0     H88505   6.304   2.973   0.728 -2.6146 -0.0660  2.0808
  656MOL0     H88506   6.183   2.945   0.601  0.7864 -1.2619 -0.4610
  656MOL0     H88507   6.375   3.201   0.626  2.5159 -2.3971  1.4261
  656MOL0     H88508   6.243   3.166   0.506  0.2603  1.6680  0.9298
  656MOL0     H88509   6.397   2.952   0.441 -0.5886  1.5214 -1.0651
  656MOL0     H88510   6.479   3.103   0.418  1.1002 -0.2371  0.6900
  656MOL0     H88511   6.694   2.897   0.436 -0.0189  0.5621  0.6194
  656MOL0     H88512   6.848   2.739   0.736 -0.4945  0.2927  0.3547
  656MOL0     H88513   6.813   2.726   0.569 -1.4312 -2.2537  1.8672
  656MOL0     H88514   6.972   2.910   0.517 -0.0766  1.5252  1.2965
  656MOL0     H88515   6.959   2.975   0.673  1.4145 -0.1598  1.7666
  656MOL0     H88516   7.114   2.749   0.570 -0.5855  1.9631 -0.6930
  656MOL0     H88517   7.083   2.759   0.754  1.9909 -0.4539  0.8045
  656MOL0     H88518   7.203   2.984   0.598  0.6565  3.1117  2.8212
  656MOL0     H88519   7.283   2.846   0.677 -1.6860 -1.7003 -1.1730
  656MOL0     H88520   7.425   2.968   0.849  2.6389  0.7940 -1.5265
  656MOL0     H88521   7.575   3.142   0.922  1.3683  2.3087 -1.1279
  656MOL0     H88522   7.713   3.455   1.218  0.5890 -0.5552 -0.0379
  656MOL0     H88523   7.893   3.606   1.266 -0.9432 -1.4246 -0.2768
  656MOL0     H88524   8.226   3.508   1.119 -1.8401 -0.0638  1.5454
  656MOL0     H88525   8.228   3.609   0.971  0.3613  0.8983  0.4646
  656MOL0     H88526   8.276   3.793   1.169 -0.3470 -0.1020 -1.2035
  656MOL0     H88527   8.345   3.659   1.242  0.0230  0.2172 -0.0675
  656MOL0     H88528   8.511   3.620   1.083 -0.7172 -0.0510  1.4632
  656MOL0     H88529   8.415   3.690   0.964 -1.1176 -2.3325  0.8430
  656MOL0     H88530   8.531   3.868   1.190  2.9595  0.9315 -0.9043
  656MOL0     H88531   8.470   3.913   1.027  2.2888  1.6185 -1.2254
  656MOL0     H88532   8.697   3.947   1.043 -2.5006  1.4232  1.8702
  656MOL0     H88533   8.663   3.823   0.929  2.2915  1.6346 -0.2697
  656MOL0     H88534   8.749   3.804   1.230  0.7458  2.3153 -1.0768
  656MOL0     H88535   8.733   3.651   1.139 -1.4484  0.5345  0.0990
  656MOL0     H88536   8.920   3.704   1.010  1.1750  1.5231 -0.9070
  656MOL0     H88537   8.956   3.716   1.184  0.1670  0.4579 -1.0105
  656MOL0     H88538   8.917   3.955   0.990 -4.4264  0.0705  1.1155
  656MOL0     H88539   8.932   3.989   1.155  2.3108  1.6651 -0.9909
  656MOL0     H88540   8.039   3.566   0.864  0.6054  1.5661  1.1835
  656MOL0     H88541   7.849   3.417   0.814 -2.0296 -0.2379  0.0310
  656MOL0     H88542   7.242   3.397   1.002  0.8521 -0.4660  1.7019
  656MOL0     H88543   7.096   3.224   0.899 -0.5870 -1.6034 -3.6515
  656MOL0     H88544   5.415   2.949   0.589  0.5442  0.5179  0.6682
  656MOL0     H88545   5.198   3.069   0.641  2.5052  2.6699 -2.1785
  656MOL0     H88546   4.921   3.235   0.739  1.0755  0.3100  1.1316
  656MOL0     H88547   4.704   3.321   0.708 -1.5412  2.0824 -0.1423
  656MOL0     H88548   4.399   3.503   0.783 -0.9923 -2.0586 -0.6922
  656MOL0     H88549   4.517   3.394   0.706 -0.0264  0.3474  0.3287
  656MOL0     H88550   4.569   3.681   0.666  2.8891 -1.4571  0.4348
  656MOL0     H88551   4.421   3.611   0.587 -0.5461 -0.8779 -1.0757
  656MOL0     H88552   4.684   3.463   0.561 -1.0476 -0.9116 -1.1359
  656MOL0     H88553   4.661   3.616   0.471 -0.1693  0.5194  0.2201
  656MOL0     H88554   4.519   3.352   0.464  2.6626 -0.0604  1.9117
  656MOL0     H88555   4.432   3.491   0.398 -1.2003 -2.0779 -2.1889
  656MOL0     H88556   4.711   3.433   0.076 -1.2906  3.0485 -0.2752
  656MOL0     H88557   4.760   3.610   1.026  1.3379 -1.4275  1.9994
  656MOL0     H88558   4.934   3.589   1.167 -1.3355 -1.8198  0.7365
  656MOL0     H88559   5.041   3.448   1.134 -1.5464 -2.5306 -2.8049
  656MOL0     H88560   5.065   3.608   1.042 -0.4332  0.1730  0.0870
  657MOL0     O88561   4.835   7.343   6.474 -1.1255 -0.3638 -0.7922
  657MOL0     C88562   4.829   7.292   6.364  0.0087  0.0550 -0.2819
  657MOL0     O88563   4.935   7.232   6.293  0.7735 -0.3385  0.4376
  657MOL0     C88564   5.063   7.199   6.346  0.6399 -0.1314  0.9466
  657MOL0     C88565   5.084   7.187   6.479  0.9686 -0.2123 -0.3430
  657MOL0     C88566   5.207   7.162   6.530 -0.1480  0.2326  0.1213
  657MOL0     C88567   5.319   7.132   6.444 -0.2226  1.0607 -0.1965
  657MOL0     O88568   5.441   7.113   6.496  0.2662 -0.3899 -0.5878
  657MOL0     C88569   5.478   7.116   6.636  0.3791 -0.7099  0.0299
  657MOL0     C88570   5.621   7.073   6.666 -0.0810  0.3677  0.0804
  657MOL0     C88571   5.726   7.176   6.625  0.0818  0.5110 -0.1443
  657MOL0     C88572   5.860   7.149   6.701 -0.7271 -0.0067 -0.3773
  657MOL0     C88573   5.982   7.205   6.622 -0.3531 -0.6827  0.2055
  657MOL0     C88574   6.114   7.168   6.693 -0.3827 -0.2795 -0.0801
  657MOL0     C88575   6.138   7.265   6.807 -0.0638  0.5525  0.0461
  657MOL0     C88576   6.270   7.207   6.876 -0.4770 -0.6950 -0.0696
  657MOL0     N88577   6.309   7.318   6.974  0.6919 -0.2775 -0.2169
  657MOL0     C88578   6.392   7.426   6.953  0.3828  0.0295  0.4043
  657MOL0     C88579   6.386   7.494   7.065  0.8779 -0.8632  0.4325
  657MOL0     C88580   6.471   7.628   7.089 -0.4453 -0.0268  0.0558
  657MOL0     C88581   6.574   7.613   7.204 -0.7308  0.6841 -0.1142
  657MOL0     C88582   6.637   7.751   7.247  0.5031  0.3262 -0.2888
  657MOL0     C88583   6.751   7.733   7.350 -0.1320  0.4351  0.0374
  657MOL0     O88584   6.867   7.691   7.277 -0.1347  0.0736  0.1013
  657MOL0     C88585   6.991   7.650   7.335  0.7094  0.0423  0.1031
  657MOL0     C88586   7.096   7.608   7.248 -0.5272 -0.4637  0.2119
  657MOL0     C88587   7.216   7.560   7.301  0.1819 -0.1600 -0.7707
  657MOL0     C88588   7.223   7.537   7.442  0.3711 -0.2104  0.4854
  657MOL0     C88589   7.341   7.484   7.502  0.5075  0.4510  0.6223
  657MOL0     O88590   7.381   7.501   7.629 -0.1350  0.1975  0.1205
  657MOL0     C88591   7.507   7.477   7.668  0.3212  0.2964  0.3528
  657MOL0     C88592   7.613   7.534   7.598 -0.4141  0.2817  0.0412
  657MOL0     C88593   7.740   7.531   7.660  0.3109 -0.6590  0.3885
  657MOL0     C88594   7.768   7.458   7.776 -0.9625 -0.1119  0.3400
  657MOL0     O88595   7.899   7.464   7.823  0.0561  0.2399 -0.5600
  657MOL0     C88596   7.955   7.376   7.927 -0.1999 -1.9450 -0.3403
  657MOL0     C88597   7.956   7.222   7.888  0.7612 -0.0050  0.6369
  657MOL0     C88598   7.973   7.127   8.009  0.4194  0.4902 -1.7834
  657MOL0     C88599   7.953   6.985   7.994 -0.0343  0.3654 -1.0837
  657MOL0     C88600   7.821   6.933   7.955  0.2900 -0.0026 -0.1432
  657MOL0     C88601   7.717   6.937   8.073  0.6001  0.1386  0.2861
  657MOL0     C88602   7.596   7.024   8.026 -0.1062  0.0407 -0.0280
  657MOL0     C88603   7.519   6.957   7.908 -0.0510  0.6065 -0.1598
  657MOL0    Cl88604   7.358   7.043   7.891 -0.0326  0.5747 -0.0458
  657MOL0     C88605   7.654   7.403   7.847  0.0081  0.3082 -0.2264
  657MOL0     C88606   7.523   7.405   7.785  0.3273  0.3017  0.3721
  657MOL0     O88607   7.408   7.413   7.418  0.0488 -0.0411 -0.9035
  657MOL0     C88608   7.121   7.577   7.528  0.0117 -0.7166 -0.4625
  657MOL0     C88609   7.008   7.639   7.472  0.5154  0.3089 -0.0526
  657MOL0     N88610   6.300   7.428   7.151 -0.2766 -0.1957 -0.5968
  657MOL0     N88611   6.251   7.330   7.096  0.5684 -1.0135  0.5503
  657MOL0     C88612   5.286   7.138   6.306  0.1130  0.5310  0.8825
  657MOL0     C88613   5.159   7.163   6.256 -0.2494 -0.0565 -0.3305
  657MOL0     C88614   4.697   7.303   6.292 -0.0689 -0.0585 -0.4293
  657MOL0     C88615   4.698   7.269   6.154  0.6037 -0.9172 -0.1185
  657MOL0     C88616   4.585   7.274   6.074 -0.4738  0.5567 -0.2970
  657MOL0     C88617   4.461   7.307   6.133  0.2764 -0.0335 -0.7096
  657MOL0     O88618   4.342   7.309   6.061  0.2615  0.4402 -0.2043
  657MOL0     C88619   4.328   7.233   5.939 -0.0161  0.8662  0.1680
  657MOL0     C88620   4.335   7.336   5.822  0.1647  0.0373 -0.1759
  657MOL0     C88621   4.372   7.277   5.688 -0.4162  0.1520 -0.7491
  657MOL0     C88622   4.518   7.247   5.661  0.1199  0.0503  0.1934
  657MOL0     C88623   4.544   7.202   5.525 -0.6487  0.5390 -0.2659
  657MOL0     C88624   4.566   7.153   5.418  0.8556  0.0058  0.7105
  657MOL0     C88625   4.455   7.331   6.270  0.3743 -0.5071  0.0379
  657MOL0     C88626   4.564   7.338   6.352 -1.5598 -0.7413 -0.3464
  657MOL0     C88627   4.542   7.378   6.495  0.4057  0.6422  0.0530
  657MOL0     H88628   4.997   7.189   6.544  1.2509 -0.7749  0.0556
  657MOL0     H88629   5.222   7.151   6.637 -0.1677  2.9933  0.4813
  657MOL0     H88630   5.458   7.216   6.675 -1.4162 -1.0916  0.2086
  657MOL0     H88631   5.405   7.049   6.683  0.1105 -2.3751 -2.5672
  657MOL0     H88632   5.652   6.980   6.618  2.6518  1.5421 -0.6539
  657MOL0     H88633   5.621   7.053   6.773 -0.6541 -1.0960 -0.1796
  657MOL0     H88634   5.692   7.276   6.653 -1.0988  0.2348 -0.5279
  657MOL0     H88635   5.756   7.165   6.520 -3.1933  0.5727 -1.1827
  657MOL0     H88636   5.852   7.201   6.798  0.0045 -0.1243 -0.2453
  657MOL0     H88637   5.879   7.044   6.726 -0.9556  0.3975  1.7377
  657MOL0     H88638   5.984   7.150   6.527 -0.6238 -0.8597  0.3049
  657MOL0     H88639   5.974   7.311   6.594 -3.0963 -1.5600 -2.9630
  657MOL0     H88640   6.106   7.064   6.727 -2.0223 -0.1948 -0.1274
  657MOL0     H88641   6.195   7.181   6.621 -2.3865 -0.6102 -2.5045
  657MOL0     H88642   6.049   7.268   6.870 -0.5007 -3.5422 -0.1481
  657MOL0     H88643   6.160   7.369   6.778  0.2469  0.6653  0.6720
  657MOL0     H88644   6.241   7.110   6.917  0.6042 -2.5045 -3.2057
  657MOL0     H88645   6.345   7.195   6.797  0.1200  1.2382  0.1571
  657MOL0     H88646   6.443   7.465   6.866  1.4771  1.4657  1.6458
  657MOL0     H88647   6.540   7.658   7.010  1.3544 -2.0628  0.7671
  657MOL0     H88648   6.392   7.702   7.105 -0.1939  0.2377  0.0631
  657MOL0     H88649   6.518   7.566   7.286  0.3762 -1.7998 -0.6944
  657MOL0     H88650   6.654   7.543   7.178  0.2527  1.5976  0.3389
  657MOL0     H88651   6.557   7.816   7.285 -0.7888  0.0556 -2.4014
  657MOL0     H88652   6.672   7.798   7.155 -2.7364 -0.3578 -2.0155
  657MOL0     H88653   6.729   7.654   7.422  0.4297 -0.9091 -1.2194
  657MOL0     H88654   6.768   7.828   7.403  1.1402 -0.4858  1.3801
  657MOL0     H88655   7.090   7.617   7.140 -1.7115 -1.3594  0.1890
  657MOL0     H88656   7.292   7.540   7.227  0.6115  0.0259 -0.3820
  657MOL0     H88657   7.597   7.591   7.507 -1.2575  1.7279  1.0379
  657MOL0     H88658   7.829   7.567   7.608 -1.0153  0.8264 -0.9671
  657MOL0     H88659   8.059   7.401   7.946 -0.9573 -1.2902  3.9183
  657MOL0     H88660   7.913   7.400   8.025  0.8997 -0.4514 -0.2045
  657MOL0     H88661   7.869   7.187   7.831 -0.8083  0.5361  2.5698
  657MOL0     H88662   8.042   7.211   7.822  0.4617  0.8790  0.0876
  657MOL0     H88663   8.075   7.136   8.049  0.2921  1.8177 -1.6934
  657MOL0     H88664   7.914   7.161   8.095  1.3889 -2.4632  0.1939
  657MOL0     H88665   7.986   6.940   8.089  1.4085  2.5036 -0.5177
  657MOL0     H88666   8.029   6.945   7.926  4.1288 -1.2598  3.8218
  657MOL0     H88667   7.837   6.828   7.927  0.1559 -0.6263  1.9768
  657MOL0     H88668   7.779   6.986   7.869  1.2099 -2.2925 -2.1463
  657MOL0     H88669   7.693   6.835   8.107  2.2186  0.7267  3.6262
  657MOL0     H88670   7.764   6.999   8.150  0.4259  1.9172 -0.9920
  657MOL0     H88671   7.636   7.120   7.993  1.8763 -0.1675  1.5492
  657MOL0     H88672   7.531   7.038   8.113  1.6092 -0.6674  1.4457
  657MOL0     H88673   7.564   6.965   7.808 -1.3253  2.1746 -0.6654
  657MOL0     H88674   7.499   6.859   7.952  3.4401  0.0001  0.3726
  657MOL0     H88675   7.674   7.354   7.942  0.3931  0.0234 -0.4514
  657MOL0     H88676   7.439   7.363   7.839 -0.3259  4.6985  3.3589
  657MOL0     H88677   7.140   7.573   7.635 -1.2672 -2.5706 -0.2492
  657MOL0     H88678   6.922   7.677   7.526 -1.5717 -0.3779 -2.6680
  657MOL0     H88679   5.345   7.087   6.231 -0.8757  1.8602 -0.8739
  657MOL0     H88680   5.145   7.175   6.149  1.0624 -0.8076 -0.6081
  657MOL0     H88681   4.788   7.243   6.099 -0.8230 -1.0250 -2.5931
  657MOL0     H88682   4.607   7.251   5.970  1.3126 -2.2816  0.6116
  657MOL0     H88683   4.238   7.171   5.929  1.3505 -1.3185  0.6485
  657MOL0     H88684   4.411   7.162   5.932 -1.5586 -1.2354  1.9657
  657MOL0     H88685   4.390   7.427   5.849  0.8495  0.0567 -1.5342
  657MOL0     H88686   4.231   7.362   5.801  0.0022 -1.2822 -1.1158
  657MOL0     H88687   4.330   7.338   5.608  1.3376  0.0564 -1.8186
  657MOL0     H88688   4.320   7.182   5.677 -0.2859  0.0775 -0.7216
  657MOL0     H88689   4.577   7.336   5.686 -1.3713  1.3793 -0.8245
  657MOL0     H88690   4.550   7.169   5.730  1.6774  0.4890  0.0043
  657MOL0     H88691   4.577   7.106   5.323 -1.7406  2.1367 -0.7920
  657MOL0     H88692   4.355   7.345   6.309 -0.2895 -0.5538 -1.5702
  657MOL0     H88693   4.437   7.390   6.522  0.5532  0.3607  0.7614
  657MOL0     H88694   4.568   7.299   6.566 -2.0046 -0.5399 -0.2759
  657MOL0     H88695   4.595   7.463   6.538 -0.4098  1.5422 -0.6885
  658MOL0     O88696   5.034   6.925   2.007 -0.3310 -0.3911  0.0217
  658MOL0     C88697   4.938   6.959   2.077 -0.4102 -0.2712 -0.0788
  658MOL0     O88698   4.948   7.017   2.201  0.3650 -0.4001 -0.0431
  658MOL0     C88699   5.062   7.030   2.275 -0.4079  0.1714 -0.3620
  658MOL0     C88700   5.177   6.962   2.262  0.7348  0.2703 -0.6623
  658MOL0     C88701   5.285   6.977   2.353  0.4626  0.3594 -0.3437
  658MOL0     C88702   5.270   7.059   2.463 -0.8511  0.2507 -0.0069
  658MOL0     O88703   5.373   7.088   2.546 -0.2903 -0.0872 -0.3715
  658MOL0     C88704   5.346   7.066   2.690 -0.5813  1.2362  0.1235
  658MOL0     C88705   5.488   7.064   2.749  0.3617 -0.1097 -0.9898
  658MOL0     C88706   5.564   6.942   2.687  0.1402  0.2278  0.0297
  658MOL0     C88707   5.699   6.927   2.756 -0.4706 -0.2465  0.2582
  658MOL0     C88708   5.790   6.815   2.690 -0.5318 -1.1471 -0.5200
  658MOL0     C88709   5.865   6.846   2.563 -0.2039 -1.0076  0.5329
  658MOL0     C88710   5.912   6.723   2.494 -1.1870  0.0074  0.2817
  658MOL0     C88711   6.000   6.635   2.585  0.1569  1.3018  0.0730
  658MOL0     N88712   6.060   6.523   2.496 -1.0777 -0.0162 -0.3924
  658MOL0     C88713   5.996   6.459   2.384 -0.3787 -0.7742 -1.3572
  658MOL0     C88714   6.097   6.383   2.343 -0.8217 -0.8215 -0.4293
  658MOL0     C88715   6.086   6.321   2.206  0.3301 -0.5225 -0.2631
  658MOL0     C88716   6.036   6.173   2.204 -0.8915 -0.1243  0.3928
  658MOL0     C88717   5.905   6.148   2.278  0.3632 -0.6217 -0.1198
  658MOL0     C88718   5.862   6.003   2.247 -0.0501  0.7298  0.0617
  658MOL0     O88719   5.751   5.968   2.335 -0.3587 -0.0702 -0.5751
  658MOL0     C88720   5.626   6.025   2.320 -0.1513  0.2546 -0.1929
  658MOL0     C88721   5.582   6.093   2.429  0.0033  0.6267 -0.9852
  658MOL0     C88722   5.451   6.153   2.437 -0.0954  0.1613 -0.7818
  658MOL0     C88723   5.366   6.135   2.318  0.8498  0.1795 -0.3821
  658MOL0     C88724   5.227   6.187   2.310 -0.1082  0.1986  0.1128
  658MOL0     O88725   5.151   6.145   2.206 -0.8857  0.4443  0.6845
  658MOL0     C88726   5.048   6.229   2.179 -0.0071 -0.1083  0.6585
  658MOL0     C88727   5.067   6.359   2.116  0.0921 -0.1041  1.0253
  658MOL0     C88728   4.957   6.430   2.075  0.4492 -0.1074  0.5840
  658MOL0     C88729   4.830   6.380   2.073 -1.3153 -0.0591  0.2038
  658MOL0     O88730   4.737   6.460   2.023 -0.1319  0.5462  0.2344
  658MOL0     C88731   4.596   6.420   2.021  0.3058 -0.0190 -0.3935
  658MOL0     C88732   4.524   6.512   1.913 -0.7900 -0.3547 -0.4672
  658MOL0     C88733   4.381   6.452   1.883 -0.1462  0.7977 -1.2194
  658MOL0     C88734   4.290   6.557   1.821  0.6706  0.1562  0.0900
  658MOL0     C88735   4.152   6.501   1.775 -0.7421  0.3126  0.5872
  658MOL0     C88736   4.155   6.354   1.714  0.7468 -0.7545  0.1960
  658MOL0     C88737   4.017   6.321   1.665 -0.8275 -0.2742 -0.0025
  658MOL0     C88738   4.014   6.192   1.589 -0.3987 -0.0552  0.9286
  658MOL0    Cl88739   3.857   6.111   1.615  0.3246 -0.0828 -0.5174
  658MOL0     C88740   4.813   6.252   2.126 -0.1688 -0.4355 -0.8085
  658MOL0     C88741   4.918   6.175   2.177  0.2164 -0.0788 -0.0752
  658MOL0     O88742   5.194   6.255   2.407  0.6393  0.3119 -0.5344
  658MOL0     C88743   5.412   6.058   2.213 -0.3290 -0.0935  0.3785
  658MOL0     C88744   5.541   6.011   2.210  0.6595 -0.2177 -0.6266
  658MOL0     N88745   6.201   6.386   2.423 -0.0259  0.6043  0.0939
  658MOL0     N88746   6.186   6.468   2.516  0.0460 -0.0106 -0.3325
  658MOL0     C88747   5.155   7.122   2.475  0.0794  0.9934 -0.5389
  658MOL0     C88748   5.043   7.101   2.395  0.6223  0.0751 -0.0146
  658MOL0     C88749   4.810   6.975   2.001  0.9374 -0.5203  0.1393
  658MOL0     C88750   4.716   7.074   2.033 -0.7265  0.1942  0.4195
  658MOL0     C88751   4.588   7.081   1.963 -0.2445  0.6295 -0.5726
  658MOL0     C88752   4.560   6.988   1.864  0.3270  0.6277 -0.7566
  658MOL0     O88753   4.448   6.979   1.788  0.4063 -0.6561  0.0298
  658MOL0     C88754   4.324   7.023   1.844 -0.0978  0.2370 -0.4331
  658MOL0     C88755   4.215   6.942   1.790 -0.9333  0.2290  0.9088
  658MOL0     C88756   4.071   6.986   1.831  0.5042  0.1664  0.1630
  658MOL0     C88757   3.970   6.888   1.761  0.6351 -1.4207  0.4494
  658MOL0     C88758   3.977   6.905   1.617  0.5582  1.2984  0.1807
  658MOL0     C88759   3.981   6.905   1.493  0.0619 -0.4180  0.2035
  658MOL0     C88760   4.657   6.893   1.825  0.6754 -0.3927 -0.0028
  658MOL0     C88761   4.779   6.881   1.895 -0.0689  0.0936  0.2280
  658MOL0     C88762   4.856   6.767   1.846  0.6488 -0.3190  0.8870
  658MOL0     H88763   5.195   6.905   2.171  1.6279  0.6233 -0.7171
  658MOL0     H88764   5.384   6.933   2.345 -0.4881 -1.9484 -0.2924
  658MOL0     H88765   5.288   7.147   2.735  0.8357  1.5952  1.3655
  658MOL0     H88766   5.293   6.971   2.707  1.5703  0.1549  1.2045
  658MOL0     H88767   5.478   7.050   2.857 -0.8324  0.1037 -1.0567
  658MOL0     H88768   5.538   7.159   2.732 -0.7961  0.8501  0.6726
  658MOL0     H88769   5.585   6.957   2.581  2.5578 -1.3278  0.2265
  658MOL0     H88770   5.515   6.844   2.682  2.1363 -0.7386 -2.1534
  658MOL0     H88771   5.744   7.026   2.766 -2.1044  0.3045  3.3666
  658MOL0     H88772   5.664   6.894   2.854 -2.1074  1.7973  0.4375
  658MOL0     H88773   5.858   6.782   2.769 -4.0401 -2.4843  2.2525
  658MOL0     H88774   5.729   6.725   2.676 -1.7590 -0.5053  0.4853
  658MOL0     H88775   5.821   6.918   2.493  0.9739 -0.7010  0.0781
  658MOL0     H88776   5.952   6.904   2.593 -1.2870  1.6634 -1.1600
  658MOL0     H88777   5.964   6.743   2.400 -0.2905  2.0600  1.1589
  658MOL0     H88778   5.817   6.674   2.471 -1.8343  1.3991 -0.1160
  658MOL0     H88779   6.084   6.682   2.637 -0.9669 -0.3797  3.6954
  658MOL0     H88780   5.939   6.581   2.658  1.4096 -0.8606 -0.3694
  658MOL0     H88781   5.897   6.475   2.344 -0.6886  1.7226  0.1864
  658MOL0     H88782   6.017   6.383   2.148  1.3569 -0.3502 -1.3496
  658MOL0     H88783   6.178   6.334   2.148 -0.2048  1.9007 -0.6894
  658MOL0     H88784   6.023   6.161   2.096 -0.1529 -0.3350  0.3229
  658MOL0     H88785   6.119   6.115   2.247 -0.3705 -0.1526 -0.6325
  658MOL0     H88786   5.825   6.213   2.242 -2.1775 -2.8861  1.0923
  658MOL0     H88787   5.929   6.159   2.384  4.0355 -0.7029 -0.7934
  658MOL0     H88788   5.936   5.926   2.272  0.8331  0.3567 -3.2194
  658MOL0     H88789   5.835   5.993   2.141  1.9724 -1.5566 -0.3384
  658MOL0     H88790   5.662   6.101   2.502  0.8840 -0.1301 -1.8447
  658MOL0     H88791   5.421   6.207   2.526 -0.6019 -1.2031 -0.1044
  658MOL0     H88792   5.166   6.397   2.095 -1.1339  2.2346 -0.9732
  658MOL0     H88793   4.954   6.534   2.044 -1.7225 -0.4522 -0.5751
  658MOL0     H88794   4.592   6.314   1.996 -1.5836 -1.1311  3.6927
  658MOL0     H88795   4.552   6.441   2.119  1.9708  2.6269 -0.1007
  658MOL0     H88796   4.521   6.610   1.962  1.0153  0.3249 -1.6184
  658MOL0     H88797   4.587   6.516   1.824 -2.0553 -1.9691 -1.5009
  658MOL0     H88798   4.390   6.357   1.829 -4.2081 -0.5392  0.0823
  658MOL0     H88799   4.328   6.426   1.975 -1.9858  0.5163 -2.3076
  658MOL0     H88800   4.349   6.582   1.733  2.2451 -1.5363  0.6100
  658MOL0     H88801   4.281   6.637   1.896  0.5157  0.4124 -0.1991
  658MOL0     H88802   4.113   6.567   1.697 -1.2920 -0.7691 -0.0819
  658MOL0     H88803   4.089   6.488   1.864 -0.8616 -0.7748  0.3567
  658MOL0     H88804   4.217   6.359   1.624  0.0627  1.7870 -0.2228
  658MOL0     H88805   4.186   6.285   1.793  1.2779  0.2895  0.9307
  658MOL0     H88806   3.982   6.405   1.604 -1.9802 -1.6499 -1.3085
  658MOL0     H88807   3.942   6.313   1.745 -0.3501  0.4783  0.5325
  658MOL0     H88808   4.032   6.215   1.484 -1.9244 -0.3783  0.5705
  658MOL0     H88809   4.097   6.132   1.627  1.0005  0.3761 -1.2805
  658MOL0     H88810   4.714   6.207   2.126 -1.4359  1.9868 -3.8437
  658MOL0     H88811   4.895   6.076   2.215 -0.6023 -0.3494 -1.2143
  658MOL0     H88812   5.342   6.039   2.132 -0.3325  3.5730 -0.6613
  658MOL0     H88813   5.574   5.954   2.124  2.3337 -2.1993  1.1980
  658MOL0     H88814   5.146   7.194   2.556  2.4640 -2.1031  2.8125
  658MOL0     H88815   4.949   7.151   2.414 -0.3551 -0.1045 -3.7127
  658MOL0     H88816   4.731   7.147   2.112 -2.4725 -0.5089  1.4520
  658MOL0     H88817   4.535   7.174   1.983 -0.2853  0.5517 -0.3051
  658MOL0     H88818   4.304   7.121   1.799  0.1840  0.5492  0.1053
  658MOL0     H88819   4.324   7.016   1.954 -0.9385 -3.0684 -0.5592
  658MOL0     H88820   4.230   6.838   1.822 -0.4178 -0.2346 -0.7690
  658MOL0     H88821   4.217   6.941   1.681 -3.2290 -2.8444  0.7785
  658MOL0     H88822   4.047   7.090   1.808 -1.3715  0.1635  1.8446
  658MOL0     H88823   4.057   6.979   1.939 -0.7948 -2.6639 -0.0915
  658MOL0     H88824   3.971   6.782   1.788 -3.4594 -2.3276 -2.0204
  658MOL0     H88825   3.871   6.922   1.794  0.1159 -1.4995 -0.9407
  658MOL0     H88826   4.001   6.925   1.389 -0.3663  0.6688  0.3118
  658MOL0     H88827   4.637   6.828   1.740  1.7424  1.1862 -1.5228
  658MOL0     H88828   4.940   6.738   1.909  0.7977  1.3448  1.5153
  658MOL0     H88829   4.785   6.685   1.833 -0.3451  0.7337 -0.8765
  658MOL0     H88830   4.907   6.783   1.750  1.4382  3.2031  1.7431
  659MOL0     O88831   3.424   7.272   8.565  0.5790 -0.3509 -0.4525
  659MOL0     C88832   3.377   7.241   8.454 -0.7941 -1.2981 -0.1894
  659MOL0     O88833   3.440   7.266   8.334 -0.1592  0.2980  0.7818
  659MOL0     C88834   3.573   7.302   8.325  0.3525  1.5534 -0.2471
  659MOL0     C88835   3.648   7.224   8.234  0.0883 -0.9885  0.6078
  659MOL0     C88836   3.782   7.256   8.203  0.9088 -0.0074  0.9935
  659MOL0     C88837   3.846   7.357   8.272 -0.4242  0.3332 -0.6389
  659MOL0     O88838   3.973   7.391   8.228  0.6067 -0.1164 -0.1404
  659MOL0     C88839   4.018   7.531   8.234 -0.6235  0.1143  0.1799
  659MOL0     C88840   4.165   7.544   8.192 -0.7229 -0.6680 -0.6564
  659MOL0     C88841   4.185   7.576   8.049  1.0296  0.5247  0.7727
  659MOL0     C88842   4.331   7.606   8.013 -0.1696 -0.7190 -0.8555
  659MOL0     C88843   4.341   7.647   7.870  0.5343 -0.0232  0.0203
  659MOL0     C88844   4.483   7.678   7.842 -0.0911 -0.0113  0.2070
  659MOL0     C88845   4.505   7.729   7.704  0.0326 -0.7074 -0.3251
  659MOL0     C88846   4.439   7.867   7.687  0.2542 -0.0321 -1.0464
  659MOL0     N88847   4.505   7.943   7.583 -0.2495 -0.3785  0.9180
  659MOL0     C88848   4.452   7.999   7.462  0.1611 -0.7971 -0.8282
  659MOL0     C88849   4.561   8.064   7.410 -0.1243  0.2744 -0.4377
  659MOL0     C88850   4.546   8.152   7.288 -1.3334  0.2772  0.0498
  659MOL0     C88851   4.638   8.085   7.184 -0.7789  0.0488 -0.0310
  659MOL0     C88852   4.584   7.953   7.114 -1.0363  0.2125  0.6608
  659MOL0     C88853   4.441   7.952   7.061 -1.0326 -0.7066  1.2942
  659MOL0     O88854   4.394   8.078   7.004  0.1071 -0.1747 -0.0533
  659MOL0     C88855   4.253   8.094   7.017 -0.2385  0.0119 -0.0563
  659MOL0     C88856   4.214   8.217   7.067  0.1013  0.2352  0.6788
  659MOL0     C88857   4.078   8.242   7.082 -0.0180 -0.2401 -0.1525
  659MOL0     C88858   3.975   8.157   7.033 -0.5079  0.6753 -0.6443
  659MOL0     C88859   3.838   8.196   7.054 -0.1843 -0.3780  0.8372
  659MOL0     O88860   3.746   8.097   7.027  0.0204  0.3023  0.4260
  659MOL0     C88861   3.611   8.127   7.035  0.2416  0.7711  0.4057
  659MOL0     C88862   3.520   8.061   6.946  0.1705  0.5184  0.4621
  659MOL0     C88863   3.383   8.089   6.948  0.7447  0.5154 -0.3181
  659MOL0     C88864   3.326   8.157   7.062 -0.5138 -0.3935  0.3910
  659MOL0     O88865   3.190   8.163   7.078 -0.8374  0.4132 -0.2752
  659MOL0     C88866   3.111   8.046   7.045 -0.2423  0.1384 -0.2142
  659MOL0     C88867   2.965   8.106   7.026 -0.3076  0.2012 -1.0811
  659MOL0     C88868   2.857   8.001   6.992 -0.6835  0.3490 -0.3572
  659MOL0     C88869   2.768   8.045   6.881  0.1379 -0.1025  0.1736
  659MOL0     C88870   2.670   7.935   6.823  0.0815 -0.3342 -0.4240
  659MOL0     C88871   2.749   7.811   6.763  0.1468 -0.8465  0.2048
  659MOL0     C88872   2.835   7.857   6.657  0.6722  0.3369 -0.1286
  659MOL0     C88873   2.889   7.739   6.576  0.6104 -0.6150 -0.3239
  659MOL0    Cl88874   2.970   7.607   6.678 -0.1818  0.1919 -0.2551
  659MOL0     C88875   3.411   8.209   7.153  0.1608  0.4081 -0.1178
  659MOL0     C88876   3.551   8.198   7.141  0.2310  0.3741  0.4733
  659MOL0     O88877   3.814   8.311   7.098  0.2169 -0.2612 -0.4559
  659MOL0     C88878   4.020   8.031   6.986 -0.4067 -0.0575 -0.5057
  659MOL0     C88879   4.157   7.998   6.985  1.1578  0.3179 -0.3939
  659MOL0     N88880   4.673   8.049   7.491 -0.6985  0.0453 -0.2568
  659MOL0     N88881   4.636   7.972   7.588 -0.5372  1.4034 -1.0920
  659MOL0     C88882   3.781   7.424   8.380 -0.6506  1.1946  0.0979
  659MOL0     C88883   3.645   7.398   8.399  0.4142 -0.4334  0.1402
  659MOL0     C88884   3.235   7.201   8.441  0.2337 -0.4056 -0.2891
  659MOL0     C88885   3.195   7.130   8.322 -0.2348  0.4798  0.4640
  659MOL0     C88886   3.062   7.082   8.302 -0.1026  0.4620 -0.5184
  659MOL0     C88887   2.967   7.120   8.391 -0.4715  0.8898  0.6649
  659MOL0     O88888   2.836   7.095   8.374  0.2179 -0.5326  0.6475
  659MOL0     C88889   2.788   6.984   8.292  0.1487 -0.4252 -0.2042
  659MOL0     C88890   2.766   7.021   8.140 -0.0693  0.0997  0.5994
  659MOL0     C88891   2.649   7.120   8.119 -0.1328  0.5573 -0.0227
  659MOL0     C88892   2.618   7.135   7.963  0.4415 -0.1635  0.4494
  659MOL0     C88893   2.733   7.160   7.873 -0.2660  0.1713 -0.2020
  659MOL0     C88894   2.823   7.190   7.802 -0.3652  0.9945  0.1561
  659MOL0     C88895   3.004   7.181   8.504 -0.0337  0.1523  0.2077
  659MOL0     C88896   3.130   7.223   8.531  0.0390 -0.1599  0.0503
  659MOL0     C88897   3.149   7.299   8.658  0.7290 -0.4819 -0.2706
  659MOL0     H88898   3.590   7.149   8.181 -1.5620 -1.1075  2.4482
  659MOL0     H88899   3.826   7.193   8.126 -1.4452 -0.2858 -0.2255
  659MOL0     H88900   3.954   7.589   8.168  0.3135 -1.4696 -2.2857
  659MOL0     H88901   4.003   7.566   8.336 -0.2105 -2.7525  1.3229
  659MOL0     H88902   4.225   7.457   8.221  2.9389  2.0018  0.5627
  659MOL0     H88903   4.202   7.632   8.246 -1.5455 -0.7744  0.0932
  659MOL0     H88904   4.119   7.661   8.032  1.0981  0.3617 -0.4608
  659MOL0     H88905   4.144   7.495   7.988  0.6618  1.1545  0.1709
  659MOL0     H88906   4.370   7.684   8.078 -0.4685 -1.2903  0.0315
  659MOL0     H88907   4.392   7.519   8.040  1.3025  0.7352  0.7234
  659MOL0     H88908   4.302   7.573   7.800  1.7189 -0.4198 -0.2329
  659MOL0     H88909   4.284   7.740   7.868 -2.1734 -1.5769 -1.9907
  659MOL0     H88910   4.527   7.757   7.903  1.3170 -1.4542  1.1301
  659MOL0     H88911   4.532   7.581   7.852 -1.1066 -0.6608 -0.8178
  659MOL0     H88912   4.456   7.664   7.631  1.0497  2.6053 -4.3307
  659MOL0     H88913   4.613   7.735   7.685  0.0025  2.6730 -0.1034
  659MOL0     H88914   4.330   7.868   7.674  0.4672 -0.5012 -3.1658
  659MOL0     H88915   4.455   7.916   7.784 -2.0885 -1.5604  0.2219
  659MOL0     H88916   4.351   7.994   7.421  0.6625 -2.3521 -1.9513
  659MOL0     H88917   4.442   8.161   7.255 -1.0091  0.0355 -1.0860
  659MOL0     H88918   4.592   8.249   7.309  2.6896 -1.0826 -1.5753
  659MOL0     H88919   4.654   8.158   7.104 -0.8015  2.7719  2.2838
  659MOL0     H88920   4.738   8.073   7.227 -0.0253  1.4205 -1.2890
  659MOL0     H88921   4.600   7.870   7.183 -1.2569  1.2037  1.9381
  659MOL0     H88922   4.650   7.944   7.027 -2.2067 -0.0167 -0.2372
  659MOL0     H88923   4.381   7.918   7.146  1.9060  0.8196  4.1643
  659MOL0     H88924   4.444   7.881   6.977 -0.2325 -1.1765  1.7068
  659MOL0     H88925   4.288   8.293   7.089  0.2149  0.2044  0.3968
  659MOL0     H88926   4.052   8.340   7.119  0.5003 -0.0633 -0.2445
  659MOL0     H88927   3.560   8.009   6.860 -1.7772  2.3647 -1.7119
  659MOL0     H88928   3.316   8.039   6.879  0.1328 -0.3363  0.8683
  659MOL0     H88929   3.131   7.992   6.952 -0.2079 -1.8429  0.8847
  659MOL0     H88930   3.112   7.964   7.117  0.5709  0.6796  0.3994
  659MOL0     H88931   2.953   8.149   7.126 -0.2562 -2.6292  0.2221
  659MOL0     H88932   2.971   8.189   6.955 -0.6944  1.1661 -0.0306
  659MOL0     H88933   2.901   7.903   6.973 -0.4929 -0.4050  3.2545
  659MOL0     H88934   2.793   7.988   7.080 -2.3882 -2.2510 -1.8583
  659MOL0     H88935   2.830   8.078   6.797 -1.0991  2.2684  0.1084
  659MOL0     H88936   2.707   8.130   6.914 -0.2298 -0.2043 -0.2260
  659MOL0     H88937   2.599   7.975   6.750 -2.1359 -1.6390  0.8845
  659MOL0     H88938   2.612   7.893   6.906 -1.1559 -3.1106 -2.5443
  659MOL0     H88939   2.788   7.754   6.848 -0.1450 -1.4500 -0.0575
  659MOL0     H88940   2.674   7.745   6.718  0.4030 -0.1421 -1.3427
  659MOL0     H88941   2.923   7.911   6.694  0.9166  0.2466 -0.5808
  659MOL0     H88942   2.781   7.930   6.596  1.0143 -0.7771 -1.8138
  659MOL0     H88943   2.804   7.693   6.525  0.3808 -1.1017  0.4889
  659MOL0     H88944   2.960   7.774   6.500  1.3123 -1.6113 -0.1393
  659MOL0     H88945   3.370   8.256   7.242 -1.1028  2.1747 -1.5660
  659MOL0     H88946   3.614   8.234   7.222  1.8061 -1.0979 -0.0228
  659MOL0     H88947   3.942   7.958   6.965 -2.2618  1.2270  1.5102
  659MOL0     H88948   4.174   7.895   6.954 -1.0702 -0.2908  0.2028
  659MOL0     H88949   3.832   7.497   8.442  0.5667 -1.0782  1.9208
  659MOL0     H88950   3.581   7.447   8.472  1.8585  2.1806 -0.2556
  659MOL0     H88951   3.272   7.108   8.249  0.4410  0.6441  1.1193
  659MOL0     H88952   3.027   7.045   8.206  0.1234  3.1525 -1.7225
  659MOL0     H88953   2.708   6.935   8.348  1.2791 -1.3685  0.6387
  659MOL0     H88954   2.868   6.911   8.303 -0.1138 -0.6418  0.3079
  659MOL0     H88955   2.753   6.924   8.091  1.1235 -0.9395  2.2036
  659MOL0     H88956   2.854   7.066   8.093 -2.0600  2.7062 -0.9485
  659MOL0     H88957   2.665   7.220   8.160 -0.3849  0.1344  1.1613
  659MOL0     H88958   2.558   7.089   8.172 -1.2844  1.6046 -1.3066
  659MOL0     H88959   2.573   7.042   7.928 -0.2521 -0.5844  2.3145
  659MOL0     H88960   2.546   7.214   7.943 -1.4442 -2.3285 -2.0325
  659MOL0     H88961   2.914   7.220   7.755  0.8642 -1.1952  0.9991
  659MOL0     H88962   2.919   7.195   8.570 -0.8024 -0.4189 -0.6239
  659MOL0     H88963   3.061   7.323   8.720  1.1304  1.1390 -0.2821
  659MOL0     H88964   3.230   7.248   8.710  2.3401 -0.5421 -2.7098
  659MOL0     H88965   3.184   7.401   8.640  0.5645 -0.3818 -0.0396
  660MOL0     O88966   0.604   1.134   1.659 -0.1211 -0.7163 -0.0406
  660MOL0     C88967   0.690   1.221   1.632 -0.4409 -0.5050 -0.2711
  660MOL0     O88968   0.672   1.361   1.636 -0.2779  0.7790  1.1458
  660MOL0     C88969   0.543   1.401   1.673 -0.3633 -0.9949  0.1025
  660MOL0     C88970   0.492   1.365   1.798  0.2644  0.1986 -0.5691
  660MOL0     C88971   0.360   1.405   1.832  0.8514  0.4948 -1.3494
  660MOL0     C88972   0.278   1.471   1.740 -0.2105  0.0590  0.4829
  660MOL0     O88973   0.149   1.517   1.758  0.3048  0.0322  0.3197
  660MOL0     C88974   0.062   1.435   1.833 -0.0711  0.1469 -0.1409
  660MOL0     C88975  -0.058   1.527   1.867  0.3016 -0.2387 -0.4492
  660MOL0     C88976  -0.043   1.633   1.973  0.2331 -0.5394 -0.3785
  660MOL0     C88977  -0.165   1.719   1.967 -0.0343 -0.1935  0.1989
  660MOL0     C88978  -0.171   1.819   2.086 -0.5563 -0.1150  0.0602
  660MOL0     C88979  -0.042   1.910   2.092 -0.1080 -0.2751  0.6944
  660MOL0     C88980  -0.058   2.021   2.198  0.2014  0.3193 -0.3971
  660MOL0     C88981   0.046   2.132   2.191  0.0684  0.4874 -0.0516
  660MOL0     N88982   0.184   2.094   2.212  0.4132 -0.4918 -1.4013
  660MOL0     C88983   0.272   2.027   2.135  0.7861  0.2014 -0.4374
  660MOL0     C88984   0.382   2.007   2.209 -0.7026  0.5123  0.1341
  660MOL0     C88985   0.509   1.940   2.156  0.2092 -0.5026  0.1637
  660MOL0     C88986   0.638   2.022   2.155  0.2198  0.1737 -0.0292
  660MOL0     C88987   0.632   2.127   2.047  0.6101  0.3538  0.0371
  660MOL0     C88988   0.760   2.175   1.985  0.1217 -0.5702  0.6202
  660MOL0     O88989   0.859   2.212   2.076 -0.3209  0.8088 -0.5211
  660MOL0     C88990   0.982   2.255   2.041  0.0112 -0.7243  0.0853
  660MOL0     C88991   1.077   2.248   2.137 -0.7495  1.0806  0.0908
  660MOL0     C88992   1.207   2.281   2.112  0.5031  0.0604  0.0936
  660MOL0     C88993   1.248   2.317   1.987 -1.1587  0.6231  0.4344
  660MOL0     C88994   1.387   2.338   1.954 -0.5904  0.4967 -0.7058
  660MOL0     O88995   1.469   2.349   2.069  0.1127 -0.5309  0.6675
  660MOL0     C88996   1.601   2.311   2.052  0.1286 -0.5891  0.1646
  660MOL0     C88997   1.687   2.391   1.980 -0.0162 -0.3197  0.5050
  660MOL0     C88998   1.821   2.382   1.988  0.5562 -1.1279 -0.1230
  660MOL0     C88999   1.879   2.285   2.076 -0.1830  0.0815  0.3915
  660MOL0     O89000   2.016   2.265   2.100  0.6868 -0.3993 -0.1849
  660MOL0     C89001   2.086   2.385   2.129 -0.1850 -0.3354  0.3811
  660MOL0     C89002   2.231   2.345   2.159  0.2497 -0.2594 -0.4823
  660MOL0     C89003   2.313   2.282   2.038  0.1845  0.4241  0.6115
  660MOL0     C89004   2.446   2.218   2.086  0.4941  0.9743 -0.2620
  660MOL0     C89005   2.526   2.137   1.988 -0.1049  0.4961  0.5748
  660MOL0     C89006   2.443   2.023   1.927 -0.0284 -0.3062 -0.8429
  660MOL0     C89007   2.378   1.921   2.021 -0.7815  0.0019 -0.2136
  660MOL0     C89008   2.331   1.804   1.938 -0.1228 -0.3976  0.3480
  660MOL0    Cl89009   2.259   1.674   2.042 -0.1357 -0.1098  0.3072
  660MOL0     C89010   1.798   2.194   2.139 -0.0017  0.8792  0.7352
  660MOL0     C89011   1.657   2.209   2.124  0.2439 -0.1558  0.1681
  660MOL0     O89012   1.429   2.329   1.839 -0.6847  0.9478 -0.5481
  660MOL0     C89013   1.148   2.323   1.885  0.2836 -0.4700 -0.8116
  660MOL0     C89014   1.009   2.306   1.912  1.0568  1.4364  0.1895
  660MOL0     N89015   0.351   2.052   2.337  0.0610  0.6184 -0.6125
  660MOL0     N89016   0.237   2.109   2.340  0.1073  0.5597 -0.4006
  660MOL0     C89017   0.339   1.505   1.618 -0.9448 -0.2467  0.3235
  660MOL0     C89018   0.467   1.462   1.579 -0.5299 -0.4539  0.4007
  660MOL0     C89019   0.832   1.171   1.604  0.8486  0.1631 -0.2774
  660MOL0     C89020   0.873   1.042   1.650  0.7763 -0.3334 -0.7279
  660MOL0     C89021   1.007   0.997   1.642  0.6009 -0.5054 -0.3496
  660MOL0     C89022   1.103   1.070   1.571  0.0240  0.1660  0.7098
  660MOL0     O89023   1.230   1.012   1.566 -0.7057 -0.7009  0.1808
  660MOL0     C89024   1.352   1.095   1.532  0.3748  0.3569  0.4824
  660MOL0     C89025   1.468   1.011   1.475 -0.0156 -1.2633  0.3722
  660MOL0     C89026   1.477   0.876   1.542  0.3842  0.2830  0.4376
  660MOL0     C89027   1.556   0.787   1.442  0.0474 -0.6612  0.3833
  660MOL0     C89028   1.695   0.832   1.419  0.6461 -0.3736 -0.4970
  660MOL0     C89029   1.814   0.857   1.428 -0.7463  0.4988 -0.4159
  660MOL0     C89030   1.062   1.191   1.509  0.4401  0.0458  0.1734
  660MOL0     C89031   0.927   1.238   1.521  0.3353  0.8647 -0.1003
  660MOL0     C89032   0.898   1.360   1.442 -1.1656  0.8600  0.0753
  660MOL0     H89033   0.546   1.314   1.878  0.1946  3.8536  2.0500
  660MOL0     H89034   0.325   1.377   1.930  2.2544 -0.2103 -1.0153
  660MOL0     H89035   0.045   1.347   1.771  1.4238  1.0806 -2.0205
  660MOL0     H89036   0.102   1.401   1.928  1.6099  0.7978 -0.5718
  660MOL0     H89037  -0.139   1.461   1.901 -0.0702  1.3244  1.9544
  660MOL0     H89038  -0.090   1.566   1.770 -0.0784 -2.3872 -1.2465
  660MOL0     H89039   0.052   1.684   1.953  1.2825 -1.7218  1.4181
  660MOL0     H89040  -0.034   1.592   2.074 -0.4633 -0.1467 -0.1467
  660MOL0     H89041  -0.163   1.771   1.871 -1.0243 -0.8467 -0.1969
  660MOL0     H89042  -0.253   1.654   1.968 -1.0448  1.1147 -0.6462
  660MOL0     H89043  -0.258   1.886   2.085 -1.2570 -1.0018  0.3988
  660MOL0     H89044  -0.192   1.774   2.184  0.5440 -1.0263 -0.1091
  660MOL0     H89045   0.056   1.863   2.105 -0.3560 -0.4941  1.8578
  660MOL0     H89046  -0.037   1.955   1.993  1.1405  0.8851  1.2591
  660MOL0     H89047  -0.067   1.973   2.296  1.6295  0.5770 -0.1205
  660MOL0     H89048  -0.150   2.079   2.184 -0.4825 -0.7541 -0.4829
  660MOL0     H89049   0.034   2.179   2.093 -1.3277 -1.1907 -0.7487
  660MOL0     H89050   0.018   2.209   2.263 -0.9779 -1.1527  1.3834
  660MOL0     H89051   0.244   1.995   2.035 -0.1668 -0.2338 -0.0392
  660MOL0     H89052   0.534   1.856   2.222  1.9772  1.1980  1.8125
  660MOL0     H89053   0.495   1.890   2.060  1.9459 -0.5341 -0.1075
  660MOL0     H89054   0.638   2.075   2.251 -1.8778  1.3239 -0.5987
  660MOL0     H89055   0.722   1.957   2.129 -2.2461 -2.2544 -2.4920
  660MOL0     H89056   0.573   2.212   2.083  0.5826  0.7854 -0.9873
  660MOL0     H89057   0.580   2.081   1.962  3.2030 -1.0239 -0.8969
  660MOL0     H89058   0.731   2.254   1.915  0.6469 -1.5868 -0.7864
  660MOL0     H89059   0.791   2.091   1.922 -2.0108  0.9932 -2.8026
  660MOL0     H89060   1.051   2.210   2.236 -0.3112  2.9781  0.9729
  660MOL0     H89061   1.274   2.276   2.197 -1.0801  1.4982  1.4881
  660MOL0     H89062   1.635   2.473   1.931 -0.1942  0.6767  2.2824
  660MOL0     H89063   1.884   2.436   1.918  0.8611 -2.0678 -0.5947
  660MOL0     H89064   2.080   2.464   2.053  0.4733  0.1890  0.8570
  660MOL0     H89065   2.051   2.422   2.226 -0.8655 -1.6895  0.6683
  660MOL0     H89066   2.276   2.438   2.193  2.8880 -1.7101  0.2088
  660MOL0     H89067   2.225   2.285   2.250 -0.6352  2.4901  1.3807
  660MOL0     H89068   2.252   2.198   2.002  1.0431 -0.5233  1.3042
  660MOL0     H89069   2.325   2.359   1.961 -1.7893 -1.3599 -1.6387
  660MOL0     H89070   2.420   2.161   2.176 -1.6570  2.3992  0.0985
  660MOL0     H89071   2.502   2.301   2.128  0.8203 -0.6541  2.8227
  660MOL0     H89072   2.614   2.096   2.038 -0.5424 -0.9106  0.2290
  660MOL0     H89073   2.564   2.197   1.904 -3.6122 -0.7374 -2.1500
  660MOL0     H89074   2.361   2.068   1.871  1.3753  0.9489 -2.0127
  660MOL0     H89075   2.514   1.974   1.859 -0.2913  0.9006 -2.0325
  660MOL0     H89076   2.297   1.967   2.079 -0.0942  0.4530  0.3912
  660MOL0     H89077   2.444   1.889   2.101 -1.5838  0.3106  0.5889
  660MOL0     H89078   2.257   1.841   1.866 -1.3285  0.3809  1.9230
  660MOL0     H89079   2.427   1.782   1.890  1.8724  2.2656  2.7937
  660MOL0     H89080   1.840   2.111   2.194 -0.0396 -0.7828 -1.5862
  660MOL0     H89081   1.598   2.139   2.181  1.8333 -0.3800  1.6384
  660MOL0     H89082   1.179   2.361   1.788  1.4649 -1.6195 -0.9164
  660MOL0     H89083   0.929   2.324   1.841  0.7412 -1.1489 -0.2253
  660MOL0     H89084   0.272   1.548   1.544  0.0404 -1.9063 -1.6093
  660MOL0     H89085   0.515   1.489   1.485  0.9347  0.6865  1.4347
  660MOL0     H89086   0.799   0.989   1.709 -0.5919  2.3406  0.1247
  660MOL0     H89087   1.027   0.897   1.679  0.1894 -0.5876 -0.3530
  660MOL0     H89088   1.389   1.133   1.627 -1.4679 -0.1784  1.4604
  660MOL0     H89089   1.318   1.184   1.476 -1.6273  0.3986  1.6678
  660MOL0     H89090   1.562   1.066   1.481 -1.0719  0.8150 -0.9164
  660MOL0     H89091   1.457   1.002   1.367  1.1503  1.9363 -0.1199
  660MOL0     H89092   1.378   0.835   1.564 -0.8231  2.8212  0.0660
  660MOL0     H89093   1.527   0.872   1.639 -0.0736 -1.1067  0.6370
  660MOL0     H89094   1.556   0.688   1.489 -1.0450 -0.3923  0.9937
  660MOL0     H89095   1.496   0.767   1.352 -1.1090 -0.4897  1.0867
  660MOL0     H89096   1.917   0.885   1.423 -0.7715  1.3272  2.3556
  660MOL0     H89097   1.127   1.255   1.450 -1.7803  0.7747 -1.6051
  660MOL0     H89098   0.946   1.366   1.344 -0.2904  0.4031  0.4667
  660MOL0     H89099   0.791   1.371   1.423 -0.9849  1.1466 -0.8266
  660MOL0     H89100   0.925   1.450   1.499 -1.8488  0.6780  0.7138
  661MOL0     O89101  10.355   8.287   6.645  0.1211 -0.5686 -0.1320
  661MOL0     C89102  10.274   8.197   6.618 -1.1053 -0.1762  0.6232
  661MOL0     O89103  10.313   8.081   6.558  0.4345 -0.2368  0.0896
  661MOL0     C89104  10.441   8.089   6.503  0.1075 -0.2732  0.7701
  661MOL0     C89105  10.458   8.121   6.368 -0.5405  0.0769  0.4384
  661MOL0     C89106  10.582   8.131   6.307  0.7362 -0.3799  0.0216
  661MOL0     C89107  10.702   8.103   6.376 -0.4132  0.5208  0.7145
  661MOL0     O89108  10.821   8.104   6.306 -0.2864  0.4426 -0.3003
  661MOL0     C89109  10.938   8.107   6.390  0.4239 -0.7167  0.0724
  661MOL0     C89110  11.060   8.126   6.309 -0.5042  0.4957  0.6738
  661MOL0     C89111  11.180   8.174   6.392 -0.3644 -0.4811  0.1871
  661MOL0     C89112  11.296   8.208   6.308 -0.0556  0.0803  0.1588
  661MOL0     C89113  11.396   8.273   6.404  0.9013  0.2936  0.4660
  661MOL0     C89114  11.525   8.294   6.336  0.4532  0.7710 -0.8353
  661MOL0     C89115  11.597   8.398   6.422 -0.2673  0.4144 -0.0421
  661MOL0     C89116  11.716   8.450   6.345  0.1589  0.2058 -0.2292
  661MOL0     N89117  11.809   8.333   6.348  0.2547  0.0358  0.1355
  661MOL0     C89118  11.822   8.256   6.240 -0.1795 -0.5583 -0.4023
  661MOL0     C89119  11.915   8.167   6.276  0.0887 -0.6235 -0.0217
  661MOL0     C89120  11.955   8.051   6.192  0.1172 -0.3853 -0.6971
  661MOL0     C89121  12.092   8.070   6.127 -0.4465  0.3676  0.8603
  661MOL0     C89122  12.113   7.958   6.021  0.0673 -0.0647 -0.6954
  661MOL0     C89123  12.259   7.980   5.971 -0.8833  0.4065  1.1163
  661MOL0     O89124  12.276   8.090   5.879 -0.2924 -0.8267  0.4685
  661MOL0     C89125  12.398   8.085   5.811  0.2241 -0.3744 -0.2192
  661MOL0     C89126  12.409   8.163   5.701 -0.6424 -0.1438 -0.5438
  661MOL0     C89127  12.520   8.165   5.612 -0.2351  0.1140 -0.6460
  661MOL0     C89128  12.633   8.091   5.646 -0.3871  0.3623 -0.9256
  661MOL0     C89129  12.753   8.095   5.570  0.1017 -0.6332  0.2467
  661MOL0     O89130  12.867   8.080   5.642  0.7185  0.2456  0.6262
  661MOL0     C89131  12.995   8.092   5.597 -0.6315  0.1761  0.5576
  661MOL0     C89132  13.095   8.149   5.691  0.9676  0.9790 -0.2726
  661MOL0     C89133  13.225   8.173   5.644  0.1587  0.0204 -0.4297
  661MOL0     C89134  13.263   8.139   5.512 -0.4132  0.2286 -0.4521
  661MOL0     O89135  13.389   8.178   5.473  0.8370  0.0690  0.2757
  661MOL0     C89136  13.418   8.192   5.333 -0.4728  0.8860  0.8575
  661MOL0     C89137  13.535   8.301   5.319  0.1555  0.4932  0.0664
  661MOL0     C89138  13.500   8.439   5.390 -0.1997 -0.1329 -1.8369
  661MOL0     C89139  13.581   8.564   5.353  0.3245 -0.6101  0.1400
  661MOL0     C89140  13.719   8.578   5.421  0.0672  0.5258 -0.3601
  661MOL0     C89141  13.830   8.520   5.338 -1.0184  0.0561 -0.7543
  661MOL0     C89142  13.970   8.557   5.386 -0.7072  0.6508  0.3956
  661MOL0     C89143  14.088   8.516   5.296 -0.2027  0.1694  0.0528
  661MOL0    Cl89144  14.247   8.549   5.375 -0.3367  0.4007  0.3646
  661MOL0     C89145  13.168   8.084   5.422 -0.5314  0.7696  0.0136
  661MOL0     C89146  13.040   8.055   5.468 -0.1768 -0.6553 -0.2933
  661MOL0     O89147  12.747   8.129   5.448 -0.5928  0.0156 -0.4856
  661MOL0     C89148  12.626   8.016   5.765 -0.0989  0.5706 -0.5230
  661MOL0     C89149  12.511   8.012   5.848  0.1205 -0.2330  0.2320
  661MOL0     N89150  11.961   8.204   6.402  0.1198 -0.2992  0.8021
  661MOL0     N89151  11.897   8.300   6.442 -0.2337  0.2459 -0.2143
  661MOL0     C89152  10.689   8.075   6.513  0.7416 -0.4612  0.4670
  661MOL0     C89153  10.558   8.061   6.575 -0.2285 -0.0426 -0.1056
  661MOL0     C89154  10.141   8.208   6.682  0.4309 -0.5820  0.6143
  661MOL0     C89155  10.100   8.339   6.717 -0.2047 -0.6645  0.3977
  661MOL0     C89156   9.987   8.358   6.792 -0.5647 -0.5084  0.1494
  661MOL0     C89157   9.923   8.252   6.841  0.7630  1.1428 -1.3513
  661MOL0     O89158   9.800   8.255   6.908 -0.4790 -0.1552  0.1323
  661MOL0     C89159   9.764   8.381   6.959  1.0684  0.0998  0.0213
  661MOL0     C89160   9.624   8.364   7.028 -0.3214  0.1430 -0.3540
  661MOL0     C89161   9.510   8.330   6.930 -0.3305 -0.2218 -0.9837
  661MOL0     C89162   9.383   8.317   7.013  0.5241  0.5043 -0.4280
  661MOL0     C89163   9.263   8.301   6.937  0.4015 -1.0620  0.2582
  661MOL0     C89164   9.164   8.298   6.869 -0.2517 -0.6897  1.3397
  661MOL0     C89165   9.950   8.123   6.793  0.1841  0.0821  0.8141
  661MOL0     C89166  10.057   8.097   6.710  0.1379 -0.4600  0.1510
  661MOL0     C89167  10.079   7.952   6.660 -0.7359 -0.1259  0.6655
  661MOL0     H89168  10.367   8.128   6.310 -0.3614 -1.4833 -0.0931
  661MOL0     H89169  10.563   8.167   6.206 -1.9417  0.2527  0.6708
  661MOL0     H89170  10.933   8.198   6.450  1.0165 -1.0115  0.5812
  661MOL0     H89171  10.951   8.023   6.458 -2.6332 -0.8137  0.6943
  661MOL0     H89172  11.049   8.197   6.227 -1.6901  1.8605  1.9394
  661MOL0     H89173  11.080   8.029   6.262 -0.3034  2.2078 -3.1215
  661MOL0     H89174  11.213   8.090   6.453 -3.9196 -1.2638  1.2121
  661MOL0     H89175  11.160   8.254   6.464  3.2671 -0.3428  1.2492
  661MOL0     H89176  11.337   8.118   6.261 -1.3743  0.6925 -2.3668
  661MOL0     H89177  11.270   8.280   6.230  2.0673 -2.2179 -2.9098
  661MOL0     H89178  11.340   8.363   6.428  0.9407  0.7212 -0.9356
  661MOL0     H89179  11.415   8.213   6.493  0.2724 -1.8098 -0.7623
  661MOL0     H89180  11.571   8.195   6.335 -4.1913 -1.8445  2.4915
  661MOL0     H89181  11.505   8.325   6.233 -1.4542 -0.3958 -0.8646
  661MOL0     H89182  11.617   8.358   6.522  2.9384  0.9782 -0.3244
  661MOL0     H89183  11.535   8.487   6.435 -1.0792  0.1026 -1.6078
  661MOL0     H89184  11.692   8.484   6.244  1.0579 -1.1260 -0.9293
  661MOL0     H89185  11.757   8.537   6.396  2.9285  0.8551 -3.2268
  661MOL0     H89186  11.767   8.267   6.147 -0.2682  2.2135 -0.1088
  661MOL0     H89187  11.951   7.957   6.247  0.9294 -0.4195 -0.6886
  661MOL0     H89188  11.880   8.039   6.113 -0.0989  0.0082 -0.5539
  661MOL0     H89189  12.090   8.158   6.063  0.5079  0.1215  0.4748
  661MOL0     H89190  12.179   8.071   6.194  0.0897  0.5043  0.1679
  661MOL0     H89191  12.034   7.958   5.945 -0.5429 -0.5995 -0.0763
  661MOL0     H89192  12.104   7.860   6.069 -0.0023  1.3134  2.3358
  661MOL0     H89193  12.289   7.886   5.923 -2.9572  0.1433  0.2367
  661MOL0     H89194  12.326   7.988   6.057 -0.3866 -0.4083  0.8216
  661MOL0     H89195  12.337   8.245   5.704 -0.6118 -0.1445  0.9687
  661MOL0     H89196  12.520   8.223   5.521 -0.1349 -1.4186 -1.6663
  661MOL0     H89197  13.069   8.170   5.794 -0.0978 -3.3554  0.5227
  661MOL0     H89198  13.300   8.204   5.716 -0.8522 -0.2097  0.7575
  661MOL0     H89199  13.459   8.100   5.292  0.5510  0.7128  2.2330
  661MOL0     H89200  13.332   8.214   5.268 -0.3535 -2.3248 -0.5800
  661MOL0     H89201  13.627   8.265   5.366 -2.5400 -3.9123  2.6082
  661MOL0     H89202  13.548   8.321   5.212 -3.0035 -0.6123 -0.6195
  661MOL0     H89203  13.394   8.451   5.369 -0.9574 -0.2179  1.4381
  661MOL0     H89204  13.513   8.420   5.497 -1.1643  0.5287 -1.5935
  661MOL0     H89205  13.516   8.643   5.391  0.7833 -0.8628  1.5139
  661MOL0     H89206  13.596   8.567   5.245  0.0870 -1.4120  0.0837
  661MOL0     H89207  13.730   8.534   5.521  4.5811  2.2412  0.1130
  661MOL0     H89208  13.742   8.685   5.430 -1.4515  0.7693  1.1931
  661MOL0     H89209  13.820   8.411   5.344 -0.0685 -0.0376 -0.7042
  661MOL0     H89210  13.824   8.564   5.238  2.7558  1.7982 -0.4022
  661MOL0     H89211  13.985   8.515   5.486 -1.5869  1.7761  1.0149
  661MOL0     H89212  13.981   8.664   5.403 -0.6832  1.0985 -2.0200
  661MOL0     H89213  14.093   8.408   5.282 -0.5667 -0.1728  2.1656
  661MOL0     H89214  14.078   8.571   5.202  3.8482  1.4763  0.2098
  661MOL0     H89215  13.207   8.066   5.322 -0.3027 -1.6128  0.4709
  661MOL0     H89216  12.972   8.016   5.393 -2.3329 -0.2099  1.3386
  661MOL0     H89217  12.704   7.945   5.791  0.1328  0.6943 -0.8791
  661MOL0     H89218  12.505   7.952   5.939 -1.9095 -3.1825 -1.6734
  661MOL0     H89219  10.774   8.070   6.579  0.9660  0.6081  0.2718
  661MOL0     H89220  10.550   8.034   6.680  0.0033 -2.6749 -0.7000
  661MOL0     H89221  10.152   8.429   6.686  2.5009 -1.1216  3.1275
  661MOL0     H89222   9.952   8.458   6.814  0.7929  0.5194 -2.0748
  661MOL0     H89223   9.760   8.454   6.878 -2.2610 -1.3142 -1.2653
  661MOL0     H89224   9.838   8.419   7.030 -0.0219  1.6556  0.3507
  661MOL0     H89225   9.605   8.459   7.077 -1.7662 -1.4894  2.4759
  661MOL0     H89226   9.624   8.293   7.111  0.2045 -0.4063 -0.8141
  661MOL0     H89227   9.540   8.238   6.878  0.9627 -0.7330  0.5724
  661MOL0     H89228   9.489   8.412   6.861  0.5395  0.7655 -0.0989
  661MOL0     H89229   9.398   8.230   7.077 -0.4129  1.1895  0.7651
  661MOL0     H89230   9.374   8.401   7.082 -1.1606  0.0251 -0.0202
  661MOL0     H89231   9.074   8.294   6.811 -0.2685  1.8639  1.0837
  661MOL0     H89232   9.879   8.043   6.808 -1.8409  0.9431 -2.7310
  661MOL0     H89233  10.100   7.951   6.552 -2.5820 -1.9581  0.2687
  661MOL0     H89234  10.152   7.891   6.713  0.8093  0.2073 -0.9747
  661MOL0     H89235   9.985   7.898   6.668 -0.0148 -1.5992 -0.3768
  662MOL0     O89236   7.944   7.616   9.873 -0.0931  0.2018 -0.5131
  662MOL0     C89237   7.929   7.547   9.971 -0.2701 -0.3151 -0.0415
  662MOL0     O89238   8.004   7.449  10.006  0.4333  0.8844  0.5835
  662MOL0     C89239   8.130   7.445   9.954  0.6341  0.0940  0.5185
  662MOL0     C89240   8.244   7.495  10.023 -0.3369  1.3998 -0.2348
  662MOL0     C89241   8.367   7.493   9.961  0.0601  0.0283 -0.2322
  662MOL0     C89242   8.382   7.449   9.830 -0.0522  0.2323 -0.7712
  662MOL0     O89243   8.511   7.467   9.784  0.0307  0.0570 -0.7332
  662MOL0     C89244   8.541   7.405   9.657 -0.3502 -0.7770  0.0501
  662MOL0     C89245   8.674   7.442   9.602  0.4821  0.4875 -0.0061
  662MOL0     C89246   8.701   7.597   9.577  0.8321 -0.3202 -0.1133
  662MOL0     C89247   8.846   7.615   9.539 -0.2944  0.6347 -0.3020
  662MOL0     C89248   8.895   7.755   9.526 -0.4104 -0.0372 -0.0716
  662MOL0     C89249   9.043   7.780   9.509 -0.0231 -0.0843 -0.4253
  662MOL0     C89250   9.133   7.744   9.628 -0.0311 -0.5469  0.2449
  662MOL0     C89251   9.277   7.755   9.590  0.0743  0.0304 -0.1045
  662MOL0     N89252   9.305   7.894   9.573 -0.9340  0.5400  0.3148
  662MOL0     C89253   9.354   7.949   9.457 -0.0248  0.6771 -0.2737
  662MOL0     C89254   9.389   8.072   9.491 -0.6146 -0.6168  0.0491
  662MOL0     C89255   9.478   8.167   9.399 -0.0454  0.6236 -0.7633
  662MOL0     C89256   9.618   8.109   9.378  0.4473 -0.5436  0.2861
  662MOL0     C89257   9.693   8.207   9.289  1.2045  0.1176  0.0984
  662MOL0     C89258   9.841   8.178   9.300 -0.8321 -0.6218 -0.0698
  662MOL0     O89259   9.899   8.266   9.404  1.0322  0.4888 -0.1641
  662MOL0     C89260  10.027   8.300   9.405 -0.5407 -0.0602 -0.0441
  662MOL0     C89261  10.130   8.206   9.412  0.2651 -0.4732 -0.2024
  662MOL0     C89262  10.259   8.249   9.420 -0.3301  0.1497 -0.2077
  662MOL0     C89263  10.289   8.385   9.434  0.0174 -0.0152 -1.1860
  662MOL0     C89264  10.425   8.432   9.448 -0.9271 -0.8614 -1.1773
  662MOL0     O89265  10.533   8.343   9.451 -0.8167  0.1599 -0.1510
  662MOL0     C89266  10.659   8.383   9.459  0.1460  0.1333  0.1096
  662MOL0     C89267  10.708   8.499   9.519 -0.2195 -0.2010 -0.2553
  662MOL0     C89268  10.849   8.516   9.530  0.3544  0.5547  0.1684
  662MOL0     C89269  10.941   8.428   9.479  0.3903 -0.6776 -0.2115
  662MOL0     O89270  11.078   8.431   9.489  0.1445  0.4303  0.3847
  662MOL0     C89271  11.138   8.553   9.545  0.0659  0.3778  0.1601
  662MOL0     C89272  11.287   8.535   9.546  0.1449 -0.3437 -0.4423
  662MOL0     C89273  11.327   8.434   9.654 -0.3139  0.0489  0.5161
  662MOL0     C89274  11.473   8.443   9.682 -0.6656  0.0924  0.2116
  662MOL0     C89275  11.515   8.558   9.775 -1.3337  0.0837  0.2225
  662MOL0     C89276  11.664   8.553   9.819  0.0113  0.7672  0.0098
  662MOL0     C89277  11.764   8.553   9.702  0.0208 -0.4207 -0.4018
  662MOL0     C89278  11.899   8.621   9.747 -0.0549  0.2040 -0.1286
  662MOL0    Cl89279  12.026   8.629   9.614  0.0996 -0.2114  0.0013
  662MOL0     C89280  10.884   8.318   9.418 -0.1261  0.6314 -0.3130
  662MOL0     C89281  10.751   8.298   9.398  0.2386 -0.3219  0.2009
  662MOL0     O89282  10.438   8.555   9.450  0.3782 -0.4512 -0.4593
  662MOL0     C89283  10.180   8.478   9.416 -0.0596  0.6725 -0.4444
  662MOL0     C89284  10.053   8.438   9.408 -0.8983  0.6944  0.1365
  662MOL0     N89285   9.350   8.097   9.620  0.4538 -0.1945  0.2315
  662MOL0     N89286   9.299   7.988   9.669 -0.3266  0.5738  0.4368
  662MOL0     C89287   8.270   7.382   9.766 -0.1557 -0.5591  0.0151
  662MOL0     C89288   8.151   7.381   9.831 -0.4412 -0.2481  0.5032
  662MOL0     C89289   7.788   7.559  10.028  0.7830  0.0147  0.0243
  662MOL0     C89290   7.741   7.450  10.106 -0.4874  0.6551 -0.3103
  662MOL0     C89291   7.615   7.446  10.155  0.8469  0.3530  0.3214
  662MOL0     C89292   7.516   7.544  10.128  0.1466  0.0706 -0.3170
  662MOL0     O89293   7.384   7.515  10.187  0.1577 -0.5706  0.0626
  662MOL0     C89294   7.278   7.607  10.168 -0.1465 -0.7482 -0.3147
  662MOL0     C89295   7.164   7.533  10.091  0.4134 -0.7911  1.0553
  662MOL0     C89296   7.037   7.627  10.081 -0.0727  0.0527 -0.7776
  662MOL0     C89297   6.913   7.553  10.015  0.6871  0.0140 -0.3028
  662MOL0     C89298   6.868   7.456  10.118  0.2731  0.1222  0.3712
  662MOL0     C89299   6.828   7.384  10.207  0.2283  0.0893 -0.5160
  662MOL0     C89300   7.561   7.649  10.048 -0.3972  0.4428 -0.2431
  662MOL0     C89301   7.697   7.657   9.994 -0.3497 -0.6516  0.3185
  662MOL0     C89302   7.721   7.797   9.934 -0.5210 -0.3391  0.7164
  662MOL0     H89303   8.240   7.540  10.122  1.5000  1.7931 -0.2918
  662MOL0     H89304   8.451   7.544  10.007  1.5665 -0.9655 -1.8094
  662MOL0     H89305   8.540   7.298   9.681 -0.3851 -0.8050 -0.0742
  662MOL0     H89306   8.461   7.428   9.586  0.7443  0.6668 -0.7736
  662MOL0     H89307   8.683   7.397   9.503 -0.8002  0.3746 -0.0854
  662MOL0     H89308   8.741   7.400   9.677  1.5154  2.6998  0.4121
  662MOL0     H89309   8.671   7.648   9.669 -0.0739 -3.2704  1.3767
  662MOL0     H89310   8.642   7.638   9.494  2.3502  0.1773 -0.9780
  662MOL0     H89311   8.893   7.574   9.628 -0.4668  0.0174 -0.4892
  662MOL0     H89312   8.850   7.559   9.445 -1.5897 -1.5715  0.8677
  662MOL0     H89313   8.837   7.804   9.447 -1.3037 -0.4261  0.3276
  662MOL0     H89314   8.870   7.823   9.608 -0.8710 -0.6189  0.2723
  662MOL0     H89315   9.072   7.724   9.419  0.7700  2.5392 -1.8969
  662MOL0     H89316   9.054   7.888   9.497 -1.2129  0.2281  1.0314
  662MOL0     H89317   9.121   7.643   9.668 -1.1298  0.3570  2.3777
  662MOL0     H89318   9.109   7.810   9.712 -0.2301 -2.0234  1.4033
  662MOL0     H89319   9.338   7.725   9.676 -1.7555  2.3886  2.1985
  662MOL0     H89320   9.302   7.708   9.495 -0.5143  1.1928 -0.8534
  662MOL0     H89321   9.358   7.910   9.355  0.2349  1.2311 -0.4831
  662MOL0     H89322   9.430   8.189   9.303 -1.5984 -0.2393 -0.2346
  662MOL0     H89323   9.483   8.266   9.445  0.7527  0.0602  0.3960
  662MOL0     H89324   9.668   8.123   9.475 -0.3015 -0.9015  0.7307
  662MOL0     H89325   9.615   8.004   9.349 -4.6235 -0.7175  0.4972
  662MOL0     H89326   9.672   8.313   9.303 -0.0693  0.3044 -2.5099
  662MOL0     H89327   9.659   8.197   9.185 -1.0876  1.4737  0.6500
  662MOL0     H89328   9.892   8.197   9.205  0.3000  0.3691  0.6997
  662MOL0     H89329   9.857   8.073   9.325  0.9808 -0.5223 -0.6704
  662MOL0     H89330  10.096   8.104   9.420 -1.6599  0.0240 -1.1710
  662MOL0     H89331  10.344   8.182   9.416 -0.7997 -0.4332 -0.5655
  662MOL0     H89332  10.642   8.567   9.571 -0.0666  0.5397 -1.0267
  662MOL0     H89333  10.885   8.603   9.585  0.2200  0.9399 -0.3397
  662MOL0     H89334  11.123   8.645   9.488 -1.0168 -0.6846 -1.3399
  662MOL0     H89335  11.112   8.570   9.650 -0.5813  0.9672 -0.0882
  662MOL0     H89336  11.310   8.516   9.441  3.1587  2.1902 -0.4258
  662MOL0     H89337  11.324   8.636   9.566 -0.1103 -0.2959 -0.1999
  662MOL0     H89338  11.273   8.438   9.749  0.1128 -2.2365  0.9213
  662MOL0     H89339  11.308   8.334   9.613  0.5038 -0.2613  0.8578
  662MOL0     H89340  11.527   8.439   9.587  0.8567 -0.1217  1.0640
  662MOL0     H89341  11.506   8.355   9.738  2.8123  1.0191 -0.1727
  662MOL0     H89342  11.469   8.557   9.875  0.9995  4.4054  1.5960
  662MOL0     H89343  11.488   8.653   9.729 -2.1927 -0.2015  0.1233
  662MOL0     H89344  11.683   8.641   9.881 -0.7428  0.1528  1.1538
  662MOL0     H89345  11.677   8.464   9.883 -0.1224 -0.7891 -2.0191
  662MOL0     H89346  11.720   8.602   9.614  0.0119  1.2364  0.4868
  662MOL0     H89347  11.782   8.454   9.659 -0.8710 -0.0740 -1.6491
  662MOL0     H89348  11.892   8.725   9.779  1.5502  0.0645  0.7582
  662MOL0     H89349  11.941   8.573   9.836  0.8581  1.2894  0.0391
  662MOL0     H89350  10.959   8.243   9.395  0.1062  0.6056  0.4702
  662MOL0     H89351  10.710   8.213   9.344 -1.6135 -0.6664  2.0514
  662MOL0     H89352  10.196   8.584   9.404  1.0586  0.9790  2.7358
  662MOL0     H89353   9.977   8.511   9.383 -0.6566  2.0243  2.9061
  662MOL0     H89354   8.270   7.335   9.668  1.3759  2.6945 -1.7241
  662MOL0     H89355   8.073   7.334   9.771  1.7172 -1.5315 -1.4758
  662MOL0     H89356   7.808   7.369  10.134 -1.2866  0.0788 -0.0154
  662MOL0     H89357   7.595   7.353  10.207  0.8354 -1.0458 -2.0442
  662MOL0     H89358   7.311   7.706  10.135  0.1603 -0.2585  1.3484
  662MOL0     H89359   7.238   7.618  10.269 -0.1197 -0.0489 -0.3799
  662MOL0     H89360   7.142   7.442  10.148  0.6928 -1.4037  0.1962
  662MOL0     H89361   7.193   7.504   9.990 -1.2212  0.7164  0.0725
  662MOL0     H89362   7.058   7.720  10.028 -1.9669  1.1704  0.3111
  662MOL0     H89363   6.995   7.655  10.178 -1.3131 -0.0277 -1.2697
  662MOL0     H89364   6.833   7.626   9.999 -1.2227 -1.4656  1.7160
  662MOL0     H89365   6.940   7.497   9.925 -1.5416  2.2858 -2.5746
  662MOL0     H89366   6.801   7.330  10.295  1.3610  0.7897  0.2964
  662MOL0     H89367   7.507   7.741  10.027  0.0363  0.7553  0.0088
  662MOL0     H89368   7.824   7.819   9.965 -1.2562  1.1066  2.2902
  662MOL0     H89369   7.721   7.793   9.825 -1.1587  3.1490  0.4817
  662MOL0     H89370   7.661   7.884   9.963  1.1374  1.5429 -1.2039
  663MOL0     O89371   5.673   7.919  10.479  0.2296 -0.4824 -0.3584
  663MOL0     C89372   5.658   7.914  10.359 -0.0118 -0.3519 -0.4486
  663MOL0     O89373   5.751   7.864  10.264  0.3084 -0.6730 -0.2886
  663MOL0     C89374   5.858   7.808  10.329 -0.5829 -0.1032  0.2079
  663MOL0     C89375   5.984   7.873  10.354 -1.0815  0.4031  0.5884
  663MOL0     C89376   6.087   7.809  10.418  0.3355  0.2076  0.2698
  663MOL0     C89377   6.070   7.679  10.478 -0.2047  0.1217 -0.9955
  663MOL0     O89378   6.167   7.610  10.542  0.1050 -0.0866 -0.3906
  663MOL0     C89379   6.133   7.541  10.660 -0.0694  0.3737  0.2327
  663MOL0     C89380   6.259   7.517  10.751 -0.1070  0.3620  0.7389
  663MOL0     C89381   6.297   7.641  10.835 -0.7540  0.3954 -0.3624
  663MOL0     C89382   6.412   7.600  10.938  0.7702 -0.5479 -0.3613
  663MOL0     C89383   6.428   7.712  11.050  0.2853 -0.2003 -0.4947
  663MOL0     C89384   6.308   7.755  11.126  0.6623 -0.1784 -0.1493
  663MOL0     C89385   6.326   7.862  11.235  0.3772  0.6515  0.7171
  663MOL0     C89386   6.194   7.895  11.305 -0.1651 -0.6376 -0.0584
  663MOL0     N89387   6.213   8.029  11.360  0.5027  0.0863 -0.2791
  663MOL0     C89388   6.139   8.144  11.332  1.4973  0.2482 -0.4144
  663MOL0     C89389   6.196   8.239  11.408 -0.4526  0.2747 -0.1266
  663MOL0     C89390   6.172   8.386  11.425  0.0697 -0.4191 -0.7640
  663MOL0     C89391   6.116   8.443  11.292  0.0411 -0.5424  0.1409
  663MOL0     C89392   6.194   8.427  11.159 -0.2868 -0.8989 -0.4512
  663MOL0     C89393   6.332   8.498  11.177  0.2194  0.2593  0.3240
  663MOL0     O89394   6.394   8.488  11.048  0.6125 -0.6715  0.1288
  663MOL0     C89395   6.528   8.530  11.040  0.2920 -0.6142 -0.2296
  663MOL0     C89396   6.575   8.546  10.912  0.7970 -0.3635 -0.5202
  663MOL0     C89397   6.703   8.583  10.883  0.6439 -0.2713  0.1596
  663MOL0     C89398   6.798   8.591  10.988 -0.8291  0.4723 -0.1451
  663MOL0     C89399   6.938   8.616  10.971  0.2032 -0.0996  0.0738
  663MOL0     O89400   7.012   8.649  11.077 -0.5015  0.2344  0.6076
  663MOL0     C89401   7.152   8.656  11.060 -0.2501  0.1894  0.1565
  663MOL0     C89402   7.214   8.777  11.068  0.1944 -0.2672  0.9324
  663MOL0     C89403   7.353   8.790  11.056  0.3395 -0.2949 -0.2472
  663MOL0     C89404   7.433   8.674  11.035  0.9219 -0.1999  0.8944
  663MOL0     O89405   7.566   8.683  11.018  0.1549  0.6321  0.1045
  663MOL0     C89406   7.639   8.802  10.967  0.1796 -0.5665 -0.6285
  663MOL0     C89407   7.623   8.831  10.823 -0.2955 -0.8689 -0.2236
  663MOL0     C89408   7.679   8.965  10.783 -1.0419 -0.1500  0.0882
  663MOL0     C89409   7.624   9.014  10.643 -0.7479  0.3833 -0.4058
  663MOL0     C89410   7.704   9.132  10.586 -0.4081 -0.2686 -0.0766
  663MOL0     C89411   7.694   9.133  10.436 -0.1422 -0.0488  0.3464
  663MOL0     C89412   7.706   9.271  10.371  0.6123  0.5625 -0.5449
  663MOL0     C89413   7.840   9.300  10.313  0.5595 -0.0146 -0.4946
  663MOL0    Cl89414   7.964   9.306  10.437  0.3116 -0.1406 -0.3461
  663MOL0     C89415   7.371   8.549  11.031  0.0491  1.0025  0.5514
  663MOL0     C89416   7.233   8.540  11.032  0.3392  0.2415  1.6525
  663MOL0     O89417   6.979   8.596  10.860  0.3406  0.2744 -0.6294
  663MOL0     C89418   6.755   8.580  11.121  0.2983  0.7537  0.3301
  663MOL0     C89419   6.617   8.548  11.150  0.3001  0.9347 -0.7810
  663MOL0     N89420   6.302   8.177  11.476  0.3514 -0.3824  0.6556
  663MOL0     N89421   6.308   8.052  11.447  0.0645 -0.6237  0.2260
  663MOL0     C89422   5.949   7.612  10.451 -0.9693 -0.1828  0.2502
  663MOL0     C89423   5.847   7.676  10.378 -0.2475 -0.0027 -1.0142
  663MOL0     C89424   5.539   7.977  10.300  0.2672  0.6068 -1.1232
  663MOL0     C89425   5.500   7.931  10.172 -0.4163 -0.4069  0.1836
  663MOL0     C89426   5.399   7.997  10.104  1.0486 -0.4494 -0.0069
  663MOL0     C89427   5.306   8.074  10.174  0.1196  0.1412 -0.5615
  663MOL0     O89428   5.205   8.133  10.110 -0.7997  0.0487  0.5422
  663MOL0     C89429   5.101   8.191  10.187  0.3102  0.2754 -0.0442
  663MOL0     C89430   4.976   8.235  10.119  0.8754 -0.3808 -0.1988
  663MOL0     C89431   4.862   8.269  10.212  0.6769  0.2853 -0.2726
  663MOL0     C89432   4.860   8.415  10.244  0.3727 -0.1467 -0.6521
  663MOL0     C89433   4.740   8.453  10.316  0.2232 -0.0329 -0.8051
  663MOL0     C89434   4.644   8.514  10.360  0.3531 -0.4243  0.2130
  663MOL0     C89435   5.326   8.093  10.313  0.4811 -0.1955 -0.5552
  663MOL0     C89436   5.445   8.051  10.376  0.1099 -0.4510  0.2205
  663MOL0     C89437   5.448   8.077  10.525  0.2121 -0.6517 -0.0261
  663MOL0     H89438   6.006   7.974  10.323 -0.5187  0.8016  2.1997
  663MOL0     H89439   6.186   7.853  10.411 -0.1529  1.1934 -0.7389
  663MOL0     H89440   6.056   7.597  10.714 -1.3101 -0.5786 -0.5089
  663MOL0     H89441   6.097   7.443  10.626  1.8775  0.4385 -2.2876
  663MOL0     H89442   6.339   7.485  10.684 -0.5437  0.8785 -0.0505
  663MOL0     H89443   6.230   7.438  10.821 -1.8724 -0.1546 -0.4942
  663MOL0     H89444   6.213   7.687  10.888 -0.6225  0.9934 -0.6701
  663MOL0     H89445   6.334   7.713  10.762  0.7875 -0.4666 -0.4835
  663MOL0     H89446   6.381   7.507  10.986 -1.4395  0.2353 -0.1574
  663MOL0     H89447   6.512   7.584  10.897  1.2239 -0.0974  0.5252
  663MOL0     H89448   6.504   7.681  11.122 -1.7353 -2.4620  0.8086
  663MOL0     H89449   6.473   7.798  11.000 -0.6170  1.3722  1.2925
  663MOL0     H89450   6.227   7.800  11.067  0.2626  1.6282  1.6754
  663MOL0     H89451   6.267   7.660  11.161 -2.1333  0.8415 -0.4087
  663MOL0     H89452   6.361   7.954  11.186 -1.3038  0.8189 -0.2678
  663MOL0     H89453   6.404   7.817  11.296 -1.3695 -1.6883  1.3595
  663MOL0     H89454   6.113   7.901  11.231 -0.7714  3.3206  0.6869
  663MOL0     H89455   6.169   7.817  11.377 -1.8071 -3.4577 -3.3900
  663MOL0     H89456   6.048   8.149  11.273  1.5492 -0.5909 -0.5871
  663MOL0     H89457   6.099   8.399  11.505  1.1001 -1.1148  0.3109
  663MOL0     H89458   6.261   8.431  11.468 -1.9809  2.8680  0.3561
  663MOL0     H89459   6.017   8.398  11.280  0.0171 -0.7618  1.0775
  663MOL0     H89460   6.111   8.551  11.301  1.2708 -0.3081 -1.4598
  663MOL0     H89461   6.128   8.460  11.078  1.7881 -0.1856 -1.9724
  663MOL0     H89462   6.210   8.322  11.134 -3.1888 -1.2893 -0.9748
  663MOL0     H89463   6.381   8.453  11.264  2.5942  0.1132 -0.9997
  663MOL0     H89464   6.312   8.602  11.204 -2.9486 -0.5158  1.3818
  663MOL0     H89465   6.509   8.517  10.830  2.4149 -1.6024 -1.4280
  663MOL0     H89466   6.740   8.596  10.782  1.0300 -0.1581  0.3138
  663MOL0     H89467   7.149   8.863  11.081 -0.6259 -0.7118 -0.1002
  663MOL0     H89468   7.406   8.885  11.054 -1.5564  0.7878 -0.7330
  663MOL0     H89469   7.614   8.885  11.033 -0.6184 -2.2817  1.3552
  663MOL0     H89470   7.748   8.792  10.975  0.8630  0.3236 -5.6871
  663MOL0     H89471   7.674   8.759  10.758  1.0527  0.0655 -0.2284
  663MOL0     H89472   7.517   8.844  10.800 -0.6815 -0.8200  1.4061
  663MOL0     H89473   7.643   9.046  10.847 -0.7519  0.5748 -0.6391
  663MOL0     H89474   7.788   8.972  10.782 -1.0694  0.4504 -0.9634
  663MOL0     H89475   7.517   9.033  10.651 -1.0406 -1.5411  1.0115
  663MOL0     H89476   7.628   8.930  10.573 -3.6556 -0.3108  0.1232
  663MOL0     H89477   7.809   9.119  10.611 -0.2733  0.2128 -0.3867
  663MOL0     H89478   7.658   9.220  10.633  1.2376 -1.1981  3.6019
  663MOL0     H89479   7.768   9.063  10.396 -1.4228 -0.7073 -0.9714
  663MOL0     H89480   7.594   9.103  10.403 -0.5853  0.3938  1.2529
  663MOL0     H89481   7.692   9.355  10.440  2.7939  0.8091 -0.3255
  663MOL0     H89482   7.634   9.280  10.290  0.3877 -1.8171 -0.6664
  663MOL0     H89483   7.870   9.237  10.228 -0.6417  1.0786 -1.7724
  663MOL0     H89484   7.845   9.398  10.265  2.8659  0.3216  0.3204
  663MOL0     H89485   7.441   8.469  11.012 -1.6964 -0.3399 -0.4826
  663MOL0     H89486   7.182   8.448  11.008  1.9740  0.0489 -1.6113
  663MOL0     H89487   6.822   8.575  11.206  0.7279  0.9963  0.0093
  663MOL0     H89488   6.596   8.510  11.249  1.0253  1.6862 -0.3176
  663MOL0     H89489   5.945   7.509  10.486  3.2345  0.5450  3.7814
  663MOL0     H89490   5.755   7.623  10.355  0.6926 -3.2073  1.7945
  663MOL0     H89491   5.560   7.860  10.116 -0.9551 -0.1894 -0.6958
  663MOL0     H89492   5.368   7.981  10.001 -0.2790 -1.2763  0.4862
  663MOL0     H89493   5.145   8.275  10.241 -1.4494  0.7275  0.7357
  663MOL0     H89494   5.065   8.107  10.247 -0.3451 -0.8953 -1.9645
  663MOL0     H89495   4.942   8.153  10.054 -0.2818 -0.1240  0.0663
  663MOL0     H89496   5.007   8.316  10.052  1.4526 -0.8673 -0.5334
  663MOL0     H89497   4.869   8.208  10.303 -0.6364 -1.8156 -1.4955
  663MOL0     H89498   4.768   8.247  10.162  0.8497  1.5512 -1.2074
  663MOL0     H89499   4.940   8.426  10.319  0.4190  0.0080 -0.7257
  663MOL0     H89500   4.873   8.478  10.156 -1.3604  1.7483  0.3821
  663MOL0     H89501   4.566   8.577  10.397  3.2944  3.1133  1.0608
  663MOL0     H89502   5.261   8.147  10.380 -0.2920 -1.8363  0.0719
  663MOL0     H89503   5.388   7.999  10.573 -0.6999 -0.2527 -0.4942
  663MOL0     H89504   5.542   8.096  10.576  0.8626  2.2921 -2.1200
  663MOL0     H89505   5.387   8.166  10.540  2.0883  1.8743 -5.2807
  664MOL0     O89506   8.105   6.687   7.317  0.4752  0.3050  0.0923
  664MOL0     C89507   8.127   6.666   7.202 -0.1648  0.1257  0.9456
  664MOL0     O89508   8.239   6.703   7.131  0.4308  0.5724 -0.2636
  664MOL0     C89509   8.335   6.784   7.176  0.0831  0.2896 -1.1858
  664MOL0     C89510   8.380   6.800   7.304 -0.7587 -0.0260 -0.6805
  664MOL0     C89511   8.498   6.870   7.335 -0.5659  0.6487 -0.3359
  664MOL0     C89512   8.579   6.933   7.238  0.7478 -0.2203 -0.7657
  664MOL0     O89513   8.679   7.016   7.280 -0.5213 -0.0063 -0.2797
  664MOL0     C89514   8.772   7.070   7.175  0.1801  0.0472  1.0235
  664MOL0     C89515   8.902   7.116   7.242  0.2403  0.0969  0.0389
  664MOL0     C89516   9.017   7.138   7.144  0.0895 -0.9870 -0.4411
  664MOL0     C89517   9.129   7.215   7.218 -0.4210  0.1025 -0.2781
  664MOL0     C89518   9.262   7.237   7.132  0.2773 -0.4333  0.4640
  664MOL0     C89519   9.335   7.104   7.090  0.4558 -0.2587 -0.2098
  664MOL0     C89520   9.441   7.142   6.992 -0.6529  0.3825 -0.5559
  664MOL0     C89521   9.520   7.024   6.916  0.0414 -0.6956 -0.2924
  664MOL0     N89522   9.613   7.080   6.823 -0.3784 -0.2647  0.0366
  664MOL0     C89523   9.712   7.171   6.853 -0.0041 -0.1303  0.8224
  664MOL0     C89524   9.780   7.194   6.741  0.6697  0.2002  0.0693
  664MOL0     C89525   9.912   7.256   6.736  0.2214 -0.0623  0.0364
  664MOL0     C89526   9.924   7.350   6.621 -0.1686 -0.1385 -0.2537
  664MOL0     C89527  10.065   7.414   6.624 -0.2378 -1.1064  0.4943
  664MOL0     C89528  10.089   7.513   6.513  0.0726 -0.3642 -0.7266
  664MOL0     O89529  10.197   7.604   6.551 -0.0409 -0.1212 -0.1847
  664MOL0     C89530  10.325   7.587   6.495 -0.5399 -0.2314 -0.5247
  664MOL0     C89531  10.417   7.691   6.534  0.2519 -0.2194  0.4088
  664MOL0     C89532  10.546   7.696   6.484 -0.0204 -0.0688  0.2075
  664MOL0     C89533  10.594   7.599   6.394  0.3786  0.0834 -0.2488
  664MOL0     C89534  10.738   7.601   6.347  0.4450 -0.1214  0.3458
  664MOL0     O89535  10.822   7.684   6.410  0.3049 -0.2788  0.5116
  664MOL0     C89536  10.952   7.702   6.378  1.0183 -0.6262  0.0564
  664MOL0     C89537  11.003   7.705   6.249  0.2036 -0.0588  0.4127
  664MOL0     C89538  11.146   7.723   6.231  0.4179  0.1667  0.0947
  664MOL0     C89539  11.232   7.736   6.341 -0.5420 -0.2678  0.2815
  664MOL0     O89540  11.372   7.738   6.325 -0.3124  0.1219 -0.0662
  664MOL0     C89541  11.428   7.805   6.209  0.4195  0.1607  0.5261
  664MOL0     C89542  11.584   7.785   6.207  0.2481 -0.0741  0.4374
  664MOL0     C89543  11.660   7.785   6.341 -0.4583  0.1851  0.1916
  664MOL0     C89544  11.628   7.915   6.421  0.1136  0.3267  0.2687
  664MOL0     C89545  11.666   7.900   6.568  0.1007  0.4057 -0.1896
  664MOL0     C89546  11.670   8.040   6.617  0.3285 -0.0429 -0.1255
  664MOL0     C89547  11.711   8.056   6.762  0.8745  0.3282 -0.0871
  664MOL0     C89548  11.744   8.197   6.800  0.2774 -0.4150  0.1789
  664MOL0    Cl89549  11.892   8.216   6.897  0.1661 -0.2016 -0.0110
  664MOL0     C89550  11.179   7.743   6.468 -0.3149  0.1297 -0.6087
  664MOL0     C89551  11.038   7.719   6.486 -0.6286  0.5864 -0.1009
  664MOL0     O89552  10.769   7.537   6.244 -0.0305  0.6639 -0.6766
  664MOL0     C89553  10.507   7.494   6.360 -0.3616  0.3088  0.4157
  664MOL0     C89554  10.375   7.498   6.404 -0.6417 -0.3120  1.2386
  664MOL0     N89555   9.731   7.113   6.639 -0.2947  0.6171  0.2420
  664MOL0     N89556   9.627   7.049   6.692 -0.1537 -0.4471  0.4187
  664MOL0     C89557   8.534   6.917   7.107  0.7696 -0.0633  0.1346
  664MOL0     C89558   8.413   6.845   7.079  0.7170  0.3398 -0.5411
  664MOL0     C89559   8.037   6.590   7.122  0.3410 -0.0571 -0.4935
  664MOL0     C89560   8.040   6.594   6.975  0.7971 -0.5906  0.0831
  664MOL0     C89561   7.947   6.524   6.907 -0.3670  1.0446  0.7463
  664MOL0     C89562   7.865   6.424   6.956  0.2233 -0.1643 -0.3549
  664MOL0     O89563   7.798   6.323   6.888 -0.4878  0.8115 -0.4600
  664MOL0     C89564   7.813   6.314   6.743 -0.3125  0.5684 -1.2283
  664MOL0     C89565   7.938   6.225   6.716  0.5144  0.8020  0.4834
  664MOL0     C89566   7.905   6.159   6.590 -0.0292  0.1019  0.5850
  664MOL0     C89567   8.008   6.050   6.552 -0.2964  0.2364 -0.4997
  664MOL0     C89568   8.018   6.023   6.410  0.2723 -0.0236  0.4011
  664MOL0     C89569   8.028   6.002   6.291  0.0693  0.0394  0.8692
  664MOL0     C89570   7.851   6.424   7.100  0.2862 -0.4937  1.0064
  664MOL0     C89571   7.933   6.506   7.180 -0.1924 -0.6465 -0.2069
  664MOL0     C89572   7.914   6.490   7.331 -0.3197  0.4668 -0.1561
  664MOL0     H89573   8.330   6.760   7.391 -2.4268 -1.5308 -2.2305
  664MOL0     H89574   8.524   6.892   7.438 -0.7447 -0.8265  0.0583
  664MOL0     H89575   8.805   6.994   7.103  1.7082  0.4348  1.2898
  664MOL0     H89576   8.725   7.149   7.117  1.0210 -1.0954 -1.3406
  664MOL0     H89577   8.939   7.031   7.299 -0.2683 -1.8810 -2.3941
  664MOL0     H89578   8.891   7.206   7.304  0.7593  0.0067  0.2671
  664MOL0     H89579   8.983   7.199   7.059  1.3462  2.0286  1.0507
  664MOL0     H89580   9.049   7.038   7.115 -1.3778 -1.9449  1.1037
  664MOL0     H89581   9.093   7.315   7.245 -1.4179 -1.2898  4.5223
  664MOL0     H89582   9.151   7.166   7.314  1.4777  0.7275 -0.3474
  664MOL0     H89583   9.224   7.298   7.049 -1.1114 -1.5162  0.2689
  664MOL0     H89584   9.339   7.298   7.181  2.5546 -3.9995  1.7448
  664MOL0     H89585   9.382   7.050   7.173 -0.0642 -0.1567  0.1522
  664MOL0     H89586   9.259   7.037   7.049  0.6013 -2.4744  2.7486
  664MOL0     H89587   9.511   7.212   7.039 -0.3623 -0.7950  0.8367
  664MOL0     H89588   9.392   7.195   6.910 -0.1008 -0.4823 -1.4763
  664MOL0     H89589   9.575   6.962   6.988 -1.6615  0.0307  1.7670
  664MOL0     H89590   9.450   6.959   6.863  0.1136 -0.8805 -0.1606
  664MOL0     H89591   9.730   7.216   6.950  0.1027 -0.4183  0.9356
  664MOL0     H89592   9.920   7.317   6.826 -0.9835  1.9280 -1.1096
  664MOL0     H89593   9.983   7.173   6.739 -1.3592 -1.5542 -1.4739
  664MOL0     H89594   9.906   7.309   6.522 -0.6537 -1.0275  0.1953
  664MOL0     H89595   9.857   7.435   6.638  0.1686  0.0190  0.3568
  664MOL0     H89596  10.136   7.330   6.627 -1.2613 -1.9903  0.5966
  664MOL0     H89597  10.072   7.469   6.718  0.1771  2.1832 -1.3048
  664MOL0     H89598   9.998   7.574   6.511  0.7331  0.6237 -1.6098
  664MOL0     H89599  10.113   7.466   6.417  0.5112  2.3592 -2.0613
  664MOL0     H89600  10.382   7.769   6.601 -1.7005 -0.2808 -0.4706
  664MOL0     H89601  10.612   7.778   6.507 -0.4726  2.0545 -4.7903
  664MOL0     H89602  10.936   7.710   6.164 -0.0114 -2.7417  0.3286
  664MOL0     H89603  11.181   7.737   6.130 -0.3774 -1.7605 -0.4852
  664MOL0     H89604  11.385   7.778   6.113  0.4528 -2.8740  1.2544
  664MOL0     H89605  11.410   7.912   6.220 -2.1507 -0.1308 -0.3071
  664MOL0     H89606  11.605   7.687   6.163 -2.8679 -1.5528  1.9297
  664MOL0     H89607  11.629   7.867   6.151  2.7114 -0.7857  1.2229
  664MOL0     H89608  11.623   7.704   6.404  0.7947  0.1414  0.8984
  664MOL0     H89609  11.768   7.769   6.331 -0.9513 -3.0153 -1.1325
  664MOL0     H89610  11.520   7.932   6.415  0.3382  1.9793  0.4060
  664MOL0     H89611  11.681   7.995   6.368  0.5176 -0.1329 -0.0308
  664MOL0     H89612  11.761   7.848   6.582  1.0782  2.1820 -0.0429
  664MOL0     H89613  11.586   7.845   6.620  0.8064  0.3706  0.8800
  664MOL0     H89614  11.750   8.089   6.560 -1.0851  2.0180 -0.4340
  664MOL0     H89615  11.575   8.088   6.594  1.2769  0.8881 -2.3830
  664MOL0     H89616  11.799   7.993   6.780  1.0794  0.1930 -1.4541
  664MOL0     H89617  11.635   8.023   6.834 -0.8420  0.1479 -1.9000
  664MOL0     H89618  11.760   8.254   6.708  0.9186  1.4736  1.4246
  664MOL0     H89619  11.661   8.239   6.857 -0.9627  0.2442 -1.9928
  664MOL0     H89620  11.233   7.767   6.559 -2.2473  4.4724 -0.3846
  664MOL0     H89621  10.994   7.715   6.585  1.1643  1.4715  0.7610
  664MOL0     H89622  10.548   7.413   6.301 -0.1311  1.3755 -0.9597
  664MOL0     H89623  10.315   7.412   6.376  2.7405 -3.7150  3.5466
  664MOL0     H89624   8.587   6.963   7.024  0.3205 -2.8703 -1.8739
  664MOL0     H89625   8.389   6.847   6.973 -1.8470  1.2426 -0.0026
  664MOL0     H89626   8.121   6.648   6.927 -0.3228  2.7051  1.6264
  664MOL0     H89627   7.957   6.517   6.799 -0.8503 -1.2238  0.7872
  664MOL0     H89628   7.826   6.412   6.696 -1.7788  0.8726 -1.0332
  664MOL0     H89629   7.728   6.256   6.704 -1.1791 -2.0982  3.8055
  664MOL0     H89630   7.952   6.145   6.790 -0.0467  0.0108 -0.2544
  664MOL0     H89631   8.030   6.285   6.712  1.4342 -0.6225 -0.2567
  664MOL0     H89632   7.906   6.237   6.513 -1.2525 -0.6740 -0.2328
  664MOL0     H89633   7.814   6.099   6.596  0.1889 -0.1615  1.5310
  664MOL0     H89634   8.105   6.088   6.583  0.0922 -0.9373 -0.2164
  664MOL0     H89635   7.983   5.956   6.602  1.6958  0.6580  1.3918
  664MOL0     H89636   8.038   5.982   6.186  2.2338  3.4900  0.2629
  664MOL0     H89637   7.775   6.357   7.139  0.6673 -1.9004 -0.5806
  664MOL0     H89638   7.847   6.409   7.362  0.2110 -0.0833 -0.4309
  664MOL0     H89639   8.007   6.470   7.385 -0.5704 -1.0494 -0.2460
  664MOL0     H89640   7.867   6.580   7.372 -1.7591 -0.5948  0.6143
  665MOL0     O89641   5.042   4.840   0.175 -0.2565 -0.5135  0.0126
  665MOL0     C89642   5.054   4.937   0.093  0.0311  0.7113  0.3213
  665MOL0     O89643   5.168   4.991   0.052 -0.6887  0.0329  0.1235
  665MOL0     C89644   5.287   4.958   0.110 -0.0465 -0.0202 -0.5535
  665MOL0     C89645   5.397   4.936   0.032 -0.1034 -0.5836 -0.3664
  665MOL0     C89646   5.514   4.915   0.092  0.5032  0.0427  0.0494
  665MOL0     C89647   5.533   4.932   0.234 -0.1775  0.7573 -0.0160
  665MOL0     O89648   5.659   4.917   0.293  0.1424  0.6166  0.4525
  665MOL0     C89649   5.771   4.917   0.204 -0.3943  0.3520  0.2350
  665MOL0     C89650   5.915   4.918   0.278 -0.4764  0.0381 -0.2423
  665MOL0     C89651   6.035   4.925   0.179  0.5605 -0.6684  0.0744
  665MOL0     C89652   6.164   4.885   0.240 -0.2787  0.2254 -0.4256
  665MOL0     C89653   6.265   4.890   0.123  0.4455  0.2955  0.2040
  665MOL0     C89654   6.407   4.856   0.165 -0.0847 -0.3836 -0.2112
  665MOL0     C89655   6.510   4.901   0.070 -0.4040  0.2159  0.0818
  665MOL0     C89656   6.568   5.043   0.095  0.4839  0.7037  0.0006
  665MOL0     N89657   6.678   5.065   0.002  0.5409  0.1558 -0.4541
  665MOL0     C89658   6.791   4.991  -0.012 -1.1237 -0.0679 -0.4752
  665MOL0     C89659   6.839   5.032  -0.131  0.4106  0.5351  0.3534
  665MOL0     C89660   6.937   4.945  -0.204 -0.2700  0.6810  0.8484
  665MOL0     C89661   7.013   5.013  -0.328  0.0156 -0.2735  0.0211
  665MOL0     C89662   7.114   5.122  -0.284  0.1848 -0.1631 -0.2425
  665MOL0     C89663   7.184   5.184  -0.411 -0.2329 -0.4446 -0.5180
  665MOL0     O89664   7.293   5.109  -0.457  0.5533 -0.3651  0.5247
  665MOL0     C89665   7.418   5.139  -0.429  0.2960  0.0664  0.0841
  665MOL0     C89666   7.498   5.183  -0.530 -0.5968  0.2105  0.2990
  665MOL0     C89667   7.629   5.222  -0.503  0.0113  0.6850  0.0820
  665MOL0     C89668   7.687   5.211  -0.374 -0.1465  0.4459  0.5598
  665MOL0     C89669   7.824   5.250  -0.353 -1.1546 -0.0189  0.3923
  665MOL0     O89670   7.895   5.290  -0.461 -0.3451  0.8094  0.6361
  665MOL0     C89671   8.025   5.322  -0.447 -0.6404 -0.7162  0.3234
  665MOL0     C89672   8.068   5.457  -0.466  0.6984 -0.2893  0.7670
  665MOL0     C89673   8.204   5.487  -0.451 -0.2506  0.7836 -0.8650
  665MOL0     C89674   8.303   5.385  -0.434  0.1728 -0.3546  0.0681
  665MOL0     O89675   8.431   5.437  -0.431  0.1958  0.0695  0.4045
  665MOL0     C89676   8.525   5.340  -0.385  0.6661 -0.4685  0.0054
  665MOL0     C89677   8.665   5.392  -0.397  0.2088  0.4887  0.0030
  665MOL0     C89678   8.678   5.525  -0.320 -0.0659  0.5611 -0.1074
  665MOL0     C89679   8.831   5.569  -0.316  0.0934 -0.0043 -0.9540
  665MOL0     C89680   8.861   5.697  -0.238  1.3071 -0.5048 -0.5152
  665MOL0     C89681   9.012   5.738  -0.236 -0.4010  0.9841  0.6094
  665MOL0     C89682   9.045   5.852  -0.138 -0.2330 -0.0020  0.3189
  665MOL0     C89683   9.060   5.805   0.010  0.0405 -0.8092  0.7169
  665MOL0    Cl89684   9.240   5.742   0.055  0.4361  0.0438  0.2861
  665MOL0     C89685   8.261   5.254  -0.422 -0.3379  0.5784  0.2364
  665MOL0     C89686   8.122   5.224  -0.422  0.1214  0.4052  0.5313
  665MOL0     O89687   7.865   5.249  -0.241 -0.5664  0.2251  0.1243
  665MOL0     C89688   7.600   5.162  -0.268 -0.8005 -0.3225 -0.1172
  665MOL0     C89689   7.469   5.134  -0.297  0.4330 -0.5574  0.2162
  665MOL0     N89690   6.761   5.135  -0.191 -0.3033 -0.1008 -0.4780
  665MOL0     N89691   6.673   5.151  -0.102  0.6216 -0.4579 -0.9055
  665MOL0     C89692   5.420   4.952   0.316 -0.2778  0.5707  0.0031
  665MOL0     C89693   5.295   4.969   0.251  0.0204 -0.2078  0.6116
  665MOL0     C89694   4.934   5.003   0.033  0.0208 -0.0323 -0.5013
  665MOL0     C89695   4.943   5.128  -0.027  0.3183 -0.1088  0.3103
  665MOL0     C89696   4.834   5.190  -0.091 -0.2236  0.3571 -0.1664
  665MOL0     C89697   4.705   5.138  -0.089  0.1320  0.0105 -0.5666
  665MOL0     O89698   4.592   5.186  -0.148 -0.7330 -0.2440 -0.0134
  665MOL0     C89699   4.603   5.314  -0.210  0.0626  0.1091 -0.5927
  665MOL0     C89700   4.482   5.353  -0.288  0.0499 -0.0823 -0.3321
  665MOL0     C89701   4.444   5.244  -0.385 -0.8861 -0.3637  0.0954
  665MOL0     C89702   4.331   5.278  -0.477 -0.4314 -0.1407  0.1759
  665MOL0     C89703   4.383   5.364  -0.586 -0.2167  0.1686  0.1336
  665MOL0     C89704   4.423   5.422  -0.680  0.3153 -0.4780  0.6234
  665MOL0     C89705   4.698   5.017  -0.019  0.3995 -0.6938 -0.1676
  665MOL0     C89706   4.803   4.939   0.034 -0.0541 -0.2898 -0.2180
  665MOL0     C89707   4.771   4.799   0.077 -0.0044 -0.5162  0.6183
  665MOL0     H89708   5.390   4.928  -0.076 -0.5895 -0.2204 -0.3627
  665MOL0     H89709   5.590   4.891   0.018  0.1789  2.0269 -0.9925
  665MOL0     H89710   5.768   4.836   0.131 -1.8227 -0.7160  1.4116
  665MOL0     H89711   5.775   5.010   0.148 -0.8865 -0.4871 -1.2586
  665MOL0     H89712   5.919   4.826   0.338 -0.0474  0.7319  0.8389
  665MOL0     H89713   5.910   5.007   0.342 -0.3100  0.2790 -0.5669
  665MOL0     H89714   6.049   5.029   0.150  4.7782  0.4947  4.9533
  665MOL0     H89715   6.005   4.864   0.092 -2.1789  0.7881 -0.1172
  665MOL0     H89716   6.197   4.945   0.326  2.2440 -1.7609  0.1239
  665MOL0     H89717   6.149   4.781   0.272 -3.5143  0.1962 -1.6705
  665MOL0     H89718   6.233   4.821   0.043 -3.4540  1.0845  0.8967
  665MOL0     H89719   6.269   4.991   0.083 -2.3477  0.3977  0.0055
  665MOL0     H89720   6.434   4.900   0.262 -0.5502  0.2227 -0.3574
  665MOL0     H89721   6.417   4.748   0.180 -0.7992 -0.5535 -0.9104
  665MOL0     H89722   6.471   4.903  -0.033 -0.0208  1.7772 -0.0689
  665MOL0     H89723   6.591   4.828   0.064 -0.5820  0.1137 -1.8162
  665MOL0     H89724   6.486   5.109   0.067 -0.1936 -0.1362 -0.0636
  665MOL0     H89725   6.585   5.067   0.200 -2.1819  1.1854  0.4026
  665MOL0     H89726   6.812   4.906   0.051 -2.0369 -1.2563 -1.7170
  665MOL0     H89727   7.016   4.910  -0.138  1.4673  2.5260 -0.1283
  665MOL0     H89728   6.890   4.858  -0.250  2.2731 -1.2580  1.7435
  665MOL0     H89729   7.068   4.937  -0.384 -1.1918 -1.2204  0.0896
  665MOL0     H89730   6.934   5.050  -0.395  0.1717  2.0539  1.0167
  665MOL0     H89731   7.191   5.077  -0.221 -0.3426 -0.2796  0.3275
  665MOL0     H89732   7.066   5.194  -0.218 -1.0094 -0.5561 -0.6595
  665MOL0     H89733   7.230   5.281  -0.390  1.9096 -1.1441 -1.7352
  665MOL0     H89734   7.113   5.205  -0.492 -0.5571  0.7603  0.0571
  665MOL0     H89735   7.449   5.185  -0.627 -0.6805 -3.6489  0.0779
  665MOL0     H89736   7.688   5.252  -0.589 -0.1650  1.1035  0.1059
  665MOL0     H89737   7.995   5.532  -0.496  1.2489  0.4990  1.3526
  665MOL0     H89738   8.234   5.591  -0.460  0.5457  0.7942  1.3146
  665MOL0     H89739   8.509   5.324  -0.278  0.4901 -0.0673  0.0399
  665MOL0     H89740   8.518   5.246  -0.441  1.5439 -0.5105 -0.0464
  665MOL0     H89741   8.737   5.319  -0.360  0.0937  0.9367  1.1511
  665MOL0     H89742   8.678   5.408  -0.505 -1.2747 -0.6309 -0.3667
  665MOL0     H89743   8.624   5.611  -0.360  0.0407  2.4578  3.3900
  665MOL0     H89744   8.639   5.513  -0.218  2.5998 -1.7548  0.7799
  665MOL0     H89745   8.864   5.593  -0.418 -0.0639 -1.6139 -1.4043
  665MOL0     H89746   8.888   5.483  -0.280  0.5941  1.5291  2.2364
  665MOL0     H89747   8.837   5.687  -0.131  0.0520 -1.1401 -0.8398
  665MOL0     H89748   8.801   5.780  -0.277 -0.6442 -0.7880  1.6376
  665MOL0     H89749   9.070   5.652  -0.200  0.3293  1.7662  1.3468
  665MOL0     H89750   9.043   5.771  -0.336  1.5732 -0.2632  0.7633
  665MOL0     H89751   8.957   5.916  -0.134 -0.9412 -1.0094  2.3011
  665MOL0     H89752   9.138   5.906  -0.159 -0.4705  1.3812  2.4655
  665MOL0     H89753   9.035   5.886   0.079 -2.2285 -0.0898 -0.8313
  665MOL0     H89754   8.994   5.723   0.038  1.3505 -1.8313  0.9407
  665MOL0     H89755   8.337   5.176  -0.420  1.1650  1.9466 -0.8290
  665MOL0     H89756   8.089   5.121  -0.414 -0.1310  0.4411  0.0064
  665MOL0     H89757   7.640   5.157  -0.167  0.1613 -0.5271 -0.4969
  665MOL0     H89758   7.402   5.109  -0.215 -1.9957  1.4941 -0.9792
  665MOL0     H89759   5.445   4.952   0.422  2.9784  0.3120 -0.6628
  665MOL0     H89760   5.206   5.001   0.303 -0.3090 -1.2993  0.7300
  665MOL0     H89761   5.040   5.172  -0.049  1.0737  0.1830  3.6628
  665MOL0     H89762   4.864   5.277  -0.149  1.0165 -0.7867 -1.3297
  665MOL0     H89763   4.690   5.315  -0.276  0.7825 -1.0004  0.3115
  665MOL0     H89764   4.620   5.379  -0.124 -2.2561 -0.3176  0.2486
  665MOL0     H89765   4.499   5.449  -0.339  0.5914 -0.6341 -1.2104
  665MOL0     H89766   4.403   5.366  -0.213 -0.1613 -0.0975 -0.5501
  665MOL0     H89767   4.418   5.155  -0.328  1.1135  0.0592  1.7736
  665MOL0     H89768   4.538   5.228  -0.439 -0.0838  1.3303  0.9097
  665MOL0     H89769   4.274   5.191  -0.513 -3.0528  1.0683  1.1079
  665MOL0     H89770   4.254   5.329  -0.419  0.0381 -0.3491  0.9966
  665MOL0     H89771   4.460   5.490  -0.754  1.6788  1.0561  2.6064
  665MOL0     H89772   4.596   4.983  -0.023 -0.1196  0.8183 -0.7176
  665MOL0     H89773   4.842   4.743   0.015 -0.8352  0.5872 -1.4336
  665MOL0     H89774   4.808   4.788   0.179  2.6370  1.9176  0.0905
  665MOL0     H89775   4.671   4.761   0.058  0.9798 -1.6646 -3.2916
  666MOL0     O89776   5.802   0.276   5.108  0.0297 -0.0974 -0.4993
  666MOL0     C89777   5.730   0.252   5.204 -0.3886  0.0640  0.5534
  666MOL0     O89778   5.770   0.259   5.333 -0.2268  0.0457  0.1791
  666MOL0     C89779   5.904   0.264   5.359  0.4059  0.1863 -0.9023
  666MOL0     C89780   5.960   0.385   5.406 -0.4396  0.1675 -0.5265
  666MOL0     C89781   6.100   0.411   5.420  0.2431 -0.0697  0.4966
  666MOL0     C89782   6.186   0.315   5.365  0.7354  0.2444 -0.6071
  666MOL0     O89783   6.325   0.328   5.361  0.4629  0.0589  0.1344
  666MOL0     C89784   6.381   0.440   5.428 -0.0368 -0.5390  0.6094
  666MOL0     C89785   6.527   0.406   5.452 -0.0878  0.2464  0.1765
  666MOL0     C89786   6.543   0.272   5.526  0.2410  0.3528  0.0982
  666MOL0     C89787   6.696   0.235   5.564 -0.1773  0.1236  0.6723
  666MOL0     C89788   6.719   0.258   5.716  0.6568 -0.3887 -0.4566
  666MOL0     C89789   6.871   0.221   5.751 -0.3357  0.6714 -0.3521
  666MOL0     C89790   6.906   0.259   5.894 -0.6040  0.5685  0.3135
  666MOL0     C89791   7.037   0.196   5.926 -0.0319 -0.1802  0.5849
  666MOL0     N89792   7.099   0.276   6.030 -0.0686  0.1698  0.5167
  666MOL0     C89793   7.170   0.397   6.030  0.3997 -0.6483 -0.3466
  666MOL0     C89794   7.218   0.420   6.149  0.1239  0.5594 -0.1227
  666MOL0     C89795   7.298   0.530   6.196 -0.2569  0.0009 -0.6117
  666MOL0     C89796   7.443   0.509   6.160 -0.1527 -0.1836  0.1883
  666MOL0     C89797   7.542   0.599   6.236 -0.0476 -0.0348 -0.4487
  666MOL0     C89798   7.692   0.575   6.203 -0.3190  0.7797 -0.2541
  666MOL0     O89799   7.760   0.668   6.283 -0.4813  0.5575 -0.3152
  666MOL0     C89800   7.895   0.672   6.269 -0.1123  0.0894  0.6450
  666MOL0     C89801   7.968   0.581   6.200  0.4260 -1.1536  1.0122
  666MOL0     C89802   8.103   0.600   6.176 -0.8277  0.0317  0.6896
  666MOL0     C89803   8.161   0.723   6.211 -0.3672  0.3419  0.7749
  666MOL0     C89804   8.307   0.743   6.189 -0.6849  0.8047 -0.1217
  666MOL0     O89805   8.362   0.854   6.245 -0.4983 -0.6815  0.3361
  666MOL0     C89806   8.483   0.910   6.209  0.7336 -0.2203  0.7259
  666MOL0     C89807   8.528   0.901   6.075 -0.5354 -0.1459 -0.1614
  666MOL0     C89808   8.645   0.969   6.042 -0.1675 -0.0240 -0.0812
  666MOL0     C89809   8.718   1.046   6.138  0.0435  0.3435  0.2783
  666MOL0     O89810   8.837   1.107   6.097  0.5039 -0.2058  0.3611
  666MOL0     C89811   8.900   1.189   6.196  0.1329 -0.5903  0.6732
  666MOL0     C89812   9.020   1.251   6.131 -0.0082  0.4335  0.2239
  666MOL0     C89813   9.136   1.280   6.223  0.2136  0.2645 -0.7150
  666MOL0     C89814   9.233   1.377   6.162  0.1557  0.5248 -0.3482
  666MOL0     C89815   9.353   1.301   6.100 -0.2764 -0.4006 -0.6125
  666MOL0     C89816   9.440   1.390   6.010  0.4461  0.5639  0.1309
  666MOL0     C89817   9.499   1.508   6.087 -0.2211 -0.0031  0.1017
  666MOL0     C89818   9.586   1.591   5.987 -0.1929  0.3659  0.0954
  666MOL0    Cl89819   9.497   1.663   5.850 -0.8170 -0.0534  0.2547
  666MOL0     C89820   8.659   1.062   6.267 -0.2908 -0.1509 -0.0882
  666MOL0     C89821   8.546   0.989   6.302 -0.2510 -0.8975 -0.1786
  666MOL0     O89822   8.372   0.660   6.115 -0.0841  0.0382 -0.1336
  666MOL0     C89823   8.082   0.821   6.261 -0.0593 -0.9001  0.1108
  666MOL0     C89824   7.950   0.800   6.298 -0.6820 -0.1046 -0.9483
  666MOL0     N89825   7.189   0.308   6.223  0.4049  0.3022 -0.1823
  666MOL0     N89826   7.106   0.237   6.157  0.0352  0.2289  0.5617
  666MOL0     C89827   6.136   0.194   5.313 -0.1083 -0.5503  0.0427
  666MOL0     C89828   5.996   0.169   5.312  0.5812 -0.4909 -0.0184
  666MOL0     C89829   5.584   0.233   5.161 -0.5318 -0.6873 -0.4936
  666MOL0     C89830   5.555   0.259   5.025 -0.1476  0.6884 -0.5456
  666MOL0     C89831   5.435   0.235   4.975 -0.2250  0.1697 -0.3522
  666MOL0     C89832   5.327   0.192   5.053 -0.1510 -0.0635 -0.4100
  666MOL0     O89833   5.200   0.155   5.004  0.6228 -0.0337  0.7073
  666MOL0     C89834   5.161   0.199   4.871 -0.2858 -0.1038  0.0031
  666MOL0     C89835   5.227   0.116   4.757 -1.4485 -0.3142 -0.5744
  666MOL0     C89836   5.220   0.192   4.628  1.0085  0.3311 -0.6587
  666MOL0     C89837   5.281   0.110   4.510  0.9210  0.4931  0.0694
  666MOL0     C89838   5.420   0.078   4.530  0.3959  0.5806  0.2951
  666MOL0     C89839   5.540   0.065   4.540  0.2157  0.3204 -0.1148
  666MOL0     C89840   5.354   0.169   5.182  1.1080  0.6833  0.5772
  666MOL0     C89841   5.478   0.183   5.246 -0.1620 -0.2884  0.1803
  666MOL0     C89842   5.472   0.174   5.399  0.3313  0.7990 -0.2156
  666MOL0     H89843   5.904   0.462   5.457  2.3229  2.7852 -1.1374
  666MOL0     H89844   6.127   0.509   5.459  1.4392  0.0340 -0.5153
  666MOL0     H89845   6.364   0.531   5.370  2.3414  0.4724  1.3591
  666MOL0     H89846   6.330   0.460   5.522 -0.7986 -0.6552  0.2292
  666MOL0     H89847   6.567   0.487   5.514 -0.9086  0.8796 -0.1109
  666MOL0     H89848   6.583   0.386   5.360  1.6123 -1.2618  1.4681
  666MOL0     H89849   6.512   0.184   5.470  1.1298 -0.6363  1.1118
  666MOL0     H89850   6.477   0.267   5.614  0.5541 -1.3999  0.2761
  666MOL0     H89851   6.716   0.130   5.543  1.1938  0.9053 -2.6777
  666MOL0     H89852   6.760   0.288   5.492 -2.7407  0.4971 -1.4653
  666MOL0     H89853   6.710   0.365   5.737  0.7361 -0.6584  1.0592
  666MOL0     H89854   6.650   0.192   5.770  0.3968 -1.3422 -1.8997
  666MOL0     H89855   6.879   0.113   5.736 -1.6079  0.1665  2.1093
  666MOL0     H89856   6.930   0.274   5.676  0.6796  0.6981  0.4450
  666MOL0     H89857   6.821   0.236   5.960 -0.1817 -3.4259 -0.2668
  666MOL0     H89858   6.918   0.367   5.901  2.2416  0.2721  1.3299
  666MOL0     H89859   7.027   0.091   5.954 -1.4918 -0.3655 -0.4886
  666MOL0     H89860   7.100   0.220   5.840 -3.3300  0.1463 -1.9678
  666MOL0     H89861   7.172   0.463   5.944  1.3294  0.5641  0.5805
  666MOL0     H89862   7.256   0.618   6.148 -0.9097 -0.1212 -0.2681
  666MOL0     H89863   7.297   0.545   6.305  1.5707 -2.3432 -0.1708
  666MOL0     H89864   7.478   0.407   6.175 -0.6163 -0.1354  1.7767
  666MOL0     H89865   7.447   0.538   6.055 -2.5823  0.7612  0.2851
  666MOL0     H89866   7.525   0.587   6.343  0.2510  0.2803 -0.3631
  666MOL0     H89867   7.512   0.701   6.211  1.9629  1.3087  2.1356
  666MOL0     H89868   7.702   0.609   6.100  1.4263  1.4816  0.1109
  666MOL0     H89869   7.723   0.470   6.214 -1.0008  0.7267  1.5857
  666MOL0     H89870   7.933   0.483   6.168  0.6634 -1.3526  1.3520
  666MOL0     H89871   8.163   0.524   6.125 -1.0794  0.9987 -1.1550
  666MOL0     H89872   8.475   0.848   5.997  0.0015  0.5709 -1.0418
  666MOL0     H89873   8.689   0.970   5.943 -0.2132  3.0492 -0.1669
  666MOL0     H89874   8.834   1.270   6.228  0.1176 -0.0508 -0.6359
  666MOL0     H89875   8.925   1.123   6.280  0.5024 -0.3303  0.7686
  666MOL0     H89876   9.055   1.201   6.040  0.1561  1.4585 -0.2802
  666MOL0     H89877   8.982   1.344   6.088  1.4815 -0.2253 -2.7500
  666MOL0     H89878   9.098   1.298   6.324 -0.9670  0.6670 -1.2045
  666MOL0     H89879   9.195   1.195   6.258 -0.1261  0.4541  0.3404
  666MOL0     H89880   9.279   1.438   6.240 -0.8053 -0.8187  1.3484
  666MOL0     H89881   9.186   1.445   6.091 -0.4575 -1.7734 -2.2547
  666MOL0     H89882   9.312   1.217   6.042  3.1802 -1.4392 -1.8159
  666MOL0     H89883   9.416   1.258   6.178 -1.1986 -0.5955  0.0439
  666MOL0     H89884   9.527   1.338   5.969 -0.2402 -0.7257  0.2685
  666MOL0     H89885   9.379   1.422   5.925  0.1402  0.2955  0.2466
  666MOL0     H89886   9.563   1.473   6.168  1.3605 -0.1887 -1.1918
  666MOL0     H89887   9.422   1.574   6.130 -1.1252 -0.3884 -0.8702
  666MOL0     H89888   9.629   1.673   6.044  0.0480 -0.2082  0.7538
  666MOL0     H89889   9.670   1.531   5.952  0.5643  1.8663 -0.7194
  666MOL0     H89890   8.698   1.127   6.345  0.8574 -1.3944  0.4055
  666MOL0     H89891   8.505   1.002   6.402  0.5953  0.4629  0.0157
  666MOL0     H89892   8.128   0.915   6.289 -1.1355 -0.6763  1.2366
  666MOL0     H89893   7.896   0.871   6.359 -0.0478 -0.3458 -0.0859
  666MOL0     H89894   6.213   0.126   5.279  0.5711 -0.0300  0.5056
  666MOL0     H89895   5.946   0.082   5.272  0.0156 -0.5756  0.8490
  666MOL0     H89896   5.627   0.306   4.958  0.9648 -1.1937 -0.7449
  666MOL0     H89897   5.437   0.258   4.869  0.7213  0.1001 -0.3540
  666MOL0     H89898   5.198   0.302   4.871  1.4510 -0.6911  0.6086
  666MOL0     H89899   5.054   0.200   4.849  0.2862  0.8931 -3.2436
  666MOL0     H89900   5.169   0.026   4.735 -0.9828 -0.7060 -0.2113
  666MOL0     H89901   5.330   0.087   4.777 -1.5528 -1.8130 -2.0858
  666MOL0     H89902   5.270   0.288   4.642 -0.0165  0.9108 -0.9224
  666MOL0     H89903   5.113   0.207   4.612 -0.1532 -0.1612  4.5921
  666MOL0     H89904   5.224   0.017   4.506 -1.0106  1.6195  0.0807
  666MOL0     H89905   5.275   0.161   4.413  1.1705 -0.6861 -0.5855
  666MOL0     H89906   5.647   0.059   4.540  0.1943 -0.2678 -1.6115
  666MOL0     H89907   5.267   0.142   5.240  1.7731 -0.5718  1.0206
  666MOL0     H89908   5.559   0.121   5.438 -0.4690 -1.8288 -1.7228
  666MOL0     H89909   5.461   0.275   5.438 -0.0082  0.8329 -0.3896
  666MOL0     H89910   5.384   0.115   5.424  0.2260  1.1753  0.3139
  667MOL0     O89911   9.178   2.317   2.747 -0.1292  0.6397  0.1234
  667MOL0     C89912   9.093   2.308   2.843 -0.5339  0.1914  0.5459
  667MOL0     O89913   9.120   2.313   2.970  0.7640  0.0211  0.1880
  667MOL0     C89914   9.248   2.316   3.022 -0.2443  0.2258  0.1006
  667MOL0     C89915   9.290   2.424   3.088 -0.1396 -0.0621  0.2750
  667MOL0     C89916   9.419   2.451   3.116  0.8840  0.0799 -0.0920
  667MOL0     C89917   9.520   2.363   3.093 -0.3356 -0.1538  0.1445
  667MOL0     O89918   9.654   2.384   3.131 -0.3051 -0.1702  0.0566
  667MOL0     C89919   9.754   2.353   3.033 -0.4585 -0.2961 -0.0625
  667MOL0     C89920   9.869   2.445   3.075 -0.5779 -0.4403 -0.0911
  667MOL0     C89921   9.995   2.422   2.985 -0.1832 -0.2563 -0.5847
  667MOL0     C89922  10.109   2.521   3.033  0.1918  0.4756 -0.0960
  667MOL0     C89923  10.244   2.482   2.957 -0.0881 -0.5636 -0.3834
  667MOL0     C89924  10.364   2.579   2.991  0.0446 -0.1283  0.9111
  667MOL0     C89925  10.356   2.714   2.928 -0.3087 -0.2775 -0.9488
  667MOL0     C89926  10.495   2.780   2.931  0.7299  0.8042  0.7138
  667MOL0     N89927  10.472   2.923   2.875  0.3665  0.4199  0.4120
  667MOL0     C89928  10.458   2.948   2.744 -0.4901  0.6785  1.2387
  667MOL0     C89929  10.436   3.078   2.737  0.2354  0.0677  0.6283
  667MOL0     C89930  10.407   3.176   2.624 -0.1555 -0.9117  0.5061
  667MOL0     C89931  10.506   3.300   2.618  0.4239  0.3678 -0.2303
  667MOL0     C89932  10.655   3.268   2.595  0.2711 -0.8084  0.6071
  667MOL0     C89933  10.746   3.397   2.607  0.8911  0.5187 -0.1168
  667MOL0     O89934  10.878   3.364   2.553  0.5189 -0.2845 -0.6168
  667MOL0     C89935  10.977   3.438   2.616  0.9500  0.6510  0.7876
  667MOL0     C89936  11.106   3.381   2.608 -1.1832 -0.3882  0.1128
  667MOL0     C89937  11.214   3.458   2.659  0.3261  0.1314  0.3576
  667MOL0     C89938  11.198   3.586   2.707  0.5148  0.5356  0.4667
  667MOL0     C89939  11.310   3.669   2.745 -0.1384  0.0529  0.0831
  667MOL0     O89940  11.285   3.787   2.815  0.7252  0.0728 -0.6211
  667MOL0     C89941  11.391   3.865   2.855 -0.1221 -0.1866  0.6522
  667MOL0     C89942  11.395   3.923   2.982 -1.3968 -0.9886  0.2658
  667MOL0     C89943  11.505   4.001   3.021  0.6447  0.8785 -0.2502
  667MOL0     C89944  11.618   4.016   2.944  0.5251 -0.5494 -0.6946
  667MOL0     O89945  11.733   4.086   2.971  0.9681 -0.1786 -0.2304
  667MOL0     C89946  11.759   4.106   3.110 -0.8081 -0.1663 -0.6344
  667MOL0     C89947  11.906   4.177   3.122 -0.2035 -0.2230 -0.0511
  667MOL0     C89948  12.014   4.078   3.076  0.3241 -1.3052 -0.4740
  667MOL0     C89949  12.113   4.139   2.973 -0.1544 -0.3374  0.4858
  667MOL0     C89950  12.240   4.053   2.972  0.6170 -0.2266 -0.0675
  667MOL0     C89951  12.220   3.951   2.861 -0.2016 -0.3810 -0.5576
  667MOL0     C89952  12.346   3.866   2.875 -0.6320  0.3472 -0.3336
  667MOL0     C89953  12.332   3.756   2.771 -0.1892  0.8887  0.2541
  667MOL0    Cl89954  12.469   3.634   2.786  0.1275  0.5029  0.2434
  667MOL0     C89955  11.604   3.977   2.816  0.5069  0.2008  0.4107
  667MOL0     C89956  11.493   3.900   2.770  0.2193 -0.4896  0.8615
  667MOL0     O89957  11.422   3.615   2.730 -0.2509  0.3890 -0.2944
  667MOL0     C89958  11.071   3.637   2.723 -0.0677 -0.2080  0.3086
  667MOL0     C89959  10.961   3.567   2.664  0.0461  0.9853 -0.0682
  667MOL0     N89960  10.457   3.132   2.866 -0.1739 -0.1287 -0.0578
  667MOL0     N89961  10.458   3.033   2.943  0.6726  0.5818 -0.3188
  667MOL0     C89962   9.482   2.248   3.023 -0.7240  0.1908 -0.5433
  667MOL0     C89963   9.343   2.224   2.996  0.6395 -0.4138 -0.0483
  667MOL0     C89964   8.948   2.286   2.805  0.3373 -0.4478 -0.6614
  667MOL0     C89965   8.849   2.340   2.881 -0.9639  0.6854 -0.4452
  667MOL0     C89966   8.713   2.309   2.860  0.9877 -0.5663  0.5024
  667MOL0     C89967   8.677   2.229   2.751  0.3976 -0.0671 -0.0187
  667MOL0     O89968   8.550   2.191   2.721 -0.4322  0.3851  0.6299
  667MOL0     C89969   8.436   2.237   2.790 -0.1969  0.1569 -0.0218
  667MOL0     C89970   8.314   2.152   2.747 -0.0346 -0.2769  0.2197
  667MOL0     C89971   8.302   2.142   2.592 -0.1887  0.6881 -0.1362
  667MOL0     C89972   8.184   2.054   2.564 -0.0794  0.4281  1.2069
  667MOL0     C89973   8.160   2.027   2.424  0.0455 -0.6551  0.9123
  667MOL0     C89974   8.125   2.015   2.313  0.2989 -0.3665  0.5117
  667MOL0     C89975   8.774   2.190   2.666 -0.1804 -0.7865  0.1935
  667MOL0     C89976   8.905   2.226   2.686 -1.2701 -0.0812 -0.1463
  667MOL0     C89977   9.000   2.177   2.573 -0.4781  0.5447 -0.6090
  667MOL0     H89978   9.229   2.511   3.110 -0.4676 -0.3254  0.4143
  667MOL0     H89979   9.442   2.549   3.158 -0.4217  0.0629  0.7233
  667MOL0     H89980   9.780   2.247   3.040 -0.3659 -0.1824  1.7441
  667MOL0     H89981   9.716   2.386   2.936 -2.6979 -2.3097  0.0208
  667MOL0     H89982   9.892   2.429   3.181 -1.9510  1.0579  0.4817
  667MOL0     H89983   9.830   2.547   3.064 -0.2692 -0.3482 -0.3339
  667MOL0     H89984   9.961   2.440   2.883  0.3192 -0.5478 -0.8077
  667MOL0     H89985  10.030   2.319   2.999 -3.6191 -1.1430  3.7625
  667MOL0     H89986  10.066   2.621   3.029 -0.1961  0.4979  2.9026
  667MOL0     H89987  10.125   2.510   3.141 -1.9582  1.8524  0.4064
  667MOL0     H89988  10.270   2.385   3.001 -0.2963 -2.3567 -3.8754
  667MOL0     H89989  10.234   2.458   2.851  0.5781 -0.0287 -0.5791
  667MOL0     H89990  10.365   2.587   3.100 -1.4844  2.5099  0.8188
  667MOL0     H89991  10.458   2.526   2.973  0.4652  0.8641  0.0785
  667MOL0     H89992  10.279   2.773   2.979  1.1649 -0.0157  1.0920
  667MOL0     H89993  10.327   2.714   2.822 -1.7103  0.1200 -0.5923
  667MOL0     H89994  10.518   2.793   3.037 -2.1285  0.1906  1.4899
  667MOL0     H89995  10.568   2.709   2.890  0.6066 -1.0191  3.3964
  667MOL0     H89996  10.449   2.869   2.670 -0.0684  2.5841 -0.9488
  667MOL0     H89997  10.405   3.130   2.524 -0.9194  1.6332 -0.7448
  667MOL0     H89998  10.308   3.216   2.649 -0.3591  1.1365 -2.8606
  667MOL0     H89999  10.463   3.370   2.546  1.0518  1.9481  0.8634
  667MOL0     H90000  10.497   3.364   2.706 -1.3897  3.4019 -2.4280
  667MOL0     H90001  10.663   3.228   2.494  1.4451 -1.8046  1.0676
  667MOL0     H90002  10.692   3.197   2.670 -0.3195 -3.2721 -1.2953
  667MOL0     H90003  10.744   3.420   2.714 -3.0896 -0.0930  0.0856
  667MOL0     H90004  10.702   3.482   2.554  2.5305  3.0796  2.3413
  667MOL0     H90005  11.121   3.279   2.573  1.4328  0.0194 -0.2088
  667MOL0     H90006  11.315   3.424   2.643  0.0666 -0.7339  0.5022
  667MOL0     H90007  11.300   3.917   3.034 -1.7848  0.2742 -0.2584
  667MOL0     H90008  11.503   4.057   3.114  2.0774  1.1042 -0.3226
  667MOL0     H90009  11.691   4.187   3.137 -1.5873 -0.5144 -1.4886
  667MOL0     H90010  11.742   4.011   3.161  1.2839 -0.7296 -0.8815
  667MOL0     H90011  11.910   4.264   3.057  0.0672  0.1477  0.4549
  667MOL0     H90012  11.924   4.202   3.227  1.0534 -5.4011  1.2472
  667MOL0     H90013  12.068   4.044   3.165 -0.1430 -1.1925 -0.1443
  667MOL0     H90014  11.964   3.998   3.020 -2.9932 -0.1858  0.6617
  667MOL0     H90015  12.154   4.235   3.004 -1.6462  1.3587 -2.4480
  667MOL0     H90016  12.060   4.147   2.878 -1.3916 -0.4582  1.1464
  667MOL0     H90017  12.245   3.999   3.067 -1.3303 -0.8285 -0.2678
  667MOL0     H90018  12.334   4.110   2.970  0.1295  0.5925 -0.0763
  667MOL0     H90019  12.135   3.887   2.884 -0.2878 -0.6367 -1.5264
  667MOL0     H90020  12.201   3.992   2.761 -1.1097 -4.1660 -2.1349
  667MOL0     H90021  12.356   3.813   2.970 -3.6938 -1.7600 -1.0726
  667MOL0     H90022  12.435   3.928   2.860 -2.1791  2.8132  0.0731
  667MOL0     H90023  12.238   3.701   2.787  0.7777 -1.0511 -0.3869
  667MOL0     H90024  12.322   3.798   2.670 -4.9496  0.6869  0.4167
  667MOL0     H90025  11.683   4.010   2.749 -1.4688 -0.5206 -2.5091
  667MOL0     H90026  11.498   3.863   2.669 -0.3681 -2.9931  1.6789
  667MOL0     H90027  11.042   3.729   2.774 -1.1687 -0.8453  0.8620
  667MOL0     H90028  10.863   3.611   2.679  0.1862  0.7735  1.7167
  667MOL0     H90029   9.567   2.189   2.993  0.4672  2.6782 -2.4138
  667MOL0     H90030   9.316   2.139   2.934  1.7603 -2.2903  1.8879
  667MOL0     H90031   8.879   2.388   2.973  0.2717 -2.7825  1.1593
  667MOL0     H90032   8.642   2.353   2.930 -0.4621  2.7335 -2.7042
  667MOL0     H90033   8.416   2.342   2.766  1.2335  0.7765  1.3416
  667MOL0     H90034   8.450   2.227   2.898 -3.7434  0.0486  0.5446
  667MOL0     H90035   8.227   2.205   2.788  0.2803  0.9900 -0.6998
  667MOL0     H90036   8.311   2.049   2.782 -2.6520 -0.0259  0.9795
  667MOL0     H90037   8.388   2.091   2.550 -0.2542 -0.0038  0.5520
  667MOL0     H90038   8.289   2.242   2.550  0.8893  0.4835 -0.9893
  667MOL0     H90039   8.199   1.954   2.607 -1.1740 -0.4368 -0.3192
  667MOL0     H90040   8.094   2.095   2.610 -2.3186 -0.1624 -2.2765
  667MOL0     H90041   8.109   1.990   2.210  0.6002  0.2717  0.3060
  667MOL0     H90042   8.751   2.136   2.575  2.0525 -0.1639 -0.8253
  667MOL0     H90043   9.076   2.116   2.623 -0.9699  0.2343 -0.2320
  667MOL0     H90044   8.957   2.112   2.497 -1.3371 -1.0664  1.1766
  667MOL0     H90045   9.057   2.261   2.531  1.9075 -1.6458 -2.0975
  668MOL0     O90046  10.660   1.257   6.880  0.5965 -0.0573  0.3373
  668MOL0     C90047  10.538   1.274   6.875 -0.4799  0.4576  0.2539
  668MOL0     O90048  10.474   1.375   6.823  0.4402 -0.2804  0.1688
  668MOL0     C90049  10.546   1.445   6.733 -0.1116 -0.2636  0.4072
  668MOL0     C90050  10.529   1.429   6.595 -0.6542 -0.8231 -0.0413
  668MOL0     C90051  10.598   1.523   6.510  0.9229 -0.2935 -0.4011
  668MOL0     C90052  10.677   1.623   6.565 -0.4469  0.1748  0.3351
  668MOL0     O90053  10.736   1.718   6.490 -0.5322 -0.2441 -0.0722
  668MOL0     C90054  10.652   1.826   6.475 -0.5039  0.7828 -0.5049
  668MOL0     C90055  10.725   1.961   6.436 -0.5117  0.3307 -0.2731
  668MOL0     C90056  10.809   2.004   6.547 -0.2505  0.4532 -1.1339
  668MOL0     C90057  10.905   2.121   6.511  0.0845 -0.1856 -0.3438
  668MOL0     C90058  11.017   2.140   6.623 -0.4513  0.9554 -0.2706
  668MOL0     C90059  11.119   2.239   6.565 -0.7543  0.0970  0.0165
  668MOL0     C90060  11.195   2.291   6.676 -0.0092  0.3049  0.3598
  668MOL0     C90061  11.301   2.396   6.629 -0.0936  0.6423  0.2275
  668MOL0     N90062  11.428   2.324   6.593  0.3596 -0.7214 -0.3078
  668MOL0     C90063  11.444   2.259   6.472 -0.1735 -0.5082 -0.8090
  668MOL0     C90064  11.579   2.247   6.461 -0.1820 -0.0832  0.1077
  668MOL0     C90065  11.647   2.183   6.341 -0.0063 -0.6585  0.3295
  668MOL0     C90066  11.766   2.255   6.288 -0.1065 -0.5715 -0.4168
  668MOL0     C90067  11.883   2.229   6.379  0.2423  0.0316 -0.1707
  668MOL0     C90068  11.991   2.306   6.319 -0.2777 -0.2229 -0.6576
  668MOL0     O90069  12.106   2.243   6.381 -0.4017  0.0043 -0.2306
  668MOL0     C90070  12.218   2.318   6.381  0.3182 -0.3028 -0.1397
  668MOL0     C90071  12.236   2.433   6.302  0.2176 -0.2528  0.1490
  668MOL0     C90072  12.363   2.498   6.297  0.7026  0.1929  0.0286
  668MOL0     C90073  12.476   2.461   6.368  0.6058 -0.2874 -0.0723
  668MOL0     C90074  12.601   2.536   6.354  0.5610  0.6746  0.0033
  668MOL0     O90075  12.703   2.471   6.415 -0.5496  0.1308 -0.4880
  668MOL0     C90076  12.832   2.521   6.411  0.5751 -0.0064 -1.2545
  668MOL0     C90077  12.864   2.659   6.435 -0.1463 -0.2150 -0.0733
  668MOL0     C90078  12.994   2.709   6.413  0.2083 -0.6384  0.3096
  668MOL0     C90079  13.100   2.623   6.359 -0.1050 -0.7582  0.1007
  668MOL0     O90080  13.230   2.650   6.335 -0.1140  0.2023 -0.0108
  668MOL0     C90081  13.273   2.782   6.289  0.8851 -0.1338  0.4142
  668MOL0     C90082  13.352   2.840   6.406 -0.4280 -0.1772  0.2650
  668MOL0     C90083  13.503   2.823   6.372  0.1434 -0.2739  0.0687
  668MOL0     C90084  13.559   2.685   6.389  0.4613 -0.6951  0.1751
  668MOL0     C90085  13.715   2.689   6.385  0.1188 -0.1767 -0.2431
  668MOL0     C90086  13.777   2.731   6.250  0.6198 -0.4105 -0.0074
  668MOL0     C90087  13.927   2.757   6.252  1.0606 -1.0457 -0.1870
  668MOL0     C90088  13.962   2.904   6.312  0.1235  0.1330  0.6023
  668MOL0    Cl90089  14.134   2.920   6.330 -0.5158  0.3116  0.1363
  668MOL0     C90090  13.061   2.491   6.347  1.0657 -0.2497 -1.1792
  668MOL0     C90091  12.932   2.437   6.379 -0.2056 -1.0929  0.4217
  668MOL0     O90092  12.608   2.639   6.294  0.1422  0.1460 -0.1539
  668MOL0     C90093  12.459   2.335   6.437 -0.1387 -0.5362 -0.2749
  668MOL0     C90094  12.332   2.266   6.441 -0.2678  0.2132 -0.3196
  668MOL0     N90095  11.639   2.295   6.571  0.6068 -0.0887 -0.4511
  668MOL0     N90096  11.548   2.340   6.655  0.0789  0.2237 -0.0907
  668MOL0     C90097  10.701   1.625   6.698 -0.5088 -0.2246 -0.3935
  668MOL0     C90098  10.633   1.541   6.785 -0.0936  0.4554  0.9020
  668MOL0     C90099  10.459   1.169   6.955 -0.0439  1.0314  0.1103
  668MOL0     C90100  10.327   1.190   6.965  0.2989  0.5506  0.9286
  668MOL0     C90101  10.238   1.101   7.032  0.2377  0.0478  0.2113
  668MOL0     C90102  10.285   0.987   7.106 -1.0711 -0.1470 -0.3992
  668MOL0     O90103  10.208   0.897   7.176 -0.1657 -0.6116  0.3567
  668MOL0     C90104  10.061   0.928   7.195  0.3551  0.7700  0.3780
  668MOL0     C90105  10.008   0.783   7.213  0.4782 -0.5792  0.3444
  668MOL0     C90106  10.056   0.706   7.344  0.0593 -0.1613  0.0761
  668MOL0     C90107   9.956   0.718   7.471  0.6915 -0.0720  0.4595
  668MOL0     C90108  10.002   0.632   7.575 -0.6088  0.6283 -0.3716
  668MOL0     C90109  10.047   0.551   7.655  0.1529  0.5315  0.7412
  668MOL0     C90110  10.422   0.972   7.100  0.0862  0.6868 -0.5507
  668MOL0     C90111  10.510   1.053   7.030 -0.0595 -0.2601  0.4983
  668MOL0     C90112  10.659   1.010   7.034  0.6289 -0.0349  0.8456
  668MOL0     H90113  10.467   1.354   6.548  1.9798 -3.1435 -0.0580
  668MOL0     H90114  10.583   1.521   6.402 -1.6872 -3.0600 -0.1184
  668MOL0     H90115  10.591   1.793   6.390 -2.4741  2.2220  0.2691
  668MOL0     H90116  10.596   1.843   6.567  0.2549 -1.1613  0.3675
  668MOL0     H90117  10.647   2.035   6.416 -0.6241  0.3268  0.1319
  668MOL0     H90118  10.783   1.947   6.344  0.4140  1.8811  0.0597
  668MOL0     H90119  10.866   1.916   6.577 -0.0063  1.4160  1.5337
  668MOL0     H90120  10.748   2.040   6.631  0.3309 -1.6203  0.2487
  668MOL0     H90121  10.953   2.107   6.414  1.9258 -1.8274  0.7261
  668MOL0     H90122  10.853   2.217   6.511  1.4170  0.6992  3.2529
  668MOL0     H90123  10.979   2.180   6.718 -0.4031 -1.8099  1.0146
  668MOL0     H90124  11.056   2.040   6.646 -1.9836  0.0556 -1.3868
  668MOL0     H90125  11.188   2.201   6.489  0.0548  0.6619  0.4578
  668MOL0     H90126  11.059   2.313   6.511  3.0123  0.4795 -4.2611
  668MOL0     H90127  11.244   2.221   6.744 -0.3194 -1.8899 -1.5492
  668MOL0     H90128  11.122   2.345   6.736 -1.9101 -0.9553 -0.7115
  668MOL0     H90129  11.275   2.454   6.540  0.7155  3.3420  1.6363
  668MOL0     H90130  11.318   2.476   6.701  1.3625  0.3491  0.2440
  668MOL0     H90131  11.370   2.234   6.397  0.5785 -1.3427 -1.2958
  668MOL0     H90132  11.689   2.085   6.366  1.7567 -0.2773 -0.9630
  668MOL0     H90133  11.567   2.174   6.267  0.6096 -0.7291 -0.3363
  668MOL0     H90134  11.793   2.205   6.194  0.3852 -2.2445  0.5627
  668MOL0     H90135  11.734   2.358   6.272 -2.3790 -0.8493  1.5908
  668MOL0     H90136  11.902   2.123   6.361 -0.9442 -0.1226 -0.6093
  668MOL0     H90137  11.865   2.254   6.484 -0.2912  0.0959 -0.2766
  668MOL0     H90138  11.974   2.412   6.335  2.5834  0.2203 -0.0292
  668MOL0     H90139  12.007   2.293   6.212  2.4733  2.2276 -0.6637
  668MOL0     H90140  12.158   2.467   6.235 -0.8255  0.0626  1.4955
  668MOL0     H90141  12.374   2.583   6.230  5.0036 -1.0599 -1.2292
  668MOL0     H90142  12.795   2.733   6.473 -1.8339 -0.9013 -1.6342
  668MOL0     H90143  13.019   2.814   6.421 -1.0857 -0.3468  0.6224
  668MOL0     H90144  13.331   2.777   6.197  0.0450  0.1844 -0.1471
  668MOL0     H90145  13.186   2.840   6.258  1.0350 -0.7569 -1.2477
  668MOL0     H90146  13.328   2.947   6.417 -2.6268 -0.7427  1.5954
  668MOL0     H90147  13.322   2.796   6.502  1.5902 -0.3632  0.8455
  668MOL0     H90148  13.521   2.864   6.273 -0.0962 -1.0588 -0.3127
  668MOL0     H90149  13.567   2.882   6.438 -1.9613 -0.8166  2.8081
  668MOL0     H90150  13.519   2.627   6.305  0.9250 -0.1285 -0.4429
  668MOL0     H90151  13.521   2.644   6.484 -4.0545  2.0310 -0.1603
  668MOL0     H90152  13.746   2.592   6.425 -1.7306  0.0775  2.0578
  668MOL0     H90153  13.752   2.771   6.447  0.0870 -0.9703  0.8577
  668MOL0     H90154  13.752   2.655   6.175 -0.9388 -1.3095  1.3464
  668MOL0     H90155  13.730   2.820   6.207 -0.7071 -0.9166  0.3186
  668MOL0     H90156  13.956   2.767   6.147 -3.3993  0.5334 -1.4855
  668MOL0     H90157  13.981   2.687   6.317  1.2637  0.7651  1.7270
  668MOL0     H90158  13.915   2.985   6.254  1.0236 -0.5075 -1.0895
  668MOL0     H90159  13.915   2.914   6.411 -1.6193 -0.5936 -0.1030
  668MOL0     H90160  13.127   2.413   6.310 -1.0068 -3.0563  0.5976
  668MOL0     H90161  12.898   2.335   6.361  0.7404 -1.8425  2.5828
  668MOL0     H90162  12.544   2.290   6.486  0.7811  0.0998 -1.2281
  668MOL0     H90163  12.326   2.182   6.509  2.1106 -0.4569 -0.8530
  668MOL0     H90164  10.770   1.698   6.741 -1.0595  0.5963 -0.8732
  668MOL0     H90165  10.649   1.547   6.893  1.1719  0.9860  0.7102
  668MOL0     H90166  10.284   1.275   6.913  2.1607  0.7674 -0.3635
  668MOL0     H90167  10.132   1.122   7.025  0.5492  2.4985  1.7734
  668MOL0     H90168  10.020   0.981   7.109 -0.3326 -2.5657 -1.5227
  668MOL0     H90169  10.031   0.987   7.282  1.1017  2.7883 -0.6870
  668MOL0     H90170  10.048   0.727   7.128  1.2876  1.4581 -0.6938
  668MOL0     H90171   9.899   0.778   7.204  0.5314 -2.0488  0.3094
  668MOL0     H90172  10.156   0.731   7.381 -0.8059 -1.0650  3.3252
  668MOL0     H90173  10.066   0.599   7.324  1.1580  0.1604 -1.3524
  668MOL0     H90174   9.942   0.822   7.502  1.2716  0.1919 -0.1355
  668MOL0     H90175   9.853   0.698   7.439  1.6452 -0.9575 -2.3181
  668MOL0     H90176  10.095   0.485   7.725 -0.0270 -2.1352 -1.4976
  668MOL0     H90177  10.459   0.889   7.159  0.9282 -0.5029 -2.6257
  668MOL0     H90178  10.720   1.085   7.086 -0.0558 -0.7383  2.7479
  668MOL0     H90179  10.682   0.912   7.077  1.0295 -2.1236 -3.5905
  668MOL0     H90180  10.693   1.004   6.930 -0.8181  0.2058  0.3424
  669MOL0     O90181   2.390   6.208   3.025 -0.5999 -0.2435 -0.2894
  669MOL0     C90182   2.366   6.276   3.122  0.4727 -0.0312 -0.6031
  669MOL0     O90183   2.453   6.373   3.165  0.4276  0.2898 -0.0404
  669MOL0     C90184   2.562   6.398   3.091 -0.3855 -0.5744 -1.1540
  669MOL0     C90185   2.546   6.441   2.955 -0.7576  0.8364 -1.4737
  669MOL0     C90186   2.657   6.503   2.898  0.5228  0.5078 -0.1119
  669MOL0     C90187   2.780   6.515   2.964  0.2231 -0.0160  0.0787
  669MOL0     O90188   2.877   6.583   2.891 -0.7429 -0.1588  0.1484
  669MOL0     C90189   3.013   6.574   2.951 -0.9241 -0.3417  0.9142
  669MOL0     C90190   3.115   6.638   2.857  0.5266  0.3942 -0.4042
  669MOL0     C90191   3.254   6.651   2.922 -0.0931  0.3166  0.3143
  669MOL0     C90192   3.324   6.764   2.835  0.2678 -0.2427  0.2038
  669MOL0     C90193   3.459   6.794   2.886 -1.2095 -0.1526  0.1362
  669MOL0     C90194   3.515   6.907   2.793 -0.1000  0.0049 -0.3352
  669MOL0     C90195   3.652   6.951   2.848  0.2765 -0.2752  1.0741
  669MOL0     C90196   3.709   7.066   2.762  0.5362  0.7489  0.4497
  669MOL0     N90197   3.846   7.103   2.793 -0.8842 -0.7529  0.8556
  669MOL0     C90198   3.946   7.008   2.782  0.3138  0.2195 -0.0478
  669MOL0     C90199   4.066   7.078   2.807  0.9718 -0.4827 -0.6649
  669MOL0     C90200   4.201   7.016   2.779  0.0737 -0.4141 -0.1802
  669MOL0     C90201   4.242   7.008   2.638 -0.6080 -0.3143  0.0379
  669MOL0     C90202   4.393   7.014   2.612  0.4512 -0.0189  0.1485
  669MOL0     C90203   4.471   6.887   2.655  0.2320  0.6480  0.5034
  669MOL0     O90204   4.612   6.905   2.638  0.2635 -0.4908 -0.2349
  669MOL0     C90205   4.694   6.960   2.733  0.4090 -0.4813 -0.2673
  669MOL0     C90206   4.831   6.966   2.692  0.1950  0.0376  0.1784
  669MOL0     C90207   4.920   7.005   2.790 -0.1846 -0.3924  0.7090
  669MOL0     C90208   4.878   7.056   2.912 -0.1536 -0.6446 -0.0880
  669MOL0     C90209   4.973   7.100   3.017  0.3694  0.5797 -0.4051
  669MOL0     O90210   4.943   7.081   3.144  0.2832 -0.0551 -0.0653
  669MOL0     C90211   5.036   7.118   3.244 -0.3057  0.3261  0.0001
  669MOL0     C90212   5.137   7.215   3.226  0.0110  0.1089 -0.6042
  669MOL0     C90213   5.218   7.239   3.331 -0.4435  0.1907 -0.1178
  669MOL0     C90214   5.203   7.187   3.460 -0.6753  0.8386  0.0817
  669MOL0     O90215   5.286   7.198   3.568 -0.0250  0.2518 -0.1213
  669MOL0     C90216   5.410   7.257   3.536  0.4188 -0.4515 -0.1198
  669MOL0     C90217   5.493   7.256   3.655 -0.1900  0.1086 -0.9517
  669MOL0     C90218   5.635   7.295   3.638  0.3480  0.2229 -0.5147
  669MOL0     C90219   5.654   7.444   3.616  0.2588 -0.5643  1.0465
  669MOL0     C90220   5.794   7.475   3.543  0.2543 -0.7063  0.0891
  669MOL0     C90221   5.926   7.412   3.604  0.6605 -0.3258 -1.1230
  669MOL0     C90222   6.058   7.464   3.538  0.2427  0.0629 -0.0491
  669MOL0     C90223   6.190   7.400   3.587  0.4109  0.6386 -0.5052
  669MOL0    Cl90224   6.189   7.223   3.597  0.3317 -0.5006 -0.0286
  669MOL0     C90225   5.096   7.095   3.479 -0.2234  0.5737 -0.0800
  669MOL0     C90226   5.013   7.053   3.370  0.7327 -0.3656 -0.6540
  669MOL0     O90227   5.085   7.125   2.976 -1.4080  0.3026 -0.4932
  669MOL0     C90228   4.743   7.061   2.944  0.2191  0.5667 -0.2992
  669MOL0     C90229   4.650   7.012   2.851  0.6517  0.3936 -1.2646
  669MOL0     N90230   4.037   7.205   2.835 -0.4459  0.1938 -0.4891
  669MOL0     N90231   3.905   7.223   2.823 -0.3763  0.1559 -0.5585
  669MOL0     C90232   2.788   6.465   3.095 -0.3722  0.7745 -0.2554
  669MOL0     C90233   2.682   6.412   3.159 -0.5962 -1.2146 -0.5194
  669MOL0     C90234   2.228   6.250   3.188 -0.8024 -1.0627 -1.0287
  669MOL0     C90235   2.150   6.148   3.147 -0.1275 -0.2285 -0.6269
  669MOL0     C90236   2.030   6.120   3.214  0.3736  0.8717 -0.1959
  669MOL0     C90237   1.970   6.203   3.311  0.4290  0.5869 -0.5577
  669MOL0     O90238   1.854   6.179   3.379 -0.0275  0.3411 -0.0542
  669MOL0     C90239   1.788   6.047   3.384  0.0110 -0.0854 -0.8007
  669MOL0     C90240   1.712   6.020   3.253  0.2935  0.0473 -0.9666
  669MOL0     C90241   1.598   6.123   3.226  0.9247 -0.5123 -0.3387
  669MOL0     C90242   1.498   6.070   3.120  1.9267  0.6211 -1.8472
  669MOL0     C90243   1.560   6.071   2.994 -0.5169  0.2832  0.0997
  669MOL0     C90244   1.608   6.057   2.878  1.6919 -0.6516 -0.2501
  669MOL0     C90245   2.053   6.302   3.349  0.3670  0.0545  0.0646
  669MOL0     C90246   2.180   6.326   3.297 -0.5469 -0.6894 -0.3896
  669MOL0     C90247   2.258   6.438   3.355  0.4442  0.7587 -0.3687
  669MOL0     H90248   2.455   6.436   2.895  0.0955 -1.5573 -2.6637
  669MOL0     H90249   2.636   6.556   2.806 -3.7980  1.7401  1.3090
  669MOL0     H90250   3.022   6.633   3.042 -1.1893  0.1728  0.6127
  669MOL0     H90251   3.029   6.468   2.971 -2.6644 -0.9660 -0.6504
  669MOL0     H90252   3.064   6.734   2.846  0.6601  0.5279  0.1113
  669MOL0     H90253   3.123   6.588   2.760 -1.3777  3.3654 -2.2624
  669MOL0     H90254   3.318   6.564   2.930 -1.2788 -0.6625 -0.4556
  669MOL0     H90255   3.234   6.690   3.022  2.2495  2.0835  0.1756
  669MOL0     H90256   3.326   6.744   2.727 -1.9164  3.2878 -0.6390
  669MOL0     H90257   3.268   6.858   2.827  1.7499  0.9209  2.5706
  669MOL0     H90258   3.460   6.833   2.989  1.4923  0.6990 -0.1325
  669MOL0     H90259   3.521   6.705   2.867 -0.6235  0.5763 -1.4805
  669MOL0     H90260   3.529   6.872   2.690 -0.1160  2.4725 -1.2532
  669MOL0     H90261   3.439   6.986   2.787 -0.0801  0.1737  1.1959
  669MOL0     H90262   3.715   6.862   2.842  1.8423  0.9115 -2.4541
  669MOL0     H90263   3.640   6.986   2.951 -1.1759  1.9621  0.2137
  669MOL0     H90264   3.695   7.028   2.660 -4.5624 -1.5916  1.6965
  669MOL0     H90265   3.642   7.153   2.764 -1.4648 -0.6012 -1.9689
  669MOL0     H90266   3.942   6.909   2.738  2.7704 -0.7582  1.7079
  669MOL0     H90267   4.275   7.072   2.837 -0.1368 -0.6191  0.2892
  669MOL0     H90268   4.203   6.918   2.826 -0.2943  0.6689  2.2575
  669MOL0     H90269   4.203   6.915   2.595 -1.3094 -0.8255  1.6996
  669MOL0     H90270   4.186   7.091   2.594  1.3839 -0.2877 -2.7153
  669MOL0     H90271   4.439   7.103   2.654  0.0405  0.9265 -1.3174
  669MOL0     H90272   4.413   7.024   2.505  0.5448  0.0252  0.1699
  669MOL0     H90273   4.443   6.801   2.593 -0.5310  1.4458 -0.2926
  669MOL0     H90274   4.436   6.856   2.753 -0.5915  0.2680  0.0993
  669MOL0     H90275   4.863   6.924   2.598  2.3345 -1.3470  1.4472
  669MOL0     H90276   5.024   7.004   2.756  0.3005  0.3143  2.1091
  669MOL0     H90277   5.139   7.270   3.132 -1.5415  1.7952  0.2767
  669MOL0     H90278   5.306   7.303   3.322 -0.8450  1.0824  1.7198
  669MOL0     H90279   5.454   7.196   3.457 -1.8400 -0.4006 -1.4906
  669MOL0     H90280   5.401   7.356   3.491  1.9813 -1.7192 -3.5697
  669MOL0     H90281   5.446   7.308   3.739  0.1382  1.4495 -1.5719
  669MOL0     H90282   5.500   7.152   3.687 -1.4178  0.6704  1.3185
  669MOL0     H90283   5.695   7.266   3.725  2.0716  1.5751 -1.1650
  669MOL0     H90284   5.681   7.237   3.557 -0.9063  2.1596 -2.7678
  669MOL0     H90285   5.660   7.495   3.712 -0.9672  1.3641  0.1508
  669MOL0     H90286   5.578   7.491   3.553  2.1747 -0.8716 -1.6510
  669MOL0     H90287   5.814   7.583   3.540  1.5671 -0.8836  1.2978
  669MOL0     H90288   5.777   7.434   3.443 -1.6416  0.0333  0.0609
  669MOL0     H90289   5.926   7.445   3.709  2.0995 -2.7854 -0.2679
  669MOL0     H90290   5.921   7.304   3.596  1.9808 -0.4686 -0.4074
  669MOL0     H90291   6.060   7.574   3.539 -1.9232  0.2313 -2.6331
  669MOL0     H90292   6.059   7.438   3.432 -0.5764 -2.0918  0.4308
  669MOL0     H90293   6.278   7.430   3.529  0.3987  0.1348 -0.7869
  669MOL0     H90294   6.199   7.438   3.689 -0.2689  2.2610 -1.0153
  669MOL0     H90295   5.069   7.054   3.576 -0.1795  0.6695 -0.0270
  669MOL0     H90296   4.946   6.969   3.360  0.0022 -0.0196  1.0142
  669MOL0     H90297   4.706   7.093   3.041  0.1056  0.4335 -0.2983
  669MOL0     H90298   4.545   7.022   2.875  0.5149 -0.0177 -1.6699
  669MOL0     H90299   2.879   6.462   3.155 -0.0529 -1.7886 -0.7425
  669MOL0     H90300   2.702   6.387   3.263  0.8848  0.1684 -0.4191
  669MOL0     H90301   2.183   6.084   3.066 -1.2382 -3.2682  1.1553
  669MOL0     H90302   1.989   6.028   3.173 -2.3395  1.4993  0.9239
  669MOL0     H90303   1.719   6.033   3.467  1.9489  0.3712  0.9476
  669MOL0     H90304   1.869   5.977   3.406 -1.6346 -2.4237 -1.8058
  669MOL0     H90305   1.664   5.923   3.259  0.1947  0.0406 -1.7164
  669MOL0     H90306   1.774   6.011   3.162  2.2415 -0.3804  0.3403
  669MOL0     H90307   1.629   6.222   3.193 -1.7451  0.3727 -0.4078
  669MOL0     H90308   1.534   6.129   3.314 -0.6215 -2.4351 -1.2333
  669MOL0     H90309   1.475   5.967   3.150  1.4885  1.2072 -0.0757
  669MOL0     H90310   1.405   6.127   3.116  0.8532 -0.9411 -0.2256
  669MOL0     H90311   1.654   6.058   2.782  1.1901 -0.1435 -0.4912
  669MOL0     H90312   2.003   6.371   3.416 -3.0368 -0.5442 -1.6132
  669MOL0     H90313   2.214   6.496   3.437  1.6873  1.2739 -0.0373
  669MOL0     H90314   2.352   6.400   3.396  0.5075 -0.9591 -1.9783
  669MOL0     H90315   2.275   6.513   3.277  0.3429 -0.4380 -1.5709
  670MOL0     O90316  10.041   8.596   6.441  0.2993 -0.3500  0.2210
  670MOL0     C90317  10.058   8.478   6.413 -0.4731 -0.5360  0.1049
  670MOL0     O90318  10.181   8.427   6.370 -0.2716 -0.3253  0.2865
  670MOL0     C90319  10.298   8.502   6.374 -0.3280  0.0742  0.1606
  670MOL0     C90320  10.401   8.465   6.283  0.1090  0.7621 -0.0507
  670MOL0     C90321  10.519   8.536   6.277 -0.7528 -0.3146 -0.5052
  670MOL0     C90322  10.540   8.646   6.359 -0.1995  0.2826 -0.9832
  670MOL0     O90323  10.669   8.692   6.344  0.2542  0.4498  0.0797
  670MOL0     C90324  10.671   8.834   6.367 -0.2818 -0.0235  0.2941
  670MOL0     C90325  10.784   8.916   6.298 -0.2404 -0.3551 -0.3065
  670MOL0     C90326  10.780   8.899   6.144 -0.1208  0.7015  0.0778
  670MOL0     C90327  10.882   8.990   6.075  0.3734 -0.1338  0.3951
  670MOL0     C90328  10.926   8.942   5.934 -0.0214  0.1181 -0.6369
  670MOL0     C90329  11.003   8.803   5.935 -0.4190  0.1254  0.3533
  670MOL0     C90330  11.066   8.762   5.797  0.1289 -0.7643  0.2325
  670MOL0     C90331  11.133   8.879   5.729  0.2564 -0.2445  0.3869
  670MOL0     N90332  11.242   8.831   5.641  0.8165  0.2554  0.2256
  670MOL0     C90333  11.229   8.809   5.507 -0.0254  0.0834 -0.7073
  670MOL0     C90334  11.348   8.754   5.472 -0.5026 -0.1480  0.1712
  670MOL0     C90335  11.386   8.715   5.332 -0.2169  0.0515  0.0845
  670MOL0     C90336  11.525   8.761   5.295 -1.0460  0.0775  0.1636
  670MOL0     C90337  11.580   8.686   5.177 -0.0021 -0.1733 -0.0297
  670MOL0     C90338  11.735   8.704   5.158  0.4097  0.0738 -0.0690
  670MOL0     O90339  11.761   8.844   5.176 -0.3310  0.4625  0.2983
  670MOL0     C90340  11.895   8.877   5.185 -0.1964 -0.7044 -0.4621
  670MOL0     C90341  11.925   9.012   5.208  0.9142  0.2281 -0.0192
  670MOL0     C90342  12.049   9.051   5.236  0.8848  0.6018  0.0074
  670MOL0     C90343  12.160   8.958   5.235  0.7540  0.3919 -0.3508
  670MOL0     C90344  12.299   8.995   5.265 -0.0709 -1.0241 -1.1802
  670MOL0     O90345  12.319   9.116   5.333 -0.1046 -0.5165 -0.0391
  670MOL0     C90346  12.443   9.160   5.371  0.4912 -0.4528  0.4202
  670MOL0     C90347  12.559   9.144   5.308 -0.7708  0.3007 -0.7594
  670MOL0     C90348  12.682   9.205   5.354 -0.0152  0.3837  0.1504
  670MOL0     C90349  12.680   9.280   5.470  0.4629  0.7332 -0.7044
  670MOL0     O90350  12.789   9.351   5.505 -0.3286 -0.1101 -0.2377
  670MOL0     C90351  12.796   9.434   5.623  0.2596  0.4300  0.1766
  670MOL0     C90352  12.940   9.484   5.624  0.6821 -0.0806  0.2119
  670MOL0     C90353  12.956   9.598   5.734 -0.1158  0.7463  0.3686
  670MOL0     C90354  13.085   9.674   5.707 -0.7911 -0.0869 -0.8149
  670MOL0     C90355  13.100   9.802   5.793  0.1822 -0.4201 -0.2648
  670MOL0     C90356  13.234   9.868   5.795  0.4280 -0.4063  0.1018
  670MOL0     C90357  13.221   9.981   5.894 -0.3838 -0.6806 -0.4957
  670MOL0     C90358  13.355  10.051   5.894  0.2833  0.0396  1.5451
  670MOL0    Cl90359  13.348  10.202   5.992  0.0900  0.6722  0.4103
  670MOL0     C90360  12.560   9.286   5.542 -0.5234 -0.0776  0.0288
  670MOL0     C90361  12.444   9.233   5.490  0.2401  0.5191  0.4615
  670MOL0     O90362  12.382   8.905   5.254  0.1145 -0.6266 -0.4840
  670MOL0     C90363  12.129   8.826   5.207  0.1804  0.9039 -0.0320
  670MOL0     C90364  12.001   8.786   5.175  0.1775 -0.0465  0.3779
  670MOL0     N90365  11.425   8.740   5.591  0.0088  0.5345 -0.6084
  670MOL0     N90366  11.366   8.790   5.691 -0.0525  1.1876 -0.3355
  670MOL0     C90367  10.448   8.678   6.458 -0.2211  1.0242  0.4058
  670MOL0     C90368  10.330   8.602   6.462 -0.0254  0.5118  0.2093
  670MOL0     C90369   9.951   8.373   6.435 -0.1494  0.1923 -0.3127
  670MOL0     C90370   9.978   8.243   6.396  0.0735 -0.7205 -0.4303
  670MOL0     C90371   9.891   8.130   6.411 -0.3013  0.6057 -0.2622
  670MOL0     C90372   9.760   8.160   6.454 -0.0084  0.1928 -0.2365
  670MOL0     O90373   9.676   8.050   6.454 -0.4177 -0.3480  0.1504
  670MOL0     C90374   9.544   8.072   6.492 -0.2047  0.0417  0.1576
  670MOL0     C90375   9.467   7.944   6.477 -0.0547  0.2037 -0.2236
  670MOL0     C90376   9.334   7.948   6.538 -1.0085  0.1591 -0.1954
  670MOL0     C90377   9.235   8.042   6.478  0.1281  0.0861 -0.1403
  670MOL0     C90378   9.111   8.044   6.563 -0.2983  0.3977  0.3362
  670MOL0     C90379   9.012   8.033   6.632  0.5420 -0.1885  0.0937
  670MOL0     C90380   9.728   8.300   6.484 -1.1023  0.8796 -0.0782
  670MOL0     C90381   9.820   8.405   6.473  0.5497 -0.8404  0.5297
  670MOL0     C90382   9.770   8.534   6.531 -1.0033  0.3036  0.3668
  670MOL0     H90383  10.384   8.381   6.216 -1.8670  3.2558 -2.9280
  670MOL0     H90384  10.600   8.500   6.215  3.0125  0.3737  3.5053
  670MOL0     H90385  10.579   8.877   6.327 -0.3288 -0.8308 -0.5145
  670MOL0     H90386  10.678   8.865   6.472 -3.8134  1.0363  0.3366
  670MOL0     H90387  10.882   8.895   6.341  0.3666  1.9651 -0.4004
  670MOL0     H90388  10.758   9.020   6.318  1.6095  0.1589 -0.3644
  670MOL0     H90389  10.681   8.919   6.102  0.4542  0.5275 -1.4212
  670MOL0     H90390  10.810   8.796   6.119 -0.4128  0.7301 -0.4035
  670MOL0     H90391  10.836   9.088   6.062 -0.0605 -0.6452 -2.6843
  670MOL0     H90392  10.973   8.997   6.136  1.2358  0.5649 -0.9198
  670MOL0     H90393  10.836   8.935   5.872  0.0275 -0.6858 -0.6263
  670MOL0     H90394  10.996   9.018   5.897  2.9540 -1.7558  0.7756
  670MOL0     H90395  11.085   8.809   6.007 -1.5515 -0.9653  1.7896
  670MOL0     H90396  10.940   8.720   5.970  0.4857 -1.4780 -1.6151
  670MOL0     H90397  10.987   8.735   5.726  1.3200  1.3354 -1.9923
  670MOL0     H90398  11.127   8.672   5.812 -0.4469 -1.0958  0.6665
  670MOL0     H90399  11.059   8.936   5.672  1.6806  1.2065 -0.0808
  670MOL0     H90400  11.175   8.954   5.797  0.8367 -1.1594  1.0731
  670MOL0     H90401  11.151   8.838   5.437 -0.6911 -1.3717 -0.5916
  670MOL0     H90402  11.379   8.606   5.324 -0.6984 -0.0118  1.1658
  670MOL0     H90403  11.317   8.749   5.255 -0.3542 -0.3191  0.0386
  670MOL0     H90404  11.532   8.870   5.287  0.6912 -0.0853 -1.1235
  670MOL0     H90405  11.596   8.746   5.377  1.3764 -0.1239 -1.8777
  670MOL0     H90406  11.530   8.720   5.086 -0.2040  0.7837  0.4261
  670MOL0     H90407  11.562   8.578   5.186  1.1711 -0.4597 -0.8469
  670MOL0     H90408  11.767   8.675   5.057 -3.0883  1.2936 -1.6972
  670MOL0     H90409  11.787   8.650   5.237  1.1512 -1.4490 -1.5411
  670MOL0     H90410  11.847   9.088   5.210  2.0571  1.5402 -1.6856
  670MOL0     H90411  12.075   9.155   5.254  0.5933  0.3182  2.5032
  670MOL0     H90412  12.571   9.097   5.210  0.5812  3.4406 -2.2496
  670MOL0     H90413  12.771   9.190   5.294  1.5556  0.6121  2.3126
  670MOL0     H90414  12.725   9.516   5.635 -3.0954 -1.8705 -2.0500
  670MOL0     H90415  12.785   9.364   5.706  0.4151  2.1380  1.6912
  670MOL0     H90416  13.008   9.400   5.643 -1.4452 -2.4110 -1.7179
  670MOL0     H90417  12.955   9.528   5.524 -1.3367  1.1473  0.3947
  670MOL0     H90418  12.882   9.679   5.729 -1.0318 -0.1102 -0.4661
  670MOL0     H90419  12.956   9.556   5.835  1.4310  3.0747  1.4224
  670MOL0     H90420  13.094   9.698   5.601  3.2479  1.0037 -0.3849
  670MOL0     H90421  13.165   9.602   5.726 -0.3077  0.6242 -0.0727
  670MOL0     H90422  13.078   9.772   5.896 -0.8779 -2.0170 -0.9118
  670MOL0     H90423  13.031   9.877   5.754  0.5610  1.1246  1.8432
  670MOL0     H90424  13.311   9.796   5.823 -1.7806 -2.7245  0.6430
  670MOL0     H90425  13.266   9.905   5.697 -1.0832  1.8721  0.4065
  670MOL0     H90426  13.210   9.950   5.998  2.0899 -3.4784 -0.9292
  670MOL0     H90427  13.135  10.043   5.867 -0.3329 -0.4869 -0.2137
  670MOL0     H90428  13.438   9.988   5.928  0.0053 -1.2803 -0.0796
  670MOL0     H90429  13.364  10.067   5.786 -3.6070  1.2203  1.2612
  670MOL0     H90430  12.557   9.339   5.637  3.3798 -0.5309  0.5717
  670MOL0     H90431  12.345   9.241   5.534 -0.1587  2.0514 -0.6248
  670MOL0     H90432  12.208   8.752   5.210 -0.6949 -0.0398  0.8306
  670MOL0     H90433  11.987   8.683   5.145 -0.6369  0.4387 -1.0412
  670MOL0     H90434  10.473   8.739   6.544 -1.0047 -1.0591  2.1965
  670MOL0     H90435  10.269   8.607   6.552 -0.7881 -0.7978 -0.2001
  670MOL0     H90436  10.081   8.225   6.366  0.6107  0.9276  0.2987
  670MOL0     H90437   9.924   8.028   6.394 -0.9036  0.5133 -0.9001
  670MOL0     H90438   9.493   8.154   6.440  2.4981  2.2463  0.7752
  670MOL0     H90439   9.552   8.104   6.597  0.3820  2.2458 -0.5109
  670MOL0     H90440   9.527   7.868   6.527 -1.1645 -0.8742 -0.4937
  670MOL0     H90441   9.455   7.910   6.373  1.7534 -0.4117 -0.2560
  670MOL0     H90442   9.336   7.969   6.646 -2.1795  0.4212 -0.2141
  670MOL0     H90443   9.302   7.843   6.533 -1.3461  0.2628 -0.2277
  670MOL0     H90444   9.276   8.141   6.452 -2.0232  0.6580 -1.6171
  670MOL0     H90445   9.207   8.009   6.378  1.3913 -0.8641 -0.2092
  670MOL0     H90446   8.919   8.046   6.683 -0.7605 -2.7885 -1.3870
  670MOL0     H90447   9.625   8.323   6.506 -1.5758  0.2553 -1.5710
  670MOL0     H90448   9.817   8.546   6.629 -0.8291 -2.4710  0.7025
  670MOL0     H90449   9.789   8.620   6.465 -0.4020  0.7639  1.1255
  670MOL0     H90450   9.663   8.526   6.550 -1.3337  0.3387 -1.3375
  671MOL0     O90451   1.605   5.317   3.434 -0.4464 -0.6950 -0.2615
  671MOL0     C90452   1.567   5.246   3.341 -0.1917  0.0450 -0.1965
  671MOL0     O90453   1.653   5.191   3.250 -0.9072 -0.3352  0.6925
  671MOL0     C90454   1.787   5.196   3.266  0.0908  0.2457  0.6643
  671MOL0     C90455   1.868   5.314   3.304  0.5515  0.4903  0.3495
  671MOL0     C90456   2.005   5.294   3.325 -0.3672  0.2674 -0.7824
  671MOL0     C90457   2.067   5.171   3.297 -0.1788  0.3946  0.2814
  671MOL0     O90458   2.202   5.157   3.325 -0.0734  0.1196  0.4231
  671MOL0     C90459   2.232   5.167   3.467 -0.2891 -0.0395  0.1347
  671MOL0     C90460   2.273   5.034   3.531  0.5431  0.2293  0.0689
  671MOL0     C90461   2.271   5.032   3.685  0.3069  0.4770  0.2910
  671MOL0     C90462   2.355   5.145   3.741  0.3437  0.1545 -0.0942
  671MOL0     C90463   2.364   5.155   3.895 -0.2887 -0.2305 -0.7067
  671MOL0     C90464   2.463   5.267   3.938 -1.1882  0.1088 -1.0815
  671MOL0     C90465   2.427   5.414   3.893  0.8010 -0.1620  0.2894
  671MOL0     C90466   2.516   5.512   3.963 -0.2016 -0.1188  0.1031
  671MOL0     N90467   2.659   5.489   3.968  0.6228  0.2280 -0.2115
  671MOL0     C90468   2.739   5.523   4.067 -0.0012  0.6800 -0.4984
  671MOL0     C90469   2.861   5.519   4.007  0.4630 -0.5719 -0.4762
  671MOL0     C90470   2.987   5.559   4.070  0.0296 -0.2698 -0.8319
  671MOL0     C90471   3.032   5.430   4.137 -0.8469  1.0811 -0.0275
  671MOL0     C90472   3.151   5.454   4.236  0.1283 -0.6332  0.3085
  671MOL0     C90473   3.221   5.325   4.276 -0.7814 -0.0504  0.7988
  671MOL0     O90474   3.292   5.255   4.162 -0.6264  0.4762 -0.2767
  671MOL0     C90475   3.413   5.297   4.128 -0.0680  0.3908 -0.1067
  671MOL0     C90476   3.462   5.258   4.000 -0.7313  0.5102 -0.4029
  671MOL0     C90477   3.576   5.306   3.947 -0.2783  0.0912 -0.3821
  671MOL0     C90478   3.659   5.390   4.022 -0.0542  0.0603 -0.1492
  671MOL0     C90479   3.788   5.438   3.962  0.0297  0.0008  0.4958
  671MOL0     O90480   3.811   5.407   3.827 -0.4797 -0.2920 -0.1738
  671MOL0     C90481   3.933   5.452   3.773  0.1052  0.3126  0.8918
  671MOL0     C90482   4.057   5.425   3.837  0.6042 -0.8057  0.0271
  671MOL0     C90483   4.170   5.491   3.784 -0.0408  0.4093 -0.2135
  671MOL0     C90484   4.164   5.566   3.672 -0.8130  0.1977 -0.4563
  671MOL0     O90485   4.269   5.642   3.631  0.4159  0.3237 -0.2085
  671MOL0     C90486   4.398   5.646   3.701 -0.0822  0.7533  0.1275
  671MOL0     C90487   4.493   5.747   3.636  0.6479 -0.0470  0.2830
  671MOL0     C90488   4.638   5.727   3.691 -0.5314 -0.5881  0.8503
  671MOL0     C90489   4.640   5.754   3.845  0.2493  0.0978 -0.0789
  671MOL0     C90490   4.778   5.804   3.887 -0.1654 -0.5008  0.4546
  671MOL0     C90491   4.779   5.865   4.027 -0.1941 -0.2817 -0.0058
  671MOL0     C90492   4.923   5.906   4.051 -0.3235  0.7489  0.5523
  671MOL0     C90493   4.934   6.009   4.163 -0.4687 -0.1882 -0.4299
  671MOL0    Cl90494   4.894   6.185   4.119  0.2875 -0.1474 -0.0897
  671MOL0     C90495   4.042   5.580   3.606  0.0749 -0.6104  0.6826
  671MOL0     C90496   3.925   5.524   3.655  1.0908  0.6766  0.2192
  671MOL0     O90497   3.856   5.509   4.032 -0.6590 -0.2189 -0.1746
  671MOL0     C90498   3.613   5.436   4.150 -0.0994 -0.7249 -0.1189
  671MOL0     C90499   3.490   5.392   4.198  0.3312 -0.5199 -0.0557
  671MOL0     N90500   2.853   5.484   3.881  0.2875  0.2450 -0.3070
  671MOL0     N90501   2.731   5.454   3.857  0.0381  0.7499 -0.0630
  671MOL0     C90502   1.993   5.056   3.264  0.2298  0.1109  0.3782
  671MOL0     C90503   1.858   5.071   3.241  0.1576 -0.4571  0.6132
  671MOL0     C90504   1.425   5.224   3.334  0.1255  0.2053  0.4302
  671MOL0     C90505   1.344   5.266   3.448 -0.9861  0.3736  0.1834
  671MOL0     C90506   1.207   5.239   3.453 -0.0856 -1.2074 -0.0690
  671MOL0     C90507   1.141   5.164   3.361 -0.0795  1.5268  0.5966
  671MOL0     O90508   1.004   5.140   3.363 -0.1063 -0.0308  0.0813
  671MOL0     C90509   0.956   5.084   3.484  0.1794  0.1868 -0.6859
  671MOL0     C90510   0.917   4.939   3.473 -0.4557 -0.2646  0.4259
  671MOL0     C90511   0.809   4.910   3.363  0.1000  0.4905  1.3968
  671MOL0     C90512   0.692   4.819   3.406  0.3360  0.4667 -0.1048
  671MOL0     C90513   0.742   4.701   3.466  0.0279  0.5839 -0.1540
  671MOL0     C90514   0.787   4.598   3.514 -0.1933  0.0639 -0.3507
  671MOL0     C90515   1.218   5.109   3.250 -0.8548 -0.3508 -0.1405
  671MOL0     C90516   1.358   5.141   3.230 -0.2623  0.6926 -0.0653
  671MOL0     C90517   1.420   5.096   3.106 -0.2718 -0.2008 -0.3034
  671MOL0     H90518   1.817   5.409   3.308  1.0485  0.7343  1.3587
  671MOL0     H90519   2.065   5.381   3.352  0.7324 -0.1724 -1.6958
  671MOL0     H90520   2.303   5.248   3.482  0.3137  0.2025 -3.2063
  671MOL0     H90521   2.138   5.201   3.513  0.4977  1.5280  0.6655
  671MOL0     H90522   2.360   4.991   3.481  1.2978 -1.8921  2.9168
  671MOL0     H90523   2.199   4.959   3.500  1.6983 -0.1454 -1.9260
  671MOL0     H90524   2.313   4.938   3.722  1.5736  0.5364 -0.8901
  671MOL0     H90525   2.169   5.045   3.721 -0.5821 -1.3711 -1.3497
  671MOL0     H90526   2.457   5.126   3.706  0.9602  1.0794  1.1377
  671MOL0     H90527   2.328   5.247   3.713  3.9546  1.8220  1.8926
  671MOL0     H90528   2.263   5.164   3.937  0.7283 -0.8265  2.0246
  671MOL0     H90529   2.396   5.063   3.945 -1.5538  0.7230  2.0331
  671MOL0     H90530   2.466   5.257   4.047 -0.6867 -3.4543 -1.3194
  671MOL0     H90531   2.564   5.246   3.903 -0.5463 -0.9062  1.2105
  671MOL0     H90532   2.322   5.439   3.907  1.0970  2.3532 -1.4622
  671MOL0     H90533   2.446   5.425   3.786  2.3151  2.3238  0.7277
  671MOL0     H90534   2.515   5.613   3.921  1.0955 -0.8148 -1.7698
  671MOL0     H90535   2.473   5.534   4.061 -0.8483  1.1295 -0.4365
  671MOL0     H90536   2.731   5.547   4.172  0.1786 -0.2469 -0.2636
  671MOL0     H90537   3.054   5.591   3.990  1.8085  0.2445  0.7914
  671MOL0     H90538   2.985   5.644   4.138  1.3925 -1.7778  1.1939
  671MOL0     H90539   2.957   5.371   4.191  1.8200 -1.7399  0.9307
  671MOL0     H90540   3.070   5.358   4.064  0.8465  2.7092 -0.8303
  671MOL0     H90541   3.117   5.498   4.330  1.5930  0.5946  0.3057
  671MOL0     H90542   3.222   5.527   4.197 -0.4500 -0.6032 -0.7090
  671MOL0     H90543   3.148   5.250   4.310  1.2694 -2.3236  0.4805
  671MOL0     H90544   3.286   5.347   4.360 -1.5293  0.3113  1.2893
  671MOL0     H90545   3.388   5.205   3.942 -0.0109 -1.2291  0.1851
  671MOL0     H90546   3.614   5.277   3.850 -0.8447  3.5011 -1.7563
  671MOL0     H90547   4.066   5.362   3.926 -1.3817 -1.8577 -0.4520
  671MOL0     H90548   4.254   5.493   3.851 -0.9089  1.5869  0.8962
  671MOL0     H90549   4.388   5.669   3.807 -0.0900  0.9027  0.0954
  671MOL0     H90550   4.436   5.543   3.697 -6.0861 -1.8643 -0.5596
  671MOL0     H90551   4.493   5.729   3.528  1.1456  2.3700 -0.1821
  671MOL0     H90552   4.462   5.851   3.652  1.9716  0.7139 -1.7328
  671MOL0     H90553   4.679   5.629   3.665  3.4565  1.3537 -1.1144
  671MOL0     H90554   4.703   5.799   3.640  1.8106 -0.7222  3.4136
  671MOL0     H90555   4.605   5.667   3.903  0.4585 -2.0584 -2.9699
  671MOL0     H90556   4.572   5.837   3.864  0.3492  0.7618 -2.3279
  671MOL0     H90557   4.807   5.883   3.816 -2.2942 -0.5855 -0.6021
  671MOL0     H90558   4.846   5.719   3.875  0.7455  0.4670 -1.9701
  671MOL0     H90559   4.721   5.958   4.033  1.8206  1.0696 -0.3007
  671MOL0     H90560   4.746   5.796   4.105 -2.8254 -0.9393 -1.6058
  671MOL0     H90561   4.969   5.939   3.958 -3.5697  0.1774 -1.4385
  671MOL0     H90562   4.973   5.815   4.086 -1.2679 -1.1943 -2.6938
  671MOL0     H90563   4.878   5.987   4.254  0.6720  2.2671  0.9755
  671MOL0     H90564   5.040   6.007   4.190 -0.0473  2.9920 -1.3558
  671MOL0     H90565   4.040   5.641   3.515 -0.6342 -0.6168  0.6864
  671MOL0     H90566   3.830   5.537   3.604  0.2117  1.2908  1.9107
  671MOL0     H90567   3.668   5.508   4.210  0.2135 -0.5999 -0.5515
  671MOL0     H90568   3.454   5.422   4.296 -1.7136  0.0281 -0.9272
  671MOL0     H90569   2.038   4.957   3.257 -1.1399 -0.4365 -2.0171
  671MOL0     H90570   1.805   4.983   3.208  1.8345 -0.4463 -2.5230
  671MOL0     H90571   1.376   5.317   3.538 -2.2034  1.6470 -0.0681
  671MOL0     H90572   1.146   5.286   3.530  1.6034  3.9517 -1.4585
  671MOL0     H90573   0.863   5.136   3.510  0.5831  1.9719 -2.5198
  671MOL0     H90574   1.023   5.085   3.570 -1.0689 -0.8286  0.3361
  671MOL0     H90575   0.885   4.894   3.568 -0.8790 -0.5416  0.1576
  671MOL0     H90576   1.001   4.878   3.441  0.2123 -0.7664  2.8708
  671MOL0     H90577   0.852   4.860   3.276  2.1462  0.9433  2.0927
  671MOL0     H90578   0.763   5.001   3.323 -0.5205 -0.4476 -0.1078
  671MOL0     H90579   0.633   4.871   3.482 -0.9283 -1.0272  0.0021
  671MOL0     H90580   0.623   4.787   3.327 -1.3449  2.1588  0.6091
  671MOL0     H90581   0.834   4.513   3.561  1.7592 -0.4189 -2.9793
  671MOL0     H90582   1.163   5.056   3.173 -2.6927  2.2005 -0.7114
  671MOL0     H90583   1.346   5.045   3.045  0.5609 -0.0954 -1.4356
  671MOL0     H90584   1.466   5.179   3.050  1.6378 -1.6474 -0.9934
  671MOL0     H90585   1.495   5.017   3.115 -0.5864 -0.4145  0.5245
  672MOL0     O90586   9.223   6.946   7.572  0.1555 -0.4050 -0.1956
  672MOL0     C90587   9.174   6.936   7.683  0.3069  0.2088  0.1194
  672MOL0     O90588   9.240   6.964   7.803  0.0811 -0.0142 -0.4908
  672MOL0     C90589   9.377   6.973   7.801  0.5339 -0.4411 -0.0258
  672MOL0     C90590   9.465   6.885   7.741 -0.8928  0.0043 -0.3114
  672MOL0     C90591   9.605   6.921   7.747  0.0787 -0.1330 -0.5577
  672MOL0     C90592   9.655   7.028   7.812 -0.3038 -0.9219  0.0882
  672MOL0     O90593   9.786   7.073   7.813 -0.5953 -0.4548 -0.0537
  672MOL0     C90594   9.897   7.004   7.739  0.1080 -0.0260 -1.7272
  672MOL0     C90595  10.041   7.051   7.782  0.3470 -0.0847  0.5740
  672MOL0     C90596  10.159   6.986   7.706  0.1984 -0.2014  0.0327
  672MOL0     C90597  10.295   7.046   7.735 -0.6868  0.1169  0.3493
  672MOL0     C90598  10.415   6.992   7.663 -0.1809 -0.4800  0.1885
  672MOL0     C90599  10.441   6.842   7.679  0.4296  0.1960  0.4374
  672MOL0     C90600  10.582   6.800   7.648  0.4995  0.7526 -0.7966
  672MOL0     C90601  10.589   6.646   7.663  0.8423 -0.3921 -0.2584
  672MOL0     N90602  10.723   6.586   7.651  0.1055  0.5681 -0.6465
  672MOL0     C90603  10.774   6.537   7.536  1.1559 -0.6032  0.4758
  672MOL0     C90604  10.888   6.472   7.567  0.8516 -1.1321 -0.1188
  672MOL0     C90605  10.980   6.406   7.464 -0.4089 -0.5867  0.5026
  672MOL0     C90606  11.010   6.502   7.346 -0.3399  0.4510  0.5391
  672MOL0     C90607  11.116   6.439   7.254  0.0092 -0.0459 -0.2792
  672MOL0     C90608  11.162   6.533   7.134 -0.6818  0.0612 -0.0622
  672MOL0     O90609  11.194   6.665   7.188 -0.1305 -0.1120  0.7606
  672MOL0     C90610  11.324   6.697   7.211 -0.1490 -0.6332 -0.6898
  672MOL0     C90611  11.434   6.618   7.185  0.4671 -0.2394  0.9148
  672MOL0     C90612  11.564   6.677   7.182  0.4735 -0.1909 -0.6233
  672MOL0     C90613  11.585   6.803   7.226  0.3503 -1.0760  1.0524
  672MOL0     C90614  11.724   6.855   7.220 -0.6366 -0.2211  0.6614
  672MOL0     O90615  11.817   6.766   7.193 -0.6072  0.1997 -0.1406
  672MOL0     C90616  11.948   6.814   7.189  0.1833  0.8504  0.1008
  672MOL0     C90617  12.024   6.829   7.301 -0.1850 -0.5143  1.0791
  672MOL0     C90618  12.162   6.862   7.294  0.8629 -0.2363 -0.4783
  672MOL0     C90619  12.228   6.867   7.170  1.7239  0.0050  0.1435
  672MOL0     O90620  12.357   6.892   7.158 -0.6725 -0.1234 -0.1609
  672MOL0     C90621  12.447   6.891   7.272  0.6151  0.0996  0.6496
  672MOL0     C90622  12.590   6.912   7.209 -0.3641  0.0163  0.6411
  672MOL0     C90623  12.701   6.925   7.315 -0.2915  0.5298 -0.3878
  672MOL0     C90624  12.845   6.930   7.260 -0.2284  0.0201 -0.2396
  672MOL0     C90625  12.891   6.801   7.191 -0.0613  0.3917  1.2845
  672MOL0     C90626  13.028   6.814   7.117 -0.2196 -0.5227  0.4142
  672MOL0     C90627  13.139   6.880   7.200 -0.2123  0.5764  0.0080
  672MOL0     C90628  13.259   6.928   7.113  0.1334 -0.1477 -0.0840
  672MOL0    Cl90629  13.222   7.030   6.961 -0.1855 -0.4135  0.0671
  672MOL0     C90630  12.148   6.868   7.053  1.0660  0.3776 -0.1774
  672MOL0     C90631  12.010   6.838   7.067  0.9208  0.0241 -0.3004
  672MOL0     O90632  11.740   6.978   7.214  0.1821 -0.5925 -0.1541
  672MOL0     C90633  11.478   6.883   7.258 -0.2533 -0.0235 -0.1767
  672MOL0     C90634  11.346   6.826   7.253  0.1363 -0.8139  0.5150
  672MOL0     N90635  10.906   6.473   7.703 -0.3101 -0.4498 -0.3778
  672MOL0     N90636  10.802   6.531   7.748  0.2285  0.4720  0.1348
  672MOL0     C90637   9.563   7.110   7.879  0.2919 -0.0352 -0.2561
  672MOL0     C90638   9.431   7.082   7.875  1.0834  0.2224  0.0782
  672MOL0     C90639   9.024   6.919   7.697 -0.6464 -0.2736 -0.5379
  672MOL0     C90640   8.952   6.994   7.794  0.0557 -0.8301 -0.4601
  672MOL0     C90641   8.826   6.966   7.837 -1.3601  0.5233 -0.5440
  672MOL0     C90642   8.755   6.867   7.775 -0.2668 -1.2830 -0.8135
  672MOL0     O90643   8.636   6.834   7.832  0.0286 -0.3556  0.4055
  672MOL0     C90644   8.522   6.797   7.748 -0.5797 -0.2391 -0.0139
  672MOL0     C90645   8.389   6.841   7.811 -0.1163  0.0946 -0.7903
  672MOL0     C90646   8.373   6.993   7.842 -0.4878 -0.0140  0.2663
  672MOL0     C90647   8.388   7.031   7.995  0.6389 -0.3152 -0.1566
  672MOL0     C90648   8.340   7.171   8.015 -1.2907  0.3021 -0.0902
  672MOL0     C90649   8.299   7.289   8.013  0.0495 -0.1427  0.0389
  672MOL0     C90650   8.818   6.791   7.673 -1.0310  0.1183 -0.6876
  672MOL0     C90651   8.956   6.814   7.639 -0.1204 -0.0326  0.4033
  672MOL0     C90652   9.011   6.724   7.530 -0.1340  0.8032  0.3981
  672MOL0     H90653   9.424   6.801   7.686  2.6711 -1.4984 -0.9442
  672MOL0     H90654   9.676   6.857   7.695  1.0317 -0.4753  1.0755
  672MOL0     H90655   9.895   6.897   7.763  0.9262  0.7583  2.7255
  672MOL0     H90656   9.874   7.024   7.634 -1.1851  4.1631 -0.8506
  672MOL0     H90657  10.050   7.040   7.891  0.2064 -1.5250  0.4659
  672MOL0     H90658  10.036   7.159   7.768  0.0396 -0.1465  0.1831
  672MOL0     H90659  10.143   6.994   7.598  0.4203  0.9976  0.0727
  672MOL0     H90660  10.149   6.880   7.730 -1.6391 -0.2773 -0.9160
  672MOL0     H90661  10.286   7.152   7.712 -4.9498 -0.4561 -1.8223
  672MOL0     H90662  10.314   7.046   7.843  0.9008  2.3222  0.1215
  672MOL0     H90663  10.407   7.007   7.555  0.8472 -2.4687 -0.2121
  672MOL0     H90664  10.502   7.054   7.686 -1.6334  1.9068 -0.3126
  672MOL0     H90665  10.435   6.816   7.786  3.5318 -0.0210  0.6633
  672MOL0     H90666  10.367   6.788   7.620 -0.5624  2.1297 -0.1694
  672MOL0     H90667  10.649   6.839   7.725  0.8810 -3.0051  0.9881
  672MOL0     H90668  10.617   6.837   7.551  1.4255 -1.2636 -1.2996
  672MOL0     H90669  10.544   6.616   7.758 -0.4993  0.7737 -0.4882
  672MOL0     H90670  10.524   6.605   7.585 -0.4754  0.3864  0.3975
  672MOL0     H90671  10.739   6.551   7.434 -2.3996 -3.5237  1.0726
  672MOL0     H90672  11.077   6.376   7.505  0.8496 -0.0536 -1.8887
  672MOL0     H90673  10.931   6.317   7.423  0.6941 -1.8602  1.8515
  672MOL0     H90674  10.925   6.527   7.282 -0.6747 -2.8932 -0.4932
  672MOL0     H90675  11.053   6.597   7.380  0.7340  0.1912 -0.0615
  672MOL0     H90676  11.063   6.351   7.215 -1.7741  0.6090  0.6004
  672MOL0     H90677  11.206   6.427   7.315 -2.7863  0.7596  4.4208
  672MOL0     H90678  11.078   6.556   7.068 -1.5288 -1.2976  0.5306
  672MOL0     H90679  11.238   6.482   7.074 -2.1387 -3.1577  0.6150
  672MOL0     H90680  11.427   6.513   7.160 -2.5083  0.2089 -0.5719
  672MOL0     H90681  11.646   6.609   7.157  0.3644 -0.4315 -0.3364
  672MOL0     H90682  11.977   6.814   7.398  0.2768  0.4075  1.4624
  672MOL0     H90683  12.221   6.881   7.383  2.4199 -3.4919 -0.6529
  672MOL0     H90684  12.423   6.975   7.339 -0.4965  0.0818  0.2952
  672MOL0     H90685  12.443   6.791   7.317  1.8652 -0.9525 -1.4640
  672MOL0     H90686  12.615   6.830   7.141 -0.3296  2.1728 -2.1105
  672MOL0     H90687  12.600   7.001   7.146 -0.2859 -0.1405  0.4300
  672MOL0     H90688  12.687   7.013   7.379  0.7924  0.5278 -0.1241
  672MOL0     H90689  12.690   6.839   7.381 -1.9778 -1.2458 -2.8180
  672MOL0     H90690  12.916   6.938   7.343  3.0660  0.1387 -2.8389
  672MOL0     H90691  12.850   7.016   7.193 -2.1616  0.5253  0.2105
  672MOL0     H90692  12.816   6.775   7.116 -1.3611 -0.4603  2.8198
  672MOL0     H90693  12.892   6.719   7.263 -1.0822  0.3344  1.2525
  672MOL0     H90694  13.060   6.712   7.092 -1.9940 -0.7299 -1.2648
  672MOL0     H90695  13.020   6.879   7.030 -0.2399  2.7394  2.7015
  672MOL0     H90696  13.171   6.815   7.282  2.7546  3.9712  1.8430
  672MOL0     H90697  13.094   6.969   7.247 -2.7313 -0.0808 -1.0152
  672MOL0     H90698  13.324   6.987   7.177  1.3970  0.4484 -1.8406
  672MOL0     H90699  13.320   6.844   7.078  0.4121  0.1889 -0.4235
  672MOL0     H90700  12.194   6.873   6.955  2.4832  0.7329  0.4797
  672MOL0     H90701  11.963   6.809   6.974  1.5504 -0.9608 -0.3302
  672MOL0     H90702  11.486   6.989   7.277  0.0860 -0.2216  0.8949
  672MOL0     H90703  11.253   6.874   7.282 -1.0549 -4.0990  2.6283
  672MOL0     H90704   9.603   7.185   7.946 -1.0659  0.4496  0.0317
  672MOL0     H90705   9.363   7.150   7.926 -0.1332  1.0135 -2.4332
  672MOL0     H90706   9.000   7.082   7.837 -0.3737 -0.4355 -0.7813
  672MOL0     H90707   8.771   7.010   7.919 -3.1326  0.4596 -1.6360
  672MOL0     H90708   8.526   6.688   7.737  0.6344 -0.4862  2.2711
  672MOL0     H90709   8.527   6.834   7.645  1.7116 -2.6017 -0.8434
  672MOL0     H90710   8.375   6.792   7.907  0.4223  0.3907 -0.5549
  672MOL0     H90711   8.304   6.802   7.755 -0.3912 -0.2028 -0.1708
  672MOL0     H90712   8.268   7.014   7.818 -1.1675 -2.7606  0.5036
  672MOL0     H90713   8.439   7.052   7.779  0.2702  0.6684  1.6644
  672MOL0     H90714   8.336   6.970   8.069  0.1868 -0.0347 -0.2424
  672MOL0     H90715   8.494   7.035   8.021  0.0765 -1.1966  2.6111
  672MOL0     H90716   8.252   7.383   7.997 -0.4013 -0.0670  1.6658
  672MOL0     H90717   8.770   6.711   7.618  1.3173 -0.7030 -1.6592
  672MOL0     H90718   9.002   6.775   7.433 -2.1286 -2.8927 -1.6141
  672MOL0     H90719   9.112   6.695   7.558 -1.0235 -0.3701  2.6655
  672MOL0     H90720   8.947   6.635   7.522  0.9323 -0.2158  2.5084
  673MOL0     O90721   1.203  11.275   6.843  0.2316  0.4538 -0.0357
  673MOL0     C90722   1.181  11.259   6.728  0.6638 -0.2500  0.8270
  673MOL0     O90723   1.260  11.279   6.619  0.3965  0.3082  0.0571
  673MOL0     C90724   1.396  11.308   6.622 -0.2799 -0.0557  0.1653
  673MOL0     C90725   1.471  11.316   6.738  0.8470 -0.2356  0.1029
  673MOL0     C90726   1.597  11.378   6.731 -0.2088 -0.1154 -1.0414
  673MOL0     C90727   1.653  11.427   6.611  0.7953 -0.6896  0.5470
  673MOL0     O90728   1.785  11.483   6.591  0.5940  0.1765  0.0990
  673MOL0     C90729   1.851  11.544   6.704 -0.7845  1.0849 -0.1161
  673MOL0     C90730   1.949  11.628   6.627 -0.3159  0.1123  0.8752
  673MOL0     C90731   2.060  11.531   6.572 -0.1312  0.1599 -0.3297
  673MOL0     C90732   2.150  11.482   6.689  0.6356 -0.3872  0.0187
  673MOL0     C90733   2.290  11.438   6.641  0.3781 -0.5833 -0.9552
  673MOL0     C90734   2.371  11.378   6.746 -0.6909  0.3408  0.8413
  673MOL0     C90735   2.516  11.360   6.711  0.6368  0.7618 -0.6112
  673MOL0     C90736   2.583  11.346   6.850  0.0754 -0.1118 -0.0398
  673MOL0     N90737   2.725  11.316   6.832 -0.1717  0.2674  0.7488
  673MOL0     C90738   2.783  11.188   6.834  0.0183 -0.2385 -0.3554
  673MOL0     C90739   2.893  11.195   6.754 -0.4890 -0.8805 -0.0747
  673MOL0     C90740   2.987  11.084   6.700  0.6470  0.1061  0.3982
  673MOL0     C90741   3.130  11.125   6.678 -0.5963  0.0104  0.5040
  673MOL0     C90742   3.221  10.996   6.674  0.4121  0.5664 -0.5515
  673MOL0     C90743   3.371  11.027   6.665  0.0945  0.4025 -0.3707
  673MOL0     O90744   3.414  11.008   6.531 -0.9396  0.1349 -0.4589
  673MOL0     C90745   3.548  11.003   6.512  0.5070  0.1148 -0.9361
  673MOL0     C90746   3.636  11.087   6.587 -0.0873 -0.3955 -0.4336
  673MOL0     C90747   3.771  11.076   6.572  0.3948  0.6434  0.1924
  673MOL0     C90748   3.825  10.978   6.480  0.2218 -0.5628  0.0332
  673MOL0     C90749   3.963  10.954   6.463 -0.5148  0.1770 -0.7906
  673MOL0     O90750   4.001  10.873   6.361  0.1193 -0.4242  0.2072
  673MOL0     C90751   4.143  10.850   6.359  0.7203 -0.2389  0.8919
  673MOL0     C90752   4.238  10.923   6.278  0.4328 -1.0147  0.1050
  673MOL0     C90753   4.377  10.896   6.286  1.1763  0.4676  0.6622
  673MOL0     C90754   4.421  10.797   6.372  0.2676 -0.2415 -1.0328
  673MOL0     O90755   4.557  10.773   6.372  0.0835 -0.3346 -0.3771
  673MOL0     C90756   4.623  10.704   6.477 -0.0232 -0.0666  0.3232
  673MOL0     C90757   4.771  10.707   6.435 -0.5443  0.7430 -0.1350
  673MOL0     C90758   4.862  10.648   6.559 -0.0586 -0.1892  0.0849
  673MOL0     C90759   5.009  10.655   6.525 -0.1273 -1.1368  0.0858
  673MOL0     C90760   5.073  10.626   6.655 -0.5412 -0.6036 -0.3366
  673MOL0     C90761   5.231  10.631   6.664 -0.0853 -0.0479  1.3053
  673MOL0     C90762   5.272  10.582   6.805  0.2009  1.1235  0.3613
  673MOL0     C90763   5.420  10.554   6.803 -0.1605  0.2405  0.4643
  673MOL0    Cl90764   5.515  10.686   6.718  0.3857 -0.3958  0.1826
  673MOL0     C90765   4.328  10.726   6.460 -0.6685 -0.3556  0.7668
  673MOL0     C90766   4.199  10.760   6.458  0.1797  0.6112 -0.5523
  673MOL0     O90767   4.033  10.991   6.556 -0.0497 -0.4423  0.2381
  673MOL0     C90768   3.728  10.910   6.399 -0.2993  0.2339  0.9534
  673MOL0     C90769   3.595  10.928   6.419  0.0999  0.6672  0.7261
  673MOL0     N90770   2.902  11.326   6.709  0.4473  0.1297  0.3022
  673MOL0     N90771   2.803  11.398   6.756  0.5324 -0.4140  0.4138
  673MOL0     C90772   1.580  11.403   6.489 -0.1951 -0.6068  0.3193
  673MOL0     C90773   1.449  11.343   6.493  0.1906  0.1506 -0.0168
  673MOL0     C90774   1.038  11.230   6.680 -0.1930 -0.2833 -0.1926
  673MOL0     C90775   0.953  11.178   6.787 -1.4878  0.3867  0.1584
  673MOL0     C90776   0.827  11.133   6.757 -0.1667  0.6025 -0.3144
  673MOL0     C90777   0.779  11.131   6.629  0.2485 -0.2093  0.6699
  673MOL0     O90778   0.654  11.080   6.601  0.8272  0.7526  0.5805
  673MOL0     C90779   0.608  11.048   6.471 -1.1159 -0.3171  0.0170
  673MOL0     C90780   0.483  10.963   6.491  0.1745 -0.3211 -0.1244
  673MOL0     C90781   0.516  10.831   6.576 -0.5834 -0.2785  0.3269
  673MOL0     C90782   0.388  10.760   6.591  0.6033  1.0850  0.3028
  673MOL0     C90783   0.402  10.616   6.637 -0.1661 -0.3783  0.3125
  673MOL0     C90784   0.403  10.502   6.664 -0.2160 -0.0479 -0.0986
  673MOL0     C90785   0.863  11.180   6.529  0.1252  0.7083 -0.1656
  673MOL0     C90786   0.983  11.240   6.548 -0.0026 -0.3916  0.0154
  673MOL0     C90787   1.048  11.292   6.419  0.1589 -0.0191  0.1278
  673MOL0     H90788   1.445  11.263   6.829 -0.4784  0.8043  0.3573
  673MOL0     H90789   1.671  11.375   6.810 -0.5881  2.3143 -0.5131
  673MOL0     H90790   1.791  11.606   6.771  1.0837  0.5026  2.2456
  673MOL0     H90791   1.896  11.479   6.780  1.3140  3.2440  0.6389
  673MOL0     H90792   2.005  11.695   6.693  0.6999 -0.1780  0.3349
  673MOL0     H90793   1.902  11.704   6.565 -0.8836 -0.0632  1.0860
  673MOL0     H90794   2.124  11.570   6.492  0.7154 -2.7779 -1.2218
  673MOL0     H90795   2.017  11.438   6.532 -0.0570 -1.2846  2.6915
  673MOL0     H90796   2.162  11.563   6.761  1.3125 -1.4109  1.1084
  673MOL0     H90797   2.095  11.399   6.735 -0.1274  0.5905  0.9245
  673MOL0     H90798   2.287  11.367   6.558  0.8062  0.0763 -1.5455
  673MOL0     H90799   2.352  11.520   6.604 -1.4333  0.8656 -0.9434
  673MOL0     H90800   2.363  11.434   6.840  0.1013 -1.4057  2.0244
  673MOL0     H90801   2.326  11.280   6.768 -0.3802 -0.1061 -0.4418
  673MOL0     H90802   2.542  11.457   6.666 -2.8461  1.9874 -0.2759
  673MOL0     H90803   2.543  11.276   6.646  1.0704 -0.1085  0.6613
  673MOL0     H90804   2.583  11.443   6.902  2.4269 -0.8137  1.4048
  673MOL0     H90805   2.534  11.281   6.923  0.4903  1.4827  1.7506
  673MOL0     H90806   2.733  11.101   6.875 -1.2723  1.5054  2.0833
  673MOL0     H90807   2.979  11.003   6.774  2.2534 -0.2819  0.1937
  673MOL0     H90808   2.935  11.043   6.613 -1.7945 -0.1126  1.8533
  673MOL0     H90809   3.139  11.178   6.583  0.2811  0.7934  0.9927
  673MOL0     H90810   3.167  11.188   6.760 -1.2574 -2.1572  2.5756
  673MOL0     H90811   3.193  10.929   6.592  0.8474  0.5418 -0.6831
  673MOL0     H90812   3.219  10.937   6.766 -0.0430 -0.7051 -1.3467
  673MOL0     H90813   3.428  10.959   6.730  0.5365  0.8534 -0.2693
  673MOL0     H90814   3.380  11.128   6.707 -2.5222 -0.0236  1.4068
  673MOL0     H90815   3.592  11.144   6.669 -1.3426 -1.6175 -0.2219
  673MOL0     H90816   3.839  11.138   6.629  3.1252 -0.5229 -1.6244
  673MOL0     H90817   4.199  11.010   6.226 -0.7259 -0.6919  1.4360
  673MOL0     H90818   4.447  10.935   6.213  1.9279 -0.0415  1.1069
  673MOL0     H90819   4.611  10.752   6.575 -1.2845 -0.8263  0.5506
  673MOL0     H90820   4.577  10.605   6.476 -4.1592  1.6323  2.3282
  673MOL0     H90821   4.776  10.638   6.351 -0.4743 -2.3396  2.2149
  673MOL0     H90822   4.807  10.809   6.419  1.0825  0.0866 -0.7898
  673MOL0     H90823   4.846  10.707   6.649 -2.0535  3.5746 -2.4184
  673MOL0     H90824   4.828  10.547   6.584 -2.8524  0.1443 -1.8298
  673MOL0     H90825   5.043  10.757   6.506 -3.4488 -0.0594 -0.8732
  673MOL0     H90826   5.041  10.591   6.442  2.0724  0.2485 -0.2120
  673MOL0     H90827   5.037  10.526   6.680  0.4550 -0.8340  0.2257
  673MOL0     H90828   5.031  10.683   6.738 -1.4467 -0.3519 -0.9524
  673MOL0     H90829   5.279  10.570   6.588  0.9468  0.6669  1.3742
  673MOL0     H90830   5.259  10.736   6.654  0.8418 -0.3004  1.2172
  673MOL0     H90831   5.226  10.485   6.825  3.1038 -0.4510 -0.0534
  673MOL0     H90832   5.240  10.648   6.886  1.2450 -1.0016  2.6585
  673MOL0     H90833   5.462  10.554   6.904  1.4995  0.6690 -0.1843
  673MOL0     H90834   5.445  10.461   6.750  1.5585  0.7994  0.2223
  673MOL0     H90835   4.353  10.656   6.540 -1.1490  1.2981  2.4511
  673MOL0     H90836   4.136  10.703   6.525  0.2695  1.0189 -0.1151
  673MOL0     H90837   3.767  10.845   6.320  0.2692  0.7031  0.8491
  673MOL0     H90838   3.530  10.871   6.352  3.0506 -1.4132 -0.5701
  673MOL0     H90839   1.632  11.420   6.395 -1.2169 -0.1219 -0.1676
  673MOL0     H90840   1.391  11.314   6.406 -1.3530  2.4696  0.1479
  673MOL0     H90841   0.987  11.168   6.890 -0.2033 -2.4418 -0.4404
  673MOL0     H90842   0.765  11.085   6.832 -2.3594  3.1812 -0.3542
  673MOL0     H90843   0.688  10.993   6.422 -0.7580  0.9332 -0.8543
  673MOL0     H90844   0.579  11.141   6.421 -1.9316  0.2399  1.4617
  673MOL0     H90845   0.432  10.939   6.397 -2.9679  0.6574  1.2187
  673MOL0     H90846   0.405  11.018   6.544  1.2847  0.9160  0.2579
  673MOL0     H90847   0.557  10.859   6.673 -0.7955  4.8101 -0.7426
  673MOL0     H90848   0.585  10.767   6.520 -2.3697  2.3995 -5.8759
  673MOL0     H90849   0.330  10.806   6.671  0.9602  0.2144  1.0857
  673MOL0     H90850   0.342  10.760   6.492  1.0468  1.0011  0.0930
  673MOL0     H90851   0.407  10.396   6.676  0.5131 -0.0353 -0.1646
  673MOL0     H90852   0.835  11.170   6.425 -0.9638  0.2860  0.1558
  673MOL0     H90853   1.097  11.386   6.446  0.2984 -0.4578  1.4318
  673MOL0     H90854   1.113  11.220   6.368 -1.8957 -1.9447  0.0977
  673MOL0     H90855   0.973  11.315   6.342  1.2402  1.1378 -0.6308
  674MOL0     O90856   0.533   9.107   9.571  0.1222  0.3404 -0.5590
  674MOL0     C90857   0.517   9.002   9.630 -0.8201 -0.0598  0.0430
  674MOL0     O90858   0.472   8.884   9.577  0.5296  0.2392  0.0809
  674MOL0     C90859   0.490   8.862   9.447  0.9479 -0.2944  0.7103
  674MOL0     C90860   0.377   8.819   9.373  0.5228 -0.4168 -0.3029
  674MOL0     C90861   0.388   8.758   9.247 -0.1354  0.2875  0.5217
  674MOL0     C90862   0.511   8.770   9.184 -0.1359  0.6803  0.6169
  674MOL0     O90863   0.547   8.730   9.059  0.3283  0.0165 -0.0332
  674MOL0     C90864   0.522   8.829   8.959  0.6584 -0.3172 -0.4738
  674MOL0     C90865   0.624   8.940   8.935 -0.1026  0.1344 -0.0643
  674MOL0     C90866   0.744   8.873   8.873  0.5879 -0.8737 -0.1639
  674MOL0     C90867   0.852   8.822   8.967  0.1523 -0.2300 -0.6047
  674MOL0     C90868   0.984   8.793   8.893 -0.1529  0.3682  0.3246
  674MOL0     C90869   1.092   8.736   8.987 -0.3516 -0.6679  0.4227
  674MOL0     C90870   1.219   8.692   8.913 -0.1574  0.4416  0.3805
  674MOL0     C90871   1.328   8.669   9.015  0.2968 -0.6139  0.4980
  674MOL0     N90872   1.463   8.634   8.957  0.3017 -0.1834 -0.3251
  674MOL0     C90873   1.580   8.714   8.977  0.5645  0.0571  0.2248
  674MOL0     C90874   1.666   8.690   8.877  0.4082  0.1853 -0.3900
  674MOL0     C90875   1.783   8.777   8.849 -0.3028  0.4354  0.3726
  674MOL0     C90876   1.908   8.690   8.870 -0.1827  0.0916  0.7395
  674MOL0     C90877   2.023   8.767   8.806 -0.2507  0.5515 -0.1388
  674MOL0     C90878   2.157   8.693   8.822 -0.3554 -0.0846 -0.1533
  674MOL0     O90879   2.191   8.643   8.950 -0.0926  0.3963 -0.2486
  674MOL0     C90880   2.310   8.570   8.964 -0.3733  0.1987  0.8338
  674MOL0     C90881   2.419   8.566   8.878 -0.5253 -0.2847  0.2529
  674MOL0     C90882   2.529   8.483   8.898  0.3425 -0.4568  0.1294
  674MOL0     C90883   2.535   8.406   9.013  0.2519 -0.6546 -0.9254
  674MOL0     C90884   2.642   8.306   9.031  0.6487  0.1791 -0.2440
  674MOL0     O90885   2.742   8.313   8.936 -0.4908 -0.0358 -0.1337
  674MOL0     C90886   2.868   8.268   8.960  0.5983 -0.4521  0.0343
  674MOL0     C90887   2.965   8.300   8.865  1.2722  0.3119 -0.4448
  674MOL0     C90888   3.103   8.261   8.870  0.3139 -0.0936 -0.4965
  674MOL0     C90889   3.148   8.196   8.986 -0.3179  0.2170 -0.4931
  674MOL0     O90890   3.278   8.160   9.019  0.0061 -0.1209  0.7679
  674MOL0     C90891   3.371   8.180   8.919 -0.5021  0.1664 -0.7165
  674MOL0     C90892   3.493   8.089   8.960  0.2238  0.1168  0.1287
  674MOL0     C90893   3.580   8.150   9.077  0.0916 -0.5157  0.5290
  674MOL0     C90894   3.689   8.054   9.134  0.5092  1.1036  1.1907
  674MOL0     C90895   3.748   7.969   9.016 -0.0988 -0.2060 -0.4484
  674MOL0     C90896   3.876   7.895   9.064  0.5095  0.6945 -0.6303
  674MOL0     C90897   3.921   7.797   8.964  0.2691 -0.3491 -0.2552
  674MOL0     C90898   4.046   7.716   9.011  0.2904 -0.6964  0.1847
  674MOL0    Cl90899   4.094   7.605   8.882 -0.1471  0.2667  0.5357
  674MOL0     C90900   3.054   8.176   9.087 -0.7545  0.0139  0.6606
  674MOL0     C90901   2.915   8.197   9.072 -0.0882 -0.1789 -0.2196
  674MOL0     O90902   2.620   8.209   9.114 -0.1955 -0.2303  0.2657
  674MOL0     C90903   2.434   8.416   9.111 -0.3894  0.5081 -0.2595
  674MOL0     C90904   2.322   8.488   9.080  0.1658  0.7467  0.4729
  674MOL0     N90905   1.602   8.591   8.800  0.3882 -0.1348 -0.4706
  674MOL0     N90906   1.494   8.553   8.853 -0.3158 -0.2382  0.1435
  674MOL0     C90907   0.620   8.818   9.250 -0.1163 -0.0110 -0.5889
  674MOL0     C90908   0.612   8.870   9.384  0.5470  0.1902  0.1541
  674MOL0     C90909   0.549   8.996   9.775  0.4669  0.1943 -0.6804
  674MOL0     C90910   0.440   8.967   9.868 -0.5496 -0.1311 -0.0004
  674MOL0     C90911   0.463   8.950  10.008 -0.1484  0.2505  0.2102
  674MOL0     C90912   0.598   8.949  10.053 -0.4246  0.0253  0.2033
  674MOL0     O90913   0.641   8.922  10.181  0.4590  0.4213  0.3110
  674MOL0     C90914   0.535   8.899  10.280  0.0202 -0.5197 -0.7077
  674MOL0     C90915   0.452   9.022  10.312  0.7078  0.1343  0.3005
  674MOL0     C90916   0.328   8.987  10.403 -0.0969  0.1230  0.6688
  674MOL0     C90917   0.253   8.854  10.368  0.4828 -0.6596 -0.1466
  674MOL0     C90918   0.169   8.849  10.251 -0.0437 -0.8714  0.1212
  674MOL0     C90919   0.104   8.843  10.150  0.5042 -0.1348  0.0664
  674MOL0     C90920   0.709   8.985   9.969  0.7804  0.2970 -0.3091
  674MOL0     C90921   0.683   9.009   9.832  0.5547  0.0340 -0.0144
  674MOL0     C90922   0.796   9.040   9.736  0.0567 -0.1597 -0.0886
  674MOL0     H90923   0.281   8.829   9.422  1.2699 -1.2223  1.4015
  674MOL0     H90924   0.308   8.696   9.205  2.2689 -2.1098 -0.8168
  674MOL0     H90925   0.513   8.781   8.861 -0.9847 -0.7673 -0.1395
  674MOL0     H90926   0.425   8.872   8.986 -0.2870 -0.9856 -2.6188
  674MOL0     H90927   0.662   8.981   9.029 -0.2883  0.7831 -0.2680
  674MOL0     H90928   0.582   9.025   8.881 -0.2368  1.3006  1.7871
  674MOL0     H90929   0.786   8.946   8.803 -1.1629  1.7542  1.3531
  674MOL0     H90930   0.721   8.780   8.821  1.2984 -1.9303  1.3248
  674MOL0     H90931   0.884   8.890   9.047 -1.0172  0.5498 -0.7761
  674MOL0     H90932   0.824   8.733   9.024  1.3642 -1.2369 -1.5269
  674MOL0     H90933   0.970   8.714   8.818  0.9195  1.2338 -0.8357
  674MOL0     H90934   1.019   8.881   8.838  2.0617 -1.1433 -0.8732
  674MOL0     H90935   1.116   8.822   9.050 -1.0431  2.6244 -3.4126
  674MOL0     H90936   1.052   8.659   9.053  1.5888  0.1931  2.7343
  674MOL0     H90937   1.250   8.775   8.849 -1.9609  0.2095 -0.8799
  674MOL0     H90938   1.191   8.619   8.837 -1.1926  0.7753  0.4235
  674MOL0     H90939   1.335   8.762   9.071 -1.7386 -0.1332  0.0379
  674MOL0     H90940   1.284   8.590   9.077 -3.1065 -0.9844 -2.0603
  674MOL0     H90941   1.598   8.796   9.045  1.3906  0.1347 -0.0861
  674MOL0     H90942   1.767   8.813   8.747  1.8715  1.9042  0.4826
  674MOL0     H90943   1.787   8.867   8.912 -0.8446  2.1678 -1.9178
  674MOL0     H90944   1.923   8.680   8.978 -0.0107 -0.4985  0.6656
  674MOL0     H90945   1.899   8.592   8.822  0.0193  0.8272 -0.8633
  674MOL0     H90946   2.044   8.862   8.856  1.1697  0.6441 -0.8501
  674MOL0     H90947   2.009   8.786   8.699  1.3179  3.7043  0.0946
  674MOL0     H90948   2.231   8.772   8.811 -1.1043  0.7246  0.5371
  674MOL0     H90949   2.162   8.612   8.748  1.2569  1.0139 -1.3172
  674MOL0     H90950   2.428   8.642   8.801  0.0324  0.5907  1.1570
  674MOL0     H90951   2.614   8.496   8.831  1.4893  0.6633  1.7225
  674MOL0     H90952   2.938   8.356   8.777 -0.4391 -1.0267 -0.8174
  674MOL0     H90953   3.166   8.291   8.787  0.9242  0.5991  0.1958
  674MOL0     H90954   3.325   8.139   8.828 -4.7602  2.1946  0.2508
  674MOL0     H90955   3.403   8.283   8.899 -3.4005  1.6493  1.4991
  674MOL0     H90956   3.458   7.997   9.009  0.8908  0.0390  0.4614
  674MOL0     H90957   3.548   8.078   8.867  0.3351  0.6493  0.1306
  674MOL0     H90958   3.634   8.238   9.041 -0.7178  0.2603  1.1600
  674MOL0     H90959   3.530   8.182   9.169 -1.2786  0.4607 -0.5317
  674MOL0     H90960   3.640   7.987   9.206 -0.8851 -2.3409 -2.5806
  674MOL0     H90961   3.766   8.105   9.192  1.1694  1.6977 -0.1853
  674MOL0     H90962   3.782   8.034   8.935 -1.7647  0.5305 -0.6101
  674MOL0     H90963   3.671   7.902   8.974 -0.2041 -0.9769  0.9310
  674MOL0     H90964   3.955   7.969   9.080  0.3289  0.7693 -0.0520
  674MOL0     H90965   3.851   7.838   9.154 -0.4095 -0.6990 -1.7300
  674MOL0     H90966   3.940   7.847   8.869 -0.7187  0.6847  0.0683
  674MOL0     H90967   3.837   7.730   8.941 -0.1647  0.8181 -2.3307
  674MOL0     H90968   4.128   7.785   9.033  1.6920 -2.0051 -0.7323
  674MOL0     H90969   4.021   7.657   9.100 -2.4052  0.6897  0.4523
  674MOL0     H90970   3.095   8.118   9.170  2.3682  3.0616  1.5259
  674MOL0     H90971   2.842   8.154   9.141  0.9999 -0.6826  0.6583
  674MOL0     H90972   2.436   8.368   9.208 -3.3459 -0.2426 -0.4833
  674MOL0     H90973   2.243   8.498   9.153 -0.3928  0.0705 -0.0228
  674MOL0     H90974   0.717   8.817   9.202 -0.1040 -0.9533 -0.5645
  674MOL0     H90975   0.696   8.912   9.439 -0.1244 -1.1480  2.3419
  674MOL0     H90976   0.340   8.964   9.826 -1.1940 -0.0748  1.4636
  674MOL0     H90977   0.382   8.918  10.074  0.5565 -1.2600  0.4002
  674MOL0     H90978   0.578   8.847  10.366 -0.8978 -0.1557 -0.0218
  674MOL0     H90979   0.470   8.820  10.241 -2.2385  0.9228 -0.0044
  674MOL0     H90980   0.409   9.053  10.216  0.0946 -1.7393 -0.0802
  674MOL0     H90981   0.509   9.110  10.343 -0.5101  2.1551 -2.6394
  674MOL0     H90982   0.259   9.073  10.396  2.6793  2.4272 -0.5447
  674MOL0     H90983   0.359   8.974  10.507 -3.4495 -0.4764  1.7009
  674MOL0     H90984   0.317   8.767  10.382 -0.0685 -0.9132  0.9285
  674MOL0     H90985   0.189   8.831  10.454  0.3417  3.0079  0.9154
  674MOL0     H90986   0.030   8.852  10.074 -0.8368  0.8626  1.4109
  674MOL0     H90987   0.806   8.997  10.015  0.3535  3.1282  0.0752
  674MOL0     H90988   0.858   8.953   9.711 -1.8002 -1.2305 -1.1327
  674MOL0     H90989   0.768   9.082   9.639 -0.8172 -0.3294  0.0876
  674MOL0     H90990   0.849   9.121   9.788 -1.0361  0.2726  0.3706
  675MOL0     O90991   0.740   7.087   7.704  0.4964 -0.0509  0.4009
  675MOL0     C90992   0.647   7.145   7.648 -0.6676 -1.1426 -0.1107
  675MOL0     O90993   0.651   7.216   7.535  0.1357 -0.0475  0.8550
  675MOL0     C90994   0.771   7.229   7.478 -0.1631  0.1278  0.4453
  675MOL0     C90995   0.874   7.297   7.547 -0.0462  0.9786 -0.0261
  675MOL0     C90996   0.993   7.329   7.484  0.5012  0.3283  0.4301
  675MOL0     C90997   1.010   7.303   7.344  0.0761  0.3397  1.1681
  675MOL0     O90998   1.134   7.334   7.286  0.2678  0.3658 -0.3849
  675MOL0     C90999   1.157   7.326   7.141  0.3554  0.9170  0.5215
  675MOL0     C91000   1.298   7.383   7.109  0.6265  0.2434  0.2503
  675MOL0     C91001   1.413   7.319   7.177 -0.3811  0.5288  0.0984
  675MOL0     C91002   1.545   7.361   7.118 -0.4321  0.0728  0.5638
  675MOL0     C91003   1.672   7.320   7.192 -0.3623  0.7352  0.1290
  675MOL0     C91004   1.789   7.337   7.094  0.2140 -0.1150 -0.4172
  675MOL0     C91005   1.927   7.302   7.155 -0.7797  0.1496 -0.0358
  675MOL0     C91006   2.043   7.326   7.053  0.9294  0.0417  0.3399
  675MOL0     N91007   2.172   7.280   7.113 -1.4238 -0.6991 -0.2915
  675MOL0     C91008   2.248   7.177   7.066 -0.6190  0.0434  0.3228
  675MOL0     C91009   2.342   7.170   7.151 -0.8442 -0.1009  0.4573
  675MOL0     C91010   2.470   7.078   7.144  0.9000 -0.3141  0.2475
  675MOL0     C91011   2.469   6.958   7.231  0.2427  0.0618  0.9369
  675MOL0     C91012   2.457   6.979   7.380 -0.9959 -0.4123 -1.4123
  675MOL0     C91013   2.566   7.068   7.452 -1.1883 -0.2341 -0.2700
  675MOL0     O91014   2.696   7.011   7.428  0.3646  0.2936 -0.4081
  675MOL0     C91015   2.813   7.082   7.450  0.5182  0.4829  0.2962
  675MOL0     C91016   2.919   7.014   7.501 -0.7143 -0.0809 -0.2827
  675MOL0     C91017   3.043   7.070   7.504  0.4594  1.4353 -0.1038
  675MOL0     C91018   3.070   7.193   7.453 -0.4934 -1.1105 -0.1851
  675MOL0     C91019   3.209   7.247   7.436 -0.0951 -0.0629 -0.6584
  675MOL0     O91020   3.305   7.163   7.479  0.4795  0.0302  0.6176
  675MOL0     C91021   3.437   7.190   7.445  0.2406 -0.9337 -0.6373
  675MOL0     C91022   3.517   7.103   7.377 -0.0112 -0.6575 -0.6147
  675MOL0     C91023   3.647   7.138   7.352 -0.4772  0.9876  0.2477
  675MOL0     C91024   3.707   7.252   7.428 -0.5284  0.3653  0.2437
  675MOL0     O91025   3.841   7.280   7.437 -0.4911  0.0205 -0.3803
  675MOL0     C91026   3.935   7.171   7.406  0.0561  0.2910 -0.2883
  675MOL0     C91027   4.081   7.210   7.413  0.3977  0.1791  0.6546
  675MOL0     C91028   4.148   7.204   7.554  0.0339  0.2281  0.5700
  675MOL0     C91029   4.294   7.238   7.538 -0.8254  1.6624  0.5105
  675MOL0     C91030   4.353   7.259   7.677 -0.8937  0.4364  0.4880
  675MOL0     C91031   4.491   7.321   7.674  0.2546 -0.5374 -0.0370
  675MOL0     C91032   4.612   7.237   7.629  0.3282  0.1948 -0.2189
  675MOL0     C91033   4.639   7.112   7.725  0.2861 -0.6757  0.5615
  675MOL0    Cl91034   4.804   7.050   7.697 -0.1464 -0.3456  0.2993
  675MOL0     C91035   3.624   7.333   7.493  1.0088  0.0646  0.2033
  675MOL0     C91036   3.491   7.302   7.504  0.4618  0.1947 -1.3068
  675MOL0     O91037   3.223   7.348   7.366 -0.0048  0.1929  0.1273
  675MOL0     C91038   2.957   7.275   7.418 -0.0805 -0.2881  0.0924
  675MOL0     C91039   2.828   7.212   7.409 -0.3905 -0.0525  0.7651
  675MOL0     N91040   2.326   7.251   7.263 -0.2586 -0.1366 -0.2064
  675MOL0     N91041   2.224   7.324   7.238  0.2029 -0.1339  0.1026
  675MOL0     C91042   0.913   7.224   7.277 -0.8969  0.0611 -0.4533
  675MOL0     C91043   0.788   7.209   7.337 -0.4062  1.2546 -0.1789
  675MOL0     C91044   0.521   7.139   7.709  0.9852 -0.3789 -0.8632
  675MOL0     C91045   0.504   7.204   7.840  0.0341  0.4220  0.2766
  675MOL0     C91046   0.374   7.220   7.891  0.6240 -0.4899  1.1837
  675MOL0     C91047   0.261   7.156   7.837 -0.5440 -1.2124  0.3269
  675MOL0     O91048   0.146   7.167   7.907 -0.5088 -0.1742  0.1206
  675MOL0     C91049   0.059   7.062   7.882  0.3124 -0.1905  0.2031
  675MOL0     C91050  -0.063   7.066   7.985  0.3749 -0.0485  0.4211
  675MOL0     C91051  -0.183   7.116   7.901  0.1415 -0.1190  0.9067
  675MOL0     C91052  -0.316   7.077   7.969 -0.0484  0.4491 -0.5783
  675MOL0     C91053  -0.370   6.951   7.927  0.2868  0.0184  0.0658
  675MOL0     C91054  -0.406   6.842   7.890  0.3909 -0.1286  0.2235
  675MOL0     C91055   0.283   7.089   7.713  0.2279 -0.1091 -0.0231
  675MOL0     C91056   0.408   7.082   7.652  0.5396  0.1506 -0.0409
  675MOL0     C91057   0.415   7.016   7.521 -0.8174 -0.3893 -0.2998
  675MOL0     H91058   0.865   7.327   7.651  1.0658  2.8179 -0.4247
  675MOL0     H91059   1.079   7.364   7.539  0.1794  0.4416  0.8747
  675MOL0     H91060   1.149   7.222   7.107 -0.5263  1.7514 -2.1048
  675MOL0     H91061   1.076   7.365   7.078  1.7965  0.0903 -1.9672
  675MOL0     H91062   1.287   7.487   7.143  0.3412  0.2433  0.1595
  675MOL0     H91063   1.311   7.395   7.001 -1.5437  1.2739  0.0661
  675MOL0     H91064   1.399   7.211   7.171  3.9877 -0.2364  0.7788
  675MOL0     H91065   1.421   7.355   7.280  2.3465 -2.3288  1.0236
  675MOL0     H91066   1.544   7.320   7.016  2.1958 -0.7510  0.7879
  675MOL0     H91067   1.550   7.470   7.112 -0.1919  0.0484  0.3133
  675MOL0     H91068   1.698   7.387   7.274  0.1020  0.5185  0.1600
  675MOL0     H91069   1.665   7.215   7.224  2.1513  0.6883  0.7208
  675MOL0     H91070   1.782   7.276   7.003 -0.3379 -0.2627 -0.2797
  675MOL0     H91071   1.791   7.446   7.081 -1.4704  0.5771  3.6028
  675MOL0     H91072   1.930   7.196   7.181  1.2583  0.3311  0.6689
  675MOL0     H91073   1.944   7.359   7.247  0.6591 -0.6097  0.1962
  675MOL0     H91074   2.033   7.264   6.963  0.7290 -2.1749  1.8195
  675MOL0     H91075   2.043   7.430   7.019  1.9233  0.0849  0.4360
  675MOL0     H91076   2.230   7.110   6.983  0.8052 -0.0216  0.0372
  675MOL0     H91077   2.472   7.041   7.041 -1.8014 -1.1404  0.4269
  675MOL0     H91078   2.556   7.145   7.155 -0.3552  1.7318 -1.7443
  675MOL0     H91079   2.392   6.895   7.185 -2.3017  3.0008  0.8683
  675MOL0     H91080   2.572   6.921   7.220 -0.4273 -1.2351 -2.0625
  675MOL0     H91081   2.470   6.879   7.423 -1.8015  0.9024  2.3095
  675MOL0     H91082   2.355   7.015   7.395 -1.0270 -0.3023 -1.8885
  675MOL0     H91083   2.559   7.070   7.561  1.8025 -0.5893  0.0061
  675MOL0     H91084   2.537   7.164   7.409 -2.9651 -1.1719 -1.3183
  675MOL0     H91085   2.894   6.918   7.546  0.7401  0.5414  2.0193
  675MOL0     H91086   3.113   7.005   7.556 -3.5786 -2.1339  1.5151
  675MOL0     H91087   3.474   7.015   7.331 -0.6952  1.0498 -3.5134
  675MOL0     H91088   3.717   7.081   7.291 -1.2514 -0.5116  0.7172
  675MOL0     H91089   3.918   7.098   7.485 -2.4032  3.1837  2.1139
  675MOL0     H91090   3.921   7.124   7.308  0.5447  0.8663 -0.6400
  675MOL0     H91091   4.133   7.140   7.347  1.5461 -0.7481  2.4648
  675MOL0     H91092   4.081   7.310   7.369 -0.6959 -0.8241 -1.8638
  675MOL0     H91093   4.100   7.274   7.623 -0.6196 -1.2849  1.7088
  675MOL0     H91094   4.123   7.102   7.585  1.9560 -1.2481 -2.2322
  675MOL0     H91095   4.319   7.327   7.479 -0.1174  1.0168 -0.1650
  675MOL0     H91096   4.356   7.159   7.495 -1.2324  0.6550  1.6942
  675MOL0     H91097   4.359   7.161   7.726  2.0003  0.7720  1.0092
  675MOL0     H91098   4.291   7.330   7.731 -2.3454  0.3525 -1.0071
  675MOL0     H91099   4.495   7.414   7.616  8.1311  1.2785  2.1294
  675MOL0     H91100   4.506   7.353   7.777  0.7216 -0.8664  0.0014
  675MOL0     H91101   4.697   7.305   7.637  1.5673 -1.3103 -0.1968
  675MOL0     H91102   4.593   7.205   7.526 -2.4662  2.2496 -0.4614
  675MOL0     H91103   4.630   7.146   7.828  0.8456 -0.6147  0.5894
  675MOL0     H91104   4.572   7.031   7.694 -1.0615 -0.0456  1.7015
  675MOL0     H91105   3.658   7.425   7.539  0.1720  0.6445 -0.3084
  675MOL0     H91106   3.419   7.370   7.550 -3.5364 -4.5327  0.2755
  675MOL0     H91107   2.974   7.375   7.379  0.8505  0.6839  2.7854
  675MOL0     H91108   2.748   7.256   7.350 -0.5464 -0.2901  0.7971
  675MOL0     H91109   0.934   7.190   7.176  0.5942  0.1651 -0.1963
  675MOL0     H91110   0.710   7.168   7.274  0.1778  0.8003 -0.6307
  675MOL0     H91111   0.588   7.242   7.896  2.3833 -1.3602 -1.8025
  675MOL0     H91112   0.360   7.279   7.981  0.8118 -0.5868  1.2771
  675MOL0     H91113   0.110   6.968   7.904 -0.1722 -0.0416  2.1484
  675MOL0     H91114   0.022   7.081   7.781  0.2983 -0.0452  0.2360
  675MOL0     H91115  -0.036   7.127   8.071  0.7603  0.3301  0.0355
  675MOL0     H91116  -0.086   6.964   8.018  0.6990 -1.3000 -2.8747
  675MOL0     H91117  -0.203   7.088   7.797 -1.1689  0.6202  0.9351
  675MOL0     H91118  -0.161   7.223   7.901 -0.8317  0.0959  0.3167
  675MOL0     H91119  -0.302   7.059   8.076 -1.5902  0.6819 -0.3078
  675MOL0     H91120  -0.383   7.164   7.959  0.7172  0.8779 -2.3642
  675MOL0     H91121  -0.439   6.747   7.855 -0.7084  0.7517 -1.2271
  675MOL0     H91122   0.198   7.035   7.672  0.4141 -1.2942  1.0883
  675MOL0     H91123   0.514   6.973   7.506 -0.5015 -0.5697  1.9116
  675MOL0     H91124   0.336   6.941   7.512 -2.1241  0.8716  0.2385
  675MOL0     H91125   0.395   7.094   7.448  1.0763  0.5097  0.0876
  676MOL0     O91126   3.318   5.355   5.307 -0.5693 -0.2562  0.0885
  676MOL0     C91127   3.267   5.287   5.219  0.0999  0.3127  0.1878
  676MOL0     O91128   3.333   5.221   5.119  0.6619 -0.0500 -0.5081
  676MOL0     C91129   3.454   5.277   5.087 -0.4734  0.7657  0.1456
  676MOL0     C91130   3.570   5.240   5.157 -0.4354  0.8649  0.0842
  676MOL0     C91131   3.691   5.300   5.113  0.3832 -0.2045 -0.7792
  676MOL0     C91132   3.693   5.391   5.006 -0.4613  0.4516 -0.0607
  676MOL0     O91133   3.823   5.436   4.975 -0.4381  0.1689  0.5604
  676MOL0     C91134   3.865   5.464   4.836 -0.1113 -0.0153 -0.4396
  676MOL0     C91135   4.015   5.491   4.839 -0.5021  0.6357 -0.0934
  676MOL0     C91136   4.084   5.511   4.698  0.3091 -0.3978 -0.4974
  676MOL0     C91137   4.227   5.533   4.734  0.0687 -0.1411  0.6968
  676MOL0     C91138   4.312   5.553   4.605  0.1067  0.3926  0.6460
  676MOL0     C91139   4.458   5.591   4.654 -0.3077 -0.3369 -0.1736
  676MOL0     C91140   4.550   5.472   4.667  0.4505 -0.3528  0.5956
  676MOL0     C91141   4.693   5.508   4.688 -0.0360  0.9314 -0.8769
  676MOL0     N91142   4.771   5.387   4.721 -0.2336 -0.5524 -0.0537
  676MOL0     C91143   4.833   5.377   4.844 -0.3241 -0.1546  0.1797
  676MOL0     C91144   4.907   5.275   4.822 -0.8573 -0.5444 -0.4778
  676MOL0     C91145   4.988   5.214   4.931 -0.7449  0.8030  0.6241
  676MOL0     C91146   4.937   5.063   4.916 -0.6355  0.5900 -0.1682
  676MOL0     C91147   4.987   4.974   5.028 -1.3010 -0.4991 -0.0417
  676MOL0     C91148   5.136   4.961   5.030 -0.2355 -0.1950 -0.8978
  676MOL0     O91149   5.165   4.826   5.080  0.7015 -0.7351  0.5757
  676MOL0     C91150   5.305   4.796   5.099  0.2468  0.0359 -0.2378
  676MOL0     C91151   5.336   4.680   5.180 -0.4135 -0.3107 -0.2464
  676MOL0     C91152   5.466   4.631   5.199 -0.0221 -0.1040 -0.1991
  676MOL0     C91153   5.569   4.698   5.135  0.5735  0.1598 -0.0617
  676MOL0     C91154   5.706   4.643   5.131 -0.1239 -0.7582  0.4684
  676MOL0     O91155   5.795   4.735   5.086 -0.3273  0.3706  0.8909
  676MOL0     C91156   5.931   4.705   5.077  0.2927 -0.2709 -0.3017
  676MOL0     C91157   6.023   4.804   5.105 -0.4445  0.1958 -0.0765
  676MOL0     C91158   6.163   4.780   5.113 -0.6179 -0.1582  1.0234
  676MOL0     C91159   6.220   4.655   5.076  0.2591  0.2610 -0.8454
  676MOL0     O91160   6.353   4.631   5.055 -0.4925  0.1393  0.7734
  676MOL0     C91161   6.454   4.716   5.123 -0.0247  0.2618  0.8484
  676MOL0     C91162   6.595   4.699   5.052  0.4463 -0.4730 -0.3446
  676MOL0     C91163   6.610   4.780   4.921  0.1341 -0.6020  0.5567
  676MOL0     C91164   6.721   4.737   4.836  0.0693 -0.9862 -0.4378
  676MOL0     C91165   6.771   4.862   4.760 -0.2439  0.1876 -0.1068
  676MOL0     C91166   6.865   4.835   4.642  0.1632 -0.0676 -0.8370
  676MOL0     C91167   6.783   4.804   4.523 -0.2672 -0.2571 -0.3924
  676MOL0     C91168   6.860   4.737   4.413 -0.3430  0.1372 -0.1755
  676MOL0    Cl91169   7.000   4.839   4.364 -0.4310  0.4920 -0.1144
  676MOL0     C91170   6.123   4.559   5.034 -0.4362 -0.2297  0.2930
  676MOL0     C91171   5.985   4.575   5.038  0.4170 -0.1678  0.0490
  676MOL0     O91172   5.738   4.539   5.190  0.2665 -0.0447 -0.7046
  676MOL0     C91173   5.538   4.821   5.074 -0.4142 -0.0963 -0.8261
  676MOL0     C91174   5.411   4.873   5.063 -0.2953 -0.6710  0.0533
  676MOL0     N91175   4.895   5.227   4.690 -0.4502 -0.2557  0.2459
  676MOL0     N91176   4.811   5.300   4.631 -0.0564  0.2155  0.1411
  676MOL0     C91177   3.578   5.426   4.939 -0.0025 -0.3568 -0.3101
  676MOL0     C91178   3.460   5.367   4.975 -0.2236 -0.2166 -0.4385
  676MOL0     C91179   3.116   5.277   5.220 -0.7099 -1.1463  0.0326
  676MOL0     C91180   3.052   5.348   5.324 -0.3488 -0.4099  0.2500
  676MOL0     C91181   2.916   5.336   5.344  0.7987 -0.7259  0.4114
  676MOL0     C91182   2.835   5.252   5.266  0.5613  0.4346  1.0791
  676MOL0     O91183   2.704   5.221   5.295  0.3356 -0.2977 -0.5090
  676MOL0     C91184   2.632   5.316   5.373  0.0754  0.0631  0.0734
  676MOL0     C91185   2.493   5.265   5.389  0.0249  0.1716  0.4602
  676MOL0     C91186   2.402   5.294   5.267  0.4347 -0.0832  0.0802
  676MOL0     C91187   2.246   5.277   5.288  0.0795 -0.0216 -0.3519
  676MOL0     C91188   2.205   5.378   5.384 -0.0681 -0.2272  0.0308
  676MOL0     C91189   2.189   5.459   5.472 -0.0959  0.5092 -0.2874
  676MOL0     C91190   2.899   5.188   5.156  0.7895  0.5807  0.0971
  676MOL0     C91191   3.039   5.193   5.137 -0.2232  0.8016  0.9442
  676MOL0     C91192   3.090   5.110   5.012  0.1569 -0.2972 -0.5848
  676MOL0     H91193   3.574   5.180   5.248  1.9107  1.9899  0.8120
  676MOL0     H91194   3.787   5.276   5.155  1.9711  2.0588 -2.8172
  676MOL0     H91195   3.851   5.378   4.770  0.1687 -0.0316 -0.4785
  676MOL0     H91196   3.813   5.551   4.795 -0.2779  0.2728  0.3663
  676MOL0     H91197   4.055   5.400   4.886 -0.4328 -0.9109 -2.9216
  676MOL0     H91198   4.028   5.570   4.914 -1.9684 -1.0601  2.0645
  676MOL0     H91199   4.046   5.602   4.650  1.1323 -0.0824 -0.5773
  676MOL0     H91200   4.070   5.430   4.626  1.3923  1.8374 -3.4298
  676MOL0     H91201   4.240   5.620   4.799  1.8520  0.6976 -0.6836
  676MOL0     H91202   4.272   5.447   4.785  1.1385 -0.0919 -0.1246
  676MOL0     H91203   4.308   5.473   4.531 -0.6357  1.5489 -0.6084
  676MOL0     H91204   4.276   5.638   4.546  0.9382 -0.7047 -1.5606
  676MOL0     H91205   4.511   5.653   4.581 -1.4614  1.5337  0.5235
  676MOL0     H91206   4.453   5.648   4.747 -0.3827 -1.8774  0.7981
  676MOL0     H91207   4.547   5.412   4.576  1.2624  0.7313 -0.1772
  676MOL0     H91208   4.511   5.405   4.744 -0.6955 -0.0150  0.3248
  676MOL0     H91209   4.740   5.551   4.599  5.7622 -0.5005  1.0015
  676MOL0     H91210   4.701   5.575   4.774  1.0329 -1.0765  0.6812
  676MOL0     H91211   4.816   5.438   4.932 -0.5406  0.4198 -0.2561
  676MOL0     H91212   5.093   5.228   4.903 -1.0152  3.5139  0.7031
  676MOL0     H91213   4.978   5.263   5.028 -1.2358  1.8727  0.0454
  676MOL0     H91214   4.828   5.061   4.913 -0.7634  1.0571  2.0840
  676MOL0     H91215   4.979   5.026   4.823  0.6367  2.2119 -0.2888
  676MOL0     H91216   4.944   4.873   5.027  1.8740 -1.9732  0.4925
  676MOL0     H91217   4.955   5.015   5.125  3.8164 -0.7408  2.0686
  676MOL0     H91218   5.188   5.033   5.093  0.5685 -1.1781 -0.3962
  676MOL0     H91219   5.174   4.972   4.928 -1.7859 -1.0996 -1.6101
  676MOL0     H91220   5.254   4.628   5.230 -0.5639  2.8618  3.3032
  676MOL0     H91221   5.497   4.541   5.252  0.3614  0.2134  0.1326
  676MOL0     H91222   5.978   4.901   5.126 -3.1163 -1.2309  1.3576
  676MOL0     H91223   6.224   4.864   5.141  0.7745 -0.7679 -0.0821
  676MOL0     H91224   6.424   4.821   5.109  1.7366  0.8755  1.3810
  676MOL0     H91225   6.471   4.695   5.229  1.6157 -0.2208  0.5205
  676MOL0     H91226   6.675   4.724   5.122 -2.9260  0.9519  3.3482
  676MOL0     H91227   6.616   4.596   5.023  0.3503  0.1454 -2.9101
  676MOL0     H91228   6.521   4.778   4.857  1.0290 -0.2246 -0.7286
  676MOL0     H91229   6.628   4.883   4.953 -0.4823 -0.0921 -0.6731
  676MOL0     H91230   6.690   4.660   4.765 -1.9863  0.2135 -0.9090
  676MOL0     H91231   6.813   4.701   4.884 -0.0497  0.1568  0.6902
  676MOL0     H91232   6.815   4.926   4.837 -2.9066  2.9229 -0.6656
  676MOL0     H91233   6.687   4.924   4.728 -0.6893  0.9832  2.3500
  676MOL0     H91234   6.919   4.928   4.624 -0.9832  0.9307  0.6498
  676MOL0     H91235   6.943   4.761   4.662  0.9218  1.3070  1.7611
  676MOL0     H91236   6.728   4.895   4.497  0.8069  0.3244 -0.7120
  676MOL0     H91237   6.701   4.734   4.540 -1.2746  0.3022 -2.5537
  676MOL0     H91238   6.895   4.639   4.446  3.3292  1.3573 -0.0001
  676MOL0     H91239   6.787   4.722   4.333  1.0058 -1.1217 -1.2181
  676MOL0     H91240   6.157   4.458   5.011  1.9385  0.4110  0.7867
  676MOL0     H91241   5.919   4.493   5.013  0.8121  0.1259 -2.1440
  676MOL0     H91242   5.614   4.861   5.008 -0.0601 -2.2765 -1.8593
  676MOL0     H91243   5.398   4.963   5.004 -0.7475 -1.8670 -1.7718
  676MOL0     H91244   3.583   5.508   4.867  1.6117  0.8272  1.0453
  676MOL0     H91245   3.366   5.395   4.929 -0.5420 -0.9977 -0.2702
  676MOL0     H91246   3.101   5.406   5.401 -0.5643  1.9188 -1.2511
  676MOL0     H91247   2.871   5.391   5.427 -1.0913 -3.1536  1.1223
  676MOL0     H91248   2.627   5.411   5.319 -2.8489  0.0331  0.1206
  676MOL0     H91249   2.678   5.323   5.472  1.2639 -0.3603 -0.4334
  676MOL0     H91250   2.454   5.317   5.477  1.0056  1.9078 -0.0783
  676MOL0     H91251   2.504   5.157   5.401  1.3248  0.4774  2.7101
  676MOL0     H91252   2.435   5.228   5.187  2.9501  2.1790 -0.9270
  676MOL0     H91253   2.420   5.400   5.248 -2.4205  0.9351  2.3174
  676MOL0     H91254   2.184   5.280   5.198 -2.5305  2.3029  1.3536
  676MOL0     H91255   2.237   5.175   5.327  1.9620 -1.2011 -2.7582
  676MOL0     H91256   2.175   5.518   5.560  0.9713 -2.9980  2.4937
  676MOL0     H91257   2.837   5.122   5.096  0.4738  2.3312 -1.6128
  676MOL0     H91258   3.144   5.178   4.946  0.6932  1.7782  1.8538
  676MOL0     H91259   3.155   5.033   5.055 -0.9080 -0.9117 -0.0099
  676MOL0     H91260   3.003   5.072   4.957 -0.4661 -0.6854  0.6210
  677MOL0     O91261   4.619   0.183   3.330 -0.0757  0.1236 -0.2312
  677MOL0     C91262   4.556   0.285   3.371 -0.1692 -0.6069 -0.4809
  677MOL0     O91263   4.623   0.398   3.420  0.3620  0.8599  0.2934
  677MOL0     C91264   4.755   0.405   3.387  0.3169 -0.4253 -0.5353
  677MOL0     C91265   4.834   0.429   3.505  0.9895 -0.6268 -0.0946
  677MOL0     C91266   4.969   0.444   3.493  0.5651  0.0174 -0.3369
  677MOL0     C91267   5.028   0.449   3.369 -0.8684 -0.4278 -0.1017
  677MOL0     O91268   5.161   0.461   3.342 -0.0248  0.0891 -0.8282
  677MOL0     C91269   5.245   0.484   3.447 -0.0033 -0.5277 -0.2920
  677MOL0     C91270   5.392   0.451   3.416 -0.2655 -0.7844  0.0841
  677MOL0     C91271   5.497   0.497   3.521 -0.5196 -0.8115  0.7174
  677MOL0     C91272   5.648   0.465   3.479  0.4822 -0.2023 -0.0968
  677MOL0     C91273   5.754   0.546   3.549 -0.0705 -0.0555  0.0743
  677MOL0     C91274   5.884   0.481   3.580 -0.0807 -0.3222 -0.1441
  677MOL0     C91275   5.986   0.466   3.466 -0.2947 -0.2178  0.7581
  677MOL0     C91276   6.080   0.593   3.457 -0.4352  0.8769  0.3371
  677MOL0     N91277   6.189   0.594   3.550  0.3040  0.3909  0.1899
  677MOL0     C91278   6.299   0.510   3.554 -0.7873  0.6081 -0.8165
  677MOL0     C91279   6.377   0.566   3.650  0.0926 -0.3904  0.7150
  677MOL0     C91280   6.504   0.496   3.696  0.1349 -0.0752  0.7819
  677MOL0     C91281   6.574   0.560   3.817 -0.3568 -0.2487 -0.7991
  677MOL0     C91282   6.625   0.698   3.799 -0.2394 -0.3609  1.4632
  677MOL0     C91283   6.692   0.772   3.917  0.4356  0.4906  0.0183
  677MOL0     O91284   6.777   0.882   3.863  0.1554  0.2869  0.2977
  677MOL0     C91285   6.874   0.932   3.949 -0.6393  0.0523 -0.4619
  677MOL0     C91286   6.979   0.998   3.890 -0.6323  0.0487  0.1315
  677MOL0     C91287   7.092   1.043   3.967  0.1664 -0.1497  1.1277
  677MOL0     C91288   7.098   1.016   4.103 -0.0860  0.3627  0.8305
  677MOL0     C91289   7.212   1.063   4.180  0.4653  0.5002  0.2438
  677MOL0     O91290   7.223   1.001   4.301 -0.1168 -0.9009 -0.3285
  677MOL0     C91291   7.313   1.042   4.397 -0.6236 -0.0684  0.9566
  677MOL0     C91292   7.370   1.171   4.396 -0.5067 -0.3961 -0.2398
  677MOL0     C91293   7.468   1.209   4.491  0.2641 -0.0029 -1.2416
  677MOL0     C91294   7.506   1.115   4.590  0.6004  0.4088  0.5222
  677MOL0     O91295   7.591   1.159   4.684  0.3930  0.3024 -0.2283
  677MOL0     C91296   7.728   1.165   4.620  0.7019 -0.2788  0.3206
  677MOL0     C91297   7.803   1.288   4.670 -0.3513 -0.5787  0.1508
  677MOL0     C91298   7.946   1.283   4.606 -0.4671  0.1355  0.3637
  677MOL0     C91299   8.017   1.414   4.619 -0.1814  0.0308 -0.5225
  677MOL0     C91300   8.148   1.400   4.540 -0.0648  0.5729  0.7660
  677MOL0     C91301   8.247   1.516   4.572  0.1855  0.3065  0.3296
  677MOL0     C91302   8.386   1.464   4.537  0.3906 -0.0893 -0.4305
  677MOL0     C91303   8.488   1.556   4.598 -0.4178 -0.3931  0.2748
  677MOL0    Cl91304   8.644   1.566   4.524  0.3799 -0.0202  0.4709
  677MOL0     C91305   7.443   0.994   4.594  0.3503  0.2828  0.8798
  677MOL0     C91306   7.349   0.952   4.493  0.6571  0.8953 -0.8210
  677MOL0     O91307   7.304   1.123   4.128 -0.2803  0.2129  0.4988
  677MOL0     C91308   6.983   0.952   4.167 -0.7124  0.5893 -0.2956
  677MOL0     C91309   6.872   0.911   4.090 -0.2334 -0.3918 -0.0943
  677MOL0     N91310   6.315   0.675   3.697  0.1321 -0.2741  0.5425
  677MOL0     N91311   6.203   0.697   3.637 -0.4377 -0.7594  0.8642
  677MOL0     C91312   4.955   0.422   3.257  0.0475  0.1569  0.6070
  677MOL0     C91313   4.812   0.398   3.258  0.6864  0.7884 -0.3967
  677MOL0     C91314   4.406   0.282   3.367 -0.0846  0.8476 -0.3612
  677MOL0     C91315   4.341   0.370   3.451  0.3267 -0.2535  0.6478
  677MOL0     C91316   4.204   0.382   3.449  0.2097 -0.3437  0.9005
  677MOL0     C91317   4.126   0.290   3.377  0.8663  0.2345 -0.7713
  677MOL0     O91318   3.991   0.284   3.356  0.1042  0.4352 -0.3501
  677MOL0     C91319   3.898   0.364   3.436  0.2748  0.5376  0.7957
  677MOL0     C91320   3.758   0.300   3.422  1.0767 -0.2752 -0.4948
  677MOL0     C91321   3.639   0.403   3.416 -0.1849 -0.0618  0.6491
  677MOL0     C91322   3.512   0.323   3.429 -0.7672  0.7031  1.0023
  677MOL0     C91323   3.393   0.395   3.386 -0.0440  0.0663  0.4635
  677MOL0     C91324   3.292   0.441   3.332 -0.0929  0.1940 -0.2650
  677MOL0     C91325   4.187   0.190   3.303 -0.4686 -0.2949  0.6768
  677MOL0     C91326   4.326   0.191   3.288 -0.4211 -0.5192 -0.3466
  677MOL0     C91327   4.386   0.079   3.196  0.3803 -0.0628 -0.0609
  677MOL0     H91328   4.793   0.430   3.606 -0.4541  2.8003 -0.5479
  677MOL0     H91329   5.031   0.465   3.580 -2.4339  1.4652  1.6411
  677MOL0     H91330   5.243   0.590   3.476  0.3653 -0.6003  0.0026
  677MOL0     H91331   5.231   0.424   3.537  2.8843  0.5950  1.0446
  677MOL0     H91332   5.430   0.489   3.321  1.1333  2.0489  1.6361
  677MOL0     H91333   5.394   0.343   3.399 -4.3190 -0.8884 -0.8751
  677MOL0     H91334   5.461   0.469   3.621  1.1096  0.3856  1.6876
  677MOL0     H91335   5.491   0.606   3.516 -1.6188 -0.9242 -1.2100
  677MOL0     H91336   5.662   0.359   3.499  3.5185  0.5804  3.0712
  677MOL0     H91337   5.653   0.481   3.370 -0.1044  2.3763  0.1834
  677MOL0     H91338   5.764   0.642   3.497 -1.5358  1.5092  2.4809
  677MOL0     H91339   5.705   0.561   3.645  0.5249 -0.5972  0.4713
  677MOL0     H91340   5.935   0.534   3.661 -3.2796 -0.5043  2.1527
  677MOL0     H91341   5.868   0.381   3.621  0.4939  0.5189  2.3159
  677MOL0     H91342   5.935   0.452   3.370 -1.2611 -0.9197  1.3506
  677MOL0     H91343   6.047   0.380   3.492 -0.6522 -0.8590 -0.4859
  677MOL0     H91344   6.120   0.593   3.355  0.8415  0.9014  0.8253
  677MOL0     H91345   6.028   0.689   3.465  1.4686  2.1741 -1.6826
  677MOL0     H91346   6.308   0.420   3.495  3.7419  2.2670 -3.1204
  677MOL0     H91347   6.489   0.389   3.713 -2.3350  0.2198  0.8129
  677MOL0     H91348   6.568   0.495   3.607 -0.5600 -1.2576  0.2664
  677MOL0     H91349   6.508   0.572   3.903  2.6688 -0.4090  1.7167
  677MOL0     H91350   6.656   0.496   3.848 -2.4213 -1.4191  2.8459
  677MOL0     H91351   6.549   0.767   3.762  2.2649  1.3443 -0.8467
  677MOL0     H91352   6.703   0.693   3.723 -1.9143  0.0571 -0.3459
  677MOL0     H91353   6.734   0.695   3.983 -1.8338 -2.6445 -1.9416
  677MOL0     H91354   6.609   0.812   3.976 -0.7178  1.9417 -2.4677
  677MOL0     H91355   6.977   1.012   3.782 -1.0359 -0.3480  0.0820
  677MOL0     H91356   7.175   1.080   3.907  0.1920 -1.2181  0.4862
  677MOL0     H91357   7.329   1.247   4.331  0.0981 -0.0866 -0.2584
  677MOL0     H91358   7.509   1.309   4.506  5.1915 -1.6945 -1.6844
  677MOL0     H91359   7.777   1.072   4.650  1.7003 -0.2401 -1.1155
  677MOL0     H91360   7.719   1.169   4.511 -1.3599 -0.4484  0.4458
  677MOL0     H91361   7.754   1.382   4.644  1.9670  0.7580  0.3487
  677MOL0     H91362   7.820   1.290   4.778  0.6419  0.4745 -0.0095
  677MOL0     H91363   8.009   1.205   4.649 -0.3039 -0.5125 -1.0062
  677MOL0     H91364   7.936   1.267   4.498 -1.1971  2.4808  0.0159
  677MOL0     H91365   8.034   1.426   4.726  0.7076  1.5278 -0.8022
  677MOL0     H91366   7.960   1.499   4.579  1.8806  1.8965  0.3214
  677MOL0     H91367   8.126   1.390   4.433 -0.5845  0.4078  0.8846
  677MOL0     H91368   8.192   1.304   4.567 -0.1884  0.2646 -0.0704
  677MOL0     H91369   8.232   1.608   4.515  3.9054 -0.3026 -2.0192
  677MOL0     H91370   8.254   1.540   4.679 -0.9387  0.9822  0.2620
  677MOL0     H91371   8.387   1.454   4.428 -3.2356  2.3660 -0.8644
  677MOL0     H91372   8.402   1.361   4.572 -0.7449 -1.1133 -2.7020
  677MOL0     H91373   8.455   1.660   4.592 -0.0341 -0.2778  0.1283
  677MOL0     H91374   8.488   1.522   4.703 -1.4266 -0.4879  0.2473
  677MOL0     H91375   7.468   0.929   4.677  0.6187 -1.1365 -0.2710
  677MOL0     H91376   7.302   0.855   4.491  0.6814  0.8771 -0.5618
  677MOL0     H91377   6.988   0.935   4.274 -2.1487 -1.0578 -0.4407
  677MOL0     H91378   6.799   0.850   4.144  0.0660 -0.7010 -0.0351
  677MOL0     H91379   5.009   0.423   3.163  1.5076  3.7343  1.3313
  677MOL0     H91380   4.741   0.375   3.179 -2.4245 -1.6834  2.8440
  677MOL0     H91381   4.387   0.439   3.521 -4.9962  3.9033  0.7434
  677MOL0     H91382   4.163   0.477   3.484  0.0475  0.4529 -1.3070
  677MOL0     H91383   3.894   0.462   3.389 -1.6896  0.8965  1.6177
  677MOL0     H91384   3.930   0.378   3.540  0.3453  0.8007  0.7398
  677MOL0     H91385   3.733   0.241   3.510  0.1799  1.9806  0.8419
  677MOL0     H91386   3.757   0.232   3.336  1.4199  0.6161 -1.2235
  677MOL0     H91387   3.644   0.468   3.328  0.2585  4.1593  3.4982
  677MOL0     H91388   3.653   0.480   3.492 -2.5951  1.8531 -0.7112
  677MOL0     H91389   3.520   0.238   3.361  0.6710  0.0328  1.9661
  677MOL0     H91390   3.506   0.288   3.533  5.0716 -1.6313  0.9100
  677MOL0     H91391   3.211   0.497   3.288 -0.9314 -0.0311  0.9520
  677MOL0     H91392   4.134   0.116   3.245  1.9352 -0.2153 -1.7856
  677MOL0     H91393   4.311   0.010   3.158 -0.6864  1.5457 -1.0000
  677MOL0     H91394   4.441   0.117   3.109  1.2793  0.2338  0.6245
  677MOL0     H91395   4.452   0.022   3.262 -1.1865  1.1718  2.7320
  678MOL0     O91396   1.219   6.667   3.260 -0.2551  0.4789  0.0627
  678MOL0     C91397   1.243   6.729   3.360 -0.7550 -0.2551 -0.6440
  678MOL0     O91398   1.194   6.705   3.487  0.2201  0.2081  0.1630
  678MOL0     C91399   1.092   6.608   3.494  0.5622 -0.5470 -0.5294
  678MOL0     C91400   1.109   6.494   3.571  0.8790  0.2445  0.6415
  678MOL0     C91401   1.019   6.390   3.564  0.7529  0.0370  0.4237
  678MOL0     C91402   0.911   6.388   3.482 -0.4759  0.1975  0.2017
  678MOL0     O91403   0.826   6.280   3.487 -0.1819 -0.7345 -0.1398
  678MOL0     C91404   0.723   6.278   3.384 -0.4226  0.1798  0.1783
  678MOL0     C91405   0.624   6.179   3.415  0.1145 -0.5600 -0.2092
  678MOL0     C91406   0.544   6.118   3.299 -0.9501 -0.2930  0.1493
  678MOL0     C91407   0.399   6.080   3.343 -0.3366 -0.2474  0.0530
  678MOL0     C91408   0.325   5.989   3.245  0.1321 -0.1623  0.5696
  678MOL0     C91409   0.178   5.976   3.286 -0.0058  0.1852  0.2588
  678MOL0     C91410   0.089   5.878   3.201  0.3577  0.6791 -0.5698
  678MOL0     C91411   0.020   5.946   3.076  0.5366 -0.1399  0.6463
  678MOL0     N91412  -0.042   5.849   2.982 -0.0917  0.6835  0.0300
  678MOL0     C91413   0.011   5.726   2.937  0.2280 -0.0982 -0.2819
  678MOL0     C91414  -0.096   5.658   2.886  0.4079 -0.0485 -0.3630
  678MOL0     C91415  -0.086   5.526   2.817  0.0020  0.2546  0.1571
  678MOL0     C91416  -0.079   5.557   2.668  0.2081  0.0744  0.1915
  678MOL0     C91417   0.054   5.612   2.613  0.2536  0.2958  0.1341
  678MOL0     C91418   0.157   5.507   2.593 -0.3972  0.0474 -0.1703
  678MOL0     O91419   0.208   5.473   2.721 -0.1849  0.4302  0.4149
  678MOL0     C91420   0.296   5.556   2.786 -0.1466  1.2271  0.4216
  678MOL0     C91421   0.335   5.523   2.916 -0.1415 -0.0797 -0.1330
  678MOL0     C91422   0.423   5.610   2.982 -0.4575 -0.1483  0.1872
  678MOL0     C91423   0.478   5.727   2.921 -0.5973  0.0373  0.5829
  678MOL0     C91424   0.569   5.821   2.988  0.5344 -0.6234 -0.0368
  678MOL0     O91425   0.646   5.902   2.913 -0.0027  0.8314  0.4689
  678MOL0     C91426   0.738   5.981   2.972  0.1314  0.1091 -0.3201
  678MOL0     C91427   0.738   6.108   2.930  0.7320  0.2983  0.3086
  678MOL0     C91428   0.844   6.196   2.967 -0.5359  0.1146  0.2006
  678MOL0     C91429   0.935   6.163   3.064  0.0169 -0.1499 -0.6668
  678MOL0     O91430   1.026   6.254   3.107 -0.1306  0.5141 -0.3713
  678MOL0     C91431   1.083   6.337   3.009 -0.9515  0.3775  0.9735
  678MOL0     C91432   1.227   6.376   3.049  0.0775 -0.2518 -0.6681
  678MOL0     C91433   1.285   6.490   2.972 -0.1433  0.2597 -0.1797
  678MOL0     C91434   1.426   6.528   3.020 -0.7353 -0.1438  0.3542
  678MOL0     C91435   1.542   6.454   2.945 -0.3240 -0.2477  0.2707
  678MOL0     C91436   1.675   6.479   3.015  0.0846  0.0553 -0.8412
  678MOL0     C91437   1.783   6.395   2.946  1.3957  0.2982  0.4902
  678MOL0     C91438   1.917   6.430   3.014  0.9549 -1.0577 -0.1276
  678MOL0    Cl91439   2.040   6.347   2.921 -0.3415 -0.3414  0.2106
  678MOL0     C91440   0.938   6.029   3.106 -1.1536  0.2615 -0.2193
  678MOL0     C91441   0.845   5.943   3.058  0.0494  0.2690  0.1846
  678MOL0     O91442   0.581   5.808   3.114 -0.4783 -0.5467 -0.2518
  678MOL0     C91443   0.423   5.764   2.796  0.3420 -0.2062 -0.1106
  678MOL0     C91444   0.335   5.680   2.726 -0.4341 -0.0081  0.5384
  678MOL0     N91445  -0.213   5.740   2.894 -0.3331  0.2846  0.0196
  678MOL0     N91446  -0.172   5.852   2.948  0.3072  0.7490 -0.1175
  678MOL0     C91447   0.887   6.510   3.411 -0.0005 -0.0556  0.3521
  678MOL0     C91448   0.974   6.622   3.425  0.5621 -0.1864  0.4341
  678MOL0     C91449   1.325   6.849   3.319 -0.5054 -0.3704  0.2721
  678MOL0     C91450   1.325   6.885   3.179 -0.3912  0.6635 -0.1144
  678MOL0     C91451   1.404   6.995   3.140 -0.0893  0.3017 -0.1847
  678MOL0     C91452   1.468   7.087   3.228 -0.0744  0.2618 -0.0549
  678MOL0     O91453   1.533   7.198   3.187  0.3908  0.4853 -0.3780
  678MOL0     C91454   1.565   7.214   3.055 -0.3338 -0.4474  0.5376
  678MOL0     C91455   1.583   7.373   3.023  0.7162 -0.2831 -0.0448
  678MOL0     C91456   1.720   7.428   3.056 -0.1352  0.1572  0.1973
  678MOL0     C91457   1.747   7.572   3.031 -0.3884 -0.6352 -0.0301
  678MOL0     C91458   1.722   7.598   2.884  0.4033  0.2024  0.0710
  678MOL0     C91459   1.706   7.623   2.767 -0.1936  0.4334  0.6950
  678MOL0     C91460   1.455   7.048   3.365  0.1622  0.4733  0.6982
  678MOL0     C91461   1.388   6.930   3.411  0.7478 -0.9086  0.1187
  678MOL0     C91462   1.370   6.920   3.565 -0.5536 -0.5964  0.0065
  678MOL0     H91463   1.205   6.489   3.622  1.2778 -0.1319 -0.1373
  678MOL0     H91464   1.036   6.301   3.623 -2.0330 -1.1442 -0.4386
  678MOL0     H91465   0.672   6.375   3.378  2.1482  1.6328  0.4917
  678MOL0     H91466   0.766   6.257   3.286 -1.4943 -0.3988 -0.1905
  678MOL0     H91467   0.555   6.224   3.488  0.3886 -0.9360  0.2926
  678MOL0     H91468   0.668   6.094   3.469 -2.1896 -1.9528 -0.3865
  678MOL0     H91469   0.603   6.039   3.252 -1.4320  0.4402 -1.8084
  678MOL0     H91470   0.526   6.194   3.223  1.6038 -1.1700 -1.4458
  678MOL0     H91471   0.393   6.032   3.441 -1.0387 -1.0015 -0.3491
  678MOL0     H91472   0.344   6.174   3.354  0.6204  0.2823  0.4985
  678MOL0     H91473   0.336   6.025   3.142  0.2030  2.6196  1.4486
  678MOL0     H91474   0.369   5.889   3.247  0.1011 -0.1809  0.3113
  678MOL0     H91475   0.161   5.947   3.390 -1.7281  0.7775  0.1804
  678MOL0     H91476   0.127   6.072   3.272 -4.1871 -1.9922 -1.3876
  678MOL0     H91477  -0.000   5.855   3.260  0.7405  0.8265  0.0775
  678MOL0     H91478   0.146   5.789   3.173  1.0556  0.6465  0.8769
  678MOL0     H91479  -0.054   6.020   3.106  0.6517 -0.3467  1.4564
  678MOL0     H91480   0.092   6.010   3.022  2.5160 -1.7488  1.2357
  678MOL0     H91481   0.115   5.693   2.933 -0.0750 -1.1621  0.2871
  678MOL0     H91482  -0.013   5.449   2.846  2.1297  1.5829 -1.3564
  678MOL0     H91483  -0.177   5.468   2.834  0.5302  0.0937  2.7027
  678MOL0     H91484  -0.118   5.466   2.620  0.0582 -1.4554  2.9618
  678MOL0     H91485  -0.163   5.624   2.647 -0.4060 -0.1642  1.7148
  678MOL0     H91486   0.087   5.687   2.686  0.8655  0.2807 -0.1174
  678MOL0     H91487   0.033   5.662   2.518  1.4323  0.8403  0.1387
  678MOL0     H91488   0.235   5.534   2.521 -0.9392  2.2356 -0.0107
  678MOL0     H91489   0.114   5.422   2.541  0.7232 -0.2674 -0.6126
  678MOL0     H91490   0.317   5.429   2.967  0.8762  1.3812  3.1614
  678MOL0     H91491   0.457   5.588   3.083  4.0574 -1.5597 -1.3780
  678MOL0     H91492   0.655   6.141   2.867  1.1161  1.8451  0.5524
  678MOL0     H91493   0.833   6.296   2.926  0.0753 -0.7125 -2.1109
  678MOL0     H91494   1.099   6.287   2.913  2.9255 -0.1381  1.7246
  678MOL0     H91495   1.022   6.427   2.996 -1.3957  0.1114  1.1986
  678MOL0     H91496   1.226   6.412   3.153  0.5936 -4.6736  1.0840
  678MOL0     H91497   1.292   6.289   3.050  1.3715  0.6961  0.4681
  678MOL0     H91498   1.287   6.454   2.868  1.7566 -1.7614  0.4738
  678MOL0     H91499   1.222   6.578   2.974  0.4387  0.6704  0.9974
  678MOL0     H91500   1.427   6.526   3.130  0.0523  1.1504  0.4019
  678MOL0     H91501   1.441   6.634   2.995  0.7196 -0.0737  1.3845
  678MOL0     H91502   1.545   6.485   2.840  0.3299 -0.4558  0.2214
  678MOL0     H91503   1.532   6.345   2.943  1.4155 -0.4391 -0.0858
  678MOL0     H91504   1.717   6.580   3.019 -0.1241  0.1181 -0.0815
  678MOL0     H91505   1.668   6.429   3.112 -1.6204 -0.3195 -1.1263
  678MOL0     H91506   1.796   6.423   2.841  0.6701  1.4129  0.6745
  678MOL0     H91507   1.756   6.291   2.962  1.3148  0.6668  3.1767
  678MOL0     H91508   1.934   6.538   3.012  0.4636 -0.9792 -0.3208
  678MOL0     H91509   1.900   6.406   3.119 -3.1373 -1.2248 -0.6729
  678MOL0     H91510   1.011   5.994   3.179 -1.4689  2.0082  0.9917
  678MOL0     H91511   0.851   5.837   3.081 -1.6837  0.1345  0.2056
  678MOL0     H91512   0.475   5.844   2.743  0.3137  1.6709  2.5017
  678MOL0     H91513   0.311   5.716   2.627  2.7986 -1.7284 -1.0120
  678MOL0     H91514   0.802   6.533   3.349  1.0078  0.4657 -0.8751
  678MOL0     H91515   0.948   6.706   3.361 -2.0118 -2.2178 -1.4176
  678MOL0     H91516   1.281   6.816   3.109 -0.2433 -1.6677  1.9725
  678MOL0     H91517   1.405   7.009   3.033  0.5145  1.8567 -0.0065
  678MOL0     H91518   1.498   7.171   2.980  2.8398 -1.0057 -2.2343
  678MOL0     H91519   1.661   7.166   3.033 -0.6807  0.5077 -4.2977
  678MOL0     H91520   1.500   7.429   3.069  1.1019  2.4868 -2.4267
  678MOL0     H91521   1.575   7.386   2.915  2.4830  2.9488  0.0855
  678MOL0     H91522   1.791   7.375   2.992  1.6461  0.6944  1.6490
  678MOL0     H91523   1.737   7.395   3.159 -1.4009 -2.7201 -0.4138
  678MOL0     H91524   1.673   7.627   3.090  0.1360  2.0515 -1.7035
  678MOL0     H91525   1.848   7.602   3.060  0.0297  0.8023 -2.6650
  678MOL0     H91526   1.680   7.644   2.665  1.5160  1.5755  0.4527
  678MOL0     H91527   1.497   7.120   3.434 -1.7772  2.9570 -0.5534
  678MOL0     H91528   1.264   6.937   3.586 -0.2913 -1.9544  2.8902
  678MOL0     H91529   1.396   6.823   3.607 -1.4445 -0.5769  0.6256
  678MOL0     H91530   1.417   6.994   3.630 -5.0162 -0.1166  3.1991
  679MOL0     O91531   9.947   7.302   9.496  0.4907  0.3517  0.1138
  679MOL0     C91532   9.858   7.379   9.461 -0.7820  0.3259 -0.3308
  679MOL0     O91533   9.873   7.470   9.360  0.2938  0.2512 -0.0152
  679MOL0     C91534   9.995   7.487   9.292  0.0425 -0.0748  0.0334
  679MOL0     C91535  10.120   7.486   9.356 -0.5815  0.1823 -0.3538
  679MOL0     C91536  10.231   7.516   9.281 -0.0248  0.7879 -0.1681
  679MOL0     C91537  10.227   7.532   9.142  0.0492  0.7243 -0.2544
  679MOL0     O91538  10.337   7.534   9.056  0.3462  0.5552 -0.7752
  679MOL0     C91539  10.454   7.600   9.107  0.3875 -0.4653 -0.1126
  679MOL0     C91540  10.568   7.626   9.018 -0.0726 -0.1172 -0.2803
  679MOL0     C91541  10.542   7.733   8.915 -0.8283 -0.3258  0.0361
  679MOL0     C91542  10.601   7.874   8.941 -0.0912 -0.8036 -0.1734
  679MOL0     C91543  10.554   7.978   8.845  0.7430  0.5628  0.9591
  679MOL0     C91544  10.524   7.944   8.700  0.0066 -0.0315  0.8692
  679MOL0     C91545  10.658   7.954   8.621 -0.0670 -0.6068 -0.3108
  679MOL0     C91546  10.652   7.935   8.475  0.5120  0.0368  0.6731
  679MOL0     N91547  10.785   7.956   8.414  0.8153 -0.0826 -0.3858
  679MOL0     C91548  10.874   8.058   8.442  0.8218  0.4152  0.1121
  679MOL0     C91549  10.980   8.017   8.367 -0.1863  0.2364  0.0680
  679MOL0     C91550  11.107   8.086   8.355  0.4825 -0.1313 -0.8859
  679MOL0     C91551  11.179   8.104   8.490 -0.3657 -0.6041 -0.0550
  679MOL0     C91552  11.320   8.171   8.492 -0.3283  0.0433  0.1940
  679MOL0     C91553  11.435   8.067   8.490  0.0717  0.3651  0.1292
  679MOL0     O91554  11.428   7.995   8.365 -0.8563  0.7106 -1.3821
  679MOL0     C91555  11.553   7.939   8.333  1.1006  0.6697  0.0990
  679MOL0     C91556  11.663   7.928   8.415  0.3644  0.7551 -0.3375
  679MOL0     C91557  11.782   7.867   8.377 -0.4870  0.1410 -0.4798
  679MOL0     C91558  11.796   7.816   8.248  0.7617  0.0964 -0.0028
  679MOL0     C91559  11.921   7.755   8.198 -0.0387 -0.3008 -0.0734
  679MOL0     O91560  11.929   7.691   8.081 -0.3718 -0.1069  0.5275
  679MOL0     C91561  12.046   7.623   8.030  0.5622  0.3747 -0.3477
  679MOL0     C91562  12.135   7.549   8.098  0.1322  0.5249  0.0705
  679MOL0     C91563  12.241   7.483   8.028  0.3429 -0.1207  0.7289
  679MOL0     C91564  12.255   7.490   7.883  0.7935  0.4028  0.1112
  679MOL0     O91565  12.349   7.445   7.799  0.1744 -0.7549 -0.3220
  679MOL0     C91566  12.484   7.443   7.860  0.5784  0.1040  0.2567
  679MOL0     C91567  12.589   7.426   7.753  0.4675  0.4337 -0.0003
  679MOL0     C91568  12.723   7.408   7.819 -0.4070 -0.5969 -0.2012
  679MOL0     C91569  12.736   7.266   7.869 -0.5853 -0.1273 -0.5050
  679MOL0     C91570  12.858   7.247   7.959  0.0027  0.4550  0.7248
  679MOL0     C91571  12.866   7.334   8.083  0.2333 -0.2286  0.6891
  679MOL0     C91572  12.981   7.299   8.180 -0.0002  0.3712  0.6282
  679MOL0     C91573  12.966   7.387   8.303 -0.3150 -0.4557 -0.5336
  679MOL0    Cl91574  13.108   7.358   8.406 -0.5176 -0.6637  0.2119
  679MOL0     C91575  12.151   7.554   7.817  0.1531  0.2047  0.2091
  679MOL0     C91576  12.055   7.624   7.894  0.0969  0.7292  0.2095
  679MOL0     O91577  12.014   7.768   8.275  0.4698 -0.5508  0.5811
  679MOL0     C91578  11.684   7.833   8.156  0.6621  0.7281 -0.0862
  679MOL0     C91579  11.564   7.888   8.198 -0.1603 -1.2582  0.0279
  679MOL0     N91580  10.957   7.894   8.308  0.1822  0.8058 -0.0187
  679MOL0     N91581  10.838   7.858   8.337 -0.5647  0.0658 -0.1458
  679MOL0     C91582  10.102   7.545   9.080 -0.7179  0.6680 -0.3181
  679MOL0     C91583   9.990   7.523   9.154  0.3075  1.2060  0.7335
  679MOL0     C91584   9.725   7.360   9.525 -0.0223 -0.4856  0.4910
  679MOL0     C91585   9.655   7.476   9.546  0.7197 -0.0013  0.7762
  679MOL0     C91586   9.526   7.472   9.609 -0.2474  1.1124  0.1945
  679MOL0     C91587   9.472   7.352   9.654 -0.1629 -0.4337 -0.1595
  679MOL0     O91588   9.345   7.353   9.715 -0.5120  0.4249  0.9304
  679MOL0     C91589   9.336   7.436   9.831  1.2420  0.8305 -0.1865
  679MOL0     C91590   9.240   7.366   9.930  1.0041  0.4161  0.6441
  679MOL0     C91591   9.207   7.449  10.047  0.3072 -0.1109  0.2803
  679MOL0     C91592   9.073   7.410  10.105 -0.6666  0.5110 -0.1772
  679MOL0     C91593   8.956   7.461  10.028 -0.1658 -1.3340 -0.1947
  679MOL0     C91594   8.866   7.492   9.957 -0.4219  0.5191  0.9668
  679MOL0     C91595   9.546   7.233   9.628  0.1377 -0.3802 -0.3229
  679MOL0     C91596   9.663   7.238   9.555 -0.0496 -0.9231  0.1468
  679MOL0     C91597   9.717   7.114   9.505  0.2111 -0.7670  0.0814
  679MOL0     H91598  10.138   7.470   9.461 -1.8151  1.4238  0.0743
  679MOL0     H91599  10.326   7.507   9.333 -1.3779 -0.9603  2.2086
  679MOL0     H91600  10.427   7.697   9.151  0.1979 -1.1300  1.2886
  679MOL0     H91601  10.501   7.539   9.184  0.4725 -0.7315 -0.3751
  679MOL0     H91602  10.597   7.534   8.966 -2.6348 -1.6795  0.9092
  679MOL0     H91603  10.660   7.651   9.072 -0.8047  1.7832  0.1498
  679MOL0     H91604  10.438   7.742   8.880 -1.3396  0.7311  1.7441
  679MOL0     H91605  10.587   7.690   8.825 -0.1647 -0.4963  0.4472
  679MOL0     H91606  10.589   7.903   9.046  0.6180 -2.1633  0.3069
  679MOL0     H91607  10.709   7.875   8.929  0.0519  0.6776  0.9149
  679MOL0     H91608  10.454   8.005   8.880 -1.2481 -3.7244 -0.7364
  679MOL0     H91609  10.618   8.067   8.850  0.7733  0.5853  0.2135
  679MOL0     H91610  10.468   7.850   8.693 -0.2391 -0.1359  3.3705
  679MOL0     H91611  10.456   8.025   8.672  0.8236  0.5526  0.5618
  679MOL0     H91612  10.722   7.877   8.664 -0.4043 -0.9601 -0.4391
  679MOL0     H91613  10.708   8.048   8.645 -0.2515 -0.6143  0.1187
  679MOL0     H91614  10.613   7.837   8.446  0.8657 -0.2701  1.2248
  679MOL0     H91615  10.590   8.022   8.450  1.9246  1.0263  0.4709
  679MOL0     H91616  10.853   8.155   8.487 -2.2477  0.3824 -1.0364
  679MOL0     H91617  11.167   8.021   8.290  0.0512 -0.6090 -0.8102
  679MOL0     H91618  11.085   8.184   8.311  2.0081 -0.5359 -2.7003
  679MOL0     H91619  11.121   8.172   8.552 -1.2339 -1.7902  0.4747
  679MOL0     H91620  11.183   8.005   8.537  0.2629 -0.6569 -0.2060
  679MOL0     H91621  11.324   8.229   8.584 -3.4052 -0.7594  0.9479
  679MOL0     H91622  11.334   8.227   8.399 -1.3111 -2.4455 -1.5690
  679MOL0     H91623  11.434   7.993   8.570  1.0631 -0.4164 -0.5522
  679MOL0     H91624  11.529   8.122   8.500  2.0085 -2.6147 -0.4253
  679MOL0     H91625  11.658   7.970   8.515 -0.5643  2.3408 -1.0120
  679MOL0     H91626  11.869   7.874   8.442  0.0027 -0.5898 -1.0517
  679MOL0     H91627  12.127   7.544   8.206 -2.4727  0.3204 -0.0653
  679MOL0     H91628  12.316   7.423   8.078  2.1513 -1.0365 -2.7443
  679MOL0     H91629  12.506   7.540   7.905  1.3047  0.2954 -0.4868
  679MOL0     H91630  12.480   7.362   7.934  0.8584  0.7257  0.9635
  679MOL0     H91631  12.557   7.335   7.702 -0.7346 -0.4940  2.2451
  679MOL0     H91632  12.579   7.505   7.678  0.4264 -1.3887 -1.9960
  679MOL0     H91633  12.802   7.439   7.751 -1.1205 -4.3733 -3.0824
  679MOL0     H91634  12.729   7.470   7.909  0.6158 -2.6007  1.1992
  679MOL0     H91635  12.748   7.208   7.777 -1.0226 -1.3486  0.1818
  679MOL0     H91636  12.644   7.238   7.922  1.1184 -3.4712  0.9973
  679MOL0     H91637  12.941   7.288   7.901 -0.4030  1.2548  0.7066
  679MOL0     H91638  12.872   7.139   7.974  0.8756  0.4851  0.2224
  679MOL0     H91639  12.877   7.438   8.052 -1.9404 -0.3705 -0.7214
  679MOL0     H91640  12.770   7.318   8.132  1.4434 -2.5131  2.5444
  679MOL0     H91641  13.080   7.307   8.135 -1.0591 -1.3375 -2.2887
  679MOL0     H91642  12.968   7.195   8.212 -1.3131  0.3443  0.0899
  679MOL0     H91643  12.966   7.490   8.266 -2.5034  0.0290  0.6869
  679MOL0     H91644  12.876   7.373   8.363  0.2651  1.2073  0.8142
  679MOL0     H91645  12.157   7.572   7.710  3.3917  0.4237  0.3291
  679MOL0     H91646  11.973   7.676   7.845 -2.2228 -0.6121  2.4318
  679MOL0     H91647  11.696   7.815   8.050 -4.4392  4.5187 -1.6974
  679MOL0     H91648  11.480   7.901   8.131  0.5344  1.5623 -0.4163
  679MOL0     H91649  10.098   7.566   8.973 -3.1094 -0.4571 -0.5227
  679MOL0     H91650   9.901   7.529   9.093 -0.8604 -3.3945  1.6334
  679MOL0     H91651   9.700   7.572   9.522  1.6981 -0.3599  1.1314
  679MOL0     H91652   9.473   7.562   9.639  0.0404  1.0444  0.9307
  679MOL0     H91653   9.302   7.533   9.794 -0.3224  0.3186 -0.1826
  679MOL0     H91654   9.433   7.440   9.882 -0.0814 -2.3050  3.0534
  679MOL0     H91655   9.273   7.265   9.956  0.1432 -0.1461 -0.3532
  679MOL0     H91656   9.144   7.365   9.878  1.1969 -0.4353  0.2948
  679MOL0     H91657   9.196   7.555  10.025 -1.7351 -0.4917 -0.7419
  679MOL0     H91658   9.290   7.448  10.118 -0.1186  1.9196  0.8514
  679MOL0     H91659   9.070   7.301  10.111  0.1338  0.5528  2.3328
  679MOL0     H91660   9.061   7.435  10.211 -0.6956  4.0666 -0.8966
  679MOL0     H91661   8.791   7.514   9.883  0.3867  1.1811  0.3217
  679MOL0     H91662   9.503   7.136   9.652 -1.2382  0.0216 -1.0359
  679MOL0     H91663   9.808   7.092   9.563  1.1306  3.2077  0.4162
  679MOL0     H91664   9.649   7.029   9.511 -1.2656  0.0508 -3.2417
  679MOL0     H91665   9.732   7.124   9.397 -0.5691 -0.1669  0.0233
  680MOL0     O91666   7.122   1.707   7.324  0.5874 -0.3004  0.2947
  680MOL0     C91667   7.142   1.708   7.442  1.3769 -0.3696  0.3249
  680MOL0     O91668   7.261   1.691   7.504 -0.2184  0.8156 -0.3804
  680MOL0     C91669   7.380   1.712   7.431 -0.8111 -0.0258 -0.3086
  680MOL0     C91670   7.464   1.825   7.460 -0.6262 -0.1347  0.2621
  680MOL0     C91671   7.585   1.843   7.390  0.0597 -0.9538  0.2024
  680MOL0     C91672   7.618   1.757   7.287 -0.8909  0.1028 -0.0684
  680MOL0     O91673   7.735   1.770   7.207  0.5936 -0.0920  0.3703
  680MOL0     C91674   7.791   1.902   7.190  0.1043 -0.2704  0.0667
  680MOL0     C91675   7.868   1.913   7.061 -0.8538  0.7152  0.6220
  680MOL0     C91676   7.763   1.934   6.952  0.2577 -0.5415  0.4124
  680MOL0     C91677   7.818   1.904   6.815  0.5438 -0.3041 -0.7542
  680MOL0     C91678   7.949   1.979   6.789 -0.0672 -0.3809  0.0110
  680MOL0     C91679   7.995   1.960   6.639  0.1137  0.4865 -0.3814
  680MOL0     C91680   8.138   2.014   6.616  0.0971  0.0396 -0.1930
  680MOL0     C91681   8.155   2.157   6.656 -0.1883 -0.0674 -0.2640
  680MOL0     N91682   8.294   2.197   6.639 -0.2229  0.3809  0.7179
  680MOL0     C91683   8.352   2.223   6.516 -1.1855  0.7470 -0.1275
  680MOL0     C91684   8.485   2.257   6.544  0.5838 -0.7127  0.5722
  680MOL0     C91685   8.587   2.283   6.442 -0.0906 -0.1737 -0.2068
  680MOL0     C91686   8.566   2.399   6.345 -0.6780 -0.3623 -0.2304
  680MOL0     C91687   8.663   2.396   6.219  0.4997  0.7546  0.1437
  680MOL0     C91688   8.802   2.339   6.229 -0.2868 -0.0087  0.2807
  680MOL0     O91689   8.878   2.392   6.124  0.1735 -0.3605  0.1043
  680MOL0     C91690   9.012   2.375   6.128 -0.3402  0.9292 -0.0637
  680MOL0     C91691   9.077   2.436   6.020 -0.6293  0.5576  0.1920
  680MOL0     C91692   9.213   2.444   6.027  0.0933 -0.3710  0.6446
  680MOL0     C91693   9.291   2.377   6.127 -0.7101 -0.0093 -0.1311
  680MOL0     C91694   9.438   2.395   6.128  0.2031 -0.5489 -1.2553
  680MOL0     O91695   9.505   2.359   6.242 -0.2787  0.2213 -0.3491
  680MOL0     C91696   9.643   2.356   6.255 -0.1771 -0.3714  0.2994
  680MOL0     C91697   9.743   2.333   6.160  0.4883 -0.0848 -0.9652
  680MOL0     C91698   9.880   2.347   6.189  0.6978 -0.5549  0.4303
  680MOL0     C91699   9.927   2.369   6.315  0.6822  0.5155 -0.5408
  680MOL0     O91700  10.067   2.383   6.345  0.5621  0.2628 -0.5126
  680MOL0     C91701  10.104   2.488   6.436  0.6428  1.2199  0.4081
  680MOL0     C91702  10.253   2.499   6.439 -0.6362  0.0904  0.5216
  680MOL0     C91703  10.305   2.627   6.490  0.5718  0.1619 -0.1482
  680MOL0     C91704  10.452   2.636   6.523  0.1343 -0.0568 -0.1006
  680MOL0     C91705  10.496   2.539   6.636 -0.2490 -0.0037 -0.4337
  680MOL0     C91706  10.645   2.527   6.643  0.1023 -0.2957 -0.0147
  680MOL0     C91707  10.694   2.471   6.775 -0.4946  0.2115 -0.3115
  680MOL0     C91708  10.846   2.478   6.775  0.0673 -0.3390  0.2018
  680MOL0    Cl91709  10.915   2.403   6.917  0.0495 -0.3281 -0.0248
  680MOL0     C91710   9.825   2.397   6.414 -0.6360 -0.5222  0.4105
  680MOL0     C91711   9.688   2.393   6.386 -1.0456  0.4724 -0.2346
  680MOL0     O91712   9.487   2.465   6.040  0.1727  0.4315 -0.3436
  680MOL0     C91713   9.224   2.295   6.222  0.2765 -0.2459  0.4871
  680MOL0     C91714   9.086   2.295   6.222  0.4940 -0.1771 -0.4834
  680MOL0     N91715   8.502   2.237   6.678  0.7326 -0.0731  0.2109
  680MOL0     N91716   8.393   2.207   6.733 -0.3175  0.0289 -0.7097
  680MOL0     C91717   7.541   1.648   7.256  0.6723  0.4226 -0.1944
  680MOL0     C91718   7.422   1.623   7.329  0.7042 -0.9405 -0.0813
  680MOL0     C91719   7.019   1.729   7.525 -0.3572  0.2700  0.3473
  680MOL0     C91720   7.036   1.712   7.669 -0.6041 -0.6456  0.5259
  680MOL0     C91721   6.926   1.731   7.759 -0.0811 -0.9624  0.0850
  680MOL0     C91722   6.799   1.773   7.712 -0.1520 -0.5521  0.5515
  680MOL0     O91723   6.681   1.805   7.780 -0.7752  0.3690  0.2273
  680MOL0     C91724   6.674   1.758   7.911 -0.7834  0.7231 -0.7198
  680MOL0     C91725   6.644   1.605   7.916 -0.1764 -0.5111 -0.7346
  680MOL0     C91726   6.538   1.552   7.822 -0.5171 -0.3661  0.2667
  680MOL0     C91727   6.394   1.586   7.865 -0.4822  0.2489  0.4969
  680MOL0     C91728   6.286   1.563   7.764 -0.8683  0.2337  0.3591
  680MOL0     C91729   6.202   1.565   7.678  0.4761 -0.4418 -0.9460
  680MOL0     C91730   6.791   1.796   7.572  0.2200  0.1314 -0.3023
  680MOL0     C91731   6.893   1.779   7.478  0.4758  0.5624 -0.5034
  680MOL0     C91732   6.862   1.828   7.340  0.0546 -1.1228 -0.1562
  680MOL0     H91733   7.432   1.893   7.539  0.5090  0.6033  0.1078
  680MOL0     H91734   7.654   1.914   7.435  1.1267 -3.0649  2.1417
  680MOL0     H91735   7.712   1.977   7.194  0.0455  0.0546 -3.4176
  680MOL0     H91736   7.871   1.916   7.263  1.4771 -1.2164 -1.1857
  680MOL0     H91737   7.934   1.828   7.040 -1.0591  1.1502 -2.1634
  680MOL0     H91738   7.937   1.999   7.063  1.2488 -0.7862 -1.2699
  680MOL0     H91739   7.732   2.039   6.948 -2.9797 -1.3900 -2.4282
  680MOL0     H91740   7.673   1.874   6.970 -0.2708  1.1467  4.5020
  680MOL0     H91741   7.838   1.796   6.812 -1.8282 -0.8137 -0.6141
  680MOL0     H91742   7.740   1.919   6.740  0.7974 -1.9948 -1.4186
  680MOL0     H91743   7.932   2.085   6.809  1.4505 -0.4942  2.3609
  680MOL0     H91744   8.026   1.933   6.852 -0.2487 -1.1759 -0.3395
  680MOL0     H91745   7.986   1.857   6.604 -0.4824 -0.5129  2.3818
  680MOL0     H91746   7.930   2.013   6.569 -0.3325  2.3004  1.3123
  680MOL0     H91747   8.156   1.995   6.510 -0.2819 -1.7552  0.0181
  680MOL0     H91748   8.210   1.957   6.675  1.2459  1.9575  0.3299
  680MOL0     H91749   8.081   2.212   6.597 -1.7954 -0.5788  1.1549
  680MOL0     H91750   8.132   2.179   6.761  4.1284  3.5931  0.2384
  680MOL0     H91751   8.313   2.214   6.415  1.6281 -2.3948 -1.1481
  680MOL0     H91752   8.681   2.298   6.495 -0.5015 -0.4707  0.6283
  680MOL0     H91753   8.600   2.185   6.395 -1.1980 -0.7846  0.7022
  680MOL0     H91754   8.467   2.381   6.302 -1.0146  1.5395 -0.3691
  680MOL0     H91755   8.560   2.497   6.393  1.0808 -0.1854 -0.3129
  680MOL0     H91756   8.676   2.498   6.182  1.6410  0.5896  0.0400
  680MOL0     H91757   8.616   2.337   6.140 -3.1310  1.2733  1.7282
  680MOL0     H91758   8.802   2.230   6.239  1.2400 -0.6657 -4.3805
  680MOL0     H91759   8.846   2.376   6.321  0.8856 -1.3888  0.3139
  680MOL0     H91760   9.005   2.488   5.956 -2.2116 -0.5723  0.9755
  680MOL0     H91761   9.260   2.519   5.965 -0.6612 -0.6545 -0.2873
  680MOL0     H91762   9.707   2.318   6.059 -0.4416  0.7567 -0.7724
  680MOL0     H91763   9.942   2.346   6.100 -0.6965  0.0961 -0.5837
  680MOL0     H91764  10.051   2.581   6.414 -2.6832 -0.5618  0.0415
  680MOL0     H91765  10.070   2.460   6.536 -0.0059 -0.8856 -0.3357
  680MOL0     H91766  10.278   2.415   6.504 -3.0118 -0.0386  1.3615
  680MOL0     H91767  10.289   2.481   6.337 -2.8584 -0.0995 -0.2878
  680MOL0     H91768  10.275   2.703   6.417  2.9531  0.2205 -1.1747
  680MOL0     H91769  10.245   2.637   6.580 -0.9955 -3.5583 -0.5990
  680MOL0     H91770  10.482   2.735   6.560 -0.0356 -0.8124  2.2277
  680MOL0     H91771  10.520   2.626   6.437  1.6688 -0.9882  1.1617
  680MOL0     H91772  10.452   2.440   6.618 -1.8900  0.6535 -0.1997
  680MOL0     H91773  10.459   2.585   6.729 -0.5098 -0.1071 -0.4861
  680MOL0     H91774  10.673   2.460   6.562 -0.6716  0.7612 -1.1897
  680MOL0     H91775  10.699   2.621   6.628  4.6391 -2.6591 -0.4629
  680MOL0     H91776  10.672   2.365   6.782 -2.7688  0.7594  2.9695
  680MOL0     H91777  10.646   2.525   6.858 -0.7784  0.0036 -0.3377
  680MOL0     H91778  10.894   2.447   6.681  1.8163  2.6442 -0.0396
  680MOL0     H91779  10.889   2.579   6.781  2.7831 -1.3166 -0.8989
  680MOL0     H91780   9.857   2.419   6.515  0.2702  0.2228 -0.0262
  680MOL0     H91781   9.606   2.412   6.455 -1.9192  2.4614 -1.7230
  680MOL0     H91782   9.273   2.249   6.307  1.2036  0.7680  0.5164
  680MOL0     H91783   9.026   2.251   6.301 -1.4143  0.6081 -1.4362
  680MOL0     H91784   7.572   1.586   7.173  1.0680  1.1956 -0.6297
  680MOL0     H91785   7.366   1.538   7.293  2.8344 -2.3033 -0.3455
  680MOL0     H91786   7.135   1.690   7.707  0.1623 -0.6427 -1.3447
  680MOL0     H91787   6.946   1.711   7.864 -2.0625  1.6378  1.0676
  680MOL0     H91788   6.595   1.819   7.956 -0.8806  1.1136 -1.3962
  680MOL0     H91789   6.767   1.774   7.965 -0.9245 -1.0176  0.0785
  680MOL0     H91790   6.613   1.583   8.018  1.2490  0.8304  0.0208
  680MOL0     H91791   6.736   1.547   7.910 -0.3526 -0.8161 -0.5338
  680MOL0     H91792   6.556   1.445   7.829  2.2406  0.1373  2.0195
  680MOL0     H91793   6.558   1.579   7.718  0.9130 -1.5940  0.2015
  680MOL0     H91794   6.376   1.532   7.958  4.5470  3.6840  3.9821
  680MOL0     H91795   6.397   1.691   7.893 -0.8234  0.4318 -0.1356
  680MOL0     H91796   6.127   1.566   7.602 -2.1869 -2.9202  1.3932
  680MOL0     H91797   6.698   1.846   7.546 -1.4808 -1.5045  2.1914
  680MOL0     H91798   6.760   1.869   7.336  0.4706  0.0844  0.8783
  680MOL0     H91799   6.925   1.913   7.312 -1.2025  0.1115  0.6485
  680MOL0     H91800   6.869   1.750   7.263  3.6565  0.8592 -2.0791
  681MOL0     O91801   8.179   6.986   7.558 -0.0018 -0.7819 -0.1909
  681MOL0     C91802   8.104   7.081   7.558  0.0009 -0.9596 -0.2197
  681MOL0     O91803   8.141   7.210   7.541  0.0360 -0.5329 -0.2798
  681MOL0     C91804   8.275   7.248   7.551 -0.4872  0.2501  0.9713
  681MOL0     C91805   8.310   7.348   7.641  0.3997 -0.9154 -0.1456
  681MOL0     C91806   8.444   7.388   7.656  0.3719  0.3281  1.3100
  681MOL0     C91807   8.547   7.325   7.586 -0.4612 -0.1666  0.2616
  681MOL0     O91808   8.676   7.356   7.623  0.1894 -0.2779 -0.9453
  681MOL0     C91809   8.789   7.316   7.551  1.3394  0.2201  0.2395
  681MOL0     C91810   8.908   7.358   7.623 -0.1268 -0.0337  0.5373
  681MOL0     C91811   9.045   7.342   7.554 -0.5332 -0.1246  0.0340
  681MOL0     C91812   9.147   7.348   7.668 -0.0499  0.0350 -0.5514
  681MOL0     C91813   9.298   7.351   7.635 -0.4268 -0.2325  0.0952
  681MOL0     C91814   9.357   7.236   7.564 -0.5971  0.2965  0.7721
  681MOL0     C91815   9.499   7.269   7.521 -0.1185  0.1979 -1.0091
  681MOL0     C91816   9.557   7.156   7.445 -0.1792 -0.1500 -0.5804
  681MOL0     N91817   9.690   7.184   7.389 -0.2504  0.5189  1.1095
  681MOL0     C91818   9.801   7.224   7.464 -0.2321 -0.1258 -0.1591
  681MOL0     C91819   9.884   7.262   7.369 -0.6203  0.2910  0.4267
  681MOL0     C91820  10.023   7.303   7.399  0.7156 -1.1039 -0.1474
  681MOL0     C91821  10.115   7.241   7.288 -0.6588 -0.4082  0.4596
  681MOL0     C91822  10.266   7.269   7.313  0.4323  0.2215 -1.0591
  681MOL0     C91823  10.355   7.210   7.210 -0.1543 -0.1831 -0.1650
  681MOL0     O91824  10.306   7.239   7.079 -0.2739 -0.3245 -0.2655
  681MOL0     C91825  10.404   7.250   6.984 -0.2928  0.6338  0.4475
  681MOL0     C91826  10.514   7.163   6.974 -0.1420 -0.0364 -0.3540
  681MOL0     C91827  10.621   7.180   6.891  0.6472  0.7770 -0.1731
  681MOL0     C91828  10.627   7.292   6.807  0.3871  0.4213  0.8217
  681MOL0     C91829  10.742   7.317   6.712  0.3871 -0.1389  0.0619
  681MOL0     O91830  10.852   7.232   6.738  0.0761  0.0550  0.1850
  681MOL0     C91831  10.956   7.216   6.652  0.0346 -0.1610  0.0205
  681MOL0     C91832  11.007   7.320   6.571 -0.1480  0.3537 -1.2490
  681MOL0     C91833  11.107   7.299   6.472 -0.5760  0.5316  0.0598
  681MOL0     C91834  11.161   7.169   6.450  1.5374 -0.0092 -0.0382
  681MOL0     O91835  11.257   7.161   6.355 -0.6567  0.6366  0.1254
  681MOL0     C91836  11.285   7.019   6.317  0.6461 -0.3490  0.7838
  681MOL0     C91837  11.379   7.018   6.185 -0.5041 -0.7508  0.2395
  681MOL0     C91838  11.315   7.046   6.046 -0.4069 -0.8709 -0.3113
  681MOL0     C91839  11.427   7.075   5.952  0.0627  0.7859  0.7860
  681MOL0     C91840  11.493   6.940   5.917  0.1608  0.3591 -0.1278
  681MOL0     C91841  11.591   6.980   5.797 -0.1793  0.0807 -0.0002
  681MOL0     C91842  11.696   6.875   5.755  0.3990  0.1248 -0.2798
  681MOL0     C91843  11.807   6.946   5.695 -0.3447  0.2894 -0.1331
  681MOL0    Cl91844  11.918   6.993   5.836 -0.2729 -0.1733  0.0965
  681MOL0     C91845  11.108   7.066   6.545  1.1541 -0.3385  0.3363
  681MOL0     C91846  11.012   7.090   6.637  0.4064  0.1697  0.7262
  681MOL0     O91847  10.741   7.398   6.617 -0.0086  0.2771 -0.2472
  681MOL0     C91848  10.506   7.372   6.800  0.0711 -0.6689 -0.2960
  681MOL0     C91849  10.397   7.351   6.884  0.4608  0.7296 -0.3875
  681MOL0     N91850   9.832   7.222   7.245  0.9443  0.8483 -0.1515
  681MOL0     N91851   9.710   7.191   7.257  0.0297 -0.5040 -0.1225
  681MOL0     C91852   8.508   7.218   7.500  0.8960  0.0527 -0.1966
  681MOL0     C91853   8.375   7.193   7.474  0.4415 -0.2416 -0.2207
  681MOL0     C91854   7.960   7.064   7.572 -0.6199 -0.3271  0.2450
  681MOL0     C91855   7.874   7.175   7.548  1.0262  0.2478  0.1275
  681MOL0     C91856   7.735   7.163   7.556 -0.2599 -0.0420 -0.3009
  681MOL0     C91857   7.679   7.038   7.575 -0.0751 -0.7697  0.7848
  681MOL0     O91858   7.544   7.023   7.566  0.6957  0.0204 -0.8731
  681MOL0     C91859   7.458   7.122   7.508  1.1453 -0.7053  0.0140
  681MOL0     C91860   7.317   7.066   7.516 -0.1464  0.2548  0.3660
  681MOL0     C91861   7.204   7.167   7.512 -1.0721 -0.1857  0.0747
  681MOL0     C91862   7.065   7.097   7.500  0.9174  0.0197 -0.4145
  681MOL0     C91863   6.960   7.202   7.484 -0.2396  0.1452 -0.8841
  681MOL0     C91864   6.878   7.290   7.486  0.0498 -0.0258 -0.7539
  681MOL0     C91865   7.758   6.926   7.600  0.2998 -0.6791  0.2772
  681MOL0     C91866   7.895   6.942   7.606 -0.5577  0.5933 -0.4828
  681MOL0     C91867   7.979   6.814   7.636 -0.1737  0.2198  0.9073
  681MOL0     H91868   8.229   7.391   7.699  2.1672 -2.1241  3.5203
  681MOL0     H91869   8.475   7.454   7.737  0.4048  0.0784  1.5033
  681MOL0     H91870   8.787   7.206   7.544 -0.8190  0.1128  1.5947
  681MOL0     H91871   8.785   7.370   7.456  2.4578 -0.6431 -0.3122
  681MOL0     H91872   8.918   7.297   7.713  1.4426 -0.3436  0.1851
  681MOL0     H91873   8.899   7.457   7.666 -0.9550  0.1788 -0.0918
  681MOL0     H91874   9.057   7.420   7.478 -3.3290  1.2149  0.8395
  681MOL0     H91875   9.055   7.246   7.503  1.6461 -1.0142  1.9154
  681MOL0     H91876   9.137   7.441   7.725  1.0786  0.7887 -1.5560
  681MOL0     H91877   9.129   7.263   7.735  2.2234 -1.8244 -2.1579
  681MOL0     H91878   9.299   7.442   7.574 -0.8544  0.5896  1.2756
  681MOL0     H91879   9.350   7.376   7.728 -5.1817  2.6993  2.3676
  681MOL0     H91880   9.339   7.153   7.634 -1.2312 -1.3713 -1.2517
  681MOL0     H91881   9.303   7.209   7.473  2.0451 -1.8585 -0.2977
  681MOL0     H91882   9.562   7.283   7.610 -3.2019  0.6102  1.3064
  681MOL0     H91883   9.499   7.360   7.461 -1.5449  0.4366 -0.6931
  681MOL0     H91884   9.559   7.073   7.516  3.0037  0.2054 -0.1342
  681MOL0     H91885   9.484   7.134   7.366  0.6263 -1.6926 -0.9364
  681MOL0     H91886   9.814   7.219   7.571  0.2083 -0.6901 -0.2400
  681MOL0     H91887  10.023   7.412   7.395 -1.7899 -0.8495  3.0133
  681MOL0     H91888  10.050   7.269   7.499 -0.6690 -1.7456  0.0221
  681MOL0     H91889  10.091   7.134   7.288 -1.8869 -0.1426  0.4926
  681MOL0     H91890  10.082   7.286   7.194  1.5647 -0.6736 -0.5294
  681MOL0     H91891  10.287   7.214   7.406 -1.4163  1.4629  0.1643
  681MOL0     H91892  10.288   7.374   7.333  3.5637 -0.9160  3.0381
  681MOL0     H91893  10.364   7.101   7.210  0.2200 -0.1566  0.3761
  681MOL0     H91894  10.458   7.248   7.215 -0.6060  1.0292  0.3506
  681MOL0     H91895  10.524   7.074   7.034 -3.1036 -1.9826 -2.4106
  681MOL0     H91896  10.699   7.105   6.891  1.2092  1.3480 -0.7854
  681MOL0     H91897  10.975   7.423   6.580  0.5143  0.5462 -1.0593
  681MOL0     H91898  11.122   7.386   6.410 -1.8867 -0.2594 -1.4235
  681MOL0     H91899  11.331   6.958   6.395  1.5861  1.4985  1.7254
  681MOL0     H91900  11.193   6.968   6.286  0.4524  1.6397 -2.4594
  681MOL0     H91901  11.469   7.076   6.208  0.8615 -1.8597 -1.9651
  681MOL0     H91902  11.430   6.921   6.188  2.3914  0.6652  0.3155
  681MOL0     H91903  11.248   6.969   6.008 -1.5231  0.7733 -1.8104
  681MOL0     H91904  11.263   7.142   6.061  1.7306  0.7843 -2.7054
  681MOL0     H91905  11.508   7.130   6.002  0.3474 -1.1175  2.6195
  681MOL0     H91906  11.387   7.126   5.865 -3.1088 -4.3489 -1.2615
  681MOL0     H91907  11.428   6.868   5.865  2.7873 -0.0155 -3.1957
  681MOL0     H91908  11.541   6.891   6.003 -2.3191 -0.4808  0.8802
  681MOL0     H91909  11.542   7.001   5.702  2.2322 -1.0309 -1.5779
  681MOL0     H91910  11.651   7.069   5.817  2.2750 -1.3156 -0.7412
  681MOL0     H91911  11.654   6.804   5.683  0.8916  0.0446 -0.4936
  681MOL0     H91912  11.730   6.820   5.843  0.7503 -1.2316 -1.2347
  681MOL0     H91913  11.861   6.872   5.635 -0.8408  0.8427 -1.2904
  681MOL0     H91914  11.788   7.031   5.629 -1.4145 -0.1584 -0.4190
  681MOL0     H91915  11.150   6.966   6.536 -0.2860 -0.9331 -0.0958
  681MOL0     H91916  10.993   7.002   6.699 -0.6066 -0.0194  0.1748
  681MOL0     H91917  10.509   7.458   6.735  0.5534  1.1014  1.9609
  681MOL0     H91918  10.318   7.425   6.877  1.2405  1.5834 -0.4066
  681MOL0     H91919   8.572   7.153   7.442 -0.5304 -1.9177  0.2870
  681MOL0     H91920   8.363   7.107   7.410 -2.7742 -0.1735  0.1473
  681MOL0     H91921   7.910   7.274   7.525  1.8012  0.4847  2.1475
  681MOL0     H91922   7.668   7.248   7.561 -0.9808 -0.6110 -0.0760
  681MOL0     H91923   7.486   7.154   7.407 -0.7365  1.1509 -0.0018
  681MOL0     H91924   7.469   7.207   7.576 -1.1651  1.2341 -1.8452
  681MOL0     H91925   7.306   7.013   7.612 -2.6966 -2.9981 -1.5173
  681MOL0     H91926   7.289   6.990   7.442  1.5967 -0.4182  0.3568
  681MOL0     H91927   7.218   7.234   7.427  3.1268 -0.7738  0.1215
  681MOL0     H91928   7.192   7.226   7.603  0.2148 -1.6867  1.2841
  681MOL0     H91929   7.065   7.019   7.422  0.4235  0.9665 -1.3964
  681MOL0     H91930   7.037   7.038   7.587 -5.1379 -0.3954 -2.1450
  681MOL0     H91931   6.803   7.367   7.486 -0.3835 -0.4171 -2.0956
  681MOL0     H91932   7.702   6.838   7.629 -0.6840 -0.0890  0.1857
  681MOL0     H91933   8.031   6.786   7.544 -0.0635 -0.5407  1.1971
  681MOL0     H91934   8.056   6.817   7.714  1.0582 -2.1519 -0.1125
  681MOL0     H91935   7.913   6.728   7.648 -2.2777  1.5928 -0.2385
  682MOL0     O91936  10.438   5.078   4.607 -0.2930  0.1498  0.5544
  682MOL0     C91937  10.390   5.198   4.616 -0.2678 -0.1177 -0.5438
  682MOL0     O91938  10.461   5.309   4.586 -0.1877 -0.3138  0.5720
  682MOL0     C91939  10.591   5.307   4.550 -0.1003  0.7801  0.2319
  682MOL0     C91940  10.693   5.231   4.606  0.5980 -0.2050  0.4310
  682MOL0     C91941  10.823   5.250   4.563 -0.1461 -0.3034 -0.2367
  682MOL0     C91942  10.860   5.344   4.467 -0.3736  0.7559  0.6553
  682MOL0     O91943  10.992   5.347   4.423 -0.0373  0.2950  0.4956
  682MOL0     C91944  11.024   5.426   4.314  0.0672 -0.2805 -0.2334
  682MOL0     C91945  11.172   5.416   4.279 -0.4253 -0.2666  0.4008
  682MOL0     C91946  11.269   5.429   4.398 -0.6101 -0.2536 -0.1084
  682MOL0     C91947  11.411   5.461   4.345  0.1098 -0.5528  0.1995
  682MOL0     C91948  11.526   5.445   4.455  0.1596 -0.5998  0.6066
  682MOL0     C91949  11.489   5.541   4.569 -0.0132  0.5215 -0.0933
  682MOL0     C91950  11.593   5.543   4.678 -0.9741  0.2201  0.0457
  682MOL0     C91951  11.595   5.675   4.755 -0.0527  0.6322 -0.6226
  682MOL0     N91952  11.687   5.670   4.875 -0.3335  0.3776  0.8180
  682MOL0     C91953  11.827   5.650   4.873 -0.2163  0.1719  0.1866
  682MOL0     C91954  11.875   5.629   4.990  0.1284  0.3896 -0.7856
  682MOL0     C91955  12.023   5.607   5.031  0.0134 -0.5704 -0.2084
  682MOL0     C91956  12.063   5.463   4.980 -0.0794  0.6635 -0.3847
  682MOL0     C91957  12.208   5.426   5.017  0.6070  0.4546  0.2508
  682MOL0     C91958  12.312   5.508   4.938 -0.0167 -0.4134 -0.7540
  682MOL0     O91959  12.446   5.461   4.957 -0.3003 -0.1117 -0.1755
  682MOL0     C91960  12.544   5.519   4.873 -0.2782  0.6544 -0.3402
  682MOL0     C91961  12.679   5.463   4.877  1.0253  0.1502 -0.3960
  682MOL0     C91962  12.784   5.521   4.817 -0.2442 -0.7979 -0.4854
  682MOL0     C91963  12.773   5.653   4.759  0.5777  0.2791 -0.5793
  682MOL0     C91964  12.883   5.718   4.695  0.0254  0.0409 -0.0550
  682MOL0     O91965  13.003   5.664   4.727 -0.2409 -0.0502 -0.7787
  682MOL0     C91966  13.116   5.736   4.703 -0.8203 -0.9400  0.4133
  682MOL0     C91967  13.194   5.703   4.590 -0.4377 -0.5639 -0.0905
  682MOL0     C91968  13.305   5.769   4.557 -0.0061 -0.6818 -0.4594
  682MOL0     C91969  13.350   5.881   4.628  0.5188  0.7195 -0.2990
  682MOL0     O91970  13.454   5.965   4.596  0.5768  0.1494  0.1804
  682MOL0     C91971  13.573   5.905   4.547  0.2208  0.6839  1.1905
  682MOL0     C91972  13.694   5.999   4.585  0.0224 -0.0562  0.4362
  682MOL0     C91973  13.733   5.991   4.734  0.1184 -1.4820 -0.8160
  682MOL0     C91974  13.883   6.019   4.769 -0.3983  0.2353 -0.9465
  682MOL0     C91975  13.906   6.012   4.929  0.5025  0.2735 -0.0104
  682MOL0     C91976  14.056   6.035   4.968 -0.4346 -0.4784  0.4959
  682MOL0     C91977  14.159   5.928   4.905 -0.0987  0.1640 -0.7695
  682MOL0     C91978  14.290   6.000   4.878  0.4901  0.1433 -0.5355
  682MOL0    Cl91979  14.270   6.087   4.726  0.0872  0.2114  0.1949
  682MOL0     C91980  13.271   5.922   4.735 -0.8330 -0.6829 -0.5462
  682MOL0     C91981  13.154   5.851   4.775 -0.3815  0.1809 -0.4662
  682MOL0     O91982  12.869   5.811   4.614  0.5992  0.0832  0.1110
  682MOL0     C91983  12.646   5.705   4.756 -0.8064  0.1399 -0.2743
  682MOL0     C91984  12.533   5.642   4.810 -0.0061  0.1538  0.7392
  682MOL0     N91985  11.761   5.625   5.074 -0.2564 -0.6556 -0.1162
  682MOL0     N91986  11.655   5.657   5.007 -0.1113 -0.4450  0.2102
  682MOL0     C91987  10.756   5.420   4.406  0.1335  0.1551  0.5831
  682MOL0     C91988  10.627   5.406   4.457  0.6764 -0.3394  0.1188
  682MOL0     C91989  10.250   5.226   4.645 -0.0380  0.0522  0.4940
  682MOL0     C91990  10.192   5.343   4.607  0.1702  0.1758 -0.0297
  682MOL0     C91991  10.056   5.374   4.614 -0.1519  0.2216  0.8607
  682MOL0     C91992   9.963   5.279   4.668 -0.7977  0.1961  0.4110
  682MOL0     O91993   9.831   5.298   4.673  0.7883 -0.5875 -0.3312
  682MOL0     C91994   9.785   5.303   4.814 -0.8681  0.0972  0.7582
  682MOL0     C91995   9.669   5.388   4.830  0.9520  0.7014 -0.0750
  682MOL0     C91996   9.543   5.335   4.764 -0.2990  0.1083 -0.2604
  682MOL0     C91997   9.418   5.411   4.814 -0.1243  0.0969 -0.1867
  682MOL0     C91998   9.407   5.413   4.957  0.1726 -0.6005  0.2543
  682MOL0     C91999   9.402   5.413   5.076  0.4388  0.3179  0.0334
  682MOL0     C92000  10.025   5.157   4.705 -0.2173 -0.5527  0.1718
  682MOL0     C92001  10.162   5.124   4.699  0.7948 -0.4335 -0.0352
  682MOL0     C92002  10.205   4.993   4.753 -0.0668  0.3362  0.1307
  682MOL0     H92003  10.676   5.156   4.683  2.0928  0.6122  1.6248
  682MOL0     H92004  10.911   5.199   4.601 -0.5077  0.1920  1.3439
  682MOL0     H92005  10.970   5.395   4.224 -0.7274  1.4239 -0.3786
  682MOL0     H92006  11.002   5.532   4.332 -1.2042 -1.0895  3.9905
  682MOL0     H92007  11.196   5.494   4.206  0.4921  0.4214  1.3936
  682MOL0     H92008  11.198   5.320   4.235  0.8703 -0.3214  1.2272
  682MOL0     H92009  11.269   5.326   4.435 -1.1160  0.2070  1.2400
  682MOL0     H92010  11.231   5.511   4.459 -1.7924 -0.5212 -0.4513
  682MOL0     H92011  11.434   5.391   4.264  0.9794  0.2297 -0.2399
  682MOL0     H92012  11.413   5.560   4.301 -1.8942 -1.6870 -2.7266
  682MOL0     H92013  11.551   5.344   4.490  0.0590 -0.0876  2.2231
  682MOL0     H92014  11.625   5.475   4.421  1.1901 -0.6447  3.3172
  682MOL0     H92015  11.486   5.640   4.523  2.3056  0.0233 -1.4695
  682MOL0     H92016  11.396   5.506   4.616  1.6192 -0.7261  2.4325
  682MOL0     H92017  11.696   5.543   4.639 -0.5993 -0.0978  1.0031
  682MOL0     H92018  11.593   5.450   4.735  1.2677 -0.3562 -0.7703
  682MOL0     H92019  11.627   5.755   4.689  0.1895  2.3624  1.5018
  682MOL0     H92020  11.495   5.704   4.788  0.1909  1.1485 -0.3389
  682MOL0     H92021  11.893   5.634   4.788  2.6939  2.0880  1.9262
  682MOL0     H92022  12.090   5.677   4.982  2.4839 -1.2178  2.0487
  682MOL0     H92023  12.031   5.608   5.140  1.6916 -1.0861 -0.3091
  682MOL0     H92024  11.999   5.385   5.023 -0.3280 -0.3245 -2.4222
  682MOL0     H92025  12.056   5.454   4.871  0.1534  0.6353 -0.3971
  682MOL0     H92026  12.207   5.317   5.010 -0.6708  0.3761  1.1737
  682MOL0     H92027  12.224   5.446   5.124 -0.8188  1.1197  0.3604
  682MOL0     H92028  12.302   5.614   4.961 -2.7790 -0.0399 -3.1488
  682MOL0     H92029  12.281   5.509   4.833 -0.9246  1.9191 -0.5243
  682MOL0     H92030  12.696   5.366   4.921  0.9297  0.5886  0.6198
  682MOL0     H92031  12.880   5.469   4.825 -0.1091 -0.2799  1.8370
  682MOL0     H92032  13.166   5.622   4.523 -1.7941 -0.2981  0.1150
  682MOL0     H92033  13.356   5.744   4.464 -0.5476  1.5708 -1.4249
  682MOL0     H92034  13.592   5.803   4.581  1.5287  0.6917  0.5357
  682MOL0     H92035  13.568   5.904   4.438 -1.2391 -0.3851  1.2352
  682MOL0     H92036  13.782   5.973   4.526 -0.3052  0.2163 -0.1702
  682MOL0     H92037  13.663   6.099   4.554 -1.5687 -0.6210  0.1239
  682MOL0     H92038  13.671   6.062   4.789 -0.4922 -1.1135 -1.9521
  682MOL0     H92039  13.707   5.890   4.767 -2.4081 -0.9308 -0.9206
  682MOL0     H92040  13.923   6.113   4.729 -1.2129  2.2577  2.5654
  682MOL0     H92041  13.947   5.939   4.731  0.0407 -1.0831  2.2555
  682MOL0     H92042  13.875   5.912   4.960 -1.3881  0.8622  0.1436
  682MOL0     H92043  13.837   6.087   4.971  1.0451  2.3655 -2.5616
  682MOL0     H92044  14.084   6.133   4.928 -4.2755  1.1643  1.3942
  682MOL0     H92045  14.060   6.043   5.077 -1.3960  1.3051  0.4428
  682MOL0     H92046  14.117   5.885   4.814 -0.8334 -0.5123 -0.1158
  682MOL0     H92047  14.189   5.844   4.968 -0.4128  0.0382 -0.7874
  682MOL0     H92048  14.311   6.071   4.958 -2.9176 -0.4636  1.0934
  682MOL0     H92049  14.368   5.927   4.855 -0.3923 -0.1826 -2.7901
  682MOL0     H92050  13.294   6.018   4.779 -4.3745 -0.0588  0.2025
  682MOL0     H92051  13.084   5.887   4.850  3.5332  0.5390  3.4216
  682MOL0     H92052  12.631   5.805   4.716  1.3034 -0.0581 -1.7115
  682MOL0     H92053  12.440   5.698   4.817 -0.6116 -0.7519  0.2023
  682MOL0     H92054  10.768   5.499   4.333 -4.4733  1.3527  0.7622
  682MOL0     H92055  10.559   5.477   4.412  2.1518  0.6033 -0.7222
  682MOL0     H92056  10.253   5.427   4.574  1.2143  0.5353  2.6158
  682MOL0     H92057  10.025   5.475   4.594  1.1198  0.5736  0.5731
  682MOL0     H92058   9.865   5.349   4.873 -0.6741 -1.4162  1.7393
  682MOL0     H92059   9.764   5.201   4.848 -1.7908 -0.3618 -1.0587
  682MOL0     H92060   9.696   5.491   4.807  1.0044  1.3568  2.5563
  682MOL0     H92061   9.650   5.383   4.938  0.9040 -0.0404 -0.1077
  682MOL0     H92062   9.523   5.231   4.789  2.5802 -0.6007 -0.5989
  682MOL0     H92063   9.549   5.331   4.655 -0.9103 -3.4887 -0.2748
  682MOL0     H92064   9.420   5.510   4.766  0.8372  1.0723  1.7403
  682MOL0     H92065   9.334   5.361   4.766 -0.3835  0.8758 -0.5647
  682MOL0     H92066   9.377   5.415   5.180 -1.6650  0.5442 -0.4353
  682MOL0     H92067   9.973   5.075   4.753 -0.9861  0.3179  0.8599
  682MOL0     H92068  10.290   5.012   4.820  0.1712 -1.5480  0.4184
  682MOL0     H92069  10.130   4.950   4.820  0.0772 -0.1191 -0.0015
  682MOL0     H92070  10.231   4.926   4.671 -2.7180 -0.4129 -0.1916
  683MOL0     O92071   6.813  10.565   4.230  0.2352 -0.1568 -0.2483
  683MOL0     C92072   6.758  10.515   4.330  0.6792  0.7835  0.5003
  683MOL0     O92073   6.812  10.487   4.448  0.3348 -0.0118  0.4047
  683MOL0     C92074   6.948  10.521   4.453  0.5238  0.0962 -0.3466
  683MOL0     C92075   7.040  10.446   4.385  0.2651  0.5023 -0.1879
  683MOL0     C92076   7.172  10.484   4.398  0.2813  0.4709  0.5890
  683MOL0     C92077   7.213  10.596   4.472  0.1480  0.3024 -0.0335
  683MOL0     O92078   7.340  10.639   4.484  0.3112  0.1178  0.0708
  683MOL0     C92079   7.441  10.587   4.405  0.9278  0.2619 -0.2966
  683MOL0     C92080   7.572  10.633   4.452  0.3659  0.2715  0.7382
  683MOL0     C92081   7.688  10.614   4.351  0.0400 -0.1825  0.3367
  683MOL0     C92082   7.798  10.714   4.347 -0.2024  0.4267 -0.5568
  683MOL0     C92083   7.897  10.709   4.227  0.4082 -0.0998 -0.3830
  683MOL0     C92084   7.994  10.822   4.235 -0.8436  0.7063 -0.3844
  683MOL0     C92085   8.096  10.817   4.126 -0.6428 -0.4472  0.9094
  683MOL0     C92086   8.195  10.930   4.097 -0.2562 -0.0364  0.1989
  683MOL0     N92087   8.279  10.978   4.200 -0.5903  0.2162  0.7850
  683MOL0     C92088   8.374  11.078   4.185 -0.0728 -0.1126  1.1254
  683MOL0     C92089   8.458  11.085   4.295  0.3142  0.9474  0.1492
  683MOL0     C92090   8.575  11.178   4.299  0.1586  0.0269 -0.9529
  683MOL0     C92091   8.707  11.118   4.336 -1.1399 -0.1781 -0.2512
  683MOL0     C92092   8.773  11.050   4.215  0.4046  0.6355  0.5195
  683MOL0     C92093   8.884  10.960   4.250 -0.1660 -0.0077  0.0773
  683MOL0     O92094   8.975  10.960   4.141 -0.0065 -0.7796  0.8476
  683MOL0     C92095   9.087  10.882   4.147  0.5743 -0.7317 -0.4030
  683MOL0     C92096   9.148  10.828   4.262  0.7188 -0.0218  0.0806
  683MOL0     C92097   9.264  10.761   4.246  0.6776 -0.1161 -0.6937
  683MOL0     C92098   9.343  10.756   4.123  0.3933  0.2178 -0.6517
  683MOL0     C92099   9.469  10.671   4.115 -0.7482  1.7810 -0.1732
  683MOL0     O92100   9.552  10.669   4.228 -0.4866 -0.3498 -0.1891
  683MOL0     C92101   9.666  10.592   4.212 -1.2312 -0.6177  1.1874
  683MOL0     C92102   9.784  10.653   4.234 -0.1222  0.0706  0.0646
  683MOL0     C92103   9.903  10.579   4.228  0.6804 -0.4617  0.1280
  683MOL0     C92104   9.906  10.436   4.213  0.2225  0.0032 -0.3040
  683MOL0     O92105  10.019  10.368   4.195  0.1715  0.2286  0.6202
  683MOL0     C92106  10.119  10.423   4.112  0.2175  0.3120 -0.1405
  683MOL0     C92107  10.227  10.320   4.065  0.4986  0.5832 -0.2746
  683MOL0     C92108  10.297  10.256   4.178  0.5946  0.1234  0.4484
  683MOL0     C92109  10.426  10.192   4.115 -0.3080 -0.4655  0.0130
  683MOL0     C92110  10.489  10.112   4.231  0.8085  0.4984 -0.7164
  683MOL0     C92111  10.630  10.050   4.203 -0.2575  0.8373  0.2224
  683MOL0     C92112  10.688   9.988   4.333  0.6450 -0.4927 -0.7457
  683MOL0     C92113  10.732  10.096   4.443  0.0506 -0.2519  0.7076
  683MOL0    Cl92114  10.858  10.214   4.405  0.2083 -0.2400  0.3587
  683MOL0     C92115   9.785  10.379   4.174  0.8581 -0.1450 -0.0076
  683MOL0     C92116   9.674  10.459   4.176  0.4844  0.3304 -0.2651
  683MOL0     O92117   9.482  10.603   4.013  0.4427  0.7749  0.4062
  683MOL0     C92118   9.283  10.813   4.014 -0.6723  0.2949  0.0576
  683MOL0     C92119   9.155  10.871   4.028 -0.6058  0.2046 -0.1762
  683MOL0     N92120   8.411  10.984   4.375  0.4784  0.3039  0.1672
  683MOL0     N92121   8.305  10.926   4.321 -0.1782  0.3965  0.4539
  683MOL0     C92122   7.120  10.658   4.552 -0.2797 -0.1777  0.5330
  683MOL0     C92123   6.990  10.627   4.536  0.6629  0.4426 -0.2053
  683MOL0     C92124   6.612  10.494   4.310  0.7211 -0.2655  0.5323
  683MOL0     C92125   6.561  10.457   4.178  0.3794 -0.5188  0.3483
  683MOL0     C92126   6.428  10.420   4.170  0.2936 -0.1297 -0.2894
  683MOL0     C92127   6.333  10.442   4.272  0.1501  0.4582  0.0617
  683MOL0     O92128   6.201  10.410   4.256  0.0485  0.1859 -0.0192
  683MOL0     C92129   6.103  10.416   4.357 -0.1388 -0.2905  0.8684
  683MOL0     C92130   5.979  10.375   4.299  0.1617 -0.1514  0.9123
  683MOL0     C92131   5.959  10.223   4.274 -0.6718 -0.2856  0.4001
  683MOL0     C92132   5.829  10.192   4.196 -0.5605 -1.1301 -0.5778
  683MOL0     C92133   5.846  10.210   4.046  0.0188 -0.1957 -0.0669
  683MOL0     C92134   5.840  10.244   3.924  0.3872 -0.1374  0.1784
  683MOL0     C92135   6.372  10.494   4.389 -1.0894 -0.7664 -0.4786
  683MOL0     C92136   6.512  10.517   4.413  0.2820  0.4259  0.4356
  683MOL0     C92137   6.559  10.553   4.550  0.0202  0.3291 -0.4528
  683MOL0     H92138   6.995  10.359   4.339 -2.0674  2.0392 -1.0557
  683MOL0     H92139   7.253  10.427   4.354 -0.3302 -0.4182  0.5864
  683MOL0     H92140   7.446  10.478   4.405  2.0064  0.2884 -1.1231
  683MOL0     H92141   7.420  10.611   4.300  2.0941 -0.9442 -0.8457
  683MOL0     H92142   7.593  10.570   4.539 -0.6391 -2.0952 -0.6366
  683MOL0     H92143   7.569  10.737   4.485 -0.6263  0.5169 -0.0458
  683MOL0     H92144   7.644  10.602   4.251  1.2159 -1.1780 -0.0868
  683MOL0     H92145   7.741  10.520   4.370  2.3379  1.0408  0.3026
  683MOL0     H92146   7.748  10.810   4.330 -1.6057 -0.4964 -1.9496
  683MOL0     H92147   7.850  10.714   4.443 -1.6910 -0.6827  0.2882
  683MOL0     H92148   7.947  10.611   4.230  2.3137  0.7972  2.9876
  683MOL0     H92149   7.844  10.716   4.132  1.2825  0.2342 -0.8536
  683MOL0     H92150   7.954  10.923   4.237  2.5223  2.1680  1.7972
  683MOL0     H92151   8.034  10.829   4.336 -1.0206  0.5085 -0.2993
  683MOL0     H92152   8.027  10.799   4.043  0.8125 -0.7995 -0.2637
  683MOL0     H92153   8.158  10.732   4.154  1.7511  1.0934  0.5604
  683MOL0     H92154   8.258  10.898   4.013 -0.1848 -0.4951  0.4257
  683MOL0     H92155   8.129  11.011   4.065 -0.5746 -1.0547 -1.9225
  683MOL0     H92156   8.372  11.139   4.095 -2.2277  0.2881  1.3806
  683MOL0     H92157   8.586  11.223   4.200  0.2336 -1.1329 -1.4902
  683MOL0     H92158   8.553  11.264   4.363  1.4256  0.9793 -1.7612
  683MOL0     H92159   8.764  11.200   4.381 -3.0547  0.3367  1.4009
  683MOL0     H92160   8.695  11.050   4.421 -3.2918  0.1746 -0.2243
  683MOL0     H92161   8.816  11.131   4.154 -1.4511  0.9236 -0.4797
  683MOL0     H92162   8.707  10.990   4.152  1.7570  0.0579 -0.3990
  683MOL0     H92163   8.858  10.856   4.272  0.7162 -0.0022  1.2558
  683MOL0     H92164   8.927  10.991   4.346 -1.8055 -2.3964  1.6978
  683MOL0     H92165   9.104  10.829   4.362 -0.8583 -5.2266 -0.2465
  683MOL0     H92166   9.308  10.700   4.324  1.8557 -0.1369 -1.3469
  683MOL0     H92167   9.794  10.759   4.254  3.4764  0.3322 -2.3733
  683MOL0     H92168  10.001  10.621   4.246 -0.0088  0.0217  3.1428
  683MOL0     H92169  10.077  10.467   4.021  0.6680  1.6985  0.2908
  683MOL0     H92170  10.173  10.502   4.166  1.8529  1.5475 -3.3136
  683MOL0     H92171  10.176  10.240   4.010 -0.5752  0.8471  0.3086
  683MOL0     H92172  10.309  10.357   4.003 -0.4223 -0.4972 -2.2595
  683MOL0     H92173  10.320  10.331   4.255  0.4990 -0.5151  1.1087
  683MOL0     H92174  10.220  10.190   4.218  0.3887  0.6359  0.9064
  683MOL0     H92175  10.506  10.258   4.082  0.2857 -0.5177  1.3070
  683MOL0     H92176  10.394  10.132   4.029  1.5270 -0.4415 -0.7341
  683MOL0     H92177  10.425  10.034   4.273  0.4775  0.3427 -1.4938
  683MOL0     H92178  10.500  10.187   4.310 -3.5172 -0.0191  0.6428
  683MOL0     H92179  10.625   9.983   4.116 -1.2066  2.9475 -1.4226
  683MOL0     H92180  10.701  10.128   4.176 -0.2617  1.2308  1.2771
  683MOL0     H92181  10.766   9.915   4.309  1.0537  0.0126 -0.9781
  683MOL0     H92182  10.610   9.926   4.379  1.3025 -0.6966  0.1122
  683MOL0     H92183  10.642  10.151   4.470 -0.3864 -0.0915 -0.9546
  683MOL0     H92184  10.774  10.050   4.533 -0.4368  1.7862  2.0234
  683MOL0     H92185   9.789  10.283   4.123 -0.2559  0.4582 -1.2560
  683MOL0     H92186   9.577  10.420   4.146 -0.3038  2.3501 -0.5063
  683MOL0     H92187   9.326  10.798   3.916 -0.0483 -0.5577  0.4496
  683MOL0     H92188   9.115  10.921   3.941  0.4728  1.2503 -0.0959
  683MOL0     H92189   7.163  10.736   4.616 -1.4399  1.1295 -0.2296
  683MOL0     H92190   6.927  10.695   4.593  2.2936  2.8820 -1.1252
  683MOL0     H92191   6.626  10.459   4.091 -1.0529 -0.4140 -0.7561
  683MOL0     H92192   6.392  10.378   4.077  0.7617  0.6817 -0.8433
  683MOL0     H92193   6.101  10.518   4.395  1.3249  0.2102 -0.2725
  683MOL0     H92194   6.129  10.345   4.436  1.1435  0.8689  1.5202
  683MOL0     H92195   5.950  10.431   4.210  0.9174  0.1501  0.8496
  683MOL0     H92196   5.908  10.400   4.379  1.9853 -0.1247  2.5926
  683MOL0     H92197   5.946  10.176   4.371  1.8689  0.6266  1.2717
  683MOL0     H92198   6.045  10.181   4.221 -0.2476  0.4939  0.4575
  683MOL0     H92199   5.795  10.097   4.239  1.5272  0.2804  5.1150
  683MOL0     H92200   5.746  10.259   4.220  1.0131  2.1231 -3.3498
  683MOL0     H92201   5.826  10.267   3.820  0.8306 -0.5813  0.0153
  683MOL0     H92202   6.309  10.529   4.470 -1.1088 -1.1496 -0.3251
  683MOL0     H92203   6.480  10.576   4.622  0.8768  1.3602  0.1837
  683MOL0     H92204   6.620  10.469   4.586  0.4465  0.8589  0.0958
  683MOL0     H92205   6.624  10.641   4.557  0.0476  0.2964 -0.2594
  684MOL0     O92206   0.041   3.983   5.226 -0.2656 -0.2286  0.4538
  684MOL0     C92207   0.063   4.103   5.213 -0.5739 -1.2714  0.0909
  684MOL0     O92208   0.181   4.163   5.187  0.5857  0.1325  0.4254
  684MOL0     C92209   0.296   4.087   5.205  1.1756  0.2548  0.0126
  684MOL0     C92210   0.318   3.989   5.307 -0.2176  0.0301 -0.2379
  684MOL0     C92211   0.448   3.928   5.315 -0.4171 -0.4286 -0.1389
  684MOL0     C92212   0.548   3.949   5.226  0.2288 -0.2932  0.0762
  684MOL0     O92213   0.660   3.881   5.245  0.0514  0.0430  0.4725
  684MOL0     C92214   0.785   3.914   5.177 -0.2035  0.2295 -0.1431
  684MOL0     C92215   0.888   3.854   5.266 -0.2092  0.0645  0.7381
  684MOL0     C92216   1.034   3.911   5.242  0.3396 -0.7616 -0.0577
  684MOL0     C92217   1.149   3.821   5.286 -0.2539  0.7780  0.0402
  684MOL0     C92218   1.284   3.860   5.212  0.0904  0.5217 -0.5102
  684MOL0     C92219   1.339   3.985   5.284 -0.3011 -0.3227 -0.2738
  684MOL0     C92220   1.477   4.026   5.237 -0.7202  0.7178  0.6911
  684MOL0     C92221   1.523   4.148   5.316  0.8140 -0.5236 -0.4842
  684MOL0     N92222   1.666   4.167   5.317 -0.2152  0.2223 -1.0081
  684MOL0     C92223   1.734   4.221   5.215 -0.9464  0.9711  0.1913
  684MOL0     C92224   1.858   4.232   5.260 -0.0169 -0.0612 -0.1176
  684MOL0     C92225   1.971   4.295   5.190 -1.6304 -0.3706  0.6699
  684MOL0     C92226   2.089   4.196   5.165 -1.1795 -0.8020  0.6888
  684MOL0     C92227   2.218   4.272   5.118 -0.6860 -0.6157  0.1115
  684MOL0     C92228   2.324   4.163   5.063  0.3584  0.0789 -0.3317
  684MOL0     O92229   2.428   4.239   4.991  0.4950  0.4249 -0.5191
  684MOL0     C92230   2.549   4.176   4.967  0.2902 -0.7447 -0.8574
  684MOL0     C92231   2.573   4.038   4.955 -0.2495  0.5138  1.3280
  684MOL0     C92232   2.708   3.987   4.950 -0.1159  0.2321 -0.1042
  684MOL0     C92233   2.810   4.071   4.936 -0.5671  0.3076  0.4403
  684MOL0     C92234   2.951   4.029   4.928  0.2702  0.2959 -0.3972
  684MOL0     O92235   3.038   4.130   4.917  0.2834  0.5617 -0.4934
  684MOL0     C92236   3.167   4.111   4.884 -0.3580 -0.8703  0.6255
  684MOL0     C92237   3.248   4.004   4.912  0.1211  0.0373  0.3599
  684MOL0     C92238   3.380   4.004   4.861 -0.6696 -0.3759  0.4840
  684MOL0     C92239   3.445   4.114   4.797  0.1084  0.6597 -1.0648
  684MOL0     O92240   3.578   4.096   4.756  0.0352  0.4791  0.1485
  684MOL0     C92241   3.662   4.179   4.833  0.3650  0.3532 -0.4381
  684MOL0     C92242   3.802   4.197   4.769  0.6792 -0.1417  0.5572
  684MOL0     C92243   3.870   4.066   4.735  0.1435  0.3424 -0.9871
  684MOL0     C92244   4.014   4.086   4.684 -0.3104 -1.1977  0.2895
  684MOL0     C92245   4.091   3.962   4.669 -0.3595  0.1534 -0.1054
  684MOL0     C92246   4.220   4.004   4.598  0.2356 -0.0366 -0.0715
  684MOL0     C92247   4.319   4.092   4.688  0.1789 -0.2218  0.8009
  684MOL0     C92248   4.417   4.134   4.589 -0.4339  0.4216 -0.6057
  684MOL0    Cl92249   4.482   4.285   4.651  0.0503  0.0884 -0.0118
  684MOL0     C92250   3.361   4.224   4.775  0.0470 -0.2615 -0.5724
  684MOL0     C92251   3.231   4.225   4.819  0.0403 -0.0343  0.0881
  684MOL0     O92252   2.976   3.909   4.898 -0.1451  0.5300 -0.1724
  684MOL0     C92253   2.784   4.208   4.929 -0.3175 -0.4937 -0.1811
  684MOL0     C92254   2.655   4.266   4.954  0.0339  0.1632  0.0969
  684MOL0     N92255   1.870   4.164   5.379  0.0648 -0.0927 -0.5021
  684MOL0     N92256   1.752   4.138   5.421  0.8005  0.6262  0.3913
  684MOL0     C92257   0.518   4.033   5.118  0.2071 -0.2049 -0.6484
  684MOL0     C92258   0.404   4.107   5.115  0.6281 -0.0726 -0.4769
  684MOL0     C92259  -0.061   4.189   5.217 -0.6688  0.1952  0.6876
  684MOL0     C92260  -0.170   4.149   5.140  0.1526  0.8158 -0.1877
  684MOL0     C92261  -0.284   4.227   5.135  0.1672 -0.5910 -0.1682
  684MOL0     C92262  -0.304   4.350   5.213 -1.4350 -0.2470  0.0020
  684MOL0     O92263  -0.405   4.442   5.215 -0.4530 -0.7285  0.0611
  684MOL0     C92264  -0.514   4.413   5.131 -0.3248  0.3234 -0.5443
  684MOL0     C92265  -0.631   4.472   5.193  0.4912  1.1770  0.1460
  684MOL0     C92266  -0.756   4.475   5.099  0.9841  0.4469 -1.1913
  684MOL0     C92267  -0.856   4.576   5.147  0.3154 -0.1007 -0.2759
  684MOL0     C92268  -0.976   4.576   5.064 -0.0572  0.6561  0.1709
  684MOL0     C92269  -1.078   4.566   5.002 -0.6299 -0.2550  0.4943
  684MOL0     C92270  -0.192   4.386   5.293 -0.4329 -0.2479  0.8056
  684MOL0     C92271  -0.075   4.312   5.286 -0.0542  0.9546 -0.3576
  684MOL0     C92272   0.043   4.369   5.361  0.5842 -0.0721  0.3808
  684MOL0     H92273   0.236   3.971   5.376  1.7368  0.0702  2.2410
  684MOL0     H92274   0.462   3.863   5.401 -1.0991 -1.5276 -0.8262
  684MOL0     H92275   0.780   3.870   5.077  0.9995  0.7762 -0.4653
  684MOL0     H92276   0.804   4.022   5.177  2.7448 -0.2186  0.3481
  684MOL0     H92277   0.888   3.745   5.251  0.0977  0.0732  0.6757
  684MOL0     H92278   0.856   3.875   5.368 -1.0583  0.3190  0.4255
  684MOL0     H92279   1.048   3.999   5.304  0.3975  0.4848 -1.7523
  684MOL0     H92280   1.048   3.937   5.136 -2.0621 -1.3013 -0.5682
  684MOL0     H92281   1.157   3.816   5.395 -1.8453  1.2045  0.2008
  684MOL0     H92282   1.118   3.721   5.253 -0.6386  0.9636 -0.1608
  684MOL0     H92283   1.352   3.775   5.228  0.3847  0.9603  0.7176
  684MOL0     H92284   1.270   3.885   5.107 -1.5198  2.4021  0.0920
  684MOL0     H92285   1.280   4.072   5.256  0.4715  0.0550 -0.7721
  684MOL0     H92286   1.334   3.980   5.394 -2.0764  0.1745 -0.3032
  684MOL0     H92287   1.474   4.036   5.128 -1.2273 -1.2129  0.4760
  684MOL0     H92288   1.541   3.940   5.257 -1.8518  0.1752  2.1330
  684MOL0     H92289   1.467   4.234   5.278 -0.4514 -0.8558  0.5786
  684MOL0     H92290   1.485   4.133   5.417 -0.8168 -1.3470 -1.1815
  684MOL0     H92291   1.693   4.237   5.115  1.2984 -0.6768 -1.0919
  684MOL0     H92292   1.932   4.344   5.100 -2.1772 -2.3021 -0.1806
  684MOL0     H92293   2.007   4.377   5.252 -0.8167 -1.1509  1.2450
  684MOL0     H92294   2.104   4.145   5.261 -1.6324 -2.1505  0.0641
  684MOL0     H92295   2.073   4.120   5.088 -0.0592 -0.8550  0.5042
  684MOL0     H92296   2.262   4.335   5.195 -0.3415  1.7512 -1.9101
  684MOL0     H92297   2.185   4.337   5.036 -1.6133 -2.7381 -1.2935
  684MOL0     H92298   2.273   4.094   4.995 -0.7026 -0.3804  0.8874
  684MOL0     H92299   2.369   4.108   5.147  1.2121  0.7466 -0.3404
  684MOL0     H92300   2.484   3.976   4.956  0.3893 -0.5910 -1.0512
  684MOL0     H92301   2.734   3.882   4.960  1.1358  0.4709 -0.6112
  684MOL0     H92302   3.210   3.921   4.970  0.0587 -0.8530 -0.8974
  684MOL0     H92303   3.432   3.913   4.889  1.3025  0.2627 -0.9217
  684MOL0     H92304   3.619   4.279   4.844  0.4155  0.3482 -0.1711
  684MOL0     H92305   3.677   4.141   4.935 -1.9269  0.2158 -0.1013
  684MOL0     H92306   3.793   4.255   4.676 -0.6791  0.1560  0.8466
  684MOL0     H92307   3.860   4.242   4.849 -0.6419  0.6533  1.1019
  684MOL0     H92308   3.866   4.024   4.836 -0.2045  1.5510 -0.4834
  684MOL0     H92309   3.817   3.996   4.670  0.5045 -0.9168  0.0239
  684MOL0     H92310   4.071   4.145   4.757 -1.9032 -0.8539  1.2961
  684MOL0     H92311   4.004   4.139   4.589  1.6169 -0.4823  0.4301
  684MOL0     H92312   4.040   3.883   4.613  1.0455 -0.4967 -0.5165
  684MOL0     H92313   4.115   3.918   4.766  0.8310  0.1302 -0.3920
  684MOL0     H92314   4.285   3.918   4.580  1.0742  0.4612  0.5378
  684MOL0     H92315   4.199   4.056   4.504  2.2562  1.5916  0.3245
  684MOL0     H92316   4.379   4.036   4.761 -0.8742 -2.5641 -0.0309
  684MOL0     H92317   4.275   4.182   4.730  0.6132  0.3110  0.1428
  684MOL0     H92318   4.497   4.060   4.577 -2.1318 -1.5300 -0.3595
  684MOL0     H92319   4.371   4.156   4.492 -1.7774  1.7547  0.2932
  684MOL0     H92320   3.407   4.313   4.734 -1.3826  0.6075 -0.3476
  684MOL0     H92321   3.168   4.311   4.796 -0.2448  0.3893  2.2215
  684MOL0     H92322   2.864   4.282   4.925 -2.3591  2.3183  3.6980
  684MOL0     H92323   2.635   4.372   4.949  0.5249  0.2294 -0.5954
  684MOL0     H92324   0.583   4.035   5.031  0.6052 -3.1110 -0.5085
  684MOL0     H92325   0.393   4.171   5.028 -3.6482  0.7131  0.3809
  684MOL0     H92326  -0.171   4.058   5.082  0.6808  1.8969 -1.9856
  684MOL0     H92327  -0.354   4.192   5.059 -0.7787 -2.3683  1.4152
  684MOL0     H92328  -0.525   4.304   5.121  0.5198  0.2673 -0.9221
  684MOL0     H92329  -0.498   4.461   5.034 -0.8564  0.7827 -0.4099
  684MOL0     H92330  -0.601   4.574   5.220  1.6340  0.7251  0.6718
  684MOL0     H92331  -0.657   4.417   5.284  0.7464  1.5295  0.4340
  684MOL0     H92332  -0.794   4.373   5.093 -0.3244  0.8168  0.3005
  684MOL0     H92333  -0.732   4.506   4.996  1.9807 -0.3386 -1.2070
  684MOL0     H92334  -0.890   4.553   5.249 -0.6330  2.0140 -0.0562
  684MOL0     H92335  -0.808   4.674   5.151 -1.6275  0.8950 -0.1432
  684MOL0     H92336  -1.161   4.547   4.936  0.6941  1.2288 -1.7230
  684MOL0     H92337  -0.185   4.479   5.349  2.5895  2.2569 -3.1286
  684MOL0     H92338   0.008   4.418   5.452 -0.8586  0.0966 -0.2263
  684MOL0     H92339   0.115   4.295   5.398  1.8388  1.9409  2.2250
  684MOL0     H92340   0.090   4.448   5.303 -2.6560  1.3257 -0.5722
  685MOL0     O92341   5.612   2.330   7.293  0.0428  0.1769 -0.0618
  685MOL0     C92342   5.680   2.271   7.378 -0.1332  0.0246  0.2429
  685MOL0     O92343   5.653   2.151   7.430 -0.2010 -0.2492 -0.6448
  685MOL0     C92344   5.551   2.091   7.370 -0.4846  0.0027  0.0627
  685MOL0     C92345   5.448   2.036   7.445 -0.0886  0.0133 -1.1387
  685MOL0     C92346   5.341   1.972   7.395  0.7163  0.1183 -0.3167
  685MOL0     C92347   5.340   1.926   7.269  0.0963 -0.1953  0.6042
  685MOL0     O92348   5.239   1.837   7.237  0.0047  0.4454 -0.3781
  685MOL0     C92349   5.266   1.733   7.135  0.2460  0.3829 -0.0363
  685MOL0     C92350   5.375   1.640   7.172 -0.0689  0.5575 -0.6214
  685MOL0     C92351   5.432   1.551   7.055 -0.5977  0.5050  0.8337
  685MOL0     C92352   5.543   1.637   6.991  0.1968  1.1171  0.1240
  685MOL0     C92353   5.607   1.569   6.878  0.2125 -1.0433  0.3027
  685MOL0     C92354   5.535   1.559   6.742 -0.2548 -0.3792 -0.5517
  685MOL0     C92355   5.628   1.513   6.628  0.4808  0.7668 -0.1054
  685MOL0     C92356   5.546   1.478   6.502 -0.7024 -0.0541 -0.0086
  685MOL0     N92357   5.480   1.592   6.437 -0.1988 -1.1542  0.3496
  685MOL0     C92358   5.536   1.704   6.376  0.2801  0.3745 -1.1771
  685MOL0     C92359   5.434   1.784   6.342  0.1024 -0.0743 -0.5911
  685MOL0     C92360   5.434   1.921   6.284 -1.0235 -0.6118  0.1956
  685MOL0     C92361   5.557   1.996   6.331  0.0722 -0.2508  0.2023
  685MOL0     C92362   5.549   2.149   6.293  0.0832 -0.2371 -0.8416
  685MOL0     C92363   5.677   2.228   6.313  0.5477  0.2526  0.9674
  685MOL0     O92364   5.712   2.242   6.454 -0.4276 -0.3137  0.1300
  685MOL0     C92365   5.816   2.322   6.487 -1.3637  0.7354  0.8580
  685MOL0     C92366   5.850   2.321   6.620 -0.8307  0.3304  0.6144
  685MOL0     C92367   5.957   2.400   6.664 -0.8370 -0.0657  0.2522
  685MOL0     C92368   6.030   2.484   6.571 -0.4465  0.2220  0.7714
  685MOL0     C92369   6.153   2.558   6.609  0.5227 -0.3511  0.3810
  685MOL0     O92370   6.183   2.582   6.737  0.4873 -0.3938 -0.0216
  685MOL0     C92371   6.301   2.655   6.767 -0.5481 -0.0341  0.4171
  685MOL0     C92372   6.310   2.759   6.859  0.5323 -0.2195  0.7676
  685MOL0     C92373   6.426   2.818   6.895  0.1245  0.5147 -0.0911
  685MOL0     C92374   6.546   2.771   6.841 -0.1883  0.1022 -0.6394
  685MOL0     O92375   6.667   2.825   6.873 -0.7189  0.6560 -0.1451
  685MOL0     C92376   6.765   2.737   6.925 -0.5619 -0.0986  0.4738
  685MOL0     C92377   6.886   2.827   6.957 -0.3614  0.9072 -0.1028
  685MOL0     C92378   6.946   2.915   6.847  0.0106 -0.4442  0.7607
  685MOL0     C92379   7.055   3.006   6.900 -0.3585  0.1428  0.1114
  685MOL0     C92380   7.115   3.100   6.801  0.8664  0.1343  0.8412
  685MOL0     C92381   7.229   3.194   6.856  0.8941 -0.0926  0.1945
  685MOL0     C92382   7.300   3.263   6.740 -0.9757 -0.0391  0.1534
  685MOL0     C92383   7.385   3.383   6.782 -0.5622 -0.1403 -0.0611
  685MOL0    Cl92384   7.528   3.324   6.871 -0.6272  0.0086 -0.2596
  685MOL0     C92385   6.540   2.666   6.742  0.4580 -0.0212 -0.6668
  685MOL0     C92386   6.419   2.609   6.714  0.8620 -0.5951  0.7487
  685MOL0     O92387   6.218   2.598   6.508 -0.2866  0.3824 -0.0812
  685MOL0     C92388   5.979   2.497   6.443 -0.7823 -0.0013 -0.0325
  685MOL0     C92389   5.885   2.413   6.398  0.1051  0.4261  0.3272
  685MOL0     N92390   5.316   1.725   6.389 -0.0566 -1.0660  0.2825
  685MOL0     N92391   5.345   1.614   6.437  0.4784 -0.3360 -0.1866
  685MOL0     C92392   5.446   1.964   7.179  0.0696  0.8587 -0.4438
  685MOL0     C92393   5.548   2.046   7.233 -0.2223  1.1024  0.1063
  685MOL0     C92394   5.794   2.334   7.438 -0.4188 -1.4021  0.0033
  685MOL0     C92395   5.909   2.261   7.475 -0.6704 -0.6240  0.2537
  685MOL0     C92396   6.010   2.315   7.547  0.5007  0.0185  0.7744
  685MOL0     C92397   5.994   2.442   7.594 -0.2270 -0.6172 -0.2322
  685MOL0     O92398   6.089   2.511   7.672  0.2291  0.3455 -0.2145
  685MOL0     C92399   6.225   2.461   7.685 -0.1767  0.0998  0.3307
  685MOL0     C92400   6.303   2.534   7.788 -0.1250  0.6936  0.6211
  685MOL0     C92401   6.443   2.487   7.802 -0.6165  1.3659  0.0056
  685MOL0     C92402   6.546   2.579   7.838 -0.5066 -0.5663 -0.3534
  685MOL0     C92403   6.507   2.637   7.973 -0.1783  0.2040  0.6798
  685MOL0     C92404   6.471   2.666   8.084 -0.9916 -0.3231  0.3400
  685MOL0     C92405   5.886   2.519   7.555  0.7087 -0.2261 -0.2266
  685MOL0     C92406   5.787   2.472   7.472 -0.0185 -0.0038 -0.6902
  685MOL0     C92407   5.672   2.568   7.440  0.2068  0.0712  0.1920
  685MOL0     H92408   5.445   2.069   7.549  0.6890 -2.3031 -0.3061
  685MOL0     H92409   5.256   1.943   7.456 -0.5745  0.3682 -1.9221
  685MOL0     H92410   5.173   1.676   7.121 -0.4852  1.8718 -1.5385
  685MOL0     H92411   5.294   1.779   7.041  0.5698 -0.4973 -0.3772
  685MOL0     H92412   5.344   1.567   7.247  0.3399 -0.8142 -1.7439
  685MOL0     H92413   5.456   1.693   7.223  1.5896 -3.4509  1.3568
  685MOL0     H92414   5.355   1.532   6.980 -0.3413  2.7563 -0.0847
  685MOL0     H92415   5.467   1.454   7.089 -3.1688 -0.6710  0.3437
  685MOL0     H92416   5.493   1.728   6.958  1.3406  1.1209 -1.7993
  685MOL0     H92417   5.628   1.668   7.053  0.2725  2.8957 -0.8103
  685MOL0     H92418   5.692   1.635   6.857  2.3675 -4.0196 -1.0828
  685MOL0     H92419   5.649   1.474   6.912  0.1350 -1.4413 -0.6814
  685MOL0     H92420   5.455   1.485   6.735  0.1188 -0.7362 -1.0778
  685MOL0     H92421   5.491   1.654   6.709  2.1361  0.7400 -0.7011
  685MOL0     H92422   5.695   1.431   6.654  1.2964  0.7424 -2.0760
  685MOL0     H92423   5.699   1.592   6.601  1.7100 -1.1267 -2.8793
  685MOL0     H92424   5.614   1.430   6.431  0.1043 -0.6249  1.1104
  685MOL0     H92425   5.467   1.407   6.529 -2.4220  1.4762 -0.7987
  685MOL0     H92426   5.643   1.718   6.360  0.3978  0.4763 -0.3491
  685MOL0     H92427   5.436   1.910   6.176 -0.3875 -2.6421  0.3745
  685MOL0     H92428   5.346   1.972   6.324 -1.5519 -2.1650  1.0698
  685MOL0     H92429   5.576   1.983   6.438  1.6919 -0.3643 -0.0727
  685MOL0     H92430   5.643   1.955   6.278  2.6402  2.2884  2.0499
  685MOL0     H92431   5.467   2.186   6.355  0.7626 -0.1969  0.0648
  685MOL0     H92432   5.523   2.164   6.188 -0.3065  1.8797 -0.4866
  685MOL0     H92433   5.665   2.327   6.270  2.3946 -0.0305 -0.2944
  685MOL0     H92434   5.751   2.172   6.255  0.9419  1.7669 -0.0459
  685MOL0     H92435   5.790   2.257   6.684  0.4300 -0.1079  1.3964
  685MOL0     H92436   5.985   2.401   6.769 -1.5040  1.1829  0.4463
  685MOL0     H92437   6.222   2.770   6.921 -0.1033 -4.5870  0.9431
  685MOL0     H92438   6.418   2.901   6.964 -2.5955  0.0817  0.2052
  685MOL0     H92439   6.735   2.694   7.021 -1.6233  1.7516  1.0282
  685MOL0     H92440   6.788   2.662   6.849 -1.0427  0.4115 -0.1888
  685MOL0     H92441   6.848   2.890   7.038 -3.3983 -1.5798  0.6134
  685MOL0     H92442   6.967   2.759   6.985  0.7019  1.5732 -1.4359
  685MOL0     H92443   6.979   2.855   6.762  1.1007  0.7439  0.3157
  685MOL0     H92444   6.869   2.982   6.808 -0.9628 -0.3272  2.7417
  685MOL0     H92445   7.132   2.945   6.948  0.6545  0.6479 -0.8163
  685MOL0     H92446   7.012   3.066   6.980  1.4476 -1.6373  2.6019
  685MOL0     H92447   7.029   3.159   6.767 -0.0277 -0.7317  1.5361
  685MOL0     H92448   7.157   3.040   6.720  1.4807  0.9736  0.5184
  685MOL0     H92449   7.189   3.276   6.917  2.0362 -0.2706  1.2229
  685MOL0     H92450   7.302   3.139   6.916 -0.0160 -0.5538  0.9110
  685MOL0     H92451   7.226   3.300   6.668  1.5281  4.7836 -0.3621
  685MOL0     H92452   7.363   3.185   6.698 -1.0701 -0.0811  0.0903
  685MOL0     H92453   7.416   3.435   6.690 -0.9196 -1.7039 -1.1084
  685MOL0     H92454   7.334   3.456   6.846  2.5168  0.2419  2.1326
  685MOL0     H92455   6.626   2.628   6.687  0.2851 -2.1674  0.4454
  685MOL0     H92456   6.408   2.519   6.654 -1.5085 -0.2224  0.5121
  685MOL0     H92457   6.021   2.566   6.371 -2.1353  1.0929  0.1848
  685MOL0     H92458   5.848   2.411   6.296 -0.5258 -1.1798  0.5443
  685MOL0     H92459   5.436   1.934   7.076 -1.8445  0.7986 -0.2798
  685MOL0     H92460   5.629   2.067   7.164 -0.1329 -1.1552 -0.5415
  685MOL0     H92461   5.914   2.157   7.443 -1.2226  0.3623 -3.5213
  685MOL0     H92462   6.098   2.255   7.571  0.0525 -0.8977  0.1755
  685MOL0     H92463   6.278   2.449   7.590  1.8767  2.3611  1.0777
  685MOL0     H92464   6.217   2.357   7.717 -1.7210  0.4094  1.0259
  685MOL0     H92465   6.263   2.529   7.890 -0.5304  0.9548  0.4756
  685MOL0     H92466   6.297   2.637   7.754  1.2982  0.5864 -0.0205
  685MOL0     H92467   6.484   2.439   7.712  0.3353  0.4905  0.8722
  685MOL0     H92468   6.440   2.407   7.876 -1.2103 -0.0855 -1.5250
  685MOL0     H92469   6.646   2.541   7.861 -0.5985  0.8715  3.1002
  685MOL0     H92470   6.553   2.656   7.762 -0.1354  1.0108  1.2095
  685MOL0     H92471   6.424   2.689   8.177 -3.4318  1.5977 -1.2411
  685MOL0     H92472   5.889   2.624   7.583 -0.8302 -0.6381  1.7052
  685MOL0     H92473   5.576   2.530   7.475 -1.6872 -0.4764 -4.6887
  685MOL0     H92474   5.687   2.665   7.487  0.4150  1.8507 -3.1776
  685MOL0     H92475   5.654   2.590   7.334  0.3634 -0.1208  0.1243
  686MOL0     O92476   5.422   4.536   8.738 -0.1494  0.1261 -0.1095
  686MOL0     C92477   5.382   4.579   8.848 -0.1116 -0.1664  0.2257
  686MOL0     O92478   5.466   4.645   8.933  1.2626  0.2119  0.4997
  686MOL0     C92479   5.587   4.684   8.902 -0.5437 -0.4614 -0.0504
  686MOL0     C92480   5.676   4.605   8.827  0.8458  0.6100  0.5301
  686MOL0     C92481   5.803   4.654   8.799  0.3486  0.4261  0.5850
  686MOL0     C92482   5.846   4.779   8.850  0.3802 -0.4237 -1.1595
  686MOL0     O92483   5.982   4.808   8.834  0.0907 -0.4772 -0.3831
  686MOL0     C92484   6.014   4.953   8.837  1.0826  1.2793 -0.7131
  686MOL0     C92485   6.090   4.979   8.711  0.3421  0.3222  0.1557
  686MOL0     C92486   6.003   4.987   8.586  0.2680  0.4176  0.3978
  686MOL0     C92487   6.049   5.070   8.470 -0.4392 -0.7210  0.6666
  686MOL0     C92488   6.192   5.040   8.424 -0.7766 -0.5243 -0.3308
  686MOL0     C92489   6.285   5.151   8.463  0.3378 -0.2135 -0.1517
  686MOL0     C92490   6.408   5.143   8.381 -0.4613 -0.2368  0.7252
  686MOL0     C92491   6.398   5.217   8.239 -0.2818 -0.4005  0.3470
  686MOL0     N92492   6.517   5.197   8.164  0.4831  0.2210  0.0972
  686MOL0     C92493   6.617   5.289   8.154  0.1170 -0.5270 -0.1800
  686MOL0     C92494   6.682   5.260   8.037  0.0897  0.8845 -0.1945
  686MOL0     C92495   6.783   5.349   7.969  0.0843  0.4705 -0.4166
  686MOL0     C92496   6.927   5.288   7.975 -0.1556 -0.8268 -0.0035
  686MOL0     C92497   7.032   5.363   7.898  0.0051  0.0909  0.7152
  686MOL0     C92498   7.171   5.338   7.956  0.0075 -0.0755 -0.3477
  686MOL0     O92499   7.257   5.340   7.842 -0.1705  0.6305  0.1667
  686MOL0     C92500   7.386   5.301   7.854 -0.4013  0.8348  0.5058
  686MOL0     C92501   7.456   5.312   7.734 -0.4848  0.0919  0.2639
  686MOL0     C92502   7.593   5.284   7.718  1.0024  0.1883  1.0467
  686MOL0     C92503   7.662   5.235   7.825 -0.6893  0.0047  0.4363
  686MOL0     C92504   7.799   5.189   7.795  0.4187 -0.5558  0.1714
  686MOL0     O92505   7.876   5.132   7.898 -0.1400 -0.2678  0.2036
  686MOL0     C92506   8.007   5.112   7.871  0.3079 -0.1188 -0.1751
  686MOL0     C92507   8.056   4.984   7.889 -0.4328  0.0756 -0.7373
  686MOL0     C92508   8.196   4.966   7.900  0.0502  0.0018  0.4933
  686MOL0     C92509   8.288   5.065   7.847  0.8022 -0.7064  0.1093
  686MOL0     O92510   8.424   5.049   7.828  0.4884  0.5664 -0.7240
  686MOL0     C92511   8.485   4.937   7.890 -0.2218  0.1546 -0.4980
  686MOL0     C92512   8.627   4.967   7.934  0.3199  0.1894 -0.2187
  686MOL0     C92513   8.695   5.048   7.823  0.0632 -0.6251  0.3022
  686MOL0     C92514   8.839   5.045   7.853 -0.2335 -0.3447 -0.2479
  686MOL0     C92515   8.921   5.123   7.743 -0.1714  0.4756 -0.6498
  686MOL0     C92516   9.067   5.073   7.757 -0.9434  0.1474 -0.0823
  686MOL0     C92517   9.161   5.154   7.676 -0.5850 -0.4569  0.1146
  686MOL0     C92518   9.307   5.134   7.722  0.1027  0.1944  0.0009
  686MOL0    Cl92519   9.413   5.233   7.622 -0.4429  0.2210  0.0024
  686MOL0     C92520   8.234   5.187   7.815 -0.7640 -1.3939 -0.8731
  686MOL0     C92521   8.096   5.213   7.841  0.3107 -0.2318  0.0258
  686MOL0     O92522   7.837   5.198   7.682  0.7180  0.2749 -0.0211
  686MOL0     C92523   7.591   5.204   7.939 -0.0284  0.4263  0.1833
  686MOL0     C92524   7.455   5.241   7.960 -0.7382 -0.0355  0.5217
  686MOL0     N92525   6.620   5.149   7.984 -0.3934  0.3275  1.1529
  686MOL0     N92526   6.519   5.114   8.059 -0.0168  0.0699 -0.3496
  686MOL0     C92527   5.756   4.851   8.928  0.0372 -0.3078 -0.8451
  686MOL0     C92528   5.626   4.805   8.955  0.2643 -0.3390 -0.0216
  686MOL0     C92529   5.240   4.555   8.889 -0.5811 -0.2148  0.4897
  686MOL0     C92530   5.181   4.669   8.952 -0.4503 -0.5946 -0.3433
  686MOL0     C92531   5.041   4.672   8.964 -0.5001  0.1118 -0.0692
  686MOL0     C92532   4.958   4.577   8.904 -0.2901 -0.3459 -0.6289
  686MOL0     O92533   4.820   4.593   8.909  0.3696  0.1503  0.5806
  686MOL0     C92534   4.774   4.691   8.810 -1.0170 -0.1163  0.5417
  686MOL0     C92535   4.624   4.692   8.795  0.5192 -0.7291  0.0615
  686MOL0     C92536   4.537   4.684   8.926 -0.2823  0.1558 -0.1480
  686MOL0     C92537   4.391   4.686   8.895  0.0523 -0.9933  0.2254
  686MOL0     C92538   4.344   4.554   8.840 -0.0587 -0.2099  0.0891
  686MOL0     C92539   4.290   4.457   8.792  0.1008 -0.5819 -0.6315
  686MOL0     C92540   5.021   4.461   8.852 -0.1878  0.3126 -0.1687
  686MOL0     C92541   5.162   4.448   8.839  0.6976  0.1133 -0.5235
  686MOL0     C92542   5.214   4.326   8.759  0.6924  0.0179  0.1552
  686MOL0     H92543   5.650   4.506   8.793  2.3199  0.7753 -1.2341
  686MOL0     H92544   5.870   4.597   8.736  1.0199  1.1631  0.6177
  686MOL0     H92545   5.932   5.025   8.825  0.6129  0.5331 -2.2008
  686MOL0     H92546   6.066   4.982   8.929 -0.5873  3.1376 -0.2954
  686MOL0     H92547   6.171   4.905   8.706  0.2573  0.2167  0.3445
  686MOL0     H92548   6.142   5.075   8.720  2.5451 -0.8820  0.9349
  686MOL0     H92549   5.907   5.032   8.611  0.0524 -0.3888  1.0762
  686MOL0     H92550   5.988   4.885   8.551  3.1002 -0.1633  0.6377
  686MOL0     H92551   5.984   5.056   8.383  1.0254  0.4412 -0.6687
  686MOL0     H92552   6.049   5.175   8.500  2.3902 -1.0074  1.9247
  686MOL0     H92553   6.229   4.946   8.467  0.6127  0.8263  1.5987
  686MOL0     H92554   6.188   5.025   8.316  1.6987  1.4064 -0.7903
  686MOL0     H92555   6.243   5.250   8.439  2.1290  0.2136 -1.8432
  686MOL0     H92556   6.301   5.150   8.571 -1.1588 -0.3870  0.0924
  686MOL0     H92557   6.427   5.037   8.367 -0.0949 -0.0340 -0.4665
  686MOL0     H92558   6.498   5.168   8.438 -0.3947 -0.5502  0.7582
  686MOL0     H92559   6.316   5.171   8.183  0.7531 -1.6916 -0.1763
  686MOL0     H92560   6.373   5.320   8.263 -0.1152 -0.1305 -0.6103
  686MOL0     H92561   6.637   5.374   8.218 -1.4952 -0.2294 -0.0346
  686MOL0     H92562   6.754   5.365   7.865  2.5435  0.3526 -1.1849
  686MOL0     H92563   6.774   5.450   8.010  0.5858  1.0596 -1.7182
  686MOL0     H92564   6.959   5.278   8.079  1.3479 -1.1287 -0.4608
  686MOL0     H92565   6.931   5.185   7.936 -0.6220 -0.1254 -2.0153
  686MOL0     H92566   7.006   5.469   7.898  0.3624  0.1771  0.8587
  686MOL0     H92567   7.025   5.323   7.797  1.3032 -1.5840  1.2476
  686MOL0     H92568   7.174   5.242   8.009  0.7233 -1.0607 -2.0982
  686MOL0     H92569   7.201   5.417   8.026 -2.8390 -0.5669  1.5888
  686MOL0     H92570   7.406   5.368   7.655  0.4544 -0.8299 -1.0455
  686MOL0     H92571   7.636   5.306   7.622  3.6068  2.0403  2.5243
  686MOL0     H92572   7.990   4.902   7.916  0.9076 -0.7876  0.0161
  686MOL0     H92573   8.238   4.871   7.934 -2.5117 -0.6750  2.0052
  686MOL0     H92574   8.425   4.895   7.971 -0.8647 -0.6733 -1.3751
  686MOL0     H92575   8.490   4.871   7.803 -2.8433 -1.7491  0.6381
  686MOL0     H92576   8.618   5.024   8.027  0.3018 -1.1198  0.6015
  686MOL0     H92577   8.670   4.867   7.948 -4.1456 -1.8441  0.7380
  686MOL0     H92578   8.662   5.008   7.727  0.8835  0.3864 -0.4174
  686MOL0     H92579   8.664   5.152   7.825  2.1060  0.0445 -0.5741
  686MOL0     H92580   8.880   4.944   7.870  3.8398  0.9122 -1.3680
  686MOL0     H92581   8.858   5.102   7.944  0.9099 -1.0792  0.0039
  686MOL0     H92582   8.915   5.232   7.742  0.7549  0.5373 -0.4304
  686MOL0     H92583   8.888   5.103   7.641  1.3652 -2.3037 -0.6934
  686MOL0     H92584   9.101   5.068   7.861 -2.0664 -1.0191  0.2507
  686MOL0     H92585   9.071   4.970   7.722  0.4610 -0.3692  1.4993
  686MOL0     H92586   9.118   5.254   7.680 -0.4138 -0.4091  2.7035
  686MOL0     H92587   9.144   5.117   7.575 -0.7356 -0.2988  0.0812
  686MOL0     H92588   9.320   5.168   7.826 -0.1938  0.9282 -0.1965
  686MOL0     H92589   9.333   5.029   7.712 -1.5877 -0.3218  0.6162
  686MOL0     H92590   8.298   5.265   7.775  0.2402  0.5721  3.8738
  686MOL0     H92591   8.058   5.315   7.837  0.8132 -0.0832 -1.6848
  686MOL0     H92592   7.632   5.153   8.025  1.3288  1.2076  0.0332
  686MOL0     H92593   7.410   5.223   8.057 -1.1946 -1.7564  0.0351
  686MOL0     H92594   5.786   4.945   8.975 -3.5202 -0.0818  1.3669
  686MOL0     H92595   5.560   4.848   9.030 -1.6095 -0.2762 -1.6211
  686MOL0     H92596   5.239   4.748   8.998 -2.5352  0.2673  0.9540
  686MOL0     H92597   4.995   4.754   9.018  0.6926 -1.0432  2.9689
  686MOL0     H92598   4.816   4.667   8.711 -0.1407 -0.7088  1.0392
  686MOL0     H92599   4.812   4.791   8.833 -0.0429 -0.3043 -0.1592
  686MOL0     H92600   4.591   4.611   8.729 -1.2542 -0.3008  0.3624
  686MOL0     H92601   4.588   4.777   8.736 -3.8764 -1.1182  1.7791
  686MOL0     H92602   4.564   4.763   8.998  0.7211  0.5364 -0.9066
  686MOL0     H92603   4.557   4.587   8.972  0.4777  0.9410  1.2592
  686MOL0     H92604   4.328   4.716   8.979  0.9512 -0.3279  0.6876
  686MOL0     H92605   4.374   4.757   8.813  2.2773 -0.1554  0.4286
  686MOL0     H92606   4.258   4.364   8.748 -4.4416  0.2752  0.3771
  686MOL0     H92607   4.960   4.377   8.820  1.0073 -0.8155  0.4059
  686MOL0     H92608   5.224   4.350   8.653  1.8646 -0.3464  0.1689
  686MOL0     H92609   5.307   4.283   8.797 -0.3052 -0.6953  1.9681
  686MOL0     H92610   5.136   4.249   8.753  0.2834  0.5544 -2.2657
  687MOL0     O92611   0.726   5.085   3.761  0.4950 -0.9351  0.6046
  687MOL0     C92612   0.654   5.184   3.786 -0.8140 -0.3171 -0.3360
  687MOL0     O92613   0.696   5.309   3.811  0.0369 -0.1569 -0.1034
  687MOL0     C92614   0.824   5.335   3.825  0.1851 -0.3546 -1.2494
  687MOL0     C92615   0.903   5.299   3.940 -0.2426 -0.3877 -0.0429
  687MOL0     C92616   1.044   5.317   3.947 -0.0106 -0.4233  0.0066
  687MOL0     C92617   1.109   5.391   3.842 -0.9029  0.5137  0.4276
  687MOL0     O92618   1.240   5.435   3.844 -0.7304 -0.3869 -0.6022
  687MOL0     C92619   1.304   5.444   3.973 -0.5161 -0.2969 -0.0389
  687MOL0     C92620   1.433   5.524   3.961  0.2250 -0.4431 -1.0413
  687MOL0     C92621   1.550   5.468   3.871 -0.3235 -0.5484 -0.5921
  687MOL0     C92622   1.659   5.575   3.859  0.5929  0.5127  1.0996
  687MOL0     C92623   1.775   5.529   3.780 -0.3066 -0.3641  0.1092
  687MOL0     C92624   1.878   5.643   3.757  0.2888  0.4455  0.2661
  687MOL0     C92625   1.988   5.595   3.667 -0.1910 -0.3344 -0.2670
  687MOL0     C92626   2.076   5.719   3.625 -0.3647  0.1542 -0.0038
  687MOL0     N92627   2.181   5.683   3.531 -1.0183 -0.4956  0.6167
  687MOL0     C92628   2.289   5.601   3.549 -0.3197  0.1444  0.8595
  687MOL0     C92629   2.361   5.605   3.425  0.3092 -0.6184  0.3711
  687MOL0     C92630   2.490   5.533   3.402  0.5400  0.0425 -0.4168
  687MOL0     C92631   2.617   5.600   3.443  0.5005  0.7926 -0.2316
  687MOL0     C92632   2.741   5.510   3.423 -0.2522 -0.2348 -0.9435
  687MOL0     C92633   2.867   5.591   3.413 -0.5197  1.2922  0.0996
  687MOL0     O92634   2.885   5.683   3.519 -0.4530  0.2994  0.4100
  687MOL0     C92635   2.987   5.772   3.508 -0.4293 -0.1904 -0.0411
  687MOL0     C92636   2.975   5.887   3.585 -0.4588 -0.2445  0.3885
  687MOL0     C92637   3.075   5.987   3.580 -0.1146  0.3556 -0.7183
  687MOL0     C92638   3.182   5.974   3.503 -0.1681 -0.4019  0.7742
  687MOL0     C92639   3.273   6.084   3.484  0.1974 -0.6660 -0.0982
  687MOL0     O92640   3.399   6.055   3.440 -0.3508 -0.2061 -0.3431
  687MOL0     C92641   3.502   6.149   3.478  0.4814 -0.2467  0.1433
  687MOL0     C92642   3.595   6.194   3.382 -0.5636  0.8008 -0.2848
  687MOL0     C92643   3.707   6.270   3.418 -0.8923  0.0052 -0.6082
  687MOL0     C92644   3.723   6.317   3.549 -0.9272 -0.5627 -0.1587
  687MOL0     O92645   3.833   6.400   3.565 -0.5321 -0.1182 -0.6319
  687MOL0     C92646   3.831   6.505   3.658  1.0057  0.1173 -0.2756
  687MOL0     C92647   3.814   6.631   3.574 -0.3619  0.1071 -0.0194
  687MOL0     C92648   3.846   6.764   3.650  0.9887  0.2490  0.5338
  687MOL0     C92649   3.837   6.886   3.558  0.9121 -0.0126 -0.4661
  687MOL0     C92650   3.868   7.023   3.632 -0.3621  0.1820 -0.0939
  687MOL0     C92651   4.016   7.059   3.655  0.1430  0.0527 -0.3358
  687MOL0     C92652   4.018   7.188   3.736 -0.4607 -0.9475 -0.3905
  687MOL0     C92653   4.159   7.202   3.796  0.6723  0.0083 -0.7357
  687MOL0    Cl92654   4.286   7.230   3.665  0.3803 -0.3042 -0.4585
  687MOL0     C92655   3.629   6.284   3.644  0.0763  0.3836 -0.4018
  687MOL0     C92656   3.520   6.197   3.608 -0.3424  0.3563  0.8625
  687MOL0     O92657   3.239   6.193   3.527  0.5999 -0.1609  0.6393
  687MOL0     C92658   3.189   5.864   3.416 -0.0130 -0.8166  0.8548
  687MOL0     C92659   3.087   5.765   3.418  1.0553  0.3261 -0.9537
  687MOL0     N92660   2.287   5.682   3.338  0.1217 -1.0190  0.1403
  687MOL0     N92661   2.182   5.724   3.402  0.1077 -0.3317  0.5206
  687MOL0     C92662   1.017   5.441   3.739 -0.9426 -0.3881  0.3110
  687MOL0     C92663   0.884   5.408   3.724 -0.4475  0.7513  0.1089
  687MOL0     C92664   0.511   5.173   3.787 -0.0456 -0.7602  0.3248
  687MOL0     C92665   0.439   5.270   3.714  0.2977  0.2945 -0.2778
  687MOL0     C92666   0.302   5.247   3.685 -0.5571 -0.3698  0.1588
  687MOL0     C92667   0.228   5.134   3.727  0.3210 -0.0395  0.1647
  687MOL0     O92668   0.105   5.107   3.675  0.6630 -0.4908  0.1500
  687MOL0     C92669   0.057   5.169   3.553 -0.0521  0.2682  0.0377
  687MOL0     C92670  -0.048   5.087   3.488  1.2807 -0.8483  0.5058
  687MOL0     C92671  -0.141   5.161   3.391  0.4871  0.7710 -0.1754
  687MOL0     C92672  -0.237   5.065   3.322 -0.4584  0.0547  0.4097
  687MOL0     C92673  -0.339   5.141   3.239  0.7665 -0.1571  0.1533
  687MOL0     C92674  -0.416   5.214   3.179  0.2901 -0.3400  0.4951
  687MOL0     C92675   0.297   5.051   3.818  0.3500 -0.3667  0.8215
  687MOL0     C92676   0.436   5.060   3.839 -0.5166 -0.1130 -0.6832
  687MOL0     C92677   0.508   4.960   3.927  0.6915 -0.0132  0.4544
  687MOL0     H92678   0.849   5.260   4.026  2.2384  0.8737  2.2250
  687MOL0     H92679   1.096   5.287   4.037 -1.0051 -1.4260  0.2647
  687MOL0     H92680   1.241   5.490   4.050  2.1308  0.1631  2.0083
  687MOL0     H92681   1.319   5.342   4.010  0.2746 -1.4079 -3.1493
  687MOL0     H92682   1.476   5.539   4.060  0.6034  2.5002 -1.5629
  687MOL0     H92683   1.412   5.627   3.930  2.1233 -0.1366 -1.3824
  687MOL0     H92684   1.524   5.443   3.768  1.2681  0.7140 -1.3463
  687MOL0     H92685   1.589   5.378   3.920  3.2604  1.1870  0.0737
  687MOL0     H92686   1.618   5.658   3.800  0.8380 -0.6987 -0.8916
  687MOL0     H92687   1.691   5.605   3.959  1.3589 -0.7973  1.2739
  687MOL0     H92688   1.834   5.453   3.831  2.6579  0.7103 -1.4650
  687MOL0     H92689   1.738   5.480   3.689 -1.2860 -2.4701  1.5644
  687MOL0     H92690   1.839   5.737   3.717 -1.2978 -0.9255 -1.5795
  687MOL0     H92691   1.917   5.670   3.856  1.2222 -0.0358  0.0481
  687MOL0     H92692   1.949   5.561   3.570  2.2091 -2.2378 -0.6624
  687MOL0     H92693   2.047   5.516   3.714  0.9056 -0.9136 -2.4715
  687MOL0     H92694   2.011   5.791   3.576 -1.9741 -2.9133 -2.7547
  687MOL0     H92695   2.107   5.778   3.712  0.7076 -3.5801  2.4092
  687MOL0     H92696   2.325   5.557   3.642  0.2218  1.3500  1.2437
  687MOL0     H92697   2.479   5.435   3.448  1.6880 -0.8360 -1.9233
  687MOL0     H92698   2.495   5.514   3.294  1.0877  0.4981 -0.4788
  687MOL0     H92699   2.626   5.701   3.401  0.9851  0.9106  0.1391
  687MOL0     H92700   2.604   5.615   3.551  2.4285  1.0395 -0.0003
  687MOL0     H92701   2.729   5.448   3.333 -1.5378 -0.7045 -0.4753
  687MOL0     H92702   2.745   5.440   3.506 -0.8863 -0.3879 -1.0347
  687MOL0     H92703   2.891   5.633   3.315 -1.7918 -0.6923 -1.1362
  687MOL0     H92704   2.942   5.511   3.422  0.0746  1.7229 -0.8750
  687MOL0     H92705   2.892   5.890   3.655  0.9029 -0.4818  2.0841
  687MOL0     H92706   3.077   6.076   3.643  3.9377 -1.5803  2.4042
  687MOL0     H92707   3.574   6.172   3.278 -2.0265 -0.6073  0.2741
  687MOL0     H92708   3.781   6.300   3.344 -0.9663  0.2048 -0.6024
  687MOL0     H92709   3.755   6.497   3.737 -0.2749 -1.3823 -1.5753
  687MOL0     H92710   3.928   6.493   3.707  1.0838 -2.1836 -0.8820
  687MOL0     H92711   3.887   6.626   3.493  0.7026  0.0766  0.9143
  687MOL0     H92712   3.712   6.634   3.534 -0.6150 -1.8874  0.3538
  687MOL0     H92713   3.774   6.765   3.732 -0.6242 -1.9801 -0.7351
  687MOL0     H92714   3.947   6.754   3.689  1.4248 -0.9785 -0.7960
  687MOL0     H92715   3.731   6.886   3.532  0.3031  3.8897  1.2485
  687MOL0     H92716   3.908   6.868   3.477  2.2690 -0.0492  0.6841
  687MOL0     H92717   3.821   7.021   3.731 -0.2043  1.1300  0.0115
  687MOL0     H92718   3.827   7.109   3.578  1.1127  1.5025  0.7965
  687MOL0     H92719   4.058   6.982   3.720  0.5169  0.4944 -0.0479
  687MOL0     H92720   4.074   7.062   3.562  0.5365 -0.7477 -0.1253
  687MOL0     H92721   3.960   7.175   3.828  2.0017  0.7034  1.5094
  687MOL0     H92722   3.999   7.279   3.679  1.5912  0.0480  0.4276
  687MOL0     H92723   4.161   7.277   3.875 -2.5974 -1.1258  0.5505
  687MOL0     H92724   4.185   7.108   3.845 -1.9728  1.7825  4.8971
  687MOL0     H92725   3.638   6.306   3.750 -2.4556 -2.1601  0.4502
  687MOL0     H92726   3.457   6.166   3.690 -0.7591  1.9650  1.1921
  687MOL0     H92727   3.273   5.867   3.348 -0.4094  0.7543  0.3796
  687MOL0     H92728   3.119   5.676   3.364  2.3776  0.3213 -0.2122
  687MOL0     H92729   1.062   5.513   3.672 -5.4543  1.6444 -0.8711
  687MOL0     H92730   0.825   5.431   3.636 -1.6949 -1.8742  0.1697
  687MOL0     H92731   0.493   5.354   3.671 -0.0196 -0.4992 -2.3310
  687MOL0     H92732   0.242   5.314   3.624 -4.2846 -0.9504  2.8035
  687MOL0     H92733   0.132   5.178   3.474 -1.0864  0.5339 -0.9439
  687MOL0     H92734   0.016   5.269   3.570  0.2730  0.0807  2.1619
  687MOL0     H92735  -0.113   5.048   3.567  0.0910  0.6148  0.3156
  687MOL0     H92736  -0.002   5.005   3.433  1.0237 -0.2258 -0.6845
  687MOL0     H92737  -0.084   5.208   3.310  1.6357 -2.4885 -1.4205
  687MOL0     H92738  -0.196   5.237   3.447 -0.0552 -0.1783  0.6064
  687MOL0     H92739  -0.181   4.993   3.261 -0.9898  0.9235 -1.1608
  687MOL0     H92740  -0.299   4.999   3.383 -1.5485 -1.3946 -2.1273
  687MOL0     H92741  -0.480   5.276   3.119 -1.8569  0.8712  3.7709
  687MOL0     H92742   0.231   4.981   3.868 -1.5059  0.8457  0.1548
  687MOL0     H92743   0.591   4.918   3.870  2.6051  2.1080  1.4821
  687MOL0     H92744   0.553   5.006   4.016  0.4199  2.4033 -0.5841
  687MOL0     H92745   0.440   4.880   3.957 -4.2146  3.6604  0.2104
  688MOL0     O92746   1.782  10.205   3.154  0.8176 -0.4742  0.5967
  688MOL0     C92747   1.765  10.278   3.059 -0.2320  0.0166  0.8346
  688MOL0     O92748   1.867  10.326   2.979  0.8171  0.4767 -0.4642
  688MOL0     C92749   1.998  10.286   3.000  0.4653 -0.4998 -0.1922
  688MOL0     C92750   2.031  10.148   3.007  0.5884 -0.5218 -0.1858
  688MOL0     C92751   2.158  10.118   3.052 -0.4256 -0.4516  0.3038
  688MOL0     C92752   2.248  10.211   3.103 -0.7512 -0.6535 -0.5218
  688MOL0     O92753   2.367  10.158   3.142 -0.2476 -0.1100  0.5355
  688MOL0     C92754   2.474  10.253   3.160  0.7346 -0.2015 -0.3346
  688MOL0     C92755   2.598  10.172   3.208 -0.7139  0.2450 -0.1089
  688MOL0     C92756   2.728  10.257   3.190  0.4372  0.0693  0.3425
  688MOL0     C92757   2.846  10.187   3.252  0.0912  0.0806 -0.0870
  688MOL0     C92758   2.976  10.264   3.226 -0.1955 -0.2832 -0.1485
  688MOL0     C92759   3.068  10.213   3.114  0.1657  0.3868 -0.4658
  688MOL0     C92760   3.184  10.302   3.095 -0.0973 -0.5454  0.0522
  688MOL0     C92761   3.245  10.286   2.952 -0.0982 -0.3016 -0.2705
  688MOL0     N92762   3.378  10.349   2.945  0.9584  0.3467  0.2712
  688MOL0     C92763   3.401  10.484   2.952 -0.2280  0.2230 -0.2278
  688MOL0     C92764   3.534  10.496   2.947 -0.3777 -0.1296  0.7703
  688MOL0     C92765   3.599  10.631   2.940 -0.4111 -0.0901 -0.1498
  688MOL0     C92766   3.604  10.675   3.090  0.0680 -0.2110 -0.0955
  688MOL0     C92767   3.587  10.823   3.108 -0.3804 -0.6648 -0.2426
  688MOL0     C92768   3.440  10.869   3.094 -0.4715 -0.0366  0.3244
  688MOL0     O92769   3.371  10.807   2.987  0.6647  0.3966  0.4786
  688MOL0     C92770   3.233  10.823   2.988 -0.1391 -0.1486  0.0511
  688MOL0     C92771   3.153  10.907   3.077 -0.3789 -0.6424  0.8651
  688MOL0     C92772   3.021  10.915   3.050 -0.4201 -0.2472 -0.5015
  688MOL0     C92773   2.955  10.833   2.957  0.1391 -0.0837 -0.3540
  688MOL0     C92774   2.814  10.846   2.935 -0.0867 -0.5346 -0.0302
  688MOL0     O92775   2.758  10.765   2.842 -0.1899 -0.6127 -0.3149
  688MOL0     C92776   2.625  10.762   2.854  0.2078  0.6291  0.1417
  688MOL0     C92777   2.546  10.827   2.761  0.2743 -0.5553  0.6461
  688MOL0     C92778   2.402  10.807   2.759  0.1012 -0.3956  0.2083
  688MOL0     C92779   2.342  10.717   2.841  0.6201 -0.0182  0.0315
  688MOL0     O92780   2.213  10.671   2.835 -0.1646  0.4460  0.1314
  688MOL0     C92781   2.124  10.722   2.736  0.3747  0.4511 -0.2640
  688MOL0     C92782   1.978  10.657   2.735  0.4194 -0.4769 -0.1151
  688MOL0     C92783   1.887  10.726   2.632 -0.7809  0.4573  0.5292
  688MOL0     C92784   1.744  10.678   2.642  0.2051  1.1580 -0.3810
  688MOL0     C92785   1.655  10.736   2.526  0.6118 -0.0849 -0.2247
  688MOL0     C92786   1.517  10.664   2.509 -0.2135 -0.1712  0.5778
  688MOL0     C92787   1.420  10.710   2.620 -0.8824 -0.0815 -0.3826
  688MOL0     C92788   1.280  10.651   2.632 -0.4450 -0.2223  0.6577
  688MOL0    Cl92789   1.266  10.473   2.634  0.1090 -0.0769 -0.0200
  688MOL0     C92790   2.426  10.662   2.934  0.0055 -0.5361 -0.1038
  688MOL0     C92791   2.565  10.678   2.948  0.5536 -0.3668 -0.0111
  688MOL0     O92792   2.757  10.935   2.996 -0.0620  0.4652  0.0030
  688MOL0     C92793   3.030  10.736   2.880  0.7107 -0.0407 -0.2963
  688MOL0     C92794   3.169  10.741   2.891  0.1514  0.1680 -0.3982
  688MOL0     N92795   3.588  10.367   2.917 -0.7516  0.6198 -0.0877
  688MOL0     N92796   3.493  10.285   2.914  0.8848  0.1144  0.6513
  688MOL0     C92797   2.208  10.344   3.090 -0.2687 -0.4263  0.4598
  688MOL0     C92798   2.089  10.387   3.037 -0.2598  0.5806  0.6485
  688MOL0     C92799   1.635  10.333   3.030  0.2262  0.6906  0.3796
  688MOL0     C92800   1.627  10.464   2.994  0.1682 -0.5591 -0.4244
  688MOL0     C92801   1.503  10.525   2.994 -0.0420 -1.0499 -0.6857
  688MOL0     C92802   1.387  10.462   3.031  0.4411  0.5272 -0.2607
  688MOL0     O92803   1.275  10.534   3.029  0.9956  0.0327  0.0326
  688MOL0     C92804   1.153  10.469   3.023 -0.0582 -0.0300 -0.5353
  688MOL0     C92805   1.049  10.578   2.986  0.1468 -0.2724 -0.5844
  688MOL0     C92806   0.915  10.505   2.951 -0.7045  0.7522 -0.1918
  688MOL0     C92807   0.829  10.581   2.851  0.3160 -0.2269 -0.1491
  688MOL0     C92808   0.881  10.571   2.714 -0.8176  0.5392  0.4931
  688MOL0     C92809   0.919  10.545   2.602 -0.3818 -0.4249  0.3020
  688MOL0     C92810   1.398  10.327   3.055  0.4227  0.6327 -0.7285
  688MOL0     C92811   1.516  10.259   3.049  0.4011 -0.2160 -0.1342
  688MOL0     C92812   1.516  10.111   3.076 -1.1080 -0.2008 -0.0390
  688MOL0     H92813   1.962  10.066   2.984 -0.6134 -0.0683  1.6098
  688MOL0     H92814   2.198  10.017   3.045 -1.2230 -0.6781 -1.8925
  688MOL0     H92815   2.504  10.309   3.071 -1.6442  3.2414  0.8056
  688MOL0     H92816   2.455  10.319   3.245  0.6202 -1.5937  0.7530
  688MOL0     H92817   2.608  10.082   3.146  1.2512  0.8694 -0.7695
  688MOL0     H92818   2.582  10.131   3.308  0.8313 -1.8262 -0.6328
  688MOL0     H92819   2.705  10.358   3.227  0.2687 -0.0280  0.5054
  688MOL0     H92820   2.746  10.260   3.082 -0.7305 -0.2026  0.1248
  688MOL0     H92821   2.818  10.185   3.358 -0.2489 -1.0495 -0.1768
  688MOL0     H92822   2.862  10.080   3.235 -0.1508 -0.0984  0.7445
  688MOL0     H92823   2.944  10.365   3.199 -0.9072 -0.5270 -0.2552
  688MOL0     H92824   3.032  10.257   3.320 -0.5095  1.3336  0.1856
  688MOL0     H92825   3.097  10.112   3.144 -2.9313  0.0807  2.1044
  688MOL0     H92826   3.015  10.211   3.019 -0.2740  0.5276 -0.2239
  688MOL0     H92827   3.262  10.280   3.167 -0.8498  1.3454  1.5244
  688MOL0     H92828   3.154  10.405   3.118 -0.2411 -1.1651  2.9811
  688MOL0     H92829   3.250  10.179   2.930 -1.5285 -0.2204 -1.1119
  688MOL0     H92830   3.186  10.317   2.866 -1.9948 -4.7537 -0.8469
  688MOL0     H92831   3.331  10.565   2.969 -0.9598  0.3325 -3.1812
  688MOL0     H92832   3.701  10.620   2.901  0.4154  1.2820  1.5012
  688MOL0     H92833   3.545  10.693   2.868 -0.4154  0.5374  0.3925
  688MOL0     H92834   3.518  10.632   3.142 -2.2982  3.1320 -0.8672
  688MOL0     H92835   3.694  10.643   3.144  1.2242  1.2243 -1.0704
  688MOL0     H92836   3.649  10.873   3.033 -1.2521  0.0778 -0.4849
  688MOL0     H92837   3.616  10.858   3.207 -1.3074  2.9164 -1.1074
  688MOL0     H92838   3.440  10.977   3.077 -1.9558 -0.2208 -1.1971
  688MOL0     H92839   3.384  10.836   3.182 -2.2692 -1.1597 -1.1534
  688MOL0     H92840   3.199  10.977   3.146  0.7659  0.7135 -1.1709
  688MOL0     H92841   2.973  10.994   3.107  1.6149  0.6507  0.0505
  688MOL0     H92842   2.591  10.878   2.677  0.3340 -0.6359  0.6287
  688MOL0     H92843   2.341  10.864   2.690  1.0820  0.1239 -0.2476
  688MOL0     H92844   2.106  10.827   2.762 -0.1955 -0.3841  3.2035
  688MOL0     H92845   2.166  10.696   2.639 -0.7481 -1.4999 -0.2747
  688MOL0     H92846   1.975  10.549   2.717  0.0557 -0.4657 -0.1267
  688MOL0     H92847   1.930  10.669   2.833  1.8773 -0.6741  0.6599
  688MOL0     H92848   1.889  10.836   2.636  0.6098  0.5551 -1.5746
  688MOL0     H92849   1.914  10.698   2.530 -1.0507  0.7770  0.3674
  688MOL0     H92850   1.710  10.712   2.741  2.8337  3.7099 -0.2002
  688MOL0     H92851   1.750  10.569   2.638 -0.2976  0.9683  2.2981
  688MOL0     H92852   1.710  10.708   2.435  1.9887  0.0697  0.5256
  688MOL0     H92853   1.641  10.842   2.546  0.4679 -0.2785  0.7452
  688MOL0     H92854   1.473  10.688   2.412  1.0132 -2.7459 -0.7233
  688MOL0     H92855   1.539  10.557   2.507  2.2790  0.2909 -0.3421
  688MOL0     H92856   1.406  10.818   2.632 -3.0624 -0.3706  0.1911
  688MOL0     H92857   1.479  10.697   2.711  2.0505  2.1319 -1.8290
  688MOL0     H92858   1.248  10.691   2.728 -3.3846 -1.9494  0.5338
  688MOL0     H92859   1.217  10.696   2.555  0.8184 -0.1561 -0.3764
  688MOL0     H92860   2.385  10.590   3.004  0.7115  0.2424  1.1381
  688MOL0     H92861   2.633  10.631   3.018  0.5863 -1.0218 -0.4779
  688MOL0     H92862   2.987  10.665   2.809  4.4574 -2.0556 -0.7938
  688MOL0     H92863   3.227  10.679   2.823  0.9637 -1.6464  1.8363
  688MOL0     H92864   2.285  10.420   3.095 -0.8547  0.1055  2.3526
  688MOL0     H92865   2.063  10.490   3.019 -0.3311  0.4620  0.0486
  688MOL0     H92866   1.718  10.517   2.967  0.3345 -1.3278 -1.4208
  688MOL0     H92867   1.490  10.625   2.955  0.6724 -0.1992  1.1437
  688MOL0     H92868   1.135  10.434   3.125 -1.2126  0.5716 -0.5200
  688MOL0     H92869   1.147  10.387   2.951 -2.2418  0.4164 -0.9365
  688MOL0     H92870   1.086  10.639   2.902 -0.8566  0.3486 -0.6048
  688MOL0     H92871   1.030  10.643   3.071  2.2892 -0.7490  0.3181
  688MOL0     H92872   0.858  10.500   3.045  1.6984 -0.3290  1.3013
  688MOL0     H92873   0.938  10.402   2.922  1.3204  1.0706  0.1384
  688MOL0     H92874   0.736  10.525   2.867 -0.5736  0.8628 -1.3686
  688MOL0     H92875   0.803  10.682   2.883 -1.9793 -0.6446 -0.5145
  688MOL0     H92876   0.966  10.535   2.506 -1.0802  2.2863 -0.4217
  688MOL0     H92877   1.306  10.276   3.082  0.2074  1.6896  0.5810
  688MOL0     H92878   1.601  10.076   3.017 -1.3608  1.6735 -1.6236
  688MOL0     H92879   1.520  10.087   3.183 -0.0539  0.5016  0.1052
  688MOL0     H92880   1.424  10.069   3.035 -1.1988  0.8055 -0.9195
  689MOL0     O92881   7.510   9.317   4.975  0.3676  0.2584  0.2181
  689MOL0     C92882   7.422   9.266   5.035 -0.0474 -0.3506 -0.7338
  689MOL0     O92883   7.364   9.145   5.008  0.2471  0.0701 -0.6212
  689MOL0     C92884   7.415   9.072   4.902 -0.7961 -0.1635  0.2857
  689MOL0     C92885   7.535   8.996   4.915 -0.3383  0.0334  0.9587
  689MOL0     C92886   7.587   8.926   4.802  0.0767 -0.1471 -0.1831
  689MOL0     C92887   7.532   8.944   4.675  0.0313 -0.5389  0.6943
  689MOL0     O92888   7.579   8.879   4.562 -0.3941  0.1762  0.1491
  689MOL0     C92889   7.689   8.792   4.579  0.4575  0.2378  0.2836
  689MOL0     C92890   7.743   8.735   4.450 -0.3795 -0.5660  1.2329
  689MOL0     C92891   7.878   8.670   4.473 -0.1058  0.6177 -0.3715
  689MOL0     C92892   7.917   8.578   4.360 -0.1114  0.1372  0.7513
  689MOL0     C92893   8.050   8.503   4.390 -0.5054 -0.2338 -0.2826
  689MOL0     C92894   8.183   8.580   4.389 -0.3591 -0.2451  0.1768
  689MOL0     C92895   8.296   8.496   4.353  0.4392  0.5822 -0.1427
  689MOL0     C92896   8.425   8.569   4.355  0.0067 -0.0755 -0.9707
  689MOL0     N92897   8.528   8.467   4.314  1.1586 -0.0660  0.0248
  689MOL0     C92898   8.552   8.429   4.188 -0.1633 -0.1089  0.1223
  689MOL0     C92899   8.659   8.350   4.200 -0.4636 -0.4525  0.0189
  689MOL0     C92900   8.732   8.290   4.080  0.1174  0.6146 -0.3776
  689MOL0     C92901   8.865   8.371   4.045  0.4747 -0.5393  0.2663
  689MOL0     C92902   8.963   8.293   3.965 -1.2676 -0.2138  0.5827
  689MOL0     C92903   9.109   8.317   4.018 -0.6605 -0.2355 -0.2184
  689MOL0     O92904   9.172   8.181   4.028  0.7238 -0.1853 -0.1694
  689MOL0     C92905   9.305   8.170   4.046 -0.6154 -0.1574 -0.4274
  689MOL0     C92906   9.364   8.044   4.035 -0.2981  0.4602 -0.6625
  689MOL0     C92907   9.499   8.020   4.060 -0.6351  0.1904  0.0361
  689MOL0     C92908   9.581   8.132   4.087 -0.3776 -0.5380 -0.2857
  689MOL0     C92909   9.730   8.106   4.099  0.2077 -0.7362 -0.1998
  689MOL0     O92910   9.765   7.974   4.128 -0.2302 -0.1773  0.0700
  689MOL0     C92911   9.895   7.951   4.160 -1.1529  0.2309 -0.5028
  689MOL0     C92912   9.920   7.897   4.286  1.0555  0.4260  0.0637
  689MOL0     C92913  10.045   7.846   4.321 -0.2115 -0.2548  0.1546
  689MOL0     C92914  10.153   7.873   4.234 -0.1470  1.1570  0.0707
  689MOL0     O92915  10.276   7.826   4.270  0.4237  0.2522 -0.0254
  689MOL0     C92916  10.309   7.784   4.405 -0.0056 -0.5131  0.1102
  689MOL0     C92917  10.457   7.768   4.411  1.2078  0.1793  0.6507
  689MOL0     C92918  10.523   7.734   4.277 -0.2300 -0.5864  0.4856
  689MOL0     C92919  10.659   7.662   4.296 -0.4871  0.5947 -0.5177
  689MOL0     C92920  10.788   7.741   4.345  0.6084 -0.0828 -1.0657
  689MOL0     C92921  10.823   7.870   4.268 -0.4918  1.3938  0.4181
  689MOL0     C92922  10.913   7.968   4.348 -0.2011  0.8557  0.3054
  689MOL0     C92923  10.973   8.073   4.261  0.6542 -0.3841 -0.0498
  689MOL0    Cl92924  10.867   8.211   4.239  0.5112  0.1014 -0.0003
  689MOL0     C92925  10.136   7.930   4.108  0.6830 -0.2282  0.0650
  689MOL0     C92926  10.002   7.963   4.070 -0.2325  1.0239  0.4632
  689MOL0     O92927   9.812   8.198   4.084  0.3637 -0.3169 -0.3048
  689MOL0     C92928   9.524   8.254   4.096 -0.0646  0.1573  0.4907
  689MOL0     C92929   9.387   8.278   4.072  0.6651  0.8505  0.5174
  689MOL0     N92930   8.692   8.333   4.332 -0.0990  0.8452 -0.1379
  689MOL0     N92931   8.617   8.415   4.403  0.4694  0.2141  1.0763
  689MOL0     C92932   7.420   9.025   4.659 -0.0875  0.0124 -0.1502
  689MOL0     C92933   7.360   9.085   4.771  0.1418 -0.5877  0.1417
  689MOL0     C92934   7.381   9.354   5.154  0.1025  0.0780  0.7501
  689MOL0     C92935   7.476   9.440   5.200 -0.1524  0.5002  0.3937
  689MOL0     C92936   7.460   9.522   5.317 -0.1201 -0.5765 -0.3767
  689MOL0     C92937   7.350   9.502   5.391 -0.2153 -0.5052  0.5461
  689MOL0     O92938   7.338   9.578   5.505 -0.1723  0.2514 -0.5676
  689MOL0     C92939   7.211   9.605   5.570 -0.4115 -0.3075  0.3158
  689MOL0     C92940   7.093   9.665   5.485 -0.2539 -1.3391 -0.0639
  689MOL0     C92941   6.980   9.694   5.586  0.6745  0.5217  0.3562
  689MOL0     C92942   6.880   9.801   5.536  0.5892 -0.2173  0.0535
  689MOL0     C92943   6.772   9.827   5.629  0.2154 -0.8586  0.3584
  689MOL0     C92944   6.686   9.839   5.716  0.1408 -0.1931 -0.7559
  689MOL0     C92945   7.248   9.403   5.349  0.0415 -1.2322 -1.5126
  689MOL0     C92946   7.265   9.340   5.229 -0.6142  0.2637 -0.1728
  689MOL0     C92947   7.144   9.267   5.177  0.0619 -0.0253  0.8923
  689MOL0     H92948   7.586   9.006   5.010 -1.8317  1.6678  1.6440
  689MOL0     H92949   7.675   8.867   4.825 -1.5638 -2.5446  0.3113
  689MOL0     H92950   7.773   8.853   4.614  0.5217  0.4215 -0.1819
  689MOL0     H92951   7.672   8.716   4.655 -1.0935  0.1479 -0.1295
  689MOL0     H92952   7.758   8.810   4.372 -2.0778 -1.2763  0.1476
  689MOL0     H92953   7.674   8.660   4.409  0.4486 -1.4160  1.3831
  689MOL0     H92954   7.877   8.614   4.566 -1.0365 -4.9870 -3.2987
  689MOL0     H92955   7.950   8.751   4.487  2.5561 -1.6456  0.0350
  689MOL0     H92956   7.841   8.500   4.352 -0.0364  0.2281 -2.6522
  689MOL0     H92957   7.924   8.636   4.267  1.6315  1.9153  1.9201
  689MOL0     H92958   8.036   8.463   4.491 -4.4420  0.0979 -0.5439
  689MOL0     H92959   8.060   8.418   4.323  0.1165  0.0606 -0.5707
  689MOL0     H92960   8.182   8.664   4.319  2.5871 -1.0386 -0.9367
  689MOL0     H92961   8.200   8.622   4.489  4.3267 -0.2967 -0.4044
  689MOL0     H92962   8.278   8.461   4.250  2.1923  0.4693 -0.4416
  689MOL0     H92963   8.303   8.403   4.411  1.9726  1.3152  0.9042
  689MOL0     H92964   8.420   8.652   4.284 -3.3415 -0.8011 -1.7750
  689MOL0     H92965   8.448   8.599   4.457 -2.7447 -0.0055 -0.2785
  689MOL0     H92966   8.496   8.446   4.097 -0.1954 -1.8691 -0.2365
  689MOL0     H92967   8.763   8.192   4.119  1.8414  1.7246  1.2914
  689MOL0     H92968   8.665   8.279   3.995  0.2561 -1.0318 -0.3201
  689MOL0     H92969   8.841   8.460   3.986  2.8324 -0.8263 -1.2787
  689MOL0     H92970   8.906   8.409   4.139 -1.6888  0.5726  0.8228
  689MOL0     H92971   8.960   8.326   3.861  0.2815  2.4874  1.3080
  689MOL0     H92972   8.944   8.185   3.964 -1.3765 -0.4055 -4.5460
  689MOL0     H92973   9.100   8.365   4.116  1.4258  0.3523 -0.2491
  689MOL0     H92974   9.167   8.386   3.954 -4.3117  2.7649 -0.6462
  689MOL0     H92975   9.303   7.958   4.009 -0.3001 -0.4282  2.0109
  689MOL0     H92976   9.545   7.921   4.054 -1.7936 -0.2695 -2.6971
  689MOL0     H92977   9.845   7.897   4.364  0.7835  0.4146 -0.1921
  689MOL0     H92978  10.063   7.797   4.416 -0.2886 -1.2692 -0.3372
  689MOL0     H92979  10.273   7.853   4.482  1.5556 -1.8415  2.1508
  689MOL0     H92980  10.257   7.691   4.429 -1.9731  1.0991  2.6231
  689MOL0     H92981  10.505   7.852   4.463  0.7954  0.3052  0.8374
  689MOL0     H92982  10.463   7.679   4.475 -3.9802 -0.7803  0.2094
  689MOL0     H92983  10.463   7.653   4.237  0.0820  0.3193 -1.9837
  689MOL0     H92984  10.528   7.819   4.208  3.6818  0.3631  1.7096
  689MOL0     H92985  10.678   7.599   4.209  0.6265 -3.4698  2.3634
  689MOL0     H92986  10.635   7.586   4.371 -2.4695  2.0672  0.4391
  689MOL0     H92987  10.877   7.678   4.343  0.4994 -0.4713  1.7449
  689MOL0     H92988  10.769   7.777   4.447 -1.2716 -0.8245 -1.1224
  689MOL0     H92989  10.883   7.833   4.184  1.7149  1.9434  1.6911
  689MOL0     H92990  10.727   7.911   4.234  0.3898  1.1955 -2.5989
  689MOL0     H92991  11.000   7.921   4.396  0.1482 -0.0090 -1.1153
  689MOL0     H92992  10.856   8.020   4.426  0.2590  0.5155  0.8805
  689MOL0     H92993  11.059   8.119   4.310  0.3786 -1.3658  1.4355
  689MOL0     H92994  10.995   8.024   4.166  2.9782 -3.2146  1.7867
  689MOL0     H92995  10.221   7.958   4.046  0.2654  1.4798  0.2333
  689MOL0     H92996   9.977   8.002   3.972 -0.3498  0.1506  0.1416
  689MOL0     H92997   9.586   8.343   4.103  0.3500 -0.0880 -0.0282
  689MOL0     H92998   9.358   8.382   4.077 -0.7253  0.4957  0.1902
  689MOL0     H92999   7.382   9.030   4.558  2.4567  3.4223 -1.1214
  689MOL0     H93000   7.276   9.151   4.752 -0.2615 -1.0902  0.1441
  689MOL0     H93001   7.569   9.441   5.145 -1.2860 -0.1264 -1.6269
  689MOL0     H93002   7.533   9.597   5.347 -0.6113 -0.1488 -0.2414
  689MOL0     H93003   7.234   9.676   5.650 -1.6945 -0.0177  0.4452
  689MOL0     H93004   7.168   9.508   5.599  1.7041 -2.0380 -1.9268
  689MOL0     H93005   7.065   9.596   5.405 -2.0531  0.0234 -0.6661
  689MOL0     H93006   7.127   9.759   5.441 -1.6609 -0.7669  0.0159
  689MOL0     H93007   7.017   9.723   5.685 -0.1739  2.5128  0.1341
  689MOL0     H93008   6.918   9.604   5.589 -1.1839  1.7526  0.3763
  689MOL0     H93009   6.929   9.899   5.536 -1.0052  0.7319  3.3717
  689MOL0     H93010   6.828   9.778   5.442  1.2288  1.0283 -0.6322
  689MOL0     H93011   6.606   9.846   5.787  0.8767  2.0067 -0.0613
  689MOL0     H93012   7.157   9.393   5.407  1.0301  2.5099  1.0622
  689MOL0     H93013   7.089   9.328   5.104  4.7602 -1.0784 -4.1443
  689MOL0     H93014   7.174   9.185   5.112  4.9613  1.0350  1.4457
  689MOL0     H93015   7.081   9.219   5.253 -0.3521 -0.8077  0.0661
  690MOL0     O93016   6.961   5.848   6.528  0.7739 -0.4899  0.2808
  690MOL0     C93017   6.923   5.810   6.416  0.7599  0.2079 -0.0434
  690MOL0     O93018   7.004   5.750   6.328 -0.4659  0.2068  0.1276
  690MOL0     C93019   7.131   5.721   6.370  0.2422 -0.1376 -0.5950
  690MOL0     C93020   7.231   5.807   6.350  0.2194  0.1228  0.7079
  690MOL0     C93021   7.355   5.786   6.391 -1.0354  0.5103  0.5276
  690MOL0     C93022   7.394   5.667   6.448  0.4084 -0.1875 -0.7984
  690MOL0     O93023   7.523   5.650   6.490 -0.3582 -0.0603 -0.1899
  690MOL0     C93024   7.586   5.515   6.500  0.2031 -0.0789 -0.5195
  690MOL0     C93025   7.735   5.519   6.514  0.1762 -0.2868  0.2837
  690MOL0     C93026   7.792   5.573   6.378 -0.6133  0.8621 -0.9550
  690MOL0     C93027   7.950   5.583   6.392 -0.9511  0.0307 -0.3134
  690MOL0     C93028   8.021   5.636   6.267  0.1773 -0.0093 -0.2606
  690MOL0     C93029   8.163   5.583   6.235 -0.9139  1.1493  0.4252
  690MOL0     C93030   8.272   5.601   6.349  0.0277  0.1503  0.2265
  690MOL0     C93031   8.302   5.752   6.364 -0.0899 -0.1468 -0.1105
  690MOL0     N93032   8.395   5.799   6.259 -0.1168 -0.0535 -0.3974
  690MOL0     C93033   8.379   5.906   6.174 -0.6145 -0.0438  1.0394
  690MOL0     C93034   8.505   5.917   6.120 -0.0291  1.4731 -0.4451
  690MOL0     C93035   8.556   6.033   6.041 -0.6194  0.2593 -0.5804
  690MOL0     C93036   8.536   6.014   5.892 -0.1781  0.1690 -0.4632
  690MOL0     C93037   8.638   5.919   5.827 -0.2037  0.1986  0.9713
  690MOL0     C93038   8.626   5.888   5.673  0.4527 -0.6659 -0.0052
  690MOL0     O93039   8.732   5.800   5.630  0.0059 -0.2183 -0.3329
  690MOL0     C93040   8.850   5.849   5.581  0.6717  0.2367  0.7036
  690MOL0     C93041   8.935   5.755   5.524  0.2140 -0.5689 -0.2984
  690MOL0     C93042   9.059   5.791   5.480  0.6912  0.0872  0.1951
  690MOL0     C93043   9.102   5.921   5.490 -0.7851  0.2422 -0.1551
  690MOL0     C93044   9.242   5.949   5.438  0.2392 -0.3316 -0.4247
  690MOL0     O93045   9.304   6.058   5.488  0.5396 -0.9805 -0.4811
  690MOL0     C93046   9.432   6.090   5.447  0.9509 -0.4912 -0.6976
  690MOL0     C93047   9.535   6.000   5.483  0.0123  0.3196  0.5114
  690MOL0     C93048   9.666   6.038   5.443  0.0012  1.2570 -0.1245
  690MOL0     C93049   9.700   6.166   5.400  0.7524 -0.2932 -0.3899
  690MOL0     O93050   9.828   6.194   5.377  0.0973  0.2425  0.3728
  690MOL0     C93051   9.859   6.327   5.336 -0.8747 -0.1538  0.2675
  690MOL0     C93052  10.016   6.313   5.339  0.2975  0.6038 -0.2632
  690MOL0     C93053  10.055   6.231   5.215 -0.6934  1.4238  0.6199
  690MOL0     C93054  10.202   6.196   5.221  0.4509 -0.1471 -0.0964
  690MOL0     C93055  10.255   6.123   5.095  0.0053 -0.7765  0.2741
  690MOL0     C93056  10.397   6.091   5.093 -0.7632  0.4120 -0.1391
  690MOL0     C93057  10.438   5.971   5.184 -0.0015 -0.0773 -0.1345
  690MOL0     C93058  10.571   5.913   5.156  0.2968 -0.2810 -0.7799
  690MOL0    Cl93059  10.691   6.045   5.128 -0.0975 -0.2301 -0.1485
  690MOL0     C93060   9.595   6.254   5.380  0.4060  0.8768 -0.3355
  690MOL0     C93061   9.466   6.221   5.400  0.3770  0.6362  0.2012
  690MOL0     O93062   9.288   5.878   5.352 -0.3230  0.2031 -0.2601
  690MOL0     C93063   9.023   6.016   5.559 -0.8658  0.2241 -0.3508
  690MOL0     C93064   8.898   5.979   5.594  0.1585  0.6305 -0.5366
  690MOL0     N93065   8.580   5.806   6.149  0.2694  0.0025 -0.7459
  690MOL0     N93066   8.513   5.740   6.242 -0.0987  0.4882 -0.0620
  690MOL0     C93067   7.295   5.568   6.481 -0.3828 -1.0192 -0.1294
  690MOL0     C93068   7.159   5.594   6.436 -0.6984 -0.6117  0.4523
  690MOL0     C93069   6.783   5.808   6.388 -0.4265  0.8066 -0.5387
  690MOL0     C93070   6.734   5.732   6.279  0.5300 -0.1223 -0.5433
  690MOL0     C93071   6.595   5.726   6.250 -0.1222 -0.2451  0.0124
  690MOL0     C93072   6.506   5.781   6.333  0.3389 -0.1653  0.2576
  690MOL0     O93073   6.374   5.757   6.304 -0.0248  0.3736  0.3852
  690MOL0     C93074   6.281   5.793   6.399  0.3949 -0.4079 -0.9090
  690MOL0     C93075   6.136   5.797   6.346 -0.4249 -0.2801  0.6235
  690MOL0     C93076   6.117   5.910   6.244  0.4435  0.0781  0.0644
  690MOL0     C93077   5.990   5.899   6.161  0.1398 -1.2416 -0.2170
  690MOL0     C93078   5.867   5.940   6.239  0.1741  0.1065 -0.0392
  690MOL0     C93079   5.760   5.961   6.282  0.9084 -0.0223 -0.0717
  690MOL0     C93080   6.552   5.857   6.440 -0.2594 -0.8489  0.5944
  690MOL0     C93081   6.694   5.887   6.461  0.8592  1.0943 -0.2560
  690MOL0     C93082   6.725   5.989   6.567  0.0429  0.1102 -0.2769
  690MOL0     H93083   7.211   5.906   6.307  2.6401  0.9832  1.4276
  690MOL0     H93084   7.431   5.863   6.386 -1.6417  1.1709  1.1173
  690MOL0     H93085   7.548   5.465   6.590 -0.5294 -1.9567 -1.8252
  690MOL0     H93086   7.550   5.465   6.410 -3.0110 -1.2988  1.2694
  690MOL0     H93087   7.770   5.419   6.542 -1.5188 -0.8527  0.4937
  690MOL0     H93088   7.767   5.577   6.601  3.8356 -0.4031 -0.8226
  690MOL0     H93089   7.740   5.668   6.360 -0.3138  1.5101  1.2693
  690MOL0     H93090   7.767   5.498   6.303  0.8532 -0.0630 -0.5625
  690MOL0     H93091   7.980   5.647   6.476  0.2925 -0.4885 -0.3356
  690MOL0     H93092   8.002   5.488   6.410 -2.2139 -0.9591 -1.6612
  690MOL0     H93093   7.962   5.609   6.179  1.0353  0.2780 -0.9375
  690MOL0     H93094   8.025   5.745   6.274  3.6775 -0.0792  0.9207
  690MOL0     H93095   8.161   5.475   6.219  2.4772  1.0023  0.2591
  690MOL0     H93096   8.204   5.626   6.143  1.2726 -0.5708  0.5270
  690MOL0     H93097   8.365   5.547   6.329  0.1028  1.3123 -3.3789
  690MOL0     H93098   8.226   5.560   6.440  0.7055  1.0592  0.9955
  690MOL0     H93099   8.204   5.800   6.360 -0.9146 -1.8300 -3.1808
  690MOL0     H93100   8.349   5.764   6.462  1.8174 -0.9681 -0.8696
  690MOL0     H93101   8.303   5.981   6.157 -0.3281  0.1771  0.7149
  690MOL0     H93102   8.509   6.126   6.074 -0.3544  0.4301 -0.6773
  690MOL0     H93103   8.663   6.051   6.060 -0.2985 -1.1411 -0.9568
  690MOL0     H93104   8.434   5.982   5.869 -0.3084  1.1886 -1.3580
  690MOL0     H93105   8.552   6.115   5.853  2.1738 -0.8698 -2.4228
  690MOL0     H93106   8.639   5.819   5.872  2.7545  0.1730  1.0946
  690MOL0     H93107   8.739   5.959   5.841 -0.0221  0.9825 -1.9067
  690MOL0     H93108   8.626   5.983   5.619 -0.0813 -1.1512 -0.8867
  690MOL0     H93109   8.528   5.843   5.656  0.5787 -1.3357  0.9575
  690MOL0     H93110   8.905   5.652   5.511 -2.0635 -0.1064  0.7234
  690MOL0     H93111   9.116   5.713   5.432  3.3189  1.6337  0.5761
  690MOL0     H93112   9.506   5.901   5.517  2.1529 -0.0681  1.4081
  690MOL0     H93113   9.751   5.972   5.453  0.8801  2.5539  1.3512
  690MOL0     H93114   9.824   6.344   5.233  1.5231  1.0058 -0.4267
  690MOL0     H93115   9.816   6.404   5.400 -2.4784 -0.7470 -0.0471
  690MOL0     H93116  10.062   6.412   5.335 -1.9142  1.8518  1.8948
  690MOL0     H93117  10.046   6.261   5.430 -0.8123 -1.6819 -1.1323
  690MOL0     H93118  10.002   6.136   5.201  3.1124 -0.8381  0.0953
  690MOL0     H93119  10.036   6.293   5.126 -1.6891 -0.0987 -0.2868
  690MOL0     H93120  10.218   6.135   5.310  2.4611  0.7592  0.2201
  690MOL0     H93121  10.270   6.280   5.241  1.0665 -0.9573  1.4057
  690MOL0     H93122  10.237   6.190   5.011  2.2843  1.3071  1.3521
  690MOL0     H93123  10.192   6.034   5.083 -0.5199 -0.5305  1.0959
  690MOL0     H93124  10.419   6.074   4.987 -2.4940 -0.6036 -0.3753
  690MOL0     H93125  10.459   6.172   5.135  4.0510 -2.8549 -0.1434
  690MOL0     H93126  10.359   5.895   5.183  0.0519 -0.1314 -0.6120
  690MOL0     H93127  10.437   6.006   5.288  0.2214  4.7408 -1.5349
  690MOL0     H93128  10.599   5.853   5.243 -0.8111 -0.0651 -0.2521
  690MOL0     H93129  10.568   5.840   5.074  0.0712 -1.3069  0.1329
  690MOL0     H93130   9.614   6.349   5.332  0.4132  0.3739 -1.3658
  690MOL0     H93131   9.383   6.288   5.380 -2.2583 -2.6606 -1.1311
  690MOL0     H93132   9.058   6.116   5.580  0.7824 -0.0188 -1.8036
  690MOL0     H93133   8.840   6.062   5.631 -2.8717 -0.0396 -3.3139
  690MOL0     H93134   7.310   5.474   6.534 -2.7505 -1.7493 -0.6399
  690MOL0     H93135   7.071   5.535   6.460 -3.7227  3.0593 -0.6718
  690MOL0     H93136   6.804   5.676   6.219  0.0379 -0.4216 -0.8440
  690MOL0     H93137   6.560   5.664   6.169 -1.3532 -0.9574  1.0507
  690MOL0     H93138   6.300   5.887   6.452  0.6334 -1.7919  1.6512
  690MOL0     H93139   6.283   5.710   6.471  3.1292 -1.4661 -2.0601
  690MOL0     H93140   6.075   5.819   6.434  0.1180  1.5113  0.5869
  690MOL0     H93141   6.098   5.705   6.299 -0.5600  0.1542 -0.1396
  690MOL0     H93142   6.207   5.903   6.182  0.3615  1.4808 -0.2399
  690MOL0     H93143   6.100   6.004   6.298  0.8866  1.6172 -2.3427
  690MOL0     H93144   5.995   5.965   6.074  0.8583 -0.3581  0.4752
  690MOL0     H93145   5.984   5.799   6.117  1.6460 -0.5264 -2.1660
  690MOL0     H93146   5.654   5.978   6.290  0.5032 -0.3444 -3.4956
  690MOL0     H93147   6.488   5.916   6.505  1.4686  1.6696  0.1496
  690MOL0     H93148   6.641   6.058   6.579 -0.2518 -0.5880  2.6368
  690MOL0     H93149   6.743   5.930   6.658  2.6178  0.2704 -0.6115
  690MOL0     H93150   6.816   6.046   6.545  0.1274  0.3547  0.6515
  691MOL0     O93151   7.324   5.223   6.918  0.4484 -0.3539  0.0291
  691MOL0     C93152   7.327   5.343   6.895 -0.7192  0.7266  1.4824
  691MOL0     O93153   7.447   5.416   6.918  0.2638  0.4513  0.0242
  691MOL0     C93154   7.567   5.369   6.881  0.2426  1.0362  0.3488
  691MOL0     C93155   7.594   5.249   6.810 -0.2492  0.2925 -0.4495
  691MOL0     C93156   7.724   5.227   6.770  0.1923  0.5680 -0.0823
  691MOL0     C93157   7.834   5.306   6.806 -0.7044  0.6645  0.6579
  691MOL0     O93158   7.965   5.271   6.775 -0.3244 -0.2911  0.4003
  691MOL0     C93159   8.058   5.278   6.889  0.1353  0.9580 -0.3476
  691MOL0     C93160   8.202   5.237   6.849  0.3184  0.3528 -0.5327
  691MOL0     C93161   8.249   5.350   6.757  0.1541  0.0460 -0.3344
  691MOL0     C93162   8.398   5.337   6.730  0.4454  0.0180  0.5385
  691MOL0     C93163   8.429   5.410   6.599 -0.7835  1.1259  0.0171
  691MOL0     C93164   8.579   5.412   6.585  1.2198  0.3291  0.0033
  691MOL0     C93165   8.622   5.434   6.435 -0.2337  0.2806  0.1887
  691MOL0     C93166   8.770   5.409   6.405 -0.3420 -0.0117  0.3041
  691MOL0     N93167   8.807   5.443   6.263  0.5077  0.2303  0.1148
  691MOL0     C93168   8.791   5.565   6.199  0.2541 -0.1835  0.0474
  691MOL0     C93169   8.864   5.558   6.087  0.0181  0.0650  1.0102
  691MOL0     C93170   8.884   5.666   5.978  0.2870  0.2682  0.2002
  691MOL0     C93171   9.029   5.707   5.974  0.4939 -0.2022  0.4235
  691MOL0     C93172   9.059   5.817   5.868  0.2922 -0.0590 -0.5476
  691MOL0     C93173   9.201   5.852   5.841 -0.5835 -0.0476  0.3233
  691MOL0     O93174   9.261   5.889   5.964 -0.0235  0.2384  0.2880
  691MOL0     C93175   9.390   5.900   5.973 -0.8416 -0.6027 -0.0293
  691MOL0     C93176   9.460   5.874   6.089  0.9508  0.7516 -0.0691
  691MOL0     C93177   9.609   5.872   6.103  0.9474  0.0621  0.9940
  691MOL0     C93178   9.685   5.904   5.987 -0.3334 -0.2229 -0.2732
  691MOL0     C93179   9.828   5.905   5.985 -0.4239  0.6398 -1.2103
  691MOL0     O93180   9.892   5.891   6.107 -0.0867  0.5503  0.5321
  691MOL0     C93181  10.030   5.885   6.109  0.2969 -0.5249 -0.6443
  691MOL0     C93182  10.106   5.992   6.076 -0.8927  0.0415  0.0145
  691MOL0     C93183  10.244   5.991   6.098  0.1764 -0.4819 -0.5601
  691MOL0     C93184  10.308   5.880   6.145  0.0742 -0.7385  0.4844
  691MOL0     O93185  10.442   5.870   6.169 -1.0056  0.2567  0.0379
  691MOL0     C93186  10.537   5.962   6.113 -0.4081 -0.7655  0.8178
  691MOL0     C93187  10.676   5.911   6.157  0.6397 -0.6890 -0.3093
  691MOL0     C93188  10.778   5.895   6.043  0.1935  0.3344 -1.1480
  691MOL0     C93189  10.913   5.922   6.102  0.1117 -0.4248  0.4647
  691MOL0     C93190  11.032   5.876   6.019 -1.0499  0.6088 -0.0181
  691MOL0     C93191  11.043   5.964   5.895 -0.1727  0.6195 -1.3512
  691MOL0     C93192  11.161   5.908   5.818 -0.2515  0.1824 -0.1593
  691MOL0     C93193  11.163   5.993   5.691  1.0247  0.4008 -0.3028
  691MOL0    Cl93194  11.237   6.156   5.716  0.0605 -0.6868  0.1267
  691MOL0     C93195  10.229   5.770   6.180 -0.1568 -0.1927 -0.2822
  691MOL0     C93196  10.093   5.769   6.171  0.4781  0.3842  0.5190
  691MOL0     O93197   9.886   5.916   5.878  0.0618  0.0255  0.1393
  691MOL0     C93198   9.616   5.933   5.872  0.6957  0.5529 -0.3347
  691MOL0     C93199   9.474   5.919   5.859  0.6430  0.2999  0.5286
  691MOL0     N93200   8.917   5.425   6.084  0.1000  0.0901 -0.4155
  691MOL0     N93201   8.875   5.360   6.184 -0.1158  0.6666 -0.2365
  691MOL0     C93202   7.810   5.410   6.889 -0.4472  0.0191  0.2203
  691MOL0     C93203   7.680   5.445   6.920  0.6345  0.9464 -0.1453
  691MOL0     C93204   7.201   5.415   6.882  0.7477  0.6363  0.6896
  691MOL0     C93205   7.086   5.336   6.906 -0.1932 -0.2099 -0.3262
  691MOL0     C93206   6.958   5.392   6.897  0.1104  0.0854  0.7652
  691MOL0     C93207   6.940   5.519   6.840  0.2577  0.2091  0.2797
  691MOL0     O93208   6.810   5.546   6.820  0.2218 -0.2718  0.3265
  691MOL0     C93209   6.790   5.582   6.683 -0.6870  0.9005 -0.5747
  691MOL0     C93210   6.641   5.563   6.651 -0.3377 -0.1584 -1.0044
  691MOL0     C93211   6.578   5.428   6.671  0.4087 -0.4775  0.0042
  691MOL0     C93212   6.455   5.434   6.764 -0.5115 -0.5639 -0.5972
  691MOL0     C93213   6.333   5.442   6.688 -0.1212 -0.0537  0.1882
  691MOL0     C93214   6.221   5.451   6.633  0.2952  0.1836 -0.7456
  691MOL0     C93215   7.048   5.602   6.812 -0.3974 -0.1572 -0.2629
  691MOL0     C93216   7.187   5.549   6.838  1.1726 -0.3837  0.0793
  691MOL0     C93217   7.297   5.640   6.807  0.2676  0.2191  0.5718
  691MOL0     H93218   7.513   5.191   6.769 -1.1617  0.5849  0.8849
  691MOL0     H93219   7.746   5.136   6.715  0.6493  1.1759 -0.9311
  691MOL0     H93220   8.064   5.373   6.943 -1.5252 -0.4186  2.4789
  691MOL0     H93221   8.019   5.200   6.955 -0.4858  1.3490 -0.2474
  691MOL0     H93222   8.209   5.138   6.804  1.1729 -0.1713  0.6785
  691MOL0     H93223   8.264   5.243   6.940 -2.1051  3.9043  1.1237
  691MOL0     H93224   8.225   5.451   6.790 -0.8863  0.6206 -2.6219
  691MOL0     H93225   8.202   5.330   6.660 -1.9628 -1.4305  0.9098
  691MOL0     H93226   8.465   5.374   6.809 -0.7124  1.6557  0.8049
  691MOL0     H93227   8.421   5.230   6.722 -2.6245 -0.5767 -2.1764
  691MOL0     H93228   8.394   5.350   6.515 -1.2320  2.0863 -0.4920
  691MOL0     H93229   8.386   5.510   6.593 -1.0136  1.1077  1.1313
  691MOL0     H93230   8.607   5.495   6.650 -0.2956 -0.0450  1.2041
  691MOL0     H93231   8.624   5.321   6.627  1.1965  0.5271  0.4636
  691MOL0     H93232   8.595   5.536   6.407  2.1457  1.0315  0.4112
  691MOL0     H93233   8.560   5.362   6.380  1.0050 -0.8635  0.2251
  691MOL0     H93234   8.831   5.475   6.468 -0.5497  1.5431 -1.0435
  691MOL0     H93235   8.806   5.307   6.416  1.9525  0.6099 -0.8133
  691MOL0     H93236   8.728   5.644   6.238  1.2020  0.4868  0.2647
  691MOL0     H93237   8.848   5.629   5.882 -0.4870 -2.3543  1.3856
  691MOL0     H93238   8.830   5.760   5.988  0.2955  0.3620 -0.5798
  691MOL0     H93239   9.070   5.734   6.072  2.4682 -0.1985 -0.3534
  691MOL0     H93240   9.088   5.618   5.950  0.2017  0.3283 -2.5898
  691MOL0     H93241   9.007   5.909   5.896  0.6189  1.1574 -3.6155
  691MOL0     H93242   9.019   5.803   5.768  0.4712  1.1465 -0.7935
  691MOL0     H93243   9.217   5.938   5.775  1.6581 -0.1077  0.6960
  691MOL0     H93244   9.260   5.770   5.798  0.6914  0.5875  0.8106
  691MOL0     H93245   9.407   5.862   6.183  1.1509  2.3297  0.2672
  691MOL0     H93246   9.653   5.852   6.199 -1.9222  1.7818  2.8132
  691MOL0     H93247  10.072   6.091   6.047  1.2381  2.3061  4.3364
  691MOL0     H93248  10.309   6.074   6.074  2.1653 -1.9403 -0.4600
  691MOL0     H93249  10.525   5.960   6.005  2.2338  1.0929  0.3857
  691MOL0     H93250  10.521   6.067   6.137  1.5417  0.4127 -2.4037
  691MOL0     H93251  10.708   5.991   6.225 -1.9508 -0.2083  0.4427
  691MOL0     H93252  10.660   5.820   6.215 -0.3556  0.4916  1.3798
  691MOL0     H93253  10.768   5.796   5.998 -2.5295  0.8342 -1.8247
  691MOL0     H93254  10.768   5.967   5.961  1.8154  0.4678 -1.2608
  691MOL0     H93255  10.915   5.869   6.198  2.7073 -1.0743  0.1323
  691MOL0     H93256  10.923   6.029   6.123 -0.5686 -0.5991  1.8026
  691MOL0     H93257  11.030   5.768   6.002  0.2728  0.2656  1.6766
  691MOL0     H93258  11.121   5.900   6.078 -0.8039 -0.2119 -0.0477
  691MOL0     H93259  10.954   5.954   5.832 -0.2720 -1.3597 -0.9555
  691MOL0     H93260  11.069   6.066   5.923  3.1978 -0.2373 -0.9654
  691MOL0     H93261  11.142   5.805   5.788  1.0845 -0.9872  2.6494
  691MOL0     H93262  11.257   5.922   5.870 -0.3317  0.3697 -0.0615
  691MOL0     H93263  11.233   5.945   5.623  1.1898 -1.7506  1.2868
  691MOL0     H93264  11.064   6.003   5.647  1.4725  1.7046 -1.0823
  691MOL0     H93265  10.269   5.683   6.231  0.9804 -0.1247 -1.0140
  691MOL0     H93266  10.032   5.682   6.194 -1.3332  1.6943  0.9689
  691MOL0     H93267   9.668   5.961   5.782 -1.3486 -1.7599 -2.4161
  691MOL0     H93268   9.439   5.946   5.760  4.5174  3.2267 -0.2854
  691MOL0     H93269   7.888   5.477   6.923  0.3804 -1.7917  2.1470
  691MOL0     H93270   7.663   5.543   6.965 -2.8209  0.7594 -0.7996
  691MOL0     H93271   7.091   5.239   6.954  0.1060 -0.1267 -0.1892
  691MOL0     H93272   6.872   5.332   6.925 -0.3164 -0.7370 -1.9907
  691MOL0     H93273   6.851   5.529   6.609  0.5984  0.7394  0.5566
  691MOL0     H93274   6.824   5.685   6.664  1.8070  0.7753  2.3794
  691MOL0     H93275   6.613   5.597   6.551 -3.7914  1.0658  0.2421
  691MOL0     H93276   6.595   5.639   6.715 -1.1264 -0.6891 -0.9229
  691MOL0     H93277   6.653   5.355   6.704  0.8276 -0.6523 -1.2829
  691MOL0     H93278   6.547   5.390   6.574 -0.6700  2.3581 -0.8530
  691MOL0     H93279   6.450   5.342   6.824  2.4862 -0.5977 -0.2060
  691MOL0     H93280   6.462   5.510   6.842 -0.6911  0.2377 -1.3525
  691MOL0     H93281   6.132   5.477   6.579  1.7096  1.3958 -2.6199
  691MOL0     H93282   7.028   5.702   6.774  0.6711  0.7274  1.4058
  691MOL0     H93283   7.385   5.594   6.764  0.0700  0.0150  0.3866
  691MOL0     H93284   7.261   5.714   6.735 -0.0714 -2.2084 -1.9140
  691MOL0     H93285   7.311   5.693   6.902 -0.6479 -1.1993  1.5451
  692MOL0     O93286   1.209   8.787   8.599 -0.0830 -0.5513  0.5370
  692MOL0     C93287   1.157   8.756   8.489 -0.0256  1.1618  0.5296
  692MOL0     O93288   1.226   8.693   8.375  0.1825  0.2910 -0.0842
  692MOL0     C93289   1.365   8.670   8.362 -0.0812 -0.3289  0.7444
  692MOL0     C93290   1.464   8.675   8.461  0.3079  0.1504 -0.6417
  692MOL0     C93291   1.590   8.624   8.454  0.7285  0.0632 -0.1597
  692MOL0     C93292   1.631   8.559   8.339 -0.2496 -0.5030 -0.9864
  692MOL0     O93293   1.743   8.480   8.330  0.3820 -0.3477  0.2734
  692MOL0     C93294   1.838   8.489   8.440 -0.0293  0.0630 -0.3817
  692MOL0     C93295   1.961   8.413   8.399  0.2703 -0.1189  0.2502
  692MOL0     C93296   2.037   8.378   8.532  0.3485  0.3517 -0.2362
  692MOL0     C93297   2.186   8.355   8.509 -0.1259  0.7433 -0.7155
  692MOL0     C93298   2.253   8.254   8.604  0.4831  0.4296  0.1543
  692MOL0     C93299   2.402   8.244   8.569  0.1809 -0.0433 -0.2225
  692MOL0     C93300   2.473   8.174   8.684  0.8337  0.5064 -0.0417
  692MOL0     C93301   2.625   8.152   8.674  0.3746  0.8174 -0.4592
  692MOL0     N93302   2.641   8.043   8.573  0.2523  0.4839  0.4802
  692MOL0     C93303   2.604   7.920   8.602  0.4927 -0.4341  0.3840
  692MOL0     C93304   2.612   7.852   8.485 -0.3025 -0.1412  0.3343
  692MOL0     C93305   2.572   7.708   8.450  0.1132  0.2299  0.3325
  692MOL0     C93306   2.686   7.620   8.416 -0.4925  0.0607 -0.1877
  692MOL0     C93307   2.778   7.587   8.535 -0.1116  0.3837  0.0143
  692MOL0     C93308   2.928   7.590   8.502 -0.4889  0.4793 -0.0174
  692MOL0     O93309   2.988   7.718   8.529  0.6072  0.4625 -0.2154
  692MOL0     C93310   3.120   7.745   8.518  0.4347 -0.4243 -0.4536
  692MOL0     C93311   3.223   7.648   8.489 -0.4204 -0.0903 -0.0706
  692MOL0     C93312   3.361   7.690   8.474 -0.1820  0.5222 -0.1454
  692MOL0     C93313   3.398   7.822   8.493  0.1215 -0.6285 -0.3632
  692MOL0     C93314   3.528   7.869   8.485 -1.3437 -0.1502 -0.0003
  692MOL0     O93315   3.609   7.774   8.433 -0.4993  0.0536  0.5581
  692MOL0     C93316   3.746   7.803   8.432  0.9912  0.3080  0.4608
  692MOL0     C93317   3.817   7.818   8.313 -0.2253  0.7787 -0.2349
  692MOL0     C93318   3.954   7.831   8.324 -0.5576  0.6750  0.3677
  692MOL0     C93319   4.019   7.831   8.448 -0.2904  0.8828  0.8078
  692MOL0     O93320   4.157   7.831   8.451 -0.7288  1.0333  0.3277
  692MOL0     C93321   4.230   7.868   8.565 -0.5074 -0.1124  0.5100
  692MOL0     C93322   4.384   7.860   8.534 -0.0459  0.1745 -0.5269
  692MOL0     C93323   4.443   7.736   8.458 -0.2019  0.2628 -0.4945
  692MOL0     C93324   4.594   7.749   8.437 -0.1279 -0.2335  0.6745
  692MOL0     C93325   4.631   7.631   8.337 -0.4262  0.8544  1.0091
  692MOL0     C93326   4.771   7.639   8.284 -0.3145 -0.0887 -0.7398
  692MOL0     C93327   4.884   7.646   8.386 -0.0787  0.4594  1.5064
  692MOL0     C93328   5.019   7.616   8.317 -0.2714  0.2116 -0.3038
  692MOL0    Cl93329   5.139   7.593   8.443  0.0477  0.1654 -0.1371
  692MOL0     C93330   3.945   7.829   8.560  0.2393 -0.1359  0.3531
  692MOL0     C93331   3.811   7.812   8.553 -0.0194 -0.0745  0.2669
  692MOL0     O93332   3.559   7.977   8.531  0.3106  0.0474 -0.4102
  692MOL0     C93333   3.287   7.911   8.511 -1.2187  0.7036  0.3304
  692MOL0     C93334   3.154   7.880   8.530  0.0168 -0.1416 -0.3130
  692MOL0     N93335   2.655   7.940   8.386 -0.7697 -0.3403  0.0485
  692MOL0     N93336   2.684   8.058   8.439 -0.1844  0.0604 -0.0894
  692MOL0     C93337   1.542   8.557   8.240  1.0125  0.4901  0.5527
  692MOL0     C93338   1.409   8.610   8.244  0.4521 -1.0556  0.0514
  692MOL0     C93339   1.011   8.781   8.475 -1.1528  0.7108  0.7366
  692MOL0     C93340   0.928   8.663   8.461 -0.1389 -0.4309  0.6204
  692MOL0     C93341   0.788   8.679   8.466  0.4637  0.3122 -0.0731
  692MOL0     C93342   0.726   8.803   8.476 -0.3968 -0.2770  0.3853
  692MOL0     O93343   0.594   8.843   8.461 -0.0741 -0.0123 -0.2453
  692MOL0     C93344   0.499   8.746   8.408 -0.2229  0.8596 -0.2779
  692MOL0     C93345   0.356   8.793   8.440  0.5272  0.5693 -0.2236
  692MOL0     C93346   0.333   8.792   8.595 -0.2847  0.2321  0.0967
  692MOL0     C93347   0.205   8.863   8.633  0.6518  0.3958  0.2492
  692MOL0     C93348   0.165   8.836   8.770 -0.8732  1.1240 -0.1606
  692MOL0     C93349   0.145   8.822   8.891 -1.1618  0.5551  0.6838
  692MOL0     C93350   0.809   8.918   8.481  0.4473 -0.7405 -0.3358
  692MOL0     C93351   0.950   8.909   8.477  0.4405  0.3110  0.0127
  692MOL0     C93352   1.038   9.035   8.486  0.4721  0.2011 -0.6776
  692MOL0     H93353   1.437   8.708   8.561 -0.3393  0.1926 -0.8234
  692MOL0     H93354   1.646   8.633   8.547  1.8151 -1.5606 -0.6071
  692MOL0     H93355   1.864   8.595   8.450  1.9727 -0.6175  3.9368
  692MOL0     H93356   1.811   8.455   8.540  2.4147 -0.1506  0.2728
  692MOL0     H93357   2.016   8.479   8.332 -1.9514  2.0491  0.4201
  692MOL0     H93358   1.934   8.317   8.352 -0.6403 -0.3692  1.2340
  692MOL0     H93359   1.995   8.290   8.581  2.8476  0.4228  2.2801
  692MOL0     H93360   2.024   8.461   8.602  2.1361 -0.2313  0.8263
  692MOL0     H93361   2.199   8.314   8.408  0.0252 -1.9024  0.3254
  692MOL0     H93362   2.233   8.454   8.507 -2.9300  2.1802 -1.9240
  692MOL0     H93363   2.239   8.276   8.710  1.7250  0.4310  0.3394
  692MOL0     H93364   2.209   8.156   8.586  2.2245  0.0567 -2.6879
  692MOL0     H93365   2.410   8.190   8.474  2.1839 -0.9260  0.3824
  692MOL0     H93366   2.435   8.348   8.556 -0.9701  1.0248  4.0457
  692MOL0     H93367   2.420   8.080   8.703  0.6081  0.2359 -1.8311
  692MOL0     H93368   2.454   8.242   8.767 -1.4803  0.3327 -0.3607
  692MOL0     H93369   2.682   8.242   8.651  1.8198 -0.5746 -2.7540
  692MOL0     H93370   2.665   8.109   8.767  3.8344  0.2017 -2.0476
  692MOL0     H93371   2.566   7.878   8.695  0.7641  0.0395  0.7137
  692MOL0     H93372   2.510   7.675   8.534  2.2422  0.4118  2.0629
  692MOL0     H93373   2.504   7.708   8.365 -0.1444  1.0626  0.5319
  692MOL0     H93374   2.654   7.519   8.386  0.2922 -0.2223 -0.0866
  692MOL0     H93375   2.740   7.672   8.337 -1.0967 -0.4174 -0.9403
  692MOL0     H93376   2.750   7.483   8.557 -0.9697  0.6729  0.3082
  692MOL0     H93377   2.744   7.644   8.622  0.4600 -0.0492  0.5370
  692MOL0     H93378   2.936   7.584   8.393 -0.6693 -2.6332  0.0697
  692MOL0     H93379   2.980   7.505   8.546  1.8091  2.1519  0.6983
  692MOL0     H93380   3.192   7.549   8.458 -2.1389  0.3428  0.1355
  692MOL0     H93381   3.428   7.615   8.434  0.0549  0.5645  0.1681
  692MOL0     H93382   3.765   7.806   8.218 -3.0596  0.2278  1.2508
  692MOL0     H93383   4.014   7.827   8.233  1.1006  0.9002  1.4098
  692MOL0     H93384   4.201   7.964   8.606 -3.2158  0.2659 -1.9554
  692MOL0     H93385   4.221   7.782   8.632  1.3056 -3.0415 -2.6434
  692MOL0     H93386   4.415   7.948   8.476  0.3600  1.2779  1.2768
  692MOL0     H93387   4.439   7.870   8.628  0.0594  1.7994 -0.7306
  692MOL0     H93388   4.414   7.646   8.513  1.2849 -1.6985 -2.7131
  692MOL0     H93389   4.393   7.709   8.364 -0.4907 -2.1330  0.2806
  692MOL0     H93390   4.655   7.742   8.527  1.1541 -0.8023 -0.1985
  692MOL0     H93391   4.613   7.844   8.386 -0.4775 -0.2062  0.5909
  692MOL0     H93392   4.559   7.635   8.255 -0.4323  0.7372  1.0095
  692MOL0     H93393   4.622   7.536   8.390  1.8072 -0.6918 -1.1777
  692MOL0     H93394   4.797   7.559   8.214 -0.6659 -0.1753 -0.7737
  692MOL0     H93395   4.792   7.728   8.224  0.0345 -0.2020 -0.7921
  692MOL0     H93396   4.870   7.561   8.453  1.4666 -2.7191 -1.8018
  692MOL0     H93397   4.884   7.739   8.443  1.9434 -0.8540  3.8415
  692MOL0     H93398   5.018   7.520   8.264  1.6490  0.3456 -0.6412
  692MOL0     H93399   5.046   7.699   8.251 -0.9765  0.1289 -0.7039
  692MOL0     H93400   3.981   7.829   8.662 -1.2457 -2.2047  0.9348
  692MOL0     H93401   3.754   7.790   8.642  1.8395  0.1290  1.5619
  692MOL0     H93402   3.310   8.017   8.514 -1.0604  0.7395 -1.2710
  692MOL0     H93403   3.070   7.945   8.552  1.2941  0.9815  1.5282
  692MOL0     H93404   1.580   8.516   8.147  0.8991  0.3913  0.5478
  692MOL0     H93405   1.347   8.611   8.155  0.2881  2.5103  0.0670
  692MOL0     H93406   0.979   8.568   8.448 -1.4118 -0.9979 -0.3841
  692MOL0     H93407   0.729   8.587   8.467  1.0242 -0.0473  1.0440
  692MOL0     H93408   0.519   8.655   8.464 -1.3192  0.2636 -0.8152
  692MOL0     H93409   0.512   8.720   8.302  1.4176 -0.9081  0.3139
  692MOL0     H93410   0.283   8.729   8.390  0.5190  1.4353 -1.3648
  692MOL0     H93411   0.347   8.896   8.404  0.8904  0.6164 -0.1867
  692MOL0     H93412   0.415   8.842   8.648 -1.0682  1.5805  0.0799
  692MOL0     H93413   0.323   8.687   8.625  0.5595 -0.5906 -2.2835
  692MOL0     H93414   0.209   8.970   8.613  1.1682  0.3561  0.1152
  692MOL0     H93415   0.124   8.828   8.568  2.0892 -0.8330 -0.9627
  692MOL0     H93416   0.116   8.816   8.994 -0.0568  0.4344  0.9921
  692MOL0     H93417   0.767   9.018   8.484  1.9406 -0.0297 -1.2690
  692MOL0     H93418   1.107   9.033   8.571  0.5681  0.1702 -0.7560
  692MOL0     H93419   1.111   9.034   8.404  1.8791 -0.0407  0.5348
  692MOL0     H93420   0.973   9.123   8.483 -2.3250 -1.7516 -1.2277
  693MOL0     O93421   9.308   0.140   1.028 -1.2695  0.0825 -0.3628
  693MOL0     C93422   9.331   0.076   1.134 -0.2113 -0.2534  0.6429
  693MOL0     O93423   9.420   0.116   1.232 -0.4888 -0.8758  0.1506
  693MOL0     C93424   9.529   0.191   1.197  0.8812 -0.0179  0.1655
  693MOL0     C93425   9.585   0.192   1.064  0.2826  0.5417 -0.2717
  693MOL0     C93426   9.691   0.287   1.031 -0.1797  0.1651  0.0829
  693MOL0     C93427   9.729   0.379   1.132  0.8364 -0.1962 -0.4811
  693MOL0     O93428   9.837   0.470   1.137  0.1442 -0.1451 -0.2617
  693MOL0     C93429   9.909   0.505   1.018  0.1342  0.9381  0.3542
  693MOL0     C93430  10.011   0.613   1.055  0.3179  0.0028 -0.5694
  693MOL0     C93431  10.133   0.615   0.961 -0.3747 -0.4442  0.4030
  693MOL0     C93432  10.259   0.672   1.021 -0.6178 -0.3917  0.5568
  693MOL0     C93433  10.351   0.720   0.903  0.2323  0.6812  0.4946
  693MOL0     C93434  10.473   0.788   0.964 -0.3575 -0.5464 -0.0598
  693MOL0     C93435  10.554   0.867   0.857 -0.6779  0.2808 -0.0586
  693MOL0     C93436  10.682   0.922   0.922  0.6522  0.1652 -0.0935
  693MOL0     N93437  10.763   1.009   0.837  0.0875 -0.0508 -0.5342
  693MOL0     C93438  10.820   0.953   0.727  0.0303 -0.2852 -0.5190
  693MOL0     C93439  10.921   1.032   0.691 -0.8224 -0.8523  0.1800
  693MOL0     C93440  11.023   1.007   0.575  0.1170 -0.0918  0.2072
  693MOL0     C93441  11.017   1.126   0.481  0.5743 -0.0728 -0.0198
  693MOL0     C93442  11.113   1.110   0.363 -0.5176 -0.1182 -0.3470
  693MOL0     C93443  11.256   1.121   0.408 -0.0799  0.0929 -0.4302
  693MOL0     O93444  11.345   1.080   0.307  0.2398 -0.2067  0.5052
  693MOL0     C93445  11.468   1.140   0.295  0.2332  0.3824 -0.1524
  693MOL0     C93446  11.552   1.080   0.199  0.9094 -0.8079  0.6004
  693MOL0     C93447  11.679   1.133   0.169  0.2754 -0.5464  1.0422
  693MOL0     C93448  11.739   1.238   0.238  1.0459  0.1496  0.8052
  693MOL0     C93449  11.880   1.285   0.212  0.2510 -0.2001 -0.1129
  693MOL0     O93450  11.964   1.229   0.117  0.1613  0.6627 -1.2100
  693MOL0     C93451  12.080   1.294   0.084 -0.6662 -0.1020 -0.8628
  693MOL0     C93452  12.066   1.392  -0.021  0.1999  0.2197  0.6481
  693MOL0     C93453  12.176   1.469  -0.068  0.0907 -0.3449 -0.1008
  693MOL0     C93454  12.305   1.440  -0.020  0.0690  0.5653  0.0780
  693MOL0     O93455  12.416   1.494  -0.070  0.2298 -0.5832 -0.7114
  693MOL0     C93456  12.422   1.488  -0.209  0.5827  0.3393 -0.3424
  693MOL0     C93457  12.569   1.514  -0.248 -0.0642  0.3064  0.0839
  693MOL0     C93458  12.664   1.389  -0.238 -0.5405  0.3815  0.1755
  693MOL0     C93459  12.631   1.282  -0.132 -0.7700  0.5893  1.1086
  693MOL0     C93460  12.740   1.172  -0.129 -0.0747  0.5850  0.2583
  693MOL0     C93461  12.888   1.231  -0.133  1.0947  0.7490  0.0256
  693MOL0     C93462  12.988   1.122  -0.105 -0.0161  0.4530  0.3593
  693MOL0     C93463  13.126   1.180  -0.092  0.6244 -0.7825  0.4807
  693MOL0    Cl93464  13.145   1.266   0.073 -0.1577  0.0093 -0.4560
  693MOL0     C93465  12.314   1.348   0.093 -0.7105 -0.3888  0.4869
  693MOL0     C93466  12.208   1.266   0.137  0.4287  0.3292 -0.6016
  693MOL0     O93467  11.904   1.391   0.267 -0.3093 -0.4076  1.0298
  693MOL0     C93468  11.660   1.283   0.342  1.5502 -0.5300  0.5698
  693MOL0     C93469  11.522   1.240   0.372  0.6355 -0.4851  0.2048
  693MOL0     N93470  10.928   1.136   0.778 -0.5632 -0.3719 -0.8558
  693MOL0     N93471  10.825   1.128   0.859 -0.0785 -0.0087 -0.5709
  693MOL0     C93472   9.671   0.373   1.259  0.2376 -0.3598 -0.5529
  693MOL0     C93473   9.577   0.275   1.293 -0.2031 -0.3628  0.7005
  693MOL0     C93474   9.251  -0.042   1.160  0.0190  0.3061  0.1421
  693MOL0     C93475   9.132  -0.060   1.094 -0.1529 -0.3217  0.2826
  693MOL0     C93476   9.049  -0.168   1.111 -0.9265 -0.5527 -0.6517
  693MOL0     C93477   9.086  -0.274   1.200  0.1259 -0.6485 -1.2264
  693MOL0     O93478   9.008  -0.387   1.224  0.3091 -0.2271  0.8052
  693MOL0     C93479   8.877  -0.394   1.172  0.0098  0.4385 -0.7817
  693MOL0     C93480   8.777  -0.329   1.268  0.2254  0.2670  0.4629
  693MOL0     C93481   8.803  -0.377   1.420  0.1176 -0.2237  0.8461
  693MOL0     C93482   8.716  -0.307   1.525  0.3636 -0.9933 -0.5054
  693MOL0     C93483   8.572  -0.303   1.502  0.2454 -0.4141 -0.1538
  693MOL0     C93484   8.450  -0.306   1.468 -0.3352  0.2457 -0.5330
  693MOL0     C93485   9.210  -0.260   1.265  0.4483  0.9949  0.3384
  693MOL0     C93486   9.292  -0.151   1.247 -0.9112 -0.2166  0.2601
  693MOL0     C93487   9.424  -0.147   1.317 -0.6272  1.0240 -0.0707
  693MOL0     H93488   9.546   0.134   0.981  0.9023  2.8970 -2.3141
  693MOL0     H93489   9.724   0.283   0.928  0.8307  0.8161  0.3711
  693MOL0     H93490   9.958   0.418   0.975  1.2495  3.3099 -3.7552
  693MOL0     H93491   9.841   0.547   0.943 -1.5986  0.2629  1.4964
  693MOL0     H93492  10.043   0.584   1.155 -1.6032  0.5868  0.2554
  693MOL0     H93493   9.965   0.711   1.072 -0.0756 -0.3906  0.7694
  693MOL0     H93494  10.104   0.682   0.880  0.6117 -1.4098 -0.7985
  693MOL0     H93495  10.148   0.519   0.909 -2.4681 -0.6483  0.0888
  693MOL0     H93496  10.228   0.759   1.080  0.6056 -0.3624  1.1877
  693MOL0     H93497  10.313   0.610   1.093  0.0936  1.4048  1.6669
  693MOL0     H93498  10.386   0.631   0.849  0.9634 -1.3994  4.0596
  693MOL0     H93499  10.287   0.777   0.835 -0.3904 -0.6616 -0.1036
  693MOL0     H93500  10.436   0.857   1.041 -0.1058  3.8119 -3.4287
  693MOL0     H93501  10.549   0.717   0.998  0.5367  1.5210  2.5931
  693MOL0     H93502  10.492   0.950   0.821 -1.1180 -0.3251 -0.7267
  693MOL0     H93503  10.582   0.804   0.772 -1.9082  1.3437 -1.2937
  693MOL0     H93504  10.648   0.968   1.015  1.1945 -0.7729  0.5824
  693MOL0     H93505  10.751   0.842   0.951  1.7038  1.0935  0.0248
  693MOL0     H93506  10.785   0.864   0.676 -0.1286  0.2193 -1.3132
  693MOL0     H93507  11.124   1.005   0.619  1.6260  2.5550 -2.7456
  693MOL0     H93508  10.995   0.914   0.526  0.1016 -0.1707  0.3634
  693MOL0     H93509  10.914   1.136   0.444 -1.4472 -3.2369  4.0240
  693MOL0     H93510  11.049   1.216   0.533 -1.6192 -0.4113  2.0709
  693MOL0     H93511  11.100   1.200   0.303 -0.1913  0.0244 -0.2076
  693MOL0     H93512  11.094   1.026   0.295 -0.0276  1.0063 -1.9049
  693MOL0     H93513  11.278   1.063   0.498  1.1047 -1.2758 -1.5517
  693MOL0     H93514  11.272   1.221   0.448 -1.5067 -0.9580  3.2294
  693MOL0     H93515  11.509   1.001   0.138  0.1169  0.9378 -1.2438
  693MOL0     H93516  11.727   1.082   0.086  2.1396 -0.1635  1.8255
  693MOL0     H93517  11.969   1.398  -0.068 -1.0445 -4.3103  2.1626
  693MOL0     H93518  12.166   1.530  -0.157 -1.3848  1.2185  1.0859
  693MOL0     H93519  12.387   1.394  -0.254 -1.1217 -0.9307  3.2348
  693MOL0     H93520  12.363   1.566  -0.258  0.2562  1.0286  1.1191
  693MOL0     H93521  12.572   1.542  -0.354  0.8957  2.1659  0.5700
  693MOL0     H93522  12.606   1.600  -0.193 -2.0517  1.2005  0.0937
  693MOL0     H93523  12.660   1.335  -0.333 -2.5565  1.1018 -0.1929
  693MOL0     H93524  12.765   1.431  -0.227 -1.9060  3.5979  1.7640
  693MOL0     H93525  12.543   1.226  -0.165  0.2242 -0.5745  0.3384
  693MOL0     H93526  12.612   1.325  -0.033 -0.1187  2.3737  0.4988
  693MOL0     H93527  12.718   1.108  -0.215 -0.6799  3.2650 -1.7164
  693MOL0     H93528  12.726   1.105  -0.044  0.9505  0.8794  0.6739
  693MOL0     H93529  12.901   1.271  -0.234  1.4081 -1.9654 -1.0968
  693MOL0     H93530  12.886   1.308  -0.056  0.7006 -0.9118  1.7750
  693MOL0     H93531  12.986   1.052  -0.189  4.3885  0.0982  0.3194
  693MOL0     H93532  12.960   1.064  -0.017 -0.5213  1.9571  1.2209
  693MOL0     H93533  13.197   1.100  -0.112 -0.2733 -0.7980 -3.4735
  693MOL0     H93534  13.144   1.252  -0.173 -0.3239 -0.3827  0.6095
  693MOL0     H93535  12.413   1.317   0.125 -1.2397 -2.3787  0.3308
  693MOL0     H93536  12.206   1.193   0.218 -0.5343 -0.4347 -1.3007
  693MOL0     H93537  11.695   1.369   0.399 -0.5493 -1.0541  2.8601
  693MOL0     H93538  11.469   1.284   0.457  2.0946  0.5492  0.6296
  693MOL0     H93539   9.696   0.437   1.343  1.5633 -1.1716 -0.2995
  693MOL0     H93540   9.521   0.275   1.386 -0.2401  0.8899  0.6908
  693MOL0     H93541   9.097   0.017   1.026 -0.6221 -1.4436 -0.7993
  693MOL0     H93542   8.955  -0.153   1.058 -2.1942 -0.3417  1.5519
  693MOL0     H93543   8.858  -0.501   1.161  0.4485  0.4629 -1.9971
  693MOL0     H93544   8.872  -0.364   1.067  2.5999 -0.5275 -1.2676
  693MOL0     H93545   8.677  -0.357   1.233  0.4902 -0.0062 -0.0893
  693MOL0     H93546   8.797  -0.221   1.263 -1.0752  0.4801 -1.3978
  693MOL0     H93547   8.906  -0.355   1.450  2.2890 -3.2736 -3.2845
  693MOL0     H93548   8.803  -0.487   1.421  1.0188 -0.2991 -1.1197
  693MOL0     H93549   8.740  -0.359   1.619 -1.5031 -2.4228 -0.7612
  693MOL0     H93550   8.749  -0.203   1.536  0.6260 -1.0251 -0.9713
  693MOL0     H93551   8.354  -0.292   1.425  0.2439 -1.1067 -2.3913
  693MOL0     H93552   9.230  -0.333   1.342  0.1246  0.9537  0.3854
  693MOL0     H93553   9.500  -0.109   1.248 -1.2284 -0.3662 -1.5812
  693MOL0     H93554   9.413  -0.084   1.405 -3.7809  1.6476 -0.7790
  693MOL0     H93555   9.455  -0.242   1.361 -0.1365  1.6262  0.8994
  694MOL0     O93556   5.146   3.148   6.342 -0.7550 -0.3039 -0.2433
  694MOL0     C93557   5.114   3.137   6.224 -0.4360  0.3275 -0.1929
  694MOL0     O93558   5.199   3.157   6.116  0.2351 -0.0766 -0.5220
  694MOL0     C93559   5.327   3.186   6.138  0.1269  0.1079 -0.2830
  694MOL0     C93560   5.366   3.306   6.192  1.5391 -0.7713  0.3451
  694MOL0     C93561   5.493   3.343   6.228 -0.2600  0.0156 -0.0707
  694MOL0     C93562   5.593   3.255   6.197  0.1293  0.1234 -0.0589
  694MOL0     O93563   5.729   3.288   6.228  0.0736 -0.0948  0.0773
  694MOL0     C93564   5.829   3.187   6.231  0.1020 -0.0142  0.5928
  694MOL0     C93565   5.932   3.207   6.337 -0.0073 -0.5867  0.2358
  694MOL0     C93566   5.999   3.343   6.328 -0.4427  0.2215 -0.3801
  694MOL0     C93567   6.147   3.339   6.383  0.7273 -0.3379  0.6689
  694MOL0     C93568   6.221   3.472   6.374 -0.2035  0.7453 -0.6729
  694MOL0     C93569   6.367   3.465   6.423  0.1795  0.3282  0.7457
  694MOL0     C93570   6.448   3.589   6.388 -0.0760 -0.2610 -0.8875
  694MOL0     C93571   6.589   3.586   6.432 -0.3382  0.2568 -0.5505
  694MOL0     N93572   6.620   3.530   6.565 -0.4302 -0.1062 -0.0174
  694MOL0     C93573   6.601   3.397   6.608  0.0670 -0.3170  0.0392
  694MOL0     C93574   6.615   3.403   6.742  0.5389 -0.8578  0.3798
  694MOL0     C93575   6.580   3.286   6.838  0.2346  0.2305 -0.8999
  694MOL0     C93576   6.697   3.219   6.914  0.0502 -0.7715 -0.9717
  694MOL0     C93577   6.711   3.286   7.057 -0.3889 -0.2256  0.0472
  694MOL0     C93578   6.845   3.276   7.129  0.2009  0.5087 -0.4074
  694MOL0     O93579   6.870   3.144   7.173 -0.2881  0.1905 -0.0519
  694MOL0     C93580   6.985   3.119   7.248 -0.6053  0.5146  0.3663
  694MOL0     C93581   7.010   2.988   7.302  1.0584 -0.0186 -0.6181
  694MOL0     C93582   7.120   2.960   7.380 -0.4002  0.7295  0.4010
  694MOL0     C93583   7.226   3.060   7.400 -0.3202  0.2587 -0.5692
  694MOL0     C93584   7.340   3.032   7.489 -0.0325  0.1869 -0.2968
  694MOL0     O93585   7.376   2.907   7.504  0.1338  0.1873 -0.3966
  694MOL0     C93586   7.505   2.880   7.542 -0.6951 -0.0295 -0.2469
  694MOL0     C93587   7.615   2.935   7.467 -0.3725 -0.0212  0.1936
  694MOL0     C93588   7.748   2.922   7.506  0.0621 -0.2315 -0.4849
  694MOL0     C93589   7.770   2.845   7.617 -0.8803 -0.6173 -0.1703
  694MOL0     O93590   7.909   2.822   7.641 -0.0468  0.3600  0.1749
  694MOL0     C93591   7.952   2.733   7.752  0.0373 -0.1521 -0.1965
  694MOL0     C93592   8.096   2.700   7.730 -0.4694  0.2918 -0.7697
  694MOL0     C93593   8.149   2.618   7.852  0.7687 -0.4562 -0.0858
  694MOL0     C93594   8.298   2.596   7.853 -0.5049  0.5776  0.1221
  694MOL0     C93595   8.361   2.723   7.919 -0.5831 -0.0841 -0.0637
  694MOL0     C93596   8.520   2.721   7.920 -0.8601  0.6339 -0.5733
  694MOL0     C93597   8.578   2.580   7.949 -0.7067  0.5485 -0.3136
  694MOL0     C93598   8.730   2.578   7.987 -0.2371 -0.2622  0.1705
  694MOL0    Cl93599   8.840   2.567   7.840  0.4199 -0.0511  0.0454
  694MOL0     C93600   7.670   2.789   7.696  0.5284  0.0919 -0.4491
  694MOL0     C93601   7.540   2.818   7.660  0.8548 -0.7530  0.7356
  694MOL0     O93602   7.398   3.129   7.545 -0.3121  0.5177 -0.3915
  694MOL0     C93603   7.208   3.184   7.339  0.4771 -0.4144 -1.1739
  694MOL0     C93604   7.088   3.218   7.269 -0.4039  0.2877 -0.5211
  694MOL0     N93605   6.654   3.528   6.783  0.9603 -0.6106 -0.3616
  694MOL0     N93606   6.651   3.603   6.678 -0.3071  1.2458 -0.4470
  694MOL0     C93607   5.560   3.129   6.129  0.4484 -0.9201 -0.1155
  694MOL0     C93608   5.426   3.096   6.113 -0.3337  0.1157 -0.4241
  694MOL0     C93609   4.969   3.116   6.202 -0.2808  0.2772  0.1631
  694MOL0     C93610   4.879   3.220   6.216 -0.1632 -0.4000  0.2429
  694MOL0     C93611   4.745   3.202   6.196 -0.0012 -0.4833  0.7583
  694MOL0     C93612   4.694   3.075   6.154 -0.6318  0.8736 -0.1084
  694MOL0     O93613   4.563   3.042   6.112  0.0323  0.1851  0.2770
  694MOL0     C93614   4.483   3.150   6.059  0.0274  0.7376  0.0602
  694MOL0     C93615   4.342   3.117   6.017 -0.4013  0.7001  0.4506
  694MOL0     C93616   4.328   3.029   5.889 -0.4735 -0.5757  0.2270
  694MOL0     C93617   4.217   2.927   5.888  0.3249  0.4860  0.1148
  694MOL0     C93618   4.223   2.809   5.978 -1.3082 -0.2006 -0.1734
  694MOL0     C93619   4.219   2.707   6.038  0.3511  0.4214  0.4953
  694MOL0     C93620   4.780   2.965   6.156  0.4356 -0.3505 -1.0877
  694MOL0     C93621   4.920   2.983   6.176 -0.0802 -1.1554  0.4534
  694MOL0     C93622   5.012   2.866   6.151 -1.2534 -0.0079  0.0103
  694MOL0     H93623   5.283   3.374   6.211  0.4841 -1.2749 -2.0619
  694MOL0     H93624   5.519   3.440   6.270  3.3443 -0.3006 -1.1731
  694MOL0     H93625   5.788   3.086   6.242  1.6400 -0.8300 -0.7137
  694MOL0     H93626   5.877   3.188   6.133  1.9431  0.2781  1.4689
  694MOL0     H93627   6.006   3.128   6.322  2.1909  1.6290 -1.5743
  694MOL0     H93628   5.870   3.213   6.427 -0.0509  1.3439  0.1241
  694MOL0     H93629   5.934   3.418   6.376 -2.1251  0.0450 -2.2409
  694MOL0     H93630   6.002   3.364   6.221 -3.0924  1.5797 -0.2970
  694MOL0     H93631   6.161   3.302   6.485 -1.3074 -4.1722 -0.2434
  694MOL0     H93632   6.205   3.274   6.316 -0.4237  0.6562 -1.3954
  694MOL0     H93633   6.215   3.498   6.268 -2.9124  0.9584 -0.5357
  694MOL0     H93634   6.164   3.543   6.435  0.0868  0.3345  0.0828
  694MOL0     H93635   6.360   3.460   6.533 -0.7761  1.6390  0.7641
  694MOL0     H93636   6.414   3.381   6.372  2.5292  3.4204 -2.5997
  694MOL0     H93637   6.392   3.670   6.435 -1.0810 -0.3172 -1.9414
  694MOL0     H93638   6.460   3.603   6.280 -0.7165  0.0055 -0.9287
  694MOL0     H93639   6.647   3.520   6.366 -3.4473 -0.7831 -2.4729
  694MOL0     H93640   6.631   3.687   6.427  0.1580  0.0434 -0.7975
  694MOL0     H93641   6.581   3.314   6.540 -2.5728  3.3367 -4.2537
  694MOL0     H93642   6.498   3.326   6.899  2.5418  3.4832  0.3273
  694MOL0     H93643   6.539   3.205   6.777 -1.0453  1.5326 -1.8324
  694MOL0     H93644   6.675   3.112   6.917 -1.2149 -0.5797 -2.1827
  694MOL0     H93645   6.782   3.227   6.846 -1.3240  0.2719 -2.6607
  694MOL0     H93646   6.633   3.237   7.117 -0.7550  1.2418  0.8311
  694MOL0     H93647   6.691   3.393   7.052 -0.7349 -0.3323 -1.0093
  694MOL0     H93648   6.855   3.335   7.221  3.5366 -2.5493  1.4579
  694MOL0     H93649   6.928   3.296   7.060 -0.1287 -2.0176 -1.6398
  694MOL0     H93650   6.935   2.914   7.276  1.6795 -2.2075  3.1135
  694MOL0     H93651   7.130   2.870   7.440 -1.0285  1.7464  2.1184
  694MOL0     H93652   7.585   2.993   7.381  2.8420  1.0001 -0.3541
  694MOL0     H93653   7.825   2.974   7.450  0.9933  0.7995  1.6458
  694MOL0     H93654   7.936   2.793   7.843 -0.7021  0.1697 -0.5305
  694MOL0     H93655   7.896   2.640   7.761 -0.1475  0.1363  4.2600
  694MOL0     H93656   8.102   2.647   7.635 -0.4010 -0.2328 -0.4764
  694MOL0     H93657   8.158   2.789   7.717  1.4109 -1.0865 -1.6032
  694MOL0     H93658   8.120   2.680   7.938  1.3630 -0.1429 -0.1062
  694MOL0     H93659   8.095   2.523   7.852 -0.7571  0.3465 -1.1350
  694MOL0     H93660   8.329   2.577   7.750 -0.4854 -2.2073  0.5901
  694MOL0     H93661   8.329   2.507   7.908  4.0622  0.9194 -1.4889
  694MOL0     H93662   8.326   2.730   8.023  1.3024 -2.0116  0.7657
  694MOL0     H93663   8.324   2.813   7.868 -2.0032 -0.2011  0.7071
  694MOL0     H93664   8.564   2.751   7.824  0.8358 -2.9693 -1.1138
  694MOL0     H93665   8.554   2.785   8.001  1.2692 -1.1408  0.0657
  694MOL0     H93666   8.565   2.511   7.866 -4.5206 -0.4611  0.9370
  694MOL0     H93667   8.523   2.536   8.033  3.4915 -1.9990  1.4414
  694MOL0     H93668   8.760   2.666   8.045  1.9456 -0.8109 -0.0464
  694MOL0     H93669   8.749   2.485   8.040 -2.2444 -0.7246  0.1526
  694MOL0     H93670   7.693   2.727   7.782  0.2366 -0.2920 -0.6461
  694MOL0     H93671   7.464   2.771   7.722 -1.3689 -0.1800 -1.4029
  694MOL0     H93672   7.284   3.261   7.350  1.2097 -0.8566 -2.7806
  694MOL0     H93673   7.068   3.321   7.241 -2.5213  0.9556  2.8778
  694MOL0     H93674   5.637   3.059   6.100  0.2666 -1.0735 -0.2371
  694MOL0     H93675   5.388   3.002   6.073  0.7021  0.4306 -2.2429
  694MOL0     H93676   4.907   3.322   6.242 -0.2603  0.4549 -2.6777
  694MOL0     H93677   4.674   3.283   6.179 -1.7812 -2.3824 -1.7281
  694MOL0     H93678   4.537   3.183   5.970 -1.4403 -1.9855 -1.9761
  694MOL0     H93679   4.477   3.214   6.147 -0.6370 -1.5743  1.8058
  694MOL0     H93680   4.287   3.212   6.021  0.1548  0.9635  3.0897
  694MOL0     H93681   4.301   3.058   6.099 -1.1277  0.7299  0.1201
  694MOL0     H93682   4.420   2.972   5.870 -0.9186 -0.9263 -0.9665
  694MOL0     H93683   4.325   3.094   5.801  3.6028 -0.6689 -0.1958
  694MOL0     H93684   4.121   2.978   5.901 -0.3634 -1.0652  1.6826
  694MOL0     H93685   4.213   2.879   5.790 -1.3559 -1.9545  1.2595
  694MOL0     H93686   4.224   2.612   6.089 -1.4457  0.0556  0.0376
  694MOL0     H93687   4.746   2.866   6.128 -2.7065  0.2953  0.0842
  694MOL0     H93688   4.968   2.766   6.151 -0.6114 -0.2982  0.2431
  694MOL0     H93689   5.061   2.883   6.055  0.6921  0.2569  1.0019
  694MOL0     H93690   5.094   2.857   6.223 -1.6928  1.4395  0.7135
  695MOL0     O93691   7.024   3.532   0.557  0.3082 -0.2454 -0.0853
  695MOL0     C93692   6.966   3.587   0.655 -0.3887  1.1052 -0.1263
  695MOL0     O93693   7.028   3.669   0.740  0.2443 -0.4714 -0.3792
  695MOL0     C93694   7.159   3.710   0.712  0.7105  0.8574 -0.2832
  695MOL0     C93695   7.261   3.621   0.734 -0.7062  0.9279 -0.5751
  695MOL0     C93696   7.389   3.650   0.700 -0.4428 -0.4225 -0.6619
  695MOL0     C93697   7.425   3.775   0.649 -0.2429  0.0548  0.9152
  695MOL0     O93698   7.551   3.820   0.600  0.2246  0.2143  0.1540
  695MOL0     C93699   7.668   3.742   0.631 -0.1535 -0.2808 -0.2495
  695MOL0     C93700   7.805   3.819   0.609 -0.3279  0.2706  0.2163
  695MOL0     C93701   7.921   3.744   0.666  1.1236 -0.4156 -0.6442
  695MOL0     C93702   8.049   3.791   0.602 -0.3689  0.6060  0.1325
  695MOL0     C93703   8.174   3.758   0.680 -0.2195 -0.3874  0.8656
  695MOL0     C93704   8.299   3.775   0.594 -0.3553 -0.2046  0.2754
  695MOL0     C93705   8.425   3.727   0.669 -0.2833  0.4525 -0.4896
  695MOL0     C93706   8.552   3.758   0.586 -1.8966  0.4516 -0.2482
  695MOL0     N93707   8.678   3.722   0.658 -0.1980  0.3559 -0.5094
  695MOL0     C93708   8.730   3.592   0.670 -0.1996 -0.5091  0.4622
  695MOL0     C93709   8.846   3.606   0.749  0.0773  0.0045 -0.1936
  695MOL0     C93710   8.934   3.503   0.802  0.0078  0.0457  0.0753
  695MOL0     C93711   9.077   3.544   0.781 -0.6972  0.3148 -0.2667
  695MOL0     C93712   9.162   3.417   0.806  0.2446 -0.8480 -0.0950
  695MOL0     C93713   9.316   3.452   0.808  0.8032 -0.4811 -0.4035
  695MOL0     O93714   9.398   3.333   0.815 -0.3718  0.4431  0.1484
  695MOL0     C93715   9.535   3.353   0.837  0.6996 -1.5187  0.1583
  695MOL0     C93716   9.618   3.438   0.754  0.8057 -0.1346 -0.2088
  695MOL0     C93717   9.751   3.447   0.777 -0.2148 -0.2813  0.0528
  695MOL0     C93718   9.821   3.365   0.877  0.0244 -0.5922  0.6314
  695MOL0     C93719   9.961   3.380   0.903  0.1841 -0.0214 -0.5267
  695MOL0     O93720  10.036   3.435   0.800 -0.1606 -0.3821 -0.5068
  695MOL0     C93721  10.170   3.456   0.809 -0.9434 -0.5186  0.3232
  695MOL0     C93722  10.216   3.561   0.735  0.0814  0.5209  0.4935
  695MOL0     C93723  10.355   3.592   0.730  0.5964  0.3503 -0.3405
  695MOL0     C93724  10.448   3.497   0.792 -1.1348  0.3649 -0.2010
  695MOL0     O93725  10.585   3.527   0.766  0.2617  0.3784 -0.0056
  695MOL0     C93726  10.675   3.471   0.861 -0.1516  0.8143 -0.4859
  695MOL0     C93727  10.813   3.507   0.823 -0.1572 -0.1010  0.6535
  695MOL0     C93728  10.851   3.655   0.849  0.4224  0.8836  0.1149
  695MOL0     C93729  11.010   3.673   0.860 -0.1016  0.4817  0.2734
  695MOL0     C93730  11.056   3.812   0.809  0.1983 -0.3843 -0.1387
  695MOL0     C93731  10.990   3.927   0.897 -0.3423 -0.3429  0.9090
  695MOL0     C93732  11.021   4.067   0.822  0.1127  0.3287  0.1441
  695MOL0     C93733  11.164   4.128   0.868  0.8334 -0.6684 -0.0586
  695MOL0    Cl93734  11.180   4.172   1.044  0.3143  0.1067  0.0428
  695MOL0     C93735  10.403   3.389   0.863 -0.5251  0.2688 -0.2380
  695MOL0     C93736  10.261   3.367   0.876  0.7341 -0.4102  0.9083
  695MOL0     O93737  10.003   3.353   1.011  0.2205  0.3384 -0.2742
  695MOL0     C93738   9.735   3.285   0.945  0.5331  0.8583  0.7777
  695MOL0     C93739   9.594   3.278   0.922 -0.3858  0.4831 -0.2402
  695MOL0     N93740   8.868   3.747   0.751 -0.3786  0.4257  0.0619
  695MOL0     N93741   8.777   3.808   0.693 -0.6242 -0.1858  0.1035
  695MOL0     C93742   7.317   3.862   0.632  0.8176  0.8927 -0.2383
  695MOL0     C93743   7.181   3.839   0.663 -0.4745 -0.0876 -0.7807
  695MOL0     C93744   6.831   3.539   0.675  0.0861 -0.1401  0.7262
  695MOL0     C93745   6.744   3.647   0.718  0.5363 -0.1206 -0.2778
  695MOL0     C93746   6.616   3.615   0.748  0.1770  0.2513 -0.4485
  695MOL0     C93747   6.560   3.483   0.723  0.0140  0.6498 -0.5345
  695MOL0     O93748   6.424   3.473   0.757 -0.4517 -0.1432 -0.4967
  695MOL0     C93749   6.398   3.376   0.858 -0.0826 -0.0140  0.6038
  695MOL0     C93750   6.457   3.396   1.005  0.4308  0.9541  1.1119
  695MOL0     C93751   6.370   3.475   1.108  0.1019  0.1494 -0.1954
  695MOL0     C93752   6.380   3.628   1.086 -0.0844 -0.3179 -0.0938
  695MOL0     C93753   6.517   3.676   1.121 -0.0730  0.3876 -0.8257
  695MOL0     C93754   6.625   3.706   1.166  0.2175  0.2613  0.1061
  695MOL0     C93755   6.647   3.384   0.675  0.0296 -0.1250 -0.0299
  695MOL0     C93756   6.782   3.408   0.644  0.4541 -1.0793 -0.6818
  695MOL0     C93757   6.865   3.292   0.612 -0.5499  0.2451  0.1265
  695MOL0     H93758   7.228   3.520   0.757 -1.1838  0.8367 -1.6233
  695MOL0     H93759   7.465   3.575   0.716 -1.7621 -1.7921 -0.6304
  695MOL0     H93760   7.656   3.736   0.739 -0.0859  0.4542 -0.1915
  695MOL0     H93761   7.667   3.646   0.579 -1.4399 -0.4265  0.0301
  695MOL0     H93762   7.802   3.918   0.655  0.6688  0.9137 -1.0244
  695MOL0     H93763   7.821   3.837   0.502  2.1855  0.5486  0.5748
  695MOL0     H93764   7.904   3.638   0.644  1.2901 -0.0793 -2.5530
  695MOL0     H93765   7.936   3.771   0.771  1.1806  1.4543 -1.1068
  695MOL0     H93766   8.055   3.750   0.501 -1.8076 -0.6919  0.5324
  695MOL0     H93767   8.049   3.898   0.580  0.9577  0.3609 -1.1601
  695MOL0     H93768   8.186   3.812   0.775  1.4426 -0.9977  1.0328
  695MOL0     H93769   8.160   3.654   0.709  2.4369 -2.1486 -3.2110
  695MOL0     H93770   8.289   3.724   0.498  0.0170 -0.5810  0.4303
  695MOL0     H93771   8.310   3.881   0.566 -1.5716  0.0583  0.7393
  695MOL0     H93772   8.420   3.623   0.704 -0.3187  1.3330  2.3499
  695MOL0     H93773   8.421   3.795   0.754  0.9889  1.5824 -1.3061
  695MOL0     H93774   8.558   3.710   0.488  0.5762  4.0363 -2.1181
  695MOL0     H93775   8.549   3.863   0.554 -0.7809 -0.3417 -3.2557
  695MOL0     H93776   8.687   3.499   0.636  2.5423 -1.1628 -1.6367
  695MOL0     H93777   8.917   3.508   0.910 -1.1337 -0.9201 -0.0388
  695MOL0     H93778   8.912   3.406   0.758  2.1129  1.0635 -3.7646
  695MOL0     H93779   9.095   3.579   0.679  0.5917 -0.3922 -0.3131
  695MOL0     H93780   9.107   3.620   0.854  3.6310 -0.2583 -1.1588
  695MOL0     H93781   9.138   3.342   0.731 -0.7990  0.9565 -1.6759
  695MOL0     H93782   9.129   3.372   0.901  1.7738 -3.5438 -0.7464
  695MOL0     H93783   9.344   3.532   0.877 -1.8212 -0.4490  0.7519
  695MOL0     H93784   9.325   3.497   0.709  0.9396 -1.7415 -0.9823
  695MOL0     H93785   9.562   3.491   0.678  1.0526  0.8293  0.2611
  695MOL0     H93786   9.800   3.516   0.709 -1.5524 -0.1707 -0.8162
  695MOL0     H93787  10.138   3.601   0.671 -1.0672 -1.3198  0.6573
  695MOL0     H93788  10.402   3.674   0.675  2.2622 -2.1838 -3.0340
  695MOL0     H93789  10.655   3.516   0.959  1.5621  1.2318 -0.2923
  695MOL0     H93790  10.662   3.363   0.873 -2.6030  1.1220  0.0447
  695MOL0     H93791  10.889   3.445   0.872  0.8946  1.8372  1.5817
  695MOL0     H93792  10.817   3.498   0.714 -3.4444  1.3775  0.2875
  695MOL0     H93793  10.819   3.710   0.760  0.9228 -2.8705 -2.6610
  695MOL0     H93794  10.805   3.693   0.940  1.7608  0.1435  1.1409
  695MOL0     H93795  11.061   3.594   0.804 -0.7933  2.0953 -2.8396
  695MOL0     H93796  11.029   3.659   0.967 -1.7332 -0.3154  0.4937
  695MOL0     H93797  11.011   3.815   0.710 -0.1933  3.3115 -0.0043
  695MOL0     H93798  11.165   3.824   0.812  0.1787  0.0972 -0.9670
  695MOL0     H93799  10.882   3.911   0.903 -0.8223  2.4716  1.3432
  695MOL0     H93800  11.033   3.928   0.997  0.8815 -2.5303  0.4671
  695MOL0     H93801  10.945   4.144   0.836  0.9004  1.2089 -0.2909
  695MOL0     H93802  11.027   4.050   0.714 -1.9759 -0.6481  0.1308
  695MOL0     H93803  11.237   4.048   0.853 -1.7748 -2.9827 -1.3699
  695MOL0     H93804  11.180   4.219   0.809 -1.5452  1.4481  2.2757
  695MOL0     H93805  10.462   3.315   0.914 -0.4105 -1.5582 -2.8261
  695MOL0     H93806  10.225   3.281   0.931  2.3777 -1.7644 -0.0409
  695MOL0     H93807   9.782   3.229   1.025  1.8264  2.2603  1.0378
  695MOL0     H93808   9.535   3.211   0.983 -0.1316  0.0815 -0.4295
  695MOL0     H93809   7.350   3.954   0.584  1.3876  0.4932 -0.6213
  695MOL0     H93810   7.100   3.909   0.643  0.2096  0.9493 -0.0428
  695MOL0     H93811   6.776   3.749   0.737 -4.0225  0.9851  3.7484
  695MOL0     H93812   6.550   3.683   0.802 -1.7828 -2.2337  0.4442
  695MOL0     H93813   6.427   3.281   0.812  0.1627 -0.7615  2.2341
  695MOL0     H93814   6.289   3.382   0.869 -0.1469  3.1327 -0.6450
  695MOL0     H93815   6.556   3.438   0.989  0.4667  0.1046 -1.2777
  695MOL0     H93816   6.457   3.293   1.043  0.3871  0.8045  0.7144
  695MOL0     H93817   6.403   3.453   1.210 -0.9778  0.3142  0.2048
  695MOL0     H93818   6.268   3.436   1.105  0.0100  0.3278  0.4285
  695MOL0     H93819   6.369   3.645   0.978 -0.7112  1.0494  0.1617
  695MOL0     H93820   6.304   3.679   1.145  0.5612 -0.9672  1.3434
  695MOL0     H93821   6.724   3.731   1.197 -0.2218 -1.0505  2.8592
  695MOL0     H93822   6.610   3.282   0.666 -1.5774  0.1405  2.6417
  695MOL0     H93823   6.955   3.292   0.673 -1.5296 -0.2452  1.6137
  695MOL0     H93824   6.820   3.193   0.621 -0.5104  0.4055  2.8007
  695MOL0     H93825   6.902   3.313   0.511 -1.8278 -1.2715 -0.7060
  696MOL0     O93826   8.125   9.817   6.921  0.3653 -0.3752 -0.1376
  696MOL0     C93827   8.021   9.784   6.864  0.1675  0.2806  0.0763
  696MOL0     O93828   7.976   9.838   6.750  0.6212 -0.1439 -0.2386
  696MOL0     C93829   8.038   9.927   6.674 -0.5715 -0.4170  0.9005
  696MOL0     C93830   8.136   9.878   6.587  0.7139  1.0352  0.1880
  696MOL0     C93831   8.214   9.967   6.519 -0.3350  0.2030 -0.7370
  696MOL0     C93832   8.189  10.111   6.526  0.6316 -0.5363  0.0166
  696MOL0     O93833   8.259  10.203   6.448 -0.8094  0.5768  0.2162
  696MOL0     C93834   8.246  10.341   6.468 -0.5741  0.1465 -0.1878
  696MOL0     C93835   8.373  10.400   6.387  0.2228 -0.4884  1.3074
  696MOL0     C93836   8.326  10.524   6.311 -0.2099  0.2223  0.4301
  696MOL0     C93837   8.443  10.618   6.264  0.2468 -1.0238  0.6014
  696MOL0     C93838   8.513  10.565   6.139  0.1624  0.4183  0.2058
  696MOL0     C93839   8.630  10.647   6.094  0.2496  0.6356  0.2588
  696MOL0     C93840   8.701  10.596   5.973 -0.2052 -0.9223  1.2097
  696MOL0     C93841   8.818  10.694   5.940 -0.2269 -0.4394  0.0645
  696MOL0     N93842   8.881  10.688   5.805  0.6781 -0.4066  0.5419
  696MOL0     C93843   8.922  10.576   5.741 -0.6767  0.4013 -0.0046
  696MOL0     C93844   8.988  10.613   5.630  0.8516  0.4128 -0.7203
  696MOL0     C93845   9.062  10.515   5.547  0.6603  0.3859  0.0432
  696MOL0     C93846   9.213  10.537   5.561  0.3947  0.8231 -1.2703
  696MOL0     C93847   9.251  10.484   5.704 -0.1364 -0.5844 -0.3609
  696MOL0     C93848   9.389  10.425   5.704 -0.1831  0.6605 -0.2049
  696MOL0     O93849   9.491  10.513   5.654 -0.4594  0.0943  0.2128
  696MOL0     C93850   9.618  10.460   5.642  0.3127 -0.3166  0.7969
  696MOL0     C93851   9.661  10.324   5.638 -0.2954 -0.1164 -0.0164
  696MOL0     C93852   9.799  10.292   5.624  0.6342  0.5037 -0.0009
  696MOL0     C93853   9.896  10.396   5.615  0.4321  0.1812 -0.3081
  696MOL0     C93854  10.043  10.365   5.612  0.1970 -0.6930 -0.5482
  696MOL0     O93855  10.129  10.476   5.627 -0.4412  0.4861 -0.3296
  696MOL0     C93856  10.268  10.461   5.626  0.4395 -0.2194  0.7364
  696MOL0     C93857  10.342  10.532   5.525 -0.2220 -0.7619 -0.3528
  696MOL0     C93858  10.480  10.533   5.527 -0.1339 -0.0832 -0.0961
  696MOL0     C93859  10.549  10.477   5.632 -0.4103 -0.9249 -0.8601
  696MOL0     O93860  10.684  10.489   5.646 -0.8384  0.4245  0.4052
  696MOL0     C93861  10.771  10.492   5.528  0.1871 -0.1046  0.8266
  696MOL0     C93862  10.899  10.421   5.574  0.6115 -1.0093 -0.6866
  696MOL0     C93863  10.999  10.389   5.462 -0.2485  0.7860  0.0099
  696MOL0     C93864  11.068  10.513   5.412  0.4842  0.1633  0.1712
  696MOL0     C93865  11.134  10.492   5.274 -0.4783  0.4259  0.4144
  696MOL0     C93866  11.175  10.627   5.231  0.2346 -0.1723  0.1820
  696MOL0     C93867  11.265  10.608   5.111 -0.8803 -0.2574 -0.2165
  696MOL0     C93868  11.314  10.747   5.060  0.5960 -0.2924  0.4186
  696MOL0    Cl93869  11.435  10.741   4.925 -0.0355  0.0840  0.0934
  696MOL0     C93870  10.483  10.397   5.725  0.2054  0.4316  0.5076
  696MOL0     C93871  10.346  10.391   5.724  0.0003  0.4708 -0.0921
  696MOL0     O93872  10.089  10.255   5.585  0.2538  0.1257  0.0713
  696MOL0     C93873   9.851  10.533   5.622 -0.5936  0.3120  0.8473
  696MOL0     C93874   9.712  10.563   5.638 -0.8322 -0.9357  0.4554
  696MOL0     N93875   8.970  10.752   5.620 -0.1004 -0.0774  0.0352
  696MOL0     N93876   8.902  10.797   5.725 -0.2243  0.6634  0.3182
  696MOL0     C93877   8.102  10.158   6.621  0.1268  0.5830 -0.5224
  696MOL0     C93878   8.027  10.063   6.691  0.1648 -0.2879  0.2949
  696MOL0     C93879   7.941   9.673   6.939  0.3994 -1.2384  0.5491
  696MOL0     C93880   7.996   9.620   7.056  0.0137 -0.2089  1.4022
  696MOL0     C93881   7.915   9.537   7.134  0.3334  0.8131  0.3728
  696MOL0     C93882   7.776   9.509   7.099  0.0695  0.3043 -0.6106
  696MOL0     O93883   7.715   9.421   7.181 -0.5001 -0.5837 -0.4806
  696MOL0     C93884   7.606   9.480   7.251  0.3904 -0.1585  0.2033
  696MOL0     C93885   7.507   9.376   7.308 -0.5293  0.0217  0.4819
  696MOL0     C93886   7.387   9.447   7.376  0.2660  0.1720  0.8426
  696MOL0     C93887   7.321   9.354   7.476  0.2231  0.3071 -0.5321
  696MOL0     C93888   7.189   9.402   7.535 -0.0546 -0.5743 -0.3944
  696MOL0     C93889   7.071   9.412   7.587  0.2324 -0.0627  0.3378
  696MOL0     C93890   7.729   9.563   6.979 -0.3591 -0.1363  0.1389
  696MOL0     C93891   7.811   9.647   6.900  0.0504  0.2417 -0.2952
  696MOL0     C93892   7.745   9.686   6.779 -0.2250 -0.3542 -1.0622
  696MOL0     H93893   8.146   9.770   6.583 -0.5094  0.9543 -2.2443
  696MOL0     H93894   8.298   9.929   6.463  0.5769  2.2501 -0.8647
  696MOL0     H93895   8.154  10.364   6.414 -0.7939 -0.2169  0.0297
  696MOL0     H93896   8.253  10.383   6.568  1.0873  1.5627 -0.8457
  696MOL0     H93897   8.415  10.329   6.315 -0.2691  2.7720 -2.5469
  696MOL0     H93898   8.456  10.416   6.456  1.8023  0.5299 -0.6988
  696MOL0     H93899   8.250  10.577   6.369 -1.5730 -1.8975  0.6960
  696MOL0     H93900   8.266  10.489   6.226  2.4843 -0.4092 -1.3391
  696MOL0     H93901   8.406  10.719   6.244 -1.4508 -1.5784  0.7741
  696MOL0     H93902   8.511  10.627   6.349  1.9254 -1.8483 -0.6016
  696MOL0     H93903   8.557  10.468   6.164  1.9368  1.1599  0.1292
  696MOL0     H93904   8.443  10.558   6.055  0.5536  0.0836 -0.0947
  696MOL0     H93905   8.589  10.746   6.074 -1.7966 -0.1241  0.4906
  696MOL0     H93906   8.694  10.661   6.183  1.1511 -1.9879  0.1091
  696MOL0     H93907   8.626  10.593   5.893  1.2655  1.1511 -0.3270
  696MOL0     H93908   8.746  10.497   5.982 -1.0931 -1.3400  1.1612
  696MOL0     H93909   8.775  10.794   5.949  2.2455  0.5258  2.7616
  696MOL0     H93910   8.891  10.684   6.020 -0.5266 -2.5460  0.1233
  696MOL0     H93911   8.909  10.471   5.767  1.0605  0.6458  2.1966
  696MOL0     H93912   9.040  10.409   5.564  0.5733 -0.0538 -2.4907
  696MOL0     H93913   9.034  10.538   5.444 -0.5278 -1.4631 -0.0993
  696MOL0     H93914   9.260  10.475   5.484  1.9352  1.2930 -0.7333
  696MOL0     H93915   9.229  10.645   5.555  1.8823  0.6576 -0.7110
  696MOL0     H93916   9.181  10.409   5.743  0.0635 -1.7348 -2.1140
  696MOL0     H93917   9.247  10.570   5.772  0.5392  1.7586 -3.0893
  696MOL0     H93918   9.393  10.333   5.645  5.1308 -0.4872  1.4018
  696MOL0     H93919   9.405  10.394   5.808 -1.9819 -1.1643 -0.4180
  696MOL0     H93920   9.590  10.243   5.627 -1.6650  1.3029 -2.4172
  696MOL0     H93921   9.828  10.189   5.606 -0.4402  0.2604 -0.4107
  696MOL0     H93922  10.280  10.570   5.443  0.1427 -0.3084 -0.4215
  696MOL0     H93923  10.523  10.588   5.443 -1.6533  0.7459 -0.3661
  696MOL0     H93924  10.734  10.433   5.443  1.0080  0.3022  0.1795
  696MOL0     H93925  10.790  10.594   5.495 -3.6444  1.6327  3.2703
  696MOL0     H93926  10.941  10.486   5.652 -2.3875 -0.3120  0.4899
  696MOL0     H93927  10.866  10.326   5.616  2.2840 -2.1318 -1.7751
  696MOL0     H93928  11.072  10.312   5.491  0.6956  1.8505  0.5615
  696MOL0     H93929  10.956  10.349   5.370  0.4534 -0.8468  0.3633
  696MOL0     H93930  11.142  10.538   5.489  0.5937 -0.8980  0.4266
  696MOL0     H93931  11.002  10.601   5.407  2.2128  1.7287  2.4655
  696MOL0     H93932  11.073  10.440   5.200 -2.0564  4.6650 -1.6379
  696MOL0     H93933  11.224  10.433   5.294 -1.2024 -1.8023 -2.2842
  696MOL0     H93934  11.092  10.691   5.197  0.3955  0.3499  0.7703
  696MOL0     H93935  11.234  10.679   5.306 -2.0590 -0.1658  2.1148
  696MOL0     H93936  11.222  10.552   5.028 -1.8013 -0.7449  0.5644
  696MOL0     H93937  11.357  10.560   5.145 -0.7483  0.8952  1.1705
  696MOL0     H93938  11.226  10.792   5.012 -0.5680 -1.7306  1.1152
  696MOL0     H93939  11.336  10.820   5.138 -0.0283 -1.7168  1.9847
  696MOL0     H93940  10.535  10.339   5.801  0.8416 -0.3116 -0.4599
  696MOL0     H93941  10.306  10.324   5.800  1.8704 -2.7150 -1.6848
  696MOL0     H93942   9.925  10.612   5.615 -2.3097  1.9206 -0.0819
  696MOL0     H93943   9.677  10.666   5.631 -0.6244 -0.9048 -0.2922
  696MOL0     H93944   8.084  10.262   6.644 -1.3360  0.7710 -2.3157
  696MOL0     H93945   7.957  10.098   6.767 -1.2125  2.0354 -1.9019
  696MOL0     H93946   8.096   9.644   7.091  0.5140 -2.1285  1.4121
  696MOL0     H93947   7.949   9.498   7.229  4.4920  1.2586 -0.7068
  696MOL0     H93948   7.543   9.537   7.182  0.9499 -1.7950 -1.7692
  696MOL0     H93949   7.646   9.547   7.327  0.6097 -0.0893  0.0240
  696MOL0     H93950   7.561   9.315   7.381 -0.0122 -0.3102 -0.1617
  696MOL0     H93951   7.461   9.307   7.236 -0.4720 -1.3898  1.7601
  696MOL0     H93952   7.310   9.485   7.308  1.2542 -3.2482 -2.5584
  696MOL0     H93953   7.427   9.534   7.430  2.9705 -0.9441  0.7854
  696MOL0     H93954   7.319   9.251   7.441 -0.9395 -0.4861  1.6929
  696MOL0     H93955   7.387   9.345   7.563 -2.9459 -0.1890  1.9789
  696MOL0     H93956   6.970   9.434   7.618  0.3504  0.4512  0.3707
  696MOL0     H93957   7.631   9.528   6.949  0.1313 -0.0041 -1.6887
  696MOL0     H93958   7.638   9.660   6.780 -0.5830  1.0144  0.3153
  696MOL0     H93959   7.731   9.794   6.771 -0.9121 -0.5355 -3.1124
  696MOL0     H93960   7.801   9.649   6.692  0.3313 -1.1818 -0.3663
  697MOL0     O93961   5.028   0.450   9.939 -0.2200 -0.6237 -0.5000
  697MOL0     C93962   4.980   0.343   9.917  0.3560  0.5868  0.0788
  697MOL0     O93963   5.047   0.244   9.844 -0.2195  0.4618 -0.3704
  697MOL0     C93964   5.174   0.268   9.806  0.0927  1.1807 -0.6662
  697MOL0     C93965   5.210   0.352   9.705 -0.0776 -0.1922  0.0056
  697MOL0     C93966   5.352   0.374   9.686  0.7615 -0.0461 -0.6150
  697MOL0     C93967   5.450   0.324   9.770 -0.2734  0.3119 -0.3550
  697MOL0     O93968   5.578   0.364   9.773  0.2701 -0.8299  0.6151
  697MOL0     C93969   5.627   0.445   9.670  0.1932 -0.5630 -0.1708
  697MOL0     C93970   5.658   0.366   9.540 -0.3621 -0.8955  0.2176
  697MOL0     C93971   5.776   0.271   9.553 -0.1501  0.5970  0.1130
  697MOL0     C93972   5.912   0.337   9.574 -0.4565  0.1804  0.1761
  697MOL0     C93973   6.013   0.242   9.633  0.2111  0.3141  0.6991
  697MOL0     C93974   6.059   0.139   9.533 -0.7810 -0.1206 -1.2021
  697MOL0     C93975   6.147   0.026   9.602 -0.2707  0.2188 -0.6001
  697MOL0     C93976   6.210  -0.074   9.513 -0.5064  0.8807 -0.8555
  697MOL0     N93977   6.120  -0.176   9.453  0.2175  0.0636  0.4226
  697MOL0     C93978   6.025  -0.158   9.355 -0.0553 -0.2670  0.0132
  697MOL0     C93979   5.983  -0.287   9.322 -0.2512 -0.1080  0.0848
  697MOL0     C93980   5.878  -0.304   9.223  0.8595  1.0392 -0.6613
  697MOL0     C93981   5.752  -0.345   9.298 -0.3525 -0.2378  0.2479
  697MOL0     C93982   5.639  -0.360   9.196 -0.0146  0.4133 -0.0110
  697MOL0     C93983   5.498  -0.378   9.251  0.3922  0.7625 -0.5648
  697MOL0     O93984   5.468  -0.254   9.320 -0.5778 -0.5029  0.6976
  697MOL0     C93985   5.346  -0.212   9.280  0.2725  0.0820  0.6360
  697MOL0     C93986   5.241  -0.239   9.361 -0.2196  0.4019  0.3879
  697MOL0     C93987   5.120  -0.187   9.350  0.1728  0.4749 -0.2936
  697MOL0     C93988   5.079  -0.130   9.225  0.8762  0.6259 -0.3363
  697MOL0     C93989   4.936  -0.100   9.211  0.7753  0.3499 -0.1919
  697MOL0     O93990   4.848  -0.146   9.306 -0.1754 -0.4810  0.0574
  697MOL0     C93991   4.717  -0.123   9.307  1.1263  0.5322  0.2440
  697MOL0     C93992   4.669   0.003   9.310  0.6919  1.0383 -1.2429
  697MOL0     C93993   4.536   0.033   9.312  1.1813  0.7777 -0.0811
  697MOL0     C93994   4.440  -0.070   9.306  0.2559 -1.4289 -0.0405
  697MOL0     O93995   4.310  -0.048   9.297  0.5287  0.0789 -0.3954
  697MOL0     C93996   4.251   0.077   9.314 -0.5106 -0.4368 -0.1760
  697MOL0     C93997   4.103   0.065   9.349  0.3085 -0.5943  0.4941
  697MOL0     C93998   4.073   0.082   9.496  0.2405 -0.1539  0.2804
  697MOL0     C93999   3.927   0.069   9.531  0.2227 -0.5579  0.5335
  697MOL0     C94000   3.903   0.073   9.686  0.1258  0.1118 -0.2997
  697MOL0     C94001   3.751   0.048   9.718  0.1390  0.7030  0.8076
  697MOL0     C94002   3.739   0.099   9.862 -0.5076 -0.1887  1.1208
  697MOL0     C94003   3.624   0.031   9.926 -0.3907 -0.7713 -0.8579
  697MOL0    Cl94004   3.656  -0.009  10.097 -0.3048 -0.2655  0.1694
  697MOL0     C94005   4.489  -0.204   9.313 -0.0141  0.1090 -0.3991
  697MOL0     C94006   4.627  -0.226   9.310 -0.2318 -0.1722  0.0079
  697MOL0     O94007   4.894  -0.048   9.107 -0.3446 -0.0149  0.2129
  697MOL0     C94008   5.185  -0.115   9.130  0.3911  0.5549  0.0306
  697MOL0     C94009   5.317  -0.147   9.158 -0.2244 -0.1152  0.3615
  697MOL0     N94010   6.065  -0.376   9.397  0.0907  0.8354  0.1595
  697MOL0     N94011   6.139  -0.311   9.471  0.2844 -0.0795  0.1493
  697MOL0     C94012   5.404   0.247   9.876  0.1871  0.0436  0.0700
  697MOL0     C94013   5.271   0.212   9.889  0.4977 -0.3276 -0.1292
  697MOL0     C94014   4.844   0.313   9.973 -0.4063  0.5490  1.0280
  697MOL0     C94015   4.818   0.182   9.995  0.3174  0.2258  0.3091
  697MOL0     C94016   4.696   0.133  10.046 -0.4652  0.9092  0.1718
  697MOL0     C94017   4.598   0.226  10.070 -0.9222 -1.1415 -0.2048
  697MOL0     O94018   4.470   0.203  10.110  0.4714 -0.1771  0.0716
  697MOL0     C94019   4.439   0.066  10.137  1.4244  0.4174  0.1942
  697MOL0     C94020   4.295   0.053  10.195 -0.4191 -0.1730  0.1942
  697MOL0     C94021   4.181   0.085  10.098  0.1340  0.5838  0.0500
  697MOL0     C94022   4.179   0.234  10.047 -0.1857 -0.3283 -0.0320
  697MOL0     C94023   4.045   0.291  10.028  0.7953 -0.3615 -0.6324
  697MOL0     C94024   3.933   0.340   9.996  0.0144 -0.1543 -1.2495
  697MOL0     C94025   4.628   0.368  10.040  0.0308 -0.5494 -0.6286
  697MOL0     C94026   4.747   0.414   9.997  0.2039 -0.3478 -0.2646
  697MOL0     C94027   4.771   0.565   9.990 -0.2684  0.7199 -0.1145
  697MOL0     H94028   5.137   0.404   9.644  0.3281 -0.1118 -0.4202
  697MOL0     H94029   5.382   0.435   9.602  0.0554 -0.3489 -1.0956
  697MOL0     H94030   5.556   0.524   9.644  0.8050 -0.3820 -1.3462
  697MOL0     H94031   5.719   0.497   9.697 -0.1468 -0.0062 -0.0618
  697MOL0     H94032   5.675   0.437   9.459  2.7535 -1.2836  0.4316
  697MOL0     H94033   5.568   0.315   9.502 -0.2399 -0.9900  0.0526
  697MOL0     H94034   5.778   0.203   9.467 -3.2906 -0.1805  0.5074
  697MOL0     H94035   5.749   0.202   9.633 -0.0662 -0.0942 -0.4454
  697MOL0     H94036   5.953   0.389   9.486  0.3830  1.4826  1.3022
  697MOL0     H94037   5.899   0.414   9.650  0.4870 -0.2807  0.8131
  697MOL0     H94038   6.093   0.311   9.663 -0.4087  0.8592  1.1451
  697MOL0     H94039   5.973   0.196   9.724 -0.0278  2.3171  1.6835
  697MOL0     H94040   5.977   0.090   9.479 -0.3705 -0.9760 -1.0746
  697MOL0     H94041   6.122   0.193   9.462 -0.8420 -1.2297 -2.1284
  697MOL0     H94042   6.085  -0.035   9.669 -1.0167 -1.1346 -2.4461
  697MOL0     H94043   6.227   0.063   9.667 -1.0133  0.0227  0.4631
  697MOL0     H94044   6.273  -0.025   9.439  3.5909 -1.7515  0.5844
  697MOL0     H94045   6.284  -0.122   9.577  0.0613  2.5342 -0.2202
  697MOL0     H94046   6.002  -0.064   9.305  3.5023  0.7689  0.0445
  697MOL0     H94047   5.865  -0.219   9.155 -1.6744  1.9848  0.8489
  697MOL0     H94048   5.911  -0.390   9.164 -0.1309 -0.5094  0.9579
  697MOL0     H94049   5.772  -0.439   9.351 -2.0907 -1.3590 -0.9348
  697MOL0     H94050   5.730  -0.267   9.371  0.5585  0.0328  0.2439
  697MOL0     H94051   5.666  -0.457   9.152 -0.9964 -0.2800  0.8592
  697MOL0     H94052   5.637  -0.293   9.109 -1.0074 -0.5680 -0.7739
  697MOL0     H94053   5.485  -0.459   9.324 -0.0573  0.0646 -1.3963
  697MOL0     H94054   5.439  -0.395   9.161 -2.4433 -1.5653  1.5420
  697MOL0     H94055   5.281  -0.296   9.444  2.9358  0.5133 -0.8921
  697MOL0     H94056   5.049  -0.197   9.432  1.5403  3.6723  1.4780
  697MOL0     H94057   4.746   0.080   9.310  1.2439  0.6223  1.8393
  697MOL0     H94058   4.502   0.136   9.318  0.9607  0.6032  2.5144
  697MOL0     H94059   4.304   0.133   9.391 -0.3258 -0.0899 -0.5521
  697MOL0     H94060   4.276   0.127   9.221  1.2756 -0.8570  0.0465
  697MOL0     H94061   4.042   0.142   9.300  1.1012  0.9158  1.8123
  697MOL0     H94062   4.063  -0.032   9.317 -1.1510  0.2704 -0.4399
  697MOL0     H94063   4.138   0.017   9.555 -1.8633 -1.1139  1.6631
  697MOL0     H94064   4.102   0.185   9.515  2.6337 -0.6035 -0.5833
  697MOL0     H94065   3.893  -0.032   9.508  2.5488 -0.6221 -3.5939
  697MOL0     H94066   3.861   0.143   9.483  0.0503 -0.7444  0.4814
  697MOL0     H94067   3.935   0.170   9.726 -0.8417  0.9602 -1.4592
  697MOL0     H94068   3.962  -0.004   9.735 -0.7159  0.3914  1.1967
  697MOL0     H94069   3.687   0.113   9.657 -3.2915 -1.3846  1.9508
  697MOL0     H94070   3.732  -0.057   9.696  2.0777  0.0858  1.8159
  697MOL0     H94071   3.733   0.208   9.856  1.4279 -0.0452  1.1746
  697MOL0     H94072   3.828   0.075   9.921  0.2137 -2.4030 -0.7396
  697MOL0     H94073   3.537   0.097   9.915  0.5073  0.7023  0.5507
  697MOL0     H94074   3.601  -0.070   9.890  0.8952 -2.2055  2.0589
  697MOL0     H94075   4.415  -0.283   9.303 -0.6191  0.7963 -1.5404
  697MOL0     H94076   4.669  -0.326   9.306 -3.1287 -1.4441 -1.1176
  697MOL0     H94077   5.156  -0.070   9.036  1.2214 -1.2977 -1.1564
  697MOL0     H94078   5.398  -0.115   9.093  0.5762 -2.7480 -0.0698
  697MOL0     H94079   5.469   0.218   9.958 -2.2603 -1.1998  1.6978
  697MOL0     H94080   5.247   0.151   9.976 -0.7842  1.9855  1.2337
  697MOL0     H94081   4.894   0.109   9.969 -0.5739 -0.7445  0.3493
  697MOL0     H94082   4.690   0.027  10.069  0.3199  0.3894 -1.7566
  697MOL0     H94083   4.503   0.029  10.217  1.3383 -0.2292 -0.0298
  697MOL0     H94084   4.449   0.005  10.047  2.2643  2.5834 -1.2499
  697MOL0     H94085   4.283   0.118  10.282 -0.4770  0.1941 -0.0859
  697MOL0     H94086   4.299  -0.051  10.230 -0.4354 -1.5910 -3.5252
  697MOL0     H94087   4.084   0.076  10.149 -0.2428  1.9114 -0.4070
  697MOL0     H94088   4.178   0.007  10.021 -0.4974  1.4182 -0.7832
  697MOL0     H94089   4.240   0.298  10.112  0.3685 -1.2842  0.4124
  697MOL0     H94090   4.223   0.239   9.947 -2.0486  1.1160 -0.8311
  697MOL0     H94091   3.831   0.371   9.981  0.3450  2.0356  0.6405
  697MOL0     H94092   4.547   0.437  10.061  0.3330  0.0047 -1.2561
  697MOL0     H94093   4.683   0.626  10.011  0.3817  0.9307  2.2003
  697MOL0     H94094   4.855   0.600  10.049  0.2818 -1.5169  0.5150
  697MOL0     H94095   4.802   0.584   9.887  1.6583  2.1261  0.6852
  698MOL0     O94096   2.420   2.499   5.431  0.5782 -0.6012  1.5828
  698MOL0     C94097   2.483   2.421   5.366 -0.2104 -0.0976  0.1927
  698MOL0     O94098   2.433   2.302   5.322 -0.1767 -0.5627  0.2024
  698MOL0     C94099   2.301   2.275   5.281  0.2098 -0.1412 -0.2822
  698MOL0     C94100   2.201   2.373   5.274  0.3155  0.1064 -0.0892
  698MOL0     C94101   2.067   2.340   5.236  0.4110 -0.8853  0.3135
  698MOL0     C94102   2.040   2.215   5.191  0.2425  0.5497 -0.7003
  698MOL0     O94103   1.923   2.170   5.126 -0.6658 -0.0357  0.1964
  698MOL0     C94104   1.857   2.273   5.048  0.1658 -0.7211  0.2303
  698MOL0     C94105   1.763   2.204   4.939 -0.0029 -0.4647 -0.2065
  698MOL0     C94106   1.671   2.309   4.876  0.2511  0.4726  0.1395
  698MOL0     C94107   1.529   2.256   4.873  0.4968  0.0827  0.3554
  698MOL0     C94108   1.457   2.245   5.014 -0.6684  0.2441 -0.8754
  698MOL0     C94109   1.303   2.233   4.998 -0.0073  0.2361 -0.4972
  698MOL0     C94110   1.240   2.184   5.132  0.0998 -0.1034 -0.2011
  698MOL0     C94111   1.089   2.173   5.118  0.5583  0.4039  0.4523
  698MOL0     N94112   1.015   2.297   5.115  0.2618 -0.4141  0.4118
  698MOL0     C94113   0.898   2.308   5.055 -0.7041 -0.1508  0.3226
  698MOL0     C94114   0.860   2.443   5.080  0.3166  0.2706  0.0241
  698MOL0     C94115   0.736   2.516   5.037 -0.5509 -0.4383 -0.4336
  698MOL0     C94116   0.718   2.492   4.889  0.6860  0.1209  0.4684
  698MOL0     C94117   0.839   2.563   4.815  0.3251  0.8664  0.8020
  698MOL0     C94118   0.824   2.556   4.657  0.5605 -0.1781 -0.6645
  698MOL0     O94119   0.809   2.420   4.617  0.6944  0.5506 -0.0946
  698MOL0     C94120   0.918   2.339   4.606  0.1597  0.0225 -0.2939
  698MOL0     C94121   1.046   2.372   4.649 -0.0331  0.1434 -0.1387
  698MOL0     C94122   1.148   2.274   4.636 -0.0701 -0.7409 -0.3594
  698MOL0     C94123   1.124   2.151   4.576  0.5389 -0.8984 -0.7951
  698MOL0     C94124   1.238   2.057   4.562  0.3378 -0.6650  0.7881
  698MOL0     O94125   1.225   1.970   4.455  0.1490  0.0718  0.2002
  698MOL0     C94126   1.333   1.886   4.429  0.9240  0.1026 -0.6304
  698MOL0     C94127   1.333   1.753   4.482 -0.3722 -0.2153  0.2304
  698MOL0     C94128   1.444   1.672   4.451  1.4288  0.2500 -0.6012
  698MOL0     C94129   1.552   1.716   4.370  0.4853  0.2456  0.8837
  698MOL0     O94130   1.661   1.625   4.346 -0.1005  0.0001 -0.4951
  698MOL0     C94131   1.788   1.671   4.394 -0.0784 -0.4868 -0.1778
  698MOL0     C94132   1.866   1.540   4.398  0.5856  0.1740 -0.3036
  698MOL0     C94133   2.008   1.552   4.459 -0.5682  0.3823  0.4762
  698MOL0     C94134   2.100   1.615   4.353  0.6202 -0.8262  0.9423
  698MOL0     C94135   2.246   1.632   4.404 -0.4970  0.5174 -0.1395
  698MOL0     C94136   2.330   1.498   4.423 -0.1748  0.0154 -0.0592
  698MOL0     C94137   2.473   1.528   4.486 -0.4171  0.3016 -0.4302
  698MOL0     C94138   2.554   1.402   4.504 -0.0386 -0.6197  0.1776
  698MOL0    Cl94139   2.484   1.306   4.635  0.0222 -0.1627 -0.2987
  698MOL0     C94140   1.553   1.856   4.327 -0.2156  0.1048 -0.6370
  698MOL0     C94141   1.435   1.933   4.346 -1.1835 -0.7742  0.0068
  698MOL0     O94142   1.336   2.064   4.634 -0.2306  0.0392 -0.2955
  698MOL0     C94143   0.992   2.124   4.531 -0.1375  0.2530  0.5969
  698MOL0     C94144   0.888   2.218   4.552  0.2899  0.2313 -0.1636
  698MOL0     N94145   0.963   2.504   5.149  0.4066  0.3886 -0.0298
  698MOL0     N94146   1.056   2.414   5.170  0.5480 -0.4070 -0.2003
  698MOL0     C94147   2.150   2.116   5.188 -0.3967 -0.2067 -0.4167
  698MOL0     C94148   2.278   2.144   5.233  0.8168 -0.2476 -0.3517
  698MOL0     C94149   2.630   2.450   5.347 -0.6824 -0.1589 -0.6284
  698MOL0     C94150   2.717   2.347   5.325 -0.3464 -0.1782 -0.3777
  698MOL0     C94151   2.858   2.359   5.323  0.0952 -0.3909  0.0092
  698MOL0     C94152   2.911   2.481   5.355  0.0850 -0.8787 -0.5669
  698MOL0     O94153   3.049   2.478   5.377 -0.4091 -0.0840 -0.5228
  698MOL0     C94154   3.103   2.583   5.453 -0.0274  0.4703  0.6950
  698MOL0     C94155   3.252   2.589   5.449  0.5283  0.0918  0.2612
  698MOL0     C94156   3.324   2.476   5.521 -0.6096  0.5619 -0.6332
  698MOL0     C94157   3.477   2.504   5.511  0.1102  0.0141 -0.5294
  698MOL0     C94158   3.526   2.606   5.608  0.2044 -0.7920  0.4024
  698MOL0     C94159   3.569   2.688   5.684  0.4167  0.3468 -0.9913
  698MOL0     C94160   2.827   2.593   5.365  0.5584 -0.1959 -0.3275
  698MOL0     C94161   2.688   2.579   5.357  0.3715  0.3496 -0.4533
  698MOL0     C94162   2.594   2.700   5.367 -0.1459  0.7374 -0.0445
  698MOL0     H94163   2.205   2.478   5.304  1.9417 -0.0205  0.2199
  698MOL0     H94164   1.979   2.403   5.247 -0.0375 -1.1991 -1.1662
  698MOL0     H94165   1.796   2.340   5.109 -2.1853 -0.4907 -2.1629
  698MOL0     H94166   1.930   2.330   4.990 -0.8820 -2.1166 -2.6637
  698MOL0     H94167   1.722   2.111   4.980  1.3811 -0.5850  1.0169
  698MOL0     H94168   1.836   2.175   4.863 -0.2804 -0.7557 -0.3623
  698MOL0     H94169   1.684   2.335   4.770 -3.4895  0.3438 -0.4741
  698MOL0     H94170   1.672   2.400   4.936 -0.6893  1.6454 -1.5542
  698MOL0     H94171   1.476   2.321   4.804  1.4428 -0.1127 -0.5813
  698MOL0     H94172   1.520   2.156   4.831  0.1397  0.5326 -0.6731
  698MOL0     H94173   1.489   2.161   5.077  0.7189  0.5391 -1.1617
  698MOL0     H94174   1.475   2.343   5.060 -1.5419  0.5733 -1.2149
  698MOL0     H94175   1.263   2.334   4.983 -0.1787  0.4141  0.9550
  698MOL0     H94176   1.272   2.182   4.907  1.3964 -0.5871 -0.5507
  698MOL0     H94177   1.273   2.247   5.216  3.0777 -1.4010 -0.2846
  698MOL0     H94178   1.283   2.084   5.134  1.7963  0.5751 -0.8861
  698MOL0     H94179   1.071   2.124   5.022  2.3986 -0.9793  0.7565
  698MOL0     H94180   1.041   2.112   5.195 -4.3829  0.9668 -1.8071
  698MOL0     H94181   0.846   2.232   4.998 -1.8860  0.7975  0.0885
  698MOL0     H94182   0.649   2.478   5.091 -0.6452 -0.4776 -0.6110
  698MOL0     H94183   0.751   2.623   5.055 -1.1780 -0.6269  1.3758
  698MOL0     H94184   0.709   2.385   4.869  1.2212 -0.2347  1.9858
  698MOL0     H94185   0.624   2.541   4.860  0.7556  2.5421  3.7575
  698MOL0     H94186   0.938   2.524   4.842  0.0759 -0.1913  0.2603
  698MOL0     H94187   0.842   2.669   4.842 -0.2287  1.1325 -0.1618
  698MOL0     H94188   0.908   2.598   4.602  0.1243 -0.4018 -1.5181
  698MOL0     H94189   0.736   2.617   4.633 -1.6873 -2.3409  1.5467
  698MOL0     H94190   1.080   2.461   4.700 -0.7279 -1.0762  2.6303
  698MOL0     H94191   1.243   2.278   4.688 -0.9886  0.2393  1.3139
  698MOL0     H94192   1.249   1.725   4.544 -0.4630 -0.8317 -0.1628
  698MOL0     H94193   1.439   1.567   4.479 -0.0918  0.2877 -0.6879
  698MOL0     H94194   1.833   1.732   4.315  1.2383 -1.8609 -0.5351
  698MOL0     H94195   1.792   1.722   4.490 -0.0212 -3.2350  1.3870
  698MOL0     H94196   1.804   1.481   4.466 -1.9483  2.9952  0.0769
  698MOL0     H94197   1.858   1.501   4.296 -1.8107  1.4604 -0.6778
  698MOL0     H94198   2.024   1.602   4.555  0.2146 -1.9124  1.6422
  698MOL0     H94199   2.047   1.450   4.468  1.2052  0.7684 -1.9624
  698MOL0     H94200   2.069   1.711   4.309  1.5400 -0.7697  0.3829
  698MOL0     H94201   2.107   1.551   4.264 -2.2898  1.8867 -1.4935
  698MOL0     H94202   2.239   1.683   4.500 -2.5617 -1.1950  0.7299
  698MOL0     H94203   2.313   1.695   4.346  0.8735  0.1154  0.9477
  698MOL0     H94204   2.265   1.439   4.489 -1.7544  2.5628  0.8114
  698MOL0     H94205   2.334   1.439   4.331  0.0688  0.8136 -0.5693
  698MOL0     H94206   2.465   1.574   4.585  1.6004 -0.5031  0.1593
  698MOL0     H94207   2.528   1.602   4.426 -1.7851  1.6271 -0.1228
  698MOL0     H94208   2.580   1.328   4.428  5.0208  0.1422  0.7751
  698MOL0     H94209   2.652   1.441   4.533 -0.3466 -0.0937  0.5237
  698MOL0     H94210   1.640   1.892   4.274 -0.1609  1.4788  0.3358
  698MOL0     H94211   1.429   2.031   4.298 -1.6136 -1.2178 -0.8622
  698MOL0     H94212   0.967   2.039   4.469 -0.1742  1.0181 -0.4569
  698MOL0     H94213   0.788   2.208   4.511  1.2325  0.0225 -2.6336
  698MOL0     H94214   2.128   2.018   5.146 -0.0488 -1.4525  2.1036
  698MOL0     H94215   2.363   2.077   5.241  3.0026  2.4280  0.3998
  698MOL0     H94216   2.695   2.241   5.315  0.5150 -0.5344  1.1126
  698MOL0     H94217   2.938   2.288   5.310  0.0960 -0.4531  0.3527
  698MOL0     H94218   3.068   2.570   5.557 -1.1725  1.3461  0.4447
  698MOL0     H94219   3.073   2.679   5.410 -1.4503 -0.4290 -0.4326
  698MOL0     H94220   3.291   2.684   5.487  2.1931 -1.2795  2.3005
  698MOL0     H94221   3.269   2.586   5.341  1.8721  2.0711  0.3697
  698MOL0     H94222   3.303   2.382   5.470  0.6246  1.0731 -2.1909
  698MOL0     H94223   3.285   2.451   5.620 -3.2784 -1.8047 -2.1259
  698MOL0     H94224   3.520   2.408   5.542  0.8332  1.5162  3.8281
  698MOL0     H94225   3.501   2.531   5.408  0.5127 -2.0852 -1.0422
  698MOL0     H94226   3.593   2.763   5.756  1.9369 -1.4176  0.4687
  698MOL0     H94227   2.863   2.694   5.381 -1.1354  0.2219  1.3183
  698MOL0     H94228   2.654   2.785   5.335  1.4855 -0.1883  0.4231
  698MOL0     H94229   2.509   2.684   5.299 -0.4408 -0.1073  0.5072
  698MOL0     H94230   2.551   2.720   5.466 -1.2122 -0.1873 -0.2904
  699MOL0     O94231   9.388   4.216  10.404  0.5974 -0.1864  0.2230
  699MOL0     C94232   9.361   4.148  10.304  0.8387 -0.0060  0.0889
  699MOL0     O94233   9.443   4.053  10.262 -0.2930  0.1535  0.2453
  699MOL0     C94234   9.565   4.042  10.324 -1.2440  0.2440 -0.8584
  699MOL0     C94235   9.592   3.996  10.452 -0.4153 -0.2299 -0.1153
  699MOL0     C94236   9.720   3.983  10.504  0.4329  0.6800 -0.7567
  699MOL0     C94237   9.828   4.008  10.419 -0.7015  0.2917  0.6659
  699MOL0     O94238   9.970   4.011  10.455  0.2438  0.1374 -0.1869
  699MOL0     C94239   9.998   3.967  10.591 -0.1137 -0.7750  0.4530
  699MOL0     C94240  10.136   4.033  10.612  0.0408  0.6975  0.0594
  699MOL0     C94241  10.242   3.935  10.565  0.4477 -0.4596 -0.4608
  699MOL0     C94242  10.378   3.992  10.587  0.2971 -0.4888 -0.6852
  699MOL0     C94243  10.484   3.890  10.572 -0.2067 -0.2157  0.8250
  699MOL0     C94244  10.610   3.970  10.551 -0.1921  0.2829  0.0262
  699MOL0     C94245  10.727   3.884  10.508 -0.0772  0.1628  0.3052
  699MOL0     C94246  10.825   3.985  10.434  0.4936  0.1043 -0.8411
  699MOL0     N94247  10.957   3.932  10.431  0.2731  0.1280  0.3904
  699MOL0     C94248  11.066   3.969  10.510  0.0821  0.2026  0.3210
  699MOL0     C94249  11.162   3.877  10.476 -0.0339  0.2858 -0.8327
  699MOL0     C94250  11.301   3.909  10.514  0.8944 -0.8082 -0.0354
  699MOL0     C94251  11.346   3.851  10.650 -0.5137  0.8924  0.1768
  699MOL0     C94252  11.502   3.838  10.661 -0.2995 -0.3989 -0.9587
  699MOL0     C94253  11.540   3.797  10.804  0.5530 -0.0450 -0.0302
  699MOL0     O94254  11.521   3.891  10.897  0.2524 -0.2721  0.3994
  699MOL0     C94255  11.626   3.974  10.927  0.0946  0.9395  0.3744
  699MOL0     C94256  11.641   4.095  10.867  0.5122 -0.2796 -0.0035
  699MOL0     C94257  11.752   4.173  10.885  0.1781  0.2841 -0.9784
  699MOL0     C94258  11.849   4.130  10.974 -1.1373 -0.0337 -0.3144
  699MOL0     C94259  11.960   4.217  11.001 -0.1192  0.9061  0.7185
  699MOL0     O94260  12.062   4.163  11.073 -1.0229 -0.1890  0.2323
  699MOL0     C94261  12.170   4.238  11.110 -0.6653 -0.8459  0.4210
  699MOL0     C94262  12.271   4.261  11.016  0.0796 -0.0893  0.1158
  699MOL0     C94263  12.388   4.334  11.052 -0.1128 -0.4362  0.2708
  699MOL0     C94264  12.396   4.377  11.189  0.6055 -0.1227  0.4162
  699MOL0     O94265  12.508   4.444  11.231  0.2505 -0.3464  1.2977
  699MOL0     C94266  12.493   4.592  11.229 -0.1806  0.3899  0.0803
  699MOL0     C94267  12.629   4.679  11.247  0.1163 -0.1099  0.7389
  699MOL0     C94268  12.707   4.648  11.375  0.7146 -0.1203 -0.6307
  699MOL0     C94269  12.652   4.703  11.512  0.1687 -0.5964  0.2735
  699MOL0     C94270  12.712   4.624  11.631 -0.3514  1.2177 -0.5833
  699MOL0     C94271  12.733   4.725  11.743 -0.0077  0.3419 -0.4974
  699MOL0     C94272  12.779   4.668  11.879  0.4556 -0.0683 -0.1315
  699MOL0     C94273  12.882   4.754  11.957  0.5844 -0.1428 -0.2501
  699MOL0    Cl94274  12.804   4.897  12.032  0.0603  0.1831  0.3168
  699MOL0     C94275  12.296   4.344  11.281  0.4182  0.0253 -0.4603
  699MOL0     C94276  12.185   4.274  11.240 -0.5585 -0.6354 -0.2244
  699MOL0     O94277  11.947   4.337  10.971  0.5456  0.4822 -0.0786
  699MOL0     C94278  11.828   4.012  11.047 -0.0665  0.0892  0.3451
  699MOL0     C94279  11.722   3.927  11.023 -0.3566 -0.5477  0.5959
  699MOL0     N94280  11.114   3.793  10.381 -0.2863 -0.9258 -0.4532
  699MOL0     N94281  10.995   3.829  10.352 -0.1652  0.2115  0.0840
  699MOL0     C94282   9.805   4.033  10.282  0.5310  0.2574 -0.0613
  699MOL0     C94283   9.674   4.053  10.241 -0.1153 -0.0002  1.3205
  699MOL0     C94284   9.223   4.154  10.252 -0.0388 -1.0332 -0.0435
  699MOL0     C94285   9.197   4.084  10.136  0.0683 -0.1499 -0.1685
  699MOL0     C94286   9.067   4.082  10.075  0.6456 -0.8885 -0.2378
  699MOL0     C94287   8.964   4.158  10.129  0.7068 -0.1611  0.1886
  699MOL0     O94288   8.845   4.152  10.069 -0.3588 -0.3678 -0.3299
  699MOL0     C94289   8.726   4.135  10.151 -0.5550  0.1251  0.5482
  699MOL0     C94290   8.605   4.188  10.079  0.0363  0.0284  1.6977
  699MOL0     C94291   8.493   4.197  10.181 -0.3494  0.3502 -0.9758
  699MOL0     C94292   8.358   4.213  10.115  0.8834 -0.4125  0.5764
  699MOL0     C94293   8.316   4.103  10.033  0.2632  0.6364  0.7159
  699MOL0     C94294   8.278   4.002   9.978 -0.6035  0.2233 -0.1398
  699MOL0     C94295   8.993   4.244  10.240 -0.8649 -0.2762  0.2987
  699MOL0     C94296   9.119   4.231  10.309 -0.0490 -0.2832 -0.4598
  699MOL0     C94297   9.128   4.307  10.445  0.4408  0.0206 -0.0350
  699MOL0     H94298   9.512   3.955  10.513  0.8929  0.3320  2.0738
  699MOL0     H94299   9.721   3.960  10.610 -0.7976 -1.0325 -1.0744
  699MOL0     H94300   9.928   4.015  10.660  0.0122  0.0379  0.0212
  699MOL0     H94301   9.996   3.858  10.588  0.2779 -0.7830  0.4047
  699MOL0     H94302  10.140   4.049  10.720 -0.3811 -1.2923  0.4063
  699MOL0     H94303  10.147   4.137  10.578  0.8638  0.4762 -0.3708
  699MOL0     H94304  10.226   3.909  10.460 -0.6349  0.8147 -0.6432
  699MOL0     H94305  10.221   3.839  10.612 -0.0706 -0.6827 -1.1204
  699MOL0     H94306  10.383   4.078  10.520 -2.7704  0.4872  0.1926
  699MOL0     H94307  10.387   4.030  10.689 -0.5246 -0.0555 -0.7715
  699MOL0     H94308  10.504   3.833  10.664  2.3805 -0.6286  0.0905
  699MOL0     H94309  10.459   3.816  10.495 -1.5709  0.7863  0.2714
  699MOL0     H94310  10.601   4.044  10.471 -0.0810 -2.3233 -2.6148
  699MOL0     H94311  10.636   4.021  10.644  0.7884  0.2410 -0.2132
  699MOL0     H94312  10.703   3.809  10.432  0.9888  0.1925 -0.0703
  699MOL0     H94313  10.781   3.836  10.590  0.4065 -1.0265 -0.6859
  699MOL0     H94314  10.790   4.014  10.335 -0.8568  1.4569 -0.0191
  699MOL0     H94315  10.836   4.075  10.496  0.2550  2.4094 -3.9000
  699MOL0     H94316  11.068   4.059  10.569 -1.2091  0.5285 -0.1139
  699MOL0     H94317  11.362   3.855  10.441 -0.3882 -1.9930 -0.2774
  699MOL0     H94318  11.330   4.015  10.508  3.6305 -1.4793  0.1430
  699MOL0     H94319  11.300   3.903  10.735  0.1010 -1.8353  2.3155
  699MOL0     H94320  11.306   3.750  10.660 -0.0607  0.8960  2.5867
  699MOL0     H94321  11.553   3.930  10.630 -1.2632 -0.0417 -1.5231
  699MOL0     H94322  11.537   3.761  10.592  2.1301 -0.2049 -0.0464
  699MOL0     H94323  11.636   3.746  10.815  0.5942 -0.4183 -1.7841
  699MOL0     H94324  11.468   3.723  10.840  2.5424 -1.5778  0.9889
  699MOL0     H94325  11.567   4.141  10.802  2.4685  3.1928 -0.0184
  699MOL0     H94326  11.750   4.275  10.847 -1.9578  0.2982 -0.9784
  699MOL0     H94327  12.257   4.218  10.917  0.1449  1.5918 -0.6563
  699MOL0     H94328  12.472   4.354  10.986  0.8911 -3.1797  0.5749
  699MOL0     H94329  12.451   4.631  11.135  0.2711 -0.7928 -0.6433
  699MOL0     H94330  12.429   4.622  11.312  0.1556 -0.7939  0.7897
  699MOL0     H94331  12.693   4.665  11.160  1.3934 -1.2520  1.8101
  699MOL0     H94332  12.607   4.786  11.256 -0.1871 -0.3150  3.2490
  699MOL0     H94333  12.702   4.538  11.377 -1.8061 -0.0661 -0.8611
  699MOL0     H94334  12.807   4.684  11.351  0.7500  0.5278  0.4640
  699MOL0     H94335  12.543   4.704  11.527  0.0589  2.5393 -0.0830
  699MOL0     H94336  12.675   4.809  11.513 -2.1810  0.0191 -1.2422
  699MOL0     H94337  12.803   4.574  11.597 -1.4909 -0.6505 -1.0184
  699MOL0     H94338  12.643   4.547  11.666  0.6808 -0.6441 -2.3982
  699MOL0     H94339  12.814   4.789  11.708 -0.2279  0.1240 -1.4153
  699MOL0     H94340  12.636   4.775  11.757 -0.8205 -1.6483  1.6624
  699MOL0     H94341  12.830   4.573  11.860  2.6924  1.2061 -0.8369
  699MOL0     H94342  12.688   4.650  11.937  0.2412 -0.8271 -0.6839
  699MOL0     H94343  12.929   4.694  12.035 -0.6912 -0.9240 -0.0688
  699MOL0     H94344  12.958   4.790  11.887 -1.3571  0.9797 -1.9024
  699MOL0     H94345  12.301   4.373  11.385  3.0121  2.5003 -1.1322
  699MOL0     H94346  12.106   4.247  11.310  0.7142  0.1044  1.5854
  699MOL0     H94347  11.903   3.983  11.120  0.3707  2.3933  0.8870
  699MOL0     H94348  11.696   3.837  11.078 -1.0681  0.5411  2.1190
  699MOL0     H94349   9.878   4.024  10.201 -0.2210 -2.3197 -0.5509
  699MOL0     H94350   9.657   4.084  10.138  3.0668 -1.5404  0.2155
  699MOL0     H94351   9.279   4.035  10.085  1.8192  2.4057  0.0147
  699MOL0     H94352   9.050   4.016   9.991  1.7094  1.0601 -2.1072
  699MOL0     H94353   8.738   4.176  10.251  3.4843 -2.3802  1.3367
  699MOL0     H94354   8.707   4.029  10.175  0.5983  0.0941  1.3949
  699MOL0     H94355   8.572   4.124   9.997 -3.6559  1.1214  2.1748
  699MOL0     H94356   8.624   4.288  10.039  2.1930 -0.1551  2.1379
  699MOL0     H94357   8.513   4.290  10.235 -1.3975  1.1025 -1.8559
  699MOL0     H94358   8.481   4.108  10.244  0.7261 -0.3788 -1.7588
  699MOL0     H94359   8.279   4.231  10.189 -0.1816  2.7594 -1.1593
  699MOL0     H94360   8.357   4.295  10.043 -3.4223  0.4918  1.4094
  699MOL0     H94361   8.244   3.919   9.919 -0.2959 -0.1669  0.2263
  699MOL0     H94362   8.917   4.315  10.271 -2.2324 -2.2234  1.6397
  699MOL0     H94363   9.165   4.231  10.515  1.2389  0.5385  0.1303
  699MOL0     H94364   9.200   4.390  10.443 -0.6215  1.0160  1.2462
  699MOL0     H94365   9.034   4.352  10.477  0.5075 -1.8310  3.2318
  700MOL0     O94366   0.266   1.663   3.278  0.3513 -0.3081 -0.0325
  700MOL0     C94367   0.342   1.613   3.368  0.2393  0.5035 -0.8002
  700MOL0     O94368   0.478   1.592   3.359  0.2874 -0.0332  0.1515
  700MOL0     C94369   0.547   1.602   3.235  0.2785 -0.3709 -0.6077
  700MOL0     C94370   0.681   1.567   3.245 -0.4807  0.1527 -0.8922
  700MOL0     C94371   0.765   1.553   3.131  0.5970  0.2134 -1.3874
  700MOL0     C94372   0.711   1.574   3.005  0.6898  0.0925  0.3157
  700MOL0     O94373   0.783   1.549   2.887 -0.2366  0.2741 -0.4687
  700MOL0     C94374   0.923   1.500   2.888  0.2189  0.1210  0.5508
  700MOL0     C94375   0.978   1.507   2.741 -0.1817 -0.4319  0.9734
  700MOL0     C94376   1.126   1.479   2.730  0.1452 -0.5817  0.7834
  700MOL0     C94377   1.184   1.551   2.611 -0.2447  0.6352  0.0928
  700MOL0     C94378   1.136   1.511   2.468  0.0569 -1.1963  0.3792
  700MOL0     C94379   1.233   1.413   2.419 -0.5803  1.0755  0.1290
  700MOL0     C94380   1.202   1.389   2.272 -0.0298  0.9353  0.0090
  700MOL0     C94381   1.287   1.283   2.206  0.2681 -0.5550 -0.4804
  700MOL0     N94382   1.429   1.300   2.228 -0.3627 -0.2703  0.0815
  700MOL0     C94383   1.502   1.232   2.325 -0.4652  0.0936  0.9927
  700MOL0     C94384   1.628   1.273   2.314 -0.3296  0.2263 -0.2954
  700MOL0     C94385   1.741   1.228   2.394 -0.0281  1.0159 -0.2395
  700MOL0     C94386   1.823   1.123   2.319  0.3232 -0.0304  0.6907
  700MOL0     C94387   1.935   1.057   2.400 -1.0296 -0.0997  0.3350
  700MOL0     C94388   2.002   0.939   2.327  0.0664  0.3762 -0.3478
  700MOL0     O94389   2.099   0.875   2.411 -0.3853 -0.0957  0.0117
  700MOL0     C94390   2.226   0.849   2.365  0.7935 -0.1467 -0.1492
  700MOL0     C94391   2.320   0.816   2.467 -0.0434 -0.1178  0.1248
  700MOL0     C94392   2.455   0.807   2.446 -0.1680 -0.3898  0.2346
  700MOL0     C94393   2.502   0.814   2.314 -0.4004  0.5358 -0.1350
  700MOL0     C94394   2.642   0.811   2.286 -0.2310 -0.1541 -0.2287
  700MOL0     O94395   2.677   0.825   2.152  0.4476  1.1109 -0.3370
  700MOL0     C94396   2.805   0.793   2.115  0.4338 -0.6979 -0.3617
  700MOL0     C94397   2.927   0.833   2.183 -0.4205  1.6210  0.1312
  700MOL0     C94398   3.054   0.800   2.129 -0.8399  1.4279 -1.0644
  700MOL0     C94399   3.064   0.729   2.008  0.1468 -0.2075 -0.4619
  700MOL0     O94400   3.186   0.695   1.955  0.0846 -0.3541 -0.3428
  700MOL0     C94401   3.273   0.647   2.052 -0.6745  0.4801  1.0215
  700MOL0     C94402   3.373   0.540   1.993 -0.1986  0.1855 -0.4743
  700MOL0     C94403   3.473   0.499   2.103  0.5176 -0.9077  0.5405
  700MOL0     C94404   3.588   0.595   2.138  0.8520  0.6935 -1.6721
  700MOL0     C94405   3.714   0.525   2.200  0.4754  0.4551  0.3415
  700MOL0     C94406   3.796   0.471   2.086 -0.4977  0.2173  0.5072
  700MOL0     C94407   3.936   0.429   2.123  0.1796 -0.1312 -0.9772
  700MOL0     C94408   3.989   0.317   2.028 -0.5326 -0.6309 -0.7633
  700MOL0    Cl94409   4.136   0.253   2.106  0.2097  0.0460  0.0594
  700MOL0     C94410   2.941   0.697   1.944 -0.2419 -0.2551  0.2711
  700MOL0     C94411   2.821   0.726   1.994 -0.0114 -0.6825  0.1467
  700MOL0     O94412   2.716   0.803   2.381 -0.8178 -0.7818 -0.0357
  700MOL0     C94413   2.402   0.828   2.206 -0.6541  0.5862 -1.4034
  700MOL0     C94414   2.271   0.848   2.234 -1.0172  0.4235 -0.1896
  700MOL0     N94415   1.638   1.368   2.222  0.0174 -0.7273  1.1311
  700MOL0     N94416   1.519   1.381   2.162  0.1636 -0.5386 -0.2163
  700MOL0     C94417   0.573   1.609   2.995  0.5897  0.1336 -0.4079
  700MOL0     C94418   0.493   1.616   3.108  0.3947  0.4395  0.2800
  700MOL0     C94419   0.277   1.589   3.503 -0.2142  0.4707 -0.1366
  700MOL0     C94420   0.149   1.649   3.538  0.0366 -0.1272 -0.0248
  700MOL0     C94421   0.099   1.634   3.670  0.1183 -0.2078  0.8644
  700MOL0     C94422   0.158   1.555   3.762 -0.3850 -0.0999 -0.5976
  700MOL0     O94423   0.118   1.555   3.896  0.2292 -0.4266 -0.1668
  700MOL0     C94424  -0.016   1.563   3.938 -0.4319 -0.2782  0.2800
  700MOL0     C94425  -0.056   1.518   4.078 -0.1315 -0.1459 -0.3928
  700MOL0     C94426  -0.067   1.364   4.077  0.0386  0.0494 -0.5412
  700MOL0     C94427  -0.083   1.309   4.209  0.4328 -0.1062 -0.0746
  700MOL0     C94428  -0.220   1.275   4.252  0.6727 -1.0552 -0.1387
  700MOL0     C94429  -0.330   1.250   4.304  0.7444  0.4407  0.8253
  700MOL0     C94430   0.281   1.497   3.728  0.0658  0.4146 -0.4568
  700MOL0     C94431   0.338   1.513   3.599 -0.1788 -0.2935 -1.4226
  700MOL0     C94432   0.476   1.449   3.592  0.1680  0.0251 -0.1123
  700MOL0     H94433   0.712   1.546   3.347 -0.8809  1.2687 -0.5251
  700MOL0     H94434   0.867   1.517   3.139  1.5365  2.7327 -1.1360
  700MOL0     H94435   0.985   1.564   2.952  2.5511 -0.8893 -0.5728
  700MOL0     H94436   0.928   1.399   2.931 -1.1008  0.4852  1.6207
  700MOL0     H94437   0.960   1.611   2.715  0.4762 -0.9215 -1.8698
  700MOL0     H94438   0.914   1.448   2.675  0.7157 -0.2308 -0.1138
  700MOL0     H94439   1.137   1.371   2.717 -1.7909 -0.9962  2.1740
  700MOL0     H94440   1.181   1.509   2.820  1.0936 -0.3307  0.1357
  700MOL0     H94441   1.170   1.660   2.618  0.3989  0.7196  0.1135
  700MOL0     H94442   1.293   1.543   2.617  0.0734  3.3073 -0.7503
  700MOL0     H94443   1.042   1.454   2.469 -0.8518  0.1808  2.7992
  700MOL0     H94444   1.122   1.603   2.410  1.7028 -0.4660  1.0966
  700MOL0     H94445   1.336   1.451   2.423 -0.7876  1.6365  3.9419
  700MOL0     H94446   1.225   1.317   2.469  1.6095 -0.2652 -1.8707
  700MOL0     H94447   1.211   1.487   2.224 -2.3566  0.9957 -0.4280
  700MOL0     H94448   1.101   1.348   2.259 -0.1420  0.9797  0.6863
  700MOL0     H94449   1.252   1.188   2.246  0.8784 -0.2125  0.9425
  700MOL0     H94450   1.268   1.293   2.099 -3.1221  1.4705  0.1558
  700MOL0     H94451   1.459   1.159   2.393 -1.9626  1.1690  1.2373
  700MOL0     H94452   1.808   1.313   2.410  0.8527  0.2395  0.2787
  700MOL0     H94453   1.717   1.187   2.493  0.9506  1.7609  0.3283
  700MOL0     H94454   1.747   1.048   2.295 -2.2060  2.6539 -0.3375
  700MOL0     H94455   1.857   1.162   2.222 -3.5866  1.2130 -0.3941
  700MOL0     H94456   1.900   1.018   2.496 -0.3004 -2.1027 -0.1475
  700MOL0     H94457   2.020   1.125   2.408 -1.3744  0.2959  0.6516
  700MOL0     H94458   2.045   0.978   2.234  2.9950 -1.7080 -0.0159
  700MOL0     H94459   1.926   0.863   2.305  0.5074 -0.3347  0.5288
  700MOL0     H94460   2.287   0.808   2.570 -0.0576  1.2315  0.2488
  700MOL0     H94461   2.517   0.781   2.531  1.5516  0.9461 -0.5624
  700MOL0     H94462   2.914   0.894   2.271 -3.4356 -0.0283  0.9814
  700MOL0     H94463   3.149   0.838   2.166  0.9581 -0.0135 -3.8727
  700MOL0     H94464   3.343   0.727   2.077  4.0763 -2.0895 -2.3218
  700MOL0     H94465   3.234   0.594   2.139  1.2398 -2.0752  0.4593
  700MOL0     H94466   3.317   0.449   1.972  0.9485 -0.6726  0.0918
  700MOL0     H94467   3.424   0.586   1.908  1.9087  0.9497  1.1192
  700MOL0     H94468   3.419   0.458   2.188  0.7431 -2.1361  0.1068
  700MOL0     H94469   3.531   0.413   2.069  0.7360  0.0821 -1.7413
  700MOL0     H94470   3.547   0.665   2.212 -1.5706 -1.0926 -1.2084
  700MOL0     H94471   3.614   0.650   2.047  0.5009  0.2072 -2.0699
  700MOL0     H94472   3.679   0.441   2.260 -1.2698  1.7611  1.2164
  700MOL0     H94473   3.757   0.589   2.277 -4.3725  2.1698  1.9493
  700MOL0     H94474   3.742   0.391   2.034 -1.9085  0.5167  1.4518
  700MOL0     H94475   3.805   0.550   2.010 -0.6627 -1.8005 -1.7393
  700MOL0     H94476   3.936   0.398   2.228  1.5533  2.2965 -0.1818
  700MOL0     H94477   4.003   0.515   2.129 -0.5159  0.4011 -0.6852
  700MOL0     H94478   3.926   0.228   2.012  1.5465 -2.2143 -0.6546
  700MOL0     H94479   4.024   0.367   1.937  1.6418  0.3554  0.5527
  700MOL0     H94480   2.954   0.643   1.851  0.5743  0.3081  0.0361
  700MOL0     H94481   2.738   0.695   1.931 -0.0838 -1.6170  0.6785
  700MOL0     H94482   2.442   0.826   2.105  0.7343 -2.0564 -0.8833
  700MOL0     H94483   2.200   0.851   2.152  0.1590  0.3181 -1.2469
  700MOL0     H94484   0.538   1.633   2.895  1.0429  0.4336 -0.4982
  700MOL0     H94485   0.389   1.640   3.092  0.1272  0.4966  1.9155
  700MOL0     H94486   0.096   1.696   3.455 -1.7846 -2.4031 -0.2308
  700MOL0     H94487   0.007   1.675   3.709  1.7577  0.1849  4.8346
  700MOL0     H94488  -0.081   1.507   3.870  0.5906 -1.3646  0.1650
  700MOL0     H94489  -0.040   1.667   3.917 -0.0599 -0.6372 -2.3016
  700MOL0     H94490  -0.154   1.556   4.107  0.4813 -1.1948  3.6025
  700MOL0     H94491   0.015   1.558   4.152 -0.9996  1.5311 -0.4197
  700MOL0     H94492   0.024   1.320   4.035  0.9979 -1.0238  2.4111
  700MOL0     H94493  -0.152   1.336   4.014 -0.6152  1.9952 -0.5754
  700MOL0     H94494  -0.026   1.216   4.209 -0.0605 -0.4309 -1.2261
  700MOL0     H94495  -0.039   1.385   4.274  1.1702 -0.0942 -0.5769
  700MOL0     H94496  -0.427   1.222   4.341  0.9968 -0.8396  0.5568
  700MOL0     H94497   0.338   1.444   3.803 -1.2426 -0.8964 -0.3646
  700MOL0     H94498   0.476   1.369   3.518  0.8141 -1.2902  1.2384
  700MOL0     H94499   0.555   1.521   3.568 -1.4656  2.5362  1.4445
  700MOL0     H94500   0.514   1.412   3.688  0.7944 -0.7297 -0.6408
  701MOL0     O94501   1.385   6.693   2.616  0.2564  0.2622 -0.1026
  701MOL0     C94502   1.295   6.749   2.684 -0.0731 -0.0776 -0.0272
  701MOL0     O94503   1.318   6.842   2.772 -0.6709 -0.5588  0.8596
  701MOL0     C94504   1.434   6.918   2.755  0.6288 -0.1488 -0.6903
  701MOL0     C94505   1.548   6.860   2.801 -0.3083  0.5434 -0.3661
  701MOL0     C94506   1.668   6.930   2.797 -0.0807  0.0395 -0.1858
  701MOL0     C94507   1.665   7.059   2.746  0.4173 -0.2559 -0.0577
  701MOL0     O94508   1.776   7.126   2.775  0.1880 -0.1639 -0.1660
  701MOL0     C94509   1.792   7.251   2.712 -0.2683 -0.0242  0.3994
  701MOL0     C94510   1.924   7.313   2.769 -0.1760  0.1514  0.4772
  701MOL0     C94511   2.020   7.335   2.649  0.5751  1.1705 -0.2812
  701MOL0     C94512   2.159   7.386   2.670  0.9442  0.0050 -0.3608
  701MOL0     C94513   2.246   7.308   2.767  0.1324  0.0351 -1.0917
  701MOL0     C94514   2.276   7.183   2.687  0.7849  0.4916  0.5798
  701MOL0     C94515   2.406   7.114   2.727 -0.2916 -0.1106 -0.2546
  701MOL0     C94516   2.430   6.983   2.665 -1.0410 -0.2375 -0.1687
  701MOL0     N94517   2.466   7.002   2.524  0.0146  0.0285  0.2167
  701MOL0     C94518   2.553   7.096   2.469  0.9244  0.2146  1.3748
  701MOL0     C94519   2.569   7.057   2.341 -0.2969 -1.3550  0.6204
  701MOL0     C94520   2.636   7.136   2.228  0.2666 -0.2652 -0.1301
  701MOL0     C94521   2.785   7.118   2.208  0.0472  0.5991  1.0786
  701MOL0     C94522   2.824   6.963   2.196 -0.3760  0.3748  0.2111
  701MOL0     C94523   2.971   6.930   2.167  0.2140  0.3837  0.4366
  701MOL0     O94524   3.047   6.983   2.279  0.7452 -0.4001 -0.6186
  701MOL0     C94525   3.175   6.958   2.284 -0.7029 -1.3166  0.6591
  701MOL0     C94526   3.260   6.916   2.180  0.0078 -0.5141  1.1069
  701MOL0     C94527   3.391   6.888   2.202 -0.4041  0.6301  0.2601
  701MOL0     C94528   3.454   6.920   2.326  0.5770  0.2834  0.1185
  701MOL0     C94529   3.598   6.913   2.338 -0.1075  0.1227 -0.3649
  701MOL0     O94530   3.669   6.858   2.233  0.3523  0.0073  0.2199
  701MOL0     C94531   3.808   6.847   2.224  0.5702 -0.2088 -0.4876
  701MOL0     C94532   3.861   6.785   2.107 -0.2112  0.8245 -0.3217
  701MOL0     C94533   3.996   6.767   2.098  0.3238 -0.0010 -0.1843
  701MOL0     C94534   4.093   6.804   2.192  0.2168  0.4192  0.0803
  701MOL0     O94535   4.223   6.783   2.154  0.4680 -0.5229 -0.5097
  701MOL0     C94536   4.312   6.779   2.263 -0.7779  0.9387  0.3224
  701MOL0     C94537   4.442   6.720   2.221  0.3492 -0.0574 -0.1772
  701MOL0     C94538   4.547   6.745   2.332 -0.5206 -0.5457 -0.8524
  701MOL0     C94539   4.689   6.704   2.290  0.0928 -0.2870  0.5750
  701MOL0     C94540   4.792   6.729   2.397 -0.1893  0.1368  0.2884
  701MOL0     C94541   4.924   6.663   2.356  0.6969  0.2345 -0.3839
  701MOL0     C94542   5.023   6.674   2.471  0.7809 -0.3490  0.0707
  701MOL0     C94543   5.159   6.608   2.434 -0.6307 -0.2667  0.1029
  701MOL0    Cl94544   5.205   6.651   2.262  0.5991 -0.0036 -0.1982
  701MOL0     C94545   4.045   6.870   2.306 -0.4486 -0.2373  1.1250
  701MOL0     C94546   3.904   6.889   2.318  0.0327  0.1252  0.4121
  701MOL0     O94547   3.645   6.976   2.434 -0.1886 -0.5867 -0.4715
  701MOL0     C94548   3.374   6.983   2.423  0.5008 -1.3279  0.0611
  701MOL0     C94549   3.237   6.991   2.407  0.4904  0.1310  0.9264
  701MOL0     N94550   2.498   6.944   2.319  0.3908  0.1372 -0.5891
  701MOL0     N94551   2.435   6.910   2.434  0.3401  0.1763  0.0461
  701MOL0     C94552   1.544   7.119   2.708  0.4645 -0.1315  0.5587
  701MOL0     C94553   1.432   7.048   2.713 -0.3565 -0.1174  0.4400
  701MOL0     C94554   1.159   6.679   2.675 -0.2324 -0.7992  0.3202
  701MOL0     C94555   1.148   6.554   2.607 -0.0950  0.1454 -0.0577
  701MOL0     C94556   1.033   6.477   2.605 -0.1017  1.2662 -0.3712
  701MOL0     C94557   0.932   6.519   2.691 -0.1927 -0.1685  0.5351
  701MOL0     O94558   0.813   6.462   2.714 -0.4479 -0.4427 -0.7490
  701MOL0     C94559   0.769   6.358   2.631 -0.3046  0.1096  0.2773
  701MOL0     C94560   0.726   6.418   2.495 -0.4064  0.1132  0.7234
  701MOL0     C94561   0.576   6.447   2.492 -0.5334 -1.2196 -0.8179
  701MOL0     C94562   0.544   6.588   2.544 -0.6948 -0.4578  0.4823
  701MOL0     C94563   0.571   6.691   2.438 -0.1145  0.5517 -0.3587
  701MOL0     C94564   0.588   6.775   2.350 -0.1033  0.0563 -0.0202
  701MOL0     C94565   0.942   6.628   2.767 -0.2419  0.5175  0.3641
  701MOL0     C94566   1.048   6.718   2.756 -0.2861 -0.6068  0.3202
  701MOL0     C94567   1.032   6.850   2.830 -0.0019 -0.1403  0.5201
  701MOL0     H94568   1.541   6.759   2.840 -3.1910  0.6798 -0.2935
  701MOL0     H94569   1.762   6.890   2.835  0.2448  1.4019  0.5206
  701MOL0     H94570   1.797   7.222   2.606  1.5010 -1.0875  0.7345
  701MOL0     H94571   1.705   7.314   2.735 -1.0274 -0.6823 -0.5391
  701MOL0     H94572   1.973   7.243   2.837 -1.4389 -0.5320  0.7211
  701MOL0     H94573   1.912   7.406   2.825 -0.2761  0.5380 -0.1695
  701MOL0     H94574   1.970   7.413   2.590 -0.7346  2.0935  1.9310
  701MOL0     H94575   2.028   7.236   2.602 -0.3102  0.0446  1.8078
  701MOL0     H94576   2.212   7.408   2.577  0.9644 -1.6553 -0.7699
  701MOL0     H94577   2.147   7.482   2.721  5.8274  1.3425 -1.1928
  701MOL0     H94578   2.340   7.362   2.780  0.0890 -0.5000  2.5594
  701MOL0     H94579   2.199   7.285   2.863  1.2447  2.0700  0.0052
  701MOL0     H94580   2.197   7.107   2.689  1.3346 -0.0785  1.1845
  701MOL0     H94581   2.290   7.220   2.585  3.2478  0.4240  0.8291
  701MOL0     H94582   2.383   7.097   2.832 -2.5575  2.0126 -0.3128
  701MOL0     H94583   2.500   7.169   2.719 -0.0106 -0.5843 -0.2493
  701MOL0     H94584   2.519   6.931   2.703 -0.3608 -0.5197 -2.0220
  701MOL0     H94585   2.350   6.912   2.686 -0.6123 -0.3859  1.0215
  701MOL0     H94586   2.586   7.192   2.506 -1.1197  1.2802  0.5527
  701MOL0     H94587   2.587   7.102   2.136 -1.7055  0.5231  0.5865
  701MOL0     H94588   2.620   7.244   2.235 -2.4762 -0.5584 -0.8304
  701MOL0     H94589   2.806   7.166   2.111 -2.3576  2.4162  1.3411
  701MOL0     H94590   2.837   7.162   2.293  0.4195 -0.5351  1.4472
  701MOL0     H94591   2.753   6.918   2.125 -1.4228  0.0897  1.4010
  701MOL0     H94592   2.810   6.920   2.296  1.1014  2.2160  1.2748
  701MOL0     H94593   2.998   6.966   2.068 -1.0881 -0.3664 -0.2232
  701MOL0     H94594   2.987   6.822   2.160 -1.1316  0.0983  1.3294
  701MOL0     H94595   3.210   6.895   2.086 -1.2927  1.0971  1.3903
  701MOL0     H94596   3.447   6.843   2.121 -2.1017 -0.5285 -0.3276
  701MOL0     H94597   3.792   6.742   2.036 -1.1298  2.7151 -0.6213
  701MOL0     H94598   4.032   6.715   2.010  1.2942  1.0008 -0.3970
  701MOL0     H94599   4.335   6.881   2.295  2.3841  1.5234 -3.2259
  701MOL0     H94600   4.275   6.718   2.347  3.4365  0.3765  2.0351
  701MOL0     H94601   4.409   6.618   2.199  1.0947 -0.0683 -1.2993
  701MOL0     H94602   4.468   6.779   2.133  0.4588 -1.2873 -0.9827
  701MOL0     H94603   4.558   6.850   2.361  0.6373  0.0773 -3.2701
  701MOL0     H94604   4.527   6.684   2.420  0.1588  1.5774  0.8837
  701MOL0     H94605   4.725   6.768   2.209  0.5988 -2.0263 -0.6328
  701MOL0     H94606   4.686   6.599   2.260  1.1192 -0.3081  0.5055
  701MOL0     H94607   4.747   6.686   2.487  2.0141 -0.4733  1.1589
  701MOL0     H94608   4.815   6.834   2.417  1.0449  0.2348 -1.4179
  701MOL0     H94609   4.906   6.557   2.337  2.0607 -0.2558  0.8377
  701MOL0     H94610   4.952   6.710   2.261  1.3375 -1.4868 -1.0751
  701MOL0     H94611   4.973   6.633   2.559 -1.7948  2.0011 -0.1338
  701MOL0     H94612   5.043   6.778   2.498 -0.5443 -0.1588  0.4013
  701MOL0     H94613   5.239   6.660   2.489 -1.5620  2.8816 -1.2563
  701MOL0     H94614   5.157   6.500   2.447  0.1875 -0.2358  0.5240
  701MOL0     H94615   4.119   6.914   2.372 -1.0695  1.2860  0.8653
  701MOL0     H94616   3.884   6.952   2.404 -1.8064  3.1857 -2.0301
  701MOL0     H94617   3.417   7.020   2.515 -0.9492  0.9768 -0.1088
  701MOL0     H94618   3.177   7.031   2.488  0.3543 -0.0781  0.9282
  701MOL0     H94619   1.539   7.222   2.672 -4.6816 -0.8275 -1.4927
  701MOL0     H94620   1.335   7.091   2.690 -0.9277 -0.2939  2.3648
  701MOL0     H94621   1.232   6.513   2.550  0.5658  2.8118 -1.1512
  701MOL0     H94622   1.020   6.384   2.551  0.0774  2.2394 -2.1331
  701MOL0     H94623   0.682   6.305   2.669 -0.5424 -0.0951 -0.5260
  701MOL0     H94624   0.844   6.281   2.610  0.0258  0.5057 -0.0154
  701MOL0     H94625   0.735   6.332   2.428  1.2119  0.8644 -0.0941
  701MOL0     H94626   0.784   6.505   2.463 -0.1345  0.8897  3.0720
  701MOL0     H94627   0.530   6.380   2.564  1.0230 -0.8783  0.5702
  701MOL0     H94628   0.547   6.446   2.386 -0.8580 -1.6009 -0.7259
  701MOL0     H94629   0.437   6.591   2.565 -0.6405 -1.2033  0.8863
  701MOL0     H94630   0.606   6.610   2.632 -0.3447  1.4491 -0.1775
  701MOL0     H94631   0.608   6.842   2.269  1.1682 -1.2948 -0.8630
  701MOL0     H94632   0.857   6.661   2.825 -2.0059 -2.3685 -0.3896
  701MOL0     H94633   1.049   6.939   2.769  1.8263  1.8373  3.6529
  701MOL0     H94634   0.929   6.866   2.865  0.1616  0.8798  0.5676
  701MOL0     H94635   1.108   6.855   2.909  0.8777 -0.0542 -0.3141
  702MOL0     O94636   5.985   3.844  11.115 -0.0166 -0.1224  0.5356
  702MOL0     C94637   5.983   3.759  11.200 -0.6177  0.8790 -0.0204
  702MOL0     O94638   6.092   3.679  11.236 -0.1909  0.8180 -0.5120
  702MOL0     C94639   6.200   3.673  11.152  0.1993  0.2740 -0.4870
  702MOL0     C94640   6.303   3.764  11.179 -0.9280 -0.4563 -0.6685
  702MOL0     C94641   6.416   3.763  11.106  0.6706 -0.6341 -0.0167
  702MOL0     C94642   6.426   3.687  10.991  0.2057 -0.1057 -0.2108
  702MOL0     O94643   6.528   3.696  10.897  0.2716 -0.3170 -0.2694
  702MOL0     C94644   6.651   3.706  10.950  0.1938 -0.2431 -0.2637
  702MOL0     C94645   6.754   3.663  10.848 -0.0260  1.1238 -0.3550
  702MOL0     C94646   6.894   3.718  10.892  1.4823 -0.9496  0.6434
  702MOL0     C94647   6.997   3.649  10.797  0.2973  0.4033 -0.0065
  702MOL0     C94648   7.139   3.712  10.824  0.0169 -0.1991 -0.5741
  702MOL0     C94649   7.214   3.612  10.907 -0.5424 -0.6207  0.7042
  702MOL0     C94650   7.363   3.640  10.927  0.8159  0.1017 -0.5303
  702MOL0     C94651   7.407   3.784  10.893  0.1704  0.6978 -0.4577
  702MOL0     N94652   7.554   3.812  10.933  0.3925  0.8794 -0.3011
  702MOL0     C94653   7.641   3.848  10.832 -0.8338  0.0233  0.0551
  702MOL0     C94654   7.749   3.882  10.896 -0.7603  1.4922  0.1228
  702MOL0     C94655   7.889   3.919  10.841 -0.3616  0.4494 -0.0574
  702MOL0     C94656   8.011   3.850  10.905 -0.1842 -0.1296  0.3051
  702MOL0     C94657   8.129   3.883  10.808  0.3906 -0.7786 -0.3506
  702MOL0     C94658   8.268   3.857  10.878 -0.5213  0.2489  0.0678
  702MOL0     O94659   8.304   3.969  10.961 -0.1518 -0.6636  0.3516
  702MOL0     C94660   8.430   3.973  11.019  0.5336 -0.8853  0.0352
  702MOL0     C94661   8.469   4.099  11.063 -0.9050 -0.1054 -0.0736
  702MOL0     C94662   8.603   4.117  11.103 -0.2307  0.2194 -0.4250
  702MOL0     C94663   8.691   4.007  11.088  0.0744  0.9738  0.2576
  702MOL0     C94664   8.833   4.005  11.126  0.1439 -1.3583 -0.5778
  702MOL0     O94665   8.915   3.894  11.117 -0.5585 -0.2866  0.5779
  702MOL0     C94666   9.052   3.888  11.155  0.4359 -0.0190  0.8078
  702MOL0     C94667   9.105   3.757  11.167 -0.2185  0.3842  0.4775
  702MOL0     C94668   9.243   3.729  11.195 -0.1230 -0.0480 -0.4837
  702MOL0     C94669   9.333   3.842  11.216 -0.0963  0.3556  0.2560
  702MOL0     O94670   9.471   3.830  11.243  0.3456 -0.5999 -0.5699
  702MOL0     C94671   9.545   3.735  11.171 -1.5259  0.8279  0.7736
  702MOL0     C94672   9.699   3.745  11.207 -0.1258  0.8371 -0.7269
  702MOL0     C94673   9.765   3.609  11.186  0.0804  0.7832  0.5561
  702MOL0     C94674   9.909   3.608  11.226 -0.7949 -0.7051  0.5363
  702MOL0     C94675   9.954   3.462  11.212  1.2712 -0.1682  0.0511
  702MOL0     C94676  10.106   3.467  11.256 -0.4302  0.6064 -0.2784
  702MOL0     C94677  10.191   3.349  11.202  0.6181 -1.5275  0.2431
  702MOL0     C94678  10.327   3.342  11.277  0.1778 -0.8080  0.1760
  702MOL0    Cl94679  10.423   3.223  11.197 -0.2653 -0.0752 -0.0119
  702MOL0     C94680   9.274   3.965  11.201 -0.3488  0.0543  0.1569
  702MOL0     C94681   9.142   3.984  11.167 -0.4336 -0.1765  0.8885
  702MOL0     O94682   8.879   4.117  11.162  0.5549 -0.4518  0.1757
  702MOL0     C94683   8.642   3.882  11.039 -0.2650  0.1193 -0.5761
  702MOL0     C94684   8.514   3.870  11.009  0.2237  0.8131 -0.2408
  702MOL0     N94685   7.729   3.873  11.032  0.4315 -0.1330 -0.1128
  702MOL0     N94686   7.602   3.837  11.057 -0.3158  0.0494  0.7401
  702MOL0     C94687   6.323   3.595  10.963 -0.9251  0.1475 -0.5170
  702MOL0     C94688   6.212   3.582  11.051 -0.5318  0.1828 -0.0069
  702MOL0     C94689   5.858   3.733  11.285 -0.8610  0.0612 -0.7637
  702MOL0     C94690   5.875   3.680  11.411 -0.6008 -0.2252 -0.0233
  702MOL0     C94691   5.773   3.677  11.503  0.2734  1.0652 -0.2883
  702MOL0     C94692   5.646   3.727  11.461 -1.0730  0.3287  0.0002
  702MOL0     O94693   5.552   3.739  11.560 -1.2073  0.2959  0.6685
  702MOL0     C94694   5.411   3.786  11.539 -0.6825  0.1500  0.2080
  702MOL0     C94695   5.328   3.676  11.483  0.0273  0.2043  0.2785
  702MOL0     C94696   5.179   3.695  11.480 -0.1978 -0.5249  0.5796
  702MOL0     C94697   5.096   3.571  11.468 -0.4386  0.0302 -0.3172
  702MOL0     C94698   5.100   3.474  11.579 -0.0478 -0.0594 -0.2569
  702MOL0     C94699   5.107   3.396  11.672 -0.2324 -0.1918  0.0842
  702MOL0     C94700   5.624   3.771  11.335 -0.5072 -0.1141 -0.0279
  702MOL0     C94701   5.733   3.776  11.240  0.5829  0.5941 -0.9802
  702MOL0     C94702   5.700   3.831  11.106 -0.9005 -0.7768 -0.3679
  702MOL0     H94703   6.288   3.837  11.258  0.4731  0.0960 -0.8814
  702MOL0     H94704   6.488   3.841  11.128  0.3641  0.3224 -2.1818
  702MOL0     H94705   6.664   3.806  10.994 -4.8831  0.8278 -0.6311
  702MOL0     H94706   6.654   3.638  11.036  0.7522 -0.4676 -0.4524
  702MOL0     H94707   6.736   3.698  10.746  2.5239 -0.9824 -1.6504
  702MOL0     H94708   6.748   3.553  10.847 -1.3613  1.1691  0.3479
  702MOL0     H94709   6.916   3.720  10.999  0.3810  1.6070  0.8811
  702MOL0     H94710   6.898   3.822  10.859  0.2464 -1.1151 -0.1032
  702MOL0     H94711   6.995   3.542  10.819  0.8584 -0.2971 -2.9294
  702MOL0     H94712   6.969   3.664  10.692  2.1605 -1.3046 -0.8087
  702MOL0     H94713   7.189   3.738  10.730  1.3386 -0.0656  0.1361
  702MOL0     H94714   7.128   3.799  10.890 -3.9032 -2.1045  1.6358
  702MOL0     H94715   7.161   3.612  11.002 -1.3795 -1.3733  0.2565
  702MOL0     H94716   7.198   3.515  10.858  0.2707 -0.3618 -0.1215
  702MOL0     H94717   7.431   3.575  10.870  1.9335  0.9731 -0.2350
  702MOL0     H94718   7.382   3.611  11.030  0.4681  1.1808 -0.1514
  702MOL0     H94719   7.396   3.812  10.788  0.8919  0.3604 -0.6267
  702MOL0     H94720   7.344   3.858  10.944 -1.3895 -0.7039 -0.2705
  702MOL0     H94721   7.618   3.855  10.726  0.6695 -0.3248 -0.3224
  702MOL0     H94722   7.881   3.885  10.737  0.8639 -0.2611  0.0598
  702MOL0     H94723   7.907   4.027  10.848 -0.2517  0.3154  2.8649
  702MOL0     H94724   8.035   3.895  11.002  1.2092  1.3379 -0.6671
  702MOL0     H94725   7.994   3.743  10.916  2.9216 -0.5967  1.4888
  702MOL0     H94726   8.118   3.990  10.789  0.4105 -0.8846 -0.9603
  702MOL0     H94727   8.129   3.825  10.716  0.1702 -0.3579 -0.6191
  702MOL0     H94728   8.328   3.837  10.788 -4.6147 -0.7221 -2.7385
  702MOL0     H94729   8.260   3.765  10.937  0.0937  0.8571  1.1184
  702MOL0     H94730   8.387   4.170  11.068 -0.4307  0.4526 -0.1070
  702MOL0     H94731   8.644   4.207  11.148 -0.0348  0.5717 -1.2826
  702MOL0     H94732   9.039   3.672  11.153  1.4706 -0.7827 -0.7240
  702MOL0     H94733   9.277   3.626  11.190 -2.3150 -0.7628 -2.0127
  702MOL0     H94734   9.510   3.634  11.190 -2.4235  1.1995  1.1628
  702MOL0     H94735   9.524   3.747  11.064 -1.4749  1.0963  0.7923
  702MOL0     H94736   9.758   3.818  11.151 -0.0421  0.9909 -0.4421
  702MOL0     H94737   9.703   3.771  11.313 -1.2768 -2.6631  0.3021
  702MOL0     H94738   9.714   3.533  11.245  2.4602 -1.1153  0.3060
  702MOL0     H94739   9.755   3.593  11.078 -1.0718  1.8845  0.4752
  702MOL0     H94740   9.925   3.644  11.328  1.2526 -1.6963  0.6028
  702MOL0     H94741   9.968   3.669  11.157  0.2878 -0.6305  1.4995
  702MOL0     H94742   9.938   3.422  11.111 -1.2924 -2.6500  1.3144
  702MOL0     H94743   9.909   3.395  11.286  2.3585 -1.0856 -0.0789
  702MOL0     H94744  10.147   3.565  11.233 -2.5610  1.4228 -0.8715
  702MOL0     H94745  10.107   3.450  11.364 -2.5746 -0.4805 -0.3644
  702MOL0     H94746  10.216   3.362  11.096 -1.6453 -1.5595 -0.3644
  702MOL0     H94747  10.128   3.261  11.220 -1.9893  0.7709  3.8449
  702MOL0     H94748  10.368   3.442  11.261 -0.5886 -0.6287 -0.7730
  702MOL0     H94749  10.323   3.332  11.385  1.9395  0.0167  0.3567
  702MOL0     H94750   9.326   4.059  11.211 -0.4416  0.1623 -0.3656
  702MOL0     H94751   9.102   4.082  11.145 -1.4803 -0.6037  0.8120
  702MOL0     H94752   8.709   3.796  11.030  3.0673  2.3801  0.5957
  702MOL0     H94753   8.473   3.774  10.978 -2.2833  0.8063  2.5847
  702MOL0     H94754   6.350   3.542  10.872  2.4649  1.2424 -0.2996
  702MOL0     H94755   6.145   3.500  11.028  1.2229 -1.3571  0.1229
  702MOL0     H94756   5.975   3.652  11.444 -0.3918 -0.4806 -0.8471
  702MOL0     H94757   5.783   3.634  11.602 -1.4306 -0.2083 -0.6187
  702MOL0     H94758   5.393   3.871  11.472  0.1153  0.0313 -0.1644
  702MOL0     H94759   5.370   3.807  11.639 -1.0619  1.5418 -0.2234
  702MOL0     H94760   5.359   3.584  11.534  0.6779  0.3671  0.1774
  702MOL0     H94761   5.359   3.662  11.379  0.0228  0.5745  0.2257
  702MOL0     H94762   5.155   3.754  11.390 -2.6919 -2.0308  0.1480
  702MOL0     H94763   5.152   3.755  11.567 -0.9157  1.3584 -0.8618
  702MOL0     H94764   4.994   3.609  11.458 -0.5747 -0.2614 -0.0296
  702MOL0     H94765   5.119   3.520  11.374 -1.8950  0.6086 -1.0149
  702MOL0     H94766   5.109   3.338  11.763  3.1718  0.1822  0.3635
  702MOL0     H94767   5.524   3.809  11.315 -0.6058  0.5029  1.5296
  702MOL0     H94768   5.594   3.854  11.090 -0.9986 -1.1527 -0.2799
  702MOL0     H94769   5.746   3.929  11.094  0.3214 -1.3859 -0.7837
  702MOL0     H94770   5.725   3.760  11.027  0.2002 -0.2497 -0.5067
  703MOL0     O94771   9.861   6.967   5.054 -0.4013  0.3568 -0.5334
  703MOL0     C94772   9.814   6.855   5.046 -0.3568  0.3171 -0.2216
  703MOL0     O94773   9.887   6.744   5.049  0.5315  0.6427  0.3970
  703MOL0     C94774  10.025   6.736   5.057  0.8290  0.8079 -0.6413
  703MOL0     C94775  10.067   6.605   5.063 -0.2147 -0.4035 -0.8587
  703MOL0     C94776  10.197   6.586   5.095 -0.0582  0.1238 -0.4681
  703MOL0     C94777  10.298   6.684   5.090  0.5827 -0.5573 -0.6240
  703MOL0     O94778  10.434   6.652   5.097 -0.1589 -0.5734 -0.0002
  703MOL0     C94779  10.484   6.525   5.138  0.3133 -0.1735  0.5553
  703MOL0     C94780  10.630   6.554   5.171 -1.0700  0.2990 -0.1794
  703MOL0     C94781  10.694   6.415   5.196 -0.5933  0.5221  0.9055
  703MOL0     C94782  10.845   6.444   5.218 -0.5018  0.7535 -0.3602
  703MOL0     C94783  10.936   6.323   5.208  0.5591  0.5313  0.9148
  703MOL0     C94784  11.062   6.348   5.286  0.3015  0.4533 -0.7319
  703MOL0     C94785  11.148   6.219   5.302 -0.0810 -0.0498 -0.3281
  703MOL0     C94786  11.297   6.260   5.325  0.6546  0.3515 -0.6224
  703MOL0     N94787  11.383   6.142   5.326  0.3527  0.5023  0.4874
  703MOL0     C94788  11.475   6.108   5.236 -0.0216  0.7439 -0.7212
  703MOL0     C94789  11.533   5.996   5.287 -0.6246  0.4320  0.4631
  703MOL0     C94790  11.649   5.926   5.228 -0.3833 -0.2221 -0.0702
  703MOL0     C94791  11.768   6.022   5.219 -0.2598 -0.3843 -0.3785
  703MOL0     C94792  11.908   5.955   5.183 -0.8017 -0.6890  0.2363
  703MOL0     C94793  12.034   6.037   5.174  0.3465  0.2653 -0.1597
  703MOL0     O94794  12.135   5.948   5.158  0.1972  0.4496  0.5889
  703MOL0     C94795  12.265   5.987   5.143  0.4967 -0.6402  0.4119
  703MOL0     C94796  12.360   5.883   5.141  0.0340 -0.6862 -0.1144
  703MOL0     C94797  12.499   5.908   5.126  0.5338 -0.2530  0.3546
  703MOL0     C94798  12.547   6.037   5.101 -0.0306 -0.1014  0.5729
  703MOL0     C94799  12.690   6.062   5.090  0.5763  0.1534  0.1793
  703MOL0     O94800  12.724   6.155   4.998  0.3568 -0.4355 -0.1229
  703MOL0     C94801  12.852   6.170   4.983  0.8852  0.3248 -0.2038
  703MOL0     C94802  12.936   6.205   5.085  0.2342  0.0705 -0.2736
  703MOL0     C94803  13.075   6.218   5.065 -0.2308  0.0372 -1.2414
  703MOL0     C94804  13.129   6.201   4.932  0.2683  0.4074 -0.4801
  703MOL0     O94805  13.261   6.220   4.897 -0.1462 -0.1628 -0.3288
  703MOL0     C94806  13.363   6.258   4.988  0.7629 -0.3355  0.2713
  703MOL0     C94807  13.476   6.301   4.892 -0.1025  0.4272 -0.2625
  703MOL0     C94808  13.608   6.357   4.960 -0.3661 -0.2151  0.5588
  703MOL0     C94809  13.712   6.372   4.842  0.4168  0.1204  0.9383
  703MOL0     C94810  13.856   6.404   4.893  0.2957  0.3148  0.0987
  703MOL0     C94811  13.925   6.471   4.775 -0.6525  0.3815  0.2316
  703MOL0     C94812  14.073   6.496   4.810  0.0399  0.3461 -0.4191
  703MOL0     C94813  14.153   6.529   4.680 -0.0933 -0.2659  0.7631
  703MOL0    Cl94814  14.326   6.559   4.720  0.1078  0.2732  0.1243
  703MOL0     C94815  13.041   6.163   4.826  0.2531  0.3389 -0.2379
  703MOL0     C94816  12.903   6.137   4.856 -0.2515 -0.2152  0.3858
  703MOL0     O94817  12.769   5.985   5.152 -0.2665  0.4170  0.5523
  703MOL0     C94818  12.447   6.135   5.088 -0.1228 -0.3434  0.3523
  703MOL0     C94819  12.312   6.119   5.112 -0.1828  0.2941 -0.4731
  703MOL0     N94820  11.463   5.956   5.400 -0.3243  0.2735 -0.0723
  703MOL0     N94821  11.376   6.047   5.418 -0.0318  0.8549  0.2267
  703MOL0     C94822  10.257   6.814   5.065  0.1263  0.6504 -0.0958
  703MOL0     C94823  10.122   6.838   5.057  0.0136  0.1744 -1.6489
  703MOL0     C94824   9.665   6.845   5.053  0.0250  0.5143 -0.0021
  703MOL0     C94825   9.579   6.968   5.057 -0.1232 -0.3301 -0.1022
  703MOL0     C94826   9.438   6.961   5.062  0.5450  0.0983 -0.5417
  703MOL0     C94827   9.377   6.836   5.063  0.3317  0.1276 -0.8195
  703MOL0     O94828   9.238   6.821   5.059 -0.3872  0.5723 -0.0234
  703MOL0     C94829   9.156   6.932   5.023 -0.4844 -0.0207  0.1744
  703MOL0     C94830   9.003   6.897   5.049 -0.6862  0.1335 -0.4546
  703MOL0     C94831   8.958   6.776   4.973  0.2210  0.0895 -0.5828
  703MOL0     C94832   8.806   6.744   4.983 -0.9150  0.2809  0.6440
  703MOL0     C94833   8.717   6.856   4.943 -0.5336  0.0882  0.5525
  703MOL0     C94834   8.637   6.949   4.934  0.1872  0.7101 -0.3692
  703MOL0     C94835   9.461   6.720   5.057 -0.1016 -0.6910  0.3879
  703MOL0     C94836   9.598   6.721   5.052 -0.6324 -0.7919  0.5306
  703MOL0     C94837   9.652   6.585   5.038  0.2702 -0.6190 -0.1320
  703MOL0     H94838  10.007   6.517   5.039 -1.6567  0.2134  0.3424
  703MOL0     H94839  10.226   6.481   5.101 -1.6728 -0.2819  1.4186
  703MOL0     H94840  10.435   6.478   5.224  1.1843 -3.7503 -0.7395
  703MOL0     H94841  10.476   6.454   5.055  1.3397  0.2192  0.1098
  703MOL0     H94842  10.643   6.629   5.250 -1.3026  1.7463 -1.4790
  703MOL0     H94843  10.690   6.591   5.087  0.4767  0.2849  0.8611
  703MOL0     H94844  10.679   6.349   5.110 -0.5028  0.6848  0.7641
  703MOL0     H94845  10.651   6.364   5.283  0.8792 -0.3608  1.1512
  703MOL0     H94846  10.882   6.517   5.145  0.7483  0.2591 -0.2358
  703MOL0     H94847  10.849   6.495   5.315 -0.7206  1.5866 -0.7779
  703MOL0     H94848  10.885   6.238   5.254  1.6049 -1.4257 -1.3613
  703MOL0     H94849  10.945   6.288   5.105 -0.5673  2.2800  0.1739
  703MOL0     H94850  11.119   6.433   5.250 -0.8094  1.8304  0.6161
  703MOL0     H94851  11.042   6.379   5.389  1.0640 -1.1744 -0.0583
  703MOL0     H94852  11.131   6.157   5.214 -0.4690 -0.5473  0.0910
  703MOL0     H94853  11.116   6.158   5.387  1.1987  2.1076  1.8008
  703MOL0     H94854  11.329   6.331   5.248  0.3608  0.6701 -0.4501
  703MOL0     H94855  11.307   6.307   5.423 -4.3178 -0.3311  0.4564
  703MOL0     H94856  11.495   6.147   5.137  1.3653  0.7122 -0.4673
  703MOL0     H94857  11.672   5.838   5.288 -1.1286 -0.3677  0.0048
  703MOL0     H94858  11.616   5.884   5.133 -0.3256 -0.8786  0.1954
  703MOL0     H94859  11.749   6.101   5.147 -0.5541  0.5570  0.7077
  703MOL0     H94860  11.783   6.049   5.324 -0.7814 -2.7486  0.3610
  703MOL0     H94861  11.907   5.907   5.085  2.0414 -2.6409  1.0428
  703MOL0     H94862  11.926   5.881   5.262 -0.5269 -1.3568 -0.4392
  703MOL0     H94863  12.051   6.091   5.268  4.7254 -2.4016  0.8630
  703MOL0     H94864  12.014   6.112   5.096 -1.7574 -0.8605 -0.7918
  703MOL0     H94865  12.328   5.779   5.141 -0.0380 -0.7005 -1.8473
  703MOL0     H94866  12.575   5.830   5.135  0.6664 -0.3947 -1.5461
  703MOL0     H94867  12.887   6.206   5.182 -1.0808 -2.4403 -0.8532
  703MOL0     H94868  13.139   6.239   5.151 -2.3023  0.0411  0.3815
  703MOL0     H94869  13.335   6.341   5.053 -0.2923 -0.9284  0.5767
  703MOL0     H94870  13.378   6.171   5.053 -1.4371 -0.0742  1.2114
  703MOL0     H94871  13.501   6.213   4.833  4.2893  1.0995  0.2821
  703MOL0     H94872  13.438   6.377   4.823  2.4476 -0.2414 -2.5490
  703MOL0     H94873  13.589   6.457   5.000  1.9665  1.2039 -1.6709
  703MOL0     H94874  13.644   6.282   5.032  0.8954 -0.3965 -0.2470
  703MOL0     H94875  13.679   6.441   4.764 -2.6888 -2.1506  0.0700
  703MOL0     H94876  13.721   6.272   4.796 -0.0278  0.1892  0.6954
  703MOL0     H94877  13.889   6.310   4.938 -1.1594  0.2182  1.0691
  703MOL0     H94878  13.858   6.476   4.976  3.5793  0.0193  0.4000
  703MOL0     H94879  13.927   6.399   4.692 -1.9511 -0.2059  0.6857
  703MOL0     H94880  13.877   6.566   4.751 -3.2673 -0.7848  0.5218
  703MOL0     H94881  14.119   6.406   4.850 -0.4292 -1.5413 -3.7568
  703MOL0     H94882  14.083   6.580   4.879 -0.2475  1.3111 -1.5104
  703MOL0     H94883  14.150   6.440   4.616 -0.5741  0.4729 -0.2496
  703MOL0     H94884  14.112   6.610   4.619  0.1018 -0.5583  0.2330
  703MOL0     H94885  13.084   6.144   4.729  1.2896 -1.6473  0.5537
  703MOL0     H94886  12.833   6.104   4.780  0.1798  1.0257 -0.5905
  703MOL0     H94887  12.488   6.232   5.064  1.3774 -1.0996 -0.3304
  703MOL0     H94888  12.240   6.197   5.090  0.7992  1.5038  0.4339
  703MOL0     H94889  10.326   6.897   5.052  0.5147  0.5931  1.4319
  703MOL0     H94890  10.097   6.943   5.055  0.8541  0.4159 -0.6575
  703MOL0     H94891   9.611   7.072   5.058 -1.3234  0.0681 -1.2280
  703MOL0     H94892   9.381   7.053   5.065  2.6523  1.4841 -0.4560
  703MOL0     H94893   9.160   6.947   4.915 -1.1505  0.4889  0.2143
  703MOL0     H94894   9.182   7.023   5.078  0.0072  0.4487 -0.8023
  703MOL0     H94895   8.940   6.982   5.019 -1.1352 -0.3639 -0.9520
  703MOL0     H94896   8.985   6.886   5.156 -0.2059  3.0437  0.0107
  703MOL0     H94897   9.004   6.684   5.011 -2.1062 -1.7138 -1.8428
  703MOL0     H94898   8.987   6.790   4.868 -0.3208  0.2555 -0.7158
  703MOL0     H94899   8.781   6.656   4.924 -2.4607  1.8454 -1.1704
  703MOL0     H94900   8.778   6.729   5.088  1.0492 -0.3891  1.0988
  703MOL0     H94901   8.552   7.013   4.921 -1.3150 -1.3535 -1.2594
  703MOL0     H94902   9.405   6.629   5.074  0.3962 -0.7350  2.0163
  703MOL0     H94903   9.573   6.510   5.038 -0.8973  0.5609  0.5554
  703MOL0     H94904   9.710   6.581   4.945 -2.7350 -3.1781 -2.0891
  703MOL0     H94905   9.707   6.569   5.131  0.5623  2.3808  0.3254
  704MOL0     O94906   7.019   1.211   9.897  0.2431  0.5003  0.3268
  704MOL0     C94907   7.073   1.100   9.876 -0.4934 -0.4990  0.7782
  704MOL0     O94908   7.208   1.084   9.869 -0.2747  1.2049 -0.1131
  704MOL0     C94909   7.297   1.178   9.823 -0.2090  0.0974  0.4163
  704MOL0     C94910   7.261   1.288   9.743 -0.8625  0.5804 -0.5082
  704MOL0     C94911   7.366   1.378   9.704  0.2140  0.2473  0.0369
  704MOL0     C94912   7.498   1.352   9.737  0.0895 -1.2217 -1.3653
  704MOL0     O94913   7.595   1.434   9.678 -0.6700 -0.6993  0.8209
  704MOL0     C94914   7.730   1.393   9.682  0.2835 -0.0694 -0.1777
  704MOL0     C94915   7.827   1.502   9.630  0.1705 -0.4054 -0.2422
  704MOL0     C94916   7.972   1.448   9.646  0.2716 -0.1420  0.3248
  704MOL0     C94917   8.080   1.556   9.611  0.3203 -0.0710  0.1173
  704MOL0     C94918   8.216   1.495   9.583  1.0832  0.0984  0.8180
  704MOL0     C94919   8.317   1.605   9.565  0.1504 -0.5224 -0.0293
  704MOL0     C94920   8.446   1.540   9.533 -0.1701 -0.1964  0.9857
  704MOL0     C94921   8.553   1.648   9.516  0.1717 -0.0739 -0.5348
  704MOL0     N94922   8.695   1.595   9.504 -0.3438 -0.4960 -0.6777
  704MOL0     C94923   8.785   1.580   9.403  0.7750 -0.2456 -0.2790
  704MOL0     C94924   8.891   1.516   9.466  0.7988 -0.2361 -0.0766
  704MOL0     C94925   9.023   1.465   9.404 -1.1119 -0.2071 -0.7638
  704MOL0     C94926   9.118   1.584   9.407  0.6167  0.0558 -0.0630
  704MOL0     C94927   9.131   1.658   9.274  0.5043 -0.5968  0.6058
  704MOL0     C94928   9.212   1.565   9.177  0.2128 -0.0098 -0.3244
  704MOL0     O94929   9.346   1.562   9.229  0.7266  0.0000 -0.1122
  704MOL0     C94930   9.416   1.446   9.188  0.4016  0.0252 -0.4675
  704MOL0     C94931   9.392   1.330   9.263  0.1490 -0.4541  0.2400
  704MOL0     C94932   9.463   1.212   9.240 -0.1828  0.3130 -0.3654
  704MOL0     C94933   9.566   1.208   9.146 -0.5676 -0.9725 -0.0493
  704MOL0     C94934   9.635   1.076   9.127  0.1406  0.5719  0.0056
  704MOL0     O94935   9.731   1.083   9.031  0.4860  0.2174  0.0615
  704MOL0     C94936   9.799   0.978   8.991 -0.2322  0.3294 -0.2428
  704MOL0     C94937   9.917   1.015   8.926  0.5106 -0.4211  0.8758
  704MOL0     C94938  10.010   0.917   8.884 -0.2509 -0.0006  0.0966
  704MOL0     C94939   9.971   0.778   8.907  0.0825  0.0903 -0.2050
  704MOL0     O94940  10.042   0.666   8.858  0.1182  0.2817 -0.6861
  704MOL0     C94941  10.182   0.697   8.839 -0.7243 -0.0897 -0.0965
  704MOL0     C94942  10.238   0.556   8.809  0.2265  0.7396  0.4742
  704MOL0     C94943  10.387   0.563   8.786  0.0719  0.0312  0.0774
  704MOL0     C94944  10.417   0.622   8.645  0.0045 -0.2293  0.2210
  704MOL0     C94945  10.569   0.631   8.634  0.5655  0.5045 -0.3972
  704MOL0     C94946  10.604   0.659   8.484 -0.2315  0.0411  0.0510
  704MOL0     C94947  10.745   0.643   8.443 -0.9796 -0.7121 -0.5426
  704MOL0     C94948  10.822   0.769   8.483 -0.3098  0.1267 -0.8874
  704MOL0    Cl94949  10.982   0.774   8.393 -0.3759 -0.2089  0.0312
  704MOL0     C94950   9.852   0.748   8.961  0.6559  0.3824 -0.1744
  704MOL0     C94951   9.762   0.843   9.000 -0.0751  0.2713 -0.6334
  704MOL0     O94952   9.591   0.970   9.183 -0.1283 -0.0663  0.5095
  704MOL0     C94953   9.586   1.325   9.071  0.0875  0.7626 -0.1721
  704MOL0     C94954   9.512   1.441   9.084 -0.1136 -0.2986 -1.6132
  704MOL0     N94955   8.865   1.506   9.599  0.3942  0.1137  0.9308
  704MOL0     N94956   8.753   1.556   9.622 -1.0748 -0.5992  0.3314
  704MOL0     C94957   7.530   1.236   9.805  0.2420  0.0906 -0.4484
  704MOL0     C94958   7.427   1.146   9.836  0.3025  0.3288 -0.2930
  704MOL0     C94959   6.976   0.982   9.878 -0.1838 -0.5287 -1.2663
  704MOL0     C94960   7.045   0.861   9.898  0.2208 -0.1299 -0.0849
  704MOL0     C94961   6.977   0.739   9.881 -0.6767  1.1248 -1.1143
  704MOL0     C94962   6.849   0.735   9.853  0.2536  0.2162 -0.3247
  704MOL0     O94963   6.771   0.620   9.832 -0.5904 -0.0992  0.4253
  704MOL0     C94964   6.835   0.500   9.792 -0.0470  0.0817 -0.0702
  704MOL0     C94965   6.735   0.406   9.723  0.5889 -0.2933  0.0156
  704MOL0     C94966   6.613   0.380   9.807 -0.2640  0.1503 -0.4883
  704MOL0     C94967   6.511   0.301   9.730  0.0789  0.1331  0.3427
  704MOL0     C94968   6.384   0.292   9.809 -0.7953  0.3182 -0.0720
  704MOL0     C94969   6.285   0.295   9.869 -0.0980  0.2393 -0.6303
  704MOL0     C94970   6.771   0.852   9.842 -0.8212 -0.4454 -0.2710
  704MOL0     C94971   6.839   0.976   9.849  0.1366 -0.2655 -0.0691
  704MOL0     C94972   6.757   1.098   9.841  0.0020  0.1881 -0.4696
  704MOL0     H94973   7.160   1.315   9.717 -0.5127  3.8180  0.9946
  704MOL0     H94974   7.346   1.469   9.648 -2.3417  2.6303  4.3048
  704MOL0     H94975   7.767   1.369   9.783 -0.4656  0.0838  0.1439
  704MOL0     H94976   7.746   1.303   9.621  0.1439 -0.6072  0.5580
  704MOL0     H94977   7.822   1.579   9.708  1.3056 -1.6786  1.1598
  704MOL0     H94978   7.806   1.532   9.527  1.7339 -0.1037 -0.4873
  704MOL0     H94979   7.980   1.355   9.589  0.5279 -0.2627  0.5535
  704MOL0     H94980   7.996   1.419   9.749  2.3453 -0.9757 -0.3471
  704MOL0     H94981   8.041   1.616   9.528 -2.5473 -2.4658 -0.4522
  704MOL0     H94982   8.105   1.624   9.693  0.2081  1.5940 -1.1613
  704MOL0     H94983   8.231   1.430   9.670 -1.9724  0.2634  1.5850
  704MOL0     H94984   8.218   1.420   9.504 -0.2148 -2.4368  3.0141
  704MOL0     H94985   8.282   1.682   9.495  1.6951  2.0061  1.7981
  704MOL0     H94986   8.334   1.667   9.653  0.3971  0.6128 -0.8490
  704MOL0     H94987   8.441   1.474   9.445 -1.0265 -1.8091  2.1919
  704MOL0     H94988   8.480   1.468   9.608  1.8317  1.1754  1.4553
  704MOL0     H94989   8.533   1.708   9.427  1.0495  2.4227  0.8294
  704MOL0     H94990   8.548   1.714   9.604  0.4565 -2.2135  1.1615
  704MOL0     H94991   8.771   1.590   9.295  1.3735  0.2459 -0.3118
  704MOL0     H94992   9.067   1.385   9.464  1.8186  2.7504  1.3710
  704MOL0     H94993   9.000   1.438   9.300  3.5075  2.9653 -2.9380
  704MOL0     H94994   9.076   1.653   9.482  1.2791 -0.6624  0.9926
  704MOL0     H94995   9.217   1.558   9.445  0.7557 -0.0188 -0.4695
  704MOL0     H94996   9.185   1.753   9.286 -0.8713  0.7858 -2.6548
  704MOL0     H94997   9.034   1.693   9.236  1.0682  0.5480  0.1661
  704MOL0     H94998   9.224   1.602   9.075  0.4480 -1.7887 -0.9773
  704MOL0     H94999   9.154   1.473   9.167 -0.0306 -0.1271  1.7509
  704MOL0     H95000   9.325   1.334   9.348 -0.4339  0.1956 -0.2428
  704MOL0     H95001   9.437   1.125   9.299 -2.0455  0.4817 -0.8739
  704MOL0     H95002   9.936   1.122   8.923  1.1997 -0.4175  3.1657
  704MOL0     H95003  10.093   0.946   8.820 -1.1452 -0.7283 -1.4524
  704MOL0     H95004  10.196   0.768   8.757  1.0550 -0.8441 -0.5000
  704MOL0     H95005  10.214   0.734   8.937  5.1822  0.9795 -2.0265
  704MOL0     H95006  10.217   0.496   8.898  0.7570 -0.7369 -0.3613
  704MOL0     H95007  10.178   0.513   8.728 -0.0031 -0.5534  1.2944
  704MOL0     H95008  10.439   0.618   8.866 -0.2374  1.6035 -0.7557
  704MOL0     H95009  10.426   0.461   8.785 -0.3110 -0.1173  0.4900
  704MOL0     H95010  10.372   0.721   8.634 -0.0110 -0.1009  1.3374
  704MOL0     H95011  10.386   0.554   8.565  3.4058  1.0246 -2.3730
  704MOL0     H95012  10.607   0.539   8.679 -4.0089 -0.8628  1.2041
  704MOL0     H95013  10.613   0.710   8.695  2.9123 -2.0166  1.4271
  704MOL0     H95014  10.552   0.592   8.415  3.7154 -0.8789 -2.3739
  704MOL0     H95015  10.573   0.755   8.443 -1.4615 -0.8224 -1.1261
  704MOL0     H95016  10.746   0.642   8.334  0.3185  3.0981 -0.7223
  704MOL0     H95017  10.789   0.554   8.489  2.1141  0.4852 -1.0051
  704MOL0     H95018  10.763   0.858   8.460  0.5168  0.7563 -0.6175
  704MOL0     H95019  10.830   0.757   8.592 -0.8207  2.7483 -0.4893
  704MOL0     H95020   9.831   0.642   8.967 -0.9450  0.2170 -4.7265
  704MOL0     H95021   9.664   0.812   9.033 -0.2977  3.0279  1.6001
  704MOL0     H95022   9.648   1.331   8.982  0.0008 -0.9221 -0.3865
  704MOL0     H95023   9.535   1.537   9.038 -3.1401  1.9764  1.1677
  704MOL0     H95024   7.634   1.207   9.813 -0.3862 -2.4473 -0.7247
  704MOL0     H95025   7.460   1.052   9.877  1.8405  0.6523 -0.7124
  704MOL0     H95026   7.153   0.863   9.910  0.2319 -1.7197  0.3294
  704MOL0     H95027   7.034   0.647   9.877 -0.0365  1.5649 -2.7093
  704MOL0     H95028   6.875   0.447   9.879  1.0751  1.8615  0.5490
  704MOL0     H95029   6.921   0.509   9.725  1.3615 -0.2475  1.6146
  704MOL0     H95030   6.774   0.308   9.694 -3.3378 -1.8024 -0.8775
  704MOL0     H95031   6.701   0.453   9.631  0.2593  0.6740  0.6167
  704MOL0     H95032   6.569   0.474   9.842  0.8804  0.6876 -0.4615
  704MOL0     H95033   6.645   0.324   9.895 -1.7430  1.9862  1.3295
  704MOL0     H95034   6.494   0.351   9.634  6.9477 -0.2799 -1.6222
  704MOL0     H95035   6.548   0.203   9.697 -3.4691 -0.8362 -1.2085
  704MOL0     H95036   6.188   0.289   9.915  0.7330 -0.9644  1.0831
  704MOL0     H95037   6.665   0.845   9.823 -0.6602 -1.6578 -0.7987
  704MOL0     H95038   6.802   1.169   9.772  1.9627  0.1451  0.6933
  704MOL0     H95039   6.651   1.079   9.820 -1.1501  4.5582  0.3478
  704MOL0     H95040   6.763   1.144   9.940  3.2591 -0.7668 -0.1137
  705MOL0     O95041   3.209   5.629   7.549 -1.0793 -0.0401  0.1828
  705MOL0     C95042   3.168   5.525   7.487  0.0751 -0.0073 -0.1940
  705MOL0     O95043   3.197   5.493   7.358 -0.2039 -0.4124 -0.3131
  705MOL0     C95044   3.264   5.591   7.286 -0.1985  0.0243 -0.2245
  705MOL0     C95045   3.403   5.598   7.293  0.0111  0.8347  1.2293
  705MOL0     C95046   3.473   5.693   7.219 -0.3563 -1.0808  0.2773
  705MOL0     C95047   3.403   5.778   7.134 -0.5727  0.1723 -0.8046
  705MOL0     O95048   3.488   5.855   7.063 -0.2102  0.0176  0.4427
  705MOL0     C95049   3.450   5.985   7.072 -0.4867 -0.2970  0.9574
  705MOL0     C95050   3.554   6.077   7.008 -0.2876  0.9428  0.0450
  705MOL0     C95051   3.684   6.073   7.087  0.2813 -1.0529 -0.2201
  705MOL0     C95052   3.791   6.146   7.010 -0.2034 -0.0495 -0.4619
  705MOL0     C95053   3.922   6.129   7.080 -0.5655  0.2576 -0.3167
  705MOL0     C95054   4.027   6.220   7.025 -1.0030  0.0264  0.1986
  705MOL0     C95055   4.169   6.183   7.082 -0.0731 -0.7859 -0.4537
  705MOL0     C95056   4.269   6.292   7.063 -0.3397 -0.3477 -0.3250
  705MOL0     N95057   4.388   6.255   7.150 -0.4573 -0.3209 -0.0663
  705MOL0     C95058   4.477   6.143   7.141 -0.6877  0.6501  0.6124
  705MOL0     C95059   4.549   6.160   7.250 -0.1705  0.1076  0.1263
  705MOL0     C95060   4.667   6.079   7.286  0.2707 -0.3605 -0.7196
  705MOL0     C95061   4.799   6.160   7.280 -0.6316  0.5132 -0.1672
  705MOL0     C95062   4.924   6.072   7.290  0.4056 -0.1124 -0.1215
  705MOL0     C95063   5.053   6.157   7.266 -0.2366  0.9449 -0.1906
  705MOL0     O95064   5.058   6.239   7.383  0.2104 -0.4557 -0.2493
  705MOL0     C95065   5.133   6.199   7.494  0.1526  0.3108  0.9121
  705MOL0     C95066   5.206   6.071   7.503  0.0256 -0.2050  0.0391
  705MOL0     C95067   5.272   6.027   7.627  0.4149 -0.4675 -1.0960
  705MOL0     C95068   5.269   6.111   7.736  0.4992 -0.0922  0.0167
  705MOL0     C95069   5.342   6.079   7.862 -0.0543  0.1946  0.0677
  705MOL0     O95070   5.358   6.181   7.946 -0.0555 -0.8503  0.1716
  705MOL0     C95071   5.444   6.183   8.054  0.1972 -0.6643  0.9409
  705MOL0     C95072   5.419   6.265   8.159  0.8857  0.7477 -0.1935
  705MOL0     C95073   5.502   6.264   8.265  0.1970 -0.0880 -0.7783
  705MOL0     C95074   5.615   6.179   8.271  0.4581 -0.1709  0.1179
  705MOL0     O95075   5.705   6.191   8.378  0.0194  0.2086  0.5065
  705MOL0     C95076   5.799   6.082   8.407  0.2373  1.2618  0.3664
  705MOL0     C95077   5.840   6.094   8.557  0.3046  0.5465  0.2272
  705MOL0     C95078   5.943   6.013   8.621  0.8219  0.3416 -0.9878
  705MOL0     C95079   5.941   5.859   8.597 -0.2251 -0.2451 -0.2308
  705MOL0     C95080   6.046   5.794   8.681 -0.2569  0.1819  0.4417
  705MOL0     C95081   6.059   5.647   8.634 -0.4444  0.1061  0.0328
  705MOL0     C95082   6.143   5.569   8.733  0.0291 -0.3961  0.4114
  705MOL0     C95083   6.184   5.431   8.662  0.0071 -0.6883 -0.7211
  705MOL0    Cl95084   6.320   5.362   8.762 -0.1445 -0.2952  0.3567
  705MOL0     C95085   5.648   6.110   8.156 -0.1271  0.1952  0.8190
  705MOL0     C95086   5.566   6.120   8.042 -0.3650 -0.7980 -0.4023
  705MOL0     O95087   5.391   5.962   7.881  0.5394  0.2809 -0.2227
  705MOL0     C95088   5.204   6.238   7.720  0.4486 -0.2681  0.0329
  705MOL0     C95089   5.150   6.284   7.600  0.2737 -0.5626 -0.4310
  705MOL0     N95090   4.519   6.276   7.308  0.2958 -0.0061 -0.4528
  705MOL0     N95091   4.421   6.334   7.248  0.0893 -0.5476 -0.2215
  705MOL0     C95092   3.263   5.761   7.122  0.5806  0.0282 -0.2827
  705MOL0     C95093   3.194   5.670   7.202 -0.0224  0.1105  0.1337
  705MOL0     C95094   3.092   5.422   7.552 -0.2833  0.0062 -0.9956
  705MOL0     C95095   3.048   5.313   7.478 -0.0024 -0.0130 -0.8548
  705MOL0     C95096   2.975   5.210   7.534  1.1599  0.5529  0.7181
  705MOL0     C95097   2.943   5.208   7.667 -0.1860 -0.3780 -0.1990
  705MOL0     O95098   2.861   5.103   7.708 -0.0816  0.4941 -0.0760
  705MOL0     C95099   2.801   5.101   7.837 -0.4572  0.1094  0.4740
  705MOL0     C95100   2.737   4.964   7.858  0.2474  0.1124  0.0077
  705MOL0     C95101   2.651   4.916   7.742  0.3838 -0.0730 -0.3272
  705MOL0     C95102   2.560   4.800   7.778 -0.5217  0.1717 -0.9784
  705MOL0     C95103   2.449   4.836   7.872 -0.7034 -0.7988 -0.7614
  705MOL0     C95104   2.356   4.883   7.933 -0.3173  0.1959 -0.0585
  705MOL0     C95105   2.983   5.312   7.750 -0.3361 -0.1112  0.5463
  705MOL0     C95106   3.055   5.424   7.689  0.0969 -0.0062  0.8573
  705MOL0     C95107   3.088   5.542   7.777  0.4669 -0.6364  0.6410
  705MOL0     H95108   3.456   5.536   7.366  0.8826  0.4904  0.3375
  705MOL0     H95109   3.581   5.705   7.230 -0.5960  1.5565  0.1770
  705MOL0     H95110   3.349   5.999   7.034 -0.6699  0.6541  1.7442
  705MOL0     H95111   3.436   6.022   7.174 -0.8879  1.4362  0.3241
  705MOL0     H95112   3.523   6.180   6.987  2.8388  1.8764 -0.4645
  705MOL0     H95113   3.576   6.042   6.907 -1.7038  1.2536 -0.3946
  705MOL0     H95114   3.712   5.968   7.106  0.2500 -0.5837  3.1307
  705MOL0     H95115   3.665   6.124   7.182  0.9168  0.5015 -0.9002
  705MOL0     H95116   3.794   6.097   6.912  2.0230 -1.3314  0.1688
  705MOL0     H95117   3.755   6.249   7.001 -1.1277 -0.3149  0.0902
  705MOL0     H95118   3.913   6.159   7.185 -1.9791  2.5175 -1.0370
  705MOL0     H95119   3.964   6.028   7.076 -1.4444 -0.1216 -0.2164
  705MOL0     H95120   4.044   6.218   6.917  2.9180  2.0062  0.5878
  705MOL0     H95121   4.005   6.325   7.049 -0.5499  0.0279  0.6216
  705MOL0     H95122   4.206   6.090   7.038  0.5252  0.3807 -2.5643
  705MOL0     H95123   4.155   6.176   7.190  0.0953  1.9588 -0.1856
  705MOL0     H95124   4.300   6.297   6.958  0.8943 -0.1149  0.0398
  705MOL0     H95125   4.230   6.384   7.106 -1.3495 -1.6294  1.6355
  705MOL0     H95126   4.479   6.061   7.069 -1.2852 -0.6546  2.0323
  705MOL0     H95127   4.659   6.055   7.393  0.1455 -0.4783 -0.7541
  705MOL0     H95128   4.668   5.984   7.230  3.1071 -0.8058 -0.0782
  705MOL0     H95129   4.811   6.217   7.187  5.4429 -0.1373 -0.1746
  705MOL0     H95130   4.794   6.237   7.358  1.0091  1.4333 -0.9056
  705MOL0     H95131   4.914   5.990   7.217 -1.1092  1.1465 -1.3989
  705MOL0     H95132   4.930   6.024   7.388  1.8622 -1.7236 -0.9353
  705MOL0     H95133   5.055   6.217   7.174  0.2527 -2.3318 -2.5017
  705MOL0     H95134   5.135   6.086   7.251 -0.3016  0.2575  2.3791
  705MOL0     H95135   5.198   5.992   7.429 -2.7075 -1.4435  1.5406
  705MOL0     H95136   5.306   5.924   7.629 -1.8430 -1.2556  0.2862
  705MOL0     H95137   5.333   6.330   8.158 -0.5632 -0.8964  3.2038
  705MOL0     H95138   5.488   6.334   8.347  2.1748 -1.9762  1.3033
  705MOL0     H95139   5.752   5.988   8.378 -0.1341  1.1934  1.1615
  705MOL0     H95140   5.884   6.099   8.340 -1.0950 -1.2539 -2.1671
  705MOL0     H95141   5.861   6.200   8.572 -1.4435  0.6311  2.7312
  705MOL0     H95142   5.745   6.077   8.609 -0.0312  1.3688 -0.0941
  705MOL0     H95143   6.042   6.060   8.612  0.9370  0.5237  0.7781
  705MOL0     H95144   5.915   6.024   8.726 -2.7935 -1.0986 -1.6760
  705MOL0     H95145   5.960   5.834   8.492  1.5292 -0.6778  0.1429
  705MOL0     H95146   5.842   5.823   8.625  0.1115 -1.4813 -0.5279
  705MOL0     H95147   6.012   5.789   8.785 -2.5615  0.7012 -0.2453
  705MOL0     H95148   6.143   5.840   8.659  0.2693 -1.8296 -1.7275
  705MOL0     H95149   5.960   5.599   8.634 -1.0726  1.3168  1.8605
  705MOL0     H95150   6.104   5.636   8.535  1.2260  0.2667  0.7429
  705MOL0     H95151   6.086   5.538   8.821  1.3298 -3.3820  0.3165
  705MOL0     H95152   6.236   5.621   8.757  1.1650 -1.3418 -1.5976
  705MOL0     H95153   6.103   5.357   8.664 -0.1396 -0.6425 -2.7003
  705MOL0     H95154   6.209   5.448   8.557  1.2471  2.4986 -0.0276
  705MOL0     H95155   5.740   6.054   8.144  0.4534  1.1997  0.4805
  705MOL0     H95156   5.594   6.082   7.944  1.0431 -1.5224  0.2486
  705MOL0     H95157   5.200   6.298   7.810  1.9050  0.8988 -0.6467
  705MOL0     H95158   5.093   6.376   7.605 -0.5165 -1.0422  3.9818
  705MOL0     H95159   3.207   5.829   7.059 -0.6071  0.3923  1.1157
  705MOL0     H95160   3.087   5.668   7.183 -0.0740 -0.1027  0.4495
  705MOL0     H95161   3.074   5.292   7.374 -0.5589  2.6634 -1.6258
  705MOL0     H95162   2.929   5.137   7.468  1.5289  1.7845 -0.9602
  705MOL0     H95163   2.726   5.181   7.834 -0.7767 -0.2172 -1.5546
  705MOL0     H95164   2.878   5.121   7.912  0.7258  0.3606 -0.7603
  705MOL0     H95165   2.676   4.972   7.949  2.1266  0.0463  1.3361
  705MOL0     H95166   2.811   4.887   7.884 -0.8627 -0.6738  0.9706
  705MOL0     H95167   2.715   4.891   7.657  1.0272  0.9869 -0.1707
  705MOL0     H95168   2.584   4.996   7.710  0.7488 -0.1502 -1.3408
  705MOL0     H95169   2.531   4.749   7.685  1.7648 -2.9361 -0.1425
  705MOL0     H95170   2.618   4.725   7.833  2.5586  2.4130 -0.9281
  705MOL0     H95171   2.275   4.936   7.978 -1.0289 -1.5062  0.7441
  705MOL0     H95172   2.966   5.312   7.857 -2.6658 -1.5971  0.2485
  705MOL0     H95173   3.056   5.522   7.880  2.6359 -1.2205  1.2494
  705MOL0     H95174   3.197   5.548   7.786  0.5486 -3.0925  2.2840
  705MOL0     H95175   3.038   5.632   7.738 -1.3718 -0.3990  3.2332
  706MOL0     O95176   3.466   0.640   3.654  0.3742 -0.3677 -0.3155
  706MOL0     C95177   3.486   0.723   3.570 -0.7088  0.6132  0.6758
  706MOL0     O95178   3.610   0.780   3.538  0.1120 -0.3516  0.3932
  706MOL0     C95179   3.729   0.736   3.595  0.3377  0.1842 -0.3604
  706MOL0     C95180   3.742   0.656   3.709  0.4325  0.1094 -0.2968
  706MOL0     C95181   3.864   0.597   3.748 -0.0202 -0.2274 -0.1677
  706MOL0     C95182   3.983   0.631   3.682 -0.5681  0.4118 -0.1427
  706MOL0     O95183   4.107   0.579   3.703  0.2249  0.4147 -0.2308
  706MOL0     C95184   4.122   0.498   3.816 -0.2411 -0.4664 -0.6546
  706MOL0     C95185   4.261   0.443   3.811  0.4335 -0.2949  0.3408
  706MOL0     C95186   4.372   0.552   3.814  0.0366  0.3810 -0.8699
  706MOL0     C95187   4.512   0.482   3.834  0.8336 -0.1903  0.1512
  706MOL0     C95188   4.624   0.577   3.880 -0.3962  0.0220 -1.2776
  706MOL0     C95189   4.753   0.498   3.923  0.0107 -0.1784 -0.4405
  706MOL0     C95190   4.848   0.571   4.028  0.0882  0.0917  0.3270
  706MOL0     C95191   4.985   0.512   4.045 -0.6905  0.3383 -0.4557
  706MOL0     N95192   5.073   0.560   3.931  1.0235 -0.0052 -0.0761
  706MOL0     C95193   5.160   0.665   3.954 -1.1240 -0.6321 -1.3201
  706MOL0     C95194   5.242   0.663   3.844 -0.5631 -0.2926 -0.0793
  706MOL0     C95195   5.355   0.758   3.812  0.2484  0.0223 -0.7119
  706MOL0     C95196   5.495   0.725   3.874  0.0958  0.0291  1.2875
  706MOL0     C95197   5.604   0.833   3.846 -0.4316  0.3667  0.4962
  706MOL0     C95198   5.749   0.799   3.875 -0.7352  0.3566  0.4692
  706MOL0     O95199   5.763   0.764   4.013  0.3475  0.2074 -0.1113
  706MOL0     C95200   5.890   0.751   4.053 -0.8621 -0.0035 -0.4262
  706MOL0     C95201   5.990   0.704   3.972  0.1116  0.0083  0.8986
  706MOL0     C95202   6.116   0.720   4.008  0.0663 -0.4558 -0.2641
  706MOL0     C95203   6.153   0.767   4.142 -0.5972 -0.3754  0.5442
  706MOL0     C95204   6.297   0.780   4.182 -0.9337  0.5208  0.5648
  706MOL0     O95205   6.319   0.821   4.311 -0.3376  0.5334 -0.1760
  706MOL0     C95206   6.442   0.879   4.339 -0.2332 -0.8331  0.6390
  706MOL0     C95207   6.442   1.020   4.368  0.9351  0.1368 -0.6594
  706MOL0     C95208   6.559   1.091   4.408 -0.1308 -0.2775  0.1329
  706MOL0     C95209   6.678   1.020   4.416  0.3779 -0.0069 -0.3219
  706MOL0     O95210   6.801   1.071   4.434 -0.3242  0.4203  0.1758
  706MOL0     C95211   6.819   1.218   4.432  0.7096 -0.4637 -0.0162
  706MOL0     C95212   6.970   1.257   4.440  1.0700  0.4849 -0.2180
  706MOL0     C95213   7.029   1.253   4.589  0.0557  0.2326  0.1092
  706MOL0     C95214   7.169   1.328   4.592 -0.6123  0.2383  0.3419
  706MOL0     C95215   7.166   1.474   4.638  0.1230 -0.5058  0.0266
  706MOL0     C95216   7.290   1.564   4.619  0.5535 -0.3689 -0.1910
  706MOL0     C95217   7.409   1.538   4.714 -0.7337  0.0646 -0.6430
  706MOL0     C95218   7.524   1.627   4.680  0.1848 -0.3678  0.6262
  706MOL0    Cl95219   7.566   1.576   4.513  0.6751 -0.2870  0.1657
  706MOL0     C95220   6.682   0.885   4.379  0.1592  0.1654  0.4531
  706MOL0     C95221   6.567   0.819   4.341  0.3988 -0.2377 -0.4339
  706MOL0     O95222   6.384   0.760   4.089  0.6327 -0.3005  0.1280
  706MOL0     C95223   6.053   0.804   4.232  0.2576  0.6859  0.3886
  706MOL0     C95224   5.921   0.801   4.183  0.1012 -0.2082  0.3653
  706MOL0     N95225   5.193   0.562   3.762 -0.1696 -0.3441 -0.4082
  706MOL0     N95226   5.094   0.492   3.814 -0.6885 -0.5268  0.7917
  706MOL0     C95227   3.974   0.707   3.561  0.4316 -0.3815  0.1142
  706MOL0     C95228   3.844   0.755   3.518 -0.2340 -0.9866 -0.3652
  706MOL0     C95229   3.367   0.768   3.500 -0.1564 -0.1930 -0.7094
  706MOL0     C95230   3.389   0.871   3.407 -0.7987  0.0264 -0.6406
  706MOL0     C95231   3.291   0.893   3.316  0.6963 -0.3488  0.2234
  706MOL0     C95232   3.152   0.864   3.337 -0.9779  0.3816  0.2290
  706MOL0     O95233   3.061   0.902   3.251  0.1251 -0.7813  0.0642
  706MOL0     C95234   2.919   0.889   3.280  0.1318 -0.6044 -0.2824
  706MOL0     C95235   2.830   0.932   3.162  0.1748 -0.0958 -0.4493
  706MOL0     C95236   2.677   0.907   3.179 -0.3452 -0.1289  0.2808
  706MOL0     C95237   2.651   0.758   3.205  0.6560 -0.7608 -0.1413
  706MOL0     C95238   2.650   0.740   3.347  0.6199 -0.7129 -0.3344
  706MOL0     C95239   2.644   0.733   3.465 -0.1837  0.3029  0.5795
  706MOL0     C95240   3.125   0.781   3.448  0.0992 -0.4984  0.0465
  706MOL0     C95241   3.232   0.726   3.528  0.2237 -0.2885  1.0864
  706MOL0     C95242   3.188   0.615   3.627 -0.7276  0.3856  0.6789
  706MOL0     H95243   3.655   0.634   3.769  1.1513 -0.3070  0.6319
  706MOL0     H95244   3.860   0.529   3.833 -0.7243 -0.1529 -0.1321
  706MOL0     H95245   4.115   0.565   3.902 -0.5936  2.3030 -2.6939
  706MOL0     H95246   4.048   0.417   3.825 -1.6173  0.5929 -1.8416
  706MOL0     H95247   4.270   0.390   3.715  0.3335  0.7781 -0.2839
  706MOL0     H95248   4.265   0.373   3.895  1.5350 -1.7935 -0.8917
  706MOL0     H95249   4.366   0.621   3.899  1.8507 -0.8959  0.3732
  706MOL0     H95250   4.373   0.601   3.716 -0.3953 -0.3480 -1.2492
  706MOL0     H95251   4.495   0.411   3.916  1.2986 -0.5023 -0.0116
  706MOL0     H95252   4.535   0.421   3.746 -0.0423  1.3114 -1.1663
  706MOL0     H95253   4.643   0.655   3.805  4.0686  1.0176  0.6158
  706MOL0     H95254   4.582   0.634   3.964  2.9489 -0.8970  1.2299
  706MOL0     H95255   4.722   0.402   3.965 -2.6201  1.7366  2.4892
  706MOL0     H95256   4.818   0.486   3.836  2.0372  0.3126  0.9252
  706MOL0     H95257   4.807   0.580   4.129  0.2580  0.5708  0.3529
  706MOL0     H95258   4.869   0.676   4.005 -0.5277 -0.1398 -1.4058
  706MOL0     H95259   5.025   0.554   4.138  1.1277 -0.0800 -1.0195
  706MOL0     H95260   4.977   0.403   4.041  1.6376  0.0140  1.6154
  706MOL0     H95261   5.168   0.727   4.043  2.0214 -1.4736 -0.8851
  706MOL0     H95262   5.366   0.772   3.704  2.9506  4.2354 -0.1097
  706MOL0     H95263   5.321   0.858   3.841  0.7000  1.0637 -3.4874
  706MOL0     H95264   5.475   0.710   3.981 -2.7134  1.7947  1.1379
  706MOL0     H95265   5.535   0.633   3.831  1.8902  1.3295  0.0015
  706MOL0     H95266   5.585   0.918   3.912  1.4942  0.9944  0.2962
  706MOL0     H95267   5.585   0.861   3.742 -0.9326 -0.9938  0.2039
  706MOL0     H95268   5.824   0.877   3.858  0.1366  0.1345  2.8319
  706MOL0     H95269   5.773   0.714   3.811 -1.4650  1.2427 -1.0407
  706MOL0     H95270   5.969   0.674   3.870 -0.2684  1.8390  0.4029
  706MOL0     H95271   6.193   0.690   3.939  0.7615 -2.1424  1.1654
  706MOL0     H95272   6.345   1.069   4.372  1.5917  1.4113  1.1397
  706MOL0     H95273   6.559   1.197   4.433  1.1638 -0.6842  2.0817
  706MOL0     H95274   6.787   1.262   4.337  0.1826  1.6356  1.0553
  706MOL0     H95275   6.762   1.272   4.508  1.6569 -0.6958  0.8780
  706MOL0     H95276   7.020   1.184   4.377  1.8223 -0.1246  1.0527
  706MOL0     H95277   6.976   1.359   4.402 -1.7084  1.5763  1.8578
  706MOL0     H95278   6.964   1.298   4.665 -0.7416  0.2301 -0.5560
  706MOL0     H95279   7.048   1.149   4.617  1.1484  0.6016  0.7744
  706MOL0     H95280   7.193   1.342   4.486 -1.8052  5.4291  0.5001
  706MOL0     H95281   7.243   1.278   4.655 -0.1186  1.9466  1.1894
  706MOL0     H95282   7.132   1.483   4.741 -2.1586  0.3400 -0.7462
  706MOL0     H95283   7.093   1.517   4.569  1.8935  0.9243 -1.0445
  706MOL0     H95284   7.314   1.542   4.515 -1.0082 -2.4426 -0.1794
  706MOL0     H95285   7.270   1.671   4.629 -1.1568 -0.6755  0.0030
  706MOL0     H95286   7.448   1.436   4.705 -0.5148  0.0570  0.2701
  706MOL0     H95287   7.372   1.554   4.816  1.4678  0.5330  0.1386
  706MOL0     H95288   7.495   1.732   4.671 -1.2191 -0.8996 -2.2662
  706MOL0     H95289   7.608   1.614   4.749  2.0760 -2.2130 -1.8684
  706MOL0     H95290   6.774   0.827   4.378  0.1698  0.1943 -0.1594
  706MOL0     H95291   6.584   0.716   4.312  1.6712  0.6398 -3.0858
  706MOL0     H95292   6.072   0.842   4.332  2.8003  2.1721 -0.5448
  706MOL0     H95293   5.840   0.825   4.251  0.3432 -0.3459  0.7016
  706MOL0     H95294   4.070   0.738   3.521  0.1230  0.0224 -0.3221
  706MOL0     H95295   3.846   0.818   3.430  1.4747  0.4496  0.6300
  706MOL0     H95296   3.486   0.907   3.374 -0.0878 -2.5517 -1.6744
  706MOL0     H95297   3.318   0.960   3.235 -1.7105  1.0178  0.4300
  706MOL0     H95298   2.900   0.958   3.362  0.4103 -0.9158  0.0476
  706MOL0     H95299   2.898   0.785   3.307 -0.6695 -0.1736  0.7819
  706MOL0     H95300   2.872   0.887   3.072  1.0756 -0.1302 -0.0303
  706MOL0     H95301   2.860   1.037   3.153 -2.0354  0.7276  1.0056
  706MOL0     H95302   2.625   0.917   3.083  1.8268 -0.1834 -0.9645
  706MOL0     H95303   2.629   0.978   3.248 -0.6897 -0.1705  0.0893
  706MOL0     H95304   2.548   0.733   3.177  0.2442  3.5766 -3.5927
  706MOL0     H95305   2.715   0.684   3.156 -0.7671 -1.3180 -1.2318
  706MOL0     H95306   2.657   0.743   3.570  3.3352  1.4549  0.1717
  706MOL0     H95307   3.027   0.747   3.479 -1.0742  2.7825  0.2959
  706MOL0     H95308   3.081   0.594   3.612 -0.1441 -1.1205 -1.9706
  706MOL0     H95309   3.232   0.517   3.609 -2.0022 -0.2248  0.7261
  706MOL0     H95310   3.209   0.645   3.730  2.4543  2.5617 -0.4548
  707MOL0     O95311   9.410   3.173   3.240 -0.9227 -0.3743  0.8943
  707MOL0     C95312   9.389   3.214   3.354  1.1599  1.1992  0.3264
  707MOL0     O95313   9.479   3.259   3.454  0.0550 -0.1422 -0.2922
  707MOL0     C95314   9.614   3.260   3.437 -0.3619  0.2281  0.4198
  707MOL0     C95315   9.682   3.355   3.510  0.0116  0.2847 -0.5631
  707MOL0     C95316   9.822   3.367   3.501 -0.1567 -0.4362 -0.5131
  707MOL0     C95317   9.890   3.292   3.401  0.4424 -0.0436  1.0127
  707MOL0     O95318  10.021   3.300   3.377 -0.5223  0.0354 -0.4896
  707MOL0     C95319  10.108   3.387   3.451  1.1252  0.2833 -0.3383
  707MOL0     C95320  10.228   3.423   3.364 -0.5490  0.1401 -0.0508
  707MOL0     C95321  10.317   3.522   3.448 -0.0688 -0.6692 -0.2774
  707MOL0     C95322  10.444   3.557   3.364 -0.2580 -0.0977  0.9988
  707MOL0     C95323  10.552   3.639   3.430  0.1191  0.3294 -0.2252
  707MOL0     C95324  10.622   3.557   3.540  0.8772  0.9603  0.1904
  707MOL0     C95325  10.729   3.652   3.604 -0.5526 -0.0612  0.2283
  707MOL0     C95326  10.692   3.719   3.737  0.0366 -0.0217  0.3333
  707MOL0     N95327  10.800   3.808   3.789  0.6923  0.3934  0.7403
  707MOL0     C95328  10.924   3.761   3.817  0.0022  0.2701  0.0196
  707MOL0     C95329  10.971   3.850   3.918 -0.9843 -0.7533 -0.7427
  707MOL0     C95330  11.106   3.830   3.983  0.2873  0.0067  0.3559
  707MOL0     C95331  11.090   3.787   4.129 -0.3053  0.5109  0.0423
  707MOL0     C95332  11.229   3.771   4.211 -0.1904 -0.3400 -0.2338
  707MOL0     C95333  11.276   3.899   4.274 -0.4862 -0.1120 -0.3033
  707MOL0     O95334  11.392   3.870   4.351 -0.1473  0.4455  0.2894
  707MOL0     C95335  11.520   3.898   4.302 -0.4141 -0.6918  0.3219
  707MOL0     C95336  11.615   3.854   4.393 -0.9721  0.0987 -0.2928
  707MOL0     C95337  11.754   3.871   4.360 -0.8455 -0.6838  0.0709
  707MOL0     C95338  11.791   3.943   4.248  0.6550  0.5544 -0.9678
  707MOL0     C95339  11.937   3.956   4.212  0.3397  0.0546  0.1940
  707MOL0     O95340  11.971   4.047   4.112  0.4468  0.3223 -0.5971
  707MOL0     C95341  12.094   4.050   4.054  0.2124 -0.0576 -0.6270
  707MOL0     C95342  12.099   4.038   3.918  0.2951 -0.2524 -0.3952
  707MOL0     C95343  12.225   4.035   3.858 -0.2769 -0.5801  0.5899
  707MOL0     C95344  12.343   4.035   3.931  0.2857 -0.6139 -0.1033
  707MOL0     O95345  12.452   4.025   3.845 -0.1514  0.1445 -0.4762
  707MOL0     C95346  12.574   3.994   3.912 -0.0559  0.0276  0.2532
  707MOL0     C95347  12.703   3.978   3.826 -0.1893  1.4529 -0.6678
  707MOL0     C95348  12.753   4.098   3.752  0.1730 -0.5898 -0.2937
  707MOL0     C95349  12.644   4.182   3.672  0.3088  0.3365 -0.2831
  707MOL0     C95350  12.695   4.288   3.571  0.2450  0.1612 -0.5027
  707MOL0     C95351  12.780   4.233   3.455  0.7389 -0.1934  0.1035
  707MOL0     C95352  12.804   4.342   3.354  0.3052  0.8264  0.4792
  707MOL0     C95353  12.910   4.309   3.250  0.4512 -0.1164  0.3803
  707MOL0    Cl95354  13.080   4.300   3.319  0.2914 -0.3290  0.0542
  707MOL0     C95355  12.334   4.051   4.071  0.0791 -0.3524 -0.4295
  707MOL0     C95356  12.208   4.054   4.137 -0.6588 -0.2080  0.4509
  707MOL0     O95357  12.015   3.883   4.274  0.6952  0.2879 -1.0230
  707MOL0     C95358  11.691   3.986   4.158  0.4543  0.1968 -0.3403
  707MOL0     C95359  11.553   3.957   4.180 -0.6197 -0.1563 -0.5322
  707MOL0     N95360  10.878   3.952   3.932  0.3798  0.3062 -0.1142
  707MOL0     N95361  10.778   3.921   3.862  0.5490 -0.7376 -0.1031
  707MOL0     C95362   9.821   3.189   3.337  1.2535  0.9622  0.1382
  707MOL0     C95363   9.681   3.171   3.352  0.1374 -0.3990  0.5875
  707MOL0     C95364   9.248   3.218   3.390  0.1547  0.7139 -0.2743
  707MOL0     C95365   9.216   3.317   3.493 -0.0299  0.4984  0.0818
  707MOL0     C95366   9.088   3.341   3.537  0.1800 -0.1177 -0.4725
  707MOL0     C95367   8.981   3.266   3.493  0.4584  0.3609  1.3781
  707MOL0     O95368   8.862   3.310   3.537 -0.1645  0.3093  0.4414
  707MOL0     C95369   8.745   3.226   3.556 -0.1118 -0.4984  0.3336
  707MOL0     C95370   8.627   3.258   3.467  0.8018 -0.4204  0.5159
  707MOL0     C95371   8.504   3.172   3.514 -0.2592 -0.0718  1.0350
  707MOL0     C95372   8.378   3.207   3.421  0.3754 -0.4517  0.2949
  707MOL0     C95373   8.251   3.145   3.461  0.1931 -0.7451 -0.3418
  707MOL0     C95374   8.150   3.089   3.500 -1.1300  0.0066  0.1796
  707MOL0     C95375   9.008   3.170   3.389  0.1531 -0.1209 -0.6940
  707MOL0     C95376   9.135   3.146   3.339 -0.3405 -0.0029  0.0637
  707MOL0     C95377   9.150   3.058   3.219 -0.8262 -0.4767 -0.7575
  707MOL0     H95378   9.627   3.410   3.586  0.4681  0.8355 -0.6231
  707MOL0     H95379   9.870   3.436   3.570  0.8325 -0.2299 -1.3831
  707MOL0     H95380  10.054   3.481   3.468 -0.9197 -0.8576 -0.2870
  707MOL0     H95381  10.144   3.343   3.545 -0.3218 -2.2165 -0.8600
  707MOL0     H95382  10.187   3.475   3.276 -1.7734  0.3461  0.6145
  707MOL0     H95383  10.285   3.334   3.336  3.2692  2.1492  0.6119
  707MOL0     H95384  10.357   3.469   3.535  1.4769  0.1592 -0.4303
  707MOL0     H95385  10.250   3.602   3.481 -2.1627 -3.1275  1.7661
  707MOL0     H95386  10.493   3.471   3.318 -0.3114  1.1064 -1.4484
  707MOL0     H95387  10.402   3.606   3.276 -0.4957  0.4174  1.3959
  707MOL0     H95388  10.616   3.673   3.348 -2.1532 -2.5052 -3.4792
  707MOL0     H95389  10.506   3.724   3.481 -0.3611  1.4474 -2.3938
  707MOL0     H95390  10.553   3.528   3.621 -2.2676  0.3939 -2.4817
  707MOL0     H95391  10.668   3.471   3.490 -0.7910  2.5034 -4.5575
  707MOL0     H95392  10.752   3.734   3.535 -2.8177  0.3285 -0.1254
  707MOL0     H95393  10.816   3.590   3.627  1.7058  2.1354 -1.7768
  707MOL0     H95394  10.598   3.775   3.732  0.1448  0.0515 -2.8598
  707MOL0     H95395  10.687   3.640   3.812 -0.7791  1.0810  1.4763
  707MOL0     H95396  10.970   3.672   3.775  0.5345  1.7554 -2.7651
  707MOL0     H95397  11.168   3.758   3.929 -0.2673 -1.5967  1.7567
  707MOL0     H95398  11.151   3.928   3.973 -2.7062  1.5457  0.6969
  707MOL0     H95399  11.020   3.849   4.185 -2.0884 -2.1879  1.0046
  707MOL0     H95400  11.045   3.687   4.126  2.0083 -0.5812 -2.0503
  707MOL0     H95401  11.307   3.732   4.145 -1.2706 -0.4400 -1.4939
  707MOL0     H95402  11.214   3.688   4.280  1.4080 -1.8667 -1.6176
  707MOL0     H95403  11.200   3.944   4.337 -1.0200  1.1213 -1.7602
  707MOL0     H95404  11.299   3.971   4.195  0.6587 -0.5892 -0.4297
  707MOL0     H95405  11.588   3.808   4.488 -0.0470 -1.7678 -0.8830
  707MOL0     H95406  11.829   3.839   4.431  2.3935  0.3690 -2.5851
  707MOL0     H95407  12.006   4.029   3.862  0.4148  0.2578 -0.6794
  707MOL0     H95408  12.225   4.007   3.753  1.1969  0.9880  0.1118
  707MOL0     H95409  12.599   4.074   3.982  1.0286  2.7586 -2.9605
  707MOL0     H95410  12.564   3.908   3.978  1.2439  0.9124  1.6870
  707MOL0     H95411  12.783   3.944   3.892  2.1208  2.5822 -2.7148
  707MOL0     H95412  12.684   3.891   3.762  1.7104 -1.3986  2.3487
  707MOL0     H95413  12.793   4.163   3.830 -0.7336 -0.6714  0.2579
  707MOL0     H95414  12.835   4.075   3.683  2.3108  2.7461  0.8918
  707MOL0     H95415  12.587   4.236   3.747  1.6157  1.0318  0.2494
  707MOL0     H95416  12.572   4.121   3.618 -0.0274 -1.1265  1.7257
  707MOL0     H95417  12.760   4.363   3.618 -0.6922  0.5875  0.1381
  707MOL0     H95418  12.609   4.340   3.530 -0.7348  0.3250  1.6228
  707MOL0     H95419  12.875   4.188   3.485  0.6526 -1.2124 -1.0686
  707MOL0     H95420  12.721   4.152   3.412  1.0547 -0.4078  0.0691
  707MOL0     H95421  12.833   4.433   3.407  0.6531  0.0720  1.6160
  707MOL0     H95422  12.708   4.365   3.308  1.4708  0.4032 -2.4059
  707MOL0     H95423  12.880   4.215   3.202  2.9351 -0.7790 -0.0056
  707MOL0     H95424  12.911   4.392   3.179 -3.5124  2.1660  2.6205
  707MOL0     H95425  12.427   4.054   4.127  0.2520 -2.4498 -0.5194
  707MOL0     H95426  12.192   4.061   4.244  2.2867  1.1114  0.8847
  707MOL0     H95427  11.719   4.037   4.066  1.2333  2.5461  1.0908
  707MOL0     H95428  11.484   3.994   4.105 -1.1255  1.6115  0.7455
  707MOL0     H95429   9.881   3.125   3.274 -3.5786 -1.7271 -2.2970
  707MOL0     H95430   9.615   3.106   3.296  0.2085 -1.1973  1.4020
  707MOL0     H95431   9.298   3.372   3.538  1.9920 -1.8567 -0.4800
  707MOL0     H95432   9.063   3.420   3.606 -1.9492  0.4308 -1.7753
  707MOL0     H95433   8.709   3.241   3.658  1.3567 -0.5321  0.8781
  707MOL0     H95434   8.774   3.121   3.542 -0.3665 -0.9988  3.0833
  707MOL0     H95435   8.653   3.229   3.365  0.4102  1.8649 -0.2942
  707MOL0     H95436   8.607   3.366   3.475  4.5897  0.3683  1.3229
  707MOL0     H95437   8.484   3.201   3.617  1.7144  0.5893  1.2891
  707MOL0     H95438   8.526   3.064   3.514 -1.5103 -0.3736 -1.1674
  707MOL0     H95439   8.360   3.315   3.419 -0.8303 -0.6237  0.8834
  707MOL0     H95440   8.402   3.171   3.321  1.3371  3.0876 -0.9149
  707MOL0     H95441   8.064   3.033   3.531  0.3333 -3.5311 -1.5988
  707MOL0     H95442   8.926   3.114   3.347  1.0197 -3.2305  1.3842
  707MOL0     H95443   9.186   3.115   3.133 -1.9635  3.6670  1.2784
  707MOL0     H95444   9.223   2.978   3.237  0.9444  1.4530  1.3555
  707MOL0     H95445   9.050   3.022   3.195 -1.2641  0.0019  0.2862
  708MOL0     O95446   6.145   3.475   8.963  0.0081  0.1239  0.3267
  708MOL0     C95447   6.236   3.395   8.992 -0.0211  0.3377  0.3419
  708MOL0     O95448   6.367   3.421   8.953 -0.3399 -0.1268 -0.2717
  708MOL0     C95449   6.424   3.533   8.887  0.3836  0.4482 -0.3098
  708MOL0     C95450   6.560   3.522   8.849  0.3580  0.0784 -0.4067
  708MOL0     C95451   6.618   3.620   8.773  0.3576  0.4178  0.2800
  708MOL0     C95452   6.557   3.739   8.746  0.5274 -0.7091  0.6561
  708MOL0     O95453   6.617   3.830   8.667  0.0760  0.1140 -0.8475
  708MOL0     C95454   6.590   3.967   8.701 -0.5875  0.7753  0.0423
  708MOL0     C95455   6.693   4.058   8.630  0.3735  1.0079 -0.4715
  708MOL0     C95456   6.836   4.044   8.679  0.2460 -0.1364  0.3650
  708MOL0     C95457   6.907   3.933   8.609 -0.9225  1.0643 -0.1604
  708MOL0     C95458   7.053   3.908   8.659  0.7620  0.0923 -0.1645
  708MOL0     C95459   7.128   3.801   8.575  0.8048  0.1472  0.3395
  708MOL0     C95460   7.278   3.800   8.577 -0.7757  0.1302 -0.2142
  708MOL0     C95461   7.336   3.803   8.709 -0.0386 -0.0733 -0.3725
  708MOL0     N95462   7.478   3.778   8.716  0.1082  0.3824  0.2109
  708MOL0     C95463   7.570   3.881   8.710  0.4377 -0.6411 -0.2281
  708MOL0     C95464   7.686   3.821   8.704  0.0451 -0.3978  0.3130
  708MOL0     C95465   7.817   3.897   8.703  0.4013 -0.2922  0.4976
  708MOL0     C95466   7.851   3.916   8.557 -0.0966 -0.5291  0.7675
  708MOL0     C95467   7.984   3.994   8.522  0.3974  0.5094 -0.1763
  708MOL0     C95468   8.108   3.922   8.550 -0.4854  0.8198  0.3500
  708MOL0     O95469   8.215   4.017   8.553 -0.0824 -0.6544  0.5247
  708MOL0     C95470   8.334   3.971   8.619  0.4677  0.4791  0.9717
  708MOL0     C95471   8.443   4.058   8.613  0.2577 -0.2984 -0.7275
  708MOL0     C95472   8.566   4.013   8.664  0.5420  0.4424  0.2154
  708MOL0     C95473   8.583   3.891   8.732  0.4696 -0.3539 -0.7045
  708MOL0     C95474   8.715   3.853   8.787 -0.9337  0.0633  0.6917
  708MOL0     O95475   8.729   3.732   8.834  0.1563 -0.1135 -0.7026
  708MOL0     C95476   8.849   3.686   8.885  0.1014 -0.1305  0.0674
  708MOL0     C95477   8.866   3.653   9.026  0.0993  0.1478 -0.2244
  708MOL0     C95478   8.986   3.599   9.065 -0.3233  0.2817  0.5934
  708MOL0     C95479   9.091   3.567   8.979 -0.6263 -0.1074 -0.7860
  708MOL0     O95480   9.208   3.535   9.038 -0.3230 -0.0943  0.8629
  708MOL0     C95481   9.326   3.500   8.964  0.4776  0.0814  0.8125
  708MOL0     C95482   9.437   3.479   9.065 -0.1286  0.1793  0.3492
  708MOL0     C95483   9.580   3.467   9.004  0.2357  0.0840 -0.2317
  708MOL0     C95484   9.690   3.471   9.124  0.3859 -0.1803 -0.2143
  708MOL0     C95485   9.813   3.430   9.048 -1.1141  1.0657  0.5029
  708MOL0     C95486   9.933   3.450   9.144  0.2812  0.4860  0.4304
  708MOL0     C95487   9.971   3.601   9.152  0.3972  0.7649  0.1115
  708MOL0     C95488  10.105   3.631   9.222  0.0785  0.0832 -0.4059
  708MOL0    Cl95489  10.085   3.563   9.377  0.0894  0.1465  0.3597
  708MOL0     C95490   9.062   3.578   8.846 -0.0970 -0.5401  0.8127
  708MOL0     C95491   8.948   3.648   8.797  0.2636 -0.4127 -0.0662
  708MOL0     O95492   8.810   3.931   8.766  0.5847 -0.1956  0.5485
  708MOL0     C95493   8.478   3.795   8.721  0.3679 -0.6602  0.1522
  708MOL0     C95494   8.361   3.840   8.661 -0.0466  0.2111 -0.4172
  708MOL0     N95495   7.678   3.689   8.710 -0.2586 -0.2597 -0.1979
  708MOL0     N95496   7.554   3.663   8.723  0.2146 -0.1833 -0.4261
  708MOL0     C95497   6.421   3.752   8.790 -0.1199 -0.5479  0.7636
  708MOL0     C95498   6.359   3.653   8.857  0.5358  0.0304  0.5996
  708MOL0     C95499   6.213   3.268   9.072 -0.2383 -0.0368  0.5632
  708MOL0     C95500   6.300   3.160   9.054 -0.0269 -0.5173 -0.0825
  708MOL0     C95501   6.297   3.046   9.143 -0.4929  0.2875  0.2215
  708MOL0     C95502   6.203   3.031   9.239 -0.4115 -0.5957  0.3167
  708MOL0     O95503   6.197   2.932   9.336 -0.1739  0.1865  0.0143
  708MOL0     C95504   6.292   2.820   9.324  0.0161 -0.8211 -0.6047
  708MOL0     C95505   6.220   2.702   9.255 -0.8667  0.0773 -0.1933
  708MOL0     C95506   6.110   2.635   9.335  0.6308  0.2920  0.1378
  708MOL0     C95507   6.079   2.500   9.262 -0.0147  0.6649 -0.3308
  708MOL0     C95508   5.966   2.433   9.325  0.5859 -0.1440  0.2544
  708MOL0     C95509   5.881   2.384   9.395  0.0983  0.2401 -0.3882
  708MOL0     C95510   6.119   3.141   9.255 -0.3103  1.2994  0.0005
  708MOL0     C95511   6.120   3.253   9.174  0.0543  0.3364  0.2134
  708MOL0     C95512   6.018   3.363   9.208 -0.1441  0.2180  0.4483
  708MOL0     H95513   6.612   3.428   8.864 -3.0136 -2.0425 -1.1952
  708MOL0     H95514   6.719   3.603   8.737  0.7058  0.7688  1.0573
  708MOL0     H95515   6.493   4.002   8.665 -1.6857 -0.4985  1.6247
  708MOL0     H95516   6.583   3.985   8.809 -1.9825  1.2233 -0.1039
  708MOL0     H95517   6.657   4.159   8.652  0.3264  1.2241 -1.4955
  708MOL0     H95518   6.673   4.056   8.523 -0.2439  0.6891 -0.3535
  708MOL0     H95519   6.845   4.023   8.786  0.8254 -1.0887  0.1378
  708MOL0     H95520   6.886   4.134   8.643  0.5741 -1.0921 -1.7436
  708MOL0     H95521   6.856   3.837   8.609  2.9138 -1.1829 -0.8518
  708MOL0     H95522   6.917   3.956   8.502  0.9382  0.5368 -0.1325
  708MOL0     H95523   7.098   4.007   8.654 -0.3514  0.7378  1.5853
  708MOL0     H95524   7.049   3.867   8.760  3.1347  0.3243  0.0658
  708MOL0     H95525   7.088   3.704   8.607 -0.8105  1.1780  1.6324
  708MOL0     H95526   7.091   3.823   8.474 -0.5866 -3.2243 -0.0272
  708MOL0     H95527   7.318   3.884   8.520 -3.7800  1.1242 -1.0069
  708MOL0     H95528   7.321   3.713   8.526  1.0652  0.7029  0.2786
  708MOL0     H95529   7.328   3.901   8.758 -1.3057 -0.4871  0.3127
  708MOL0     H95530   7.281   3.742   8.782  0.6689  1.4651  1.5651
  708MOL0     H95531   7.542   3.986   8.710 -0.4029 -0.5762  5.2586
  708MOL0     H95532   7.796   4.000   8.732 -1.0116  0.2875 -2.2635
  708MOL0     H95533   7.900   3.860   8.765  1.5280  2.2800  0.6548
  708MOL0     H95534   7.852   3.816   8.513  2.0858 -0.3928  0.4046
  708MOL0     H95535   7.770   3.967   8.505  2.6130  0.5794 -2.7135
  708MOL0     H95536   7.976   4.089   8.575 -2.0820  0.5203 -0.4371
  708MOL0     H95537   7.997   4.018   8.416 -0.3024 -0.4540 -0.4921
  708MOL0     H95538   8.128   3.842   8.478 -0.0232  2.7854 -1.8359
  708MOL0     H95539   8.101   3.881   8.651  0.0768 -0.8785 -0.2759
  708MOL0     H95540   8.424   4.153   8.565 -1.0552 -1.2255 -2.1143
  708MOL0     H95541   8.653   4.077   8.648  0.3938  0.1625 -2.0412
  708MOL0     H95542   8.778   3.680   9.083 -1.3759  0.1628 -2.3895
  708MOL0     H95543   8.996   3.598   9.173 -2.2208  2.3402  0.8801
  708MOL0     H95544   9.299   3.405   8.915 -3.5924  1.2331  0.4292
  708MOL0     H95545   9.346   3.577   8.890 -2.5473  0.5483  0.3371
  708MOL0     H95546   9.443   3.572   9.122  0.7312  1.2264 -1.3849
  708MOL0     H95547   9.422   3.396   9.135  0.6684 -1.0843 -0.9333
  708MOL0     H95548   9.585   3.368   8.958 -2.9298  1.2348 -3.5599
  708MOL0     H95549   9.600   3.547   8.933 -3.3750  0.1802 -1.3440
  708MOL0     H95550   9.678   3.398   9.205  1.1216 -2.2036 -1.8360
  708MOL0     H95551   9.683   3.574   9.160 -0.4462  0.8170 -2.9367
  708MOL0     H95552   9.831   3.479   8.952 -0.7918  0.3332  0.1753
  708MOL0     H95553   9.806   3.322   9.030  0.2636  1.0264  0.0415
  708MOL0     H95554   9.904   3.411   9.241 -0.6968 -0.5205 -0.2394
  708MOL0     H95555  10.018   3.393   9.105 -1.7210 -2.0254 -0.5685
  708MOL0     H95556   9.884   3.639   9.207 -2.0332 -2.2000 -1.3619
  708MOL0     H95557   9.982   3.641   9.051  2.5544  0.6048  0.2450
  708MOL0     H95558  10.190   3.578   9.178 -1.1068 -1.0790 -1.4126
  708MOL0     H95559  10.126   3.737   9.239 -0.5261 -0.1892  2.4220
  708MOL0     H95560   9.138   3.563   8.769  1.8270 -1.9331  2.8487
  708MOL0     H95561   8.933   3.659   8.690  1.9090  1.7632 -0.1239
  708MOL0     H95562   8.484   3.693   8.757  3.0035 -0.3853  0.6963
  708MOL0     H95563   8.284   3.766   8.642 -0.1673 -1.0692  4.0916
  708MOL0     H95564   6.372   3.843   8.755  1.4749  0.6836  1.5653
  708MOL0     H95565   6.254   3.664   8.879  0.8433  2.1050  1.2389
  708MOL0     H95566   6.378   3.166   8.979  0.2535 -0.1111  0.2367
  708MOL0     H95567   6.376   2.973   9.130 -0.3915  0.4158  0.1227
  708MOL0     H95568   6.309   2.787   9.427 -0.5624 -2.2529 -0.9404
  708MOL0     H95569   6.394   2.841   9.290 -0.5968 -1.1741 -2.8320
  708MOL0     H95570   6.300   2.630   9.235 -1.2900 -0.4510 -0.0028
  708MOL0     H95571   6.179   2.726   9.157 -2.3383 -3.1417 -0.4650
  708MOL0     H95572   6.026   2.705   9.330 -0.0488 -0.5738 -1.2036
  708MOL0     H95573   6.137   2.628   9.440  1.0396 -0.2995  0.0006
  708MOL0     H95574   6.051   2.512   9.157  2.2685 -3.5752 -1.6412
  708MOL0     H95575   6.167   2.436   9.268 -0.9977 -0.7459 -0.3795
  708MOL0     H95576   5.805   2.353   9.465 -0.7270 -1.0905 -1.8039
  708MOL0     H95577   6.045   3.137   9.335  0.6426 -0.0501  0.8717
  708MOL0     H95578   5.937   3.328   9.272  0.0983  0.2097  0.7519
  708MOL0     H95579   6.070   3.435   9.272  2.5065 -0.6600 -0.5623
  708MOL0     H95580   5.971   3.414   9.123 -1.3049 -0.2228  0.8170
  709MOL0     O95581  10.073   8.137   3.765 -0.4191 -0.5902 -0.3904
  709MOL0     C95582  10.054   8.258   3.773  0.0510  0.3445  0.6275
  709MOL0     O95583  10.150   8.350   3.816 -0.3978  0.4906  0.3719
  709MOL0     C95584  10.276   8.289   3.825  0.9437  0.7963  0.2539
  709MOL0     C95585  10.361   8.298   3.717  0.0173 -0.2085  0.0297
  709MOL0     C95586  10.484   8.231   3.724 -0.0054  0.4793 -0.4440
  709MOL0     C95587  10.523   8.150   3.833 -0.6451  0.4437 -0.4037
  709MOL0     O95588  10.641   8.074   3.820  0.0160  0.0105  0.2623
  709MOL0     C95589  10.716   8.018   3.929 -0.5568  0.4080 -0.2027
  709MOL0     C95590  10.846   7.961   3.887 -0.5365  0.2875 -0.8311
  709MOL0     C95591  10.932   8.069   3.823 -0.3263 -0.8224 -0.0416
  709MOL0     C95592  11.065   8.018   3.779 -1.1650  0.3848 -0.0959
  709MOL0     C95593  11.164   8.141   3.747 -0.8367  0.2604  0.3251
  709MOL0     C95594  11.300   8.101   3.688  0.2728 -0.0307  0.3906
  709MOL0     C95595  11.392   8.226   3.672  0.2093 -0.0430 -0.0165
  709MOL0     C95596  11.447   8.281   3.805  0.2353  0.5841 -0.1958
  709MOL0     N95597  11.579   8.344   3.776 -0.1586  0.0014  0.1306
  709MOL0     C95598  11.702   8.291   3.748  0.2278 -0.2218  0.1064
  709MOL0     C95599  11.776   8.398   3.757 -1.0900  0.3697  0.0396
  709MOL0     C95600  11.920   8.394   3.716 -0.1576  0.1702  0.0177
  709MOL0     C95601  12.003   8.334   3.823  1.6427 -1.0967  0.6758
  709MOL0     C95602  12.136   8.309   3.783 -0.4666 -1.2847 -0.3840
  709MOL0     C95603  12.232   8.286   3.895  0.0055  0.8859 -0.3155
  709MOL0     O95604  12.259   8.404   3.972 -0.4363 -0.1714 -0.4555
  709MOL0     C95605  12.391   8.437   3.962 -0.1950 -0.8944  0.6934
  709MOL0     C95606  12.441   8.489   4.073 -0.1897  0.3344  0.0837
  709MOL0     C95607  12.567   8.548   4.076  0.0700 -0.4010 -0.7218
  709MOL0     C95608  12.661   8.540   3.968  0.1059 -0.8771 -0.4358
  709MOL0     C95609  12.802   8.580   3.981  0.0816  0.0813  0.3608
  709MOL0     O95610  12.838   8.654   4.083  0.5768  0.8203  0.0275
  709MOL0     C95611  12.968   8.686   4.104  0.1390 -0.1008  0.9043
  709MOL0     C95612  13.020   8.801   4.048  0.2352 -0.1029 -1.0103
  709MOL0     C95613  13.155   8.836   4.079 -0.5864  0.9680  0.3653
  709MOL0     C95614  13.240   8.760   4.165 -0.3143 -0.9433  0.4356
  709MOL0     O95615  13.374   8.792   4.192  0.4815  0.1342 -0.4990
  709MOL0     C95616  13.466   8.716   4.104  0.3275  0.5497 -0.7587
  709MOL0     C95617  13.615   8.734   4.141 -0.1455 -0.0159 -0.0528
  709MOL0     C95618  13.628   8.724   4.296 -0.3697  0.6571 -0.7696
  709MOL0     C95619  13.774   8.715   4.334  0.4370  0.1929 -0.2360
  709MOL0     C95620  13.800   8.707   4.485  0.0853  0.4470 -0.2077
  709MOL0     C95621  13.958   8.692   4.515  0.1214  0.0224  0.2941
  709MOL0     C95622  13.978   8.661   4.658 -0.1131  0.2613 -0.5169
  709MOL0     C95623  14.100   8.728   4.713 -0.2258 -0.5444  0.8259
  709MOL0    Cl95624  14.244   8.658   4.646  0.2719  0.2330  0.1045
  709MOL0     C95625  13.182   8.644   4.227  0.4645 -0.1319 -0.5830
  709MOL0     C95626  13.043   8.611   4.197  0.7350  0.1267  0.1954
  709MOL0     O95627  12.876   8.547   3.888 -0.0584 -0.3404  0.0130
  709MOL0     C95628  12.610   8.487   3.848  1.0358  0.7750  0.4440
  709MOL0     C95629  12.471   8.441   3.845  0.5708 -0.8918  0.1254
  709MOL0     N95630  11.712   8.507   3.802 -0.3229 -0.5356  0.6489
  709MOL0     N95631  11.594   8.475   3.814  0.0639 -0.1823  0.6517
  709MOL0     C95632  10.441   8.142   3.947 -0.2068  0.1320 -0.9416
  709MOL0     C95633  10.319   8.217   3.941  0.1900 -0.2620  0.4970
  709MOL0     C95634   9.919   8.309   3.760 -0.1495  0.9606 -0.6406
  709MOL0     C95635   9.877   8.387   3.871  0.0404 -0.3560 -0.0114
  709MOL0     C95636   9.750   8.451   3.869 -0.1111  0.2066 -0.3433
  709MOL0     C95637   9.666   8.435   3.762 -0.0374 -0.6203 -0.0355
  709MOL0     O95638   9.539   8.484   3.772 -0.0926  0.1679  0.3112
  709MOL0     C95639   9.422   8.411   3.729  0.2076  0.4116 -0.3898
  709MOL0     C95640   9.310   8.495   3.699 -0.2759 -0.3745 -0.6144
  709MOL0     C95641   9.334   8.571   3.562 -0.1933 -0.2110 -0.1600
  709MOL0     C95642   9.212   8.649   3.525  0.2958 -0.0645 -0.2884
  709MOL0     C95643   9.105   8.554   3.478 -0.5594 -0.3872  0.5153
  709MOL0     C95644   9.028   8.478   3.427  0.7159  0.0192 -0.4240
  709MOL0     C95645   9.708   8.360   3.650 -0.6689 -0.6868 -0.0751
  709MOL0     C95646   9.835   8.291   3.651 -0.4417  0.5808 -0.4360
  709MOL0     C95647   9.887   8.234   3.527 -1.2641  0.0288 -0.5383
  709MOL0     H95648  10.337   8.359   3.630 -3.2508  1.1220  1.6810
  709MOL0     H95649  10.552   8.242   3.639  0.9933 -0.9744  0.1314
  709MOL0     H95650  10.713   8.093   4.008 -1.6578  0.4331 -0.2466
  709MOL0     H95651  10.660   7.935   3.974  1.4100 -0.1324  1.3927
  709MOL0     H95652  10.819   7.880   3.818 -0.5497  0.7570 -1.3747
  709MOL0     H95653  10.887   7.930   3.984 -2.7696  0.5707  0.2779
  709MOL0     H95654  10.947   8.139   3.906  1.7800 -0.7235 -0.4510
  709MOL0     H95655  10.886   8.119   3.737 -4.7973  1.1972  3.1116
  709MOL0     H95656  11.108   7.956   3.858  0.6241 -2.0231 -2.7703
  709MOL0     H95657  11.066   7.950   3.694  0.6814 -2.8358  2.2943
  709MOL0     H95658  11.114   8.213   3.681  1.0163  1.2977 -0.0219
  709MOL0     H95659  11.181   8.196   3.840 -0.1790 -0.0890  0.4101
  709MOL0     H95660  11.345   8.030   3.757  2.1585 -0.6010 -1.3154
  709MOL0     H95661  11.297   8.047   3.593  1.9331  1.7038 -0.7266
  709MOL0     H95662  11.346   8.302   3.608  1.3283  0.2999 -0.4295
  709MOL0     H95663  11.481   8.188   3.620  0.7463  0.8828  0.2075
  709MOL0     H95664  11.377   8.346   3.858 -0.7908 -0.4843 -0.1678
  709MOL0     H95665  11.463   8.206   3.883  0.7004  0.9654  0.0740
  709MOL0     H95666  11.737   8.194   3.714 -0.4579 -0.6207  0.5304
  709MOL0     H95667  11.908   8.340   3.622 -1.8798  2.1411 -0.9574
  709MOL0     H95668  11.961   8.491   3.686  0.4142  0.2832  1.1075
  709MOL0     H95669  11.995   8.414   3.898  1.0464 -0.5697  0.0677
  709MOL0     H95670  11.952   8.246   3.862 -0.5236  1.1494  3.3618
  709MOL0     H95671  12.178   8.389   3.722  0.1080 -1.5573 -0.3510
  709MOL0     H95672  12.137   8.214   3.728  1.4553 -1.7297  0.3414
  709MOL0     H95673  12.323   8.246   3.847 -0.7590 -2.7841  0.9695
  709MOL0     H95674  12.204   8.199   3.955  2.6064  1.4636  1.9686
  709MOL0     H95675  12.378   8.490   4.162 -0.7445 -2.2119 -0.1771
  709MOL0     H95676  12.599   8.588   4.172 -2.2432  0.2685 -0.1640
  709MOL0     H95677  12.964   8.868   3.984 -3.8415 -2.4404 -0.2058
  709MOL0     H95678  13.196   8.923   4.028  1.2842  0.5226  1.0507
  709MOL0     H95679  13.454   8.609   4.124  0.0024  0.0103 -3.5255
  709MOL0     H95680  13.446   8.734   3.998 -1.8008 -0.3032 -0.5511
  709MOL0     H95681  13.686   8.662   4.099  1.7340 -0.1448  3.0685
  709MOL0     H95682  13.649   8.833   4.106  1.4014  0.0671  1.5568
  709MOL0     H95683  13.575   8.808   4.342  1.1083  1.5648 -0.6678
  709MOL0     H95684  13.588   8.628   4.331 -0.0646  0.8103  0.0265
  709MOL0     H95685  13.819   8.805   4.292  0.1834  0.4408  0.0221
  709MOL0     H95686  13.817   8.626   4.286  3.2093  2.1104 -1.6359
  709MOL0     H95687  13.752   8.621   4.533  0.9571  0.7379  1.2559
  709MOL0     H95688  13.746   8.794   4.524 -0.6590 -0.1112  0.0081
  709MOL0     H95689  14.001   8.614   4.451  0.1003 -0.4505  0.8430
  709MOL0     H95690  14.016   8.781   4.491  0.3496 -0.8913 -2.9647
  709MOL0     H95691  13.980   8.552   4.670 -2.7692  0.0998 -0.9040
  709MOL0     H95692  13.891   8.699   4.713  0.6329  1.4016 -0.0917
  709MOL0     H95693  14.092   8.837   4.705 -0.0837 -0.4925  1.3402
  709MOL0     H95694  14.108   8.705   4.820 -0.0334  0.1097  0.9627
  709MOL0     H95695  13.233   8.576   4.295 -0.9060 -0.1970  0.4149
  709MOL0     H95696  13.004   8.522   4.243  0.7200 -0.2708 -0.5768
  709MOL0     H95697  12.663   8.469   3.755 -2.4607 -0.1557 -1.5420
  709MOL0     H95698  12.439   8.408   3.747 -0.9011  0.0271  0.2608
  709MOL0     H95699  10.445   8.096   4.046 -3.0607 -1.3831 -1.4187
  709MOL0     H95700  10.250   8.216   4.025 -0.9680 -1.5468 -0.4345
  709MOL0     H95701   9.948   8.386   3.953  2.2473  1.9717 -1.7126
  709MOL0     H95702   9.723   8.491   3.967 -0.8272 -1.7574  0.2995
  709MOL0     H95703   9.401   8.353   3.819  3.1872  1.4354  1.1019
  709MOL0     H95704   9.446   8.343   3.647 -0.0280  0.2753 -0.3475
  709MOL0     H95705   9.303   8.558   3.788 -0.6694 -0.8357 -0.3138
  709MOL0     H95706   9.216   8.439   3.695 -0.7541  0.3954 -0.4760
  709MOL0     H95707   9.367   8.507   3.480  3.4228  0.0635  0.8865
  709MOL0     H95708   9.403   8.654   3.584  0.6004 -1.0921  0.8286
  709MOL0     H95709   9.172   8.709   3.607 -2.0834 -0.8078 -0.8228
  709MOL0     H95710   9.239   8.716   3.443  0.3218 -0.8469 -0.9372
  709MOL0     H95711   8.972   8.394   3.392  1.9379 -2.3585  2.8347
  709MOL0     H95712   9.653   8.356   3.556  0.6206 -1.3965 -0.8192
  709MOL0     H95713   9.800   8.220   3.462  0.6216  1.8048 -3.6765
  709MOL0     H95714   9.962   8.296   3.477  1.8429 -3.1860 -0.2307
  709MOL0     H95715   9.944   8.143   3.547 -0.5389  1.2528  3.7812
  710MOL0     O95716   4.760   9.564   4.252  0.6238  0.1414  0.0715
  710MOL0     C95717   4.691   9.559   4.352  0.3013 -0.5411 -0.2565
  710MOL0     O95718   4.728   9.563   4.479 -0.0108  0.1429 -1.2510
  710MOL0     C95719   4.846   9.496   4.496 -0.1258 -0.2031 -0.4182
  710MOL0     C95720   4.972   9.559   4.483  0.1357  0.8035 -0.0935
  710MOL0     C95721   5.088   9.486   4.531  0.7202 -0.2020  0.4432
  710MOL0     C95722   5.080   9.353   4.570 -0.7824  1.2409 -0.5492
  710MOL0     O95723   5.202   9.294   4.598 -0.3599 -0.6871 -0.2118
  710MOL0     C95724   5.214   9.159   4.653 -0.2831  0.5368  0.5277
  710MOL0     C95725   5.359   9.135   4.705  0.1853  0.2414  0.2468
  710MOL0     C95726   5.455   9.111   4.592 -0.6045  0.6962  0.4537
  710MOL0     C95727   5.593   9.082   4.634  0.9148  0.0278  0.8794
  710MOL0     C95728   5.664   9.200   4.706 -0.2077 -0.1013 -0.2798
  710MOL0     C95729   5.815   9.170   4.735 -0.1716 -0.8674  0.4943
  710MOL0     C95730   5.870   9.276   4.831  0.2685 -0.3570 -0.0804
  710MOL0     C95731   6.019   9.305   4.795 -0.3089  0.5807 -0.4373
  710MOL0     N95732   6.113   9.324   4.917 -0.1623 -0.2811  0.6069
  710MOL0     C95733   6.242   9.373   4.889 -0.6639 -0.1959 -0.8643
  710MOL0     C95734   6.299   9.396   5.010 -0.0560  0.1908 -0.1927
  710MOL0     C95735   6.441   9.447   5.054 -0.0298 -0.8128  0.9382
  710MOL0     C95736   6.560   9.345   5.052  0.1433  0.1021  0.4150
  710MOL0     C95737   6.691   9.399   5.007 -0.2965 -0.6461  0.0107
  710MOL0     C95738   6.797   9.297   4.989 -0.6905  0.3512 -0.4976
  710MOL0     O95739   6.763   9.225   4.871  0.1989  0.5287 -0.2522
  710MOL0     C95740   6.845   9.118   4.837  0.1261  0.3200  1.1137
  710MOL0     C95741   6.780   9.014   4.757  0.0826 -0.2660  0.4790
  710MOL0     C95742   6.852   8.899   4.716 -0.0885  0.0433  0.7215
  710MOL0     C95743   6.988   8.892   4.753 -0.7100 -0.1030 -0.3044
  710MOL0     C95744   7.071   8.778   4.698  0.6041 -0.4148 -0.0592
  710MOL0     O95745   7.179   8.745   4.772  0.2109  0.0817 -0.3929
  710MOL0     C95746   7.275   8.653   4.733  0.6291 -0.8878  0.2156
  710MOL0     C95747   7.327   8.651   4.606 -0.9133  0.2654  0.1456
  710MOL0     C95748   7.434   8.573   4.578  0.0107 -0.3787 -0.6668
  710MOL0     C95749   7.490   8.488   4.676  0.4296 -0.0165  0.3784
  710MOL0     O95750   7.604   8.412   4.640  0.7284  0.6907  0.1208
  710MOL0     C95751   7.672   8.348   4.748  0.0626  0.1014  0.5287
  710MOL0     C95752   7.815   8.312   4.703  0.1099  0.2228 -0.4277
  710MOL0     C95753   7.802   8.183   4.629  0.4032  0.1724 -0.5009
  710MOL0     C95754   7.929   8.176   4.550 -0.3607  0.3175 -0.2957
  710MOL0     C95755   7.959   8.041   4.481  0.2488 -0.5931 -0.1437
  710MOL0     C95756   8.025   7.941   4.581  0.3113 -0.2810  0.5107
  710MOL0     C95757   8.170   8.002   4.606  0.2459  0.7044 -0.9450
  710MOL0     C95758   8.264   7.886   4.619  0.2045 -0.6443 -0.8123
  710MOL0    Cl95759   8.283   7.780   4.475 -0.3195  0.4106 -0.2450
  710MOL0     C95760   7.441   8.495   4.807  0.4471  0.3419  0.2729
  710MOL0     C95761   7.334   8.575   4.835 -0.6903 -0.9301  0.1538
  710MOL0     O95762   7.022   8.714   4.606 -0.0101  0.0663 -0.0295
  710MOL0     C95763   7.050   8.993   4.827 -0.0599  0.2174  0.0505
  710MOL0     C95764   6.981   9.101   4.868 -0.0239 -0.0606 -0.5411
  710MOL0     N95765   6.197   9.371   5.098 -0.2286 -0.4962 -0.0894
  710MOL0     N95766   6.086   9.339   5.044 -0.1399  0.4775  0.5314
  710MOL0     C95767   4.956   9.293   4.563 -0.2972 -0.0156 -0.2224
  710MOL0     C95768   4.838   9.369   4.550 -0.1064 -0.2041  0.3176
  710MOL0     C95769   4.549   9.548   4.332  0.0120  0.3094 -0.4362
  710MOL0     C95770   4.489   9.431   4.384 -0.7758 -0.3710 -0.0831
  710MOL0     C95771   4.360   9.401   4.369  0.5447  0.4557  0.4792
  710MOL0     C95772   4.287   9.476   4.277  0.0142 -1.1865 -0.2198
  710MOL0     O95773   4.158   9.435   4.267  0.3712  0.2767  0.3375
  710MOL0     C95774   4.062   9.514   4.194 -0.3113 -0.2186  0.2212
  710MOL0     C95775   3.918   9.467   4.221 -0.5205 -0.8968 -0.1578
  710MOL0     C95776   3.830   9.430   4.106  0.0911  0.8985  0.6357
  710MOL0     C95777   3.692   9.407   4.154  0.3470 -0.2205 -0.4358
  710MOL0     C95778   3.624   9.346   4.046  0.6126  0.0062 -0.8100
  710MOL0     C95779   3.551   9.305   3.961 -0.7829 -0.3429  0.6143
  710MOL0     C95780   4.346   9.592   4.217  0.8518 -0.3355 -1.0299
  710MOL0     C95781   4.473   9.633   4.255  0.0437 -0.1348 -0.0628
  710MOL0     C95782   4.532   9.756   4.187  0.6221 -0.1628  0.2057
  710MOL0     H95783   4.981   9.657   4.437 -0.1199  1.2168  0.7198
  710MOL0     H95784   5.182   9.540   4.526  0.6400  0.0419  1.4164
  710MOL0     H95785   5.149   9.135   4.738 -2.2105 -3.2372 -1.7812
  710MOL0     H95786   5.188   9.079   4.584 -0.7741 -2.9425  4.3663
  710MOL0     H95787   5.354   9.042   4.762  0.2077  0.0874 -0.0012
  710MOL0     H95788   5.384   9.215   4.776  1.9575 -1.7170  1.9572
  710MOL0     H95789   5.469   9.188   4.516  2.1723 -0.8343 -0.7522
  710MOL0     H95790   5.435   9.019   4.536  0.6891  0.9215 -0.4186
  710MOL0     H95791   5.607   8.995   4.700 -1.1931 -1.3919 -0.4216
  710MOL0     H95792   5.653   9.062   4.545  0.4151 -1.5354  0.8549
  710MOL0     H95793   5.654   9.288   4.641  0.8250  0.5663  0.4184
  710MOL0     H95794   5.611   9.227   4.798  0.7060  1.3584 -0.1388
  710MOL0     H95795   5.832   9.070   4.776  0.3142 -1.3948 -0.9180
  710MOL0     H95796   5.867   9.172   4.638 -0.2614  0.0822  0.4572
  710MOL0     H95797   5.863   9.249   4.937  1.8146 -0.6801 -0.0396
  710MOL0     H95798   5.814   9.369   4.817  1.2789  0.3101  0.1845
  710MOL0     H95799   6.044   9.215   4.737  1.9093  0.8400 -0.0087
  710MOL0     H95800   6.022   9.391   4.728  4.4639  0.3943 -0.8679
  710MOL0     H95801   6.296   9.396   4.798  0.6440 -0.3863 -0.1508
  710MOL0     H95802   6.463   9.535   4.992 -2.6343 -1.3826 -0.9441
  710MOL0     H95803   6.428   9.478   5.158 -2.9930  1.8147 -0.0558
  710MOL0     H95804   6.574   9.295   5.149  1.9361 -0.4745 -0.1183
  710MOL0     H95805   6.530   9.266   4.983 -0.7882 -0.7969  1.7968
  710MOL0     H95806   6.731   9.464   5.086  3.1296 -0.4859 -1.6912
  710MOL0     H95807   6.680   9.467   4.923 -0.6281  1.9454  2.0308
  710MOL0     H95808   6.795   9.228   5.073 -0.0253  0.4321 -0.4043
  710MOL0     H95809   6.898   9.339   4.989  0.5081 -2.3273  0.0961
  710MOL0     H95810   6.674   9.020   4.732 -1.0320 -1.3977  4.2816
  710MOL0     H95811   6.801   8.822   4.660 -2.9577  2.2374  0.0920
  710MOL0     H95812   7.298   8.710   4.519 -0.2832 -0.2557 -0.4302
  710MOL0     H95813   7.465   8.561   4.475 -0.9752 -2.4912 -0.7708
  710MOL0     H95814   7.685   8.414   4.835 -0.5135  1.2057 -0.1902
  710MOL0     H95815   7.615   8.256   4.764  1.9404 -2.2115 -4.1948
  710MOL0     H95816   7.845   8.395   4.638  2.7103  0.0722  0.4652
  710MOL0     H95817   7.890   8.320   4.782  0.5053  0.5734 -0.8328
  710MOL0     H95818   7.793   8.104   4.705  0.0588  0.0674 -0.6472
  710MOL0     H95819   7.712   8.185   4.567  0.1601  3.8006 -0.2412
  710MOL0     H95820   8.011   8.196   4.619 -0.7407 -0.5393  0.4209
  710MOL0     H95821   7.922   8.260   4.480 -1.3706  1.8531  1.5430
  710MOL0     H95822   8.031   8.067   4.404  2.5544 -0.0680  2.0732
  710MOL0     H95823   7.868   7.997   4.438  0.8679 -1.0733 -0.9973
  710MOL0     H95824   7.974   7.946   4.677  0.3506  3.5331  0.4756
  710MOL0     H95825   8.036   7.838   4.546  2.1824 -0.8016  2.4131
  710MOL0     H95826   8.172   8.063   4.697 -1.6200  2.7895 -2.1809
  710MOL0     H95827   8.204   8.066   4.524  0.1776 -1.0856 -2.4298
  710MOL0     H95828   8.360   7.933   4.644 -1.2251  2.5204 -0.7081
  710MOL0     H95829   8.233   7.826   4.705 -2.1425 -0.4211 -1.4258
  710MOL0     H95830   7.473   8.436   4.892  1.5504  0.3685 -0.1009
  710MOL0     H95831   7.299   8.580   4.938  0.7786 -3.1396  0.8321
  710MOL0     H95832   7.155   8.981   4.851  0.8590 -1.0976 -3.8632
  710MOL0     H95833   7.027   9.168   4.940 -1.6735  0.5212  0.0091
  710MOL0     H95834   4.947   9.189   4.593 -3.4015  0.5714  1.2010
  710MOL0     H95835   4.737   9.329   4.553  0.3414 -1.5520 -1.1842
  710MOL0     H95836   4.551   9.365   4.445 -0.8091  0.7083  1.1692
  710MOL0     H95837   4.309   9.325   4.428  2.2316  0.9500  2.6900
  710MOL0     H95838   4.089   9.501   4.088 -2.3420  0.5249 -0.4358
  710MOL0     H95839   4.079   9.616   4.229  0.1843  0.0250 -0.6946
  710MOL0     H95840   3.867   9.534   4.290  1.6172  1.0479 -0.3415
  710MOL0     H95841   3.931   9.376   4.280  2.5163 -0.1452  0.5067
  710MOL0     H95842   3.875   9.335   4.078 -2.6968 -1.0032  2.0834
  710MOL0     H95843   3.831   9.510   4.031 -0.1525 -0.2347 -0.6073
  710MOL0     H95844   3.692   9.335   4.236 -2.4193  0.1853  0.0228
  710MOL0     H95845   3.649   9.503   4.183 -1.1021 -0.8687 -0.3622
  710MOL0     H95846   3.478   9.259   3.897 -0.3980  0.5938 -0.5216
  710MOL0     H95847   4.283   9.651   4.150  0.8885  2.4727  1.2067
  710MOL0     H95848   4.446   9.822   4.169  2.1772  1.6525 -0.9758
  710MOL0     H95849   4.590   9.820   4.254  1.0890  0.8234 -1.0776
  710MOL0     H95850   4.588   9.744   4.093  0.1656  1.3312 -0.2982
  711MOL0     O95851   6.788   6.382   7.631  0.2280 -0.0881 -0.5786
  711MOL0     C95852   6.788   6.288   7.548 -0.1366 -0.4172 -0.9041
  711MOL0     O95853   6.878   6.192   7.547  0.2499 -0.3473  0.0453
  711MOL0     C95854   6.987   6.195   7.632  0.4604  0.6700 -0.4031
  711MOL0     C95855   7.000   6.111   7.739 -0.6556 -0.8023 -0.0990
  711MOL0     C95856   7.114   6.116   7.822 -0.0319  0.0100 -0.5930
  711MOL0     C95857   7.216   6.202   7.793 -0.4697 -1.0076  0.2499
  711MOL0     O95858   7.332   6.197   7.867 -0.4272  0.1772  0.1864
  711MOL0     C95859   7.463   6.205   7.797  0.6808 -0.0663  0.1990
  711MOL0     C95860   7.554   6.094   7.840  0.1205 -0.5557  0.0613
  711MOL0     C95861   7.676   6.080   7.748  0.1764 -0.1327 -0.2551
  711MOL0     C95862   7.775   5.973   7.815  0.0650  0.0763 -0.3255
  711MOL0     C95863   7.881   5.910   7.725  0.9624 -0.0448 -0.7973
  711MOL0     C95864   7.966   6.025   7.670 -0.0969 -0.4710  0.7365
  711MOL0     C95865   8.084   5.971   7.579 -0.3830  0.2804 -0.7143
  711MOL0     C95866   8.206   5.964   7.668 -0.6982  0.1642 -0.9170
  711MOL0     N95867   8.331   5.947   7.592 -0.2376  0.4134 -0.7017
  711MOL0     C95868   8.408   5.834   7.579  0.3250 -0.2171 -0.6935
  711MOL0     C95869   8.525   5.882   7.528 -0.5306 -0.3122 -0.1887
  711MOL0     C95870   8.655   5.808   7.489  0.0766  0.3346 -0.1254
  711MOL0     C95871   8.773   5.854   7.570  0.1574 -0.4303 -0.2929
  711MOL0     C95872   8.893   5.779   7.506  0.3873  0.6417  0.0430
  711MOL0     C95873   9.021   5.812   7.585  0.4186  0.0930 -0.4660
  711MOL0     O95874   9.127   5.715   7.565 -0.4334 -0.0228 -0.6943
  711MOL0     C95875   9.236   5.735   7.649 -0.2702 -0.4931 -0.4747
  711MOL0     C95876   9.241   5.820   7.752 -0.2178 -0.2023 -0.8436
  711MOL0     C95877   9.357   5.826   7.834 -0.7270  0.5527  0.0618
  711MOL0     C95878   9.459   5.736   7.813 -1.1064 -0.4106 -0.3098
  711MOL0     C95879   9.587   5.759   7.880  0.6355  0.4733 -0.5053
  711MOL0     O95880   9.692   5.691   7.828 -0.2762 -0.5040 -0.5134
  711MOL0     C95881   9.814   5.706   7.897 -0.8058 -0.1289 -0.6011
  711MOL0     C95882   9.891   5.819   7.876 -0.5057  0.7530 -0.1074
  711MOL0     C95883  10.014   5.815   7.944  0.0293  0.3011  0.2516
  711MOL0     C95884  10.053   5.707   8.034 -0.2995 -0.0390  0.9784
  711MOL0     O95885  10.167   5.724   8.110 -0.1350 -0.6073  0.2557
  711MOL0     C95886  10.225   5.612   8.173 -0.1490  0.4457 -0.3056
  711MOL0     C95887  10.355   5.640   8.247  0.7492  0.4619 -0.1653
  711MOL0     C95888  10.479   5.688   8.165 -0.6255  0.3463  0.0497
  711MOL0     C95889  10.520   5.568   8.074  0.1332  0.2395 -0.1019
  711MOL0     C95890  10.659   5.589   8.015  0.2528 -0.2533 -0.3955
  711MOL0     C95891  10.777   5.563   8.115 -0.3414  0.4608 -0.0544
  711MOL0     C95892  10.907   5.633   8.066 -0.3240  0.4699 -0.0470
  711MOL0     C95893  11.019   5.632   8.173  0.0820  0.3042 -0.3653
  711MOL0    Cl95894  10.956   5.720   8.322 -0.6098 -0.0397  0.3237
  711MOL0     C95895   9.970   5.595   8.047  0.0852 -0.3120 -0.7728
  711MOL0     C95896   9.853   5.595   7.979  0.6568 -0.0516 -1.4424
  711MOL0     O95897   9.592   5.835   7.982 -0.2221 -0.0348  0.2546
  711MOL0     C95898   9.458   5.638   7.718  0.0012 -0.7890  0.6056
  711MOL0     C95899   9.345   5.644   7.631  0.3104 -0.3373 -0.3282
  711MOL0     N95900   8.527   6.024   7.521  0.4820  0.2795  0.0275
  711MOL0     N95901   8.406   6.057   7.556  0.0265  0.1845 -0.0026
  711MOL0     C95902   7.205   6.287   7.682 -0.3977 -0.1923  0.4342
  711MOL0     C95903   7.082   6.291   7.613 -0.0404 -0.2821 -0.3471
  711MOL0     C95904   6.689   6.280   7.438  0.3420  0.0663  0.2385
  711MOL0     C95905   6.679   6.162   7.360 -0.0328  0.4474 -0.5270
  711MOL0     C95906   6.589   6.139   7.254  0.7678 -0.4108  1.0375
  711MOL0     C95907   6.501   6.244   7.221 -0.2142 -1.2183  0.3745
  711MOL0     O95908   6.399   6.247   7.126  0.2806  0.3421 -0.0368
  711MOL0     C95909   6.305   6.144   7.137 -0.0727  0.1241 -0.7746
  711MOL0     C95910   6.181   6.162   7.059  0.1331 -0.9161  0.2402
  711MOL0     C95911   6.069   6.057   7.088 -0.2424 -0.5228 -0.1840
  711MOL0     C95912   5.951   6.096   6.996 -0.0479  0.3245 -0.3485
  711MOL0     C95913   5.840   6.002   7.010 -0.2957 -0.1138 -0.4706
  711MOL0     C95914   5.761   5.922   7.056 -0.2037  0.3944 -0.1480
  711MOL0     C95915   6.512   6.362   7.292 -0.8372  0.4360  0.4490
  711MOL0     C95916   6.593   6.382   7.404 -0.7637 -0.0983  0.5504
  711MOL0     C95917   6.578   6.520   7.471  0.0797 -0.1535  0.2760
  711MOL0     H95918   6.923   6.035   7.751  0.1675 -1.7678 -0.7539
  711MOL0     H95919   7.122   6.051   7.908  1.0147 -1.2928 -1.6185
  711MOL0     H95920   7.444   6.197   7.689 -1.9654  0.4951  0.5403
  711MOL0     H95921   7.509   6.300   7.827 -1.1296  0.1944  2.4387
  711MOL0     H95922   7.496   6.001   7.841 -1.4224  0.2837 -2.4241
  711MOL0     H95923   7.588   6.117   7.941  0.1211 -0.7643  0.1086
  711MOL0     H95924   7.721   6.176   7.724 -2.8269  1.7783  1.1812
  711MOL0     H95925   7.642   6.022   7.661 -0.2713  1.4067 -1.1405
  711MOL0     H95926   7.824   6.028   7.896 -0.9206  2.3062 -1.1451
  711MOL0     H95927   7.722   5.887   7.856  0.5224 -1.0380 -1.9618
  711MOL0     H95928   7.949   5.847   7.782 -0.0259  1.5235  2.3587
  711MOL0     H95929   7.841   5.853   7.641 -0.4117  1.6141 -1.3253
  711MOL0     H95930   7.915   6.096   7.604 -1.3008 -0.6238  1.4787
  711MOL0     H95931   8.002   6.089   7.750 -0.5792  0.8544 -0.0735
  711MOL0     H95932   8.090   6.043   7.497 -1.3316 -1.8502 -2.7595
  711MOL0     H95933   8.070   5.874   7.531 -0.0159  1.0102 -2.3749
  711MOL0     H95934   8.218   6.059   7.721  2.0842 -0.5823  0.0173
  711MOL0     H95935   8.191   5.887   7.744 -0.7595  2.0088  1.0381
  711MOL0     H95936   8.377   5.733   7.605 -2.1525  0.4267 -0.9145
  711MOL0     H95937   8.628   5.703   7.503 -3.2085  0.4886 -3.5837
  711MOL0     H95938   8.674   5.824   7.382 -0.1548 -1.0246 -0.3832
  711MOL0     H95939   8.797   5.961   7.575  1.7795 -0.8239  2.6682
  711MOL0     H95940   8.757   5.834   7.677 -1.5089  3.9188  0.4840
  711MOL0     H95941   8.898   5.802   7.399  1.2553 -0.5584 -0.1980
  711MOL0     H95942   8.874   5.672   7.506 -1.7536  0.9884 -0.5957
  711MOL0     H95943   8.985   5.810   7.689 -0.4520  1.7762 -0.7066
  711MOL0     H95944   9.055   5.913   7.563  1.9761  0.2783  2.3085
  711MOL0     H95945   9.157   5.883   7.778  0.1884 -0.4518  1.1973
  711MOL0     H95946   9.354   5.895   7.917 -1.2781  0.7336 -0.0975
  711MOL0     H95947   9.854   5.905   7.821 -2.9363 -0.4656 -0.5197
  711MOL0     H95948  10.079   5.901   7.953 -2.7162  2.5421 -0.1418
  711MOL0     H95949  10.154   5.579   8.250 -1.2699  3.1192 -0.1168
  711MOL0     H95950  10.249   5.531   8.103  0.7494  0.1266  0.3404
  711MOL0     H95951  10.336   5.718   8.321  1.1354 -1.4073  1.9993
  711MOL0     H95952  10.395   5.550   8.294  2.3944  0.7684 -0.8905
  711MOL0     H95953  10.454   5.780   8.111 -1.5080  0.3443  0.4421
  711MOL0     H95954  10.566   5.717   8.224 -1.1364  0.1836  0.8973
  711MOL0     H95955  10.443   5.559   7.996 -1.8436  0.8011  1.6770
  711MOL0     H95956  10.520   5.476   8.132 -0.3893 -1.3759 -2.5176
  711MOL0     H95957  10.664   5.691   7.974  3.0603 -0.6806 -1.3584
  711MOL0     H95958  10.681   5.519   7.934  0.8397 -0.0082 -0.4613
  711MOL0     H95959  10.748   5.592   8.216  0.2303 -2.3200  1.0102
  711MOL0     H95960  10.804   5.457   8.110 -1.9075  0.0958 -2.1697
  711MOL0     H95961  10.894   5.740   8.045 -1.0718  0.5261  0.6397
  711MOL0     H95962  10.953   5.584   7.980  0.7550 -1.1057  1.3623
  711MOL0     H95963  11.046   5.532   8.209  0.1975  0.2007 -0.7339
  711MOL0     H95964  11.111   5.675   8.133 -0.0080 -0.1020 -1.0312
  711MOL0     H95965   9.977   5.521   8.126  1.6366  0.0818 -0.5093
  711MOL0     H95966   9.781   5.518   8.004  1.4811 -1.0259 -1.9967
  711MOL0     H95967   9.544   5.578   7.689  1.1721  0.9460  0.2979
  711MOL0     H95968   9.331   5.592   7.536  1.8300 -0.8572 -0.2840
  711MOL0     H95969   7.288   6.352   7.657  2.6231 -4.5117 -2.1139
  711MOL0     H95970   7.073   6.351   7.523 -0.3340 -1.0367 -0.8266
  711MOL0     H95971   6.749   6.080   7.376  0.3684  1.2469  2.4880
  711MOL0     H95972   6.583   6.034   7.226  3.2633 -1.9075  5.2336
  711MOL0     H95973   6.274   6.147   7.242 -1.3036 -2.1870 -1.0228
  711MOL0     H95974   6.348   6.048   7.108  0.2469  0.5320 -1.7110
  711MOL0     H95975   6.212   6.144   6.956 -2.5319 -2.0406 -0.4266
  711MOL0     H95976   6.146   6.263   7.081 -0.1537 -0.6846 -1.2114
  711MOL0     H95977   6.036   6.060   7.192 -1.4429 -1.0332 -0.5430
  711MOL0     H95978   6.102   5.954   7.071 -0.9169 -0.7952  0.1546
  711MOL0     H95979   5.916   6.195   7.024 -1.1418 -0.1324 -0.0289
  711MOL0     H95980   6.003   6.099   6.900  3.9670  1.1521  1.6575
  711MOL0     H95981   5.690   5.857   7.101  0.5524  0.1555  0.7209
  711MOL0     H95982   6.425   6.425   7.275 -0.9198 -0.2434 -2.0143
  711MOL0     H95983   6.491   6.570   7.427 -0.4129 -0.1420  1.2507
  711MOL0     H95984   6.576   6.520   7.580 -0.4948 -0.9219  0.2716
  711MOL0     H95985   6.659   6.588   7.441 -0.7585  0.5630 -0.4230
  712MOL0     O95986  11.124   2.207   7.936  0.4601  0.0205 -0.4445
  712MOL0     C95987  11.073   2.104   7.970  0.6511  0.4715 -0.1305
  712MOL0     O95988  11.130   1.979   7.958  0.4303  0.7958 -0.5130
  712MOL0     C95989  11.259   1.962   7.916  0.5862 -0.6254 -0.5776
  712MOL0     C95990  11.355   1.941   8.019  0.0313 -0.6864  0.4513
  712MOL0     C95991  11.487   1.936   7.988 -0.3164  0.3246 -0.3187
  712MOL0     C95992  11.531   1.957   7.859 -0.1899  0.7796 -0.2563
  712MOL0     O95993  11.657   1.944   7.813 -0.4454 -0.4980 -0.1422
  712MOL0     C95994  11.761   1.932   7.912 -0.7781 -0.2503 -0.3203
  712MOL0     C95995  11.898   1.950   7.845  1.0441 -0.3537  0.0123
  712MOL0     C95996  12.014   1.907   7.936  0.0884 -0.6825 -0.0200
  712MOL0     C95997  12.149   1.918   7.859  0.0948  1.0532  0.0399
  712MOL0     C95998  12.274   1.891   7.951  0.1586 -0.1643  0.1897
  712MOL0     C95999  12.296   1.743   7.987 -0.2500  0.0270 -0.7470
  712MOL0     C96000  12.446   1.729   8.032 -0.1088  0.7486  0.5983
  712MOL0     C96001  12.463   1.595   8.096 -0.4099  0.8668  0.1092
  712MOL0     N96002  12.604   1.561   8.140  0.4095 -0.4542  0.2579
  712MOL0     C96003  12.724   1.609   8.090  0.8699 -0.0510 -0.0504
  712MOL0     C96004  12.821   1.566   8.172 -0.2888  0.2534  0.2421
  712MOL0     C96005  12.970   1.578   8.136 -1.2921  0.4943  0.5633
  712MOL0     C96006  13.039   1.692   8.214 -0.0130 -0.0603 -0.1745
  712MOL0     C96007  13.186   1.710   8.162 -0.1588  0.5177  1.0095
  712MOL0     C96008  13.283   1.785   8.257 -0.7665  0.5323 -0.0713
  712MOL0     O96009  13.387   1.856   8.191  0.6945  0.1498  0.5828
  712MOL0     C96010  13.517   1.817   8.208 -0.3854 -0.2026  0.6290
  712MOL0     C96011  13.579   1.747   8.311  0.4309 -0.8807  0.5199
  712MOL0     C96012  13.719   1.755   8.318  0.5678 -0.8901 -0.3753
  712MOL0     C96013  13.805   1.808   8.213  0.4945  0.0411 -0.3436
  712MOL0     C96014  13.954   1.799   8.215 -0.4252  0.0159 -0.0812
  712MOL0     O96015  14.015   1.821   8.097  0.7777 -0.1778  0.3966
  712MOL0     C96016  14.152   1.819   8.076  0.3151  0.5877  0.1023
  712MOL0     C96017  14.185   1.800   7.942 -0.3810 -0.0705  0.5040
  712MOL0     C96018  14.318   1.805   7.900  0.6687  0.2894 -0.3353
  712MOL0     C96019  14.415   1.840   7.985  1.0405 -0.3245 -0.6817
  712MOL0     O96020  14.534   1.859   7.926 -0.1264  0.0655 -0.3959
  712MOL0     C96021  14.618   1.968   7.988 -0.2561  0.0708  0.4391
  712MOL0     C96022  14.732   1.998   7.886 -0.0595 -0.2003  0.0746
  712MOL0     C96023  14.843   2.091   7.952 -0.5610 -0.1286 -0.3512
  712MOL0     C96024  14.966   2.129   7.873 -0.4293 -0.0324 -0.1324
  712MOL0     C96025  15.071   2.228   7.931  0.5661  0.3792 -0.4752
  712MOL0     C96026  15.130   2.165   8.060  0.4281 -0.5625  0.7202
  712MOL0     C96027  15.258   2.247   8.124 -0.4346  0.1172  0.2778
  712MOL0     C96028  15.372   2.216   8.038 -1.5584  0.1794  0.2471
  712MOL0    Cl96029  15.523   2.253   8.131  0.2882  0.0603 -0.1658
  712MOL0     C96030  14.385   1.862   8.124 -0.1686  0.9049  0.4739
  712MOL0     C96031  14.249   1.860   8.163  0.5507  0.1007 -0.2535
  712MOL0     O96032  14.010   1.758   8.318 -0.2774 -0.5861  0.1584
  712MOL0     C96033  13.747   1.865   8.116 -0.0421 -1.1904  1.2040
  712MOL0     C96034  13.601   1.874   8.111 -0.6084  0.2894 -0.0148
  712MOL0     N96035  12.767   1.485   8.273 -0.6687 -0.7714 -0.2165
  712MOL0     N96036  12.640   1.493   8.251 -0.2242  0.4801 -0.4102
  712MOL0     C96037  11.436   1.974   7.752 -0.4837 -0.8407 -1.1829
  712MOL0     C96038  11.300   1.975   7.786 -0.1739 -0.5714  0.7409
  712MOL0     C96039  10.939   2.116   8.044 -0.3262  0.0448 -0.5750
  712MOL0     C96040  10.910   2.221   8.134 -0.4273 -0.3692 -0.5258
  712MOL0     C96041  10.795   2.226   8.208  0.2145  0.2339  0.3107
  712MOL0     C96042  10.698   2.123   8.187 -0.8314 -0.8877 -0.9252
  712MOL0     O96043  10.577   2.134   8.247 -0.0550  0.5348  0.0955
  712MOL0     C96044  10.511   2.262   8.248  1.4287  0.0094  0.3290
  712MOL0     C96045  10.361   2.240   8.218  0.0377 -0.1577 -0.0749
  712MOL0     C96046  10.298   2.125   8.300  1.2998 -0.1147  0.4277
  712MOL0     C96047  10.144   2.089   8.291  0.1445  0.4872  0.0873
  712MOL0     C96048  10.131   1.976   8.197  0.1957  0.7644  0.6113
  712MOL0     C96049  10.132   1.882   8.122  0.7803  0.6919  0.8074
  712MOL0     C96050  10.730   2.021   8.100  1.0213 -0.1505 -0.2602
  712MOL0     C96051  10.844   2.017   8.029  0.2143  0.6430 -0.2758
  712MOL0     C96052  10.857   1.896   7.939  0.4143 -0.6475  0.1365
  712MOL0     H96053  11.316   1.922   8.119 -1.1006 -1.2022 -0.0679
  712MOL0     H96054  11.563   1.903   8.058 -1.1366 -2.0752 -0.4576
  712MOL0     H96055  11.743   2.014   7.981  0.1500 -0.1145 -0.2293
  712MOL0     H96056  11.758   1.842   7.975 -2.1778  0.6756  1.0089
  712MOL0     H96057  11.908   2.055   7.815  0.1394 -0.3033 -0.1541
  712MOL0     H96058  11.913   1.885   7.758 -1.9547  0.3408 -1.1705
  712MOL0     H96059  11.986   1.806   7.967 -0.8205 -0.2869  0.4823
  712MOL0     H96060  12.019   1.973   8.023  0.3887  1.3053 -1.4791
  712MOL0     H96061  12.156   1.848   7.776  1.7386 -0.0364  1.0398
  712MOL0     H96062  12.152   2.020   7.820 -0.0302  2.3094  3.0094
  712MOL0     H96063  12.365   1.921   7.897 -0.4588  2.7465  0.6185
  712MOL0     H96064  12.251   1.956   8.036  1.0483  0.5103 -0.0582
  712MOL0     H96065  12.230   1.708   8.067 -0.1183  0.7323 -0.3172
  712MOL0     H96066  12.282   1.690   7.893 -0.3716  2.9082 -2.4932
  712MOL0     H96067  12.459   1.799   8.115  0.5139  0.6414  0.5980
  712MOL0     H96068  12.508   1.747   7.944 -0.9896 -2.1100 -0.7190
  712MOL0     H96069  12.400   1.577   8.183  0.8245 -1.2808  0.6492
  712MOL0     H96070  12.437   1.522   8.018  0.1986  1.2738 -0.4852
  712MOL0     H96071  12.734   1.676   8.005  1.7153 -0.5201 -0.3307
  712MOL0     H96072  13.018   1.480   8.149 -3.0518 -0.6130 -0.6678
  712MOL0     H96073  12.983   1.607   8.032  0.5178 -2.6515 -0.2242
  712MOL0     H96074  12.986   1.786   8.196  2.9170  1.4567 -1.5843
  712MOL0     H96075  13.031   1.668   8.320  0.4406 -0.7530 -0.2916
  712MOL0     H96076  13.177   1.774   8.075 -0.9358  2.7410  2.6230
  712MOL0     H96077  13.222   1.613   8.127 -2.5628  0.4653 -1.7501
  712MOL0     H96078  13.316   1.709   8.329 -1.3757 -1.1135 -1.4575
  712MOL0     H96079  13.224   1.855   8.318 -0.3354  2.3453 -1.6522
  712MOL0     H96080  13.516   1.698   8.384 -2.9024 -0.3344 -1.8022
  712MOL0     H96081  13.770   1.707   8.401 -0.3074  0.1613  0.8198
  712MOL0     H96082  14.111   1.791   7.863  1.8522  2.6095 -2.1931
  712MOL0     H96083  14.355   1.784   7.801 -1.2447 -1.0033 -0.8400
  712MOL0     H96084  14.557   2.059   7.997  0.4337  0.7774 -1.4805
  712MOL0     H96085  14.668   1.932   8.078  2.1402 -2.5733 -1.7584
  712MOL0     H96086  14.779   1.904   7.856  0.6867  0.5700 -1.2665
  712MOL0     H96087  14.695   2.056   7.800 -1.6833  0.3949  1.1170
  712MOL0     H96088  14.787   2.176   7.992 -3.4991 -1.9083 -0.4276
  712MOL0     H96089  14.881   2.047   8.044  0.3277  1.0616 -0.1166
  712MOL0     H96090  14.933   2.175   7.780  0.6678  0.5474 -0.2508
  712MOL0     H96091  15.015   2.033   7.852 -1.9039 -1.3931  2.1884
  712MOL0     H96092  15.024   2.320   7.967  1.0429 -0.0497  1.3648
  712MOL0     H96093  15.146   2.260   7.858  1.9117  1.9570  1.4871
  712MOL0     H96094  15.051   2.174   8.135  0.5063 -0.7430  0.8237
  712MOL0     H96095  15.161   2.061   8.059 -0.8243 -0.9543  0.8717
  712MOL0     H96096  15.262   2.208   8.226 -0.6330  0.1863  0.3115
  712MOL0     H96097  15.241   2.355   8.128 -2.3705 -0.1865  2.9015
  712MOL0     H96098  15.378   2.109   8.014  3.9562 -0.0609  1.3445
  712MOL0     H96099  15.377   2.272   7.944  0.3100  1.7539  1.2183
  712MOL0     H96100  14.469   1.887   8.188  1.1912 -2.3971  0.2171
  712MOL0     H96101  14.222   1.896   8.261 -0.5911  2.1298 -1.2432
  712MOL0     H96102  13.796   1.921   8.036 -3.6779 -0.3623 -0.6820
  712MOL0     H96103  13.567   1.920   8.019  0.3807  0.9430 -0.0712
  712MOL0     H96104  11.467   1.985   7.649  0.3358 -0.0341 -0.8626
  712MOL0     H96105  11.219   1.985   7.714 -0.9092  0.1926  1.6470
  712MOL0     H96106  10.987   2.295   8.150  0.6967 -1.1671 -2.0339
  712MOL0     H96107  10.775   2.298   8.287 -1.0708 -1.4825  1.6149
  712MOL0     H96108  10.555   2.336   8.181 -1.0278  0.2446 -1.1394
  712MOL0     H96109  10.523   2.312   8.345  1.7294  1.2281 -0.3164
  712MOL0     H96110  10.362   2.215   8.112 -0.6784 -1.7676  0.2767
  712MOL0     H96111  10.304   2.332   8.231 -1.8615 -0.9971 -1.8860
  712MOL0     H96112  10.313   2.147   8.407  0.5814 -1.0049  0.7260
  712MOL0     H96113  10.353   2.031   8.290 -1.1363 -1.4344 -1.7095
  712MOL0     H96114  10.111   2.049   8.387  1.6368 -3.2045 -0.7541
  712MOL0     H96115  10.086   2.172   8.251  3.2906  1.5386 -2.7687
  712MOL0     H96116  10.124   1.790   8.069 -1.0574  1.5678 -0.5542
  712MOL0     H96117  10.653   1.945   8.096  0.0722  0.8396 -1.8601
  712MOL0     H96118  10.910   1.816   7.992 -1.3841 -2.6960 -1.0476
  712MOL0     H96119  10.753   1.872   7.918 -0.4914  2.4484  0.4728
  712MOL0     H96120  10.914   1.920   7.849 -0.7042 -0.9323 -0.6645
  713MOL0     O96121   2.472   0.147   3.516 -0.1155 -0.0392  0.0337
  713MOL0     C96122   2.478   0.266   3.502 -0.1752 -0.2148 -0.1549
  713MOL0     O96123   2.597   0.332   3.510  0.0973  0.2367 -0.1682
  713MOL0     C96124   2.713   0.285   3.574 -0.1821 -0.7823  0.6327
  713MOL0     C96125   2.830   0.349   3.532 -0.3216  0.4411 -0.2951
  713MOL0     C96126   2.955   0.306   3.581  0.5750  0.0510  0.5440
  713MOL0     C96127   2.961   0.220   3.695  0.1585  0.2886 -0.0706
  713MOL0     O96128   3.080   0.208   3.761  0.4363  0.3171 -0.0771
  713MOL0     C96129   3.130   0.074   3.758 -0.5991 -0.2493 -0.2693
  713MOL0     C96130   3.235   0.066   3.869 -0.6435 -1.4644  0.4916
  713MOL0     C96131   3.382   0.102   3.827 -0.2707  0.1183 -1.3562
  713MOL0     C96132   3.481   0.072   3.946 -0.4437  0.6372  1.3372
  713MOL0     C96133   3.618   0.140   3.926 -0.1516 -0.4085  0.4416
  713MOL0     C96134   3.701   0.104   3.807  0.2727 -0.4699  0.8505
  713MOL0     C96135   3.844   0.150   3.802 -0.3342  0.7499  0.4996
  713MOL0     C96136   3.925   0.099   3.682  0.0452 -0.1288  0.3422
  713MOL0     N96137   4.072   0.115   3.715  0.0971 -0.0337 -0.6976
  713MOL0     C96138   4.170   0.072   3.628  0.4272 -0.5889 -0.1167
  713MOL0     C96139   4.279   0.072   3.709 -0.5291  0.4682 -0.2897
  713MOL0     C96140   4.394  -0.002   3.651 -0.1229 -0.4293 -0.6045
  713MOL0     C96141   4.528   0.052   3.694  0.0585 -0.7077 -0.3721
  713MOL0     C96142   4.638  -0.014   3.613 -0.9055 -1.1428  0.0611
  713MOL0     C96143   4.771   0.069   3.606 -0.0627 -0.0823  0.0986
  713MOL0     O96144   4.822   0.065   3.740 -0.4147 -0.3790 -0.0849
  713MOL0     C96145   4.963   0.055   3.753  0.5381  0.1453  0.4670
  713MOL0     C96146   5.026  -0.066   3.755 -0.1774  0.0040  0.4858
  713MOL0     C96147   5.163  -0.072   3.765 -0.2119 -0.0643 -0.7687
  713MOL0     C96148   5.248   0.040   3.759  0.5875  0.0149 -0.5936
  713MOL0     C96149   5.392   0.026   3.774 -0.2301  0.3828  0.0501
  713MOL0     O96150   5.453  -0.090   3.810  0.7577  0.1630 -0.3619
  713MOL0     C96151   5.587  -0.117   3.797 -0.0597  0.1587 -0.3976
  713MOL0     C96152   5.652  -0.205   3.895  0.3136 -0.7885  1.1629
  713MOL0     C96153   5.787  -0.232   3.891  0.9572  0.1459  0.6410
  713MOL0     C96154   5.865  -0.200   3.775  0.7129 -0.8204 -0.6910
  713MOL0     O96155   5.994  -0.242   3.779  0.7622  0.4548  0.4084
  713MOL0     C96156   6.081  -0.189   3.680 -1.0860  0.2678 -0.1461
  713MOL0     C96157   6.214  -0.258   3.708 -0.3044 -0.1621  0.7185
  713MOL0     C96158   6.298  -0.226   3.581 -0.1260 -0.3463  0.1716
  713MOL0     C96159   6.447  -0.269   3.604 -0.3813  0.3733 -0.4240
  713MOL0     C96160   6.538  -0.270   3.477  0.2456  0.2882  0.1303
  713MOL0     C96161   6.674  -0.344   3.505  0.0860 -0.0744 -0.5502
  713MOL0     C96162   6.739  -0.276   3.624  0.2035 -0.7047 -0.2597
  713MOL0     C96163   6.781  -0.134   3.596  0.4813 -0.1910  0.2301
  713MOL0    Cl96164   6.892  -0.093   3.720  0.3012 -0.2772  0.4758
  713MOL0     C96165   5.813  -0.114   3.678  0.5299 -0.5162  0.5267
  713MOL0     C96166   5.671  -0.080   3.694 -0.2992  0.1589  0.2640
  713MOL0     O96167   5.455   0.135   3.749 -0.1327  0.7048 -0.3266
  713MOL0     C96168   5.182   0.166   3.751  0.4475 -0.9781  0.9536
  713MOL0     C96169   5.043   0.170   3.752 -0.1530  0.0025  0.2388
  713MOL0     N96170   4.255   0.118   3.838 -0.5710 -0.3278  0.4182
  713MOL0     N96171   4.130   0.129   3.841 -0.3649 -0.0650  0.2707
  713MOL0     C96172   2.839   0.170   3.748 -0.1175  0.1293 -0.4450
  713MOL0     C96173   2.715   0.202   3.683  0.6906  0.5071 -0.9942
  713MOL0     C96174   2.357   0.343   3.455 -0.0897  0.2831 -0.0935
  713MOL0     C96175   2.371   0.460   3.377 -0.4016 -0.6046 -0.2726
  713MOL0     C96176   2.266   0.546   3.352  0.9393  0.3334 -0.0774
  713MOL0     C96177   2.135   0.514   3.397  0.4022  0.5475 -0.7736
  713MOL0     O96178   2.037   0.602   3.357  0.4641 -0.1247  0.3485
  713MOL0     C96179   1.903   0.566   3.350  0.1857 -0.3099  0.6079
  713MOL0     C96180   1.836   0.600   3.486  0.6554  0.3863  0.0387
  713MOL0     C96181   1.804   0.750   3.503  0.7194 -0.1209  0.5419
  713MOL0     C96182   1.901   0.821   3.594 -0.6930 -0.2841  0.0435
  713MOL0     C96183   1.908   0.962   3.566 -0.2865  0.7558  0.2174
  713MOL0     C96184   1.913   1.074   3.540  0.6613 -0.9497 -0.6657
  713MOL0     C96185   2.116   0.396   3.465 -0.3801  0.1020 -0.3813
  713MOL0     C96186   2.223   0.309   3.501  0.2034 -0.4948  0.2054
  713MOL0     C96187   2.199   0.187   3.587 -0.4749 -0.1639  0.0333
  713MOL0     H96188   2.817   0.425   3.455 -2.4927 -1.3269 -1.8427
  713MOL0     H96189   3.045   0.340   3.531  1.5359 -2.0288  0.7420
  713MOL0     H96190   3.052   0.011   3.802 -1.0578  2.0548  2.5203
  713MOL0     H96191   3.172   0.041   3.662  2.1569 -1.5744  1.2575
  713MOL0     H96192   3.231  -0.035   3.913 -1.4625 -1.2406  0.9493
  713MOL0     H96193   3.216   0.146   3.941  0.6754  0.2703 -1.0152
  713MOL0     H96194   3.379   0.207   3.797 -0.7210  0.6596  0.4201
  713MOL0     H96195   3.420   0.051   3.738  1.2009  1.1186 -1.3381
  713MOL0     H96196   3.440   0.102   4.043 -3.9759 -2.0587  0.8732
  713MOL0     H96197   3.485  -0.037   3.953  1.1347  0.4930 -0.7334
  713MOL0     H96198   3.606   0.248   3.924 -0.6719 -0.4776 -1.2956
  713MOL0     H96199   3.685   0.117   4.009 -1.9316 -1.5809  1.6297
  713MOL0     H96200   3.712  -0.004   3.822  2.6423 -0.1695  1.6964
  713MOL0     H96201   3.649   0.125   3.713  1.7612  3.0980  0.6914
  713MOL0     H96202   3.894   0.110   3.891  0.1968  0.6186  0.1457
  713MOL0     H96203   3.847   0.260   3.804  0.7290  0.7485 -0.2811
  713MOL0     H96204   3.891  -0.002   3.659  1.3194 -1.0752  2.4083
  713MOL0     H96205   3.898   0.153   3.590 -1.6468  0.0201  0.9000
  713MOL0     H96206   4.168   0.027   3.530  3.4917  0.3143 -0.6977
  713MOL0     H96207   4.390  -0.107   3.680  0.7584 -1.0392 -2.5213
  713MOL0     H96208   4.388  -0.005   3.542 -1.2578 -1.3947 -0.5344
  713MOL0     H96209   4.528   0.160   3.680  2.4794 -0.7585 -1.0786
  713MOL0     H96210   4.540   0.029   3.800 -2.1617  0.3682  0.1801
  713MOL0     H96211   4.597  -0.019   3.512 -1.9166 -2.3642  0.5140
  713MOL0     H96212   4.660  -0.108   3.664  2.1831  1.0296  3.2280
  713MOL0     H96213   4.747   0.172   3.579 -3.3934 -0.5663  0.7424
  713MOL0     H96214   4.831   0.035   3.522  2.2263  2.1014  0.7365
  713MOL0     H96215   4.965  -0.156   3.754 -0.5985  0.2572 -1.3619
  713MOL0     H96216   5.212  -0.168   3.778 -0.7226 -0.5031 -1.9208
  713MOL0     H96217   5.598  -0.246   3.980 -0.6752 -1.0420  0.4259
  713MOL0     H96218   5.834  -0.297   3.964 -1.0497 -0.9753  1.0063
  713MOL0     H96219   6.053  -0.215   3.578  0.5557 -1.1529 -0.2866
  713MOL0     H96220   6.100  -0.082   3.685  0.3660  0.0058  0.5075
  713MOL0     H96221   6.258  -0.209   3.796  0.6263  1.0866 -0.4022
  713MOL0     H96222   6.199  -0.365   3.725 -0.9078  0.1708  2.4530
  713MOL0     H96223   6.256  -0.280   3.495 -1.0220 -1.9604  1.5544
  713MOL0     H96224   6.293  -0.122   3.548  1.8617 -0.7920 -1.7291
  713MOL0     H96225   6.446  -0.368   3.650  1.8688  2.2684  4.3387
  713MOL0     H96226   6.486  -0.192   3.671  2.6288 -1.9649  0.6934
  713MOL0     H96227   6.553  -0.167   3.443 -1.4798  0.7064  0.5783
  713MOL0     H96228   6.487  -0.327   3.398 -1.9933 -0.6914  2.1603
  713MOL0     H96229   6.660  -0.452   3.518  0.0130 -0.1049 -0.8876
  713MOL0     H96230   6.746  -0.336   3.423 -0.6149 -1.6264 -1.3570
  713MOL0     H96231   6.832  -0.331   3.640  0.1109 -0.5341  0.8961
  713MOL0     H96232   6.671  -0.276   3.710  0.3533  1.6314 -0.0898
  713MOL0     H96233   6.815  -0.120   3.493  0.7918  2.5834  0.6506
  713MOL0     H96234   6.697  -0.064   3.606  1.6170  1.9789 -3.6117
  713MOL0     H96235   5.868  -0.082   3.590  2.2937 -1.5170  1.1969
  713MOL0     H96236   5.625  -0.012   3.624  1.0010  1.5945  0.7394
  713MOL0     H96237   5.234   0.260   3.738 -0.2220 -0.6381  0.6441
  713MOL0     H96238   4.993   0.265   3.735  0.4859  0.2000 -0.6232
  713MOL0     H96239   2.842   0.114   3.841 -0.8618 -0.3885 -0.7219
  713MOL0     H96240   2.620   0.157   3.713  0.1636  2.8672  1.1792
  713MOL0     H96241   2.469   0.493   3.344  0.8139 -2.4001  1.3478
  713MOL0     H96242   2.275   0.643   3.305  3.6691 -1.0723 -2.7218
  713MOL0     H96243   1.888   0.465   3.312  0.0316  0.3202 -1.0923
  713MOL0     H96244   1.860   0.633   3.274  1.1097 -0.2450  0.1264
  713MOL0     H96245   1.890   0.561   3.574  1.7686  2.7330  0.4646
  713MOL0     H96246   1.737   0.553   3.489 -1.0715  3.5706 -2.1788
  713MOL0     H96247   1.704   0.760   3.547  0.9614  2.9610  0.5436
  713MOL0     H96248   1.802   0.796   3.405  0.8347  0.8782  1.0013
  713MOL0     H96249   1.865   0.806   3.696 -1.0372 -2.5296 -0.3491
  713MOL0     H96250   2.003   0.784   3.580 -0.2672  1.3805 -1.7067
  713MOL0     H96251   1.898   1.180   3.535 -1.2711 -1.2036 -1.3492
  713MOL0     H96252   2.015   0.378   3.501 -0.0136 -3.3257 -0.8244
  713MOL0     H96253   2.096   0.193   3.622 -0.2748  0.7674  0.4705
  713MOL0     H96254   2.204   0.088   3.539 -1.2861 -0.4183  0.4511
  713MOL0     H96255   2.260   0.198   3.677  2.5152  2.3166 -2.0703
  714MOL0     O96256  10.813   5.540   4.060 -0.0895 -0.1402  0.2777
  714MOL0     C96257  10.778   5.643   3.992 -0.0497  0.3408 -0.0287
  714MOL0     O96258  10.856   5.749   3.966 -0.7836 -0.4626  0.1781
  714MOL0     C96259  10.978   5.763   4.025 -0.0440 -0.4126  0.7509
  714MOL0     C96260  11.081   5.782   3.939 -0.2114  0.5694  0.2016
  714MOL0     C96261  11.215   5.792   3.987  0.0805  0.2016  0.5315
  714MOL0     C96262  11.250   5.781   4.125  0.2471 -0.6762 -0.0146
  714MOL0     O96263  11.372   5.799   4.186 -0.8149 -0.0832  0.1834
  714MOL0     C96264  11.452   5.902   4.126  0.9343  0.5626 -0.5399
  714MOL0     C96265  11.564   5.931   4.228  0.0194  0.0794  0.2387
  714MOL0     C96266  11.643   5.810   4.277 -0.1256 -0.2671  0.0538
  714MOL0     C96267  11.780   5.854   4.350  0.0924  0.1732  0.0557
  714MOL0     C96268  11.860   5.733   4.387 -0.7697 -0.2615 -0.6769
  714MOL0     C96269  11.951   5.755   4.521 -0.1168  0.4438  0.0831
  714MOL0     C96270  12.032   5.624   4.539 -0.7907 -0.9806 -0.2067
  714MOL0     C96271  12.184   5.653   4.536  0.2036  0.6759 -0.0758
  714MOL0     N96272  12.229   5.763   4.619 -0.5832 -0.6101  0.3728
  714MOL0     C96273  12.333   5.852   4.588  0.7568 -0.0380  0.1219
  714MOL0     C96274  12.341   5.924   4.694 -0.4897 -0.7890  0.4275
  714MOL0     C96275  12.427   6.042   4.718  0.1090 -0.1547  0.4209
  714MOL0     C96276  12.505   6.086   4.594 -0.1778  0.1739  0.3474
  714MOL0     C96277  12.580   6.218   4.609  0.1514  0.0378  0.6916
  714MOL0     C96278  12.683   6.241   4.503  0.1510  0.6376  1.0518
  714MOL0     O96279  12.793   6.145   4.513  0.3211  0.4134 -0.3143
  714MOL0     C96280  12.909   6.176   4.443  0.0946  0.4565  0.7348
  714MOL0     C96281  13.025   6.096   4.459 -0.2474 -0.9269 -0.4610
  714MOL0     C96282  13.138   6.118   4.376  0.4251 -0.9558  0.8719
  714MOL0     C96283  13.133   6.214   4.271  0.0383 -0.1622 -0.3910
  714MOL0     C96284  13.262   6.234   4.197  0.0955 -0.2535  0.8301
  714MOL0     O96285  13.283   6.355   4.133 -0.0363 -0.0795 -0.0135
  714MOL0     C96286  13.411   6.388   4.096 -0.6502  1.0093 -0.2366
  714MOL0     C96287  13.473   6.500   4.167  0.4017  0.5620  0.1925
  714MOL0     C96288  13.609   6.522   4.144 -0.7104  0.0486  0.8714
  714MOL0     C96289  13.686   6.439   4.062  0.3277 -0.5292 -0.1302
  714MOL0     O96290  13.808   6.495   4.033  0.4370  0.5457  0.2543
  714MOL0     C96291  13.900   6.406   3.958  0.2209 -0.2355 -0.6002
  714MOL0     C96292  14.029   6.487   3.951 -0.3123  0.8955 -0.0336
  714MOL0     C96293  14.150   6.421   3.864  0.7299  0.5677 -0.3108
  714MOL0     C96294  14.272   6.508   3.876  0.0054  0.8994 -0.1308
  714MOL0     C96295  14.388   6.450   3.788  0.1166  0.0231  0.1219
  714MOL0     C96296  14.519   6.523   3.800  0.2801 -1.0682  0.2875
  714MOL0     C96297  14.626   6.462   3.717 -0.2611 -0.1129 -0.2185
  714MOL0     C96298  14.647   6.517   3.579 -0.2396 -0.5726 -0.4536
  714MOL0    Cl96299  14.720   6.688   3.598 -0.0468 -0.8164  0.2644
  714MOL0     C96300  13.622   6.337   3.993  0.3324  0.0253  0.3671
  714MOL0     C96301  13.487   6.309   4.009  0.0404  0.4539 -0.6618
  714MOL0     O96302  13.330   6.136   4.180 -0.7053  0.2685 -0.6739
  714MOL0     C96303  13.023   6.303   4.263 -0.1986  1.1554  0.0883
  714MOL0     C96304  12.918   6.286   4.352 -0.1296 -0.1711  0.4300
  714MOL0     N96305  12.243   5.900   4.789  1.0027 -0.3841  0.7889
  714MOL0     N96306  12.183   5.794   4.744 -0.4788  0.0143 -0.3915
  714MOL0     C96307  11.141   5.764   4.213  0.3784  0.7978 -0.0738
  714MOL0     C96308  11.008   5.763   4.162  0.0207  0.5588  0.4633
  714MOL0     C96309  10.650   5.635   3.917  0.3552  0.3038 -0.3840
  714MOL0     C96310  10.591   5.756   3.884  0.1298  0.1701  0.2565
  714MOL0     C96311  10.473   5.755   3.814 -0.1829 -0.5846  0.4209
  714MOL0     C96312  10.413   5.645   3.767 -0.6079  1.2137  0.5940
  714MOL0     O96313  10.302   5.664   3.692  0.0594  0.0900  0.3273
  714MOL0     C96314  10.212   5.558   3.681  0.1068  0.6454  0.9538
  714MOL0     C96315  10.071   5.610   3.640  0.6412  0.4066 -0.3814
  714MOL0     C96316  10.015   5.724   3.728  0.0565 -0.1506 -0.1106
  714MOL0     C96317  10.026   5.693   3.875 -0.7150 -0.2880 -0.3956
  714MOL0     C96318   9.946   5.586   3.925 -0.1443  0.3682  0.7310
  714MOL0     C96319   9.869   5.509   3.983 -0.1552 -0.6145  0.3808
  714MOL0     C96320  10.463   5.520   3.803 -0.5320  0.4983 -0.4554
  714MOL0     C96321  10.581   5.510   3.879 -0.1031 -0.1751 -0.2953
  714MOL0     C96322  10.626   5.375   3.911  0.0604 -0.2037 -0.6838
  714MOL0     H96323  11.061   5.792   3.833  1.8741 -1.5762 -0.4983
  714MOL0     H96324  11.299   5.807   3.919  0.4261 -1.3016  0.5711
  714MOL0     H96325  11.498   5.865   4.034 -0.5518 -0.7788 -0.7767
  714MOL0     H96326  11.391   5.988   4.096 -0.2868 -0.4152 -0.9118
  714MOL0     H96327  11.523   5.973   4.321  0.7724 -2.2672  1.7396
  714MOL0     H96328  11.637   6.001   4.188 -1.0460  1.3938  0.5352
  714MOL0     H96329  11.667   5.736   4.201 -0.3159 -0.4148  0.1356
  714MOL0     H96330  11.573   5.774   4.354 -0.5532 -0.3063 -0.3510
  714MOL0     H96331  11.842   5.920   4.288 -1.8843 -0.1351 -2.4233
  714MOL0     H96332  11.754   5.906   4.443  0.4863 -1.6181  1.1988
  714MOL0     H96333  11.796   5.648   4.411 -0.0435 -0.3748  1.0648
  714MOL0     H96334  11.923   5.702   4.303  0.5449 -2.9235  1.1557
  714MOL0     H96335  12.014   5.839   4.492  0.5716 -0.7781 -2.2798
  714MOL0     H96336  11.902   5.782   4.615  1.2137 -0.8545  1.1926
  714MOL0     H96337  12.009   5.558   4.455  0.2398  1.0148 -2.1786
  714MOL0     H96338  12.005   5.578   4.633  0.9206 -2.2060 -0.2619
  714MOL0     H96339  12.233   5.563   4.573  0.8805  0.7064 -0.8733
  714MOL0     H96340  12.207   5.671   4.431 -3.0595  3.9709 -0.4400
  714MOL0     H96341  12.387   5.869   4.496 -2.0457  0.7347 -1.4942
  714MOL0     H96342  12.375   6.128   4.760 -1.0548 -0.6978  0.1259
  714MOL0     H96343  12.498   6.012   4.795 -0.8669  3.2428  2.8828
  714MOL0     H96344  12.590   6.020   4.577 -0.2947 -0.1010  0.7990
  714MOL0     H96345  12.444   6.094   4.504  2.8627  4.7936 -1.6252
  714MOL0     H96346  12.637   6.210   4.703  0.3083 -1.8932  0.4744
  714MOL0     H96347  12.511   6.302   4.609 -0.6629 -0.6104 -0.1525
  714MOL0     H96348  12.709   6.347   4.491 -0.0554  0.5780 -0.0226
  714MOL0     H96349  12.631   6.220   4.409  1.1369  2.8363 -0.0688
  714MOL0     H96350  13.014   6.023   4.538  0.2919 -1.2711 -0.6919
  714MOL0     H96351  13.227   6.056   4.385  0.9389 -0.7590 -1.8901
  714MOL0     H96352  13.406   6.558   4.229 -0.8064  0.3176 -0.8444
  714MOL0     H96353  13.659   6.607   4.189 -0.1171  1.0616 -1.5676
  714MOL0     H96354  13.924   6.310   4.005  1.5082 -0.0835 -0.9032
  714MOL0     H96355  13.861   6.391   3.857 -0.1091 -2.6600 -0.1608
  714MOL0     H96356  13.995   6.584   3.913  1.1416  1.4419  0.0226
  714MOL0     H96357  14.069   6.505   4.051 -0.2336 -1.0194  0.3094
  714MOL0     H96358  14.172   6.326   3.912 -0.5622  1.1052  1.4242
  714MOL0     H96359  14.115   6.405   3.762 -3.8551  2.4032  0.7492
  714MOL0     H96360  14.302   6.503   3.981  1.8014 -2.8190 -0.6469
  714MOL0     H96361  14.248   6.612   3.854 -4.1324  0.0020 -0.7015
  714MOL0     H96362  14.365   6.464   3.682  3.0784  0.8180 -0.4935
  714MOL0     H96363  14.403   6.343   3.806  0.2124  0.0001 -0.0960
  714MOL0     H96364  14.500   6.622   3.758 -2.5532 -0.6605  2.2653
  714MOL0     H96365  14.540   6.551   3.904 -3.7272 -0.0448  0.9942
  714MOL0     H96366  14.621   6.353   3.706  1.0149 -0.0092 -2.5919
  714MOL0     H96367  14.722   6.483   3.764  0.3468 -2.0305 -0.5130
  714MOL0     H96368  14.708   6.457   3.510  0.2000 -1.8749  1.0267
  714MOL0     H96369  14.546   6.530   3.540 -0.9583  1.0851  1.7527
  714MOL0     H96370  13.668   6.281   3.912 -1.1874 -0.7276 -0.0094
  714MOL0     H96371  13.440   6.226   3.958  2.1999 -0.7626 -0.7881
  714MOL0     H96372  13.029   6.378   4.185 -0.7591  1.4909  0.3636
  714MOL0     H96373  12.832   6.338   4.312  0.3856 -0.1686 -0.6960
  714MOL0     H96374  11.157   5.749   4.319 -2.3912 -3.0440 -0.0163
  714MOL0     H96375  10.933   5.750   4.240  0.5065  2.7870  1.3675
  714MOL0     H96376  10.637   5.851   3.910  2.2126 -0.1458 -1.9796
  714MOL0     H96377  10.434   5.853   3.791  1.5346 -0.0994 -0.6630
  714MOL0     H96378  10.193   5.503   3.773 -3.3219 -1.8103 -0.9974
  714MOL0     H96379  10.249   5.491   3.602 -0.0811 -2.4997  3.3454
  714MOL0     H96380  10.003   5.525   3.656 -1.5589  1.8493 -1.5319
  714MOL0     H96381  10.063   5.646   3.537 -2.3234  1.2213  0.0372
  714MOL0     H96382   9.914   5.753   3.698  0.3913  0.7734 -0.3894
  714MOL0     H96383  10.087   5.806   3.716  0.3435 -0.4739 -0.6123
  714MOL0     H96384  10.131   5.667   3.892 -0.4541  0.4622 -0.8179
  714MOL0     H96385   9.996   5.779   3.935 -0.5612 -0.6285  0.1737
  714MOL0     H96386   9.799   5.449   4.038 -0.1952  0.7267  1.8613
  714MOL0     H96387  10.411   5.433   3.765 -3.3160  0.5397  2.7553
  714MOL0     H96388  10.583   5.288   3.859  3.9591 -2.8001 -0.0269
  714MOL0     H96389  10.731   5.368   3.879  1.1388  1.5865  2.1025
  714MOL0     H96390  10.617   5.363   4.019 -1.7033  0.6271 -0.7142
  715MOL0     O96391   7.417   9.394   0.874 -0.1080  0.5693 -0.2696
  715MOL0     C96392   7.423   9.513   0.897 -0.2724  0.8719  0.1738
  715MOL0     O96393   7.535   9.583   0.903  0.2542  0.4455  0.2617
  715MOL0     C96394   7.638   9.549   0.822 -1.0443  0.2509  0.3798
  715MOL0     C96395   7.637   9.544   0.687  0.2503 -0.6090 -0.2968
  715MOL0     C96396   7.753   9.521   0.619 -0.8701  0.5972  0.7480
  715MOL0     C96397   7.880   9.502   0.683  0.0266  0.0879 -0.8063
  715MOL0     O96398   7.999   9.475   0.613  0.1847  0.2129 -0.1658
  715MOL0     C96399   8.116   9.421   0.667  0.1706  1.0714  0.2798
  715MOL0     C96400   8.230   9.455   0.578  0.2479 -0.3149 -0.4044
  715MOL0     C96401   8.352   9.374   0.619  0.7326 -0.2075  0.7582
  715MOL0     C96402   8.422   9.444   0.732  0.1433 -0.4432 -0.2107
  715MOL0     C96403   8.570   9.406   0.745  0.2554 -0.5235  0.1075
  715MOL0     C96404   8.634   9.509   0.839 -0.4537  0.4029  0.0959
  715MOL0     C96405   8.783   9.511   0.825 -0.3322  0.2553 -0.1120
  715MOL0     C96406   8.845   9.417   0.922 -0.0786  0.8146 -0.0714
  715MOL0     N96407   8.990   9.432   0.914 -0.3110 -0.7401  0.7905
  715MOL0     C96408   9.076   9.398   0.811  0.2830  0.2006 -0.3541
  715MOL0     C96409   9.185   9.464   0.835 -0.2649  0.1948  0.5799
  715MOL0     C96410   9.297   9.490   0.735  0.0037  0.8614 -0.0007
  715MOL0     C96411   9.439   9.505   0.798  0.0227  0.2981 -0.5227
  715MOL0     C96412   9.471   9.637   0.870 -0.8858 -0.7547 -1.2442
  715MOL0     C96413   9.616   9.635   0.928 -0.3802 -0.0755  0.3901
  715MOL0     O96414   9.645   9.763   0.967  0.4003  0.2022 -0.2249
  715MOL0     C96415   9.777   9.802   0.992 -0.4992  0.4632 -0.2870
  715MOL0     C96416   9.800   9.940   1.003  0.4133  0.5495  0.1562
  715MOL0     C96417   9.921   9.988   1.043  0.7197 -0.4940  0.4556
  715MOL0     C96418  10.023   9.900   1.082  0.0353 -0.5362 -0.3600
  715MOL0     C96419  10.165   9.952   1.114  0.4406  0.8173 -0.4874
  715MOL0     O96420  10.248   9.866   1.176 -0.4688  0.4134  0.9093
  715MOL0     C96421  10.377   9.904   1.197 -0.1301  0.1408 -0.3606
  715MOL0     C96422  10.449   9.997   1.115 -0.0404 -0.3204  0.0138
  715MOL0     C96423  10.584  10.034   1.140  0.2830  0.1615 -0.2662
  715MOL0     C96424  10.644   9.980   1.251  1.1642  0.6999  0.7391
  715MOL0     O96425  10.771   9.991   1.279 -0.8929  0.4262 -0.2537
  715MOL0     C96426  10.844   9.893   1.205  0.4084 -0.6715  0.6760
  715MOL0     C96427  10.993   9.912   1.258  0.3227  0.3002  0.7933
  715MOL0     C96428  11.066  10.041   1.193  0.1736  0.4996  0.6044
  715MOL0     C96429  11.093  10.025   1.043 -1.0747  0.0295  0.5609
  715MOL0     C96430  11.182  10.137   0.981 -0.0550  0.0175  0.9927
  715MOL0     C96431  11.330  10.136   1.021 -0.2969  0.3939 -0.1629
  715MOL0     C96432  11.402  10.264   0.968 -0.7056 -0.1749 -0.4654
  715MOL0     C96433  11.543  10.283   1.023  0.6076 -0.0042 -0.7703
  715MOL0    Cl96434  11.659  10.378   0.931 -0.4939  0.1603  0.0551
  715MOL0     C96435  10.576   9.895   1.330 -0.0518  0.1610 -0.2599
  715MOL0     C96436  10.445   9.848   1.308 -0.7977 -0.0779 -0.1016
  715MOL0     O96437  10.189  10.062   1.069  0.0844 -0.2722 -0.2084
  715MOL0     C96438  10.009   9.758   1.072  0.3459  0.6363  0.1605
  715MOL0     C96439   9.882   9.712   1.024  0.0858 -1.0099 -0.7015
  715MOL0     N96440   9.163   9.544   0.951  0.6196 -0.8500  0.3081
  715MOL0     N96441   9.045   9.523   0.991  0.3118  0.1029  0.0316
  715MOL0     C96442   7.878   9.523   0.827  0.3260  0.3154  0.4877
  715MOL0     C96443   7.759   9.545   0.893  0.1632 -0.5430  0.2165
  715MOL0     C96444   7.301   9.567   0.964 -0.6573  0.2753 -0.0917
  715MOL0     C96445   7.315   9.662   1.070  0.7995  0.6002 -1.5478
  715MOL0     C96446   7.199   9.711   1.138 -0.5259  0.3074 -0.1624
  715MOL0     C96447   7.069   9.672   1.097 -0.1991  0.4221 -0.2876
  715MOL0     O96448   6.948   9.708   1.150 -0.3661  0.3327 -0.7364
  715MOL0     C96449   6.950   9.797   1.254  0.3290 -0.1516 -0.4086
  715MOL0     C96450   6.808   9.812   1.303 -0.2383  0.5512 -0.3454
  715MOL0     C96451   6.739   9.680   1.354  0.0153 -0.5816  0.1334
  715MOL0     C96452   6.591   9.708   1.382  0.3154 -0.0313  0.1668
  715MOL0     C96453   6.564   9.790   1.497 -1.2810  0.5726  0.0806
  715MOL0     C96454   6.549   9.841   1.603  0.6120 -0.0106 -0.3963
  715MOL0     C96455   7.064   9.597   0.980  0.4235 -0.0810 -0.1764
  715MOL0     C96456   7.176   9.543   0.917 -0.1455  0.5646  0.0011
  715MOL0     C96457   7.150   9.453   0.793 -0.4054 -0.0150  0.0278
  715MOL0     H96458   7.548   9.585   0.640  1.1395  2.9243  0.8019
  715MOL0     H96459   7.751   9.536   0.512  0.7650  0.2171  0.6367
  715MOL0     H96460   8.137   9.447   0.771 -0.0292 -1.6870  1.1042
  715MOL0     H96461   8.097   9.314   0.679  1.3755  0.7427 -0.5349
  715MOL0     H96462   8.255   9.560   0.595 -0.8344 -0.0255 -0.5668
  715MOL0     H96463   8.200   9.437   0.474  0.7780 -1.5755 -0.3601
  715MOL0     H96464   8.411   9.363   0.527 -1.8062 -2.7709 -0.7417
  715MOL0     H96465   8.305   9.279   0.646 -3.4967  0.6408 -2.4516
  715MOL0     H96466   8.411   9.551   0.713 -1.1576 -0.5094  0.0598
  715MOL0     H96467   8.375   9.436   0.830  1.4129  3.0993  0.8365
  715MOL0     H96468   8.566   9.302   0.779  0.1690 -0.4979  0.1804
  715MOL0     H96469   8.625   9.400   0.651 -0.4496 -0.9083 -0.2899
  715MOL0     H96470   8.603   9.611   0.814 -0.7703  0.0954 -0.7936
  715MOL0     H96471   8.595   9.488   0.939  1.5477 -0.4952  0.7266
  715MOL0     H96472   8.812   9.611   0.859  1.7660 -0.8580  1.6581
  715MOL0     H96473   8.821   9.509   0.723  2.3675 -0.8211  0.8211
  715MOL0     H96474   8.811   9.428   1.026 -2.3551 -0.7163 -0.5761
  715MOL0     H96475   8.826   9.313   0.895  2.5601 -0.1685  1.4260
  715MOL0     H96476   9.067   9.335   0.723  1.6923  0.1247 -0.4702
  715MOL0     H96477   9.303   9.405   0.667 -1.5141 -0.5465  1.5540
  715MOL0     H96478   9.285   9.585   0.681  0.6488  2.9714  3.2553
  715MOL0     H96479   9.445   9.421   0.868 -0.9436 -0.1703 -0.9796
  715MOL0     H96480   9.512   9.498   0.717  3.0218  1.0907  1.9176
  715MOL0     H96481   9.403   9.643   0.956  2.0855  3.0140  1.1401
  715MOL0     H96482   9.463   9.724   0.805 -0.7532  0.0171 -0.2525
  715MOL0     H96483   9.686   9.605   0.849  0.5436  0.7021  0.8832
  715MOL0     H96484   9.627   9.568   1.014  1.8297  0.8831  0.9266
  715MOL0     H96485   9.711   9.995   0.975  0.2278 -0.3471 -1.0912
  715MOL0     H96486   9.920  10.097   1.037 -0.9829 -0.5514 -1.0835
  715MOL0     H96487  10.405  10.054   1.034  1.0843  1.6172  0.7043
  715MOL0     H96488  10.631  10.089   1.058 -0.2200  0.3135 -0.4550
  715MOL0     H96489  10.812   9.789   1.214  0.9838 -0.8582  0.6029
  715MOL0     H96490  10.842   9.917   1.098  2.3600  0.5616  0.8645
  715MOL0     H96491  10.994   9.921   1.367  3.2134  0.9812  0.7951
  715MOL0     H96492  11.056   9.826   1.234  2.8580  1.4593  2.8783
  715MOL0     H96493  11.004  10.129   1.213 -0.2019 -0.1480  2.4408
  715MOL0     H96494  11.163  10.055   1.242 -0.3237  1.9531  1.2357
  715MOL0     H96495  10.994  10.019   0.998 -0.7593 -2.3321  0.0283
  715MOL0     H96496  11.136   9.926   1.026  2.4239  1.3194  0.9174
  715MOL0     H96497  11.134  10.229   1.016 -1.6729 -1.2439  2.2296
  715MOL0     H96498  11.185  10.126   0.872  1.9730 -0.0262  1.0245
  715MOL0     H96499  11.334  10.137   1.130 -0.4315  2.3361 -0.1427
  715MOL0     H96500  11.373  10.044   0.981  2.8741  1.1015  1.2924
  715MOL0     H96501  11.346  10.357   0.978 -0.3807  0.3506 -2.9266
  715MOL0     H96502  11.413  10.250   0.860  0.9501  1.7178 -0.5904
  715MOL0     H96503  11.527  10.348   1.110  0.0650  1.3324 -1.8326
  715MOL0     H96504  11.593  10.189   1.050 -1.3668 -0.2327  2.6717
  715MOL0     H96505  10.628   9.847   1.412  1.6398  0.1797 -1.2724
  715MOL0     H96506  10.397   9.777   1.374 -2.0520  0.4297 -0.4258
  715MOL0     H96507  10.078   9.683   1.107  0.1649 -1.0847 -2.8775
  715MOL0     H96508   9.862   9.606   1.017  0.1127 -1.0190 -0.6377
  715MOL0     H96509   7.975   9.523   0.874  0.7229 -1.9063 -0.2187
  715MOL0     H96510   7.756   9.555   1.001 -0.6517 -1.1540  0.2638
  715MOL0     H96511   7.409   9.676   1.123 -2.2618  2.1085  4.2973
  715MOL0     H96512   7.209   9.777   1.224  2.5086  2.4006 -1.9428
  715MOL0     H96513   6.978   9.897   1.220 -0.4985  0.9312  1.8536
  715MOL0     H96514   7.022   9.759   1.327 -1.0838 -0.5377  0.8253
  715MOL0     H96515   6.741   9.847   1.224  2.2988  0.8968 -2.4896
  715MOL0     H96516   6.810   9.884   1.385  0.3275  0.4881 -0.3030
  715MOL0     H96517   6.785   9.639   1.444  0.1541  1.3570  0.9901
  715MOL0     H96518   6.755   9.605   1.276  0.5471  1.2401 -1.6020
  715MOL0     H96519   6.547   9.750   1.291  1.2042  0.0748 -0.2196
  715MOL0     H96520   6.540   9.611   1.374 -2.6403  1.4113 -0.0415
  715MOL0     H96521   6.558   9.881   1.701  2.0885 -0.3409 -0.3729
  715MOL0     H96522   6.970   9.586   0.927  1.2555  2.3182 -2.3560
  715MOL0     H96523   7.046   9.419   0.788  0.3760 -2.3101 -2.1402
  715MOL0     H96524   7.162   9.514   0.703  2.2646  1.2112  1.0834
  715MOL0     H96525   7.202   9.357   0.789 -4.4927 -2.4923  0.5313
  716MOL0     O96526   6.969   4.213   1.685 -0.4182 -0.6340  0.1787
  716MOL0     C96527   6.967   4.162   1.572 -0.7001  0.3666 -0.3839
  716MOL0     O96528   7.080   4.146   1.491 -0.3885 -0.8334  0.1784
  716MOL0     C96529   7.200   4.139   1.566  0.1057 -0.8551  0.4490
  716MOL0     C96530   7.294   4.246   1.547 -0.1252  0.3879  0.2811
  716MOL0     C96531   7.412   4.256   1.624 -0.0100  1.1319 -0.7525
  716MOL0     C96532   7.440   4.158   1.724 -0.2348  0.6204  0.0485
  716MOL0     O96533   7.554   4.150   1.801 -0.2719  0.0036  0.1349
  716MOL0     C96534   7.673   4.212   1.753 -0.6888 -0.1506 -0.5838
  716MOL0     C96535   7.794   4.200   1.852  0.2475 -0.7102 -0.4973
  716MOL0     C96536   7.908   4.272   1.795 -0.5788  0.1135 -0.5281
  716MOL0     C96537   7.903   4.425   1.827 -0.1327  0.0105 -0.6339
  716MOL0     C96538   8.035   4.501   1.795  0.8074  0.0895  0.0356
  716MOL0     C96539   8.036   4.632   1.862 -0.7512 -0.6469 -0.1470
  716MOL0     C96540   8.137   4.734   1.815 -0.0594  0.2342  0.4501
  716MOL0     C96541   8.262   4.730   1.911  0.7110 -0.3659  0.8085
  716MOL0     N96542   8.368   4.831   1.887  0.0229 -0.0349 -0.5355
  716MOL0     C96543   8.359   4.966   1.884  0.0495 -0.2202  0.5324
  716MOL0     C96544   8.481   5.010   1.842 -0.5685 -0.1193  0.0863
  716MOL0     C96545   8.516   5.150   1.790  0.3750 -0.6661 -0.3002
  716MOL0     C96546   8.665   5.200   1.811  0.1271 -0.1824 -0.0333
  716MOL0     C96547   8.699   5.337   1.755  0.0736 -0.2454 -0.3112
  716MOL0     C96548   8.840   5.382   1.787  0.7861  0.2012  0.2582
  716MOL0     O96549   8.924   5.277   1.734  0.0234  0.5009 -0.3079
  716MOL0     C96550   9.063   5.316   1.746 -0.0751  0.3956  0.5265
  716MOL0     C96551   9.161   5.222   1.703 -0.8340  0.2668  0.1229
  716MOL0     C96552   9.297   5.238   1.713 -0.0647 -0.9008 -0.2733
  716MOL0     C96553   9.344   5.360   1.784  0.4609  0.3458 -0.2264
  716MOL0     C96554   9.488   5.391   1.803 -0.1719 -0.1397 -0.6270
  716MOL0     O96555   9.522   5.514   1.850  0.0925  0.2680 -0.2935
  716MOL0     C96556   9.658   5.549   1.857  0.0762  0.3316  0.2296
  716MOL0     C96557   9.735   5.549   1.742  0.2466 -0.4206  0.1463
  716MOL0     C96558   9.870   5.575   1.753 -0.5481 -1.2063  0.6545
  716MOL0     C96559   9.921   5.610   1.878 -0.0078 -0.1200  0.7605
  716MOL0     O96560  10.050   5.651   1.896  0.3330  0.4890  1.0683
  716MOL0     C96561  10.156   5.610   1.802 -0.3483 -1.0361 -0.4469
  716MOL0     C96562  10.287   5.599   1.881 -0.1663 -0.7416 -0.0911
  716MOL0     C96563  10.333   5.735   1.928 -0.1177  0.0084  1.0722
  716MOL0     C96564  10.476   5.737   1.992  0.3627 -0.2957  0.3778
  716MOL0     C96565  10.523   5.889   2.000  0.4089  0.3309  0.2849
  716MOL0     C96566  10.548   5.940   1.865 -0.5137  0.6883  0.3304
  716MOL0     C96567  10.556   6.091   1.862 -0.3637  0.0128 -0.4783
  716MOL0     C96568  10.419   6.153   1.836 -0.4576 -0.2583  0.3210
  716MOL0    Cl96569  10.331   6.094   1.690  0.5352 -0.1953 -0.0983
  716MOL0     C96570   9.837   5.623   1.986  0.2907  0.1929 -0.9358
  716MOL0     C96571   9.704   5.583   1.981  0.4607 -0.1441  0.3167
  716MOL0     O96572   9.565   5.301   1.776 -0.5421 -0.3737 -0.2476
  716MOL0     C96573   9.253   5.441   1.856 -0.6297  0.4806  0.4359
  716MOL0     C96574   9.114   5.424   1.834 -0.5948 -0.6444 -0.1231
  716MOL0     N96575   8.561   4.897   1.840 -0.6012 -0.2375 -0.2701
  716MOL0     N96576   8.497   4.793   1.865  0.0664 -0.3797 -0.2009
  716MOL0     C96577   7.346   4.062   1.743  0.5220  0.3092  0.3155
  716MOL0     C96578   7.231   4.049   1.675  0.2136 -0.3451 -0.0804
  716MOL0     C96579   6.836   4.130   1.512  0.2096  0.3501 -0.6188
  716MOL0     C96580   6.723   4.184   1.577  0.6409 -0.2731  0.6045
  716MOL0     C96581   6.601   4.164   1.521  0.1335 -0.3185 -0.7036
  716MOL0     C96582   6.577   4.077   1.417  1.1068  0.0131  0.1062
  716MOL0     O96583   6.452   4.051   1.365  0.0891 -0.1582 -0.0819
  716MOL0     C96584   6.347   4.133   1.414  0.1138 -0.2226  0.6096
  716MOL0     C96585   6.209   4.109   1.357  0.2198 -0.6065  0.1666
  716MOL0     C96586   6.202   4.167   1.211  0.5014 -1.0398  0.1082
  716MOL0     C96587   6.216   4.316   1.195  0.1100  0.1754 -1.0762
  716MOL0     C96588   6.178   4.366   1.060 -0.2857  0.7817  0.0185
  716MOL0     C96589   6.156   4.399   0.945  0.1671  0.5897 -0.0915
  716MOL0     C96590   6.687   4.013   1.352 -0.0941  0.1255  0.2201
  716MOL0     C96591   6.821   4.043   1.396 -0.3946 -0.0762  0.5756
  716MOL0     C96592   6.930   3.969   1.323  0.3019 -0.2099 -0.5147
  716MOL0     H96593   7.273   4.318   1.469 -0.4790  1.0433  0.9671
  716MOL0     H96594   7.489   4.324   1.590  2.2416 -0.9527 -0.0614
  716MOL0     H96595   7.705   4.155   1.666  0.1529 -0.5890 -0.0057
  716MOL0     H96596   7.666   4.317   1.723  0.5330 -0.1365 -0.8644
  716MOL0     H96597   7.820   4.094   1.861 -0.0119 -0.6779  0.8526
  716MOL0     H96598   7.769   4.237   1.952  0.2879 -2.3827  0.1745
  716MOL0     H96599   7.890   4.262   1.688  0.8893  0.7915 -0.8589
  716MOL0     H96600   8.007   4.230   1.815 -0.3686  0.1649 -1.4301
  716MOL0     H96601   7.814   4.477   1.790 -0.7871  1.0744  2.1483
  716MOL0     H96602   7.893   4.431   1.936  0.8305  0.2337 -0.5481
  716MOL0     H96603   8.120   4.441   1.830  2.1487  1.6358 -0.4746
  716MOL0     H96604   8.042   4.514   1.687  0.0680  0.9214  0.0676
  716MOL0     H96605   7.938   4.678   1.852 -0.1760  1.0919  1.6030
  716MOL0     H96606   8.051   4.616   1.970  1.7273 -2.0299 -0.5978
  716MOL0     H96607   8.094   4.834   1.827 -0.9761  0.1538 -1.7648
  716MOL0     H96608   8.180   4.729   1.715 -2.6036 -0.9992 -0.6512
  716MOL0     H96609   8.226   4.755   2.012 -0.1585 -1.0161  0.6676
  716MOL0     H96610   8.302   4.629   1.916  0.8317 -0.3640  0.0188
  716MOL0     H96611   8.265   5.020   1.883  0.9957  1.5803 -1.9261
  716MOL0     H96612   8.497   5.156   1.682  0.2205 -0.0710 -0.2414
  716MOL0     H96613   8.450   5.229   1.827 -1.4711 -2.0676 -0.4571
  716MOL0     H96614   8.687   5.191   1.918 -1.0055 -0.6749  0.1659
  716MOL0     H96615   8.719   5.119   1.761  0.3206  0.8059 -1.4721
  716MOL0     H96616   8.629   5.404   1.806  1.5963  0.0041  1.6077
  716MOL0     H96617   8.702   5.341   1.646 -0.2025  1.8465 -0.2920
  716MOL0     H96618   8.849   5.392   1.895  0.7428  1.1239  0.1811
  716MOL0     H96619   8.854   5.484   1.750  0.5317 -0.4378 -1.7242
  716MOL0     H96620   9.127   5.132   1.654  1.2676 -0.0661 -0.8431
  716MOL0     H96621   9.366   5.168   1.668 -0.1607  0.2393 -2.3096
  716MOL0     H96622   9.682   5.532   1.649  1.3355 -2.0985 -0.1950
  716MOL0     H96623   9.926   5.566   1.660 -4.6989 -1.1018 -2.0941
  716MOL0     H96624  10.128   5.509   1.767 -0.8271 -0.7481 -0.9230
  716MOL0     H96625  10.170   5.669   1.711 -5.2047 -0.9241 -1.4183
  716MOL0     H96626  10.258   5.551   1.975 -1.2992  0.9125  0.4516
  716MOL0     H96627  10.368   5.543   1.833  1.1967  0.7224  0.4008
  716MOL0     H96628  10.329   5.809   1.847 -0.3064  0.8882  1.8777
  716MOL0     H96629  10.261   5.768   2.004 -1.3322 -0.5523  0.2068
  716MOL0     H96630  10.539   5.682   1.922  0.7373 -0.7965  1.0963
  716MOL0     H96631  10.468   5.694   2.092  0.7992 -1.7723 -0.2045
  716MOL0     H96632  10.616   5.894   2.056  0.7678 -1.6997 -0.0494
  716MOL0     H96633  10.449   5.943   2.059 -2.1425 -2.8540  0.3211
  716MOL0     H96634  10.649   5.909   1.841 -0.5133 -0.9270  2.1519
  716MOL0     H96635  10.477   5.904   1.790  0.6492 -0.7276 -0.1088
  716MOL0     H96636  10.614   6.127   1.776  0.6041  0.9036  0.5214
  716MOL0     H96637  10.597   6.122   1.958 -2.4432 -0.4430  0.6178
  716MOL0     H96638  10.357   6.133   1.924 -0.2578 -1.2839  0.2461
  716MOL0     H96639  10.425   6.260   1.818  1.1388 -0.2905  0.5118
  716MOL0     H96640   9.873   5.656   2.083 -0.1002  0.3052 -0.8245
  716MOL0     H96641   9.643   5.585   2.071  0.9972  1.2953  0.6709
  716MOL0     H96642   9.290   5.531   1.904  2.7285 -0.1332 -0.7297
  716MOL0     H96643   9.046   5.496   1.879 -1.1458 -2.4321  2.0810
  716MOL0     H96644   7.356   3.994   1.827 -2.4794  0.7215  1.1414
  716MOL0     H96645   7.167   3.964   1.698 -1.6061  1.4551  1.9487
  716MOL0     H96646   6.728   4.246   1.666 -0.3976  0.8148 -0.0581
  716MOL0     H96647   6.513   4.210   1.565 -1.4621 -0.5630 -3.3724
  716MOL0     H96648   6.367   4.236   1.386  0.2242 -0.8995 -2.1510
  716MOL0     H96649   6.344   4.120   1.522  3.5092  1.4599  1.0119
  716MOL0     H96650   6.138   4.171   1.413  2.0393  0.7788  1.0793
  716MOL0     H96651   6.182   4.003   1.349 -0.6764 -0.3078 -0.9382
  716MOL0     H96652   6.102   4.142   1.172 -0.9355  3.4859  0.2754
  716MOL0     H96653   6.274   4.121   1.143  1.4591 -1.6848  1.5159
  716MOL0     H96654   6.151   4.367   1.267 -0.6969  0.4070 -1.9492
  716MOL0     H96655   6.320   4.348   1.208  0.2695  1.0006 -3.7233
  716MOL0     H96656   6.142   4.414   0.840  0.4012 -0.3022 -0.2537
  716MOL0     H96657   6.672   3.957   1.260 -1.0802  2.1551 -0.9288
  716MOL0     H96658   6.993   3.916   1.395  0.2949  1.0519  0.4663
  716MOL0     H96659   6.891   3.910   1.239 -1.2087  3.6024 -2.7611
  716MOL0     H96660   6.992   4.038   1.264 -0.6143 -0.8921 -2.3422
  717MOL0     O96661   0.461   6.924   4.807  0.9573 -0.7072 -0.0089
  717MOL0     C96662   0.452   7.040   4.854 -0.1228  0.2335 -0.4595
  717MOL0     O96663   0.559   7.115   4.896 -0.6104  0.0077  0.4369
  717MOL0     C96664   0.692   7.064   4.904  0.8416 -0.3942  0.6432
  717MOL0     C96665   0.750   6.962   4.828  0.7601 -0.4094 -0.1571
  717MOL0     C96666   0.876   6.918   4.846  0.6037  0.2503  0.6569
  717MOL0     C96667   0.953   6.977   4.941 -0.0441 -0.4638  0.7012
  717MOL0     O96668   1.082   6.947   4.966  0.1433 -0.3676 -0.5240
  717MOL0     C96669   1.155   6.964   4.837  0.0847 -0.5053 -0.5213
  717MOL0     C96670   1.295   7.005   4.885  0.6470  0.5016 -1.1855
  717MOL0     C96671   1.385   7.021   4.765 -0.4129 -0.3792 -0.5909
  717MOL0     C96672   1.534   7.020   4.805  0.1460  0.6829  0.2363
  717MOL0     C96673   1.618   7.012   4.681  0.2838  0.3852 -0.0057
  717MOL0     C96674   1.763   7.028   4.707 -0.2184 -0.0536 -0.8177
  717MOL0     C96675   1.846   7.056   4.580 -0.5530 -0.4629  0.5632
  717MOL0     C96676   1.991   7.042   4.622 -0.2418 -0.7012  0.8218
  717MOL0     N96677   2.069   7.043   4.497  0.6690  0.2659 -0.2208
  717MOL0     C96678   2.069   6.934   4.411  0.3588  0.3942 -0.5238
  717MOL0     C96679   2.186   6.944   4.350 -0.4048 -0.6170 -0.5043
  717MOL0     C96680   2.236   6.847   4.248 -1.1913  0.8704  0.4193
  717MOL0     C96681   2.197   6.890   4.104  0.0612  0.1235 -0.5507
  717MOL0     C96682   2.046   6.858   4.081 -0.0280 -0.4205 -0.4519
  717MOL0     C96683   1.983   6.963   3.994  0.1560  0.0034  0.7771
  717MOL0     O96684   1.839   6.934   3.969 -0.2227  0.2661 -0.2427
  717MOL0     C96685   1.745   6.962   4.064  0.6996  0.1155  1.0516
  717MOL0     C96686   1.611   6.924   4.041 -0.8333  0.2341  0.0927
  717MOL0     C96687   1.508   6.965   4.123 -0.0361 -0.7088 -0.6062
  717MOL0     C96688   1.534   7.050   4.235 -0.8559 -0.5507 -0.0506
  717MOL0     C96689   1.432   7.086   4.332 -0.1777 -0.3845 -0.3011
  717MOL0     O96690   1.317   7.007   4.328 -0.0786 -0.9378  1.0090
  717MOL0     C96691   1.199   7.043   4.370  0.3800 -0.7162 -1.6064
  717MOL0     C96692   1.150   7.172   4.339 -0.0902 -0.5793 -0.0132
  717MOL0     C96693   1.020   7.206   4.376 -0.7613 -0.2402 -0.8219
  717MOL0     C96694   0.936   7.120   4.452  0.2980  0.8320 -0.4488
  717MOL0     O96695   0.807   7.160   4.483 -0.4297 -0.0399  0.4876
  717MOL0     C96696   0.789   7.300   4.519  0.4490 -0.2423 -0.2463
  717MOL0     C96697   0.656   7.314   4.596 -0.7897  0.4597 -0.2721
  717MOL0     C96698   0.538   7.245   4.518 -0.0352  0.5888  0.8785
  717MOL0     C96699   0.398   7.282   4.561  0.1518 -0.6729  0.0652
  717MOL0     C96700   0.287   7.190   4.502 -0.2734  0.5197 -0.1339
  717MOL0     C96701   0.154   7.219   4.562 -0.3923 -0.5038 -0.5716
  717MOL0     C96702   0.029   7.183   4.493 -0.4876 -0.1452  0.0180
  717MOL0     C96703  -0.007   7.041   4.515 -0.2979  0.1974  0.4542
  717MOL0    Cl96704   0.119   6.929   4.435  0.2048  0.1129  0.1271
  717MOL0     C96705   0.984   6.993   4.488 -0.4101 -0.7438  0.3319
  717MOL0     C96706   1.116   6.966   4.454 -0.6564 -0.2313 -0.6157
  717MOL0     O96707   1.441   7.186   4.404 -0.2421 -1.1457  0.5126
  717MOL0     C96708   1.666   7.081   4.260 -0.6990 -0.1323 -0.5889
  717MOL0     C96709   1.772   7.040   4.180  0.5972  0.4639  0.4812
  717MOL0     N96710   2.248   7.064   4.399  0.4645  0.3003 -0.6016
  717MOL0     N96711   2.170   7.126   4.472  0.0504 -0.9270 -0.1706
  717MOL0     C96712   0.905   7.084   5.017 -0.0067 -0.3382  0.0117
  717MOL0     C96713   0.777   7.135   4.985 -0.6860  0.0369 -0.5898
  717MOL0     C96714   0.325   7.093   4.902  1.1267 -0.6381 -0.1180
  717MOL0     C96715   0.319   7.213   4.961  0.0568 -0.4347  0.3358
  717MOL0     C96716   0.201   7.272   5.002  0.7267  0.6123  0.1775
  717MOL0     C96717   0.077   7.206   4.989  0.0091  0.3884 -0.3002
  717MOL0     O96718  -0.022   7.281   5.027  0.0050  0.4249 -0.1717
  717MOL0     C96719  -0.160   7.241   4.995 -1.3539 -0.7846 -0.2864
  717MOL0     C96720  -0.249   7.358   5.046  0.3908 -0.0836  0.0663
  717MOL0     C96721  -0.263   7.364   5.201  0.2408 -0.2652 -0.2541
  717MOL0     C96722  -0.353   7.253   5.251  0.0621 -0.1225  0.0837
  717MOL0     C96723  -0.480   7.231   5.181 -0.1311 -0.2549  0.3144
  717MOL0     C96724  -0.581   7.203   5.120 -0.7186 -0.2835 -0.1877
  717MOL0     C96725   0.079   7.081   4.925  0.1746 -0.2223 -0.6379
  717MOL0     C96726   0.200   7.023   4.883 -0.6021  0.3734 -0.4458
  717MOL0     C96727   0.185   6.886   4.814 -0.5985 -0.0879  0.2646
  717MOL0     H96728   0.697   6.918   4.744  0.0576 -1.1367  0.6431
  717MOL0     H96729   0.921   6.843   4.781 -3.3350 -1.1307 -0.7722
  717MOL0     H96730   1.165   6.871   4.779 -2.0930 -0.0370 -1.7772
  717MOL0     H96731   1.116   7.048   4.779  0.7569  0.3018  0.1690
  717MOL0     H96732   1.332   6.931   4.957 -0.6143 -0.8225 -1.8560
  717MOL0     H96733   1.296   7.097   4.945  0.4400 -1.2097  1.5988
  717MOL0     H96734   1.357   7.119   4.725 -1.4875 -0.2286  0.4608
  717MOL0     H96735   1.369   6.952   4.682  2.0591 -0.7632 -0.8280
  717MOL0     H96736   1.551   7.116   4.855 -1.8052  2.2041 -1.7971
  717MOL0     H96737   1.548   6.937   4.874 -3.1655 -1.3034 -1.2387
  717MOL0     H96738   1.593   6.920   4.627 -1.3632  2.1692 -2.5193
  717MOL0     H96739   1.592   7.095   4.613 -2.5228 -0.8963 -0.6356
  717MOL0     H96740   1.770   7.105   4.785 -2.1440  0.4393 -1.0768
  717MOL0     H96741   1.792   6.934   4.755  0.6828  1.1306  1.0611
  717MOL0     H96742   1.824   7.157   4.545  0.6797 -0.0236  1.0023
  717MOL0     H96743   1.820   6.983   4.503  1.2554  1.4435 -2.0440
  717MOL0     H96744   2.017   7.131   4.680 -1.8412  2.3423 -2.6927
  717MOL0     H96745   2.022   6.949   4.672  3.3172 -1.4455 -2.2951
  717MOL0     H96746   1.990   6.864   4.386  1.3679 -0.5057 -1.3091
  717MOL0     H96747   2.345   6.842   4.255 -1.1272  1.6911  0.1623
  717MOL0     H96748   2.197   6.745   4.252 -1.1107  0.7077 -1.7180
  717MOL0     H96749   2.237   6.992   4.100  2.6303 -0.7365  0.9363
  717MOL0     H96750   2.253   6.833   4.029 -1.0192 -1.9221  0.1187
  717MOL0     H96751   1.996   6.835   4.175  1.5732  2.6522  1.2860
  717MOL0     H96752   2.034   6.771   4.016 -0.5733 -1.2456  0.7375
  717MOL0     H96753   2.026   6.965   3.893  0.4505  2.3966  0.8800
  717MOL0     H96754   2.003   7.062   4.036 -3.5672  1.5597 -0.7295
  717MOL0     H96755   1.586   6.876   3.947 -0.0386 -0.7090  0.3473
  717MOL0     H96756   1.409   6.924   4.106 -0.4867 -0.7024  1.6503
  717MOL0     H96757   1.214   7.230   4.273  0.2601 -0.3938  0.4811
  717MOL0     H96758   0.990   7.304   4.342  0.6694  1.3148  2.0691
  717MOL0     H96759   0.872   7.339   4.579 -0.3203 -2.7100  2.6440
  717MOL0     H96760   0.794   7.369   4.434  0.8120  3.3123  2.3881
  717MOL0     H96761   0.663   7.268   4.694 -1.9720  1.4565  0.3003
  717MOL0     H96762   0.635   7.420   4.614 -2.2142  0.7937 -3.2102
  717MOL0     H96763   0.549   7.255   4.409 -0.4299  0.3233  0.8119
  717MOL0     H96764   0.546   7.137   4.527 -2.3642  0.1699 -1.0049
  717MOL0     H96765   0.378   7.387   4.538 -1.1330 -0.4712  1.8592
  717MOL0     H96766   0.390   7.272   4.669 -0.0015 -0.9333  0.0309
  717MOL0     H96767   0.313   7.087   4.525 -0.9776  0.3421 -0.1216
  717MOL0     H96768   0.302   7.205   4.395  2.1608  0.1891  0.0997
  717MOL0     H96769   0.148   7.175   4.662 -0.2389  0.3237 -0.1897
  717MOL0     H96770   0.143   7.326   4.585  0.7244 -0.5002  0.0506
  717MOL0     H96771   0.041   7.199   4.385  2.6333  1.6616  0.4978
  717MOL0     H96772  -0.048   7.238   4.548  1.3008  1.1836  1.2986
  717MOL0     H96773  -0.014   7.017   4.622 -0.4947  0.2023  0.4433
  717MOL0     H96774  -0.099   7.013   4.461  0.7475 -0.3600 -1.1043
  717MOL0     H96775   0.928   6.918   4.543  2.7863 -2.8435  0.9885
  717MOL0     H96776   1.160   6.870   4.480 -0.6896 -0.4114 -1.2109
  717MOL0     H96777   1.687   7.152   4.339 -1.2606  1.9881 -2.2334
  717MOL0     H96778   1.870   7.075   4.212  0.5689  1.5061 -0.5323
  717MOL0     H96779   0.969   7.131   5.091 -1.2178  1.6117 -0.0843
  717MOL0     H96780   0.733   7.219   5.038  1.3234 -0.2255  1.6943
  717MOL0     H96781   0.406   7.269   4.994 -0.6320  0.5830  0.4632
  717MOL0     H96782   0.204   7.376   5.033 -3.7338  2.5364 -4.3997
  717MOL0     H96783  -0.192   7.146   5.039  1.2656 -1.0087  1.3560
  717MOL0     H96784  -0.168   7.239   4.886  0.2530  1.2395 -0.4988
  717MOL0     H96785  -0.348   7.347   5.000  0.1312 -1.7198  0.9268
  717MOL0     H96786  -0.204   7.450   5.008 -1.5897  0.9563  0.1160
  717MOL0     H96787  -0.298   7.462   5.234 -1.1074 -1.0101  0.5980
  717MOL0     H96788  -0.161   7.357   5.241 -0.2749  0.2924  1.2172
  717MOL0     H96789  -0.310   7.154   5.232 -3.9724 -2.0674 -0.1953
  717MOL0     H96790  -0.373   7.262   5.358 -2.7789  0.6584 -0.4239
  717MOL0     H96791  -0.676   7.180   5.076 -1.2759 -1.5398  1.5472
  717MOL0     H96792  -0.008   7.021   4.903  0.4978 -1.8443  2.1319
  717MOL0     H96793   0.244   6.820   4.878  2.4222  1.5950 -0.5446
  717MOL0     H96794   0.081   6.853   4.809  0.1189 -3.0809  2.2256
  717MOL0     H96795   0.222   6.898   4.712  0.5881  3.4683  0.9707
  718MOL0     O96796   3.008   8.171   1.880 -0.0004 -0.0866 -0.6527
  718MOL0     C96797   3.028   8.286   1.925 -0.0569 -0.2738  0.3833
  718MOL0     O96798   3.146   8.356   1.938 -0.7747 -0.1776 -1.0565
  718MOL0     C96799   3.271   8.293   1.947  0.1798  0.8000  0.4813
  718MOL0     C96800   3.297   8.154   1.970  0.3379 -0.7610  0.2880
  718MOL0     C96801   3.431   8.102   1.960 -0.1038 -0.0105  0.4230
  718MOL0     C96802   3.539   8.189   1.935  0.1516 -0.9677 -0.8932
  718MOL0     O96803   3.668   8.146   1.922  0.0310 -0.4117  0.9730
  718MOL0     C96804   3.759   8.181   2.028 -0.3766  0.4560 -0.2326
  718MOL0     C96805   3.850   8.304   1.986  0.3530  0.8051  0.9133
  718MOL0     C96806   3.974   8.332   2.067 -0.3822 -0.5583 -0.4303
  718MOL0     C96807   4.018   8.484   2.065 -0.0075  0.6566  0.3361
  718MOL0     C96808   4.136   8.505   2.160 -0.3407  0.4182 -0.7231
  718MOL0     C96809   4.198   8.641   2.154 -0.7792 -0.0207  0.2565
  718MOL0     C96810   4.324   8.668   2.242 -1.3282 -0.4419 -0.1759
  718MOL0     C96811   4.291   8.676   2.395  0.9473 -0.6564 -0.2760
  718MOL0     N96812   4.411   8.690   2.476 -0.1891 -1.0990 -0.4514
  718MOL0     C96813   4.479   8.808   2.488  0.1746 -0.2101 -0.2491
  718MOL0     C96814   4.608   8.768   2.509  0.0039  0.4956 -0.0773
  718MOL0     C96815   4.721   8.870   2.514  0.1682 -0.3557 -0.5899
  718MOL0     C96816   4.852   8.828   2.425  1.2540 -0.0622 -0.7236
  718MOL0     C96817   4.960   8.931   2.416 -0.4164  0.3165 -0.3064
  718MOL0     C96818   4.915   9.055   2.334  0.2684  1.1166 -0.3793
  718MOL0     O96819   5.005   9.161   2.305 -0.4681 -0.3909 -0.1912
  718MOL0     C96820   5.122   9.135   2.233 -0.1902 -0.4257  0.0485
  718MOL0     C96821   5.222   9.223   2.262  0.9159  0.6437  0.7546
  718MOL0     C96822   5.349   9.220   2.207 -0.6660 -0.1918  0.4245
  718MOL0     C96823   5.380   9.116   2.113  0.8918 -0.2865  0.3835
  718MOL0     C96824   5.506   9.108   2.034  0.4013  0.3762  0.6865
  718MOL0     O96825   5.526   8.981   1.975  0.1442 -0.1482  0.1770
  718MOL0     C96826   5.649   8.956   1.911  0.5628 -0.4424 -0.4772
  718MOL0     C96827   5.691   9.016   1.792  0.2671  0.0322 -0.0103
  718MOL0     C96828   5.818   8.992   1.744 -0.5082  0.1192 -0.2663
  718MOL0     C96829   5.894   8.888   1.809 -0.5500  0.5263 -0.3849
  718MOL0     O96830   6.019   8.865   1.758  0.2780  0.0403  0.8021
  718MOL0     C96831   6.056   8.899   1.621  0.3443 -0.1748 -0.5063
  718MOL0     C96832   6.197   8.850   1.606 -0.3486  0.3312 -0.2769
  718MOL0     C96833   6.213   8.693   1.621 -0.2438  0.1062  0.1436
  718MOL0     C96834   6.332   8.643   1.546 -0.1775 -0.0139 -0.2701
  718MOL0     C96835   6.361   8.498   1.565  0.2703 -0.0023 -0.2075
  718MOL0     C96836   6.236   8.409   1.564 -0.1625 -0.0693 -0.8340
  718MOL0     C96837   6.274   8.267   1.539  0.0003 -0.1395  0.3698
  718MOL0     C96838   6.148   8.175   1.523 -0.0201  0.3574 -0.3204
  718MOL0    Cl96839   6.040   8.162   1.668 -0.1109 -0.0138  0.2147
  718MOL0     C96840   5.836   8.816   1.915  0.7101  0.5381 -0.4677
  718MOL0     C96841   5.716   8.856   1.975  0.0534 -0.1645  0.6873
  718MOL0     O96842   5.581   9.202   2.035 -0.2196 -0.0114  0.0586
  718MOL0     C96843   5.275   9.021   2.089  0.0978 -0.3417  0.7036
  718MOL0     C96844   5.151   9.020   2.147  0.4519 -0.2888 -1.0819
  718MOL0     N96845   4.620   8.632   2.490 -0.9503  0.1375 -0.1836
  718MOL0     N96846   4.498   8.589   2.494 -0.5136  0.0248  0.5951
  718MOL0     C96847   3.514   8.328   1.915  0.6900 -0.3025 -0.3708
  718MOL0     C96848   3.380   8.379   1.926  0.0460 -0.5882  0.3757
  718MOL0     C96849   2.905   8.347   1.939  0.0976 -0.3873 -0.2765
  718MOL0     C96850   2.913   8.488   1.913 -0.6026 -0.6168 -0.4828
  718MOL0     C96851   2.801   8.568   1.929 -0.3239 -0.4166 -0.2514
  718MOL0     C96852   2.682   8.517   1.986  0.5890 -0.2215 -0.6094
  718MOL0     O96853   2.561   8.587   2.008  0.0256  0.0158 -0.3897
  718MOL0     C96854   2.556   8.734   1.974 -0.7792  0.2263  0.1079
  718MOL0     C96855   2.423   8.790   2.007  0.8624 -0.3854  0.3526
  718MOL0     C96856   2.301   8.699   1.970 -0.4959  0.2315  0.0105
  718MOL0     C96857   2.264   8.742   1.831 -1.0577 -0.6994  0.6395
  718MOL0     C96858   2.170   8.850   1.828  0.6717 -0.3902  0.4661
  718MOL0     C96859   2.090   8.945   1.840  0.0202  0.2649  0.6901
  718MOL0     C96860   2.678   8.378   2.013  0.1223 -0.6291  0.2626
  718MOL0     C96861   2.783   8.290   1.987 -0.1952 -0.0446  0.6034
  718MOL0     C96862   2.760   8.150   2.033  0.7853  0.6846  0.6589
  718MOL0     H96863   3.210   8.091   1.990 -0.5064 -0.0613 -1.0119
  718MOL0     H96864   3.453   7.996   1.972 -0.2434  0.0042  0.8510
  718MOL0     H96865   3.699   8.210   2.115 -1.0158  1.2784 -0.9324
  718MOL0     H96866   3.823   8.096   2.054  0.6842  0.8195 -1.5224
  718MOL0     H96867   3.776   8.384   1.999  0.5360  0.9553  1.0272
  718MOL0     H96868   3.876   8.298   1.880  0.7143  1.4861  0.9550
  718MOL0     H96869   4.052   8.271   2.021  0.7294  1.0608 -0.7777
  718MOL0     H96870   3.960   8.292   2.168  1.6014 -0.4486 -0.0676
  718MOL0     H96871   4.049   8.508   1.962  0.8303 -2.2152 -0.1995
  718MOL0     H96872   3.937   8.549   2.098  0.1995  0.4319  1.3183
  718MOL0     H96873   4.094   8.486   2.260 -1.2009  0.1009 -1.1387
  718MOL0     H96874   4.217   8.434   2.141 -0.6147 -0.8732  2.2428
  718MOL0     H96875   4.233   8.655   2.051 -1.9234 -2.0871 -0.4580
  718MOL0     H96876   4.129   8.722   2.176 -1.0894  0.7362 -2.9783
  718MOL0     H96877   4.363   8.769   2.225  3.0242 -2.0872 -1.2374
  718MOL0     H96878   4.409   8.605   2.217 -0.9486  0.3558 -0.9708
  718MOL0     H96879   4.222   8.759   2.416  2.8867  0.2912  3.0855
  718MOL0     H96880   4.250   8.579   2.422  2.0094 -0.8165  0.8088
  718MOL0     H96881   4.446   8.911   2.475  1.4650  0.2543 -0.0082
  718MOL0     H96882   4.683   8.966   2.479 -1.7744 -1.5616 -2.0166
  718MOL0     H96883   4.742   8.883   2.621 -4.1692  2.7223  0.1598
  718MOL0     H96884   4.902   8.739   2.464 -0.3567 -0.4295  0.6177
  718MOL0     H96885   4.820   8.807   2.323  1.1519 -1.5167 -0.4093
  718MOL0     H96886   5.048   8.883   2.372  1.1982  2.5189  0.3678
  718MOL0     H96887   5.002   8.961   2.512  1.6723  1.9664 -1.6679
  718MOL0     H96888   4.830   9.096   2.388  0.7609  1.2553  0.2978
  718MOL0     H96889   4.866   9.019   2.243 -1.0271  1.2791  0.2337
  718MOL0     H96890   5.188   9.309   2.319 -0.8420  0.8300 -0.4826
  718MOL0     H96891   5.423   9.295   2.232 -0.1196  0.6326 -3.1204
  718MOL0     H96892   5.620   9.082   1.745  1.7332  0.5760 -1.5767
  718MOL0     H96893   5.844   9.053   1.659 -0.9725  2.8462  1.4279
  718MOL0     H96894   5.990   8.867   1.540  1.3858  0.2436 -1.5602
  718MOL0     H96895   6.058   9.007   1.609 -3.8157  0.5440  3.0843
  718MOL0     H96896   6.231   8.881   1.506 -1.8464 -1.2930 -1.3539
  718MOL0     H96897   6.271   8.896   1.672  0.2833  0.8709 -1.3287
  718MOL0     H96898   6.209   8.660   1.725 -4.6173 -0.3286  0.0170
  718MOL0     H96899   6.129   8.647   1.569  0.2521 -0.8367  0.1519
  718MOL0     H96900   6.405   8.703   1.601  0.0677 -0.3434 -0.2301
  718MOL0     H96901   6.330   8.660   1.438  3.9396 -4.1322 -1.3369
  718MOL0     H96902   6.399   8.486   1.667 -1.6060  0.6582  0.6250
  718MOL0     H96903   6.437   8.467   1.494  1.5066 -0.5490  1.3005
  718MOL0     H96904   6.175   8.432   1.652 -1.9482  0.5121 -2.1755
  718MOL0     H96905   6.174   8.444   1.481 -2.6850  1.3078  1.4909
  718MOL0     H96906   6.331   8.238   1.629  1.1564  1.2743  0.1258
  718MOL0     H96907   6.348   8.263   1.459 -0.2092  0.8165  0.1237
  718MOL0     H96908   6.090   8.207   1.436 -0.9279 -1.0066 -0.2381
  718MOL0     H96909   6.182   8.078   1.485  2.3519  0.5691  1.0926
  718MOL0     H96910   5.904   8.749   1.966  1.9142  2.0415 -0.0062
  718MOL0     H96911   5.675   8.806   2.061  0.4530 -0.0567  0.9459
  718MOL0     H96912   5.300   8.939   2.022  1.0233  0.5340 -0.0641
  718MOL0     H96913   5.076   8.942   2.143  0.7132 -0.8926  2.4173
  718MOL0     H96914   3.591   8.404   1.904 -1.4715  2.2253  0.6111
  718MOL0     H96915   3.358   8.482   1.901 -2.5794 -0.8543  1.2192
  718MOL0     H96916   2.997   8.538   1.867 -0.8656  1.9634  1.5806
  718MOL0     H96917   2.815   8.673   1.910 -0.3471 -0.4977 -0.7109
  718MOL0     H96918   2.563   8.748   1.866 -3.9927  1.1749 -0.0617
  718MOL0     H96919   2.634   8.796   2.019 -1.7918  1.5954  0.0111
  718MOL0     H96920   2.406   8.887   1.959 -3.5559 -0.5220  1.2194
  718MOL0     H96921   2.415   8.817   2.113  2.1262  0.0055  0.3668
  718MOL0     H96922   2.213   8.713   2.034  0.0238 -1.1577  1.0922
  718MOL0     H96923   2.320   8.592   1.979 -0.8798  0.0921 -0.7385
  718MOL0     H96924   2.353   8.770   1.775 -0.7440 -2.0234  0.4437
  718MOL0     H96925   2.220   8.658   1.778 -1.2578  0.7951 -1.7263
  718MOL0     H96926   2.024   9.026   1.866  0.9680  0.8301  1.3884
  718MOL0     H96927   2.580   8.347   2.050 -1.3592  1.3719 -1.7517
  718MOL0     H96928   2.672   8.139   2.097 -0.0151 -0.5242 -0.5919
  718MOL0     H96929   2.743   8.083   1.948 -0.5266 -0.1272  1.5326
  718MOL0     H96930   2.847   8.117   2.091  0.4383 -1.2426  0.1554
  719MOL0     O96931   4.909   6.438  10.869 -1.1000 -0.3786 -0.0344
  719MOL0     C96932   4.850   6.355  10.932  0.4941  0.0442  0.2477
  719MOL0     O96933   4.911   6.271  11.028  0.1270  0.1932 -0.0676
  719MOL0     C96934   5.025   6.321  11.090  0.5326  0.0494  0.5754
  719MOL0     C96935   5.020   6.407  11.202  0.7070  0.4259  0.7821
  719MOL0     C96936   5.135   6.439  11.267 -0.0720 -0.1630 -0.0310
  719MOL0     C96937   5.258   6.395  11.220 -0.1235 -0.2074 -0.1021
  719MOL0     O96938   5.375   6.443  11.282 -0.4348 -0.4685 -0.1518
  719MOL0     C96939   5.457   6.345  11.345  0.4411 -0.0413 -0.4705
  719MOL0     C96940   5.453   6.364  11.496 -0.0891  0.4798 -0.5656
  719MOL0     C96941   5.572   6.279  11.566  0.2798  0.2753 -0.2647
  719MOL0     C96942   5.711   6.351  11.547 -0.0923 -0.5082  0.4770
  719MOL0     C96943   5.816   6.256  11.606 -0.4246 -0.0061 -0.5621
  719MOL0     C96944   5.966   6.312  11.601 -0.0722  0.6501 -0.8752
  719MOL0     C96945   6.056   6.235  11.702 -0.2282  0.1348 -0.6998
  719MOL0     C96946   6.053   6.078  11.677 -0.2039  0.4118  0.1779
  719MOL0     N96947   6.174   6.010  11.722  0.0342 -0.4109 -0.1341
  719MOL0     C96948   6.208   5.997  11.855  0.1170 -0.3213 -0.1455
  719MOL0     C96949   6.311   5.909  11.861  0.1349  0.5261 -1.0572
  719MOL0     C96950   6.388   5.883  11.990  0.0814  0.8520  0.5924
  719MOL0     C96951   6.483   5.763  11.979  0.4108  0.6685  0.9949
  719MOL0     C96952   6.554   5.765  12.108 -0.3734  0.1342 -0.4506
  719MOL0     C96953   6.680   5.680  12.082  0.3900 -0.3369  0.6631
  719MOL0     O96954   6.762   5.674  12.193 -0.1516  0.6967 -0.8963
  719MOL0     C96955   6.889   5.624  12.180 -0.1788 -0.5784 -0.1451
  719MOL0     C96956   6.982   5.676  12.270 -0.3836 -0.5638 -0.0662
  719MOL0     C96957   7.114   5.652  12.270  0.2512  0.6093 -0.5199
  719MOL0     C96958   7.160   5.556  12.182 -0.4658 -0.0117 -0.1280
  719MOL0     C96959   7.309   5.522  12.170  1.0422  0.2426  0.4587
  719MOL0     O96960   7.407   5.612  12.209  0.2048 -0.0436  0.3564
  719MOL0     C96961   7.542   5.580  12.194  0.9206  0.6913 -0.3135
  719MOL0     C96962   7.608   5.617  12.075  0.0410 -0.0449  0.9896
  719MOL0     C96963   7.743   5.574  12.055 -0.1282 -0.6197 -0.3505
  719MOL0     C96964   7.810   5.504  12.161  0.1516 -0.3897 -0.2243
  719MOL0     O96965   7.934   5.461  12.137  0.1172  0.3080 -1.0978
  719MOL0     C96966   8.034   5.502  12.233 -0.4049 -0.3182  0.2063
  719MOL0     C96967   8.163   5.429  12.217 -0.3464  0.1218  0.2700
  719MOL0     C96968   8.236   5.478  12.086  0.4794 -0.3259  0.5156
  719MOL0     C96969   8.367   5.414  12.070 -0.4448  0.2884  0.8287
  719MOL0     C96970   8.450   5.470  11.955  0.2239  1.0418 -0.4941
  719MOL0     C96971   8.376   5.480  11.819 -0.5972  0.7636  0.0409
  719MOL0     C96972   8.479   5.506  11.707 -0.2385  0.0888  0.6539
  719MOL0     C96973   8.560   5.398  11.659  0.1855  0.3633 -0.2818
  719MOL0    Cl96974   8.456   5.259  11.608 -0.3597  0.1222 -0.4980
  719MOL0     C96975   7.742   5.480  12.278 -0.0701 -0.7548 -0.1087
  719MOL0     C96976   7.612   5.512  12.290  1.0188  1.1499  1.1024
  719MOL0     O96977   7.335   5.418  12.115 -0.2162 -0.1309 -0.2720
  719MOL0     C96978   7.070   5.491  12.094  0.1477  0.2476  0.1891
  719MOL0     C96979   6.933   5.529  12.088  0.0245  0.4602 -0.2133
  719MOL0     N96980   6.335   5.850  11.739 -0.4912 -0.6075  0.1464
  719MOL0     N96981   6.245   5.916  11.665 -0.4449  0.2818  0.8143
  719MOL0     C96982   5.262   6.320  11.106  0.0215 -0.1194  0.4113
  719MOL0     C96983   5.150   6.282  11.036  1.0746 -0.0612  0.3083
  719MOL0     C96984   4.705   6.328  10.909 -0.0250  0.0839 -0.6860
  719MOL0     C96985   4.628   6.262  11.008 -0.3087 -1.2389  0.1431
  719MOL0     C96986   4.489   6.246  10.988 -0.5431  0.3390 -0.1631
  719MOL0     C96987   4.424   6.292  10.884  0.0702 -0.1946 -0.2630
  719MOL0     O96988   4.292   6.274  10.892  0.1255  1.1913 -0.4551
  719MOL0     C96989   4.207   6.290  10.778 -1.3041 -0.8015 -0.2934
  719MOL0     C96990   4.067   6.230  10.797  0.3500  0.1636  0.8615
  719MOL0     C96991   3.990   6.308  10.896 -0.1111 -1.2012  0.1188
  719MOL0     C96992   3.852   6.252  10.907 -0.1522 -0.0173 -0.0712
  719MOL0     C96993   3.765   6.274  10.797 -0.1703 -0.1358 -0.9494
  719MOL0     C96994   3.689   6.313  10.711  0.6299 -0.7028  0.4227
  719MOL0     C96995   4.493   6.356  10.782 -0.8149  0.1857  0.0436
  719MOL0     C96996   4.632   6.381  10.796  0.1649  0.0202  0.5692
  719MOL0     C96997   4.701   6.444  10.677 -0.4255  0.8447  0.2585
  719MOL0     H96998   4.927   6.457  11.227 -0.6805  0.9835 -4.3421
  719MOL0     H96999   5.135   6.500  11.357 -0.9643 -1.8712  1.1708
  719MOL0     H97000   5.439   6.242  11.312 -3.0952  1.3453 -3.4849
  719MOL0     H97001   5.560   6.365  11.313  0.4951  1.8036  0.6927
  719MOL0     H97002   5.357   6.333  11.537  0.4719 -3.1000 -1.6755
  719MOL0     H97003   5.474   6.470  11.514  1.2620 -0.0223  1.1381
  719MOL0     H97004   5.577   6.182  11.516  0.6862  1.3148 -2.3486
  719MOL0     H97005   5.557   6.275  11.674 -0.6360  2.3668 -0.2722
  719MOL0     H97006   5.734   6.379  11.443 -0.5349 -0.9864  0.2466
  719MOL0     H97007   5.710   6.442  11.607 -0.1187  0.7274 -1.2975
  719MOL0     H97008   5.792   6.240  11.711  1.7403  0.4979  0.0443
  719MOL0     H97009   5.809   6.153  11.571 -1.1545 -0.6136  1.2491
  719MOL0     H97010   6.005   6.292  11.501 -1.0112 -2.9864 -0.6780
  719MOL0     H97011   5.974   6.417  11.630  2.2421 -0.0902  1.5966
  719MOL0     H97012   6.027   6.244  11.807 -0.4531  0.9502 -0.8239
  719MOL0     H97013   6.157   6.277  11.699 -0.4839  0.8816  0.3662
  719MOL0     H97014   5.975   6.045  11.745 -0.2195  3.2619  1.6945
  719MOL0     H97015   6.032   6.045  11.574 -0.7548  0.3959  0.2939
  719MOL0     H97016   6.166   6.049  11.940  1.0330  0.3653 -0.0953
  719MOL0     H97017   6.438   5.975  12.022 -1.9064  2.0854  0.3060
  719MOL0     H97018   6.316   5.860  12.069 -1.3696  0.4364 -0.8061
  719MOL0     H97019   6.427   5.670  11.964  1.5440  0.3361 -1.6309
  719MOL0     H97020   6.551   5.780  11.895 -0.9495  1.5685  0.0460
  719MOL0     H97021   6.499   5.707  12.183 -0.8862 -0.3143 -1.1618
  719MOL0     H97022   6.574   5.863  12.152  1.3709 -1.0446  1.6014
  719MOL0     H97023   6.731   5.717  11.992 -2.2207 -0.0575 -0.7959
  719MOL0     H97024   6.641   5.579  12.062 -2.0428  0.2466  2.1120
  719MOL0     H97025   6.952   5.754  12.339  0.3499  2.4601 -2.9121
  719MOL0     H97026   7.179   5.707  12.336  2.4424 -1.1968 -1.0488
  719MOL0     H97027   7.553   5.675  12.001 -1.0037  0.1209  1.8676
  719MOL0     H97028   7.792   5.587  11.959 -0.6254 -0.0667 -0.5328
  719MOL0     H97029   8.053   5.609  12.221  0.7507 -0.5377 -0.0751
  719MOL0     H97030   8.003   5.481  12.336 -0.4693 -4.0149 -0.4249
  719MOL0     H97031   8.229   5.440  12.303  2.6136  0.1358 -1.8815
  719MOL0     H97032   8.137   5.323  12.208  1.0691 -0.3502  1.3979
  719MOL0     H97033   8.169   5.453  12.004  0.5117  2.7420 -0.5603
  719MOL0     H97034   8.243   5.587  12.087  2.3723 -0.3693 -1.5464
  719MOL0     H97035   8.357   5.305  12.067 -1.0733  0.3084  1.8333
  719MOL0     H97036   8.426   5.447  12.157  0.2094 -1.4916  1.1017
  719MOL0     H97037   8.524   5.389  11.949 -0.5210  0.1366  1.5517
  719MOL0     H97038   8.494   5.566  11.983  1.1749  0.2374  0.9179
  719MOL0     H97039   8.307   5.399  11.794 -0.4069  0.8855 -0.9274
  719MOL0     H97040   8.317   5.570  11.840 -0.6886  0.2855  2.0061
  719MOL0     H97041   8.540   5.591  11.738 -0.5622  0.3444  0.5979
  719MOL0     H97042   8.423   5.544  11.621 -1.0820 -2.6411 -0.1384
  719MOL0     H97043   8.606   5.440  11.568  0.4618  0.7597  0.0398
  719MOL0     H97044   8.628   5.360  11.736  1.0793 -0.5225 -1.4608
  719MOL0     H97045   7.799   5.425  12.352 -0.6157 -0.2600  0.6891
  719MOL0     H97046   7.562   5.475  12.378 -0.3988 -0.6314 -0.3622
  719MOL0     H97047   7.116   5.422  12.023 -1.5054  0.1664 -0.8491
  719MOL0     H97048   6.868   5.488  12.011  0.7524 -0.5093 -0.3157
  719MOL0     H97049   5.362   6.296  11.070  0.3951 -1.2974  2.0993
  719MOL0     H97050   5.154   6.229  10.941 -1.0616 -0.7232  0.5522
  719MOL0     H97051   4.671   6.204  11.089 -0.6442 -2.9680 -0.8711
  719MOL0     H97052   4.437   6.198  11.070  1.0665  2.1184  2.0474
  719MOL0     H97053   4.242   6.241  10.686 -0.0842  1.3120 -1.0402
  719MOL0     H97054   4.206   6.394  10.743  1.4707 -1.5636 -3.1178
  719MOL0     H97055   4.078   6.128  10.836 -1.0429 -1.0569 -1.6964
  719MOL0     H97056   4.019   6.222  10.699 -0.6193  0.7453  1.2670
  719MOL0     H97057   3.985   6.414  10.869  0.2098 -1.7146 -2.0957
  719MOL0     H97058   4.048   6.303  10.989 -1.7996 -0.1808  1.2981
  719MOL0     H97059   3.860   6.146  10.931  1.0868  0.6577  2.9738
  719MOL0     H97060   3.813   6.300  10.997  0.5213 -0.8160  0.6626
  719MOL0     H97061   3.615   6.337  10.637  2.7881  0.3458 -1.5278
  719MOL0     H97062   4.445   6.389  10.691  0.5415 -0.1523 -0.8207
  719MOL0     H97063   4.781   6.377  10.644 -1.3895  0.1439 -0.6892
  719MOL0     H97064   4.624   6.465  10.602 -0.9608 -0.5623  0.3847
  719MOL0     H97065   4.745   6.542  10.699 -0.3456  1.3703 -2.0071
  720MOL0     O97066   8.135   2.116   6.257  0.2965 -0.6584 -0.5162
  720MOL0     C97067   8.109   2.000   6.240 -0.5447  0.2450  0.6943
  720MOL0     O97068   8.207   1.914   6.193  0.8005 -0.1149  0.4327
  720MOL0     C97069   8.327   1.955   6.159  0.2425  0.0536 -0.4395
  720MOL0     C97070   8.435   1.881   6.208 -0.1039 -0.9578 -1.0161
  720MOL0     C97071   8.568   1.913   6.180 -0.1920 -0.2424  0.3830
  720MOL0     C97072   8.597   2.019   6.088  0.3150  0.1281 -0.4450
  720MOL0     O97073   8.730   2.025   6.063 -0.1823  0.1660 -0.1781
  720MOL0     C97074   8.776   2.085   5.941 -0.2157  0.3728 -0.2482
  720MOL0     C97075   8.922   2.073   5.926  0.4304 -0.1214  0.1988
  720MOL0     C97076   8.980   2.136   5.795  0.6190  0.0210  0.0855
  720MOL0     C97077   9.128   2.101   5.792 -0.1137  0.5852 -0.8001
  720MOL0     C97078   9.200   2.165   5.676 -0.3969  0.2432 -0.7264
  720MOL0     C97079   9.338   2.093   5.659 -0.3294 -0.0034  0.3474
  720MOL0     C97080   9.438   2.203   5.603 -0.4491 -0.0592  0.0949
  720MOL0     C97081   9.541   2.144   5.510 -0.5632 -0.4556  0.0174
  720MOL0     N97082   9.474   2.077   5.398  0.7307  0.2333 -0.0396
  720MOL0     C97083   9.469   1.938   5.374 -0.2912 -0.7670 -0.8637
  720MOL0     C97084   9.381   1.914   5.277  0.6981  0.2946  0.2591
  720MOL0     C97085   9.359   1.781   5.212  0.9844 -0.0654  0.5869
  720MOL0     C97086   9.472   1.741   5.113  0.8731  0.1417 -0.6315
  720MOL0     C97087   9.450   1.601   5.066 -0.6201  1.2840 -0.0830
  720MOL0     C97088   9.545   1.559   4.953  0.2110 -0.2428  0.1100
  720MOL0     O97089   9.679   1.585   5.003  0.3659 -0.2002  0.5183
  720MOL0     C97090   9.779   1.566   4.911 -1.0054  0.4040 -0.1925
  720MOL0     C97091   9.762   1.531   4.777  0.3542 -0.3199 -0.2218
  720MOL0     C97092   9.871   1.515   4.687 -0.6613 -0.4817 -0.5302
  720MOL0     C97093  10.002   1.546   4.736 -0.2285 -0.2922  0.1467
  720MOL0     C97094  10.122   1.528   4.653 -0.0069 -0.6087 -0.4854
  720MOL0     O97095  10.246   1.570   4.708  0.5554  0.1185 -0.1684
  720MOL0     C97096  10.353   1.539   4.634 -0.2114 -1.2289  0.2420
  720MOL0     C97097  10.436   1.425   4.658 -0.8693  0.4383  0.0114
  720MOL0     C97098  10.555   1.403   4.590 -1.6606 -0.5306 -0.9780
  720MOL0     C97099  10.602   1.503   4.503  0.3934 -0.3520 -0.2951
  720MOL0     O97100  10.713   1.485   4.437  0.0202 -0.0084 -0.0726
  720MOL0     C97101  10.831   1.485   4.520 -0.1610  0.1003 -0.0134
  720MOL0     C97102  10.912   1.606   4.477  0.4563 -0.0341 -0.8843
  720MOL0     C97103  10.982   1.684   4.591 -0.0698 -0.9805 -0.4130
  720MOL0     C97104  11.125   1.709   4.567  0.4490 -0.1459  0.0342
  720MOL0     C97105  11.214   1.588   4.554  0.7037 -0.0750  1.1300
  720MOL0     C97106  11.344   1.626   4.473  0.5151 -0.4828 -0.0635
  720MOL0     C97107  11.442   1.515   4.492  0.6281  0.1672  0.5006
  720MOL0     C97108  11.554   1.521   4.377  0.9801  0.8099 -0.1784
  720MOL0    Cl97109  11.671   1.389   4.390 -0.1898 -0.2557 -0.0869
  720MOL0     C97110  10.516   1.607   4.475 -0.3947  0.2573  0.3312
  720MOL0     C97111  10.395   1.636   4.537  0.3793  0.7557 -0.7205
  720MOL0     O97112  10.108   1.474   4.543 -0.3289 -0.2589  0.4086
  720MOL0     C97113  10.026   1.575   4.878  0.2851 -0.0236 -0.1717
  720MOL0     C97114   9.912   1.584   4.958 -0.2748  0.2803 -0.3148
  720MOL0     N97115   9.320   2.029   5.239 -0.2605  0.0009  0.3371
  720MOL0     N97116   9.379   2.130   5.302  0.7409  0.6196 -0.2961
  720MOL0     C97117   8.488   2.099   6.040 -1.1701 -0.2909 -0.6223
  720MOL0     C97118   8.359   2.070   6.083 -0.6927  1.3409 -0.1054
  720MOL0     C97119   7.969   1.944   6.252 -0.5983 -0.9515  0.4477
  720MOL0     C97120   7.955   1.812   6.235 -0.6124  0.3321  0.0474
  720MOL0     C97121   7.834   1.748   6.261 -0.3062 -0.0939  0.0210
  720MOL0     C97122   7.723   1.813   6.302  0.6254 -0.0109  0.0118
  720MOL0     O97123   7.610   1.744   6.340 -0.9497  0.8139  0.3368
  720MOL0     C97124   7.491   1.798   6.358  0.3559 -0.3248  0.3882
  720MOL0     C97125   7.372   1.711   6.315 -0.5596  0.7813 -1.1087
  720MOL0     C97126   7.386   1.564   6.352 -0.9004 -0.1618 -0.1665
  720MOL0     C97127   7.256   1.505   6.390 -0.3598 -0.5517 -0.0954
  720MOL0     C97128   7.181   1.486   6.269 -1.0651 -0.9717 -0.0987
  720MOL0     C97129   7.114   1.482   6.167  1.2074 -0.3740 -0.5680
  720MOL0     C97130   7.736   1.955   6.327  0.3431  0.1276  0.4798
  720MOL0     C97131   7.860   2.023   6.299  0.6500  0.2321 -0.0401
  720MOL0     C97132   7.858   2.175   6.311  0.3008  0.6306  0.1438
  720MOL0     H97133   8.414   1.802   6.279 -0.1272  1.1886  1.5533
  720MOL0     H97134   8.649   1.855   6.225  0.5417 -0.6799 -1.4359
  720MOL0     H97135   8.731   2.038   5.853  1.9151 -1.0583 -0.6341
  720MOL0     H97136   8.754   2.192   5.949  0.2132  0.5560 -1.2845
  720MOL0     H97137   8.946   1.967   5.929  0.7487 -0.0526  0.0636
  720MOL0     H97138   8.969   2.117   6.015 -0.1244  1.2224 -0.1343
  720MOL0     H97139   8.961   2.243   5.786 -0.4910 -0.1602  0.1119
  720MOL0     H97140   8.931   2.100   5.704  0.6497  0.4193 -0.0876
  720MOL0     H97141   9.175   2.134   5.885 -0.7944 -0.0406 -0.2255
  720MOL0     H97142   9.132   1.992   5.778  1.4975  0.0989  2.5189
  720MOL0     H97143   9.148   2.153   5.580 -0.2736 -3.5073 -0.4803
  720MOL0     H97144   9.209   2.271   5.700 -0.7777  0.5147 -1.7276
  720MOL0     H97145   9.374   2.055   5.755  1.4670  2.6860  0.8686
  720MOL0     H97146   9.347   2.005   5.594  3.2072  0.7073 -0.3798
  720MOL0     H97147   9.497   2.239   5.688  0.5574 -1.0206 -0.1760
  720MOL0     H97148   9.390   2.293   5.564 -3.3708 -0.0853  3.1604
  720MOL0     H97149   9.608   2.221   5.470 -0.0262 -0.6469  0.5301
  720MOL0     H97150   9.604   2.065   5.552  0.2201 -0.5516 -1.2700
  720MOL0     H97151   9.530   1.859   5.415  1.8804  1.6552  0.9349
  720MOL0     H97152   9.356   1.705   5.290  1.7961 -1.8321 -1.0285
  720MOL0     H97153   9.265   1.774   5.156  1.1328 -3.8856  0.5514
  720MOL0     H97154   9.488   1.818   5.037  0.5605 -0.0311 -0.8710
  720MOL0     H97155   9.556   1.738   5.183 -0.0005 -0.4373  0.4232
  720MOL0     H97156   9.347   1.577   5.036  0.2449 -1.7546 -0.9827
  720MOL0     H97157   9.464   1.536   5.153 -2.0111  0.2441 -0.5957
  720MOL0     H97158   9.529   1.620   4.863 -0.7052  0.7551  0.9127
  720MOL0     H97159   9.530   1.452   4.940  3.0814 -0.7251  0.1803
  720MOL0     H97160   9.665   1.508   4.736 -0.5618 -4.1387  3.4098
  720MOL0     H97161   9.851   1.470   4.590 -1.1816 -3.7109  0.9368
  720MOL0     H97162  10.414   1.366   4.747  2.7521 -1.7401 -0.3115
  720MOL0     H97163  10.624   1.322   4.611 -2.5654 -0.7276  1.5180
  720MOL0     H97164  10.824   1.491   4.629  2.2692  1.7252  0.1250
  720MOL0     H97165  10.896   1.398   4.505  2.1189  1.3495  1.9422
  720MOL0     H97166  10.991   1.569   4.411 -0.3750 -1.2647 -1.2268
  720MOL0     H97167  10.841   1.666   4.421  0.4766 -0.0229 -0.8978
  720MOL0     H97168  10.926   1.776   4.607  1.8196  0.4195 -1.4299
  720MOL0     H97169  10.970   1.629   4.685 -1.1792  1.5911  1.0656
  720MOL0     H97170  11.164   1.768   4.651  0.7212 -2.4722  1.6301
  720MOL0     H97171  11.137   1.770   4.477 -1.2779 -0.2393 -0.2926
  720MOL0     H97172  11.167   1.505   4.499 -0.2424 -1.0362  3.2737
  720MOL0     H97173  11.243   1.544   4.650  0.7536  0.0886  1.1895
  720MOL0     H97174  11.318   1.635   4.367  0.7863 -1.3548 -0.2096
  720MOL0     H97175  11.396   1.717   4.505  0.1192 -0.5638  0.8234
  720MOL0     H97176  11.393   1.419   4.475  0.8111 -0.0938  1.3564
  720MOL0     H97177  11.492   1.517   4.590 -0.4745 -1.8694  1.1782
  720MOL0     H97178  11.500   1.518   4.282  1.0004 -1.8631 -0.1557
  720MOL0     H97179  11.620   1.607   4.396  0.9219  0.7550  0.2805
  720MOL0     H97180  10.545   1.665   4.388  2.1285 -0.6979  0.4578
  720MOL0     H97181  10.325   1.717   4.522 -1.4792 -0.0992  2.4212
  720MOL0     H97182  10.123   1.582   4.927 -0.6893 -1.4043  2.0904
  720MOL0     H97183   9.917   1.587   5.066  0.4109  2.6223 -0.3518
  720MOL0     H97184   8.508   2.185   5.976  0.5602 -0.0655  0.1675
  720MOL0     H97185   8.270   2.118   6.042  0.3773  2.9342 -0.6617
  720MOL0     H97186   8.037   1.747   6.206 -1.4685 -1.5440  1.6355
  720MOL0     H97187   7.835   1.640   6.261  2.8165 -0.2080 -2.1779
  720MOL0     H97188   7.471   1.891   6.305 -0.4476 -0.8710 -0.3034
  720MOL0     H97189   7.487   1.814   6.466  0.8741  0.1309  0.3416
  720MOL0     H97190   7.367   1.731   6.208  0.1264 -0.8779 -1.4769
  720MOL0     H97191   7.277   1.750   6.351 -0.2707  0.3386  0.2050
  720MOL0     H97192   7.436   1.560   6.450 -2.2161 -1.7584  0.4959
  720MOL0     H97193   7.455   1.513   6.284  0.0002  0.5224  0.2134
  720MOL0     H97194   7.278   1.408   6.436 -2.7560 -0.5573  1.2366
  720MOL0     H97195   7.199   1.561   6.465 -3.0696 -2.6096 -0.4813
  720MOL0     H97196   7.056   1.478   6.077 -0.1288 -0.7823  0.2806
  720MOL0     H97197   7.643   1.996   6.364 -0.1034 -1.1783  0.8483
  720MOL0     H97198   7.753   2.194   6.337 -0.3521 -0.7067 -1.3688
  720MOL0     H97199   7.920   2.201   6.397 -0.5524  1.0719  0.6451
  720MOL0     H97200   7.885   2.223   6.216 -3.1203 -0.6852 -1.6979
  721MOL0     O97201   2.623   1.141   7.571  0.1773  0.3259  0.0945
  721MOL0     C97202   2.592   1.038   7.632  0.3306  0.2483  0.5345
  721MOL0     O97203   2.680   0.927   7.653  0.1878  0.4259  0.2970
  721MOL0     C97204   2.811   0.953   7.670 -0.0606 -0.3980  0.0470
  721MOL0     C97205   2.903   0.845   7.650  1.0338 -0.6921  0.1192
  721MOL0     C97206   3.041   0.862   7.668  0.1435  0.4284 -1.4002
  721MOL0     C97207   3.093   0.981   7.721 -0.1795 -0.0047 -0.4373
  721MOL0     O97208   3.225   1.007   7.757  0.4017  0.2991  0.1396
  721MOL0     C97209   3.319   0.898   7.747 -0.5736 -0.3004  0.3074
  721MOL0     C97210   3.460   0.951   7.758 -0.2822 -0.1410 -0.1992
  721MOL0     C97211   3.563   0.839   7.784  1.0179 -0.3302 -0.0617
  721MOL0     C97212   3.699   0.901   7.777 -0.5276 -0.2218  0.3768
  721MOL0     C97213   3.806   0.802   7.830  0.7637 -0.9001  0.9197
  721MOL0     C97214   3.942   0.873   7.831  1.1813 -1.0038 -0.5343
  721MOL0     C97215   4.046   0.784   7.895  0.2036  0.7710  0.5194
  721MOL0     C97216   4.188   0.842   7.874 -0.0984 -0.4068 -1.5215
  721MOL0     N97217   4.301   0.758   7.929  0.5075 -0.7452 -0.1867
  721MOL0     C97218   4.309   0.699   8.054 -0.0987  0.3734  0.5274
  721MOL0     C97219   4.434   0.652   8.075 -0.3252 -0.2884 -0.0593
  721MOL0     C97220   4.476   0.598   8.209 -0.1785  0.0514 -0.8828
  721MOL0     C97221   4.561   0.677   8.300  0.0431  0.0523 -0.1229
  721MOL0     C97222   4.488   0.801   8.354  0.4422 -0.9097 -0.3949
  721MOL0     C97223   4.589   0.875   8.445 -0.4280  0.2822  0.1484
  721MOL0     O97224   4.545   1.002   8.488 -0.1139 -0.5738  0.0324
  721MOL0     C97225   4.615   1.044   8.599 -0.8294  0.4169  0.0046
  721MOL0     C97226   4.540   1.094   8.701 -0.3979 -0.2208 -0.9081
  721MOL0     C97227   4.607   1.157   8.809 -0.0150  0.0591  0.0235
  721MOL0     C97228   4.743   1.158   8.824  0.1700 -1.0865  0.3739
  721MOL0     C97229   4.810   1.240   8.929 -0.1851  0.1767  0.5188
  721MOL0     O97230   4.723   1.324   8.999  0.0445 -0.0236  0.0055
  721MOL0     C97231   4.770   1.391   9.107 -0.4791  0.3862 -0.5186
  721MOL0     C97232   4.829   1.516   9.096  0.1148 -0.5030  0.2699
  721MOL0     C97233   4.877   1.576   9.215  0.0728  0.2356 -0.2253
  721MOL0     C97234   4.882   1.505   9.342 -0.6223 -0.6560  1.1559
  721MOL0     O97235   4.946   1.545   9.462 -0.4148 -0.2795  0.1512
  721MOL0     C97236   5.052   1.642   9.453 -0.2943 -0.2277  0.1080
  721MOL0     C97237   5.105   1.661   9.599 -0.0287 -0.3259  0.2441
  721MOL0     C97238   5.232   1.743   9.600 -0.2504 -0.6700 -0.0071
  721MOL0     C97239   5.287   1.780   9.748  0.2328 -0.0719  0.1965
  721MOL0     C97240   5.398   1.887   9.745 -0.2764  0.2441  0.3628
  721MOL0     C97241   5.518   1.831   9.665 -0.8513 -0.8303 -0.5225
  721MOL0     C97242   5.651   1.919   9.678 -0.1404  0.2342  0.1478
  721MOL0     C97243   5.750   1.899   9.561 -0.3980 -0.1145 -0.2936
  721MOL0    Cl97244   5.875   2.015   9.587 -0.4262 -0.1703 -0.1905
  721MOL0     C97245   4.824   1.384   9.344  0.4501 -0.0625 -0.0224
  721MOL0     C97246   4.767   1.327   9.230 -0.3699  0.0881  0.1355
  721MOL0     O97247   4.933   1.239   8.943 -0.4183 -0.4125  0.2988
  721MOL0     C97248   4.819   1.087   8.726  0.6359  0.8264 -0.0602
  721MOL0     C97249   4.755   1.022   8.617  1.2019 -0.4611  0.0879
  721MOL0     N97250   4.508   0.682   7.957  0.0823  0.2374 -0.0647
  721MOL0     N97251   4.423   0.724   7.875 -0.6820 -0.8562 -0.0445
  721MOL0     C97252   3.005   1.088   7.740 -0.4980 -0.4215 -1.3354
  721MOL0     C97253   2.871   1.071   7.718 -0.5530  0.1114  0.1741
  721MOL0     C97254   2.449   1.018   7.674 -0.7903  0.0246  0.2237
  721MOL0     C97255   2.409   0.887   7.691  0.2919 -0.5956  0.0930
  721MOL0     C97256   2.274   0.865   7.726 -0.0888  0.5659  0.0431
  721MOL0     C97257   2.188   0.963   7.767 -0.0253 -0.1298 -0.1578
  721MOL0     O97258   2.069   0.915   7.807  0.4930  0.5319  0.3118
  721MOL0     C97259   1.983   0.993   7.891 -0.1446 -0.0889 -0.1140
  721MOL0     C97260   1.845   0.942   7.900  0.2854 -0.6147 -0.5180
  721MOL0     C97261   1.859   0.797   7.938 -0.1432 -0.1031 -0.2201
  721MOL0     C97262   1.733   0.740   8.003 -0.0959  0.2786  0.1686
  721MOL0     C97263   1.625   0.760   7.912 -0.3322 -0.1175  0.0124
  721MOL0     C97264   1.530   0.767   7.839  0.1519 -0.1282 -0.3059
  721MOL0     C97265   2.226   1.098   7.747  0.2694 -0.0841  0.1022
  721MOL0     C97266   2.352   1.118   7.690  0.5343 -0.0824 -0.2507
  721MOL0     C97267   2.389   1.269   7.666  0.1122  0.5754 -0.6127
  721MOL0     H97268   2.870   0.747   7.616  1.9425 -1.2451  0.7672
  721MOL0     H97269   3.096   0.772   7.642 -0.4699 -0.0485 -1.0760
  721MOL0     H97270   3.309   0.837   7.838  3.8425  1.5443  2.3386
  721MOL0     H97271   3.299   0.833   7.662 -0.6684 -2.8646  2.1784
  721MOL0     H97272   3.473   1.027   7.836  0.0736 -0.6791  0.2769
  721MOL0     H97273   3.479   1.002   7.663  0.6059  2.9867  1.4993
  721MOL0     H97274   3.550   0.760   7.709 -1.0248 -1.2553  1.1699
  721MOL0     H97275   3.548   0.800   7.885 -1.9106  1.1879  0.2008
  721MOL0     H97276   3.725   0.942   7.679  2.8943 -0.5432  1.0105
  721MOL0     H97277   3.708   0.986   7.845  1.4193  1.0002 -1.2900
  721MOL0     H97278   3.778   0.771   7.931  2.3927 -2.2856  0.9944
  721MOL0     H97279   3.804   0.711   7.770 -2.3619 -0.8360  0.7480
  721MOL0     H97280   3.961   0.891   7.725  2.4736  4.3152  0.3289
  721MOL0     H97281   3.937   0.965   7.890  0.8494  1.0387 -3.5767
  721MOL0     H97282   4.037   0.684   7.850 -1.1071  0.2803  1.8012
  721MOL0     H97283   4.039   0.778   8.004  3.3014  0.1116  0.7682
  721MOL0     H97284   4.214   0.853   7.768 -0.1836  1.4223 -1.3865
  721MOL0     H97285   4.181   0.944   7.912 -0.2398 -1.2247  0.8387
  721MOL0     H97286   4.229   0.695   8.127 -1.8938  1.3648 -1.3066
  721MOL0     H97287   4.386   0.561   8.259  0.2731  0.2140  0.0604
  721MOL0     H97288   4.529   0.510   8.171 -1.8729 -1.6868  0.5670
  721MOL0     H97289   4.582   0.600   8.375 -0.2319  1.2486  1.2162
  721MOL0     H97290   4.654   0.709   8.253  0.4607  1.1836  1.3939
  721MOL0     H97291   4.398   0.782   8.413 -1.9393  0.5230 -3.2944
  721MOL0     H97292   4.452   0.869   8.276 -2.5256 -0.1152  1.5027
  721MOL0     H97293   4.680   0.897   8.388 -0.6506 -2.7436 -1.5745
  721MOL0     H97294   4.623   0.809   8.526 -0.4776 -0.0697 -0.1189
  721MOL0     H97295   4.432   1.107   8.706 -0.4051 -0.6184  0.2478
  721MOL0     H97296   4.539   1.199   8.883  0.5371 -0.2684  0.7267
  721MOL0     H97297   4.825   1.572   9.003 -2.7967  1.9437  1.7054
  721MOL0     H97298   4.918   1.675   9.208 -0.8391  0.5796 -1.0679
  721MOL0     H97299   5.125   1.607   9.380  1.1732 -2.5308  2.4942
  721MOL0     H97300   5.028   1.745   9.423  1.1765 -1.0352 -4.5206
  721MOL0     H97301   5.029   1.702   9.665 -0.1272 -0.9918  0.5439
  721MOL0     H97302   5.133   1.559   9.625  0.8670 -0.7170 -1.9991
  721MOL0     H97303   5.312   1.690   9.547  1.1179  1.5544 -0.3029
  721MOL0     H97304   5.206   1.843   9.563 -1.5875 -0.8218  0.4887
  721MOL0     H97305   5.317   1.685   9.793 -2.3134 -1.9240 -1.7058
  721MOL0     H97306   5.201   1.803   9.812  2.8452  1.4010  3.5234
  721MOL0     H97307   5.431   1.917   9.845 -0.8261  1.4078  0.2199
  721MOL0     H97308   5.370   1.980   9.694  1.3250  0.1577 -0.7545
  721MOL0     H97309   5.557   1.737   9.706 -0.5461  0.2397  1.7772
  721MOL0     H97310   5.496   1.822   9.558  0.2769  0.3645 -0.8797
  721MOL0     H97311   5.715   1.904   9.765 -1.5201  2.5357  1.6725
  721MOL0     H97312   5.617   2.023   9.680 -0.9301 -0.0156 -0.0186
  721MOL0     H97313   5.788   1.796   9.558 -1.6562 -0.7788  2.7780
  721MOL0     H97314   5.708   1.936   9.467 -0.1730  1.4749  0.1996
  721MOL0     H97315   4.810   1.345   9.444 -3.7017 -0.8380 -0.7375
  721MOL0     H97316   4.725   1.227   9.230 -0.7513  0.1590 -2.5840
  721MOL0     H97317   4.928   1.084   8.725  0.6951 -3.3619 -1.3847
  721MOL0     H97318   4.814   0.967   8.544 -0.8529 -0.6469 -1.5444
  721MOL0     H97319   3.041   1.186   7.767 -0.4573 -0.3097 -1.7848
  721MOL0     H97320   2.808   1.155   7.746  0.8573  1.3562 -0.2245
  721MOL0     H97321   2.465   0.797   7.665 -0.7727 -1.3125  0.2105
  721MOL0     H97322   2.232   0.765   7.731  3.3930 -1.3784 -3.7649
  721MOL0     H97323   1.986   1.098   7.861  2.0884  0.5395  1.9842
  721MOL0     H97324   2.020   0.992   7.994 -1.9609  0.8222  0.5836
  721MOL0     H97325   1.795   0.961   7.805  0.7617  0.7928 -0.5067
  721MOL0     H97326   1.792   1.003   7.974 -1.6664 -3.4831  0.6197
  721MOL0     H97327   1.934   0.780   8.017 -0.7502  1.2398  0.6710
  721MOL0     H97328   1.884   0.739   7.848  2.5631  4.0105 -2.4584
  721MOL0     H97329   1.747   0.635   8.031 -1.2028  0.4469  1.4452
  721MOL0     H97330   1.707   0.795   8.093 -2.3700 -0.7655  0.2236
  721MOL0     H97331   1.444   0.760   7.775 -2.5086  3.5547  2.4162
  721MOL0     H97332   2.164   1.184   7.770  2.6319  1.4654  1.1077
  721MOL0     H97333   2.304   1.336   7.677  1.0990  1.8143 -0.3456
  721MOL0     H97334   2.464   1.299   7.739 -0.7343  1.3001 -0.0288
  721MOL0     H97335   2.421   1.285   7.562 -2.9458  1.5975 -1.4815
  722MOL0     O97336   3.972   3.333   5.222 -0.6297 -0.7930  0.6892
  722MOL0     C97337   4.047   3.315   5.128 -0.0190 -0.3823  0.7591
  722MOL0     O97338   4.179   3.275   5.119 -0.1833 -0.3872 -0.6512
  722MOL0     C97339   4.254   3.253   5.237 -0.3862  0.2644 -0.0716
  722MOL0     C97340   4.204   3.214   5.365  0.2172  0.3816 -0.2050
  722MOL0     C97341   4.298   3.188   5.469  0.2776  0.1978 -0.1087
  722MOL0     C97342   4.428   3.219   5.458  0.0046 -0.2580 -0.9411
  722MOL0     O97343   4.508   3.192   5.575  0.0193  0.5276  0.5059
  722MOL0     C97344   4.644   3.200   5.566  0.2009  0.0024  0.1397
  722MOL0     C97345   4.695   3.134   5.687 -0.1182  0.2257  0.3520
  722MOL0     C97346   4.846   3.119   5.682  2.1286  0.3389 -0.0057
  722MOL0     C97347   4.913   3.106   5.817 -0.3982 -0.2806  0.7190
  722MOL0     C97348   5.061   3.055   5.786 -0.1542  0.5527 -0.1348
  722MOL0     C97349   5.145   3.150   5.700 -0.5855  0.5328  0.0757
  722MOL0     C97350   5.295   3.128   5.732  0.0224  0.0226  0.4704
  722MOL0     C97351   5.336   2.979   5.735 -0.0495 -0.1608 -0.0837
  722MOL0     N97352   5.473   2.952   5.779 -0.1590 -0.0354 -0.6998
  722MOL0     C97353   5.586   3.038   5.757 -0.7010  0.4596 -0.9413
  722MOL0     C97354   5.677   2.980   5.839 -0.0730 -0.0699 -0.9598
  722MOL0     C97355   5.813   3.042   5.860 -0.3009 -1.0271  0.6174
  722MOL0     C97356   5.907   2.973   5.758  0.3440  0.0454  0.8749
  722MOL0     C97357   5.972   3.086   5.681  0.1679 -0.2067  0.3368
  722MOL0     C97358   6.109   3.047   5.646  0.0973  0.7485  0.7706
  722MOL0     O97359   6.191   3.033   5.771  0.3869  0.0203  0.2172
  722MOL0     C97360   6.326   3.061   5.772 -1.2155 -0.1140 -0.2467
  722MOL0     C97361   6.413   3.033   5.879 -0.1637  1.3054  0.0790
  722MOL0     C97362   6.548   3.067   5.888 -0.2201 -0.0915  0.4130
  722MOL0     C97363   6.621   3.108   5.773  0.0755  0.2847 -0.3178
  722MOL0     C97364   6.765   3.143   5.779 -0.5894  0.7756 -0.1944
  722MOL0     O97365   6.845   3.101   5.884 -0.2709  0.2313  0.9159
  722MOL0     C97366   6.981   3.143   5.892  0.1475  0.7246  0.2666
  722MOL0     C97367   7.065   3.151   5.786 -0.7500 -0.5608  0.7140
  722MOL0     C97368   7.200   3.179   5.804 -0.4420  0.2742 -0.2107
  722MOL0     C97369   7.251   3.206   5.929 -0.0642 -0.2132  0.8835
  722MOL0     O97370   7.383   3.239   5.928  0.7274 -0.5723 -0.3864
  722MOL0     C97371   7.455   3.248   6.052 -0.5681 -0.1166  0.4380
  722MOL0     C97372   7.606   3.232   6.020 -0.4219  0.8955  0.3328
  722MOL0     C97373   7.640   3.086   5.995 -0.5815  0.1817  0.5633
  722MOL0     C97374   7.795   3.061   6.001 -0.6136 -0.9511  1.2465
  722MOL0     C97375   7.832   2.930   5.929  0.3362 -0.3242 -0.2937
  722MOL0     C97376   7.984   2.903   5.933  0.2205  0.3241  0.1554
  722MOL0     C97377   8.016   2.788   5.836  0.2823 -0.2304 -0.2594
  722MOL0     C97378   8.162   2.756   5.837  0.2551  0.0996 -0.1633
  722MOL0    Cl97379   8.254   2.897   5.777  0.0961  0.3656 -0.1546
  722MOL0     C97380   7.168   3.194   6.039  0.4286 -0.8216  0.1977
  722MOL0     C97381   7.031   3.156   6.019  0.7068 -0.7530 -0.5280
  722MOL0     O97382   6.810   3.190   5.672 -0.3799 -0.6315  0.1954
  722MOL0     C97383   6.544   3.129   5.659 -0.7225 -0.7703 -0.0307
  722MOL0     C97384   6.402   3.109   5.659  0.3959  0.6298  0.1329
  722MOL0     N97385   5.629   2.866   5.892 -0.2203 -0.2498 -0.5637
  722MOL0     N97386   5.507   2.855   5.856 -0.4052  0.2775  0.1178
  722MOL0     C97387   4.481   3.263   5.341  0.1716 -0.5047  0.1459
  722MOL0     C97388   4.392   3.275   5.232 -0.2878  0.3034 -0.2000
  722MOL0     C97389   3.996   3.346   4.999  0.7764 -0.5059  0.9863
  722MOL0     C97390   4.080   3.391   4.898  0.6461 -1.0479 -0.1027
  722MOL0     C97391   4.032   3.446   4.782 -0.3781  0.3167  0.1265
  722MOL0     C97392   3.896   3.439   4.751 -0.0145  0.4145 -0.4606
  722MOL0     O97393   3.851   3.485   4.633 -0.1146  0.5354  0.2994
  722MOL0     C97394   3.855   3.633   4.621  0.0107  0.5341 -0.6056
  722MOL0     C97395   3.891   3.675   4.476 -0.4744  1.0352  0.1557
  722MOL0     C97396   3.792   3.599   4.377  0.5996  0.2312  0.9746
  722MOL0     C97397   3.777   3.669   4.245 -0.9953 -0.6328  0.5710
  722MOL0     C97398   3.703   3.787   4.252  0.1182  0.4029 -0.4263
  722MOL0     C97399   3.633   3.887   4.250 -1.2480 -0.0636 -0.0260
  722MOL0     C97400   3.811   3.384   4.839 -0.6660 -0.2156 -0.2457
  722MOL0     C97401   3.857   3.341   4.962 -0.2377  0.1400 -0.8736
  722MOL0     C97402   3.750   3.269   5.048  0.1864 -0.3141  0.0989
  722MOL0     H97403   4.098   3.189   5.374 -0.0254  0.8957 -1.3636
  722MOL0     H97404   4.266   3.156   5.568 -0.6024  2.0630  0.2548
  722MOL0     H97405   4.677   3.150   5.475 -1.0088 -0.7254  0.0667
  722MOL0     H97406   4.668   3.306   5.563 -0.4754  0.1399 -0.7390
  722MOL0     H97407   4.646   3.037   5.694 -0.7566  0.6247  1.9264
  722MOL0     H97408   4.674   3.198   5.774  4.0620  2.6883 -0.1579
  722MOL0     H97409   4.887   3.198   5.617  3.6531 -2.0702 -2.1631
  722MOL0     H97410   4.855   3.034   5.614 -0.0622 -0.5514  0.7338
  722MOL0     H97411   4.909   3.202   5.868 -1.1255  0.3269 -0.4457
  722MOL0     H97412   4.867   3.026   5.876 -0.2421 -1.2983 -0.4753
  722MOL0     H97413   5.107   3.047   5.885 -1.6940  0.1558  0.5683
  722MOL0     H97414   5.056   2.953   5.748 -1.1245  0.5845 -0.1133
  722MOL0     H97415   5.134   3.141   5.592  0.0860 -0.2904  0.0617
  722MOL0     H97416   5.118   3.250   5.735  0.4481 -0.0455  2.8020
  722MOL0     H97417   5.329   3.178   5.823 -1.4928 -0.4895  1.3413
  722MOL0     H97418   5.355   3.165   5.648  1.7129 -1.3105  1.0328
  722MOL0     H97419   5.275   2.930   5.812  0.7970  0.3370  0.9430
  722MOL0     H97420   5.319   2.933   5.637 -1.8831 -1.3843  0.7522
  722MOL0     H97421   5.582   3.129   5.699 -3.0637  0.2768 -1.1572
  722MOL0     H97422   5.818   3.151   5.859  2.1748 -1.0893 -0.5286
  722MOL0     H97423   5.856   3.012   5.956  1.0698  2.9294  1.4312
  722MOL0     H97424   5.975   2.914   5.819  1.0199 -1.7764 -1.4631
  722MOL0     H97425   5.853   2.907   5.689 -1.1579  2.7566 -0.7847
  722MOL0     H97426   5.973   3.184   5.731 -2.3723  1.1566 -2.0313
  722MOL0     H97427   5.911   3.105   5.592  0.8976  2.2187  0.2733
  722MOL0     H97428   6.149   3.115   5.570  2.3199 -0.8713  0.4109
  722MOL0     H97429   6.119   2.950   5.596  1.8015  0.9650  0.6249
  722MOL0     H97430   6.370   2.989   5.968  0.0572  1.6645  0.3677
  722MOL0     H97431   6.599   3.045   5.981  0.4997  1.7402  0.4892
  722MOL0     H97432   7.036   3.114   5.688 -0.5461  2.2486 -0.5034
  722MOL0     H97433   7.269   3.189   5.721  2.9559  1.4476  2.5013
  722MOL0     H97434   7.451   3.345   6.102  0.9036 -1.0069  2.4184
  722MOL0     H97435   7.426   3.172   6.125 -0.8914  1.7468  2.3538
  722MOL0     H97436   7.637   3.288   5.931 -0.2706  0.3030  0.0121
  722MOL0     H97437   7.665   3.269   6.105  0.5112 -1.7901  0.9419
  722MOL0     H97438   7.601   3.023   6.076 -0.8895 -0.9400 -0.4334
  722MOL0     H97439   7.591   3.046   5.906  0.7999 -1.8953  0.6641
  722MOL0     H97440   7.825   3.081   6.104  0.8110  1.9486  0.3954
  722MOL0     H97441   7.843   3.137   5.938  0.6771 -0.1120  3.1700
  722MOL0     H97442   7.798   2.946   5.826  1.3040 -1.1678 -0.7645
  722MOL0     H97443   7.773   2.852   5.978  0.9335  1.1627  3.0320
  722MOL0     H97444   8.045   2.994   5.928 -0.9559  1.1242  0.0424
  722MOL0     H97445   8.003   2.868   6.035 -1.5370  1.0133  0.7486
  722MOL0     H97446   7.974   2.799   5.735  0.5182  0.7623 -0.2588
  722MOL0     H97447   7.965   2.697   5.871  1.0759 -1.2269 -1.5567
  722MOL0     H97448   8.205   2.731   5.934  2.7196 -2.1317 -1.6657
  722MOL0     H97449   8.177   2.662   5.782 -3.0584 -2.7963  3.3023
  722MOL0     H97450   7.195   3.222   6.140  1.1907  0.3924 -0.3124
  722MOL0     H97451   6.953   3.161   6.094 -0.1642 -1.3154 -1.3645
  722MOL0     H97452   6.591   3.161   5.567  2.5203  0.0495  1.7675
  722MOL0     H97453   6.357   3.120   5.561  1.1836  2.3426 -0.0666
  722MOL0     H97454   4.585   3.285   5.321 -0.3087 -0.6626 -3.0824
  722MOL0     H97455   4.436   3.318   5.142  0.9263 -1.4125 -0.4739
  722MOL0     H97456   4.186   3.404   4.920  0.3637 -0.0583  0.7640
  722MOL0     H97457   4.097   3.490   4.707  0.8315 -0.7937  0.4872
  722MOL0     H97458   3.907   3.686   4.701 -1.8027 -3.2327  3.4329
  722MOL0     H97459   3.754   3.669   4.645 -0.0922  0.0334 -0.2643
  722MOL0     H97460   3.990   3.635   4.452 -1.2488  0.0778 -1.6322
  722MOL0     H97461   3.886   3.784   4.470  1.3296  1.1603  0.4097
  722MOL0     H97462   3.699   3.571   4.428  0.3603 -2.3529 -0.7233
  722MOL0     H97463   3.838   3.502   4.358  1.2369  0.7439 -0.2214
  722MOL0     H97464   3.875   3.704   4.212 -1.1057  0.7468  1.6289
  722MOL0     H97465   3.730   3.613   4.164  2.0102  1.1985 -2.7046
  722MOL0     H97466   3.580   3.980   4.248 -2.7820 -0.8982 -0.2350
  722MOL0     H97467   3.709   3.382   4.803 -0.3104  1.5635 -1.4619
  722MOL0     H97468   3.708   3.341   5.118  0.5905  0.3499 -0.3341
  722MOL0     H97469   3.667   3.227   4.991  1.3324 -2.1648 -0.3084
  722MOL0     H97470   3.792   3.182   5.100 -0.1374 -1.7410 -1.9151
  723MOL0     O97471   7.654   9.130   8.224 -1.0029 -0.3081 -0.5832
  723MOL0     C97472   7.552   9.180   8.266 -0.8386 -0.6116 -0.1853
  723MOL0     O97473   7.540   9.318   8.292  0.3363  0.8742  0.6552
  723MOL0     C97474   7.623   9.412   8.226  0.0737  0.2302 -0.1386
  723MOL0     C97475   7.662   9.522   8.298  0.1275  0.3612 -0.3952
  723MOL0     C97476   7.757   9.612   8.255 -0.0827 -0.3410  0.1022
  723MOL0     C97477   7.818   9.586   8.127 -0.5573 -0.3904 -0.7014
  723MOL0     O97478   7.911   9.682   8.089  0.2066  0.3544 -0.3967
  723MOL0     C97479   7.968   9.662   7.954 -0.6898 -0.0659  0.0590
  723MOL0     C97480   8.048   9.780   7.920 -0.6205 -0.6582 -0.2164
  723MOL0     C97481   8.094   9.781   7.773 -0.4268  0.6288 -0.5713
  723MOL0     C97482   8.190   9.680   7.748  0.5134  0.4526  0.2066
  723MOL0     C97483   8.264   9.702   7.610  0.4972  0.6659  0.0229
  723MOL0     C97484   8.379   9.601   7.588  0.5894  0.5449  0.3621
  723MOL0     C97485   8.419   9.594   7.438  0.1634  0.4934  0.4603
  723MOL0     C97486   8.312   9.566   7.337  0.1508  0.0332  0.5418
  723MOL0     N97487   8.238   9.440   7.356  0.1730 -0.2029 -0.9491
  723MOL0     C97488   8.139   9.407   7.433 -0.1192  0.4419 -0.1585
  723MOL0     C97489   8.115   9.275   7.411  0.0620  0.6537 -0.3871
  723MOL0     C97490   7.994   9.206   7.478  0.6289  0.2835 -0.1576
  723MOL0     C97491   7.859   9.198   7.415  0.4126 -0.2595 -0.1963
  723MOL0     C97492   7.865   9.113   7.292  0.0828  0.3659  0.8325
  723MOL0     C97493   7.720   9.064   7.252 -0.3019  0.4296  0.9469
  723MOL0     O97494   7.660   9.002   7.370  0.0300  0.2048 -0.1777
  723MOL0     C97495   7.521   9.005   7.368 -0.2999 -0.0912 -0.0237
  723MOL0     C97496   7.455   8.963   7.482 -0.6176  0.4836  0.5787
  723MOL0     C97497   7.313   8.960   7.492  0.3173  0.0651 -0.3557
  723MOL0     C97498   7.229   9.002   7.388  0.1716 -0.5978 -0.2533
  723MOL0     C97499   7.077   8.993   7.395  0.1152 -0.4454  0.4256
  723MOL0     O97500   7.023   8.965   7.521 -0.0158  0.1689 -0.7421
  723MOL0     C97501   6.887   8.961   7.525  0.9883  0.7416  0.5771
  723MOL0     C97502   6.800   9.074   7.498 -0.6497  0.3547  0.6263
  723MOL0     C97503   6.660   9.067   7.509 -0.5866  0.3444  0.0430
  723MOL0     C97504   6.596   8.947   7.540  0.6515  0.6680 -0.2705
  723MOL0     O97505   6.461   8.955   7.557  0.6439  0.1231  0.0305
  723MOL0     C97506   6.379   8.838   7.564  0.8234 -0.0634 -0.5795
  723MOL0     C97507   6.232   8.861   7.561 -0.0396 -0.3283  0.4021
  723MOL0     C97508   6.179   8.936   7.434  0.0217  0.1209 -0.9112
  723MOL0     C97509   6.021   8.943   7.427  0.1026  0.0020  0.8149
  723MOL0     C97510   5.968   8.904   7.290 -0.3165  0.1130  0.0091
  723MOL0     C97511   5.818   8.921   7.308  0.1755 -0.5085  0.1897
  723MOL0     C97512   5.741   8.910   7.168  0.7080  0.0409  0.0341
  723MOL0     C97513   5.594   8.904   7.199  0.0671  0.0704  0.0821
  723MOL0    Cl97514   5.508   8.872   7.037 -0.0890 -0.7096 -0.2128
  723MOL0     C97515   6.671   8.833   7.572 -1.1510  0.4003  0.2499
  723MOL0     C97516   6.814   8.841   7.559  0.3193 -0.8926 -0.2887
  723MOL0     O97517   7.010   9.023   7.291 -0.4736 -0.4581 -0.6757
  723MOL0     C97518   7.296   9.036   7.268  0.2434 -1.0870  0.3215
  723MOL0     C97519   7.432   9.044   7.264  0.1003 -0.1114 -0.0834
  723MOL0     N97520   8.191   9.226   7.308  0.1771 -0.2896 -0.4807
  723MOL0     N97521   8.266   9.329   7.275  0.5333 -0.8432  0.6412
  723MOL0     C97522   7.777   9.477   8.044  0.3604 -0.0818 -0.4822
  723MOL0     C97523   7.677   9.390   8.095  0.3564 -0.3468  0.1583
  723MOL0     C97524   7.441   9.090   8.308  0.5330  0.0013 -0.5711
  723MOL0     C97525   7.454   8.950   8.309 -0.3952 -0.6602  0.0767
  723MOL0     C97526   7.357   8.864   8.353 -0.8642  0.2403  1.0224
  723MOL0     C97527   7.227   8.901   8.388  0.0708  0.1396 -0.0457
  723MOL0     O97528   7.143   8.804   8.432  0.6281  0.2893 -0.2788
  723MOL0     C97529   7.003   8.838   8.435 -0.8856 -0.1014 -1.1552
  723MOL0     C97530   6.946   8.854   8.293 -0.0565 -0.2186 -0.3054
  723MOL0     C97531   6.802   8.883   8.296  0.0700 -0.1957  0.5123
  723MOL0     C97532   6.756   9.010   8.362 -0.7357  0.2120 -0.5277
  723MOL0     C97533   6.831   9.125   8.307  0.1022  0.0927 -0.1004
  723MOL0     C97534   6.898   9.219   8.275  0.8228 -0.0121  0.0072
  723MOL0     C97535   7.199   9.041   8.376 -0.5146 -0.5179 -0.3010
  723MOL0     C97536   7.307   9.130   8.345  1.2527 -0.8071  1.1619
  723MOL0     C97537   7.263   9.271   8.355 -0.4940 -0.2065 -0.3261
  723MOL0     H97538   7.614   9.533   8.395 -1.8590  0.0125 -1.2742
  723MOL0     H97539   7.773   9.702   8.313 -0.8132  0.0211 -0.2444
  723MOL0     H97540   8.021   9.566   7.956 -1.0718 -0.3203 -1.1583
  723MOL0     H97541   7.883   9.655   7.886 -2.0310 -0.8386  1.7391
  723MOL0     H97542   8.136   9.785   7.984 -2.6978  0.1249  2.8004
  723MOL0     H97543   7.991   9.874   7.924 -0.6089 -0.3776 -3.3962
  723MOL0     H97544   8.140   9.877   7.748  2.1490 -0.9054 -2.1362
  723MOL0     H97545   8.010   9.774   7.703 -1.6283  1.0917  0.7812
  723MOL0     H97546   8.258   9.678   7.834 -0.5034  0.9024  1.0324
  723MOL0     H97547   8.138   9.584   7.756  2.4790 -0.5588  2.1348
  723MOL0     H97548   8.192   9.691   7.528  0.9507  0.1987 -0.3133
  723MOL0     H97549   8.306   9.803   7.610  1.0935  0.4926  2.4768
  723MOL0     H97550   8.464   9.626   7.652  1.3389 -1.0619  0.0221
  723MOL0     H97551   8.346   9.501   7.617  1.4945 -0.1012 -0.7663
  723MOL0     H97552   8.490   9.512   7.424 -0.3803 -0.2181  1.6489
  723MOL0     H97553   8.474   9.687   7.421 -1.1761  1.1232 -0.5982
  723MOL0     H97554   8.235   9.644   7.327  1.3666  1.1222 -0.7753
  723MOL0     H97555   8.358   9.554   7.239  0.7605  1.2927  0.6581
  723MOL0     H97556   8.089   9.475   7.500 -0.1506  0.1804  0.0869
  723MOL0     H97557   8.025   9.106   7.510 -1.8265  0.0991  2.0293
  723MOL0     H97558   7.972   9.266   7.567  0.1123 -0.9425  0.5640
  723MOL0     H97559   7.801   9.158   7.498  0.5721  1.2720  0.6797
  723MOL0     H97560   7.833   9.301   7.387 -0.3332 -0.3321  0.2250
  723MOL0     H97561   7.926   9.024   7.310  1.2102  0.9873  0.1740
  723MOL0     H97562   7.914   9.166   7.210  1.1252  0.5164  1.5244
  723MOL0     H97563   7.717   9.003   7.161 -0.0637  1.7174  0.0581
  723MOL0     H97564   7.671   9.156   7.218  1.6243  2.3119  2.9271
  723MOL0     H97565   7.518   8.930   7.563 -0.2225 -1.2232 -0.3723
  723MOL0     H97566   7.277   8.918   7.586 -0.6492  0.4847 -0.5306
  723MOL0     H97567   6.847   9.170   7.482 -0.4545  0.8265  3.4285
  723MOL0     H97568   6.597   9.154   7.496 -0.2987  1.0725  2.8879
  723MOL0     H97569   6.400   8.766   7.484  1.9081 -3.8241  2.7301
  723MOL0     H97570   6.390   8.800   7.666 -0.9927  2.3023  0.5932
  723MOL0     H97571   6.185   8.765   7.582  1.3832 -0.9115  1.0521
  723MOL0     H97572   6.211   8.919   7.651  0.6333  0.5081  0.0318
  723MOL0     H97573   6.207   9.042   7.441  0.9346 -0.2283  1.6636
  723MOL0     H97574   6.223   8.901   7.340 -1.3925  1.3991 -2.1132
  723MOL0     H97575   5.990   9.046   7.446 -2.2578 -1.0303  3.2211
  723MOL0     H97576   5.976   8.876   7.501 -0.1467  0.1177  0.7693
  723MOL0     H97577   6.002   8.803   7.269  0.9031  0.1189  1.7966
  723MOL0     H97578   6.005   8.981   7.221  0.0988  0.9548  1.1482
  723MOL0     H97579   5.769   8.845   7.370 -0.8201 -0.3316 -0.3557
  723MOL0     H97580   5.789   9.016   7.354  0.3095 -0.8595  1.0116
  723MOL0     H97581   5.759   8.819   7.110 -0.9686  0.5134 -1.3044
  723MOL0     H97582   5.753   9.003   7.111  0.1282  1.0954  1.5681
  723MOL0     H97583   5.565   8.818   7.260 -0.5843  1.3188  1.5966
  723MOL0     H97584   5.553   8.998   7.237  1.3650  0.1476  1.3499
  723MOL0     H97585   6.625   8.737   7.592 -0.0789 -0.2385 -0.2257
  723MOL0     H97586   6.869   8.755   7.596 -0.2749  0.2093  3.5844
  723MOL0     H97587   7.234   9.066   7.184 -0.0742 -1.2497  0.4945
  723MOL0     H97588   7.470   9.069   7.166  3.2989  2.6089  1.5984
  723MOL0     H97589   7.828   9.456   7.950  1.5699  1.2385 -0.1661
  723MOL0     H97590   7.655   9.300   8.038 -0.2459  0.5348 -1.0600
  723MOL0     H97591   7.549   8.902   8.284  0.1918 -0.2180  1.3562
  723MOL0     H97592   7.378   8.758   8.352  0.3893  0.4572 -0.9009
  723MOL0     H97593   6.989   8.929   8.493  0.4478 -0.1470 -0.7316
  723MOL0     H97594   6.931   8.766   8.474 -2.1867  1.0894 -1.2504
  723MOL0     H97595   6.981   8.763   8.244  0.6927 -0.1551  0.0822
  723MOL0     H97596   6.992   8.943   8.248  0.2492 -0.3567 -0.2706
  723MOL0     H97597   6.749   8.800   8.343 -0.2244  1.2936  2.9914
  723MOL0     H97598   6.768   8.904   8.195 -1.6073 -2.2076  0.6075
  723MOL0     H97599   6.653   9.024   8.326 -2.0236  0.2801  2.8091
  723MOL0     H97600   6.758   9.005   8.471 -1.7341 -3.3129 -0.5513
  723MOL0     H97601   6.942   9.315   8.262  1.4624 -0.2724  0.2188
  723MOL0     H97602   7.104   9.084   8.406 -0.1428 -0.1585  0.3898
  723MOL0     H97603   7.268   9.330   8.262 -1.0345 -1.3535 -1.1063
  723MOL0     H97604   7.157   9.280   8.379 -0.3198  2.2744 -0.2411
  723MOL0     H97605   7.319   9.317   8.437  2.5877 -0.6900 -1.9977
  724MOL0     O97606   8.733   7.694   5.300 -0.1658  0.6409  0.2411
  724MOL0     C97607   8.781   7.630   5.204 -0.3207  0.4160 -0.5376
  724MOL0     O97608   8.728   7.640   5.075 -0.5921  0.1062  0.7854
  724MOL0     C97609   8.616   7.715   5.042 -0.2069  0.0758 -0.2867
  724MOL0     C97610   8.620   7.857   5.049 -0.4171  0.1822 -0.8827
  724MOL0     C97611   8.515   7.939   5.006 -0.4536  0.9071 -0.2146
  724MOL0     C97612   8.402   7.870   4.966 -0.3782 -0.2800 -0.1923
  724MOL0     O97613   8.300   7.943   4.925 -0.2201  0.0783  0.3001
  724MOL0     C97614   8.251   8.041   5.024  0.9679 -0.0401  0.2073
  724MOL0     C97615   8.099   8.047   4.999 -0.9225  0.0521  0.2144
  724MOL0     C97616   8.030   7.916   5.056 -0.3621  0.4349 -0.3232
  724MOL0     C97617   7.885   7.892   5.015 -0.7194 -0.2341 -0.5965
  724MOL0     C97618   7.793   7.806   5.099  0.1346  0.2084  0.0230
  724MOL0     C97619   7.755   7.873   5.225 -0.2542  0.3734 -0.2050
  724MOL0     C97620   7.655   7.769   5.304 -0.8236 -0.2385  0.1886
  724MOL0     C97621   7.608   7.850   5.430 -0.7884  0.6416 -0.1832
  724MOL0     N97622   7.717   7.864   5.533  0.2821  0.2988  0.6626
  724MOL0     C97623   7.714   7.977   5.614  0.5703  0.1718  0.0385
  724MOL0     C97624   7.826   7.966   5.690  0.2623 -0.8867  0.6596
  724MOL0     C97625   7.891   8.061   5.792  0.5342  0.0833 -0.2450
  724MOL0     C97626   8.020   8.110   5.730 -0.4729 -0.2356 -0.4469
  724MOL0     C97627   8.118   8.176   5.839  0.4006 -0.4278 -0.4233
  724MOL0     C97628   8.238   8.241   5.772  0.2455  0.6912  0.5270
  724MOL0     O97629   8.328   8.289   5.874 -0.1782  0.2348  0.3098
  724MOL0     C97630   8.446   8.345   5.840  0.4526  0.6845  0.0425
  724MOL0     C97631   8.495   8.356   5.713  0.3533  0.2009  0.1766
  724MOL0     C97632   8.616   8.427   5.685  0.5592  0.1899  1.0583
  724MOL0     C97633   8.684   8.491   5.787 -0.3188  0.2558 -0.0817
  724MOL0     C97634   8.820   8.547   5.760 -0.7099  0.2518  0.0889
  724MOL0     O97635   8.847   8.599   5.633  0.1739  0.1550  0.5954
  724MOL0     C97636   8.980   8.639   5.606 -0.8118  0.3178 -0.2591
  724MOL0     C97637   9.007   8.765   5.570 -0.3781  0.3069 -0.5962
  724MOL0     C97638   9.131   8.787   5.518 -0.3129 -0.3582 -0.1081
  724MOL0     C97639   9.227   8.691   5.500  0.6422 -0.0059  0.3521
  724MOL0     O97640   9.339   8.730   5.432 -0.1419 -0.0305  0.8945
  724MOL0     C97641   9.436   8.634   5.377 -0.2785 -0.4448  0.1030
  724MOL0     C97642   9.557   8.704   5.321  0.4439  0.1703  1.1707
  724MOL0     C97643   9.533   8.795   5.207 -0.1773  0.3498 -0.3382
  724MOL0     C97644   9.658   8.869   5.182 -0.1564  0.3324 -0.0944
  724MOL0     C97645   9.641   8.948   5.049  0.6037 -1.0545  0.1262
  724MOL0     C97646   9.764   9.043   5.024  0.0580  0.1099  0.0998
  724MOL0     C97647   9.772   9.074   4.871 -0.2575 -0.2543 -0.0738
  724MOL0     C97648   9.870   8.970   4.804  0.8767 -0.2802  0.9293
  724MOL0    Cl97649   9.889   9.018   4.628  0.7105  0.3356 -0.2269
  724MOL0     C97650   9.207   8.568   5.561  0.7753  0.8309 -0.2644
  724MOL0     C97651   9.076   8.543   5.603  0.3392  0.3728 -0.9064
  724MOL0     O97652   8.892   8.560   5.854  0.2752  0.6234  0.0295
  724MOL0     C97653   8.636   8.496   5.911  0.2724 -0.4112  0.6254
  724MOL0     C97654   8.516   8.423   5.933 -0.3944 -0.6734  0.4506
  724MOL0     N97655   7.890   7.850   5.651  0.1080  0.2815 -0.0523
  724MOL0     N97656   7.816   7.785   5.575 -0.3324 -0.5429 -0.6276
  724MOL0     C97657   8.405   7.732   4.946 -0.2276  0.5945  0.6894
  724MOL0     C97658   8.512   7.653   4.976  0.0763 -0.9418 -0.4484
  724MOL0     C97659   8.894   7.543   5.214 -0.5918  0.0012  0.3995
  724MOL0     C97660   8.899   7.422   5.135 -0.6779  0.8766 -0.1040
  724MOL0     C97661   9.020   7.350   5.117  0.9632  0.4865  0.2652
  724MOL0     C97662   9.135   7.383   5.188 -0.0746  0.0880  0.3112
  724MOL0     O97663   9.250   7.303   5.151 -0.6206 -0.8445  0.0624
  724MOL0     C97664   9.383   7.332   5.201 -0.2353  0.0009 -0.2039
  724MOL0     C97665   9.472   7.416   5.112  0.1465  0.0726  0.3061
  724MOL0     C97666   9.443   7.561   5.136 -0.8357  0.1811  1.3284
  724MOL0     C97667   9.542   7.653   5.061 -0.6473 -0.0819  0.4369
  724MOL0     C97668   9.675   7.650   5.129 -0.7064 -0.8326 -0.3082
  724MOL0     C97669   9.776   7.644   5.195 -0.0921 -0.7473  0.0299
  724MOL0     C97670   9.123   7.492   5.271 -0.0276  0.3550 -0.1180
  724MOL0     C97671   9.012   7.580   5.277  0.1007  0.5620 -0.6998
  724MOL0     C97672   9.031   7.705   5.361  0.0740  0.1249 -0.6455
  724MOL0     H97673   8.708   7.903   5.094 -0.5165 -1.5009  1.1850
  724MOL0     H97674   8.521   8.046   4.992 -2.0760  0.5935 -5.0079
  724MOL0     H97675   8.283   8.021   5.127 -0.1594 -0.8433  0.4191
  724MOL0     H97676   8.287   8.142   5.002 -0.9857  0.8564  0.9108
  724MOL0     H97677   8.075   8.057   4.893 -1.3905 -1.5741  0.1408
  724MOL0     H97678   8.059   8.135   5.050 -1.6909 -0.4296  0.4559
  724MOL0     H97679   8.040   7.917   5.165  0.6378 -2.2403 -0.2927
  724MOL0     H97680   8.092   7.831   5.024  0.5354  0.0397  2.1905
  724MOL0     H97681   7.834   7.989   5.007  0.4932  0.7466  2.2998
  724MOL0     H97682   7.887   7.848   4.915  2.2021  0.0373 -0.7246
  724MOL0     H97683   7.710   7.781   5.033  0.3749 -2.0414  0.4866
  724MOL0     H97684   7.853   7.715   5.114  2.7361  1.9938  1.2641
  724MOL0     H97685   7.846   7.905   5.276 -1.2615  1.1694  1.1511
  724MOL0     H97686   7.696   7.958   5.189 -1.4551  0.2312  1.3416
  724MOL0     H97687   7.719   7.681   5.316  0.6835  0.4990 -1.7169
  724MOL0     H97688   7.567   7.753   5.242 -1.3587 -0.7531  1.0737
  724MOL0     H97689   7.571   7.949   5.402 -0.7540  0.1521 -2.0722
  724MOL0     H97690   7.535   7.787   5.481  0.5373  0.0958  1.1048
  724MOL0     H97691   7.642   8.059   5.617  0.6910  0.2567  1.9803
  724MOL0     H97692   7.826   8.147   5.810 -2.3796 -1.9191 -0.6132
  724MOL0     H97693   7.909   8.013   5.889 -1.2437 -1.7979 -0.7857
  724MOL0     H97694   8.074   8.022   5.693 -1.9852 -0.6676 -1.7478
  724MOL0     H97695   8.010   8.179   5.646  0.2391 -0.2650 -0.5669
  724MOL0     H97696   8.147   8.106   5.917 -0.0579  0.1701  0.2976
  724MOL0     H97697   8.064   8.259   5.885  0.2860 -0.1047 -1.1173
  724MOL0     H97698   8.208   8.317   5.700 -2.0731 -2.1883 -1.8711
  724MOL0     H97699   8.284   8.160   5.713 -1.8923 -0.3044  0.0973
  724MOL0     H97700   8.455   8.301   5.628  0.5949  0.3762 -0.0514
  724MOL0     H97701   8.656   8.419   5.584  0.6734 -1.6904  1.2308
  724MOL0     H97702   8.928   8.840   5.566 -1.0039 -0.2726  0.3169
  724MOL0     H97703   9.143   8.886   5.475  0.6773 -0.0699  0.7949
  724MOL0     H97704   9.471   8.573   5.461 -0.2465  2.0769  2.0291
  724MOL0     H97705   9.383   8.570   5.306 -0.7209  0.2928 -0.2413
  724MOL0     H97706   9.601   8.771   5.395 -1.8569  2.6917  0.4279
  724MOL0     H97707   9.636   8.638   5.282  2.2919  1.3438  2.7667
  724MOL0     H97708   9.505   8.737   5.118 -1.3339 -1.2907  1.0317
  724MOL0     H97709   9.451   8.862   5.237  0.2670  0.8882 -0.3140
  724MOL0     H97710   9.749   8.810   5.171  0.7786  2.0823 -2.4859
  724MOL0     H97711   9.692   8.926   5.269 -0.4824  1.8151 -0.9098
  724MOL0     H97712   9.560   9.019   5.071  2.1043  0.1466  2.0452
  724MOL0     H97713   9.616   8.884   4.963  0.0421  1.6002 -1.8376
  724MOL0     H97714   9.756   9.131   5.089  1.5142  2.1247 -2.2696
  724MOL0     H97715   9.852   8.993   5.065  0.7314 -0.1912 -1.6358
  724MOL0     H97716   9.814   9.173   4.850  1.3307 -0.8504  0.2237
  724MOL0     H97717   9.673   9.071   4.823 -1.2524  0.8035  1.8103
  724MOL0     H97718   9.964   8.977   4.860  1.5132 -1.4540  0.0581
  724MOL0     H97719   9.818   8.875   4.815 -0.0594  0.3993  2.8619
  724MOL0     H97720   9.275   8.484   5.562  0.0323  0.1901  1.6065
  724MOL0     H97721   9.051   8.440   5.626  1.4813  0.1035 -0.7946
  724MOL0     H97722   8.681   8.555   5.990  0.3636  1.2540 -0.6242
  724MOL0     H97723   8.467   8.430   6.029 -2.1877  2.0609 -0.5536
  724MOL0     H97724   8.322   7.683   4.895  1.8123 -0.8490 -1.4497
  724MOL0     H97725   8.513   7.545   4.967  2.2030 -1.1774  1.7593
  724MOL0     H97726   8.817   7.382   5.077  1.3718 -4.2279 -0.0345
  724MOL0     H97727   9.006   7.261   5.057 -2.0348  1.4092 -0.5384
  724MOL0     H97728   9.426   7.231   5.209 -2.8818 -1.0550  2.5933
  724MOL0     H97729   9.376   7.371   5.303 -0.5112 -2.1446  0.6461
  724MOL0     H97730   9.450   7.390   5.008 -2.5703  1.2921  0.4856
  724MOL0     H97731   9.575   7.382   5.124  0.6668  1.5244  0.1758
  724MOL0     H97732   9.464   7.587   5.240 -0.1416 -1.8756  1.7432
  724MOL0     H97733   9.339   7.578   5.105 -0.7471  0.1514  1.0211
  724MOL0     H97734   9.553   7.608   4.962  0.4428  0.2319  0.4036
  724MOL0     H97735   9.510   7.758   5.053 -0.3608  0.0413  0.8848
  724MOL0     H97736   9.864   7.633   5.254  0.2882 -0.3480 -0.4565
  724MOL0     H97737   9.211   7.515   5.330  0.5268 -2.9251  0.4744
  724MOL0     H97738   9.135   7.724   5.388  0.0765  0.3777 -0.8381
  724MOL0     H97739   8.999   7.796   5.310  3.2266  2.0322  0.5099
  724MOL0     H97740   8.973   7.694   5.453  3.1702 -1.1714  1.3098
  725MOL0     O97741   5.400   2.467   8.400  0.2155 -0.0288  0.3630
  725MOL0     C97742   5.441   2.545   8.312  0.0863  0.7178  0.4305
  725MOL0     O97743   5.575   2.558   8.281 -1.3056  0.4823 -0.1173
  725MOL0     C97744   5.665   2.466   8.332  0.3367  0.0271 -0.4832
  725MOL0     C97745   5.688   2.342   8.266 -0.4619 -0.4989  0.2216
  725MOL0     C97746   5.753   2.234   8.332 -0.1555 -0.4640  0.5760
  725MOL0     C97747   5.812   2.247   8.459  0.6146 -0.1536  0.3653
  725MOL0     O97748   5.879   2.156   8.531  0.1124  0.0707  0.9497
  725MOL0     C97749   5.921   2.039   8.464 -1.0009 -0.3588  0.4359
  725MOL0     C97750   5.979   1.941   8.567  0.5243  0.1673 -0.6474
  725MOL0     C97751   6.078   1.998   8.670 -0.0288 -0.5599  0.6554
  725MOL0     C97752   6.211   2.061   8.610  0.6691  0.4597 -0.4787
  725MOL0     C97753   6.314   2.094   8.716  0.1697 -0.4287 -0.5656
  725MOL0     C97754   6.277   2.206   8.826  0.5837 -1.0566  0.1641
  725MOL0     C97755   6.239   2.161   8.963 -1.5771 -0.5442  0.7346
  725MOL0     C97756   6.373   2.101   9.032 -0.3531  0.5049 -0.4556
  725MOL0     N97757   6.340   2.020   9.154 -0.4722  0.3812  0.5192
  725MOL0     C97758   6.279   2.061   9.268  0.0280 -0.6120 -0.0791
  725MOL0     C97759   6.257   1.961   9.345 -0.1784 -0.2153  0.1518
  725MOL0     C97760   6.205   1.966   9.483 -0.0643  0.4266 -0.6926
  725MOL0     C97761   6.314   1.967   9.573  0.6024  0.0825 -0.5154
  725MOL0     C97762   6.374   1.829   9.601 -0.4544 -0.4759  0.1321
  725MOL0     C97763   6.482   1.835   9.711  0.7537  0.1703  0.3777
  725MOL0     O97764   6.577   1.935   9.678 -0.0059 -0.4027  0.3363
  725MOL0     C97765   6.687   1.964   9.753 -0.4834  0.1179 -0.2894
  725MOL0     C97766   6.756   2.089   9.729  0.2224 -0.1732  0.6270
  725MOL0     C97767   6.864   2.126   9.800 -0.2928  0.3828 -0.2956
  725MOL0     C97768   6.913   2.045   9.903  0.1294  0.1776 -0.1610
  725MOL0     C97769   7.031   2.076   9.980  0.6147  0.0676  0.4196
  725MOL0     O97770   7.111   2.175   9.939 -0.2312  0.0454  0.1298
  725MOL0     C97771   7.214   2.208  10.028  1.1014  0.8130  0.1574
  725MOL0     C97772   7.174   2.292  10.137  0.0500  0.1390 -1.2263
  725MOL0     C97773   7.266   2.327  10.232 -0.0016  0.1051  0.1426
  725MOL0     C97774   7.404   2.297  10.213  0.2358 -0.5322 -0.5045
  725MOL0     O97775   7.491   2.348  10.304  0.7372  0.2230 -0.1790
  725MOL0     C97776   7.627   2.306  10.298  0.4551  0.7770  0.1113
  725MOL0     C97777   7.700   2.319  10.424  0.4472 -0.0860  0.3468
  725MOL0     C97778   7.852   2.309  10.398  0.1755 -0.3794 -0.9739
  725MOL0     C97779   7.880   2.169  10.360  0.0934  0.7832  0.8110
  725MOL0     C97780   8.022   2.112  10.378 -0.3272 -0.5097 -0.2694
  725MOL0     C97781   8.028   1.957  10.363 -0.4823  0.4018 -0.1237
  725MOL0     C97782   8.167   1.907  10.356 -0.0191  0.8089  0.3112
  725MOL0     C97783   8.266   1.947  10.460 -0.2863 -0.4954  0.1716
  725MOL0    Cl97784   8.427   1.874  10.425  0.1493 -0.2814  0.1490
  725MOL0     C97785   7.441   2.232  10.089 -0.2105  0.0180  0.3251
  725MOL0     C97786   7.343   2.181  10.004 -0.0712 -0.0738 -0.5879
  725MOL0     O97787   7.042   2.018  10.087  0.0384  0.5063  0.2735
  725MOL0     C97788   6.843   1.923   9.934  0.0483  0.6167 -0.5691
  725MOL0     C97789   6.734   1.887   9.863  0.4659 -0.2757  0.2576
  725MOL0     N97790   6.305   1.851   9.282  0.1779 -0.2924  0.3834
  725MOL0     N97791   6.349   1.885   9.167  0.1643  0.3751  0.1587
  725MOL0     C97792   5.798   2.378   8.518 -1.2191  1.0264  0.0580
  725MOL0     C97793   5.726   2.484   8.458  0.4997  0.2304 -1.1310
  725MOL0     C97794   5.344   2.623   8.244 -0.1532 -0.2930 -1.3404
  725MOL0     C97795   5.223   2.567   8.220  0.0551 -0.3805 -0.2005
  725MOL0     C97796   5.122   2.632   8.156  0.3080 -0.5887  0.1984
  725MOL0     C97797   5.138   2.767   8.112  0.9376 -0.0109 -0.2807
  725MOL0     O97798   5.035   2.835   8.044 -0.5499  0.0644  0.0037
  725MOL0     C97799   5.026   2.981   8.038 -0.0603 -0.1092 -0.3893
  725MOL0     C97800   4.885   3.004   7.980 -1.0371  0.8584  0.1298
  725MOL0     C97801   4.775   2.963   8.067 -0.3144  0.0518  0.1654
  725MOL0     C97802   4.644   2.947   7.991 -0.3900 -1.0843 -0.0173
  725MOL0     C97803   4.530   2.893   8.069  0.1188 -0.1649  0.2214
  725MOL0     C97804   4.434   2.857   8.128  0.0846 -0.5659  0.1599
  725MOL0     C97805   5.260   2.828   8.129 -0.4238  0.5088  0.0197
  725MOL0     C97806   5.366   2.757   8.194  0.6878  0.6820 -0.7567
  725MOL0     C97807   5.491   2.831   8.209 -0.0842 -0.5872  0.0483
  725MOL0     H97808   5.638   2.341   8.169  1.5199  3.5340 -1.0463
  725MOL0     H97809   5.751   2.136   8.286  2.1049  0.2013 -1.1346
  725MOL0     H97810   5.838   1.987   8.416 -0.1977 -0.5211 -0.8397
  725MOL0     H97811   5.997   2.068   8.390 -0.1558  0.8325  1.7286
  725MOL0     H97812   6.018   1.850   8.521 -2.2235 -1.8499  0.7434
  725MOL0     H97813   5.901   1.891   8.625 -0.0374  2.0809  0.3468
  725MOL0     H97814   6.102   1.914   8.735  5.0197 -0.7076 -0.9374
  725MOL0     H97815   6.031   2.075   8.733 -0.6573 -0.3427 -0.0635
  725MOL0     H97816   6.260   1.988   8.545  1.2983  0.0308  0.4385
  725MOL0     H97817   6.193   2.156   8.559 -2.2112  1.0773  1.4934
  725MOL0     H97818   6.328   2.003   8.777 -0.5091  1.2438  2.2664
  725MOL0     H97819   6.405   2.134   8.670 -0.2566  1.2217 -0.0397
  725MOL0     H97820   6.372   2.259   8.832 -0.5284  1.3435 -1.6313
  725MOL0     H97821   6.196   2.267   8.784 -0.9526 -1.2443  2.6774
  725MOL0     H97822   6.162   2.083   8.971 -0.7325 -1.4490  0.3105
  725MOL0     H97823   6.207   2.252   9.015  0.5719  1.6251 -1.4582
  725MOL0     H97824   6.422   2.034   8.960  0.1484 -1.4949  1.6055
  725MOL0     H97825   6.446   2.181   9.048  2.3769 -1.8673 -0.0575
  725MOL0     H97826   6.254   2.160   9.303  0.6427 -0.6011  0.3480
  725MOL0     H97827   6.147   2.058   9.496  0.7412  0.9963 -1.0093
  725MOL0     H97828   6.145   1.878   9.506 -0.9475  1.6182  1.9139
  725MOL0     H97829   6.393   2.037   9.545  1.8307 -0.8226  0.5692
  725MOL0     H97830   6.284   2.001   9.673 -0.1571  1.8040 -1.2967
  725MOL0     H97831   6.427   1.797   9.511 -1.2881  4.6363 -2.5533
  725MOL0     H97832   6.298   1.754   9.624 -0.9241 -0.3371 -0.9368
  725MOL0     H97833   6.530   1.737   9.718  0.2996  0.0487  2.8543
  725MOL0     H97834   6.438   1.839   9.812  1.8365 -2.0850  1.0034
  725MOL0     H97835   6.728   2.146   9.641 -2.8423 -3.2266 -0.5877
  725MOL0     H97836   6.906   2.220   9.766  0.4501  0.0688 -0.2623
  725MOL0     H97837   7.072   2.325  10.153  0.4679  0.3095  1.4622
  725MOL0     H97838   7.233   2.372  10.326  0.2804  0.3467  0.1266
  725MOL0     H97839   7.636   2.200  10.272 -0.4056  1.5404 -4.1730
  725MOL0     H97840   7.681   2.356  10.217  1.8422 -1.6433 -0.5685
  725MOL0     H97841   7.673   2.406  10.485 -1.3091 -1.8179  2.1897
  725MOL0     H97842   7.665   2.238  10.488 -2.1530  1.2499  0.7361
  725MOL0     H97843   7.892   2.379  10.324  1.0890  0.0606 -0.0871
  725MOL0     H97844   7.904   2.334  10.491 -1.0527 -1.7489  0.1229
  725MOL0     H97845   7.855   2.170  10.253 -1.0991  4.0834  1.0266
  725MOL0     H97846   7.811   2.102  10.411  1.7689 -0.3584  1.6862
  725MOL0     H97847   8.046   2.142  10.481 -2.9106  0.3178  0.1598
  725MOL0     H97848   8.092   2.160  10.310  0.1656 -1.9291 -0.8076
  725MOL0     H97849   7.968   1.907  10.440 -0.3668  0.9427  0.3272
  725MOL0     H97850   7.979   1.931  10.269 -1.2144  0.2523  0.2853
  725MOL0     H97851   8.196   1.933  10.253 -0.7071 -1.9819 -0.6747
  725MOL0     H97852   8.157   1.798  10.355  0.8701  0.7095 -1.4665
  725MOL0     H97853   8.280   2.054  10.474  0.4170 -0.5860  0.1822
  725MOL0     H97854   8.228   1.912  10.557  0.3827  0.6345  0.8655
  725MOL0     H97855   7.547   2.214  10.072  0.7389  2.1264  3.0949
  725MOL0     H97856   7.372   2.122   9.917 -0.4409  1.9585 -2.1522
  725MOL0     H97857   6.879   1.856  10.011  1.7052 -0.3656 -2.1058
  725MOL0     H97858   6.687   1.791   9.883  1.7198 -0.8687  0.4892
  725MOL0     H97859   5.834   2.395   8.619 -1.7169  0.7851  0.2803
  725MOL0     H97860   5.709   2.574   8.517  1.1810 -0.5329  0.2825
  725MOL0     H97861   5.207   2.462   8.243  1.9269 -0.5616  0.5156
  725MOL0     H97862   5.036   2.572   8.129  0.7849 -0.4405 -1.8707
  725MOL0     H97863   5.096   3.024   7.966 -0.3352  0.4645 -0.3161
  725MOL0     H97864   5.024   3.028   8.137 -2.0782  0.2819 -0.5579
  725MOL0     H97865   4.883   2.961   7.880  2.3703  1.5727 -0.3727
  725MOL0     H97866   4.869   3.111   7.964 -0.4945  0.7634 -1.1473
  725MOL0     H97867   4.769   3.037   8.148  0.9046 -0.9364  1.2059
  725MOL0     H97868   4.795   2.864   8.109 -1.4394 -0.6478 -0.9059
  725MOL0     H97869   4.623   3.050   7.960  0.4821  0.6941  4.5636
  725MOL0     H97870   4.678   2.883   7.909 -0.2073 -1.7745  0.5899
  725MOL0     H97871   4.358   2.808   8.185  0.8271 -2.4795 -0.4080
  725MOL0     H97872   5.275   2.927   8.086 -0.0968  0.3809 -0.1699
  725MOL0     H97873   5.479   2.938   8.193  0.1443 -0.2629  1.7830
  725MOL0     H97874   5.517   2.808   8.313  1.3465  1.4407  0.2100
  725MOL0     H97875   5.566   2.789   8.142  1.9181  0.0628  1.7638
  726MOL0     O97876   6.337   4.914   1.862  0.3736 -0.4594 -0.3368
  726MOL0     C97877   6.288   4.919   1.977 -0.2500 -0.1749 -0.1925
  726MOL0     O97878   6.345   4.889   2.100  0.2502 -0.2327  0.5590
  726MOL0     C97879   6.476   4.857   2.106  0.0818 -0.4587  0.2905
  726MOL0     C97880   6.544   4.736   2.059  0.0440  0.1568 -0.3944
  726MOL0     C97881   6.684   4.715   2.076  0.3223 -0.0118  0.4334
  726MOL0     C97882   6.761   4.812   2.132 -0.4622 -0.0230  0.3395
  726MOL0     O97883   6.896   4.794   2.153 -0.0632  0.4111 -0.0235
  726MOL0     C97884   6.989   4.870   2.075  0.2965 -0.6052  0.5843
  726MOL0     C97885   7.130   4.815   2.090  0.3504 -0.0981  0.3850
  726MOL0     C97886   7.180   4.835   2.237  0.4200 -1.4695  0.4325
  726MOL0     C97887   7.319   4.778   2.264  0.3946 -0.2970 -0.1991
  726MOL0     C97888   7.367   4.836   2.393 -0.5369 -0.6891 -0.3354
  726MOL0     C97889   7.514   4.778   2.424 -0.0689 -0.4928 -0.2921
  726MOL0     C97890   7.575   4.829   2.558 -0.3570 -0.0390  0.1797
  726MOL0     C97891   7.620   4.976   2.560  0.0780 -1.1031  0.2113
  726MOL0     N97892   7.693   5.013   2.680  0.2009  0.1049  0.5909
  726MOL0     C97893   7.759   5.127   2.708 -0.1765  0.4750 -0.2744
  726MOL0     C97894   7.837   5.113   2.815  0.1670  0.4384 -1.1880
  726MOL0     C97895   7.919   5.221   2.892 -0.1799 -0.3525  0.1923
  726MOL0     C97896   8.003   5.162   3.006 -0.1897 -0.4610  0.6831
  726MOL0     C97897   8.118   5.255   3.057 -0.5551  0.2103 -0.0180
  726MOL0     C97898   8.164   5.206   3.197  0.1342  0.8041  0.8072
  726MOL0     O97899   8.236   5.294   3.280  0.3723  0.5562  0.0778
  726MOL0     C97900   8.360   5.338   3.256 -0.4205 -0.1063 -0.6170
  726MOL0     C97901   8.448   5.308   3.148 -0.0994  0.1560  0.1730
  726MOL0     C97902   8.581   5.357   3.146 -0.0008 -0.5016 -0.1823
  726MOL0     C97903   8.624   5.437   3.252  0.7986  0.3674  0.7971
  726MOL0     C97904   8.762   5.498   3.249 -0.2858  0.7251 -0.4837
  726MOL0     O97905   8.846   5.443   3.158 -0.0997  0.6389 -0.3889
  726MOL0     C97906   8.969   5.506   3.139  0.6003 -0.0463  0.8743
  726MOL0     C97907   9.062   5.519   3.241 -0.3977  0.5409 -0.3940
  726MOL0     C97908   9.185   5.588   3.215  0.0929 -0.1904 -0.9372
  726MOL0     C97909   9.208   5.638   3.090 -1.0277  0.0392  0.2735
  726MOL0     O97910   9.326   5.713   3.074  0.7022  0.3508  0.1601
  726MOL0     C97911   9.331   5.812   2.968  0.1332  0.4739  0.0186
  726MOL0     C97912   9.451   5.897   2.962 -0.0992 -0.1803 -0.6335
  726MOL0     C97913   9.581   5.821   2.913 -0.1338  0.3920 -0.0171
  726MOL0     C97914   9.692   5.926   2.897 -0.2187  0.0022 -0.2224
  726MOL0     C97915   9.818   5.855   2.849 -0.6845 -0.7509  0.2402
  726MOL0     C97916   9.940   5.957   2.843 -0.0352 -1.0969 -0.5553
  726MOL0     C97917   9.930   6.051   2.721  0.7877 -0.1556 -1.1718
  726MOL0     C97918  10.021   6.172   2.740 -0.2838 -1.1072  0.1828
  726MOL0    Cl97919  10.194   6.131   2.741  0.3175 -0.2462  0.3046
  726MOL0     C97920   9.114   5.625   2.991 -0.8612 -0.2455 -0.4083
  726MOL0     C97921   8.996   5.555   3.009 -0.5588 -0.6908  1.1299
  726MOL0     O97922   8.793   5.587   3.329 -0.4404 -1.1108  0.1311
  726MOL0     C97923   8.534   5.470   3.362  0.8267 -0.2325 -0.4533
  726MOL0     C97924   8.404   5.420   3.358  0.4189  0.9353 -0.7509
  726MOL0     N97925   7.810   4.981   2.862  0.2077 -0.1221  0.0567
  726MOL0     N97926   7.733   4.922   2.769  0.4516  0.2480 -0.2089
  726MOL0     C97927   6.696   4.929   2.178  0.2658 -0.3110 -0.1506
  726MOL0     C97928   6.563   4.955   2.167  0.0210  0.4166  0.1991
  726MOL0     C97929   6.145   4.962   1.987  0.1909  0.4399  0.3210
  726MOL0     C97930   6.091   4.997   2.113 -0.6804 -0.3707  0.0529
  726MOL0     C97931   5.954   5.024   2.128 -0.5972  0.0800 -0.2670
  726MOL0     C97932   5.867   5.028   2.020  0.4082  0.3912 -0.5260
  726MOL0     O97933   5.738   5.074   2.031  0.1502  0.1904 -0.6146
  726MOL0     C97934   5.674   5.060   2.158 -0.5290 -0.1475  0.1302
  726MOL0     C97935   5.523   5.069   2.153  0.5333  0.3596  0.1990
  726MOL0     C97936   5.467   5.207   2.123 -0.6219 -1.2461 -0.3797
  726MOL0     C97937   5.322   5.217   2.168  0.6070  0.8153  0.4805
  726MOL0     C97938   5.238   5.101   2.128  0.2464 -0.1095 -0.5044
  726MOL0     C97939   5.158   5.008   2.100  0.1828 -0.4078  0.2726
  726MOL0     C97940   5.917   4.992   1.895 -0.1467 -0.7848 -0.0316
  726MOL0     C97941   6.055   4.961   1.880  0.2339  0.0040  0.0416
  726MOL0     C97942   6.093   4.928   1.737  0.6951  0.8704  0.0274
  726MOL0     H97943   6.475   4.660   2.024  0.6659 -1.1489  1.0744
  726MOL0     H97944   6.733   4.621   2.053 -0.8783 -1.3517  2.9128
  726MOL0     H97945   6.963   4.869   1.968  2.9552 -1.6764 -0.1223
  726MOL0     H97946   6.995   4.974   2.109 -1.8788 -0.3104  0.2727
  726MOL0     H97947   7.193   4.875   2.025 -0.0358 -1.8158 -1.7209
  726MOL0     H97948   7.129   4.712   2.054  2.2876  0.3872 -1.2115
  726MOL0     H97949   7.115   4.791   2.313  1.8670 -0.4508  2.3399
  726MOL0     H97950   7.202   4.942   2.248 -1.3971 -0.6067 -2.8543
  726MOL0     H97951   7.322   4.668   2.266  1.2916 -0.2986 -0.8323
  726MOL0     H97952   7.385   4.812   2.184  0.2188  0.5892  0.0210
  726MOL0     H97953   7.372   4.945   2.382  0.0358 -0.6279  0.3551
  726MOL0     H97954   7.311   4.806   2.482 -0.0215 -2.4550 -0.5662
  726MOL0     H97955   7.493   4.673   2.445 -0.6523 -0.0668  1.4108
  726MOL0     H97956   7.585   4.788   2.342 -1.3937  0.0065 -1.4231
  726MOL0     H97957   7.657   4.761   2.585  0.2482  1.2353  1.7710
  726MOL0     H97958   7.508   4.816   2.643 -1.6391  0.3098 -0.7578
  726MOL0     H97959   7.687   4.996   2.476  1.2226 -0.9455  1.1197
  726MOL0     H97960   7.523   5.025   2.546  0.7962  0.4700  0.4478
  726MOL0     H97961   7.755   5.216   2.646 -0.7953 -0.9102 -2.3252
  726MOL0     H97962   7.983   5.276   2.823 -1.5043  0.5693 -0.3368
  726MOL0     H97963   7.847   5.293   2.933 -1.2958 -1.8754  1.0284
  726MOL0     H97964   7.940   5.128   3.088 -0.8166  0.5337  0.6292
  726MOL0     H97965   8.051   5.079   2.954 -0.4627 -1.6996  2.3189
  726MOL0     H97966   8.065   5.349   3.073 -0.1536  0.7425 -1.6001
  726MOL0     H97967   8.205   5.270   2.992 -1.6529 -0.4222 -1.6936
  726MOL0     H97968   8.220   5.113   3.181  2.3267  2.1682  0.0821
  726MOL0     H97969   8.073   5.170   3.246 -1.3377  1.5531 -1.2200
  726MOL0     H97970   8.413   5.253   3.062  0.7620 -0.3375  0.1248
  726MOL0     H97971   8.641   5.342   3.056  3.2324  1.4279  1.4959
  726MOL0     H97972   9.038   5.466   3.332 -1.0153 -2.0827 -1.9778
  726MOL0     H97973   9.261   5.590   3.291 -1.1783  0.3202  0.3684
  726MOL0     H97974   9.311   5.759   2.875 -0.6926 -0.8536  0.9293
  726MOL0     H97975   9.249   5.884   2.974  0.8280  1.2650  0.2520
  726MOL0     H97976   9.425   5.985   2.903  1.2916 -0.7338 -2.1517
  726MOL0     H97977   9.459   5.937   3.063  2.8177  1.4571 -1.4054
  726MOL0     H97978   9.612   5.741   2.981  2.7359 -0.0359 -1.6891
  726MOL0     H97979   9.568   5.763   2.822  2.7742 -0.5851  0.0906
  726MOL0     H97980   9.714   5.977   2.991 -2.6001  0.1641  0.2934
  726MOL0     H97981   9.665   6.009   2.831 -1.5836  1.3167  1.8852
  726MOL0     H97982   9.799   5.823   2.746 -2.3175 -0.3154  0.3785
  726MOL0     H97983   9.836   5.768   2.912 -2.8575 -3.0614 -2.0594
  726MOL0     H97984   9.938   6.014   2.936  2.5462  1.7491 -2.0843
  726MOL0     H97985  10.030   5.895   2.839 -0.1742 -1.2329 -2.0798
  726MOL0     H97986   9.827   6.088   2.717 -0.0474 -1.9787  1.0605
  726MOL0     H97987   9.954   5.992   2.633  0.0924 -3.6297  0.7615
  726MOL0     H97988  10.003   6.247   2.662  0.3380 -1.2571 -0.1090
  726MOL0     H97989   9.995   6.227   2.831 -0.9923  1.2998 -1.3850
  726MOL0     H97990   9.134   5.671   2.894  1.6030 -0.4796 -0.0798
  726MOL0     H97991   8.932   5.544   2.922 -0.9548 -0.3314  1.3752
  726MOL0     H97992   8.567   5.537   3.440  0.9568 -2.5303  1.6165
  726MOL0     H97993   8.337   5.428   3.443  2.1517 -1.9393  1.0753
  726MOL0     H97994   6.754   4.994   2.241  2.9098 -0.7672 -1.9560
  726MOL0     H97995   6.525   5.046   2.212 -3.3387 -0.5823 -0.3384
  726MOL0     H97996   6.148   4.980   2.204 -0.3870 -2.1606 -0.4327
  726MOL0     H97997   5.910   5.049   2.224 -3.8581  0.0159 -1.6303
  726MOL0     H97998   5.706   5.148   2.215  1.3936 -1.3829  1.0491
  726MOL0     H97999   5.710   4.974   2.215  2.0694 -0.5679 -1.9530
  726MOL0     H98000   5.488   5.057   2.256 -1.8027  0.9057 -0.4817
  726MOL0     H98001   5.496   4.990   2.082  0.9955 -0.1047  0.5280
  726MOL0     H98002   5.472   5.215   2.015 -1.2077 -0.1534 -0.3324
  726MOL0     H98003   5.530   5.283   2.171 -1.4266 -0.8412  0.0641
  726MOL0     H98004   5.315   5.208   2.277  0.4845  0.5908  0.4529
  726MOL0     H98005   5.267   5.304   2.132 -3.2434 -0.5760  2.3857
  726MOL0     H98006   5.077   4.940   2.087 -0.1964  0.2826 -1.2170
  726MOL0     H98007   5.840   4.989   1.818 -1.9003 -0.9638  1.6340
  726MOL0     H98008   6.017   4.926   1.658  3.3156 -0.7638 -2.6904
  726MOL0     H98009   6.167   4.995   1.691 -0.2321  0.2544 -2.5028
  726MOL0     H98010   6.120   4.822   1.738 -0.7515  0.4760 -0.4996
  727MOL0     O98011   6.791   3.611   5.112  0.1242  0.5348 -0.2591
  727MOL0     C98012   6.689   3.669   5.144  0.3845 -0.4570  0.8168
  727MOL0     O98013   6.687   3.781   5.224 -0.1113  0.5521  0.3267
  727MOL0     C98014   6.800   3.813   5.300 -0.0288 -0.4609  0.4410
  727MOL0     C98015   6.876   3.714   5.370  0.3371 -0.1000  0.2286
  727MOL0     C98016   6.996   3.738   5.440 -0.2295 -0.1488  0.3393
  727MOL0     C98017   7.036   3.866   5.460  1.0098 -0.0506  1.2084
  727MOL0     O98018   7.156   3.897   5.525  0.2242  0.1974 -1.5084
  727MOL0     C98019   7.168   4.008   5.618  0.7208 -0.3824 -0.4309
  727MOL0     C98020   7.313   4.039   5.630 -0.5988 -0.3795 -0.0930
  727MOL0     C98021   7.392   4.058   5.500 -0.2894 -0.2128 -0.0863
  727MOL0     C98022   7.335   4.176   5.421 -0.1335 -0.4484  0.2419
  727MOL0     C98023   7.406   4.164   5.283  0.6011  0.1093  0.3945
  727MOL0     C98024   7.331   4.244   5.180  0.1061  0.5690 -0.1810
  727MOL0     C98025   7.174   4.229   5.166 -0.5196 -0.2239 -0.3303
  727MOL0     C98026   7.139   4.226   5.015 -0.0809 -0.7772  0.2554
  727MOL0     N98027   7.179   4.351   4.941  0.3063 -0.1072  1.1237
  727MOL0     C98028   7.176   4.479   4.995 -1.2745 -0.3602 -0.4533
  727MOL0     C98029   7.248   4.564   4.912  0.0884 -0.0685  0.9147
  727MOL0     C98030   7.271   4.714   4.919  0.1254  0.5121 -0.1755
  727MOL0     C98031   7.159   4.794   4.859  0.2826 -0.5413  0.5550
  727MOL0     C98032   7.183   4.945   4.889 -0.8265 -0.9993 -0.2970
  727MOL0     C98033   7.329   4.991   4.855  0.2888 -0.2328 -0.2314
  727MOL0     O98034   7.362   5.002   4.712  0.0557 -0.2287 -0.0209
  727MOL0     C98035   7.494   5.009   4.687  0.0101  0.0752 -0.0020
  727MOL0     C98036   7.582   5.079   4.764  0.2475  0.1437 -0.5019
  727MOL0     C98037   7.719   5.082   4.735 -0.4668 -0.2917 -0.2290
  727MOL0     C98038   7.773   5.027   4.623 -0.3001  0.7018  1.4179
  727MOL0     C98039   7.919   5.030   4.589 -0.6754 -0.1990  0.2260
  727MOL0     O98040   8.001   5.106   4.659 -0.2664 -0.0621  1.0545
  727MOL0     C98041   8.135   5.132   4.619  0.1387  0.4205 -0.4064
  727MOL0     C98042   8.174   5.263   4.626 -0.1564 -1.3943 -0.1622
  727MOL0     C98043   8.300   5.312   4.591 -0.6434 -0.2118 -0.3801
  727MOL0     C98044   8.396   5.224   4.550 -0.1477 -0.5365  0.0146
  727MOL0     O98045   8.526   5.266   4.513  0.9359 -0.2507  0.5692
  727MOL0     C98046   8.626   5.183   4.577  0.5235 -0.5806  0.0475
  727MOL0     C98047   8.729   5.260   4.667 -1.1004 -0.1558  0.6331
  727MOL0     C98048   8.812   5.359   4.583  0.3365 -0.3621 -0.8645
  727MOL0     C98049   8.892   5.456   4.669  0.5160 -0.1763  0.0532
  727MOL0     C98050   9.038   5.472   4.625  0.6886 -0.4174 -0.2623
  727MOL0     C98051   9.051   5.562   4.500  0.5063 -0.2363 -0.8125
  727MOL0     C98052   9.203   5.618   4.492 -1.2343 -0.7063  0.4648
  727MOL0     C98053   9.292   5.531   4.405  0.1361 -0.3247 -0.1001
  727MOL0    Cl98054   9.375   5.393   4.484  0.1972  0.1285 -0.4147
  727MOL0     C98055   8.365   5.088   4.547 -0.2346  0.7725 -0.3943
  727MOL0     C98056   8.235   5.039   4.572  0.3435  0.3264 -0.1600
  727MOL0     O98057   7.955   4.960   4.499 -0.3483  0.3385  0.3873
  727MOL0     C98058   7.679   4.973   4.532  0.5726  0.2534  0.7235
  727MOL0     C98059   7.545   4.961   4.568  0.3576 -0.7191 -0.6899
  727MOL0     N98060   7.290   4.482   4.805  0.3791 -0.1609  0.7099
  727MOL0     N98061   7.243   4.360   4.819  0.1825  0.0316 -0.2856
  727MOL0     C98062   6.958   3.970   5.407  1.0714  0.0700 -0.3833
  727MOL0     C98063   6.844   3.942   5.321 -0.5006  0.4106  0.3568
  727MOL0     C98064   6.560   3.614   5.091  0.3876  0.4562  0.5311
  727MOL0     C98065   6.447   3.693   5.122  1.0310  1.3049 -0.1021
  727MOL0     C98066   6.325   3.639   5.089  0.6595 -0.9118 -1.0487
  727MOL0     C98067   6.301   3.515   5.024 -0.0976 -0.2859 -0.3129
  727MOL0     O98068   6.184   3.454   4.992 -0.6341  0.7438  0.3490
  727MOL0     C98069   6.064   3.512   5.039 -0.8878  0.6671  0.9508
  727MOL0     C98070   5.947   3.436   4.984  0.3293 -0.1347 -0.7908
  727MOL0     C98071   5.808   3.475   5.045  0.3413  0.4803  0.4255
  727MOL0     C98072   5.693   3.427   4.962 -0.4123  1.0100  0.1789
  727MOL0     C98073   5.570   3.494   4.989 -0.4510 -0.2372 -0.6246
  727MOL0     C98074   5.477   3.564   5.018  0.0825 -0.4551  0.1156
  727MOL0     C98075   6.415   3.454   4.974  0.6936 -1.1795  0.7742
  727MOL0     C98076   6.551   3.496   5.012  0.0033  0.0919 -0.4362
  727MOL0     C98077   6.670   3.405   4.978 -0.1911 -0.9909  0.0598
  727MOL0     H98078   6.853   3.608   5.376 -0.4068 -0.2555 -3.4693
  727MOL0     H98079   7.057   3.658   5.481  0.3478  0.5030  0.7797
  727MOL0     H98080   7.109   4.095   5.587  0.4940 -0.3524  0.0844
  727MOL0     H98081   7.125   3.978   5.713 -0.8984  0.3828 -0.8717
  727MOL0     H98082   7.347   3.952   5.687  1.3878  0.4106 -0.0043
  727MOL0     H98083   7.325   4.133   5.684 -3.6248 -0.0029  0.0671
  727MOL0     H98084   7.399   3.967   5.440  0.0502  0.2524 -0.7607
  727MOL0     H98085   7.496   4.078   5.528  0.7446 -0.5301 -3.2909
  727MOL0     H98086   7.227   4.170   5.404 -0.2932 -0.6417  1.2707
  727MOL0     H98087   7.369   4.269   5.466 -1.0172 -0.3646  0.7597
  727MOL0     H98088   7.507   4.206   5.288  1.3156 -1.5743  0.8591
  727MOL0     H98089   7.414   4.059   5.253  1.0472 -0.1729  1.4691
  727MOL0     H98090   7.336   4.343   5.227  0.0792 -0.0965  1.3045
  727MOL0     H98091   7.384   4.261   5.086 -0.1465  1.8037 -0.1231
  727MOL0     H98092   7.126   4.320   5.204  0.4747  0.9798 -1.8129
  727MOL0     H98093   7.133   4.140   5.213  0.4146 -0.3356  0.2838
  727MOL0     H98094   7.183   4.146   4.956 -0.2067 -0.9048  0.3347
  727MOL0     H98095   7.030   4.221   5.003 -0.7209  3.5211  2.3007
  727MOL0     H98096   7.131   4.518   5.086  1.9038  1.1680  0.5888
  727MOL0     H98097   7.283   4.744   5.024  0.8964  0.4549 -0.2419
  727MOL0     H98098   7.365   4.737   4.868 -0.4327  0.7639 -1.1249
  727MOL0     H98099   7.165   4.781   4.750  0.9620  3.4052 -0.0305
  727MOL0     H98100   7.059   4.761   4.890 -1.2075  0.1099 -3.0417
  727MOL0     H98101   7.171   4.958   4.997 -0.7609 -0.5982 -0.3384
  727MOL0     H98102   7.119   5.014   4.833  1.9374  2.5918  0.6018
  727MOL0     H98103   7.405   4.936   4.911 -1.6091 -3.2058 -0.3390
  727MOL0     H98104   7.329   5.095   4.888 -0.9558  0.1300 -1.2860
  727MOL0     H98105   7.543   5.133   4.850 -0.2032  0.3861 -0.8536
  727MOL0     H98106   7.779   5.143   4.802  1.8957 -0.8264 -1.7414
  727MOL0     H98107   8.110   5.348   4.646  1.6300  0.1383 -0.7389
  727MOL0     H98108   8.326   5.417   4.591  2.6527 -0.9023  0.9313
  727MOL0     H98109   8.592   5.089   4.622  2.0858 -1.7376 -1.0852
  727MOL0     H98110   8.686   5.139   4.497  1.9302 -2.8824  2.1840
  727MOL0     H98111   8.673   5.309   4.748 -1.5402 -1.9432  1.4661
  727MOL0     H98112   8.800   5.185   4.703 -2.0839 -2.4719 -1.9706
  727MOL0     H98113   8.876   5.293   4.525  1.1775 -1.1674  0.8886
  727MOL0     H98114   8.747   5.421   4.521 -0.9397  0.1968  0.9429
  727MOL0     H98115   8.893   5.436   4.777  3.2656  0.4709  0.2074
  727MOL0     H98116   8.841   5.553   4.658 -0.4438 -0.4850  1.4761
  727MOL0     H98117   9.090   5.376   4.617  1.3282 -0.1156  0.1578
  727MOL0     H98118   9.088   5.528   4.704  1.2004 -0.6953 -0.3860
  727MOL0     H98119   9.013   5.511   4.411 -4.0411 -0.3986  0.9457
  727MOL0     H98120   8.980   5.643   4.520 -1.4361 -2.3091  1.3779
  727MOL0     H98121   9.247   5.634   4.590 -1.6986 -1.8390  0.8767
  727MOL0     H98122   9.214   5.715   4.443 -0.4720 -1.4594 -0.9246
  727MOL0     H98123   9.231   5.494   4.323  0.2935 -2.4009  0.6542
  727MOL0     H98124   9.375   5.594   4.373  0.4607 -0.8582 -0.3147
  727MOL0     H98125   8.437   5.015   4.511  2.3851  2.3334  1.3491
  727MOL0     H98126   8.221   4.931   4.577 -0.3857  0.4610  1.3816
  727MOL0     H98127   7.706   4.934   4.434  0.8569 -0.4393  1.0737
  727MOL0     H98128   7.470   4.917   4.502  0.4991  0.3326 -1.5793
  727MOL0     H98129   6.979   4.075   5.428 -2.0278 -0.0049  4.6309
  727MOL0     H98130   6.775   4.014   5.277 -1.5066  1.3327  3.2569
  727MOL0     H98131   6.458   3.786   5.177  5.3352  0.1710  1.4141
  727MOL0     H98132   6.241   3.693   5.131  0.0176 -1.5512 -1.4934
  727MOL0     H98133   6.059   3.616   5.006  0.2154  0.4397 -0.0030
  727MOL0     H98134   6.066   3.508   5.148  2.4658 -0.5886  0.9575
  727MOL0     H98135   5.962   3.328   4.997 -1.7770 -0.0972  4.9379
  727MOL0     H98136   5.952   3.474   4.882 -2.0544  2.1456 -0.1862
  727MOL0     H98137   5.802   3.584   5.042  1.8331  0.5700  0.0885
  727MOL0     H98138   5.793   3.441   5.148 -0.5378  0.9052  0.4504
  727MOL0     H98139   5.730   3.448   4.861  0.0996  0.6719  0.2943
  727MOL0     H98140   5.682   3.319   4.970 -0.4673  1.0216  0.2595
  727MOL0     H98141   5.388   3.621   5.037 -0.2576 -0.2547 -1.8352
  727MOL0     H98142   6.400   3.361   4.921  0.9433  0.1838 -1.8579
  727MOL0     H98143   6.636   3.329   4.906  0.4729  0.3470 -1.7291
  727MOL0     H98144   6.742   3.472   4.931 -1.9354  1.3173  0.5018
  727MOL0     H98145   6.710   3.360   5.069 -0.2002 -0.9811  0.0690
  728MOL0     O98146   2.385   7.873   6.826  0.0749 -0.1751  0.4333
  728MOL0     C98147   2.276   7.832   6.873  0.3665 -0.4171 -0.2464
  728MOL0     O98148   2.267   7.724   6.962  0.6551  0.3873 -0.8025
  728MOL0     C98149   2.380   7.685   7.027 -0.1440 -0.1240  0.1437
  728MOL0     C98150   2.427   7.550   7.009  0.1043  0.0863  0.1297
  728MOL0     C98151   2.550   7.520   7.059 -0.2906  0.1116  0.3770
  728MOL0     C98152   2.625   7.616   7.134  0.6597 -0.0713  0.0582
  728MOL0     O98153   2.744   7.577   7.178  0.0587 -0.1939  0.4432
  728MOL0     C98154   2.846   7.661   7.137  0.1742  1.0446 -1.1745
  728MOL0     C98155   2.979   7.588   7.159  0.4739 -0.5555 -0.4472
  728MOL0     C98156   3.077   7.676   7.086  0.0818  0.2719 -0.3767
  728MOL0     C98157   3.210   7.615   7.078  0.1184 -0.3439  0.7910
  728MOL0     C98158   3.313   7.696   6.990  0.7747 -0.1871 -0.4802
  728MOL0     C98159   3.264   7.704   6.844  0.4803 -0.5795  0.0437
  728MOL0     C98160   3.377   7.738   6.748  0.0176  0.3792  0.1220
  728MOL0     C98161   3.325   7.786   6.614  0.5484 -0.8849  0.4846
  728MOL0     N98162   3.433   7.812   6.520  0.3423 -0.3573  0.6134
  728MOL0     C98163   3.521   7.728   6.462  0.5400 -0.2435 -0.2811
  728MOL0     C98164   3.599   7.810   6.389  0.0683  0.3183  0.5387
  728MOL0     C98165   3.719   7.759   6.307 -0.5455 -0.2207  0.3743
  728MOL0     C98166   3.781   7.871   6.220  0.2207  0.0752  0.2431
  728MOL0     C98167   3.893   7.816   6.130 -1.1494  0.6994  0.6550
  728MOL0     C98168   4.013   7.778   6.209  0.0267 -0.2991 -0.5883
  728MOL0     O98169   4.096   7.713   6.118 -0.3176 -0.0969 -0.0101
  728MOL0     C98170   4.227   7.708   6.149 -0.8581  0.5398 -0.7315
  728MOL0     C98171   4.313   7.658   6.050  0.2434  0.3323 -0.5138
  728MOL0     C98172   4.451   7.649   6.062 -0.6726 -0.5408  0.3168
  728MOL0     C98173   4.510   7.697   6.180  0.5334  0.1819  1.1136
  728MOL0     C98174   4.660   7.690   6.200  1.0871 -0.5314 -0.3101
  728MOL0     O98175   4.705   7.737   6.318 -0.1748 -0.7712  0.3527
  728MOL0     C98176   4.836   7.706   6.363  0.5100 -0.3188 -0.7923
  728MOL0     C98177   4.888   7.794   6.461  0.1851  0.9512  0.0296
  728MOL0     C98178   5.014   7.776   6.511  0.0895 -0.2515 -0.3627
  728MOL0     C98179   5.101   7.676   6.461  0.8076  0.0651 -0.3432
  728MOL0     O98180   5.222   7.655   6.526  0.3813 -0.3179  0.1565
  728MOL0     C98181   5.323   7.559   6.482  0.0926 -0.0994 -0.6351
  728MOL0     C98182   5.422   7.549   6.596 -0.2972 -0.1252  0.3987
  728MOL0     C98183   5.511   7.668   6.604 -0.4349  0.7926 -1.0783
  728MOL0     C98184   5.610   7.653   6.722  0.5850  0.1126  0.5105
  728MOL0     C98185   5.686   7.789   6.753  0.2575  0.6690  0.4621
  728MOL0     C98186   5.781   7.774   6.876  1.2536  0.2266  0.5850
  728MOL0     C98187   5.843   7.904   6.927  0.8610  0.0869  0.5405
  728MOL0     C98188   5.743   7.996   6.995 -0.2189  0.1933 -0.0697
  728MOL0    Cl98189   5.836   8.125   7.086 -0.5321  0.2852 -0.1142
  728MOL0     C98190   5.043   7.588   6.364 -0.1561  0.0898 -0.2983
  728MOL0     C98191   4.907   7.600   6.316 -0.2733  0.9341 -0.0927
  728MOL0     O98192   4.729   7.646   6.107  0.1828 -0.6207 -0.9687
  728MOL0     C98193   4.429   7.754   6.275  0.3135  0.3745  0.3510
  728MOL0     C98194   4.291   7.755   6.265 -0.2099  0.5104 -0.4495
  728MOL0     N98195   3.550   7.936   6.387  0.2987 -0.1826 -0.2917
  728MOL0     N98196   3.453   7.937   6.468  0.3275 -0.1207 -0.0934
  728MOL0     C98197   2.579   7.746   7.157  0.0212 -0.4030  0.3328
  728MOL0     C98198   2.455   7.778   7.108 -0.4042 -0.3292  0.4859
  728MOL0     C98199   2.145   7.886   6.835  0.6328  0.6968 -0.5496
  728MOL0     C98200   2.026   7.807   6.855  0.1707 -0.2825 -0.6695
  728MOL0     C98201   1.905   7.870   6.837 -0.4513 -0.4944  0.0846
  728MOL0     C98202   1.887   7.996   6.772 -0.5116  0.7286  0.0862
  728MOL0     O98203   1.758   8.019   6.740  0.4142 -1.1096  0.0296
  728MOL0     C98204   1.715   8.142   6.668 -0.3225  0.2007 -0.6186
  728MOL0     C98205   1.586   8.126   6.578 -0.0159 -0.1021 -0.0908
  728MOL0     C98206   1.481   8.032   6.631  0.6452  0.9580 -0.6047
  728MOL0     C98207   1.373   8.105   6.701  0.2389 -0.6378  0.8588
  728MOL0     C98208   1.413   8.159   6.835 -0.3255 -0.4249  0.5554
  728MOL0     C98209   1.444   8.202   6.937 -0.2447  0.1199 -0.4117
  728MOL0     C98210   1.995   8.073   6.749  0.2046 -0.0892  0.1890
  728MOL0     C98211   2.126   8.019   6.771  0.1670  1.2571  0.4992
  728MOL0     C98212   2.246   8.106   6.725  0.2500 -0.6772  0.1972
  728MOL0     H98213   2.376   7.477   6.946 -2.1440  0.7075  1.1200
  728MOL0     H98214   2.582   7.416   7.047 -2.9499 -0.5597 -1.9385
  728MOL0     H98215   2.822   7.696   7.036 -0.9488  1.7500 -0.6871
  728MOL0     H98216   2.854   7.741   7.212  0.2127 -0.2133  0.2096
  728MOL0     H98217   2.974   7.488   7.114  1.8446 -1.3742  1.0766
  728MOL0     H98218   2.995   7.576   7.267  1.0406 -0.1135 -0.4837
  728MOL0     H98219   3.089   7.764   7.150  1.2940  1.2692 -1.9099
  728MOL0     H98220   3.036   7.713   6.991 -0.9654  3.4914  1.1734
  728MOL0     H98221   3.244   7.595   7.181  0.2203 -2.3685  0.4080
  728MOL0     H98222   3.201   7.516   7.032  1.0776 -0.2431  0.3764
  728MOL0     H98223   3.331   7.794   7.037 -0.8975 -1.4264  3.1122
  728MOL0     H98224   3.411   7.647   6.997  2.0592  2.4249  2.6643
  728MOL0     H98225   3.230   7.605   6.812 -0.3589 -0.0802 -0.6478
  728MOL0     H98226   3.188   7.782   6.830  2.1017  1.0384 -0.1312
  728MOL0     H98227   3.436   7.651   6.719 -1.8443  0.4961 -4.9047
  728MOL0     H98228   3.445   7.813   6.790  1.2965 -0.0174 -1.1605
  728MOL0     H98229   3.261   7.704   6.579  0.8691 -1.8255  1.9977
  728MOL0     H98230   3.263   7.876   6.619 -0.4861 -1.4745 -0.9755
  728MOL0     H98231   3.538   7.624   6.492  1.4731  0.4495  1.8198
  728MOL0     H98232   3.796   7.715   6.371 -1.2155  0.8946  1.9818
  728MOL0     H98233   3.685   7.676   6.244 -1.3389  0.0190  0.4747
  728MOL0     H98234   3.704   7.904   6.151 -1.2894  2.1228  2.7436
  728MOL0     H98235   3.810   7.960   6.276  1.4865 -0.2101  0.0909
  728MOL0     H98236   3.923   7.895   6.061 -2.1495  0.6967  0.2043
  728MOL0     H98237   3.852   7.730   6.076  0.4433 -0.2956  0.9606
  728MOL0     H98238   3.987   7.712   6.292 -0.7770  2.0826  1.1421
  728MOL0     H98239   4.058   7.869   6.249  0.6597 -0.4135 -1.0152
  728MOL0     H98240   4.272   7.618   5.958 -1.2612 -1.2778  0.7728
  728MOL0     H98241   4.515   7.596   5.992 -1.7632 -0.5133 -0.7347
  728MOL0     H98242   4.827   7.879   6.490 -0.1652  1.1049 -1.0917
  728MOL0     H98243   5.052   7.836   6.594 -1.0484  2.0377 -1.4096
  728MOL0     H98244   5.277   7.463   6.455 -0.7767  0.4249 -1.0688
  728MOL0     H98245   5.374   7.593   6.391  1.8592 -0.9584 -0.0101
  728MOL0     H98246   5.362   7.556   6.687  2.6084 -0.9561  2.5334
  728MOL0     H98247   5.478   7.455   6.594 -1.2237 -0.6819 -1.5276
  728MOL0     H98248   5.570   7.679   6.513 -1.3203 -1.8497 -2.0577
  728MOL0     H98249   5.441   7.752   6.616 -1.1363 -0.0544  1.3264
  728MOL0     H98250   5.670   7.562   6.713 -2.4940 -2.0698  0.0667
  728MOL0     H98251   5.547   7.632   6.809 -0.6809 -0.9075 -0.5914
  728MOL0     H98252   5.611   7.866   6.773  0.7297  1.3713 -0.3963
  728MOL0     H98253   5.747   7.829   6.672  0.2968 -0.6877 -0.1972
  728MOL0     H98254   5.719   7.730   6.954  0.7727 -0.1338  0.0053
  728MOL0     H98255   5.863   7.710   6.843  0.8997  0.6896 -1.3629
  728MOL0     H98256   5.890   7.950   6.839  0.5638 -2.2819 -0.9389
  728MOL0     H98257   5.921   7.887   7.002  1.1941  1.5799  0.5603
  728MOL0     H98258   5.686   8.044   6.915 -0.4513  0.3692  0.1977
  728MOL0     H98259   5.674   7.946   7.064 -1.1706  0.7629 -0.5796
  728MOL0     H98260   5.098   7.499   6.333  0.1102 -0.8255  2.5407
  728MOL0     H98261   4.879   7.536   6.233  0.4209  0.6050 -0.0726
  728MOL0     H98262   4.473   7.811   6.357 -3.9068  3.7909  0.6176
  728MOL0     H98263   4.228   7.800   6.341  0.7708  1.2588 -0.0611
  728MOL0     H98264   2.642   7.821   7.203  0.9712 -0.0221 -1.5198
  728MOL0     H98265   2.426   7.882   7.119  3.1943  0.8561  0.0809
  728MOL0     H98266   2.034   7.704   6.887 -0.4735 -0.8206 -2.1403
  728MOL0     H98267   1.814   7.811   6.843 -0.2980 -0.7791 -0.3670
  728MOL0     H98268   1.793   8.170   6.597 -0.9244  1.2133 -0.9111
  728MOL0     H98269   1.709   8.221   6.744  2.1771  0.1968 -0.3171
  728MOL0     H98270   1.620   8.088   6.481 -0.5115 -0.6509 -0.0502
  728MOL0     H98271   1.544   8.223   6.549  1.7019  1.0325  0.9868
  728MOL0     H98272   1.531   7.967   6.704  1.8662  0.1101 -2.1105
  728MOL0     H98273   1.447   7.980   6.540  2.2971  1.0609 -1.3222
  728MOL0     H98274   1.336   8.191   6.645 -1.6581 -1.9698 -0.0584
  728MOL0     H98275   1.285   8.041   6.713 -0.6990  0.4401 -0.0571
  728MOL0     H98276   1.475   8.233   7.034  0.1329 -2.0529  0.2110
  728MOL0     H98277   1.983   8.173   6.709 -0.5260  1.1343  3.1754
  728MOL0     H98278   2.312   8.050   6.658  1.6271 -0.1864  1.0909
  728MOL0     H98279   2.211   8.200   6.682 -2.1580 -0.1407  3.0186
  728MOL0     H98280   2.305   8.144   6.810  0.1345  2.1657 -0.8886
  729MOL0     O98281   2.999   7.798   6.040 -0.2166 -0.0672  0.0718
  729MOL0     C98282   2.914   7.884   6.060 -1.3205  0.4127  0.0151
  729MOL0     O98283   2.933   8.014   6.017 -0.4149  0.4240  0.4400
  729MOL0     C98284   3.041   8.028   5.927 -0.0401 -0.1455 -0.6759
  729MOL0     C98285   3.039   7.965   5.807 -0.3842  0.3178  0.0317
  729MOL0     C98286   3.139   7.984   5.713  0.7961  0.4817  0.2308
  729MOL0     C98287   3.245   8.071   5.744 -0.6352  0.3234  0.9326
  729MOL0     O98288   3.344   8.090   5.642  0.1447 -0.3392 -0.6237
  729MOL0     C98289   3.378   8.225   5.605  0.6527  0.2430  0.0001
  729MOL0     C98290   3.475   8.229   5.482  0.2529 -0.0382  0.6446
  729MOL0     C98291   3.515   8.368   5.459  0.2319 -0.2682 -0.3785
  729MOL0     C98292   3.414   8.452   5.377  0.0145 -0.7213  0.2025
  729MOL0     C98293   3.438   8.606   5.397  0.7369 -0.0700  0.3186
  729MOL0     C98294   3.520   8.668   5.288 -0.1833 -0.0657 -0.3204
  729MOL0     C98295   3.522   8.818   5.293  0.4338  0.3461  0.6575
  729MOL0     C98296   3.600   8.870   5.176 -0.7186 -0.3110  0.2777
  729MOL0     N98297   3.645   9.010   5.179  0.2758  0.0445  0.9431
  729MOL0     C98298   3.718   9.050   5.287 -1.0952  0.4571 -0.4556
  729MOL0     C98299   3.756   9.179   5.240  0.4182  0.3332  0.5774
  729MOL0     C98300   3.834   9.285   5.315  0.6358 -0.5284 -0.6132
  729MOL0     C98301   3.976   9.251   5.349 -0.1384  0.3693 -0.5839
  729MOL0     C98302   4.057   9.212   5.227 -0.0976  0.4063  0.1796
  729MOL0     C98303   4.212   9.200   5.249 -0.4265 -0.2608 -0.2904
  729MOL0     O98304   4.277   9.139   5.139  1.3747 -0.3580  0.4656
  729MOL0     C98305   4.409   9.158   5.120 -0.0365  0.0357 -0.0847
  729MOL0     C98306   4.491   9.215   5.221 -0.9579  0.0170 -0.4891
  729MOL0     C98307   4.624   9.221   5.201 -0.8226 -0.9419 -0.0187
  729MOL0     C98308   4.678   9.190   5.073  0.4014 -1.0290  0.0996
  729MOL0     C98309   4.819   9.222   5.050  0.0915  0.0662 -0.3972
  729MOL0     O98310   4.892   9.280   5.149  0.3650  0.6540 -0.0499
  729MOL0     C98311   5.022   9.326   5.125  0.2394  0.4299  0.4240
  729MOL0     C98312   5.112   9.306   5.229  0.1019 -0.0686 -0.8134
  729MOL0     C98313   5.247   9.348   5.217 -0.3162  0.3029  1.0766
  729MOL0     C98314   5.299   9.404   5.098  0.8117  0.1589 -1.1851
  729MOL0     O98315   5.426   9.455   5.091  0.1345 -0.0582  0.2188
  729MOL0     C98316   5.469   9.503   4.958  1.2277 -0.1356  0.1130
  729MOL0     C98317   5.605   9.577   4.933 -0.4491  1.2514 -0.3876
  729MOL0     C98318   5.617   9.704   5.018 -0.2766 -0.0286 -0.2461
  729MOL0     C98319   5.760   9.725   5.064  0.0196 -0.3444 -0.4750
  729MOL0     C98320   5.843   9.774   4.942  0.2087 -0.5275  0.6590
  729MOL0     C98321   5.985   9.816   4.963 -1.0545  0.1782 -0.8316
  729MOL0     C98322   6.065   9.689   5.011 -0.1644 -0.4445  0.3262
  729MOL0     C98323   6.210   9.744   5.031  0.7926 -0.6209 -0.4029
  729MOL0    Cl98324   6.229   9.883   5.138  0.3812 -0.5152  0.2876
  729MOL0     C98325   5.205   9.408   4.990 -0.3249 -0.1549 -0.4330
  729MOL0     C98326   5.072   9.372   5.000  0.2229  0.0936 -0.6271
  729MOL0     O98327   4.866   9.184   4.944 -0.2154  0.4584  0.2800
  729MOL0     C98328   4.594   9.137   4.974 -0.2716  0.3604  0.4265
  729MOL0     C98329   4.467   9.112   5.002  1.3052 -0.1152  0.7445
  729MOL0     N98330   3.683   9.216   5.132 -0.1025 -0.2550 -0.8545
  729MOL0     N98331   3.616   9.112   5.099 -0.5045 -0.4855  0.4363
  729MOL0     C98332   3.257   8.130   5.871 -0.1217  1.0572 -0.3349
  729MOL0     C98333   3.158   8.103   5.962  0.4530 -0.5222 -0.2447
  729MOL0     C98334   2.807   7.841   6.149  0.0205  0.7290  0.4224
  729MOL0     C98335   2.782   7.704   6.158 -0.0398  0.2639  0.3867
  729MOL0     C98336   2.686   7.653   6.242  0.4938  0.2158 -0.4478
  729MOL0     C98337   2.602   7.743   6.309 -0.2418  0.5920 -0.0108
  729MOL0     O98338   2.507   7.684   6.395  1.3743 -0.5885  0.0923
  729MOL0     C98339   2.385   7.752   6.419 -0.1071  0.1908 -0.0679
  729MOL0     C98340   2.317   7.693   6.543 -0.0648  0.9140 -0.3604
  729MOL0     C98341   2.276   7.541   6.531 -0.1900 -0.0191  0.6923
  729MOL0     C98342   2.173   7.507   6.640  0.7224  0.9971 -0.2314
  729MOL0     C98343   2.173   7.365   6.677  0.5952 -0.2030  0.7559
  729MOL0     C98344   2.169   7.250   6.702 -0.7932 -0.5260  0.1333
  729MOL0     C98345   2.615   7.879   6.297 -0.1566 -1.0761  0.3925
  729MOL0     C98346   2.717   7.931   6.213 -0.5102  0.0112 -0.0448
  729MOL0     C98347   2.730   8.082   6.204  0.3547 -0.1039  0.2327
  729MOL0     H98348   2.949   7.915   5.775 -1.6837  2.2124  0.5658
  729MOL0     H98349   3.133   7.920   5.626 -1.2117 -1.1537  1.4696
  729MOL0     H98350   3.282   8.268   5.577 -0.0247 -0.0859  1.7209
  729MOL0     H98351   3.404   8.287   5.691  0.7410  0.7832 -0.4081
  729MOL0     H98352   3.427   8.184   5.395  1.8664  0.5023 -0.5741
  729MOL0     H98353   3.557   8.162   5.508 -1.3378 -2.2852  0.1786
  729MOL0     H98354   3.614   8.374   5.413  0.4883  1.4706  0.3316
  729MOL0     H98355   3.538   8.423   5.550  2.1832 -0.5110 -0.6761
  729MOL0     H98356   3.406   8.419   5.273  0.7506 -2.7323  0.7452
  729MOL0     H98357   3.314   8.431   5.416 -1.6020  3.0977 -1.3911
  729MOL0     H98358   3.342   8.659   5.399  0.4692 -0.4884 -0.6956
  729MOL0     H98359   3.482   8.624   5.495 -0.9103 -0.7314  1.2252
  729MOL0     H98360   3.618   8.620   5.282  0.0077  0.2813 -0.0579
  729MOL0     H98361   3.474   8.645   5.191 -0.7105 -0.7480  0.0817
  729MOL0     H98362   3.564   8.850   5.388 -0.4145 -0.1522  1.2236
  729MOL0     H98363   3.420   8.858   5.288  0.0090 -0.5403  1.7428
  729MOL0     H98364   3.690   8.810   5.159 -1.3761 -1.1824 -0.2102
  729MOL0     H98365   3.540   8.859   5.086 -1.3610  0.5691  0.5819
  729MOL0     H98366   3.759   9.002   5.376 -0.6819 -1.4121 -1.6195
  729MOL0     H98367   3.828   9.378   5.256 -0.9518 -0.1623  0.0733
  729MOL0     H98368   3.792   9.310   5.413 -0.8164  0.8412 -1.5178
  729MOL0     H98369   4.022   9.335   5.401  0.3695 -1.0248  1.3482
  729MOL0     H98370   3.974   9.169   5.423  2.6101 -0.5963 -1.4698
  729MOL0     H98371   4.031   9.284   5.149 -0.0116 -1.7813 -1.9996
  729MOL0     H98372   4.017   9.120   5.184  2.1412 -0.2921 -0.5498
  729MOL0     H98373   4.230   9.138   5.337  1.1100  0.2242 -0.2360
  729MOL0     H98374   4.250   9.301   5.269 -1.7137  0.0921  0.5072
  729MOL0     H98375   4.453   9.225   5.322  1.7469 -0.5825  0.6549
  729MOL0     H98376   4.683   9.239   5.290 -3.1565  0.0538  1.4175
  729MOL0     H98377   5.078   9.272   5.326  2.2424 -0.7565 -0.2483
  729MOL0     H98378   5.319   9.327   5.296  0.3662 -0.1659  0.3501
  729MOL0     H98379   5.459   9.421   4.886  0.7936 -0.2783  0.3365
  729MOL0     H98380   5.401   9.587   4.939  1.2179 -0.4281 -1.2907
  729MOL0     H98381   5.688   9.513   4.964 -2.5675 -2.4778 -1.7313
  729MOL0     H98382   5.614   9.602   4.827 -2.6565  0.3003 -0.8650
  729MOL0     H98383   5.587   9.799   4.973 -0.4760 -0.0203 -0.0988
  729MOL0     H98384   5.552   9.690   5.105 -2.7206 -0.7881 -2.1000
  729MOL0     H98385   5.801   9.638   5.115  0.7241 -0.8256 -1.8165
  729MOL0     H98386   5.755   9.806   5.137 -0.8275 -1.6160  0.9338
  729MOL0     H98387   5.795   9.860   4.896  1.5245  0.6644  1.4296
  729MOL0     H98388   5.848   9.700   4.862 -0.0197 -0.8526  0.9437
  729MOL0     H98389   6.029   9.848   4.868  0.9036  1.6439  0.4975
  729MOL0     H98390   5.989   9.908   5.022 -0.8821  0.2623 -0.9747
  729MOL0     H98391   6.074   9.619   4.927  0.2492 -1.7448  1.4187
  729MOL0     H98392   6.022   9.642   5.100 -1.5757 -0.5532 -0.3789
  729MOL0     H98393   6.263   9.663   5.083  1.7426  1.0975  1.4081
  729MOL0     H98394   6.265   9.745   4.936  0.8230 -2.0233 -0.4350
  729MOL0     H98395   5.228   9.440   4.888 -0.3883  0.4242 -0.2706
  729MOL0     H98396   5.020   9.389   4.907  2.6120  2.0401 -1.7263
  729MOL0     H98397   4.642   9.104   4.883  0.5183  1.9869  0.2341
  729MOL0     H98398   4.405   9.071   4.923  1.0923  2.5321 -0.5868
  729MOL0     H98399   3.345   8.183   5.907  0.1334  0.2391  0.2886
  729MOL0     H98400   3.156   8.142   6.063 -1.4227 -1.2393  0.0346
  729MOL0     H98401   2.844   7.635   6.103 -0.1484  0.8889 -0.5467
  729MOL0     H98402   2.686   7.546   6.257  0.1837  0.0650 -1.4536
  729MOL0     H98403   2.317   7.737   6.334 -0.2436  2.3190 -0.3989
  729MOL0     H98404   2.390   7.861   6.427 -1.4798  0.3042 -0.4556
  729MOL0     H98405   2.235   7.761   6.570  1.3063  1.5118  2.8174
  729MOL0     H98406   2.387   7.699   6.627 -0.0874  0.5624 -0.3186
  729MOL0     H98407   2.367   7.484   6.550  0.0526 -0.8755 -2.5545
  729MOL0     H98408   2.244   7.512   6.431  0.7363  0.9751  0.0907
  729MOL0     H98409   2.185   7.566   6.731  0.4223 -1.1352  1.2699
  729MOL0     H98410   2.071   7.529   6.605  0.5864  2.9747  1.2215
  729MOL0     H98411   2.147   7.151   6.738  1.1456 -0.5647  1.3307
  729MOL0     H98412   2.555   7.945   6.358 -1.1886 -1.0436 -0.6234
  729MOL0     H98413   2.687   8.117   6.110 -0.7472  1.7511  1.3750
  729MOL0     H98414   2.660   8.127   6.274 -0.6110 -0.4852 -0.4676
  729MOL0     H98415   2.831   8.111   6.232  0.7041 -1.8976  1.0010
  730MOL0     O98416   3.484   6.542   9.143  1.5119  0.6338  0.1804
  730MOL0     C98417   3.397   6.584   9.069 -0.3378  0.1445 -0.3550
  730MOL0     O98418   3.413   6.585   8.931 -0.8354 -0.4802  0.5015
  730MOL0     C98419   3.534   6.574   8.870 -0.2213  0.5073 -0.8096
  730MOL0     C98420   3.637   6.482   8.911 -0.2636  0.0196 -0.7906
  730MOL0     C98421   3.757   6.469   8.851  0.4404  0.6528  0.1806
  730MOL0     C98422   3.785   6.562   8.745  0.6830  0.1234 -0.2308
  730MOL0     O98423   3.911   6.581   8.683  0.0757  0.7375 -0.1735
  730MOL0     C98424   4.030   6.520   8.738  0.6408  0.3809 -0.2249
  730MOL0     C98425   4.158   6.598   8.699  0.5652  1.4558 -0.6481
  730MOL0     C98426   4.278   6.509   8.718  0.9749  0.5656  0.6359
  730MOL0     C98427   4.393   6.588   8.782 -0.0437  1.0035 -0.6484
  730MOL0     C98428   4.521   6.509   8.777  0.3148  0.9052 -0.1619
  730MOL0     C98429   4.644   6.571   8.834  0.4157 -0.2441  0.0285
  730MOL0     C98430   4.645   6.598   8.992 -0.0968 -0.1122  0.6502
  730MOL0     C98431   4.769   6.670   9.034 -0.4192  0.3676 -0.4386
  730MOL0     N98432   4.879   6.583   9.086  0.9274  0.4785  0.3588
  730MOL0     C98433   4.900   6.564   9.218 -1.1518  0.0350 -0.0837
  730MOL0     C98434   5.027   6.505   9.224 -0.3719 -0.7648 -0.0734
  730MOL0     C98435   5.100   6.466   9.346 -0.0264 -0.3815  0.4941
  730MOL0     C98436   5.240   6.537   9.349 -0.5490  0.0282  0.2216
  730MOL0     C98437   5.351   6.481   9.252 -0.2709  0.1604  0.0993
  730MOL0     C98438   5.492   6.526   9.292  0.7768  0.0865  0.3832
  730MOL0     O98439   5.512   6.453   9.411 -0.0897 -0.2106 -0.4182
  730MOL0     C98440   5.612   6.499   9.494 -0.2344  0.2590 -0.0314
  730MOL0     C98441   5.691   6.616   9.476 -1.0909 -0.0091 -0.3316
  730MOL0     C98442   5.786   6.652   9.570 -0.0995 -0.1654  0.2553
  730MOL0     C98443   5.818   6.565   9.675  0.0706 -0.6815 -0.2549
  730MOL0     C98444   5.925   6.599   9.778  0.5890 -0.3079  0.5890
  730MOL0     O98445   5.979   6.724   9.760 -0.0662 -0.0825 -0.3710
  730MOL0     C98446   6.084   6.764   9.841  0.1060  0.1669 -0.0104
  730MOL0     C98447   6.046   6.835   9.951 -0.1714 -0.4328  0.7302
  730MOL0     C98448   6.154   6.879  10.027 -0.5814 -0.0651  0.1356
  730MOL0     C98449   6.281   6.830  10.015 -0.7811  0.5780  0.0904
  730MOL0     O98450   6.384   6.872  10.094 -0.0887  0.3948 -0.3695
  730MOL0     C98451   6.363   6.938  10.220  0.1397 -0.2560  0.3680
  730MOL0     C98452   6.480   6.923  10.319  0.4019 -0.8658  0.4664
  730MOL0     C98453   6.604   6.994  10.283 -0.3799 -0.3199  0.0913
  730MOL0     C98454   6.715   6.966  10.394  0.9604 -0.3352  0.8419
  730MOL0     C98455   6.858   7.006  10.363 -1.0154 -0.5104 -0.1660
  730MOL0     C98456   6.946   6.943  10.476  0.0020 -0.6627  0.3399
  730MOL0     C98457   7.087   6.981  10.445 -0.7610 -0.2932  0.0310
  730MOL0     C98458   7.176   6.966  10.567 -0.7096  0.1847  0.8376
  730MOL0    Cl98459   7.123   7.078  10.692 -0.6028  0.4638  0.3699
  730MOL0     C98460   6.315   6.757   9.899  0.5476 -0.0886 -0.3494
  730MOL0     C98461   6.212   6.719   9.815  0.6417  0.0426  0.1548
  730MOL0     O98462   5.959   6.521   9.861  0.2686  0.2837 -0.3689
  730MOL0     C98463   5.741   6.451   9.694  0.1713  0.0172 -0.0762
  730MOL0     C98464   5.647   6.422   9.600  0.8933 -0.4413 -0.1599
  730MOL0     N98465   5.076   6.498   9.096 -0.6215  0.3268  0.7702
  730MOL0     N98466   4.990   6.547   9.012 -1.0103  0.0013  0.1998
  730MOL0     C98467   3.682   6.642   8.698  0.3426 -1.1285  0.6968
  730MOL0     C98468   3.557   6.650   8.763 -0.2386  0.9052  0.8459
  730MOL0     C98469   3.284   6.652   9.140  0.4636 -0.1716  0.1499
  730MOL0     C98470   3.292   6.659   9.276  0.7388 -0.1391 -0.0942
  730MOL0     C98471   3.188   6.713   9.349 -0.4609  0.3503 -0.0732
  730MOL0     C98472   3.075   6.758   9.289 -0.3747  0.6792  0.0684
  730MOL0     O98473   2.981   6.806   9.372  0.3743  0.3059 -0.5506
  730MOL0     C98474   2.899   6.925   9.334  0.0500 -0.6909 -0.1383
  730MOL0     C98475   2.984   7.046   9.346 -0.4621 -0.1873  0.6080
  730MOL0     C98476   2.909   7.177   9.350  0.2222 -0.1166  0.7025
  730MOL0     C98477   2.858   7.218   9.500 -0.5727 -0.0618  0.1968
  730MOL0     C98478   2.753   7.323   9.503  0.4116 -0.6167  0.5559
  730MOL0     C98479   2.675   7.409   9.523 -0.0841 -0.3978  0.3071
  730MOL0     C98480   3.069   6.759   9.153  0.5871  0.1455  0.0941
  730MOL0     C98481   3.170   6.700   9.075  0.1077  0.3355  0.8964
  730MOL0     C98482   3.156   6.703   8.926  0.0197 -0.1855  0.3471
  730MOL0     H98483   3.625   6.409   8.990  1.3528 -1.2813 -1.6789
  730MOL0     H98484   3.827   6.397   8.892 -1.1650 -0.4978  1.0389
  730MOL0     H98485   4.024   6.516   8.847  2.6712 -1.7361 -0.0959
  730MOL0     H98486   4.034   6.417   8.703  1.7120  0.5206 -0.5725
  730MOL0     H98487   4.174   6.691   8.753  0.5680  0.4581  1.1349
  730MOL0     H98488   4.149   6.614   8.591 -2.0613 -0.1645 -0.7586
  730MOL0     H98489   4.311   6.484   8.616  2.1047  3.9909  0.0278
  730MOL0     H98490   4.250   6.421   8.776  1.8020  1.5290  2.5866
  730MOL0     H98491   4.410   6.684   8.732 -1.9179  1.0833 -1.2305
  730MOL0     H98492   4.364   6.604   8.886  1.4218  0.6448 -0.1623
  730MOL0     H98493   4.512   6.406   8.813  0.8863  0.5379 -1.0325
  730MOL0     H98494   4.552   6.502   8.673 -0.2631  0.1017 -0.2917
  730MOL0     H98495   4.729   6.511   8.801 -0.0691 -0.9224  0.0001
  730MOL0     H98496   4.651   6.666   8.780 -0.4887 -0.4638 -0.4797
  730MOL0     H98497   4.635   6.504   9.048  0.3656 -1.0708 -0.8294
  730MOL0     H98498   4.568   6.670   9.019  0.8391  0.4108  2.0612
  730MOL0     H98499   4.806   6.723   8.946 -1.5736  3.5918  0.8455
  730MOL0     H98500   4.737   6.742   9.110 -0.4399  0.5062 -0.5796
  730MOL0     H98501   4.833   6.582   9.301  0.6280  2.6138  0.9211
  730MOL0     H98502   5.051   6.501   9.437  2.0417  0.6383  1.2845
  730MOL0     H98503   5.111   6.358   9.356  0.8109 -0.1486  2.6078
  730MOL0     H98504   5.220   6.644   9.340  0.8353  0.1285 -3.1183
  730MOL0     H98505   5.280   6.518   9.449 -0.3332  0.7818  0.2802
  730MOL0     H98506   5.341   6.516   9.149 -0.5617  2.5319  0.8892
  730MOL0     H98507   5.347   6.371   9.252  0.0016  0.1398 -0.9029
  730MOL0     H98508   5.502   6.634   9.309  1.5447  0.1636 -0.4514
  730MOL0     H98509   5.556   6.502   9.207  0.1867  2.2701 -0.7710
  730MOL0     H98510   5.674   6.688   9.396  1.5378  3.3422  1.8610
  730MOL0     H98511   5.840   6.745   9.554  0.8040 -0.5023  1.2199
  730MOL0     H98512   5.945   6.871   9.968  0.6675  0.9592  3.2863
  730MOL0     H98513   6.127   6.946  10.108  0.6370  0.0297  0.4735
  730MOL0     H98514   6.358   7.045  10.197 -0.7343 -0.5338 -0.8444
  730MOL0     H98515   6.268   6.914  10.268  0.6451 -0.7793  1.1425
  730MOL0     H98516   6.448   6.973  10.411 -0.8847  1.2438 -1.0333
  730MOL0     H98517   6.504   6.818  10.337  1.5650 -0.2930  2.5770
  730MOL0     H98518   6.643   6.956  10.187 -2.0817  0.6770 -1.0513
  730MOL0     H98519   6.586   7.102  10.280 -0.3309 -0.3140 -0.0153
  730MOL0     H98520   6.718   6.858  10.409 -0.3019 -0.2702  1.6854
  730MOL0     H98521   6.680   7.018  10.484 -0.1125  0.7228 -0.1403
  730MOL0     H98522   6.884   7.110  10.345 -1.4578 -0.7999 -3.0495
  730MOL0     H98523   6.884   6.958  10.268  0.4374 -0.2876  0.0986
  730MOL0     H98524   6.911   6.975  10.574 -1.9288 -2.8863  0.4691
  730MOL0     H98525   6.944   6.834  10.468 -2.0401 -0.5410 -1.5589
  730MOL0     H98526   7.100   7.085  10.415  1.2782 -0.9094 -1.4387
  730MOL0     H98527   7.127   6.921  10.363  1.8204  2.3051 -0.7678
  730MOL0     H98528   7.166   6.862  10.600 -0.3768 -0.1991 -0.2460
  730MOL0     H98529   7.279   6.990  10.539 -0.4520  0.7960  2.2210
  730MOL0     H98530   6.418   6.725   9.887  1.5363  1.8622  2.0389
  730MOL0     H98531   6.221   6.655   9.728 -0.7049 -0.4173  0.3264
  730MOL0     H98532   5.756   6.383   9.778 -1.3411 -2.0729 -1.3841
  730MOL0     H98533   5.600   6.324   9.607  3.0864 -1.6252 -0.9275
  730MOL0     H98534   3.712   6.707   8.616  3.7255 -2.1635  0.9309
  730MOL0     H98535   3.474   6.708   8.725  1.7854  3.1714 -0.3653
  730MOL0     H98536   3.370   6.623   9.342 -1.4596 -1.6486  1.8516
  730MOL0     H98537   3.180   6.715   9.458 -1.6308  3.0906 -0.1360
  730MOL0     H98538   2.826   6.939   9.415  1.1383  0.3511  0.6861
  730MOL0     H98539   2.860   6.919   9.232  0.1331 -4.3490 -0.0884
  730MOL0     H98540   3.066   7.045   9.273 -0.8539  2.4621  0.0083
  730MOL0     H98541   3.033   7.040   9.444 -0.7176 -2.0302  0.6481
  730MOL0     H98542   2.821   7.158   9.289  2.4885 -2.2630 -2.1457
  730MOL0     H98543   2.974   7.258   9.316  2.2574 -1.4079  1.3667
  730MOL0     H98544   2.819   7.131   9.555  1.9252  0.0058  2.2634
  730MOL0     H98545   2.937   7.259   9.564 -2.5544  0.4314  2.4904
  730MOL0     H98546   2.611   7.489   9.552 -0.8295 -1.2534  1.1000
  730MOL0     H98547   2.977   6.785   9.104 -0.1384 -2.1358  0.1525
  730MOL0     H98548   3.073   6.762   8.886  0.5293  1.9270  2.2165
  730MOL0     H98549   3.242   6.756   8.885  0.4087 -0.9960  0.1002
  730MOL0     H98550   3.148   6.604   8.879 -1.4804  0.2451 -0.3857
  731MOL0     O98551   6.986  11.167   5.760  0.5192 -0.3455 -0.0676
  731MOL0     C98552   7.016  11.065   5.826 -0.5392 -0.7809 -0.5790
  731MOL0     O98553   7.140  11.033   5.863  0.8069 -0.0619 -0.0298
  731MOL0     C98554   7.234  11.125   5.855  0.1778 -0.0402 -0.2896
  731MOL0     C98555   7.273  11.159   5.725  0.3154  0.1823  0.1628
  731MOL0     C98556   7.371  11.257   5.703 -0.1679 -0.0148 -0.1640
  731MOL0     C98557   7.433  11.329   5.812  0.6147 -0.4197  0.7584
  731MOL0     O98558   7.516  11.434   5.790 -0.4857 -0.3960  0.9251
  731MOL0     C98559   7.513  11.540   5.884  0.1883 -0.1205 -0.1274
  731MOL0     C98560   7.591  11.664   5.832  0.1866 -0.4211  1.1993
  731MOL0     C98561   7.741  11.621   5.823 -0.6283 -0.0593  0.5702
  731MOL0     C98562   7.825  11.748   5.817 -0.0262 -0.1139  0.2874
  731MOL0     C98563   7.965  11.712   5.790  0.1848 -0.0042 -0.4693
  731MOL0     C98564   8.053  11.834   5.819  0.3878 -0.7282 -0.7914
  731MOL0     C98565   8.194  11.806   5.772  0.5230  0.6101  0.1342
  731MOL0     C98566   8.280  11.928   5.777  0.3104 -0.4349 -0.8201
  731MOL0     N98567   8.415  11.888   5.740  0.3362 -0.2415  0.1405
  731MOL0     C98568   8.521  11.857   5.823  0.1157  0.0289  0.1842
  731MOL0     C98569   8.632  11.869   5.740  0.6975 -0.2803 -0.5359
  731MOL0     C98570   8.765  11.845   5.793 -0.2230  0.6725 -0.1861
  731MOL0     C98571   8.826  11.711   5.745 -0.1330 -0.0576  0.3085
  731MOL0     C98572   8.972  11.702   5.774 -0.8441 -0.3302 -0.4653
  731MOL0     C98573   9.034  11.567   5.757  0.0321  0.4237 -0.5166
  731MOL0     O98574   9.159  11.575   5.828 -0.3804 -0.4178  0.4154
  731MOL0     C98575   9.274  11.520   5.778  0.5362 -0.7054 -0.3673
  731MOL0     C98576   9.388  11.567   5.837 -1.0285  0.4228  0.2856
  731MOL0     C98577   9.515  11.524   5.793  0.5957 -0.2969 -0.4576
  731MOL0     C98578   9.529  11.429   5.694 -0.0159  0.7827 -0.2921
  731MOL0     C98579   9.664  11.374   5.661  0.4733  0.0564 -0.4867
  731MOL0     O98580   9.762  11.461   5.683 -0.0976  0.6607  0.6637
  731MOL0     C98581   9.894  11.423   5.691 -0.8358  0.7355  0.1937
  731MOL0     C98582   9.986  11.469   5.597 -0.2515  0.1989 -0.0411
  731MOL0     C98583  10.121  11.448   5.619 -0.0550 -0.3130 -0.4649
  731MOL0     C98584  10.168  11.370   5.731  0.7522  0.6574  0.4871
  731MOL0     O98585  10.293  11.349   5.788 -0.3432 -0.6156  0.5804
  731MOL0     C98586  10.394  11.437   5.735 -0.6617  0.4979  0.4071
  731MOL0     C98587  10.526  11.424   5.822  0.1130 -0.9518  0.3824
  731MOL0     C98588  10.640  11.514   5.782 -1.0634  0.1561 -0.7063
  731MOL0     C98589  10.761  11.488   5.871 -0.4882 -0.5142 -0.2733
  731MOL0     C98590  10.892  11.539   5.827 -0.0701  0.5260  0.1290
  731MOL0     C98591  10.983  11.605   5.936 -0.1780 -0.1656  0.0677
  731MOL0     C98592  11.130  11.608   5.891  0.1639  0.6464 -0.2352
  731MOL0     C98593  11.227  11.653   6.001  0.0716 -0.6408  0.0490
  731MOL0    Cl98594  11.409  11.644   5.957 -0.1855  0.2353 -0.5138
  731MOL0     C98595  10.070  11.317   5.813 -0.8941 -0.1942 -0.0494
  731MOL0     C98596   9.940  11.336   5.790  0.2550 -0.0814  0.6610
  731MOL0     O98597   9.673  11.252   5.640  0.0850 -0.0183 -0.2758
  731MOL0     C98598   9.413  11.380   5.637  0.9459  0.3155  0.5263
  731MOL0     C98599   9.278  11.419   5.684  0.1434 -0.2246  0.3328
  731MOL0     N98600   8.596  11.908   5.612 -0.1788 -0.5095 -0.4564
  731MOL0     N98601   8.468  11.923   5.620  0.1959 -0.3222  0.4636
  731MOL0     C98602   7.401  11.285   5.940  0.4566  0.2178 -0.2734
  731MOL0     C98603   7.302  11.181   5.965  0.5884 -0.0208 -0.3579
  731MOL0     C98604   6.914  10.976   5.872  0.8315  0.2032 -0.7290
  731MOL0     C98605   6.941  10.887   5.977 -0.0540  0.3055 -0.8288
  731MOL0     C98606   6.853  10.796   6.034 -0.8107  0.4733 -0.8208
  731MOL0     C98607   6.722  10.784   5.983  0.1808 -0.7354  0.2439
  731MOL0     O98608   6.640  10.701   6.045 -0.0629  0.2477 -0.0885
  731MOL0     C98609   6.506  10.701   6.007  1.0491  0.4125 -0.0503
  731MOL0     C98610   6.423  10.593   6.080  0.4334 -0.2004  0.3980
  731MOL0     C98611   6.471  10.452   6.050 -0.2222 -0.2421 -0.4759
  731MOL0     C98612   6.472  10.416   5.906 -0.3454 -0.1395 -0.2796
  731MOL0     C98613   6.339  10.420   5.847 -0.8368 -0.8759  0.4869
  731MOL0     C98614   6.231  10.422   5.801 -0.2771  0.6578  1.1586
  731MOL0     C98615   6.687  10.865   5.871  0.2815  0.4937 -0.2790
  731MOL0     C98616   6.782  10.962   5.819  0.5870  0.3854  0.3758
  731MOL0     C98617   6.730  11.048   5.699 -0.2108  0.0783  0.6287
  731MOL0     H98618   7.212  11.116   5.646  1.7579 -1.7792  0.0361
  731MOL0     H98619   7.396  11.266   5.598  0.0068 -1.0267 -0.2178
  731MOL0     H98620   7.409  11.569   5.897  0.5027  0.5227  1.1041
  731MOL0     H98621   7.544  11.512   5.985 -2.0727 -0.0390  0.6489
  731MOL0     H98622   7.581  11.744   5.906  1.0296  2.8609 -1.9507
  731MOL0     H98623   7.556  11.699   5.735 -1.4835 -1.1899  1.4898
  731MOL0     H98624   7.762  11.560   5.735 -2.7299  1.5284 -1.1495
  731MOL0     H98625   7.766  11.570   5.917 -0.3122  0.2597  0.6597
  731MOL0     H98626   7.794  11.819   5.740 -3.1834  0.8129  2.2148
  731MOL0     H98627   7.820  11.805   5.911  2.0171 -1.5661  1.3519
  731MOL0     H98628   7.992  11.631   5.858 -0.5637  0.1874  0.0641
  731MOL0     H98629   7.966  11.674   5.687 -1.5078 -0.7073 -0.2628
  731MOL0     H98630   8.020  11.922   5.763 -0.6229  0.5169  1.6297
  731MOL0     H98631   8.056  11.861   5.925 -1.5412  1.6789 -1.2679
  731MOL0     H98632   8.181  11.758   5.675 -2.4113 -2.3029  1.7640
  731MOL0     H98633   8.242  11.729   5.833 -0.0515  0.5766  0.5585
  731MOL0     H98634   8.240  12.001   5.707  0.6923 -1.3790 -2.0569
  731MOL0     H98635   8.293  11.962   5.880  2.0366 -2.2218 -0.3716
  731MOL0     H98636   8.521  11.838   5.930 -2.5629  0.0384  0.2314
  731MOL0     H98637   8.833  11.928   5.771  0.6042  0.3655  1.1044
  731MOL0     H98638   8.760  11.832   5.902  0.2190 -1.4762 -0.3854
  731MOL0     H98639   8.778  11.629   5.800 -2.1570  0.8626  0.0169
  731MOL0     H98640   8.806  11.688   5.640  0.6340  1.9133 -0.3031
  731MOL0     H98641   8.984  11.727   5.879 -0.0420  1.1384 -0.8787
  731MOL0     H98642   9.032  11.775   5.718  1.2716 -1.7618 -0.1792
  731MOL0     H98643   9.048  11.559   5.649 -2.3077 -0.8402 -0.7879
  731MOL0     H98644   8.968  11.488   5.795 -0.0682  0.7376 -0.0211
  731MOL0     H98645   9.379  11.631   5.925 -0.7779 -2.6720  2.7271
  731MOL0     H98646   9.601  11.568   5.843 -0.4998  0.2334  1.0452
  731MOL0     H98647   9.954  11.532   5.515  0.3269 -1.8216 -1.8900
  731MOL0     H98648  10.187  11.486   5.542 -1.1024 -0.7057 -1.5844
  731MOL0     H98649  10.419  11.409   5.632 -2.0907  1.2627 -0.1849
  731MOL0     H98650  10.366  11.542   5.721 -0.0614  0.4141 -1.9475
  731MOL0     H98651  10.500  11.440   5.927  1.2371 -1.7312  0.7920
  731MOL0     H98652  10.560  11.322   5.807  1.2995 -0.2640 -2.2063
  731MOL0     H98653  10.672  11.496   5.679  3.5775 -1.2414  0.7497
  731MOL0     H98654  10.611  11.618   5.797  1.1158  0.5995  0.8730
  731MOL0     H98655  10.771  11.381   5.891 -2.2775 -0.6167  0.2421
  731MOL0     H98656  10.738  11.538   5.965  0.7517  2.0388 -1.2179
  731MOL0     H98657  10.874  11.616   5.751  1.3693 -0.4433 -1.2362
  731MOL0     H98658  10.954  11.460   5.785 -2.0740 -1.3086  0.4801
  731MOL0     H98659  10.943  11.706   5.946 -2.3579 -0.6759 -2.3817
  731MOL0     H98660  10.973  11.555   6.033  1.4574 -0.1559  0.2702
  731MOL0     H98661  11.155  11.663   5.800  0.0964  0.1288 -0.5705
  731MOL0     H98662  11.165  11.510   5.860  0.4504  0.8877 -0.6911
  731MOL0     H98663  11.199  11.758   6.018  0.6961 -0.3414 -0.6760
  731MOL0     H98664  11.208  11.597   6.093  1.5624 -3.1679 -1.0848
  731MOL0     H98665  10.093  11.252   5.897  0.1972 -0.0381 -0.2225
  731MOL0     H98666   9.871  11.296   5.863  1.3824 -0.3585  1.5991
  731MOL0     H98667   9.423  11.314   5.551 -0.0634  1.5251 -0.5759
  731MOL0     H98668   9.194  11.367   5.640  1.2392 -1.1227 -0.7777
  731MOL0     H98669   7.441  11.322   6.033 -0.7150  2.4273 -0.5776
  731MOL0     H98670   7.271  11.147   6.063 -1.0359  0.0259 -0.8198
  731MOL0     H98671   7.039  10.895   6.021  1.0358  0.3845 -3.1337
  731MOL0     H98672   6.879  10.732   6.118  0.5202  1.2522 -0.6069
  731MOL0     H98673   6.498  10.688   5.898 -0.3289 -1.4785  0.2191
  731MOL0     H98674   6.454  10.795   6.025 -3.5222 -1.7052 -0.6338
  731MOL0     H98675   6.324  10.614   6.040  2.2369  3.1611 -3.0652
  731MOL0     H98676   6.424  10.615   6.187 -0.9384  0.4624  0.2951
  731MOL0     H98677   6.406  10.380   6.101 -0.7260 -0.3670 -1.2742
  731MOL0     H98678   6.575  10.450   6.084 -0.6981 -0.5062  1.0406
  731MOL0     H98679   6.546  10.481   5.858 -0.1261 -0.6576 -0.6553
  731MOL0     H98680   6.513  10.315   5.895 -4.0535 -2.0170  1.2673
  731MOL0     H98681   6.140  10.404   5.746 -1.8312 -2.3359  4.2792
  731MOL0     H98682   6.593  10.849   5.819 -0.1012 -1.8938  1.0068
  731MOL0     H98683   6.792  11.043   5.609  0.6085  2.7777  0.9717
  731MOL0     H98684   6.630  11.010   5.674 -1.6920  4.6071 -1.3869
  731MOL0     H98685   6.726  11.151   5.733  1.7749  0.8346 -1.2425
  732MOL0     O98686   7.501   1.546   3.791  0.5372  0.4594 -0.4793
  732MOL0     C98687   7.562   1.620   3.860 -0.5752 -0.2145  0.1908
  732MOL0     O98688   7.693   1.660   3.835 -0.7936  0.4292 -0.5833
  732MOL0     C98689   7.754   1.608   3.725  0.0365  0.7862  0.4119
  732MOL0     C98690   7.789   1.467   3.714 -0.9528  0.0423  0.0803
  732MOL0     C98691   7.862   1.424   3.604  0.0960 -0.2759 -0.9482
  732MOL0     C98692   7.892   1.513   3.498 -0.1317 -0.0719  0.4018
  732MOL0     O98693   7.954   1.459   3.385 -0.3944  0.5530 -1.0286
  732MOL0     C98694   8.018   1.533   3.292  0.3188 -0.1376  0.8091
  732MOL0     C98695   8.119   1.453   3.210 -0.2110 -0.6176 -0.6990
  732MOL0     C98696   8.179   1.553   3.100  0.4499  0.1506 -0.3642
  732MOL0     C98697   8.296   1.490   3.022  0.8371  0.1972  1.2102
  732MOL0     C98698   8.324   1.554   2.898 -0.2712  0.0619  0.3859
  732MOL0     C98699   8.461   1.520   2.843 -0.4656 -0.3659 -0.2493
  732MOL0     C98700   8.487   1.369   2.810 -0.5353 -0.5468 -0.4817
  732MOL0     C98701   8.624   1.359   2.735  0.1076  0.2882 -0.2789
  732MOL0     N98702   8.752   1.370   2.810  1.0480 -0.1075  0.5148
  732MOL0     C98703   8.866   1.311   2.773  0.1343  1.1348 -0.0024
  732MOL0     C98704   8.963   1.375   2.843 -0.1096  0.0495 -0.1655
  732MOL0     C98705   9.113   1.342   2.852  0.0917  0.2937  0.8835
  732MOL0     C98706   9.179   1.357   2.718  0.6631  0.6708  0.2863
  732MOL0     C98707   9.307   1.281   2.697  0.3526  0.2459 -0.9482
  732MOL0     C98708   9.394   1.276   2.827  0.3613  0.5708  0.0458
  732MOL0     O98709   9.520   1.225   2.779 -0.4421 -0.9961 -0.3495
  732MOL0     C98710   9.634   1.241   2.852  0.1344  0.4028 -0.1730
  732MOL0     C98711   9.671   1.361   2.927 -0.1330  0.0152 -1.1432
  732MOL0     C98712   9.799   1.362   2.979  0.0798 -0.6740  0.2648
  732MOL0     C98713   9.892   1.258   2.964  0.9061 -1.8490 -0.7524
  732MOL0     C98714  10.018   1.282   3.029  0.6561 -0.0344 -0.5750
  732MOL0     O98715  10.053   1.408   3.073 -0.6497  0.0582  0.4299
  732MOL0     C98716  10.184   1.436   3.101  1.2690 -0.0391 -0.5469
  732MOL0     C98717  10.264   1.483   2.998 -0.2340  0.1025 -0.5663
  732MOL0     C98718  10.395   1.524   3.027 -0.4079 -0.0539  0.2754
  732MOL0     C98719  10.453   1.504   3.152  0.3332 -0.0105  0.3812
  732MOL0     O98720  10.587   1.531   3.157  0.1286 -0.1110  0.1504
  732MOL0     C98721  10.665   1.451   3.248  1.0643  0.6975 -0.4317
  732MOL0     C98722  10.814   1.462   3.225  0.1897  0.6716 -1.0138
  732MOL0     C98723  10.870   1.463   3.092 -0.3698 -0.5167  0.1811
  732MOL0     C98724  11.018   1.488   3.091  0.0879  1.4838 -0.0129
  732MOL0     C98725  11.075   1.505   2.956  0.4030 -0.0499 -0.0003
  732MOL0     C98726  11.223   1.550   2.963 -0.4858  0.1991 -0.3799
  732MOL0     C98727  11.295   1.551   2.832  0.7689  0.3959 -0.5144
  732MOL0     C98728  11.433   1.598   2.853 -0.2350 -0.0834 -0.1821
  732MOL0    Cl98729  11.535   1.461   2.919 -0.4203 -0.1210  0.2828
  732MOL0     C98730  10.376   1.441   3.255  0.4798  0.1963  0.5284
  732MOL0     C98731  10.238   1.425   3.231 -0.0514 -0.5849 -0.0124
  732MOL0     O98732  10.090   1.184   3.035  0.0563 -0.6163 -0.5421
  732MOL0     C98733   9.851   1.142   2.899  1.0539  0.5961  0.0315
  732MOL0     C98734   9.726   1.131   2.848 -0.2456 -0.4181 -0.3219
  732MOL0     N98735   8.895   1.474   2.915  0.2020  0.3068 -0.9661
  732MOL0     N98736   8.769   1.466   2.901 -0.5119 -0.3425 -0.4915
  732MOL0     C98737   7.848   1.643   3.503 -0.3482 -0.0394  0.0146
  732MOL0     C98738   7.784   1.693   3.620 -0.7619  0.1112  1.1755
  732MOL0     C98739   7.503   1.678   3.992  0.1133  0.2794 -0.0244
  732MOL0     C98740   7.540   1.815   4.019 -0.3287  0.3245 -0.3041
  732MOL0     C98741   7.490   1.875   4.144 -0.7848  0.0845  0.2429
  732MOL0     C98742   7.404   1.802   4.229 -0.0668 -0.0520  0.4471
  732MOL0     O98743   7.355   1.847   4.346  0.3267 -0.3744  0.0493
  732MOL0     C98744   7.380   1.983   4.386  0.6409 -0.1946  0.3576
  732MOL0     C98745   7.277   2.083   4.333 -0.0430  0.6559 -0.4746
  732MOL0     C98746   7.275   2.223   4.411  0.4725  0.4995 -0.2853
  732MOL0     C98747   7.186   2.321   4.338 -0.6353 -0.1234 -0.0331
  732MOL0     C98748   7.056   2.270   4.313 -0.4952  0.1636  0.2531
  732MOL0     C98749   6.950   2.229   4.296  0.1593  1.0656  0.4527
  732MOL0     C98750   7.369   1.671   4.199  0.4120  0.0912  0.2340
  732MOL0     C98751   7.419   1.608   4.081 -0.9444  0.8499 -0.2117
  732MOL0     C98752   7.384   1.461   4.068  0.4242  0.2629  1.0108
  732MOL0     H98753   7.774   1.416   3.809  0.0913  2.4202  1.6411
  732MOL0     H98754   7.906   1.325   3.602  0.0901 -0.3354  0.4222
  732MOL0     H98755   7.946   1.575   3.220  1.7084  2.3883  0.7670
  732MOL0     H98756   8.072   1.619   3.333  1.2903  0.2066 -1.0655
  732MOL0     H98757   8.073   1.371   3.154 -0.0549 -0.3906 -1.1649
  732MOL0     H98758   8.190   1.420   3.286 -0.2916  0.7338 -0.0032
  732MOL0     H98759   8.211   1.645   3.150  1.9598 -1.6765  2.3214
  732MOL0     H98760   8.105   1.562   3.020 -0.2303 -0.1545  0.2314
  732MOL0     H98761   8.389   1.477   3.077  1.7669 -2.3707 -0.7397
  732MOL0     H98762   8.251   1.394   2.995  0.1457  0.8689 -0.1711
  732MOL0     H98763   8.241   1.526   2.831  0.4803  2.3582 -1.6711
  732MOL0     H98764   8.319   1.662   2.913 -0.2642  0.5270 -2.4137
  732MOL0     H98765   8.469   1.584   2.755  0.0498  0.5956  0.4818
  732MOL0     H98766   8.537   1.558   2.912  0.0611 -1.0152 -0.4551
  732MOL0     H98767   8.399   1.330   2.757 -0.1310 -1.3882 -0.5426
  732MOL0     H98768   8.494   1.311   2.902  0.2337 -0.4557 -0.4791
  732MOL0     H98769   8.623   1.253   2.707  1.9662  0.0838  0.3306
  732MOL0     H98770   8.628   1.421   2.645  0.3013  0.7087  0.0146
  732MOL0     H98771   8.877   1.237   2.694  1.5270  2.1399 -0.8059
  732MOL0     H98772   9.164   1.405   2.924 -1.3338  1.4741  0.9110
  732MOL0     H98773   9.128   1.238   2.883  1.2797  0.3527  0.5297
  732MOL0     H98774   9.114   1.312   2.642  0.6017 -0.2606  0.8768
  732MOL0     H98775   9.189   1.464   2.697  2.0738 -0.0179 -3.5105
  732MOL0     H98776   9.367   1.338   2.626  0.4142  0.2032 -0.9304
  732MOL0     H98777   9.303   1.176   2.664 -0.3694 -0.1402  0.3176
  732MOL0     H98778   9.340   1.214   2.900  0.8153 -0.7789 -0.7332
  732MOL0     H98779   9.412   1.375   2.870  1.4297  0.2811  0.2855
  732MOL0     H98780   9.604   1.446   2.936  0.8520  0.7429 -0.4983
  732MOL0     H98781   9.832   1.452   3.030  2.4816 -0.5464 -1.3539
  732MOL0     H98782  10.215   1.493   2.902 -1.5432  3.7051  0.2868
  732MOL0     H98783  10.456   1.566   2.947  0.4438 -2.4720 -0.4478
  732MOL0     H98784  10.641   1.469   3.353 -1.2761 -1.4627 -0.5132
  732MOL0     H98785  10.635   1.347   3.230  0.4718  1.0000 -1.2527
  732MOL0     H98786  10.839   1.556   3.275 -2.0343  0.3688  0.8488
  732MOL0     H98787  10.853   1.377   3.283 -2.0595  0.2573  0.0023
  732MOL0     H98788  10.859   1.366   3.043 -0.0668  0.0098 -0.9645
  732MOL0     H98789  10.822   1.545   3.040 -0.6592  1.4454  3.2993
  732MOL0     H98790  11.072   1.406   3.139  0.9471  1.9997 -0.0654
  732MOL0     H98791  11.029   1.584   3.142 -0.2327  2.3491 -1.5092
  732MOL0     H98792  11.021   1.584   2.902  1.6539  1.4203  0.8110
  732MOL0     H98793  11.075   1.417   2.891 -0.3915  0.0548 -0.1534
  732MOL0     H98794  11.220   1.645   3.017 -1.5876 -0.0938  0.1091
  732MOL0     H98795  11.279   1.485   3.031  0.1414 -0.2577 -1.3159
  732MOL0     H98796  11.248   1.627   2.769  0.3684  1.7081  1.2879
  732MOL0     H98797  11.293   1.451   2.786 -1.7811 -0.2810  0.8305
  732MOL0     H98798  11.475   1.633   2.758  0.0883  2.2687  0.7468
  732MOL0     H98799  11.436   1.685   2.920 -1.0713 -0.8906  0.9254
  732MOL0     H98800  10.424   1.434   3.352  0.5228  2.4123  0.7151
  732MOL0     H98801  10.165   1.403   3.308  0.1563  1.0654  0.6876
  732MOL0     H98802   9.908   1.051   2.883  0.1966  0.4925 -2.8789
  732MOL0     H98803   9.710   1.037   2.797 -0.8927 -0.9419  0.8050
  732MOL0     H98804   7.868   1.722   3.431  0.1391  0.9947  1.2592
  732MOL0     H98805   7.752   1.796   3.632  0.7330  0.5989  1.1587
  732MOL0     H98806   7.594   1.871   3.944  1.0600  1.0674  1.2131
  732MOL0     H98807   7.519   1.979   4.152 -1.1841  0.5898 -3.0903
  732MOL0     H98808   7.483   2.011   4.364  0.1909 -0.0031 -1.6608
  732MOL0     H98809   7.375   1.982   4.496 -3.4037 -1.5902  0.3365
  732MOL0     H98810   7.179   2.038   4.349 -0.8548  2.5273  0.0382
  732MOL0     H98811   7.295   2.096   4.225 -0.9834  5.2933 -0.2983
  732MOL0     H98812   7.375   2.266   4.425  1.2309 -1.4226  0.5559
  732MOL0     H98813   7.252   2.194   4.514  0.0240 -1.6223 -0.9247
  732MOL0     H98814   7.179   2.403   4.410  0.9692 -0.5860  0.7008
  732MOL0     H98815   7.241   2.358   4.250 -0.6308 -2.5717 -1.1506
  732MOL0     H98816   6.849   2.194   4.295 -0.0556  1.6330  1.4702
  732MOL0     H98817   7.299   1.620   4.263 -0.0263 -0.0684 -0.3657
  732MOL0     H98818   7.352   1.440   3.965 -2.5683  0.3971  1.8260
  732MOL0     H98819   7.478   1.409   4.085  1.2887  1.1447 -0.7426
  732MOL0     H98820   7.313   1.416   4.138 -1.3485 -3.0362 -2.5174
  733MOL0     O98821   6.004   8.274   2.974 -0.3061  0.2719  0.3241
  733MOL0     C98822   5.925   8.211   3.040 -0.6079 -0.6969 -0.3704
  733MOL0     O98823   5.952   8.101   3.128  0.2683  0.3172  0.4219
  733MOL0     C98824   6.084   8.072   3.150  0.1491 -0.1088  0.2516
  733MOL0     C98825   6.176   8.173   3.183 -0.2013 -0.4254  0.4263
  733MOL0     C98826   6.306   8.146   3.220 -0.1676  0.0079 -0.9995
  733MOL0     C98827   6.353   8.010   3.221  0.3028 -0.5598  0.1992
  733MOL0     O98828   6.469   7.964   3.269  0.3631  0.3148  0.4696
  733MOL0     C98829   6.578   8.045   3.289  0.1330 -0.8285 -0.1929
  733MOL0     C98830   6.682   7.950   3.353 -0.4820  0.1385  0.0890
  733MOL0     C98831   6.831   7.986   3.322  0.5668 -0.1761  0.1920
  733MOL0     C98832   6.916   7.896   3.414 -0.0191  0.1709 -0.0548
  733MOL0     C98833   7.061   7.937   3.404 -0.0798 -0.5329  0.1826
  733MOL0     C98834   7.147   7.824   3.449 -0.2337  0.1091 -0.7313
  733MOL0     C98835   7.292   7.859   3.421 -0.3223 -0.6914 -0.6895
  733MOL0     C98836   7.391   7.811   3.537  0.8929 -0.1282  0.0961
  733MOL0     N98837   7.524   7.864   3.522 -0.3789  0.1309  0.2461
  733MOL0     C98838   7.597   7.868   3.398  0.3374  0.1137  0.0235
  733MOL0     C98839   7.722   7.914   3.416 -0.0859  0.9971  0.0722
  733MOL0     C98840   7.827   7.912   3.310 -0.9585 -0.1690 -0.3856
  733MOL0     C98841   7.904   7.777   3.306 -1.1039 -0.0930  0.8352
  733MOL0     C98842   7.817   7.695   3.203 -0.5058  0.0575 -0.4021
  733MOL0     C98843   7.898   7.565   3.163  0.7164  0.2858  0.4238
  733MOL0     O98844   7.955   7.607   3.038  0.5528  0.4426 -0.4610
  733MOL0     C98845   8.073   7.552   3.033 -1.3329  1.1075  0.4010
  733MOL0     C98846   8.191   7.636   3.013  0.7732  0.1439  0.4809
  733MOL0     C98847   8.316   7.579   2.981 -0.0866  0.0865  0.0376
  733MOL0     C98848   8.325   7.437   2.985 -0.6970  0.1622  0.2291
  733MOL0     C98849   8.453   7.363   2.976 -0.5005  0.4640 -0.0609
  733MOL0     O98850   8.560   7.444   2.972 -0.0744 -0.0288 -0.1438
  733MOL0     C98851   8.691   7.396   2.961  0.0102 -0.9542  0.6543
  733MOL0     C98852   8.785   7.463   3.044 -0.3378 -0.4424  0.7229
  733MOL0     C98853   8.921   7.421   3.026  0.7729  0.5464 -0.3133
  733MOL0     C98854   8.954   7.317   2.932  0.0270  0.0428  0.2359
  733MOL0     O98855   9.089   7.288   2.901  0.0746 -0.0408 -0.4277
  733MOL0     C98856   9.179   7.400   2.906 -0.1696 -0.7377  0.1883
  733MOL0     C98857   9.297   7.369   2.819 -0.3486 -0.2176 -0.1501
  733MOL0     C98858   9.394   7.270   2.892 -0.0942  0.1976 -0.9384
  733MOL0     C98859   9.506   7.234   2.792 -0.5387 -0.2228 -1.2602
  733MOL0     C98860   9.639   7.187   2.856  0.0427 -0.0778 -0.1644
  733MOL0     C98861   9.754   7.195   2.759 -0.5476  0.2602  0.3045
  733MOL0     C98862   9.887   7.146   2.828 -0.7901  0.6300 -0.6702
  733MOL0     C98863  10.000   7.191   2.739  0.7114 -0.8842  0.2821
  733MOL0    Cl98864   9.988   7.096   2.585 -0.0417 -0.2006 -0.7841
  733MOL0     C98865   8.855   7.244   2.866  0.7829  0.0226  1.2532
  733MOL0     C98866   8.729   7.290   2.869 -0.0146  0.4947  0.0132
  733MOL0     O98867   8.449   7.239   2.963 -0.0234  0.2940 -0.7787
  733MOL0     C98868   8.206   7.358   2.992  0.3086  0.9204  0.3404
  733MOL0     C98869   8.084   7.412   3.022  0.5252 -0.0206  0.2040
  733MOL0     N98870   7.730   7.948   3.549  0.1648  0.7888  0.4290
  733MOL0     N98871   7.612   7.912   3.612 -0.2904 -0.0511 -0.1205
  733MOL0     C98872   6.262   7.911   3.193 -0.0200  0.3525 -0.5303
  733MOL0     C98873   6.125   7.935   3.159  0.1181 -0.6676 -0.0742
  733MOL0     C98874   5.784   8.241   3.023  0.6914  0.2159 -1.2046
  733MOL0     C98875   5.694   8.177   3.109 -0.3202  0.1279  0.1323
  733MOL0     C98876   5.556   8.188   3.110  0.3147 -0.1298  0.2776
  733MOL0     C98877   5.501   8.268   3.010 -0.0260  0.2172 -0.1809
  733MOL0     O98878   5.367   8.288   2.995 -0.7919 -1.1652 -0.0876
  733MOL0     C98879   5.288   8.193   3.069 -0.7795  0.3971 -0.2526
  733MOL0     C98880   5.153   8.214   3.000 -0.5904 -0.7355  0.4906
  733MOL0     C98881   5.038   8.143   3.068 -0.6281  0.7010 -0.1933
  733MOL0     C98882   4.901   8.165   3.004  0.4710  0.0256 -0.0069
  733MOL0     C98883   4.798   8.163   3.106  0.2668 -0.2808 -0.9084
  733MOL0     C98884   4.723   8.173   3.202  1.0169 -0.6253  0.6124
  733MOL0     C98885   5.582   8.323   2.915  1.0559  0.5712  0.1776
  733MOL0     C98886   5.722   8.312   2.915 -0.3134 -0.1987 -0.2023
  733MOL0     C98887   5.796   8.406   2.815  0.2311 -0.7455 -0.5492
  733MOL0     H98888   6.156   8.280   3.176  3.3324  0.3405  0.0906
  733MOL0     H98889   6.387   8.213   3.247  1.7152 -2.5070  0.0270
  733MOL0     H98890   6.611   8.088   3.195 -0.3786  1.5420  0.6577
  733MOL0     H98891   6.553   8.130   3.352  0.3109  1.5107 -3.0807
  733MOL0     H98892   6.665   7.849   3.315  1.1607  0.4331 -1.6188
  733MOL0     H98893   6.679   7.952   3.462 -0.0667  1.2622  0.0939
  733MOL0     H98894   6.843   8.091   3.350  2.5178 -0.1679 -0.5129
  733MOL0     H98895   6.866   7.984   3.219 -1.6107  1.6138 -0.6337
  733MOL0     H98896   6.883   7.912   3.517 -1.2026  0.8895 -0.5207
  733MOL0     H98897   6.901   7.791   3.386  0.3374  0.5763 -1.8922
  733MOL0     H98898   7.091   7.948   3.299  3.8186 -0.6562  1.1262
  733MOL0     H98899   7.082   8.036   3.446 -0.1545 -0.0190 -0.9479
  733MOL0     H98900   7.150   7.804   3.557  1.3480  1.5599 -0.4586
  733MOL0     H98901   7.124   7.729   3.399 -0.4414  0.1482 -0.7105
  733MOL0     H98902   7.306   7.967   3.408 -3.2380 -0.1530  0.0083
  733MOL0     H98903   7.307   7.811   3.324  0.3882 -2.2805  0.1750
  733MOL0     H98904   7.354   7.854   3.631  1.1530 -1.2852  0.7514
  733MOL0     H98905   7.398   7.705   3.563 -0.8439  0.1363  1.9184
  733MOL0     H98906   7.544   7.838   3.308  0.1462 -2.1262  0.8153
  733MOL0     H98907   7.784   7.945   3.215 -2.8838 -0.5767  0.3066
  733MOL0     H98908   7.897   7.990   3.344 -1.0483 -1.4520  3.1649
  733MOL0     H98909   8.007   7.787   3.271 -0.9454  1.3579  1.6241
  733MOL0     H98910   7.901   7.735   3.407  0.3304  0.5082  1.1489
  733MOL0     H98911   7.796   7.748   3.109 -0.3938  0.3334 -0.2711
  733MOL0     H98912   7.720   7.671   3.247 -0.9961 -1.1473 -2.0398
  733MOL0     H98913   7.821   7.489   3.150  1.3161  0.1119 -3.2880
  733MOL0     H98914   7.964   7.530   3.243 -0.5927 -0.5549  1.1561
  733MOL0     H98915   8.186   7.742   3.034  0.8799  0.1908  0.2698
  733MOL0     H98916   8.407   7.637   2.971 -0.4966  1.1771  2.1005
  733MOL0     H98917   8.764   7.536   3.121 -1.7831 -0.8860  0.7844
  733MOL0     H98918   8.994   7.464   3.094  0.1861  1.1035 -0.0182
  733MOL0     H98919   9.123   7.486   2.868 -0.4816 -0.2733  1.6147
  733MOL0     H98920   9.218   7.417   3.007  2.6256 -2.3304 -0.5460
  733MOL0     H98921   9.264   7.327   2.724  1.5185 -0.1344 -0.8968
  733MOL0     H98922   9.357   7.459   2.801 -0.7664  0.0302 -0.2964
  733MOL0     H98923   9.428   7.314   2.986 -0.0751  0.5267 -1.0946
  733MOL0     H98924   9.341   7.178   2.915 -0.6722  0.8666  0.5190
  733MOL0     H98925   9.528   7.317   2.724 -1.1215  0.7146 -0.3405
  733MOL0     H98926   9.479   7.155   2.721 -0.2285 -0.8888 -0.6547
  733MOL0     H98927   9.634   7.093   2.913  1.0217  1.7112  3.1509
  733MOL0     H98928   9.653   7.266   2.930  0.1919  0.1067 -0.3898
  733MOL0     H98929   9.729   7.129   2.676 -0.0141 -0.1453  0.4629
  733MOL0     H98930   9.764   7.295   2.716  2.9420 -0.7323 -1.5407
  733MOL0     H98931   9.881   7.039   2.852  1.4435  0.6186  0.0731
  733MOL0     H98932   9.910   7.190   2.926 -1.7707 -1.0508  0.3772
  733MOL0     H98933   9.990   7.299   2.725  0.7591 -0.7822  1.0059
  733MOL0     H98934  10.098   7.167   2.780  1.4053 -2.4373 -2.0970
  733MOL0     H98935   8.865   7.159   2.799 -1.6445  1.2431 -0.8434
  733MOL0     H98936   8.653   7.236   2.814  1.6262 -2.0328  0.0819
  733MOL0     H98937   8.215   7.250   2.987  0.7833  0.9965 -0.6662
  733MOL0     H98938   7.988   7.362   3.015  0.3888 -0.0231  1.7147
  733MOL0     H98939   6.289   7.806   3.206 -1.7952 -0.2573 -1.3929
  733MOL0     H98940   6.069   7.851   3.120  2.6144 -1.3238 -2.6313
  733MOL0     H98941   5.730   8.097   3.173 -0.1960 -1.3813 -1.7229
  733MOL0     H98942   5.507   8.132   3.188 -3.0583  0.1701 -1.4539
  733MOL0     H98943   5.274   8.212   3.176 -1.7738 -0.6391 -0.1769
  733MOL0     H98944   5.332   8.093   3.060  0.0215  0.4079  2.4092
  733MOL0     H98945   5.169   8.176   2.899  2.0256  0.2607  0.4613
  733MOL0     H98946   5.135   8.320   2.979 -4.2468 -1.1400  0.8503
  733MOL0     H98947   5.043   8.183   3.170  0.3295 -2.7560  1.2815
  733MOL0     H98948   5.057   8.035   3.070 -0.1193  0.6616 -3.0877
  733MOL0     H98949   4.889   8.261   2.952 -1.5491 -1.6503 -2.9132
  733MOL0     H98950   4.882   8.093   2.923  1.7228  0.8732 -1.1112
  733MOL0     H98951   4.657   8.209   3.279  2.3093  1.7301  0.7147
  733MOL0     H98952   5.536   8.391   2.845 -1.9696  0.2157  1.6475
  733MOL0     H98953   5.727   8.487   2.789  1.5293  1.3676  2.0590
  733MOL0     H98954   5.883   8.460   2.854  0.3424 -0.7725 -0.7620
  733MOL0     H98955   5.830   8.352   2.726  2.6927  3.0268 -2.1348
  734MOL0     O98956   8.630   5.985   0.759 -0.2958 -0.3788 -0.4115
  734MOL0     C98957   8.598   6.061   0.849  0.3474 -0.3111 -0.6301
  734MOL0     O98958   8.667   6.164   0.880 -0.2255  0.3035 -0.3600
  734MOL0     C98959   8.778   6.208   0.806  0.1997 -0.6967 -0.3046
  734MOL0     C98960   8.894   6.239   0.883 -0.4236  1.4896 -0.7223
  734MOL0     C98961   9.011   6.289   0.824  0.0132 -0.0199  0.8200
  734MOL0     C98962   9.009   6.323   0.691 -0.0245  0.1807 -0.0426
  734MOL0     O98963   9.104   6.395   0.621 -0.0430  0.2676 -0.9859
  734MOL0     C98964   9.230   6.432   0.683  0.0218  0.6529 -0.5937
  734MOL0     C98965   9.334   6.468   0.588 -0.9392  0.2373  0.4603
  734MOL0     C98966   9.457   6.551   0.650 -0.2146 -0.3352  0.6723
  734MOL0     C98967   9.549   6.444   0.706 -0.2962 -0.4578 -0.3458
  734MOL0     C98968   9.684   6.495   0.754 -0.2646  0.2828 -0.1611
  734MOL0     C98969   9.765   6.371   0.799  0.4912 -0.6249  0.1958
  734MOL0     C98970   9.915   6.411   0.830  0.0585 -0.5393  0.4000
  734MOL0     C98971   9.934   6.495   0.958  0.1956 -0.1770 -0.2618
  734MOL0     N98972  10.075   6.531   0.983 -0.2222  0.0855 -0.3812
  734MOL0     C98973  10.131   6.565   1.101  0.5446  0.3137 -0.0601
  734MOL0     C98974  10.255   6.604   1.079 -0.7919 -0.4890  0.3022
  734MOL0     C98975  10.370   6.639   1.167 -0.5437 -0.9343  0.3658
  734MOL0     C98976  10.411   6.794   1.136 -0.4288 -0.0517 -0.8098
  734MOL0     C98977  10.511   6.841   1.243 -0.4224 -0.2240  0.1772
  734MOL0     C98978  10.570   6.977   1.201  0.8435 -0.1827  0.0951
  734MOL0     O98979  10.668   7.014   1.296 -0.3918  0.4124 -0.3927
  734MOL0     C98980  10.721   7.143   1.311 -0.1244  0.4561 -0.2073
  734MOL0     C98981  10.801   7.176   1.418  0.6909 -0.0312  1.3541
  734MOL0     C98982  10.855   7.312   1.427  0.2284  0.1855 -0.0436
  734MOL0     C98983  10.840   7.402   1.321 -1.4374 -0.4995  0.1252
  734MOL0     C98984  10.917   7.528   1.325  0.1391 -0.0734 -0.4063
  734MOL0     O98985  11.006   7.537   1.425  0.4491  0.1305 -0.2225
  734MOL0     C98986  11.082   7.651   1.445 -0.6425  0.5695 -0.2270
  734MOL0     C98987  11.053   7.736   1.553 -0.2076  0.4735  0.7366
  734MOL0     C98988  11.135   7.843   1.579  0.3730  0.7163 -0.8330
  734MOL0     C98989  11.235   7.886   1.487  0.6935  1.2166  0.1303
  734MOL0     O98990  11.312   7.995   1.505  0.2277  0.5313 -0.7333
  734MOL0     C98991  11.244   8.115   1.555 -0.4873 -0.7963  0.0518
  734MOL0     C98992  11.327   8.245   1.577 -0.6752 -0.2725  0.5745
  734MOL0     C98993  11.346   8.307   1.440 -0.4174 -0.2017  0.0198
  734MOL0     C98994  11.400   8.450   1.467 -0.3125 -0.0463 -0.0743
  734MOL0     C98995  11.409   8.534   1.328 -0.8889  0.0096  1.0769
  734MOL0     C98996  11.468   8.671   1.349  0.6439 -0.0303  0.0376
  734MOL0     C98997  11.464   8.749   1.205  0.2021  0.7285 -0.0529
  734MOL0     C98998  11.518   8.682   1.080  0.7472  0.1968  0.5310
  734MOL0    Cl98999  11.678   8.594   1.110  0.2033  0.4993  0.0844
  734MOL0     C99000  11.248   7.804   1.376  0.1636 -0.0498  0.3444
  734MOL0     C99001  11.182   7.687   1.357  0.2093  0.6174 -0.2642
  734MOL0     O99002  10.899   7.609   1.240  0.2159 -0.4098 -0.4748
  734MOL0     C99003  10.767   7.366   1.209  0.2325 -0.0593 -0.2585
  734MOL0     C99004  10.708   7.237   1.208 -0.5997  0.1223  0.1267
  734MOL0     N99005  10.267   6.602   0.940 -0.4327  0.3532 -0.3677
  734MOL0     N99006  10.163   6.559   0.886 -0.4156 -0.0358  0.0458
  734MOL0     C99007   8.891   6.293   0.617 -0.8002 -0.0205 -0.4604
  734MOL0     C99008   8.776   6.237   0.670  0.7457 -0.3284 -0.7848
  734MOL0     C99009   8.470   6.038   0.923 -0.1492 -0.4932 -0.5497
  734MOL0     C99010   8.444   6.105   1.039 -0.2513 -0.9608 -0.4695
  734MOL0     C99011   8.323   6.084   1.105 -0.6410 -0.1713  0.4263
  734MOL0     C99012   8.228   5.993   1.055 -0.4652 -0.0512  0.8711
  734MOL0     O99013   8.115   5.963   1.122 -0.0311 -0.6007  0.6109
  734MOL0     C99014   8.023   6.068   1.144 -0.3031  0.1645 -0.8438
  734MOL0     C99015   7.900   6.065   1.060  0.6965 -0.3491  0.0891
  734MOL0     C99016   7.830   5.932   1.058 -0.1356 -0.1647  0.5233
  734MOL0     C99017   7.680   5.940   1.026 -0.5283 -0.0234  0.5264
  734MOL0     C99018   7.597   5.998   1.132 -0.2339  0.4018  0.2455
  734MOL0     C99019   7.538   6.031   1.228  0.0121  0.2400 -0.6386
  734MOL0     C99020   8.253   5.934   0.930 -1.0972 -1.0528 -0.2492
  734MOL0     C99021   8.376   5.944   0.873  0.3002  0.1545  0.7916
  734MOL0     C99022   8.382   5.863   0.742  0.4004  0.1567 -0.5114
  734MOL0     H99023   8.891   6.222   0.990  0.3295 -2.9682 -1.2375
  734MOL0     H99024   9.104   6.307   0.875  2.0244  0.0648 -2.5903
  734MOL0     H99025   9.204   6.512   0.753  0.1817 -0.4461  0.7885
  734MOL0     H99026   9.263   6.345   0.741  1.4112  0.3467 -1.8003
  734MOL0     H99027   9.279   6.521   0.510 -0.7352 -0.1299  0.0713
  734MOL0     H99028   9.374   6.375   0.547 -1.0054  0.1133  0.6719
  734MOL0     H99029   9.434   6.628   0.725 -0.7528 -0.4901  0.6721
  734MOL0     H99030   9.517   6.604   0.575  1.3099 -1.1176  1.2990
  734MOL0     H99031   9.492   6.401   0.788 -0.5215  0.7580  0.1622
  734MOL0     H99032   9.560   6.362   0.634 -1.6247 -1.7742  0.8873
  734MOL0     H99033   9.742   6.541   0.673  0.2895 -2.3892 -1.3906
  734MOL0     H99034   9.677   6.578   0.825 -0.4033  0.4147 -0.3276
  734MOL0     H99035   9.709   6.336   0.887 -0.6196  0.5565 -0.0273
  734MOL0     H99036   9.758   6.292   0.724 -3.7019  0.0087 -0.3221
  734MOL0     H99037   9.946   6.468   0.742  2.5186 -0.8194  1.0131
  734MOL0     H99038   9.982   6.324   0.835  1.0210  0.1956  0.4706
  734MOL0     H99039   9.875   6.586   0.955 -1.8789 -1.4265  0.7580
  734MOL0     H99040   9.892   6.448   1.047 -0.8393  1.7157  0.2999
  734MOL0     H99041  10.084   6.540   1.196  3.5754 -1.9654  1.0332
  734MOL0     H99042  10.338   6.624   1.270 -2.3913 -2.7528 -0.3998
  734MOL0     H99043  10.449   6.568   1.140 -0.9575 -1.3118  0.1258
  734MOL0     H99044  10.454   6.805   1.037  1.1620  0.0211 -0.1335
  734MOL0     H99045  10.327   6.865   1.138 -0.7059 -0.3909  0.1894
  734MOL0     H99046  10.589   6.766   1.254 -0.2998 -0.2570 -0.8534
  734MOL0     H99047  10.449   6.859   1.331 -2.7406  1.8379 -1.7148
  734MOL0     H99048  10.483   7.042   1.186 -0.2260 -1.6633 -0.4643
  734MOL0     H99049  10.628   6.968   1.109  1.2432  0.2858  0.3051
  734MOL0     H99050  10.817   7.105   1.499 -0.7836 -0.6686  1.1014
  734MOL0     H99051  10.910   7.346   1.514  1.4484 -1.7713  0.0038
  734MOL0     H99052  10.972   7.728   1.625 -1.9638  2.8429 -0.8258
  734MOL0     H99053  11.130   7.890   1.676  1.0948 -0.8561  0.0087
  734MOL0     H99054  11.157   8.134   1.492 -1.2460 -2.5897  0.5095
  734MOL0     H99055  11.207   8.085   1.653  0.1352 -0.0611  0.5294
  734MOL0     H99056  11.289   8.310   1.656 -0.5578  1.4000 -0.6638
  734MOL0     H99057  11.423   8.211   1.617 -1.7564 -0.3190  3.3372
  734MOL0     H99058  11.399   8.239   1.374 -1.4958 -0.1731 -0.9155
  734MOL0     H99059  11.249   8.320   1.391 -1.3525  0.2497  1.9087
  734MOL0     H99060  11.504   8.454   1.502 -0.6231 -0.5456  0.9349
  734MOL0     H99061  11.335   8.508   1.533  0.1876 -0.0454  0.4249
  734MOL0     H99062  11.314   8.546   1.274  0.4524  0.8738 -1.2749
  734MOL0     H99063  11.476   8.474   1.265  1.6397  1.8030  1.9030
  734MOL0     H99064  11.404   8.733   1.413 -1.3206  0.0780 -1.9092
  734MOL0     H99065  11.571   8.662   1.383  2.9593  2.6401 -5.1128
  734MOL0     H99066  11.514   8.845   1.219  0.8541  1.0416 -3.5921
  734MOL0     H99067  11.356   8.758   1.191  0.1772  0.4812 -0.0257
  734MOL0     H99068  11.443   8.610   1.048  2.3104 -2.7300  3.0112
  734MOL0     H99069  11.529   8.766   1.010  3.0072  0.0406  0.6085
  734MOL0     H99070  11.317   7.841   1.301 -0.3978  1.0305  0.3319
  734MOL0     H99071  11.200   7.637   1.263 -0.7333  1.6053 -1.0010
  734MOL0     H99072  10.738   7.439   1.133 -1.2970 -0.0511  0.2946
  734MOL0     H99073  10.646   7.212   1.121 -1.0090 -2.5127  1.0690
  734MOL0     H99074   8.885   6.325   0.513 -3.9723 -1.9331 -1.0139
  734MOL0     H99075   8.690   6.211   0.609 -0.2567  0.8980  0.0553
  734MOL0     H99076   8.519   6.176   1.073 -0.4069  0.0472 -2.1690
  734MOL0     H99077   8.304   6.144   1.194  0.7554  0.4078  0.3541
  734MOL0     H99078   8.078   6.162   1.132  0.7804 -0.3140  0.1386
  734MOL0     H99079   7.995   6.067   1.250  0.2294 -1.7019 -0.6975
  734MOL0     H99080   7.939   6.089   0.961  2.0700 -1.0085  0.4430
  734MOL0     H99081   7.832   6.142   1.096 -2.1294 -2.9287  0.6922
  734MOL0     H99082   7.846   5.883   1.154 -0.3086  0.3399  0.8127
  734MOL0     H99083   7.885   5.871   0.985  0.1376  0.0435  0.5579
  734MOL0     H99084   7.655   6.000   0.938  2.7910  0.4917 -0.2377
  734MOL0     H99085   7.644   5.838   1.016 -4.3599  1.0757  1.5268
  734MOL0     H99086   7.481   6.051   1.317 -0.4673 -5.1649  0.6755
  734MOL0     H99087   8.170   5.887   0.879 -1.6595  2.2871 -2.7657
  734MOL0     H99088   8.286   5.813   0.731 -0.0000  1.2380 -2.2155
  734MOL0     H99089   8.387   5.931   0.656  0.3254  0.4903 -0.2537
  734MOL0     H99090   8.465   5.793   0.727 -0.6793 -0.6393 -3.3454
  735MOL0     O99091  10.914   2.865   6.952 -0.1669  0.4559 -0.4665
  735MOL0     C99092  10.891   2.984   6.990 -1.0838  0.3528  0.7127
  735MOL0     O99093  10.980   3.061   7.055  0.3688 -0.0429  0.4303
  735MOL0     C99094  11.110   3.026   7.063  0.0173  0.0402  0.1885
  735MOL0     C99095  11.189   3.103   6.975  0.0726  0.3595  0.3237
  735MOL0     C99096  11.326   3.094   6.991 -0.0044  0.0788  0.6081
  735MOL0     C99097  11.385   2.999   7.089 -0.2037  0.3255 -0.2799
  735MOL0     O99098  11.517   3.011   7.126  0.5954 -0.1142  0.0776
  735MOL0     C99099  11.612   3.035   7.026  0.3992  0.1403  0.3437
  735MOL0     C99100  11.753   2.988   7.067 -0.2266  0.1620  0.4835
  735MOL0     C99101  11.871   3.056   6.995 -0.1936 -0.1237  0.4112
  735MOL0     C99102  11.917   2.985   6.867 -0.9601  0.1102  0.3366
  735MOL0     C99103  12.025   3.064   6.787  0.8258  0.4958  0.6726
  735MOL0     C99104  12.172   3.042   6.831 -0.0440  0.5830  0.0072
  735MOL0     C99105  12.267   3.121   6.741  0.3817 -0.7578  0.0829
  735MOL0     C99106  12.411   3.088   6.749  0.0265  0.2479 -0.3132
  735MOL0     N99107  12.454   3.139   6.878  0.0464  0.5463  0.7324
  735MOL0     C99108  12.490   3.271   6.906  0.3229 -0.7783  0.5744
  735MOL0     C99109  12.512   3.276   7.034 -0.4275  0.0797 -0.2555
  735MOL0     C99110  12.534   3.396   7.119  0.5524  0.2512  0.0070
  735MOL0     C99111  12.681   3.410   7.156  0.6382 -0.3336 -0.2948
  735MOL0     C99112  12.717   3.306   7.261 -0.5504 -0.3557  0.5361
  735MOL0     C99113  12.854   3.314   7.326 -0.1159  0.1410  0.1537
  735MOL0     O99114  12.958   3.305   7.225 -0.3753  0.4741  0.3454
  735MOL0     C99115  13.087   3.318   7.257 -0.5743  0.1657  0.5847
  735MOL0     C99116  13.136   3.352   7.386  0.5497  0.4014 -0.2779
  735MOL0     C99117  13.271   3.385   7.400 -0.5660  0.0761  0.9883
  735MOL0     C99118  13.366   3.362   7.298 -0.9774 -0.5670  0.1500
  735MOL0     C99119  13.515   3.391   7.320  0.3463 -0.5035  0.5424
  735MOL0     O99120  13.548   3.465   7.431  0.3074  0.0178 -0.3291
  735MOL0     C99121  13.677   3.499   7.461 -0.2088  0.1766  0.0118
  735MOL0     C99122  13.775   3.396   7.447  0.6753 -0.5660  0.1061
  735MOL0     C99123  13.906   3.414   7.485 -1.2220 -0.3158  0.7781
  735MOL0     C99124  13.941   3.530   7.561 -0.0719 -0.4049  0.0310
  735MOL0     O99125  14.066   3.543   7.624  0.6305  0.2864  0.3461
  735MOL0     C99126  14.148   3.428   7.661 -0.1683 -0.0970  0.5779
  735MOL0     C99127  14.107   3.352   7.791  0.0587  0.0656 -0.3366
  735MOL0     C99128  14.113   3.443   7.919  0.2377 -0.4904  0.1990
  735MOL0     C99129  14.096   3.357   8.047 -0.5637  0.0638 -0.7274
  735MOL0     C99130  14.109   3.452   8.172  0.2376  0.4343 -0.5455
  735MOL0     C99131  14.117   3.363   8.296  0.1165 -0.4561  0.6495
  735MOL0     C99132  14.179   3.435   8.420  0.1547  0.5265  0.0484
  735MOL0     C99133  14.215   3.338   8.531 -0.0504 -0.8455  0.1164
  735MOL0    Cl99134  14.338   3.239   8.469 -0.4880  0.8657 -0.4685
  735MOL0     C99135  13.835   3.621   7.590  0.7872  0.1129  0.1700
  735MOL0     C99136  13.706   3.610   7.534  1.0878 -0.0368  1.2388
  735MOL0     O99137  13.597   3.353   7.233  0.4512  0.1874  0.2738
  735MOL0     C99138  13.324   3.329   7.169  0.1161 -0.5649  0.4998
  735MOL0     C99139  13.185   3.307   7.153 -0.4841 -0.2928 -0.2798
  735MOL0     N99140  12.497   3.142   7.080  0.8875 -0.2342  0.1205
  735MOL0     N99141  12.461   3.064   6.983  0.6506 -0.4235 -0.2581
  735MOL0     C99142  11.305   2.921   7.161  0.6033 -0.3196 -0.5302
  735MOL0     C99143  11.167   2.928   7.145 -0.0581 -0.3161 -0.1785
  735MOL0     C99144  10.756   3.041   6.949 -0.3795 -0.9797  0.3117
  735MOL0     C99145  10.709   3.165   6.999 -0.4598  0.1587  0.1912
  735MOL0     C99146  10.581   3.220   6.977 -0.6749  0.6053 -1.0267
  735MOL0     C99147  10.500   3.147   6.892  0.2988  0.2286 -0.1115
  735MOL0     O99148  10.373   3.183   6.866 -0.2039  0.8674  0.3699
  735MOL0     C99149  10.312   3.261   6.975 -0.4444 -1.0149 -0.0583
  735MOL0     C99150  10.157   3.255   6.974  0.9630  0.8722  0.2085
  735MOL0     C99151  10.098   3.119   6.991  0.3563  0.3635 -0.3548
  735MOL0     C99152   9.950   3.115   6.984  0.0558  0.0489  0.1593
  735MOL0     C99153   9.906   2.994   7.054  0.6255 -0.1581  0.2003
  735MOL0     C99154   9.868   2.892   7.108 -0.4649 -0.3079  0.4586
  735MOL0     C99155  10.533   3.024   6.841  0.3567 -0.0644  0.1916
  735MOL0     C99156  10.662   2.966   6.876 -0.2953 -0.9471  0.4637
  735MOL0     C99157  10.677   2.824   6.830 -0.5688 -0.2440 -0.7499
  735MOL0     H99158  11.138   3.176   6.914 -0.8763 -1.2940 -0.9604
  735MOL0     H99159  11.387   3.152   6.922  0.7844  1.5545  2.4603
  735MOL0     H99160  11.582   2.973   6.940 -0.1846 -0.8051  1.2024
  735MOL0     H99161  11.618   3.141   7.001 -1.8854 -0.0353 -1.2306
  735MOL0     H99162  11.747   2.880   7.052 -3.7752  0.3430 -0.3936
  735MOL0     H99163  11.763   2.992   7.176  0.6641  3.1933  0.3880
  735MOL0     H99164  11.947   3.060   7.073  0.5338 -1.3685 -0.2041
  735MOL0     H99165  11.853   3.160   6.967  1.0915 -0.2451 -0.9994
  735MOL0     H99166  11.964   2.890   6.893 -1.5375 -0.2087  0.2407
  735MOL0     H99167  11.833   2.968   6.799 -0.2698  2.0371 -1.0815
  735MOL0     H99168  12.020   3.026   6.685  0.8588 -0.8249  1.1463
  735MOL0     H99169  11.998   3.169   6.780 -2.1317 -0.2809 -0.9571
  735MOL0     H99170  12.175   3.065   6.938  0.1173 -2.5897  0.7628
  735MOL0     H99171  12.198   2.936   6.822  1.3581  0.8985  0.0547
  735MOL0     H99172  12.259   3.228   6.763  3.4513 -0.9580  2.9831
  735MOL0     H99173  12.237   3.105   6.637 -0.1993  0.0819  0.1138
  735MOL0     H99174  12.413   2.978   6.753 -1.1107  0.2457  0.5186
  735MOL0     H99175  12.476   3.129   6.672 -1.7213  0.7787 -1.5692
  735MOL0     H99176  12.494   3.353   6.835 -1.0771  1.0500  2.4872
  735MOL0     H99177  12.506   3.486   7.063  1.3179  2.1761  2.5313
  735MOL0     H99178  12.466   3.384   7.203  2.0090 -2.1640  0.9416
  735MOL0     H99179  12.748   3.417   7.070 -1.8643 -2.4862 -2.6012
  735MOL0     H99180  12.689   3.508   7.206  2.1877 -0.3167 -0.5170
  735MOL0     H99181  12.708   3.205   7.219 -2.6653  0.4353 -1.1403
  735MOL0     H99182  12.641   3.306   7.339  0.6927  0.1255  1.7720
  735MOL0     H99183  12.862   3.233   7.399 -1.9572 -1.1069 -0.9754
  735MOL0     H99184  12.875   3.410   7.375  2.3229 -0.4868  0.4937
  735MOL0     H99185  13.075   3.361   7.475  0.7642 -1.2011  0.0557
  735MOL0     H99186  13.307   3.419   7.496 -0.9207  1.0408  0.7858
  735MOL0     H99187  13.750   3.301   7.400  2.5636 -0.9669 -0.1833
  735MOL0     H99188  13.975   3.335   7.456  1.0653  2.5525 -2.6639
  735MOL0     H99189  14.161   3.359   7.577 -2.0187  1.0233 -0.6937
  735MOL0     H99190  14.250   3.464   7.677  1.3515 -3.5910 -0.3026
  735MOL0     H99191  14.004   3.318   7.777 -0.7515  2.7527 -1.5695
  735MOL0     H99192  14.175   3.266   7.798 -0.5966 -0.4972 -0.7611
  735MOL0     H99193  14.201   3.507   7.927 -0.4354  0.3155  6.6609
  735MOL0     H99194  14.027   3.510   7.910  0.0184 -0.5162  1.8140
  735MOL0     H99195  14.180   3.286   8.049  0.0617  0.8093  1.2171
  735MOL0     H99196  13.999   3.307   8.056 -1.6531  2.3081  0.6634
  735MOL0     H99197  14.016   3.509   8.179  1.6478  3.3085 -2.8829
  735MOL0     H99198  14.192   3.521   8.156 -0.4489  1.1540 -1.0736
  735MOL0     H99199  14.018   3.319   8.306  0.0429 -0.0633  1.7096
  735MOL0     H99200  14.177   3.278   8.263  2.3931  1.9581 -2.0330
  735MOL0     H99201  14.120   3.524   8.444  0.9694  1.5609 -1.5811
  735MOL0     H99202  14.275   3.477   8.389 -0.0031  0.0213 -1.1827
  735MOL0     H99203  14.251   3.396   8.617 -0.7797 -0.1326 -0.0384
  735MOL0     H99204  14.123   3.291   8.567 -0.0009 -2.2196 -1.4647
  735MOL0     H99205  13.858   3.706   7.653  0.4144  2.0820 -2.2270
  735MOL0     H99206  13.634   3.690   7.552  2.2284  1.2893  0.0489
  735MOL0     H99207  13.395   3.320   7.087 -0.6004  2.8771 -0.6433
  735MOL0     H99208  13.158   3.267   7.056  1.4208 -0.5078 -0.7531
  735MOL0     H99209  11.356   2.847   7.223 -0.3137 -0.2543  0.3305
  735MOL0     H99210  11.090   2.866   7.189  0.0103 -2.2047 -2.4885
  735MOL0     H99211  10.785   3.214   7.059 -0.6395 -1.0979  1.5067
  735MOL0     H99212  10.566   3.314   7.028  2.2138  0.5209  0.1237
  735MOL0     H99213  10.351   3.363   6.967  0.2386 -1.2749 -0.1065
  735MOL0     H99214  10.346   3.230   7.074 -0.0464 -2.4604 -0.6289
  735MOL0     H99215  10.120   3.311   6.888  0.5180 -0.4527 -0.4924
  735MOL0     H99216  10.131   3.317   7.061  0.4840 -0.0601  0.7453
  735MOL0     H99217  10.125   3.087   7.092  0.7077  1.8191  0.0361
  735MOL0     H99218  10.138   3.049   6.917 -0.6274 -0.0078 -0.5433
  735MOL0     H99219   9.904   3.206   7.022 -3.9341 -0.8945 -1.8836
  735MOL0     H99220   9.917   3.110   6.880  1.2403  3.2460 -0.4608
  735MOL0     H99221   9.836   2.802   7.156 -1.0419 -2.0711 -2.8801
  735MOL0     H99222  10.465   2.955   6.792  1.7564 -2.0175  0.8369
  735MOL0     H99223  10.746   2.820   6.745 -0.8556  1.6261 -1.1037
  735MOL0     H99224  10.703   2.757   6.912 -0.8875  0.4082 -0.1075
  735MOL0     H99225  10.584   2.784   6.789 -0.6266  1.1610 -2.0848
  736MOL0     O99226   2.456   4.236   3.259 -0.2640  0.0057  0.3396
  736MOL0     C99227   2.416   4.122   3.256 -0.2113  0.4370 -0.0793
  736MOL0     O99228   2.499   4.016   3.279 -0.7035  0.0579  0.1246
  736MOL0     C99229   2.636   4.046   3.291 -0.0215  0.1674 -0.8222
  736MOL0     C99230   2.728   4.008   3.193  0.4711 -0.2813  0.2044
  736MOL0     C99231   2.865   4.027   3.221 -0.4988  0.3921 -0.4940
  736MOL0     C99232   2.911   4.079   3.342  0.3735  0.3951 -0.2910
  736MOL0     O99233   3.043   4.094   3.378  0.4107  0.0382 -0.4453
  736MOL0     C99234   3.144   4.024   3.306  0.2652 -0.1574  0.5407
  736MOL0     C99235   3.252   3.997   3.396  0.4739 -0.2969 -0.6781
  736MOL0     C99236   3.378   3.951   3.333 -0.4467 -0.9548 -0.0219
  736MOL0     C99237   3.437   4.040   3.219 -0.3765 -0.3673  0.0581
  736MOL0     C99238   3.587   4.004   3.187  0.5414 -0.3935 -0.2682
  736MOL0     C99239   3.677   4.072   3.291 -0.2013  0.0975 -0.2733
  736MOL0     C99240   3.823   4.057   3.264 -0.2235 -0.2114 -0.2346
  736MOL0     C99241   3.907   4.133   3.363 -1.3399 -0.6163  0.1814
  736MOL0     N99242   4.043   4.073   3.382  0.0594  0.0638  0.0147
  736MOL0     C99243   4.130   4.050   3.280 -0.2113  0.9150  0.6948
  736MOL0     C99244   4.227   3.983   3.347  0.5287  0.1278 -1.3337
  736MOL0     C99245   4.352   3.949   3.276 -0.4793 -0.6986  0.2788
  736MOL0     C99246   4.460   3.878   3.349  0.1331  0.6886  0.5213
  736MOL0     C99247   4.511   3.938   3.477  0.4724 -0.1423  0.0113
  736MOL0     C99248   4.561   4.087   3.459  0.1675  0.2537 -0.6544
  736MOL0     O99249   4.578   4.155   3.588 -0.5476 -0.2068 -0.0508
  736MOL0     C99250   4.706   4.164   3.642 -0.4084 -0.6122 -1.0344
  736MOL0     C99251   4.723   4.171   3.781  0.5310 -0.2463  0.2366
  736MOL0     C99252   4.847   4.178   3.846  0.3760 -0.3092  0.4809
  736MOL0     C99253   4.954   4.194   3.763 -0.0108  0.7948  0.5430
  736MOL0     C99254   5.084   4.207   3.818 -0.8677 -0.1205 -0.4198
  736MOL0     O99255   5.084   4.224   3.961  0.6693  0.1724 -0.3509
  736MOL0     C99256   5.206   4.219   4.033 -0.2950 -0.0557 -0.2171
  736MOL0     C99257   5.200   4.268   4.163  1.0219  0.3609  0.8336
  736MOL0     C99258   5.318   4.276   4.245  0.1579 -0.7102  0.4290
  736MOL0     C99259   5.436   4.230   4.202  0.0790 -0.2933  0.3861
  736MOL0     O99260   5.530   4.260   4.300 -0.1092  0.1380 -0.2715
  736MOL0     C99261   5.659   4.208   4.292 -0.7790  0.6068 -0.5618
  736MOL0     C99262   5.755   4.290   4.205 -0.2465 -0.0653  0.3300
  736MOL0     C99263   5.892   4.220   4.201  0.6180 -0.5532  0.2897
  736MOL0     C99264   5.976   4.245   4.332 -0.5551 -0.2640 -0.0734
  736MOL0     C99265   6.092   4.147   4.339 -0.0030  0.3255  0.5116
  736MOL0     C99266   6.130   4.124   4.483 -0.8065  0.3350 -0.4038
  736MOL0     C99267   6.288   4.116   4.492 -0.6519  0.2587  0.0213
  736MOL0     C99268   6.348   4.262   4.496  0.5973 -0.0501 -0.1540
  736MOL0    Cl99269   6.334   4.340   4.650  0.1773 -0.4701 -0.3530
  736MOL0     C99270   5.449   4.168   4.080  0.5404  1.1424 -0.0107
  736MOL0     C99271   5.333   4.175   3.994 -0.7718  0.4175  0.1707
  736MOL0     O99272   5.178   4.218   3.741  0.0897  0.6465 -0.3660
  736MOL0     C99273   4.938   4.193   3.620  0.2905 -0.2236 -0.0944
  736MOL0     C99274   4.815   4.176   3.560 -1.1577 -0.1438  0.1251
  736MOL0     N99275   4.191   3.960   3.485 -0.2483 -1.0154 -0.0520
  736MOL0     N99276   4.088   4.032   3.507 -0.6041  0.0123  0.4928
  736MOL0     C99277   2.818   4.131   3.433  0.9253  0.0171  0.7539
  736MOL0     C99278   2.679   4.112   3.408 -0.0126 -0.5114 -0.0158
  736MOL0     C99279   2.280   4.084   3.199  0.6271  0.2203  0.4475
  736MOL0     C99280   2.266   3.941   3.155  0.5191 -0.1066 -0.4780
  736MOL0     C99281   2.150   3.883   3.105  0.1448  0.1443  0.4836
  736MOL0     C99282   2.039   3.966   3.083  0.3386 -0.1202  0.2397
  736MOL0     O99283   1.930   3.896   3.031  0.0746 -0.1571 -0.5942
  736MOL0     C99284   1.798   3.969   3.041 -0.0706 -0.3111  0.3399
  736MOL0     C99285   1.687   3.857   3.044  0.2707 -0.0446 -0.1477
  736MOL0     C99286   1.722   3.754   2.935  0.1927 -0.2477  0.9795
  736MOL0     C99287   1.600   3.672   2.891  0.1934 -0.1483  0.2173
  736MOL0     C99288   1.540   3.600   3.014  0.0206 -0.5780  0.3626
  736MOL0     C99289   1.478   3.555   3.105  0.5415  1.1325  0.4962
  736MOL0     C99290   2.045   4.106   3.135 -0.6961  0.3104  0.0766
  736MOL0     C99291   2.159   4.169   3.192 -0.2511  0.6899  0.2430
  736MOL0     C99292   2.138   4.313   3.240 -0.0392  0.2305 -0.3291
  736MOL0     H99293   2.703   3.940   3.112  0.0765 -2.3088  1.9384
  736MOL0     H99294   2.943   4.006   3.149  0.4528  2.0906 -0.0228
  736MOL0     H99295   3.104   3.929   3.270  1.7987  0.5922 -3.7813
  736MOL0     H99296   3.170   4.087   3.221 -1.3099  1.8269  1.4246
  736MOL0     H99297   3.224   3.939   3.485 -0.7720  3.2716  1.4622
  736MOL0     H99298   3.268   4.096   3.439  1.8339 -1.0857  0.7350
  736MOL0     H99299   3.372   3.848   3.298  0.7019 -0.3720 -2.0509
  736MOL0     H99300   3.453   3.966   3.412 -0.5134  0.2917 -0.1719
  736MOL0     H99301   3.378   4.028   3.128 -1.3182  1.3272  0.3998
  736MOL0     H99302   3.430   4.146   3.243  2.0642  0.3717 -2.0437
  736MOL0     H99303   3.604   3.896   3.184 -3.6193 -1.1946 -0.7763
  736MOL0     H99304   3.601   4.044   3.087 -0.4435 -0.2138 -0.3428
  736MOL0     H99305   3.651   4.178   3.298  0.5250  0.1886  1.2072
  736MOL0     H99306   3.661   4.018   3.385  1.9964 -0.2743 -0.0675
  736MOL0     H99307   3.837   4.103   3.166  2.8493 -0.5003 -0.0340
  736MOL0     H99308   3.851   3.952   3.251 -1.8074 -0.4573 -2.0875
  736MOL0     H99309   3.916   4.237   3.331 -1.3304 -0.3964  0.8746
  736MOL0     H99310   3.855   4.130   3.459 -0.8206  1.0402  0.5503
  736MOL0     H99311   4.146   4.084   3.178  2.0798  0.2840  0.7953
  736MOL0     H99312   4.333   3.894   3.183  1.2476  1.1887 -1.2791
  736MOL0     H99313   4.388   4.041   3.230 -0.0802  0.4958  2.8159
  736MOL0     H99314   4.421   3.779   3.374 -1.9973  1.4618  0.4850
  736MOL0     H99315   4.539   3.859   3.276  0.8447  0.7470  1.2549
  736MOL0     H99316   4.598   3.876   3.503  0.4931  0.5533  1.7351
  736MOL0     H99317   4.431   3.921   3.550  0.3551 -2.4545 -0.5920
  736MOL0     H99318   4.477   4.142   3.414  0.2538  0.2812 -0.7837
  736MOL0     H99319   4.647   4.082   3.392 -0.9729  0.4512 -2.2214
  736MOL0     H99320   4.633   4.171   3.841  1.1420  2.4259  1.2978
  736MOL0     H99321   4.860   4.187   3.953  0.1047 -0.5541  0.5342
  736MOL0     H99322   5.104   4.302   4.202  0.9796  0.6002  0.5241
  736MOL0     H99323   5.308   4.322   4.342  0.2700 -1.1348  0.6438
  736MOL0     H99324   5.699   4.198   4.394  0.5620  2.1084 -0.8948
  736MOL0     H99325   5.656   4.106   4.252  1.7509  0.1950  0.1363
  736MOL0     H99326   5.722   4.304   4.101 -0.4257  0.5226  0.4572
  736MOL0     H99327   5.756   4.395   4.236  1.7689  0.9356 -2.6765
  736MOL0     H99328   5.879   4.114   4.180 -1.4053 -0.2993  0.0762
  736MOL0     H99329   5.958   4.248   4.118 -1.0978 -0.8536 -1.2574
  736MOL0     H99330   5.908   4.225   4.415  0.3045 -0.6667  0.5505
  736MOL0     H99331   6.001   4.352   4.335 -1.2926 -0.0926  0.2175
  736MOL0     H99332   6.172   4.173   4.269  0.4879  0.3135  1.0610
  736MOL0     H99333   6.059   4.053   4.294  1.3583  0.7625 -1.5623
  736MOL0     H99334   6.084   4.198   4.549 -0.4094 -1.3002  1.8305
  736MOL0     H99335   6.090   4.028   4.517  0.5881 -0.2457 -0.3538
  736MOL0     H99336   6.324   4.059   4.406  1.3998  1.5881 -0.0825
  736MOL0     H99337   6.334   4.065   4.578 -0.6423  1.5383  0.8084
  736MOL0     H99338   6.452   4.255   4.465  0.4127  1.9292 -1.3907
  736MOL0     H99339   6.301   4.328   4.423 -0.4299  0.1054  0.6147
  736MOL0     H99340   5.546   4.129   4.052 -0.5811 -3.1176  1.1934
  736MOL0     H99341   5.336   4.134   3.894 -0.1561 -0.5359  0.5640
  736MOL0     H99342   5.016   4.212   3.547  2.4248  0.0222  2.1266
  736MOL0     H99343   4.812   4.187   3.453  2.4357  3.8597  0.1782
  736MOL0     H99344   2.848   4.183   3.523  0.1193 -0.6603  1.4386
  736MOL0     H99345   2.609   4.147   3.484  0.9372 -1.9525  1.5884
  736MOL0     H99346   2.355   3.880   3.165  2.0836  2.2200  0.4798
  736MOL0     H99347   2.150   3.782   3.066 -1.2986 -0.5551  2.1396
  736MOL0     H99348   1.790   4.032   2.952  2.5767 -1.6097 -0.9349
  736MOL0     H99349   1.789   4.042   3.122 -1.7297  1.0486 -0.9834
  736MOL0     H99350   1.589   3.903   3.025 -0.5091 -2.1492 -1.6345
  736MOL0     H99351   1.682   3.807   3.142  1.7721 -1.1040 -0.5839
  736MOL0     H99352   1.798   3.683   2.970  1.3058  0.8274  0.8076
  736MOL0     H99353   1.773   3.799   2.849  2.9998 -3.1115  0.9488
  736MOL0     H99354   1.518   3.732   2.851 -0.6618 -0.1259  1.9192
  736MOL0     H99355   1.625   3.603   2.810  2.3549  0.7894  0.0419
  736MOL0     H99356   1.411   3.528   3.184 -0.6904  0.4418 -0.7265
  736MOL0     H99357   1.952   4.162   3.138 -1.3559 -0.7623  0.3772
  736MOL0     H99358   2.031   4.335   3.229  0.0973  1.1726  0.1776
  736MOL0     H99359   2.159   4.312   3.348 -0.0715 -1.2195 -0.3100
  736MOL0     H99360   2.198   4.390   3.193  0.0003  0.3541 -0.0793
  737MOL0     O99361   0.131   5.480   6.798 -0.5689 -0.0324  0.2057
  737MOL0     C99362   0.157   5.366   6.843  0.7357  0.6491  0.1620
  737MOL0     O99363   0.224   5.346   6.950 -0.5450 -0.5083  0.8988
  737MOL0     C99364   0.302   5.453   6.999  0.3760 -0.1041  0.3392
  737MOL0     C99365   0.245   5.550   7.085  0.1241 -0.0044  0.5396
  737MOL0     C99366   0.320   5.660   7.135 -0.7899 -1.3089  0.1899
  737MOL0     C99367   0.453   5.678   7.095 -0.2810  0.3949 -0.2431
  737MOL0     O99368   0.530   5.792   7.123 -0.0585 -0.6211  0.3545
  737MOL0     C99369   0.511   5.849   7.250  0.1627 -1.4572  0.0133
  737MOL0     C99370   0.604   5.978   7.259 -0.3138 -1.0112  0.3506
  737MOL0     C99371   0.754   5.937   7.266 -0.2368 -0.7390  0.5815
  737MOL0     C99372   0.821   6.008   7.384 -0.3095 -0.2388  0.0241
  737MOL0     C99373   0.963   5.964   7.418  0.1897 -0.3741  0.4459
  737MOL0     C99374   1.070   6.024   7.326  0.3984  0.3754 -0.2888
  737MOL0     C99375   1.210   5.988   7.370  0.5866 -0.1440  0.0642
  737MOL0     C99376   1.318   6.050   7.283 -0.1729  0.0353 -0.1141
  737MOL0     N99377   1.452   6.024   7.332  0.6431 -0.1667  0.4099
  737MOL0     C99378   1.520   6.084   7.434  0.0486  0.5655 -0.4257
  737MOL0     C99379   1.650   6.049   7.414  0.9012 -0.5400  0.1985
  737MOL0     C99380   1.769   6.074   7.505  0.4140 -0.4025 -0.9809
  737MOL0     C99381   1.882   6.139   7.432  0.0609  0.3732  0.8599
  737MOL0     C99382   2.006   6.167   7.512 -0.7644 -0.7308  1.1206
  737MOL0     C99383   2.121   6.229   7.434 -0.4129 -0.0649 -0.4146
  737MOL0     O99384   2.250   6.193   7.500  1.2021 -0.3797 -0.2458
  737MOL0     C99385   2.354   6.271   7.459  1.0669 -0.0302  0.4072
  737MOL0     C99386   2.476   6.250   7.527  0.0837  0.0809 -0.0720
  737MOL0     C99387   2.593   6.308   7.490  0.0421 -0.0230  0.7950
  737MOL0     C99388   2.602   6.403   7.388  0.1609  0.2478  0.3638
  737MOL0     C99389   2.734   6.459   7.351 -0.0264 -0.3881 -0.4496
  737MOL0     O99390   2.832   6.454   7.448 -0.4389  0.7547 -0.2915
  737MOL0     C99391   2.941   6.541   7.452  0.5770 -0.3034  0.0276
  737MOL0     C99392   3.070   6.502   7.515 -0.1405 -0.3491 -0.3038
  737MOL0     C99393   3.178   6.585   7.510 -0.6159  0.0159  0.0755
  737MOL0     C99394   3.175   6.709   7.448  0.3682 -0.3938  0.9386
  737MOL0     O99395   3.276   6.802   7.449 -0.0477  0.4252  0.6800
  737MOL0     C99396   3.362   6.800   7.558  0.6422  0.3037 -0.0989
  737MOL0     C99397   3.501   6.746   7.522  0.4347  0.0865 -0.5407
  737MOL0     C99398   3.615   6.801   7.611  1.3508 -0.6846  0.1257
  737MOL0     C99399   3.749   6.758   7.567  0.0454 -0.1232 -0.6313
  737MOL0     C99400   3.854   6.798   7.673 -1.2433 -0.6550  0.2316
  737MOL0     C99401   3.992   6.773   7.604 -0.3387  0.0513 -0.2189
  737MOL0     C99402   4.097   6.791   7.716 -0.2760  0.2531 -0.6455
  737MOL0     C99403   4.228   6.717   7.695 -0.2499  0.5664 -0.1648
  737MOL0    Cl99404   4.355   6.792   7.805  0.0686 -0.2261 -0.2976
  737MOL0     C99405   3.052   6.751   7.385  0.0241 -0.3889 -0.7772
  737MOL0     C99406   2.942   6.669   7.389  0.1191 -0.2126  0.2550
  737MOL0     O99407   2.744   6.524   7.244  0.5164 -0.2322 -0.1532
  737MOL0     C99408   2.488   6.414   7.308 -0.1616 -1.1612  0.0103
  737MOL0     C99409   2.369   6.359   7.347  0.6564 -0.1886  0.1942
  737MOL0     N99410   1.661   5.983   7.287 -0.2738 -0.0350 -0.0874
  737MOL0     N99411   1.541   5.972   7.247  0.1848 -0.5492 -0.3540
  737MOL0     C99412   0.507   5.586   7.008 -0.6812  0.5017  0.3400
  737MOL0     C99413   0.434   5.477   6.958  1.2045  0.0838  0.7457
  737MOL0     C99414   0.107   5.249   6.774 -0.7399  0.4330 -0.0416
  737MOL0     C99415   0.178   5.127   6.789  0.0655  0.3000 -0.5036
  737MOL0     C99416   0.127   5.010   6.737 -1.2022  0.6865 -0.2847
  737MOL0     C99417   0.015   5.011   6.648 -0.4870 -0.1995 -0.2707
  737MOL0     O99418  -0.033   4.907   6.581 -0.3336  0.2493 -0.1198
  737MOL0     C99419   0.026   4.778   6.612  0.2364 -0.2465  0.0846
  737MOL0     C99420  -0.005   4.677   6.496 -0.0463 -0.4174  0.3967
  737MOL0     C99421   0.030   4.533   6.532 -0.2351  0.4340  0.2726
  737MOL0     C99422   0.163   4.495   6.481  0.0292  0.1451  0.6532
  737MOL0     C99423   0.273   4.524   6.566 -0.1579 -0.0537  0.1075
  737MOL0     C99424   0.359   4.555   6.638 -0.2534 -0.1530 -0.8360
  737MOL0     C99425  -0.069   5.120   6.640  0.4916 -0.6029 -0.8175
  737MOL0     C99426  -0.026   5.242   6.711 -0.6438 -0.0340  0.5064
  737MOL0     C99427  -0.117   5.365   6.696  0.1497  0.3969  0.1245
  737MOL0     H99428   0.140   5.539   7.107 -0.2125 -0.9902 -1.3683
  737MOL0     H99429   0.275   5.741   7.191 -0.9453 -0.6613 -0.8578
  737MOL0     H99430   0.407   5.884   7.259 -0.0702 -1.5662 -1.8959
  737MOL0     H99431   0.540   5.793   7.339 -2.0225 -1.8265  0.5644
  737MOL0     H99432   0.586   6.041   7.346  3.9925 -0.3489  1.0037
  737MOL0     H99433   0.583   6.048   7.178  0.8383 -1.5850 -0.4934
  737MOL0     H99434   0.804   5.959   7.172  2.8576 -0.2523  2.1928
  737MOL0     H99435   0.756   5.831   7.293 -0.2539 -0.3900  2.0398
  737MOL0     H99436   0.821   6.109   7.341 -2.1481 -1.3180 -2.8125
  737MOL0     H99437   0.761   6.012   7.476 -1.0979 -1.8732 -0.3838
  737MOL0     H99438   0.985   6.003   7.518  0.2222  1.8124 -0.3569
  737MOL0     H99439   0.969   5.856   7.409  2.2591 -0.1160 -4.2344
  737MOL0     H99440   1.059   5.990   7.222  4.0660 -0.9415 -0.4155
  737MOL0     H99441   1.057   6.132   7.332 -1.7159  0.1847 -0.8741
  737MOL0     H99442   1.213   5.879   7.377  0.3996 -0.2102 -0.7430
  737MOL0     H99443   1.222   6.032   7.469 -1.6260  2.2499 -0.6218
  737MOL0     H99444   1.318   6.018   7.178  2.6614  1.6448 -0.7175
  737MOL0     H99445   1.286   6.155   7.282 -2.9099 -0.7052  0.8306
  737MOL0     H99446   1.482   6.127   7.526 -0.6813 -0.5197 -0.2048
  737MOL0     H99447   1.736   6.142   7.584 -2.0809 -1.1658 -1.2824
  737MOL0     H99448   1.800   5.978   7.549 -2.4939 -0.4103  1.3341
  737MOL0     H99449   1.902   6.071   7.349  2.2448 -0.1369  1.7394
  737MOL0     H99450   1.849   6.235   7.389 -1.6161  0.0176  1.2648
  737MOL0     H99451   2.038   6.073   7.558  1.5896 -0.7964 -0.4888
  737MOL0     H99452   1.987   6.242   7.590 -0.4003 -1.0937  1.5669
  737MOL0     H99453   2.105   6.336   7.418  3.7383  0.4590 -2.7958
  737MOL0     H99454   2.123   6.189   7.332 -0.8798 -2.9802  0.6379
  737MOL0     H99455   2.485   6.178   7.607 -1.4015  0.8457  0.8380
  737MOL0     H99456   2.685   6.289   7.545  1.3708  0.6273 -1.1084
  737MOL0     H99457   3.075   6.407   7.567 -0.6822 -0.8719 -1.1830
  737MOL0     H99458   3.262   6.556   7.573 -0.3548 -0.3025 -0.4115
  737MOL0     H99459   3.365   6.903   7.593 -1.8441  0.3398  0.1465
  737MOL0     H99460   3.318   6.753   7.646  1.1804  0.6551  0.3654
  737MOL0     H99461   3.503   6.637   7.519 -0.0998  0.0761 -3.1872
  737MOL0     H99462   3.531   6.785   7.424  2.9736 -1.5742 -0.5321
  737MOL0     H99463   3.617   6.910   7.616  1.1121 -0.7064  0.7290
  737MOL0     H99464   3.601   6.760   7.711 -2.1909  1.8218  0.8351
  737MOL0     H99465   3.779   6.810   7.475  1.0832  2.6431  1.1160
  737MOL0     H99466   3.739   6.653   7.537  1.6272  0.1435 -2.3161
  737MOL0     H99467   3.835   6.735   7.761 -1.2204 -2.7216 -1.1763
  737MOL0     H99468   3.857   6.903   7.702 -0.9637 -0.2738 -1.1187
  737MOL0     H99469   3.998   6.675   7.556  2.9898  1.3005 -2.7428
  737MOL0     H99470   4.003   6.848   7.525 -1.4154  1.7159  1.1419
  737MOL0     H99471   4.052   6.765   7.813 -0.0167 -2.2626 -1.1448
  737MOL0     H99472   4.127   6.896   7.717  1.7645 -0.2849 -1.0633
  737MOL0     H99473   4.218   6.610   7.719 -1.5672  0.2722 -1.8038
  737MOL0     H99474   4.247   6.725   7.587  2.3590  0.9968  0.2683
  737MOL0     H99475   3.043   6.846   7.333  1.3389 -0.0100 -0.3361
  737MOL0     H99476   2.856   6.712   7.340 -1.2609  0.6181  3.1850
  737MOL0     H99477   2.498   6.478   7.221 -2.1579 -1.4540 -0.4740
  737MOL0     H99478   2.281   6.399   7.299 -0.2193  0.1771  1.9982
  737MOL0     H99479   0.604   5.613   6.967 -0.3316 -2.7059 -1.1935
  737MOL0     H99480   0.476   5.423   6.874  1.3309  0.8159  0.3304
  737MOL0     H99481   0.272   5.119   6.843  0.9017  0.1525 -1.9005
  737MOL0     H99482   0.192   4.928   6.764  0.9256  2.5774  0.6883
  737MOL0     H99483  -0.036   4.741   6.695  2.2320 -1.4027  1.1204
  737MOL0     H99484   0.132   4.774   6.638 -0.0388 -1.0053  1.2321
  737MOL0     H99485   0.041   4.701   6.400  0.9517 -1.2092  0.6554
  737MOL0     H99486  -0.112   4.682   6.477 -0.1736  3.2109  1.2431
  737MOL0     H99487  -0.036   4.453   6.499  2.2406 -1.1939 -1.1064
  737MOL0     H99488   0.026   4.531   6.641 -0.6651  2.3995  0.3321
  737MOL0     H99489   0.161   4.388   6.462 -1.3304  0.0727  1.1594
  737MOL0     H99490   0.188   4.555   6.392 -1.6770  1.2242  0.8652
  737MOL0     H99491   0.420   4.582   6.722  0.1465  2.4293 -1.8523
  737MOL0     H99492  -0.158   5.119   6.578  0.0308 -0.3465 -0.1732
  737MOL0     H99493  -0.218   5.327   6.680  0.8281 -0.8646 -1.4023
  737MOL0     H99494  -0.120   5.427   6.786 -0.3824 -2.5124  2.2814
  737MOL0     H99495  -0.082   5.420   6.609  1.4188  0.4500  0.6538
  738MOL0     O99496   6.835   3.926   9.547 -0.2323 -0.0639 -0.4081
  738MOL0     C99497   6.799   4.044   9.543 -0.5079  0.3962 -0.1669
  738MOL0     O99498   6.868   4.152   9.504 -0.6317  0.3772 -0.9114
  738MOL0     C99499   7.003   4.126   9.507 -0.3394  0.5137 -0.4265
  738MOL0     C99500   7.080   4.173   9.611  0.3265  0.3848  1.5323
  738MOL0     C99501   7.218   4.143   9.626  0.0261  0.0715 -0.0934
  738MOL0     C99502   7.273   4.064   9.527  0.5411  0.0840 -1.0254
  738MOL0     O99503   7.404   4.039   9.544 -0.1502 -0.3738 -0.3834
  738MOL0     C99504   7.482   4.008   9.434 -0.2839  0.2862  0.5508
  738MOL0     C99505   7.626   4.018   9.484 -0.2066  0.8003 -0.2625
  738MOL0     C99506   7.660   3.913   9.582 -0.0475  0.2484 -0.6228
  738MOL0     C99507   7.803   3.921   9.634 -0.6524 -0.5393  0.4531
  738MOL0     C99508   7.803   3.829   9.762  0.0169  0.3168 -0.0754
  738MOL0     C99509   7.947   3.796   9.797  0.6139 -0.4270 -0.0767
  738MOL0     C99510   7.952   3.708   9.922  0.4347  0.0095  0.2135
  738MOL0     C99511   8.092   3.630   9.923  0.2535 -0.7832 -0.1043
  738MOL0     N99512   8.088   3.543  10.044  0.0477  0.4404  0.3531
  738MOL0     C99513   8.130   3.582  10.164 -0.2584  0.8806 -0.2760
  738MOL0     C99514   8.124   3.474  10.241 -0.7366  0.4900  0.1391
  738MOL0     C99515   8.155   3.454  10.383 -1.1877 -1.4399 -0.8583
  738MOL0     C99516   8.282   3.512  10.433 -0.1270 -0.8586 -0.5077
  738MOL0     C99517   8.305   3.473  10.577 -0.0770 -0.1519 -1.0063
  738MOL0     C99518   8.422   3.563  10.632  0.2006 -0.2830 -0.9778
  738MOL0     O99519   8.452   3.504  10.761 -0.2608  0.2983 -0.3973
  738MOL0     C99520   8.582   3.502  10.800 -0.1520 -0.4469 -0.0542
  738MOL0     C99521   8.688   3.576  10.743 -0.3638 -0.4714  0.5017
  738MOL0     C99522   8.816   3.585  10.798  0.4560  0.5074  0.1860
  738MOL0     C99523   8.843   3.497  10.915  0.3974  0.0248  0.4311
  738MOL0     C99524   8.975   3.477  10.973  0.3335 -0.4372 -0.0629
  738MOL0     O99525   8.989   3.436  11.097  0.6373  0.1525 -0.3838
  738MOL0     C99526   9.111   3.402  11.152 -0.1872 -0.2291 -0.4298
  738MOL0     C99527   9.233   3.369  11.083  0.2958  0.2573  0.2864
  738MOL0     C99528   9.355   3.350  11.150  0.4270 -0.3916 -0.0838
  738MOL0     C99529   9.356   3.349  11.290 -0.1636 -0.4167  0.0328
  738MOL0     O99530   9.466   3.336  11.377 -0.2602  0.2391 -0.1021
  738MOL0     C99531   9.573   3.253  11.327 -0.0156  0.4661  0.5748
  738MOL0     C99532   9.679   3.238  11.440  0.6703  0.0738 -0.7146
  738MOL0     C99533   9.785   3.148  11.389  0.1651  0.4178 -0.8759
  738MOL0     C99534   9.895   3.148  11.496  0.0794 -1.0982  0.5108
  738MOL0     C99535  10.014   3.063  11.458  0.2478 -0.3114 -0.1049
  738MOL0     C99536  10.112   3.051  11.577 -0.1123 -0.3626 -0.3953
  738MOL0     C99537  10.257   3.007  11.542  0.2349 -0.6912 -0.3875
  738MOL0     C99538  10.336   2.983  11.666 -0.0418  0.2410  0.1889
  738MOL0    Cl99539  10.477   2.860  11.626  0.3260 -0.3124  0.2803
  738MOL0     C99540   9.235   3.364  11.362  0.2820  0.2850  0.3959
  738MOL0     C99541   9.115   3.391  11.293  0.1160  1.1027  0.5578
  738MOL0     O99542   9.069   3.525  10.903  0.2186 -0.4049  0.1215
  738MOL0     C99543   8.737   3.429  10.971  0.5149 -0.1339 -0.2993
  738MOL0     C99544   8.613   3.429  10.911  0.1460  0.1730  0.8148
  738MOL0     N99545   8.070   3.373  10.168 -0.5185  0.4209 -0.2161
  738MOL0     N99546   8.049   3.413  10.052 -0.5107 -0.1246 -0.9790
  738MOL0     C99547   7.203   4.024   9.418  0.3530  0.5974  0.3347
  738MOL0     C99548   7.064   4.059   9.403  0.9302  1.3698 -0.1229
  738MOL0     C99549   6.652   4.061   9.573 -0.8697 -0.1788 -0.6466
  738MOL0     C99550   6.558   3.965   9.533  0.2849 -0.0643 -0.9384
  738MOL0     C99551   6.424   3.985   9.535  0.0373 -1.4229 -0.6170
  738MOL0     C99552   6.371   4.104   9.591 -0.6898  0.3492 -0.3021
  738MOL0     O99553   6.236   4.140   9.590 -0.1014 -0.3516 -0.0245
  738MOL0     C99554   6.128   4.060   9.534 -0.2714 -0.2483 -0.3998
  738MOL0     C99555   6.002   4.140   9.562  0.3063 -0.8145 -0.1296
  738MOL0     C99556   5.980   4.252   9.457  0.3807  0.5671 -0.0729
  738MOL0     C99557   5.889   4.363   9.514  0.0811  0.1108  0.4926
  738MOL0     C99558   5.751   4.328   9.485  0.2398  0.0703  0.6762
  738MOL0     C99559   5.638   4.290   9.449  0.0859 -0.0734 -0.0665
  738MOL0     C99560   6.464   4.201   9.636 -0.4860 -0.2873  0.2481
  738MOL0     C99561   6.604   4.182   9.630 -0.5088  0.4315 -0.1361
  738MOL0     C99562   6.682   4.268   9.727 -0.2748  0.3171  0.0293
  738MOL0     H99563   7.027   4.237   9.681  0.6469  3.4624 -0.8409
  738MOL0     H99564   7.283   4.185   9.702  1.3982 -2.3976  0.2030
  738MOL0     H99565   7.457   3.905   9.404  1.0746 -0.7147  2.6230
  738MOL0     H99566   7.454   4.079   9.356 -0.0406 -0.5622 -0.3394
  738MOL0     H99567   7.637   4.112   9.538 -1.0638  0.3388  0.7800
  738MOL0     H99568   7.691   4.011   9.397  0.5047  0.2788  0.2931
  738MOL0     H99569   7.638   3.812   9.548 -1.5732  0.8258 -1.4379
  738MOL0     H99570   7.592   3.930   9.666  2.0330  2.8898  0.7010
  738MOL0     H99571   7.866   3.875   9.557 -0.9006  0.7677 -0.5692
  738MOL0     H99572   7.847   4.020   9.649  1.6983 -1.6644  1.4775
  738MOL0     H99573   7.760   3.881   9.848  1.3977  1.6520 -0.1461
  738MOL0     H99574   7.743   3.737   9.759 -0.0655  0.2759  1.5728
  738MOL0     H99575   7.990   3.745   9.710  0.7682  0.8431 -0.7710
  738MOL0     H99576   7.998   3.890   9.822 -1.8932  1.6198 -2.0613
  738MOL0     H99577   7.870   3.637   9.921  1.4088 -1.1695 -2.0301
  738MOL0     H99578   7.944   3.784  10.001 -0.1257  1.2753 -1.0268
  738MOL0     H99579   8.094   3.564   9.835 -2.9496 -0.3386 -0.6309
  738MOL0     H99580   8.182   3.692   9.926  2.1631 -3.2506 -1.7540
  738MOL0     H99581   8.160   3.681  10.196 -0.6750  0.9533 -0.1111
  738MOL0     H99582   8.081   3.507  10.443  0.5379 -1.0905  1.0678
  738MOL0     H99583   8.152   3.349  10.413 -1.5539 -0.5523  2.5401
  738MOL0     H99584   8.359   3.466  10.371  1.4275  0.2050  0.5613
  738MOL0     H99585   8.291   3.621  10.430  1.2063 -0.9171  0.5055
  738MOL0     H99586   8.336   3.369  10.583 -0.7006 -0.2581  1.8546
  738MOL0     H99587   8.209   3.494  10.625 -0.2251 -0.1690 -1.2969
  738MOL0     H99588   8.387   3.667  10.640 -5.1175 -1.8620  4.7553
  738MOL0     H99589   8.502   3.551  10.559  0.7794  0.1480 -0.4314
  738MOL0     H99590   8.664   3.655  10.673 -0.9150  1.0555  2.3370
  738MOL0     H99591   8.902   3.640  10.762  1.6043 -0.2208  1.6834
  738MOL0     H99592   9.246   3.370  10.975 -0.5509 -4.4654 -0.0857
  738MOL0     H99593   9.444   3.326  11.092  2.4523  0.6103  2.4039
  738MOL0     H99594   9.534   3.155  11.296 -1.0559  0.0874  2.8856
  738MOL0     H99595   9.620   3.299  11.239 -0.0251  0.2617  0.4602
  738MOL0     H99596   9.710   3.340  11.464 -0.5153  0.5170 -1.0115
  738MOL0     H99597   9.643   3.197  11.534 -0.7708  1.4842 -0.6102
  738MOL0     H99598   9.755   3.043  11.380  1.0877 -0.4191  3.5248
  738MOL0     H99599   9.829   3.211  11.311 -0.2140  3.4392  1.1705
  738MOL0     H99600   9.847   3.137  11.594 -0.5500  2.1296  0.6641
  738MOL0     H99601   9.936   3.248  11.510 -2.0492  0.0243 -0.7156
  738MOL0     H99602  10.070   3.119  11.382  0.0589 -1.0936 -0.8296
  738MOL0     H99603   9.975   2.974  11.408 -2.0513  0.5264  0.0886
  738MOL0     H99604  10.120   3.139  11.641 -0.6953 -1.2596  0.9695
  738MOL0     H99605  10.066   2.981  11.648  0.3525  1.1402  1.4791
  738MOL0     H99606  10.299   3.084  11.476  2.5460 -2.6320 -1.3341
  738MOL0     H99607  10.260   2.917  11.479 -0.7159 -0.5551 -0.6481
  738MOL0     H99608  10.382   3.072  11.710  0.3791  0.4425 -0.6489
  738MOL0     H99609  10.268   2.935  11.738  0.4032 -2.3784 -1.0243
  738MOL0     H99610   9.245   3.360  11.470  0.0559  0.4829  0.4241
  738MOL0     H99611   9.028   3.413  11.355 -0.8753 -0.1395 -0.3293
  738MOL0     H99612   8.755   3.366  11.058  0.4518  0.6652  0.3026
  738MOL0     H99613   8.537   3.365  10.957 -0.7537  1.4880  1.2171
  738MOL0     H99614   7.258   3.960   9.349 -1.1641 -1.2189  0.7508
  738MOL0     H99615   7.013   4.015   9.318 -2.3657  3.9269  0.3285
  738MOL0     H99616   6.578   3.871   9.482  2.9113 -1.9306  2.9588
  738MOL0     H99617   6.367   3.914   9.476 -2.6173  0.0374  0.0242
  738MOL0     H99618   6.116   3.965   9.588 -1.6689 -0.8051 -1.6113
  738MOL0     H99619   6.141   4.041   9.427  0.6237  1.5428 -0.6469
  738MOL0     H99620   6.015   4.184   9.661  1.9399  0.2919 -0.7886
  738MOL0     H99621   5.909   4.083   9.566 -0.5893  0.4665 -1.6727
  738MOL0     H99622   5.933   4.196   9.375  0.6827  0.4666 -0.1798
  738MOL0     H99623   6.076   4.292   9.423  1.8293 -0.3158  2.7078
  738MOL0     H99624   5.901   4.369   9.622 -0.0111  0.6127  0.4754
  738MOL0     H99625   5.922   4.452   9.459 -4.7192  0.1332 -3.0468
  738MOL0     H99626   5.542   4.247   9.425  0.3480 -0.7782  0.1099
  738MOL0     H99627   6.441   4.294   9.688  1.7955  0.3380  0.2506
  738MOL0     H99628   6.645   4.254   9.829  0.6098 -2.1704  0.0766
  738MOL0     H99629   6.789   4.246   9.728 -0.1897  0.6735  2.1087
  738MOL0     H99630   6.669   4.370   9.691  0.1406  0.5561  0.5524
  739MOL0     O99631   5.233   2.298   7.912  0.2238  0.1514 -0.1414
  739MOL0     C99632   5.257   2.301   7.788  0.0424 -0.1539  0.1526
  739MOL0     O99633   5.372   2.263   7.730 -0.7012  0.6489 -0.1147
  739MOL0     C99634   5.489   2.250   7.807 -0.4943  0.0615  0.2643
  739MOL0     C99635   5.606   2.310   7.762 -0.3988 -0.2400  0.4117
  739MOL0     C99636   5.722   2.301   7.838  0.0333  0.2852  0.4029
  739MOL0     C99637   5.736   2.207   7.944  0.5123 -0.5622  0.3426
  739MOL0     O99638   5.843   2.190   8.022  0.9316  0.2409  0.4442
  739MOL0     C99639   5.969   2.219   7.957  0.4027  0.0265 -0.7914
  739MOL0     C99640   6.060   2.204   8.071 -0.6370 -0.0676 -0.2644
  739MOL0     C99641   6.094   2.335   8.141 -0.1619 -0.4074 -0.2691
  739MOL0     C99642   6.183   2.318   8.263 -0.0613 -0.1080 -0.6048
  739MOL0     C99643   6.218   2.459   8.318  0.4633 -0.3025 -0.0468
  739MOL0     C99644   6.289   2.436   8.452 -0.1764  0.5543 -0.0167
  739MOL0     C99645   6.393   2.535   8.483 -0.3000 -0.5025  0.6823
  739MOL0     C99646   6.349   2.677   8.499  0.0451  0.4466 -0.1929
  739MOL0     N99647   6.255   2.682   8.613 -0.0731  0.0674 -0.2792
  739MOL0     C99648   6.121   2.660   8.609  0.2276  0.2769 -0.0150
  739MOL0     C99649   6.089   2.666   8.741  0.5334  0.2108 -0.6625
  739MOL0     C99650   5.958   2.629   8.808  0.0083  0.1059  0.5382
  739MOL0     C99651   5.960   2.479   8.848  0.5086  0.1979  0.2721
  739MOL0     C99652   5.813   2.454   8.898  0.3679 -0.8721 -0.8658
  739MOL0     C99653   5.781   2.310   8.931 -0.4423 -0.2611  0.2612
  739MOL0     O99654   5.873   2.255   9.022 -0.4004 -0.5470  0.3283
  739MOL0     C99655   5.889   2.119   9.036  0.2682 -0.0533 -0.2322
  739MOL0     C99656   5.942   2.078   9.165 -0.3337  0.2813  0.0669
  739MOL0     C99657   5.959   1.949   9.201 -0.2687  0.7047  0.2550
  739MOL0     C99658   5.904   1.842   9.122  1.1802  0.9289 -0.0866
  739MOL0     C99659   5.899   1.713   9.178  0.5538 -0.7412  0.1052
  739MOL0     O99660   5.902   1.703   9.317  0.2894 -0.0921  0.9172
  739MOL0     C99661   5.934   1.582   9.376  0.8747  0.4001 -0.4017
  739MOL0     C99662   5.830   1.498   9.433 -0.3846 -1.1502 -0.7937
  739MOL0     C99663   5.863   1.382   9.501  0.5754 -0.2849  0.2307
  739MOL0     C99664   5.988   1.342   9.507 -0.4076 -0.5507 -0.4564
  739MOL0     O99665   6.002   1.214   9.564 -0.3261  0.2593 -0.0756
  739MOL0     C99666   6.128   1.163   9.601 -0.2396 -0.1890 -0.4600
  739MOL0     C99667   6.104   1.083   9.728  0.2048 -0.2713 -0.0279
  739MOL0     C99668   5.982   0.987   9.718 -0.1126  0.3572  0.1818
  739MOL0     C99669   5.965   0.916   9.855 -0.6369  0.1678  0.4032
  739MOL0     C99670   5.837   0.824   9.847  0.5559  0.2015 -0.6745
  739MOL0     C99671   5.833   0.703   9.948 -1.0251  1.1556 -0.6005
  739MOL0     C99672   5.687   0.651   9.969 -0.2503  0.0715  0.0761
  739MOL0     C99673   5.705   0.524  10.061  0.2706 -0.5639 -0.1025
  739MOL0    Cl99674   5.788   0.570  10.215  0.4564 -0.1116 -0.3452
  739MOL0     C99675   6.097   1.420   9.457  0.8685 -0.5397 -0.5048
  739MOL0     C99676   6.068   1.543   9.392 -0.0509 -0.5859 -0.6197
  739MOL0     O99677   5.865   1.617   9.104  0.1188  0.8605  0.0100
  739MOL0     C99678   5.866   1.877   8.989 -0.9831 -0.0638 -0.0312
  739MOL0     C99679   5.859   2.011   8.948 -0.2960 -0.3684  0.2260
  739MOL0     N99680   6.201   2.693   8.816 -0.3010 -0.5527  0.5145
  739MOL0     N99681   6.303   2.707   8.741 -0.4297  0.1915 -0.6588
  739MOL0     C99682   5.616   2.153   7.990  0.5583  0.3532 -0.3858
  739MOL0     C99683   5.492   2.176   7.927 -0.9923  0.1868  1.5228
  739MOL0     C99684   5.140   2.341   7.698 -0.5650 -0.8046 -0.1330
  739MOL0     C99685   5.003   2.333   7.748 -1.1366  0.2319 -0.0019
  739MOL0     C99686   4.899   2.360   7.665 -0.3226  0.4786 -0.1092
  739MOL0     C99687   4.917   2.390   7.531 -0.2115 -0.2932  0.2225
  739MOL0     O99688   4.821   2.391   7.437 -0.0222  0.0755 -0.0749
  739MOL0     C99689   4.707   2.324   7.473 -0.0275  1.1877  0.0254
  739MOL0     C99690   4.611   2.321   7.359  0.1200 -0.0310 -0.7719
  739MOL0     C99691   4.476   2.256   7.392  0.5236  0.6963 -0.8349
  739MOL0     C99692   4.455   2.112   7.345  1.5997 -0.2998 -0.0515
  739MOL0     C99693   4.312   2.071   7.346  0.3811  0.3591  0.0320
  739MOL0     C99694   4.201   2.023   7.330 -0.4290 -0.0245 -0.8252
  739MOL0     C99695   5.043   2.405   7.480 -0.2255  0.1930 -0.3611
  739MOL0     C99696   5.162   2.377   7.563 -0.1201  0.8041 -0.3343
  739MOL0     C99697   5.296   2.392   7.494  0.2937 -0.0125 -0.6660
  739MOL0     H99698   5.608   2.375   7.675 -1.2541 -0.4194  0.2488
  739MOL0     H99699   5.792   2.381   7.814 -0.4157  0.0237 -1.9899
  739MOL0     H99700   5.985   2.146   7.878  1.8546  0.5097 -0.9715
  739MOL0     H99701   5.972   2.323   7.924 -2.6662  0.4560 -0.0837
  739MOL0     H99702   6.151   2.167   8.022 -2.8404 -3.6062 -2.0617
  739MOL0     H99703   6.026   2.133   8.147  0.3446 -0.2954 -0.0279
  739MOL0     H99704   6.000   2.384   8.167  0.1210 -0.5506  1.1077
  739MOL0     H99705   6.144   2.403   8.071  1.9062 -1.0132  0.5420
  739MOL0     H99706   6.124   2.273   8.344  0.1940  0.2857 -0.1979
  739MOL0     H99707   6.264   2.254   8.229 -1.7503 -1.1162 -2.9754
  739MOL0     H99708   6.278   2.501   8.236 -0.3000 -0.6508 -0.7984
  739MOL0     H99709   6.130   2.522   8.328  0.9988  0.6535 -1.0809
  739MOL0     H99710   6.214   2.420   8.530  0.1736  0.2518  0.2666
  739MOL0     H99711   6.339   2.339   8.461  0.4567  1.0751  3.0295
  739MOL0     H99712   6.461   2.531   8.397 -2.1790 -0.9184 -0.8604
  739MOL0     H99713   6.439   2.499   8.575 -1.6124 -4.1935  0.0544
  739MOL0     H99714   6.438   2.737   8.521  0.9583 -1.4931  1.8126
  739MOL0     H99715   6.304   2.723   8.410  1.6059  2.0694 -0.1905
  739MOL0     H99716   6.051   2.639   8.528 -0.8106  1.4939  0.5310
  739MOL0     H99717   5.933   2.693   8.893 -1.7534 -1.0189  0.9025
  739MOL0     H99718   5.879   2.644   8.735  0.3532 -2.8735 -0.5993
  739MOL0     H99719   5.977   2.420   8.758  0.2934  1.2577 -0.4801
  739MOL0     H99720   6.034   2.453   8.924 -0.4062 -3.6591  0.0278
  739MOL0     H99721   5.735   2.502   8.838 -2.2451 -0.4884  2.5046
  739MOL0     H99722   5.806   2.508   8.994  3.3088 -1.2996 -0.3183
  739MOL0     H99723   5.778   2.257   8.835 -0.2640 -1.4861  0.9195
  739MOL0     H99724   5.678   2.297   8.965 -0.2870 -3.0442 -0.1023
  739MOL0     H99725   5.963   2.165   9.226 -1.8898  0.5075  0.3026
  739MOL0     H99726   5.996   1.935   9.302  0.0954  2.3698  0.3847
  739MOL0     H99727   5.727   1.531   9.421 -0.9987 -2.9727 -0.8604
  739MOL0     H99728   5.784   1.320   9.542 -1.1815  0.4592 -1.8527
  739MOL0     H99729   6.159   1.097   9.520  0.0281 -3.4731  2.0912
  739MOL0     H99730   6.195   1.247   9.617 -0.9567  0.2200  0.5255
  739MOL0     H99731   6.193   1.027   9.755  1.8729  1.6529 -1.2503
  739MOL0     H99732   6.081   1.154   9.807 -3.2754 -1.6875  0.4083
  739MOL0     H99733   5.894   1.047   9.694  1.7325  2.7992 -0.9351
  739MOL0     H99734   5.986   0.923   9.629 -0.3038  0.8093 -0.1574
  739MOL0     H99735   5.947   0.988   9.935  2.1486  2.4207 -0.8438
  739MOL0     H99736   6.054   0.860   9.885 -2.0791 -0.6818  3.5430
  739MOL0     H99737   5.823   0.791   9.744  1.1333  0.8329 -0.9637
  739MOL0     H99738   5.754   0.890   9.874 -0.4807 -0.8005 -1.3026
  739MOL0     H99739   5.890   0.616   9.913 -0.7023  0.4594  1.5426
  739MOL0     H99740   5.883   0.739  10.038 -0.4805 -1.5391  0.2627
  739MOL0     H99741   5.629   0.627   9.879 -1.2678  1.5174  0.3086
  739MOL0     H99742   5.627   0.728  10.019  0.5817  1.1945 -0.6203
  739MOL0     H99743   5.609   0.485  10.097  0.6411 -1.6536 -0.2619
  739MOL0     H99744   5.759   0.438  10.021 -0.0589 -1.0802  0.5279
  739MOL0     H99745   6.202   1.393   9.461  1.1628  0.6675  1.7384
  739MOL0     H99746   6.134   1.620   9.352 -0.3572 -1.2791 -2.5716
  739MOL0     H99747   5.829   1.800   8.922 -2.0108 -1.7238  2.2893
  739MOL0     H99748   5.832   2.038   8.847 -0.3736  1.6727  0.7487
  739MOL0     H99749   5.603   2.079   8.068 -0.5076 -0.8378 -1.6274
  739MOL0     H99750   5.398   2.132   7.957 -0.9944  0.6639  2.2349
  739MOL0     H99751   4.992   2.311   7.853  2.1566 -0.1894  0.3558
  739MOL0     H99752   4.797   2.344   7.699 -1.3630  1.3748 -2.4999
  739MOL0     H99753   4.649   2.375   7.550 -0.4843 -0.2660  0.6913
  739MOL0     H99754   4.736   2.224   7.509  2.6356  2.3666  1.4663
  739MOL0     H99755   4.663   2.286   7.269 -3.4274  0.2268 -3.1224
  739MOL0     H99756   4.588   2.423   7.327 -4.3458 -0.4058  0.5302
  739MOL0     H99757   4.403   2.327   7.351  1.1021  2.2826  0.7504
  739MOL0     H99758   4.455   2.267   7.498  1.8318  2.0541 -0.6794
  739MOL0     H99759   4.485   2.101   7.240  0.9276  1.9034 -0.5452
  739MOL0     H99760   4.515   2.045   7.407  0.6269 -0.5859  0.6013
  739MOL0     H99761   4.108   1.976   7.302 -0.6603  1.1603 -2.2179
  739MOL0     H99762   5.055   2.441   7.378 -0.5965  0.5887 -0.2684
  739MOL0     H99763   5.281   2.449   7.402  4.1778 -0.2474 -1.6068
  739MOL0     H99764   5.375   2.438   7.553  0.7741 -2.2559  0.5608
  739MOL0     H99765   5.320   2.290   7.463  0.8046 -0.9423  2.4446
  740MOL0     O99766   3.810   5.418   7.508  0.4060  1.0539  0.0158
  740MOL0     C99767   3.805   5.295   7.500 -0.0254 -0.1732  0.1303
  740MOL0     O99768   3.916   5.217   7.486  0.3266  0.3594  0.1511
  740MOL0     C99769   4.044   5.257   7.481 -0.9173 -0.7495 -0.6735
  740MOL0     C99770   4.115   5.241   7.366 -0.3937 -0.1792  1.0861
  740MOL0     C99771   4.244   5.291   7.341 -0.7645 -0.6088 -0.9571
  740MOL0     C99772   4.306   5.362   7.444 -0.1117 -0.1014 -0.3952
  740MOL0     O99773   4.432   5.411   7.437 -0.1228  0.2405 -0.3546
  740MOL0     C99774   4.445   5.550   7.467  0.9216 -0.0404 -0.2876
  740MOL0     C99775   4.401   5.625   7.340 -0.3424 -0.7630  1.1613
  740MOL0     C99776   4.479   5.586   7.212 -0.2871 -0.6934  0.3949
  740MOL0     C99777   4.577   5.695   7.187  0.6972  0.0341 -0.3502
  740MOL0     C99778   4.647   5.666   7.053  0.2592 -0.5054  0.3117
  740MOL0     C99779   4.755   5.773   7.030  0.7515 -0.6742 -0.7889
  740MOL0     C99780   4.818   5.757   6.890 -0.0544  0.0694  0.4854
  740MOL0     C99781   4.935   5.863   6.883  0.7795 -0.5884 -0.5679
  740MOL0     N99782   5.052   5.821   6.958 -0.4151  0.0394  0.0993
  740MOL0     C99783   5.112   5.698   6.949 -0.7585  0.3182  0.0789
  740MOL0     C99784   5.239   5.717   6.989 -0.1446  0.1862  0.2433
  740MOL0     C99785   5.329   5.603   7.014  0.2973  0.3724  0.7330
  740MOL0     C99786   5.471   5.631   6.972 -0.6204  0.2145  0.8464
  740MOL0     C99787   5.498   5.599   6.821  0.4669 -0.7957  0.1066
  740MOL0     C99788   5.638   5.659   6.773 -0.3822 -0.6920 -0.7922
  740MOL0     O99789   5.747   5.632   6.867  0.1427  0.3957 -0.4638
  740MOL0     C99790   5.870   5.686   6.842 -0.3292 -0.0027 -0.1397
  740MOL0     C99791   5.972   5.663   6.938  0.4630  0.4912  0.8842
  740MOL0     C99792   6.102   5.707   6.918 -0.8081 -0.0127 -0.0831
  740MOL0     C99793   6.132   5.793   6.813 -0.3503 -0.0290  0.4238
  740MOL0     C99794   6.268   5.838   6.792 -0.1128 -0.6989 -0.9309
  740MOL0     O99795   6.361   5.805   6.883 -0.0293  0.2210  0.5480
  740MOL0     C99796   6.479   5.873   6.886  0.4140  0.0708  0.2186
  740MOL0     C99797   6.481   6.009   6.882  0.3087 -0.0474 -0.4298
  740MOL0     C99798   6.597   6.083   6.900 -0.8365  0.4728 -1.0778
  740MOL0     C99799   6.719   6.016   6.922 -0.4542  0.2491 -0.1287
  740MOL0     O99800   6.829   6.090   6.926  0.3988  0.2996  0.1574
  740MOL0     C99801   6.952   6.025   6.889  0.6904 -0.0371 -0.0362
  740MOL0     C99802   7.069   6.123   6.876  0.7086  0.5173 -0.7806
  740MOL0     C99803   7.113   6.176   7.019  0.0664  0.0430  1.2734
  740MOL0     C99804   7.231   6.271   7.034  0.8541 -0.0272  0.6312
  740MOL0     C99805   7.321   6.245   7.158  0.1950 -0.0521  0.3396
  740MOL0     C99806   7.437   6.145   7.129  0.7333 -0.0942  0.1749
  740MOL0     C99807   7.517   6.104   7.246  0.6769  0.2102  0.1128
  740MOL0     C99808   7.542   6.224   7.344 -0.2987 -0.0219  0.4153
  740MOL0    Cl99809   7.668   6.174   7.459 -0.2163 -0.2828  0.2302
  740MOL0     C99810   6.719   5.876   6.916  0.5831  0.6432 -0.2895
  740MOL0     C99811   6.596   5.805   6.915 -0.0332  0.8300 -0.2807
  740MOL0     O99812   6.297   5.899   6.688 -0.3916 -0.1922 -0.2668
  740MOL0     C99813   6.026   5.818   6.717 -0.5136 -0.0116 -0.1419
  740MOL0     C99814   5.899   5.766   6.730  0.4311  0.1863 -1.5630
  740MOL0     N99815   5.256   5.845   7.028 -0.1019 -0.3312  0.4116
  740MOL0     N99816   5.141   5.907   7.007  0.2538 -0.2177 -0.1252
  740MOL0     C99817   4.242   5.373   7.566 -0.1978  0.1827 -0.0524
  740MOL0     C99818   4.115   5.317   7.586  0.9474 -1.3105  0.0329
  740MOL0     C99819   3.675   5.239   7.494  0.0690 -0.1555  0.2414
  740MOL0     C99820   3.670   5.110   7.442  0.4494  0.1032  0.1386
  740MOL0     C99821   3.546   5.052   7.427 -0.3616 -0.6623 -0.4069
  740MOL0     C99822   3.422   5.117   7.446  0.0962 -0.4503 -0.5177
  740MOL0     O99823   3.300   5.064   7.403  0.6547 -0.0540  0.0513
  740MOL0     C99824   3.252   4.944   7.477  0.7811 -1.0820 -0.2761
  740MOL0     C99825   3.233   4.967   7.627 -0.0530 -0.5105  0.0224
  740MOL0     C99826   3.148   4.857   7.688 -0.1698 -0.1638  0.4778
  740MOL0     C99827   3.089   4.872   7.836 -1.1314  0.4591  0.1702
  740MOL0     C99828   3.190   4.883   7.938  0.2171  0.3540 -0.5606
  740MOL0     C99829   3.268   4.888   8.033  0.3666 -0.3818  0.3725
  740MOL0     C99830   3.432   5.245   7.511  0.1747  0.1719  0.0336
  740MOL0     C99831   3.561   5.307   7.536  0.5602  0.2312  0.8124
  740MOL0     C99832   3.562   5.445   7.602 -0.5805 -0.1418  0.0063
  740MOL0     H99833   4.064   5.191   7.284 -1.1047 -0.8285  1.8983
  740MOL0     H99834   4.280   5.293   7.239 -1.2438 -0.5572 -1.1302
  740MOL0     H99835   4.376   5.577   7.548 -1.4933 -0.3119 -2.1218
  740MOL0     H99836   4.550   5.573   7.486  0.4005  3.4995 -0.9706
  740MOL0     H99837   4.419   5.731   7.361  1.4365  0.0445 -3.2077
  740MOL0     H99838   4.294   5.610   7.321 -0.3866  0.1001  0.6742
  740MOL0     H99839   4.415   5.566   7.126 -0.2374  1.6479 -0.2733
  740MOL0     H99840   4.533   5.492   7.226  0.1740 -0.5975 -0.7073
  740MOL0     H99841   4.532   5.794   7.178  0.0052 -0.3723 -1.7267
  740MOL0     H99842   4.654   5.699   7.264  2.8008  0.4916 -2.3345
  740MOL0     H99843   4.701   5.571   7.050 -0.1812 -0.9965  3.7642
  740MOL0     H99844   4.565   5.665   6.981 -1.9311  0.1043  2.6322
  740MOL0     H99845   4.705   5.871   7.033 -1.0358 -1.5627  1.0236
  740MOL0     H99846   4.819   5.791   7.117  2.1777  0.1549 -1.9686
  740MOL0     H99847   4.746   5.765   6.808  1.0031 -0.4117 -0.5369
  740MOL0     H99848   4.854   5.654   6.878 -2.6303 -0.7748 -0.5936
  740MOL0     H99849   4.964   5.869   6.778  1.6183 -0.6503 -0.3517
  740MOL0     H99850   4.907   5.961   6.922  1.2719 -0.8178  0.4129
  740MOL0     H99851   5.070   5.607   6.908  0.4578 -1.3777  2.3272
  740MOL0     H99852   5.323   5.594   7.123 -1.3818  1.6689  0.7827
  740MOL0     H99853   5.296   5.506   6.977 -0.9339  0.5313  1.3838
  740MOL0     H99854   5.498   5.734   6.996  0.3243  0.4609 -1.0570
  740MOL0     H99855   5.543   5.565   7.022 -1.5434 -0.0056  1.9201
  740MOL0     H99856   5.412   5.635   6.764  0.8982  0.6919  0.3601
  740MOL0     H99857   5.496   5.489   6.823  0.4222 -0.8052 -0.4006
  740MOL0     H99858   5.630   5.768   6.773  3.9066 -0.1834  0.7513
  740MOL0     H99859   5.657   5.628   6.670  1.0241 -2.0096 -0.1736
  740MOL0     H99860   5.940   5.604   7.024 -0.7596  0.8780  0.7152
  740MOL0     H99861   6.178   5.677   6.990 -1.3065  0.1227  0.5010
  740MOL0     H99862   6.390   6.068   6.873  0.5486  0.3296 -0.3996
  740MOL0     H99863   6.591   6.192   6.904 -0.2729  0.4816  0.1074
  740MOL0     H99864   6.980   5.945   6.958 -0.5845  0.9694  1.7431
  740MOL0     H99865   6.939   5.972   6.795 -0.6865  1.7371 -0.9174
  740MOL0     H99866   7.149   6.066   6.828 -0.5471 -1.7198 -0.3297
  740MOL0     H99867   7.048   6.206   6.809  1.8672 -0.2054 -2.0918
  740MOL0     H99868   7.030   6.216   7.078  0.8600 -0.8574  3.1006
  740MOL0     H99869   7.145   6.089   7.077  1.1646 -0.6403 -0.2820
  740MOL0     H99870   7.199   6.376   7.040 -3.4415 -0.9653 -1.7533
  740MOL0     H99871   7.296   6.260   6.947  2.7388  1.2480  1.7898
  740MOL0     H99872   7.258   6.217   7.244 -0.5620 -0.8465 -0.4553
  740MOL0     H99873   7.359   6.343   7.187  0.3063 -0.9866  3.8828
  740MOL0     H99874   7.393   6.056   7.083  1.9078  0.2965 -1.8237
  740MOL0     H99875   7.507   6.189   7.056 -2.2113  2.8009 -1.1608
  740MOL0     H99876   7.614   6.059   7.221  0.1758 -0.3213 -0.9622
  740MOL0     H99877   7.458   6.030   7.301 -3.3005  2.1844 -1.0860
  740MOL0     H99878   7.582   6.310   7.290 -2.2793  0.6378 -0.0948
  740MOL0     H99879   7.445   6.250   7.389 -0.5996 -3.7105  2.2795
  740MOL0     H99880   6.804   5.809   6.922  1.3650  1.5899 -0.4577
  740MOL0     H99881   6.594   5.698   6.927 -0.1385  0.7126 -1.2239
  740MOL0     H99882   6.046   5.875   6.627  0.7075  2.8905  1.8306
  740MOL0     H99883   5.832   5.780   6.645  1.5984 -1.4315 -2.8026
  740MOL0     H99884   4.283   5.429   7.649 -0.2808 -0.5941  0.5203
  740MOL0     H99885   4.064   5.337   7.680  0.5976  1.1886 -0.6205
  740MOL0     H99886   3.755   5.047   7.414 -2.3641 -2.4374 -3.8611
  740MOL0     H99887   3.535   4.953   7.384 -2.6232 -0.1331 -1.1700
  740MOL0     H99888   3.327   4.867   7.458  1.9030  0.1424 -0.9773
  740MOL0     H99889   3.158   4.914   7.429 -1.0311 -0.5706  2.6803
  740MOL0     H99890   3.189   5.066   7.645 -0.3970 -1.0772  2.7279
  740MOL0     H99891   3.328   4.970   7.681 -0.1337 -0.5940  0.1679
  740MOL0     H99892   3.202   4.762   7.682 -1.7269 -1.1244  1.2053
  740MOL0     H99893   3.064   4.847   7.618 -0.4542  1.9094  0.4791
  740MOL0     H99894   3.035   4.966   7.851  0.8277  1.4561  1.3343
  740MOL0     H99895   3.015   4.794   7.855 -1.8200  0.5975 -1.6850
  740MOL0     H99896   3.327   4.899   8.122  2.0271  1.0606 -0.8566
  740MOL0     H99897   3.335   5.289   7.527 -0.4439 -0.9254 -0.5435
  740MOL0     H99898   3.634   5.456   7.683  0.2961  2.0697 -0.9968
  740MOL0     H99899   3.584   5.526   7.532 -0.7223 -0.2144 -0.1223
  740MOL0     H99900   3.466   5.473   7.647  0.3410  1.3262  1.1539
  741MOL0     O99901   9.736   2.066   7.085 -0.0533  0.1977  0.3505
  741MOL0     C99902   9.712   1.995   6.988 -0.1015 -0.2455 -0.8317
  741MOL0     O99903   9.809   1.942   6.897  0.3961  0.3294 -0.4549
  741MOL0     C99904   9.942   1.978   6.914 -0.8473  0.3432 -0.1104
  741MOL0     C99905   9.992   2.080   6.836 -0.1003 -1.0902 -0.0626
  741MOL0     C99906  10.126   2.119   6.842  0.0256 -0.3388  0.0296
  741MOL0     C99907  10.218   2.041   6.910  0.7002  0.3794 -0.4503
  741MOL0     O99908  10.350   2.058   6.890  0.2695  0.6580  0.4491
  741MOL0     C99909  10.447   1.961   6.949  0.4246 -0.2402 -0.4374
  741MOL0     C99910  10.584   2.000   6.900  0.9680  0.1476 -0.5594
  741MOL0     C99911  10.687   1.928   6.984 -0.1414 -0.0057 -0.8254
  741MOL0     C99912  10.823   1.983   6.932  0.1504  0.5077 -0.8050
  741MOL0     C99913  10.940   1.936   7.024  0.0904  0.5417  0.6133
  741MOL0     C99914  11.065   2.017   6.985  0.1671  0.1949  0.4368
  741MOL0     C99915  11.165   2.013   7.103 -0.5757 -0.4755  0.6182
  741MOL0     C99916  11.306   2.069   7.086  0.4771 -0.5539 -0.4272
  741MOL0     N99917  11.396   2.069   7.204 -0.0880 -0.3233 -0.4311
  741MOL0     C99918  11.449   2.182   7.262  0.6084  0.5940  0.6695
  741MOL0     C99919  11.486   2.152   7.386  0.5906  0.5010  0.6211
  741MOL0     C99920  11.544   2.248   7.475 -1.0657  0.7462 -0.6666
  741MOL0     C99921  11.675   2.201   7.540  0.1817  0.6489  0.1885
  741MOL0     C99922  11.785   2.176   7.440 -0.4255 -0.1789 -0.0852
  741MOL0     C99923  11.910   2.112   7.498 -0.4456  0.8536 -0.3657
  741MOL0     O99924  11.997   2.077   7.387 -0.1442 -0.0226  0.1313
  741MOL0     C99925  12.128   2.079   7.405  0.1210  0.3208 -0.3397
  741MOL0     C99926  12.182   2.008   7.517 -0.1893  0.1088 -0.4436
  741MOL0     C99927  12.316   1.993   7.532 -0.2978 -0.0527  0.1823
  741MOL0     C99928  12.408   2.059   7.446  0.6218 -0.6144 -0.5416
  741MOL0     C99929  12.556   2.057   7.470 -0.6224 -0.0697 -0.2864
  741MOL0     O99930  12.609   2.182   7.447  0.0371 -0.9660 -0.1928
  741MOL0     C99931  12.745   2.208   7.447 -0.1708  0.4452  0.3835
  741MOL0     C99932  12.779   2.335   7.480 -0.1245 -0.7061 -1.2866
  741MOL0     C99933  12.909   2.387   7.460 -0.4383  0.0514  0.2483
  741MOL0     C99934  13.013   2.302   7.416  0.0313 -0.3833 -0.1544
  741MOL0     O99935  13.133   2.364   7.380 -0.2144 -0.4415  0.1275
  741MOL0     C99936  13.215   2.281   7.291  0.8277  0.0727  0.1722
  741MOL0     C99937  13.345   2.361   7.255  0.2219  0.1679  0.4848
  741MOL0     C99938  13.452   2.357   7.370  0.5975  0.5111  0.0214
  741MOL0     C99939  13.566   2.441   7.339 -0.2672 -0.0133 -0.2505
  741MOL0     C99940  13.674   2.422   7.451  0.1090  0.1772 -0.2448
  741MOL0     C99941  13.802   2.508   7.438  0.1596 -0.6639  0.4532
  741MOL0     C99942  13.906   2.478   7.546  0.1340  0.9770 -0.0012
  741MOL0     C99943  14.046   2.496   7.495 -0.1326  0.2420 -0.0506
  741MOL0    Cl99944  14.135   2.541   7.641  0.1378  0.5092  0.0736
  741MOL0     C99945  12.978   2.162   7.393  0.0301  0.3517  0.3655
  741MOL0     C99946  12.846   2.120   7.401  0.0417 -0.5098  0.3946
  741MOL0     O99947  12.621   1.952   7.489 -0.3439 -0.3505  0.0109
  741MOL0     C99948  12.355   2.144   7.355 -0.1842 -0.5267 -0.3356
  741MOL0     C99949  12.220   2.155   7.333 -0.1307  0.2421 -0.2992
  741MOL0     N99950  11.463   2.012   7.399 -0.6037 -0.5013  0.5934
  741MOL0     N99951  11.405   1.965   7.290 -0.4894  0.2871  0.3498
  741MOL0     C99952  10.161   1.941   6.992  0.4706 -0.7789  0.9948
  741MOL0     C99953  10.030   1.906   6.993  0.6572  0.0496  0.2457
  741MOL0     C99954   9.569   1.958   6.975  0.1276  0.6551  0.7532
  741MOL0     C99955   9.539   1.839   6.910 -0.3341  0.7904  0.1288
  741MOL0     C99956   9.404   1.795   6.886  0.0339  0.0320  0.4892
  741MOL0     C99957   9.294   1.874   6.926 -0.2747  0.2306 -0.2667
  741MOL0     O99958   9.160   1.845   6.905  0.1531  0.3558  0.6082
  741MOL0     C99959   9.118   1.733   6.821  0.0389 -0.5792  0.3081
  741MOL0     C99960   8.975   1.682   6.822  0.2047  0.4282 -0.0671
  741MOL0     C99961   8.954   1.609   6.959  0.3893 -0.3908 -0.4482
  741MOL0     C99962   8.826   1.529   6.958  1.1269  0.7104 -0.0928
  741MOL0     C99963   8.813   1.446   7.077 -0.5820 -0.0786  0.9513
  741MOL0     C99964   8.818   1.385   7.183 -0.3007 -0.5000  0.5208
  741MOL0     C99965   9.322   1.989   6.999 -0.1013 -0.4385  0.2620
  741MOL0     C99966   9.456   2.032   7.027  0.1198  1.6194  0.1588
  741MOL0     C99967   9.464   2.153   7.102  0.2478 -0.3189 -0.1484
  741MOL0     H99968   9.918   2.132   6.776  0.4461  0.0433  0.2192
  741MOL0     H99969  10.171   2.202   6.789 -0.6780 -0.8911 -1.4830
  741MOL0     H99970  10.437   1.981   7.056 -4.2612  4.4382 -1.2820
  741MOL0     H99971  10.413   1.861   6.923 -1.5758  1.1822 -4.0973
  741MOL0     H99972  10.595   2.109   6.909 -0.8026  0.5175 -2.3254
  741MOL0     H99973  10.592   1.987   6.792 -1.8833  2.4237 -1.1842
  741MOL0     H99974  10.672   1.821   6.967 -2.0583 -0.0806  0.9253
  741MOL0     H99975  10.666   1.959   7.087  0.5649 -1.9983 -0.0375
  741MOL0     H99976  10.840   1.945   6.831  0.6906 -3.5455  0.6321
  741MOL0     H99977  10.826   2.092   6.937 -1.3609  0.5608 -0.5334
  741MOL0     H99978  10.908   1.953   7.128 -1.3910  0.4182  0.2011
  741MOL0     H99979  10.961   1.831   7.001  0.6573  0.7789  0.0249
  741MOL0     H99980  11.104   1.963   6.898 -1.9587 -2.0872  0.7713
  741MOL0     H99981  11.042   2.118   6.951  1.8716  0.9897  1.5519
  741MOL0     H99982  11.174   1.914   7.148 -0.6063 -0.2476  1.1314
  741MOL0     H99983  11.122   2.085   7.174  0.8972  0.6600  0.4135
  741MOL0     H99984  11.359   2.014   7.007 -0.4305  0.4461 -1.7772
  741MOL0     H99985  11.283   2.166   7.042 -0.8202 -1.0968 -0.9973
  741MOL0     H99986  11.444   2.283   7.223 -0.8163  0.4416  0.4045
  741MOL0     H99987  11.553   2.338   7.413 -2.0103  0.4350 -1.2852
  741MOL0     H99988  11.478   2.261   7.561 -0.4781 -1.2458  0.1529
  741MOL0     H99989  11.715   2.267   7.618  2.8461  0.6365 -1.0483
  741MOL0     H99990  11.643   2.107   7.585 -3.7606  1.2673 -0.9539
  741MOL0     H99991  11.815   2.269   7.391 -0.7975 -0.3583 -0.6641
  741MOL0     H99992  11.752   2.106   7.364  0.6003 -1.5831  0.7172
  741MOL0     H99993  11.888   2.021   7.553 -0.1612 -1.1221 -3.2915
  741MOL0     H99994  11.952   2.176   7.576  0.2550  0.2469 -0.2304
  741MOL0     H99995  12.111   1.951   7.576  0.3625 -0.3787 -0.2385
  741MOL0     H99996  12.361   1.928   7.607 -2.5331  0.1878  1.8356
  741MOL0     H99997  12.694   2.398   7.501  2.1547  2.5405 -0.9892
  741MOL0     H99998  12.925   2.494   7.471 -1.4370  0.1447  0.9571
  741MOL0     H99999  13.242   2.187   7.339 -3.2288 -1.2995  0.0592
  741MOL0     H    0  13.163   2.259   7.198 -0.1455  0.9077  0.5009
  741MOL0     H    1  13.393   2.305   7.175  0.2834 -1.7441  1.7976
  741MOL0     H    2  13.310   2.464   7.237 -0.1874  0.1926  1.3719
  741MOL0     H    3  13.409   2.390   7.464 -0.1525  1.5768 -0.6776
  741MOL0     H    4  13.486   2.253   7.376 -0.7076  0.1479  2.7019
  741MOL0     H    5  13.522   2.541   7.330 -1.5007 -0.6650 -2.3074
  741MOL0     H    6  13.606   2.408   7.242  1.1831  0.0994  0.2867
  741MOL0     H    7  13.697   2.315   7.446  0.3482  0.1155  1.4900
  741MOL0     H    8  13.620   2.440   7.544 -3.1801  0.7587 -2.1407
  741MOL0     H    9  13.845   2.489   7.339  0.6308 -0.5787  0.6395
  741MOL0     H   10  13.776   2.614   7.440  0.9640 -0.3384 -2.1501
  741MOL0     H   11  13.905   2.378   7.592 -1.6543  0.6004 -0.7536
  741MOL0     H   12  13.882   2.550   7.624 -1.0696  1.0345 -0.3985
  741MOL0     H   13  14.077   2.401   7.452  2.3551  0.0421  1.9265
  741MOL0     H   14  14.041   2.574   7.419  0.9596 -0.3592 -0.7608
  741MOL0     H   15  13.053   2.089   7.364 -1.6960 -1.3641  0.0623
  741MOL0     H   16  12.822   2.021   7.365 -1.4767  0.5451 -1.7633
  741MOL0     H   17  12.420   2.199   7.288  1.0340 -2.1708 -0.5763
  741MOL0     H   18  12.185   2.218   7.252 -0.9637  0.0424 -0.1049
  741MOL0     H   19  10.239   1.893   7.050  2.8770  3.1765  1.4028
  741MOL0     H   20   9.996   1.819   7.048  1.4610  0.6743  1.7864
  741MOL0     H   21   9.614   1.777   6.863 -1.4366  1.0992 -2.1809
  741MOL0     H   22   9.385   1.699   6.839 -0.5375  0.1698  0.4354
  741MOL0     H   23   9.186   1.648   6.833  0.1432 -0.2239  2.6097
  741MOL0     H   24   9.131   1.767   6.718  0.3104  2.5978  1.2939
  741MOL0     H   25   8.966   1.607   6.743  1.7434  1.2677 -1.0911
  741MOL0     H   26   8.907   1.767   6.814 -3.1512 -2.1517 -0.6429
  741MOL0     H   27   8.963   1.673   7.047  4.4413 -2.0469  0.5739
  741MOL0     H   28   9.034   1.536   6.972  0.9879  0.7121  3.1458
  741MOL0     H   29   8.741   1.597   6.963  1.0120  0.4999  3.6285
  741MOL0     H   30   8.817   1.463   6.871 -1.0441 -1.9628  1.9895
  741MOL0     H   31   8.815   1.322   7.270 -0.8281  1.5213  2.0303
  741MOL0     H   32   9.228   2.041   7.013  0.4580  0.7167 -0.1897
  741MOL0     H   33   9.375   2.215   7.091 -0.0392 -0.4716  1.1284
  741MOL0     H   34   9.469   2.121   7.207  0.1724  0.5891  0.1375
  741MOL0     H   35   9.544   2.221   7.073  0.9165 -0.9162  0.2486
  742MOL0     O   36   8.195   8.734   8.509 -0.1419  0.0801 -0.9772
  742MOL0     C   37   8.173   8.665   8.405  0.1585 -0.5712  0.5676
  742MOL0     O   38   8.271   8.610   8.327 -0.1387 -0.1062  1.0652
  742MOL0     C   39   8.392   8.601   8.392  0.1826  0.5394  0.7218
  742MOL0     C   40   8.484   8.695   8.348 -0.3652  0.0871 -0.5417
  742MOL0     C   41   8.613   8.684   8.398  0.2940 -0.4668 -0.1571
  742MOL0     C   42   8.649   8.582   8.485 -0.3034 -1.7418  0.9479
  742MOL0     O   43   8.777   8.580   8.527 -0.0389  0.1567 -0.0831
  742MOL0     C   44   8.822   8.489   8.626  0.2654  0.6386  0.3767
  742MOL0     C   45   8.970   8.512   8.663  0.3666 -0.7233  0.1383
  742MOL0     C   46   9.050   8.497   8.537 -0.1749 -0.2782  0.3234
  742MOL0     C   47   9.200   8.536   8.558 -0.7104 -1.1747 -0.8600
  742MOL0     C   48   9.220   8.688   8.560 -0.5797 -0.0758  0.6894
  742MOL0     C   49   9.369   8.725   8.567  0.5746  0.8719 -0.0970
  742MOL0     C   50   9.395   8.864   8.514  0.0177 -0.2758  0.5944
  742MOL0     C   51   9.512   8.943   8.559 -0.0740  0.4016  0.3264
  742MOL0     N   52   9.643   8.874   8.550  0.1611 -0.1612  0.1152
  742MOL0     C   53   9.707   8.820   8.660  0.3985 -0.0097 -0.2511
  742MOL0     C   54   9.827   8.778   8.612  0.5184 -0.1671  0.3231
  742MOL0     C   55   9.942   8.729   8.685  0.5725  0.4136 -1.0863
  742MOL0     C   56  10.080   8.752   8.612  0.0543  0.6572  0.2604
  742MOL0     C   57  10.188   8.723   8.704 -0.0043  0.3361 -0.1201
  742MOL0     C   58  10.326   8.720   8.632  0.0437 -0.1118 -0.0518
  742MOL0     O   59  10.430   8.754   8.727  0.0281  0.0668 -0.4368
  742MOL0     C   60  10.562   8.763   8.686 -0.5779  0.3699 -0.2902
  742MOL0     C   61  10.658   8.762   8.796  0.7336 -0.4659 -0.5518
  742MOL0     C   62  10.792   8.780   8.767  0.6161  0.4471  0.5120
  742MOL0     C   63  10.834   8.801   8.636  0.1746  0.3671  0.7703
  742MOL0     C   64  10.980   8.805   8.597 -0.4849  0.4438  0.0528
  742MOL0     O   65  10.995   8.836   8.470 -0.4308  0.3851  1.0049
  742MOL0     C   66  11.117   8.878   8.425 -1.0592  0.7461 -0.0355
  742MOL0     C   67  11.177   8.816   8.317  0.2624 -0.0358 -0.1433
  742MOL0     C   68  11.300   8.851   8.264 -0.1384 -1.0434  0.8320
  742MOL0     C   69  11.362   8.971   8.318 -0.4167 -0.0285 -0.2071
  742MOL0     O   70  11.475   9.030   8.264 -0.3316 -0.9491 -0.3049
  742MOL0     C   71  11.545   8.970   8.154 -0.1168 -0.1206 -0.0312
  742MOL0     C   72  11.673   9.056   8.123 -0.3300 -0.0175  0.6345
  742MOL0     C   73  11.782   8.975   8.079 -0.7287  0.3971  0.9481
  742MOL0     C   74  11.919   9.038   8.088  0.0478 -0.3021  0.7788
  742MOL0     C   75  12.029   8.950   8.032  0.3046 -0.0338  0.0091
  742MOL0     C   76  12.166   9.027   8.006  0.8692  0.0750  0.2779
  742MOL0     C   77  12.279   8.930   7.991 -0.2130 -0.4915 -0.1458
  742MOL0     C   78  12.324   8.872   8.124  0.1744 -0.2087  0.0198
  742MOL0    Cl   79  12.457   8.756   8.074  0.1549  0.3873  0.1627
  742MOL0     C   80  11.305   9.034   8.422 -0.2278 -0.4705 -0.3276
  742MOL0     C   81  11.182   8.992   8.487 -0.7624  0.7018  0.1017
  742MOL0     O   82  11.066   8.802   8.684  0.3154 -0.0151 -0.0623
  742MOL0     C   83  10.739   8.809   8.527  0.5135 -0.3707 -0.1432
  742MOL0     C   84  10.604   8.776   8.556  0.0383 -0.0491 -0.1478
  742MOL0     N   85   9.837   8.825   8.480 -0.0846  0.4441 -0.8546
  742MOL0     N   86   9.731   8.881   8.452  0.8286  0.5553  0.4958
  742MOL0     C   87   8.549   8.491   8.524  0.1510 -0.1761 -0.6060
  742MOL0     C   88   8.421   8.497   8.471  0.6386 -0.8208  0.0326
  742MOL0     C   89   8.036   8.646   8.362 -0.2449 -0.1470 -0.9744
  742MOL0     C   90   8.005   8.519   8.321 -0.0033  0.3528 -0.6373
  742MOL0     C   91   7.877   8.495   8.280  0.0803 -0.6143 -0.0497
  742MOL0     C   92   7.775   8.596   8.282 -1.0606 -0.0042  0.1878
  742MOL0     O   93   7.650   8.587   8.219 -0.0039  0.5295 -0.5455
  742MOL0     C   94   7.604   8.467   8.156  0.5433 -0.5235  0.3792
  742MOL0     C   95   7.527   8.384   8.266  0.1242 -0.5521  0.9934
  742MOL0     C   96   7.383   8.432   8.284  0.6215 -0.8038  0.3238
  742MOL0     C   97   7.287   8.331   8.357  0.4683  0.1494  0.0477
  742MOL0     C   98   7.323   8.331   8.496 -0.3703  0.1913  0.5286
  742MOL0     C   99   7.352   8.323   8.617 -0.7451  0.3180  0.3171
  742MOL0     C  100   7.808   8.723   8.333 -0.7025 -0.6369  0.2030
  742MOL0     C  101   7.938   8.750   8.371  0.5090 -0.7005 -0.1343
  742MOL0     C  102   7.973   8.898   8.411  0.6833  0.7242 -0.3068
  742MOL0     H  103   8.462   8.761   8.264 -0.4100 -1.0431 -1.4516
  742MOL0     H  104   8.686   8.760   8.372 -0.2077  0.7059  1.6244
  742MOL0     H  105   8.767   8.492   8.721 -1.8296  1.4833 -0.7962
  742MOL0     H  106   8.819   8.388   8.585 -1.6147 -0.2029  2.3892
  742MOL0     H  107   9.005   8.444   8.741 -0.6917 -0.2029  1.1071
  742MOL0     H  108   8.977   8.614   8.700 -0.4360 -0.9338  0.9007
  742MOL0     H  109   9.010   8.549   8.450  0.4628 -0.6901 -0.2308
  742MOL0     H  110   9.054   8.390   8.516  1.1716 -0.3996  1.0213
  742MOL0     H  111   9.249   8.504   8.650 -0.7158 -0.6813 -0.6796
  742MOL0     H  112   9.257   8.495   8.474 -0.8095  0.0621 -1.5705
  742MOL0     H  113   9.191   8.735   8.466  1.3959  2.2731  1.1337
  742MOL0     H  114   9.161   8.742   8.634 -2.4352  2.1765 -2.1971
  742MOL0     H  115   9.404   8.722   8.670  1.7115 -2.2440 -0.4662
  742MOL0     H  116   9.440   8.665   8.509 -1.5683  0.2264 -2.2071
  742MOL0     H  117   9.302   8.918   8.531 -0.0995  0.4931 -2.0488
  742MOL0     H  118   9.394   8.862   8.405  0.7533  1.9552  0.4852
  742MOL0     H  119   9.515   9.035   8.500 -1.0353 -0.8432 -1.7515
  742MOL0     H  120   9.497   8.975   8.663 -1.0119  2.1151 -0.2993
  742MOL0     H  121   9.664   8.822   8.760 -0.7154  4.4460 -0.6036
  742MOL0     H  122   9.942   8.760   8.790  3.0134 -2.5720 -0.0627
  742MOL0     H  123   9.929   8.621   8.697  0.3407  0.5380 -0.1167
  742MOL0     H  124  10.099   8.708   8.514 -0.2106 -0.8639  0.8671
  742MOL0     H  125  10.087   8.858   8.584 -1.9054  1.0549  1.1076
  742MOL0     H  126  10.166   8.623   8.744 -1.2141 -0.0097 -1.5673
  742MOL0     H  127  10.197   8.790   8.790  2.6332 -0.7572  0.5829
  742MOL0     H  128  10.329   8.778   8.540  0.4774 -0.1582 -0.0711
  742MOL0     H  129  10.356   8.619   8.603  1.3847  0.2130  0.1466
  742MOL0     H  130  10.622   8.749   8.897 -0.1675  1.7726 -0.5271
  742MOL0     H  131  10.866   8.774   8.846  0.2551  1.8698  0.9782
  742MOL0     H  132  11.118   8.745   8.261 -1.3766  1.1183  0.0611
  742MOL0     H  133  11.342   8.805   8.175 -1.5887  0.5361 -0.7419
  742MOL0     H  134  11.578   8.871   8.187 -0.1281  0.1994  0.9491
  742MOL0     H  135  11.484   8.963   8.063 -1.1527  2.4326  0.4059
  742MOL0     H  136  11.644   9.143   8.065 -2.2228  1.6811  3.8120
  742MOL0     H  137  11.702   9.088   8.224 -0.6746 -0.9846  1.0565
  742MOL0     H  138  11.781   8.873   8.117 -1.9422  0.4371  1.0576
  742MOL0     H  139  11.775   8.958   7.971  2.1665 -0.6419  0.8416
  742MOL0     H  140  11.944   9.057   8.193 -2.1993 -1.6607  1.6654
  742MOL0     H  141  11.919   9.131   8.030  0.0494 -1.6194 -1.4448
  742MOL0     H  142  12.000   8.899   7.939 -1.0500 -1.4694  1.1521
  742MOL0     H  143  12.044   8.865   8.099 -0.5319 -1.1695 -1.1788
  742MOL0     H  144  12.151   9.083   7.913  2.0654  0.5256  0.3297
  742MOL0     H  145  12.191   9.092   8.091  2.8686  0.8587 -0.8378
  742MOL0     H  146  12.366   8.979   7.946 -0.3620  0.7458  0.8330
  742MOL0     H  147  12.247   8.850   7.924 -0.7836  0.3306 -0.8949
  742MOL0     H  148  12.364   8.953   8.185  1.9155 -0.3247 -0.8781
  742MOL0     H  149  12.249   8.811   8.174  0.6902  0.5836  1.8371
  742MOL0     H  150  11.358   9.120   8.463  1.4617 -0.7341 -1.8795
  742MOL0     H  151  11.137   9.035   8.575 -2.9456 -1.7192  0.2752
  742MOL0     H  152  10.766   8.824   8.423  0.0527  0.6940 -0.1252
  742MOL0     H  153  10.534   8.785   8.473  1.5859  0.0380 -1.5121
  742MOL0     H  154   8.566   8.415   8.599 -2.7540 -0.1580  0.2105
  742MOL0     H  155   8.349   8.421   8.501  1.2735 -1.6781 -0.5966
  742MOL0     H  156   8.077   8.438   8.315 -2.1715 -1.6787 -0.6178
  742MOL0     H  157   7.863   8.396   8.238  1.6239 -0.1556 -1.7764
  742MOL0     H  158   7.691   8.415   8.116  3.4046  0.7810  4.2925
  742MOL0     H  159   7.529   8.486   8.079  1.6852 -0.0060 -0.6326
  742MOL0     H  160   7.579   8.387   8.363  0.1179  2.1901  0.9860
  742MOL0     H  161   7.531   8.284   8.224  2.0683 -1.2621  2.6998
  742MOL0     H  162   7.338   8.466   8.189 -1.8145 -1.8245  1.0283
  742MOL0     H  163   7.374   8.523   8.344 -0.9627 -2.1790  2.3177
  742MOL0     H  164   7.184   8.368   8.354 -0.1165 -1.3827  0.6244
  742MOL0     H  165   7.294   8.234   8.308 -0.6389  0.2061 -0.2491
  742MOL0     H  166   7.391   8.306   8.715  2.4065  1.2849 -0.6533
  742MOL0     H  167   7.736   8.804   8.340  0.4620  0.3939  0.7338
  742MOL0     H  168   7.982   8.905   8.519  0.7247  1.8512 -0.3630
  742MOL0     H  169   8.075   8.911   8.374  0.1186  2.0529 -1.5155
  742MOL0     H  170   7.902   8.972   8.372 -1.7028 -2.4568 -2.5953
  743MOL0     O  171   6.143   5.096   2.513 -0.3211 -0.4026 -0.3567
  743MOL0     C  172   6.112   4.981   2.539 -0.7377 -0.3380 -0.2467
  743MOL0     O  173   6.200   4.884   2.582 -0.5164  0.9684 -0.5344
  743MOL0     C  174   6.334   4.887   2.600 -0.2275 -0.0471 -0.2571
  743MOL0     C  175   6.400   4.761   2.601  0.3159 -0.5678  0.0273
  743MOL0     C  176   6.538   4.757   2.613  0.2737  0.3922 -0.0673
  743MOL0     C  177   6.616   4.879   2.632 -0.0658  0.7220  0.4381
  743MOL0     O  178   6.748   4.880   2.665  0.2366  0.2272  0.1807
  743MOL0     C  179   6.807   4.763   2.729 -0.1779  0.9245 -0.3125
  743MOL0     C  180   6.936   4.789   2.806 -0.3669  0.3740  0.5660
  743MOL0     C  181   6.989   4.655   2.875  0.3165  0.2299 -0.1698
  743MOL0     C  182   7.144   4.656   2.888 -0.3877  0.0494 -0.5509
  743MOL0     C  183   7.188   4.738   3.006  0.6168  0.7503 -0.7059
  743MOL0     C  184   7.338   4.752   3.018 -0.1778 -0.5406  0.5379
  743MOL0     C  185   7.373   4.860   3.118  0.5168  0.7665  0.0329
  743MOL0     C  186   7.523   4.881   3.140 -0.1629 -0.2503 -0.1343
  743MOL0     N  187   7.573   4.811   3.257 -0.0183 -0.0113  0.1952
  743MOL0     C  188   7.699   4.813   3.306  0.5944 -0.4900  0.1633
  743MOL0     C  189   7.681   4.761   3.434  0.2064  0.6104  0.1621
  743MOL0     C  190   7.800   4.747   3.531  0.0824  0.0798  0.5377
  743MOL0     C  191   7.848   4.872   3.608  0.1044 -0.2213 -0.1643
  743MOL0     C  192   7.894   4.987   3.517 -0.0684  0.3178  0.7443
  743MOL0     C  193   8.051   5.003   3.499 -0.2914  0.4439 -0.1953
  743MOL0     O  194   8.117   5.027   3.619 -0.8702 -0.2534 -0.4137
  743MOL0     C  195   8.255   5.021   3.608  0.0672 -0.8595 -0.7237
  743MOL0     C  196   8.319   5.010   3.730 -0.3783 -0.0575 -0.3981
  743MOL0     C  197   8.462   5.001   3.736 -0.7077  0.1674  0.0947
  743MOL0     C  198   8.538   4.992   3.615  0.3918  0.2464  1.0043
  743MOL0     C  199   8.674   4.960   3.619 -0.8116 -0.6732 -0.3114
  743MOL0     O  200   8.737   4.967   3.737  0.1640 -1.2660  0.3090
  743MOL0     C  201   8.868   4.937   3.757 -0.1639  0.6634  0.4003
  743MOL0     C  202   8.974   5.007   3.689 -0.5848  0.0852 -0.3380
  743MOL0     C  203   9.111   4.987   3.740  0.0063  0.5918  0.7084
  743MOL0     C  204   9.143   4.894   3.847  0.4820 -0.0964  0.5065
  743MOL0     O  205   9.269   4.881   3.897  0.5074  0.3863 -0.2552
  743MOL0     C  206   9.302   4.862   4.037  0.5552 -0.4453  0.7430
  743MOL0     C  207   9.434   4.917   4.068  0.2238 -0.1427  0.4833
  743MOL0     C  208   9.543   4.809   4.044 -0.8615  0.4583  0.0051
  743MOL0     C  209   9.682   4.881   4.057  0.4294 -0.4697 -0.7532
  743MOL0     C  210   9.797   4.804   3.997 -0.4281 -0.0367 -0.1355
  743MOL0     C  211   9.937   4.849   4.044 -0.2418  0.0828 -0.9580
  743MOL0     C  212  10.039   4.795   3.947 -0.2533  0.0389 -0.1344
  743MOL0     C  213  10.183   4.838   3.983 -0.0691 -0.2429  1.3315
  743MOL0    Cl  214  10.222   4.758   4.141  0.2667  0.4041  0.3569
  743MOL0     C  215   9.029   4.829   3.903  0.1870  0.8666 -0.1369
  743MOL0     C  216   8.896   4.857   3.864 -0.2961  0.6245 -0.3528
  743MOL0     O  217   8.737   4.954   3.510  0.6840  0.9145  0.2197
  743MOL0     C  218   8.465   4.996   3.496  0.3534  0.2692 -0.3346
  743MOL0     C  219   8.330   5.018   3.486  0.4260  0.1544 -0.4077
  743MOL0     N  220   7.550   4.718   3.446  0.2006 -0.8987 -0.4785
  743MOL0     N  221   7.491   4.747   3.340  0.2923  0.1297 -0.5590
  743MOL0     C  222   6.555   4.997   2.616 -0.1513  0.2857  0.6942
  743MOL0     C  223   6.417   5.003   2.603  0.1384  0.6532 -0.1963
  743MOL0     C  224   5.973   4.931   2.519  0.2706  0.6991  0.2113
  743MOL0     C  225   5.950   4.788   2.511  0.7641 -0.2160 -0.6385
  743MOL0     C  226   5.821   4.729   2.491 -0.1411  1.6480 -0.3808
  743MOL0     C  227   5.708   4.817   2.507  0.3712 -0.2759 -0.0823
  743MOL0     O  228   5.573   4.774   2.503  0.0378  0.0526 -0.0216
  743MOL0     C  229   5.542   4.641   2.524 -0.3101 -0.5646  0.3344
  743MOL0     C  230   5.468   4.568   2.405  0.1852 -0.0842 -1.5617
  743MOL0     C  231   5.448   4.416   2.425 -0.7984  0.1849 -0.4572
  743MOL0     C  232   5.535   4.347   2.321  0.5350 -0.1744  0.2314
  743MOL0     C  233   5.682   4.343   2.352 -0.8699  0.4504  0.1543
  743MOL0     C  234   5.794   4.349   2.401  0.0810 -1.2399  0.4487
  743MOL0     C  235   5.733   4.948   2.537  0.1448 -0.1164  0.1429
  743MOL0     C  236   5.854   5.011   2.533 -0.2975 -0.4947 -0.8816
  743MOL0     C  237   5.861   5.165   2.554 -0.0645 -1.3899 -0.0265
  743MOL0     H  238   6.344   4.668   2.598  0.2517 -0.6920  2.6926
  743MOL0     H  239   6.588   4.661   2.622 -2.1040 -0.7602  2.1560
  743MOL0     H  240   6.740   4.723   2.806  0.0319 -0.0984 -0.6462
  743MOL0     H  241   6.830   4.688   2.654 -1.0063 -0.4225  0.7377
  743MOL0     H  242   6.923   4.871   2.877 -1.2339  1.1160 -0.4210
  743MOL0     H  243   7.022   4.824   2.748  0.8127 -1.3873  1.1593
  743MOL0     H  244   6.953   4.567   2.821 -0.1737  0.6480 -0.5381
  743MOL0     H  245   6.945   4.648   2.975 -2.3806 -1.4470 -1.3499
  743MOL0     H  246   7.181   4.557   2.913 -1.7200 -0.3770 -0.1569
  743MOL0     H  247   7.185   4.694   2.794 -0.2661  1.3160 -0.0077
  743MOL0     H  248   7.144   4.838   3.020  2.6695  1.6037  0.0432
  743MOL0     H  249   7.156   4.671   3.086  0.7039  0.4563 -0.9165
  743MOL0     H  250   7.386   4.659   3.048  3.1842  0.8716  0.0144
  743MOL0     H  251   7.372   4.783   2.919  0.0095 -0.0938  0.7402
  743MOL0     H  252   7.329   4.835   3.214  2.6270 -0.6855  0.7052
  743MOL0     H  253   7.328   4.957   3.094 -3.0474 -0.5711  0.7059
  743MOL0     H  254   7.572   4.848   3.048 -0.0394  0.3526 -0.2866
  743MOL0     H  255   7.534   4.989   3.151 -3.4841  0.3541 -1.3442
  743MOL0     H  256   7.791   4.859   3.271 -0.1583 -0.9581 -2.6454
  743MOL0     H  257   7.774   4.676   3.610 -0.3505 -1.4955 -0.9628
  743MOL0     H  258   7.874   4.697   3.468 -1.2878  0.4521 -1.4627
  743MOL0     H  259   7.755   4.902   3.658 -0.5233  0.2185 -1.5293
  743MOL0     H  260   7.921   4.865   3.689  1.1063  2.2981 -0.7612
  743MOL0     H  261   7.852   5.077   3.562 -5.1560 -0.1569 -2.2641
  743MOL0     H  262   7.848   4.979   3.418  1.0582 -0.6940  0.2740
  743MOL0     H  263   8.072   5.085   3.429 -0.7192  1.3523  0.7088
  743MOL0     H  264   8.085   4.909   3.455 -0.9644  1.2158 -2.5090
  743MOL0     H  265   8.263   5.005   3.823 -2.0867 -2.9601 -1.4692
  743MOL0     H  266   8.515   5.001   3.831  3.4083 -0.4889 -1.9522
  743MOL0     H  267   8.958   5.077   3.607  1.5796  0.3692 -0.5726
  743MOL0     H  268   9.190   5.039   3.688  0.2804  0.9844  1.5036
  743MOL0     H  269   9.239   4.927   4.099  2.5520  0.7045  1.6758
  743MOL0     H  270   9.290   4.760   4.073  0.4675 -1.0069 -0.8106
  743MOL0     H  271   9.455   4.997   3.997 -0.6892 -0.3647 -0.0545
  743MOL0     H  272   9.445   4.951   4.171  0.7601  0.8042  0.1278
  743MOL0     H  273   9.547   4.726   4.114 -0.1813  0.0323 -0.5177
  743MOL0     H  274   9.532   4.766   3.944 -0.3524 -2.8665  1.2556
  743MOL0     H  275   9.705   4.890   4.163  0.6220  0.1807 -0.8447
  743MOL0     H  276   9.688   4.983   4.019  4.3129 -1.0198 -2.1489
  743MOL0     H  277   9.790   4.828   3.890  0.7753 -0.5973 -0.3593
  743MOL0     H  278   9.771   4.698   4.007  0.0793 -0.1735 -0.2248
  743MOL0     H  279   9.942   4.958   4.052  0.7089  0.0537 -0.9820
  743MOL0     H  280   9.954   4.818   4.148 -1.0379  0.9811 -0.5456
  743MOL0     H  281  10.017   4.846   3.853  0.7157  1.6188  0.4369
  743MOL0     H  282  10.041   4.687   3.937  0.3590 -0.1805  1.8443
  743MOL0     H  283  10.263   4.811   3.914 -2.1876 -0.6240 -1.1528
  743MOL0     H  284  10.169   4.947   3.985 -0.1275 -0.1822 -0.7478
  743MOL0     H  285   9.049   4.764   3.988  1.0609  0.9011 -0.3165
  743MOL0     H  286   8.809   4.818   3.915  0.4868 -1.8697 -0.7977
  743MOL0     H  287   8.524   4.985   3.405  2.6120  0.2433  1.0604
  743MOL0     H  288   8.284   5.026   3.388 -1.9641  3.7500  0.7769
  743MOL0     H  289   6.621   5.081   2.600 -0.5928  0.8074  1.6110
  743MOL0     H  290   6.374   5.101   2.589  0.3253  0.5644 -1.4720
  743MOL0     H  291   6.034   4.720   2.498 -0.4681 -1.6322 -1.5191
  743MOL0     H  292   5.820   4.622   2.469  3.7906  1.5549 -0.8850
  743MOL0     H  293   5.476   4.631   2.611  0.4356  1.3189  1.1551
  743MOL0     H  294   5.633   4.582   2.533  0.0616 -0.3959 -1.7229
  743MOL0     H  295   5.513   4.598   2.310  1.2641 -0.8807 -1.3325
  743MOL0     H  296   5.368   4.612   2.407  0.0505 -0.3777  1.1141
  743MOL0     H  297   5.345   4.382   2.416 -0.3946 -1.2881  0.1327
  743MOL0     H  298   5.469   4.378   2.525 -3.3968  1.5558  0.7161
  743MOL0     H  299   5.500   4.246   2.301 -0.1661  0.4359 -1.9288
  743MOL0     H  300   5.525   4.388   2.220  0.2839 -1.3086 -0.2126
  743MOL0     H  301   5.890   4.359   2.448 -0.8718 -1.5293  2.5235
  743MOL0     H  302   5.641   5.004   2.549  0.1821  0.2047 -0.9611
  743MOL0     H  303   5.885   5.209   2.457  0.0065 -0.4304  0.4237
  743MOL0     H  304   5.769   5.209   2.594  0.1011 -0.9360 -0.1386
  743MOL0     H  305   5.941   5.199   2.619 -0.5264 -0.4151  0.0505
  744MOL0     O  306  10.328   2.405   8.551  0.1760  0.0387 -0.3497
  744MOL0     C  307  10.286   2.342   8.650  0.6421 -0.2498  0.3497
  744MOL0     O  308  10.365   2.264   8.724 -0.2963 -0.1586  0.7142
  744MOL0     C  309  10.502   2.264   8.704  0.1278 -0.5155  0.0730
  744MOL0     C  310  10.554   2.194   8.600  0.8155  0.0599 -0.1874
  744MOL0     C  311  10.689   2.211   8.563 -0.0610 -1.3733 -0.0468
  744MOL0     C  312  10.772   2.293   8.634 -0.2436  0.3741 -0.2763
  744MOL0     O  313  10.907   2.298   8.593  0.2086  0.2142  0.3536
  744MOL0     C  314  11.000   2.401   8.623  0.0726  0.4914  0.1598
  744MOL0     C  315  11.042   2.466   8.485 -0.7732  0.0669 -0.6199
  744MOL0     C  316  11.159   2.563   8.509 -1.2370 -0.0520  0.0627
  744MOL0     C  317  11.101   2.703   8.549 -0.9548 -0.2805  0.0295
  744MOL0     C  318  11.201   2.815   8.567  0.2570 -0.0694 -0.3114
  744MOL0     C  319  11.268   2.812   8.704 -0.2240 -0.6563 -0.2358
  744MOL0     C  320  11.375   2.922   8.730  0.6520  1.3165 -0.8206
  744MOL0     C  321  11.334   3.063   8.688 -0.0065 -0.5365  1.2799
  744MOL0     N  322  11.437   3.157   8.727 -1.2939 -0.0596  0.4734
  744MOL0     C  323  11.559   3.161   8.659  0.2360 -0.3390 -0.6368
  744MOL0     C  324  11.634   3.237   8.745 -0.2347  0.8866  0.5233
  744MOL0     C  325  11.784   3.270   8.711  0.8042  0.2263  0.3085
  744MOL0     C  326  11.889   3.177   8.774  0.3836 -0.1217  0.4446
  744MOL0     C  327  12.035   3.215   8.745  0.3151  0.4446  0.0131
  744MOL0     C  328  12.132   3.166   8.848 -0.3554 -0.7634 -0.2333
  744MOL0     O  329  12.255   3.164   8.778 -0.2161  0.5047 -0.6623
  744MOL0     C  330  12.373   3.187   8.846  0.0493  0.3291 -0.4100
  744MOL0     C  331  12.449   3.087   8.898 -0.0102  0.6315  0.2148
  744MOL0     C  332  12.568   3.107   8.972  0.3707  0.0675 -0.8785
  744MOL0     C  333  12.620   3.233   8.979 -0.7828  0.2522 -0.5811
  744MOL0     C  334  12.746   3.246   9.057 -0.2353  0.2147  0.0543
  744MOL0     O  335  12.804   3.137   9.122  0.3065 -0.1615  0.3734
  744MOL0     C  336  12.925   3.138   9.189  0.0072  0.3428 -0.2242
  744MOL0     C  337  12.973   3.240   9.272 -0.3495 -0.1821  0.4028
  744MOL0     C  338  13.086   3.222   9.344  0.2351 -0.1789 -0.0764
  744MOL0     C  339  13.168   3.111   9.331  0.3542 -0.0176 -0.1548
  744MOL0     O  340  13.293   3.099   9.390  0.0222  0.3526 -0.9094
  744MOL0     C  341  13.313   3.011   9.506  0.1137  0.4112  0.2237
  744MOL0     C  342  13.446   3.052   9.582 -0.9466  0.0248 -0.7301
  744MOL0     C  343  13.553   2.970   9.517  0.2398  0.3229  0.3371
  744MOL0     C  344  13.698   3.005   9.568  0.1522 -0.0575  0.6694
  744MOL0     C  345  13.798   2.897   9.532 -0.6761 -0.1268  0.2202
  744MOL0     C  346  13.921   2.904   9.619 -0.1370 -0.8971  0.4935
  744MOL0     C  347  13.995   2.768   9.620  0.4495 -0.8365  0.1981
  744MOL0     C  348  14.142   2.788   9.668 -0.1327 -0.2818  0.4063
  744MOL0    Cl  349  14.159   2.903   9.794 -0.1359 -0.7291  0.0582
  744MOL0     C  350  13.119   2.993   9.264  0.4931 -1.6563  0.0164
  744MOL0     C  351  12.993   3.015   9.203 -0.2431  0.0669 -0.3542
  744MOL0     O  352  12.793   3.357   9.051 -0.5339 -0.3056 -0.1058
  744MOL0     C  353  12.548   3.343   8.920  0.4274 -0.6770 -1.7923
  744MOL0     C  354  12.421   3.325   8.865  0.6577  0.8401 -0.7313
  744MOL0     N  355  11.551   3.274   8.854 -0.3298  0.2079 -0.0546
  744MOL0     N  356  11.436   3.233   8.836  0.8757 -0.0979 -0.1762
  744MOL0     C  357  10.718   2.361   8.739  0.0031  0.6919 -0.3816
  744MOL0     C  358  10.581   2.356   8.771 -0.2941  0.0375  0.5427
  744MOL0     C  359  10.151   2.361   8.684  0.2190 -0.6057  0.4314
  744MOL0     C  360  10.053   2.380   8.586 -0.6752  0.4866  0.2602
  744MOL0     C  361   9.918   2.386   8.612  0.7741 -0.4239  0.5110
  744MOL0     C  362   9.876   2.387   8.748  0.3270  0.6672  0.3998
  744MOL0     O  363   9.749   2.421   8.791  0.0670 -0.4777 -0.2349
  744MOL0     C  364   9.635   2.337   8.749  1.1043 -0.2872 -0.0775
  744MOL0     C  365   9.513   2.370   8.835 -0.0202 -0.4533 -0.0887
  744MOL0     C  366   9.407   2.260   8.829  0.6377  0.0516 -0.2004
  744MOL0     C  367   9.312   2.278   8.720  1.0800  0.3455  0.8716
  744MOL0     C  368   9.209   2.172   8.739 -0.1115  0.1524 -0.5740
  744MOL0     C  369   9.129   2.084   8.752  0.1376  0.6211  0.2327
  744MOL0     C  370   9.972   2.368   8.847  0.1254  0.3197 -0.1475
  744MOL0     C  371  10.108   2.360   8.822 -0.3949  0.2377  0.6999
  744MOL0     C  372  10.208   2.354   8.941 -0.6090  0.1766  0.1474
  744MOL0     H  373  10.483   2.131   8.547 -0.0648 -0.6148  1.6913
  744MOL0     H  374  10.719   2.155   8.475 -0.8908 -1.3314 -0.3689
  744MOL0     H  375  10.950   2.472   8.688 -0.5525  0.1166  0.0923
  744MOL0     H  376  11.086   2.366   8.682  0.7532 -0.5507 -1.3850
  744MOL0     H  377  10.959   2.516   8.435 -0.6020  0.8748 -0.1116
  744MOL0     H  378  11.073   2.381   8.423 -1.8524 -3.6579  3.4271
  744MOL0     H  379  11.228   2.571   8.425  1.3721  3.4082  2.2585
  744MOL0     H  380  11.225   2.526   8.588  1.2387  1.1550 -1.3632
  744MOL0     H  381  11.035   2.722   8.463 -1.5237 -1.3384  0.2147
  744MOL0     H  382  11.028   2.692   8.629  0.4136  0.3312  1.4061
  744MOL0     H  383  11.274   2.812   8.486 -0.6705  1.4908 -1.2324
  744MOL0     H  384  11.145   2.909   8.564  2.0250  1.2391  2.6104
  744MOL0     H  385  11.193   2.828   8.782  0.5067  0.2107  0.3138
  744MOL0     H  386  11.326   2.721   8.724  0.7973  0.5241  2.8821
  744MOL0     H  387  11.467   2.888   8.683  0.4803 -0.8943  0.3247
  744MOL0     H  388  11.397   2.933   8.837  1.6209  0.3806 -0.9166
  744MOL0     H  389  11.336   3.069   8.579  0.0267  0.5666  1.3350
  744MOL0     H  390  11.238   3.095   8.729 -1.4324 -2.5973 -0.2268
  744MOL0     H  391  11.588   3.108   8.568  1.4353 -1.4873  0.3706
  744MOL0     H  392  11.795   3.267   8.602 -1.0166  0.5603  0.0877
  744MOL0     H  393  11.798   3.373   8.745 -3.1342  1.5107 -1.4845
  744MOL0     H  394  11.872   3.167   8.882  1.5138  2.9953  1.0259
  744MOL0     H  395  11.873   3.074   8.742  0.9413  0.1226 -0.6563
  744MOL0     H  396  12.043   3.323   8.730  1.3220  0.7395  2.2983
  744MOL0     H  397  12.053   3.168   8.648 -4.3567  2.1905 -1.9551
  744MOL0     H  398  12.119   3.061   8.877  1.7124 -1.1775 -0.6006
  744MOL0     H  399  12.136   3.236   8.931  0.6029  1.8207 -2.2962
  744MOL0     H  400  12.397   2.992   8.891 -0.5998  0.9544  0.1400
  744MOL0     H  401  12.607   3.018   9.021 -2.8370 -0.6462  0.6467
  744MOL0     H  402  12.921   3.334   9.290  0.8296  1.0968 -2.1301
  744MOL0     H  403  13.121   3.303   9.407 -0.0682  0.6021 -0.8810
  744MOL0     H  404  13.224   3.010   9.570 -0.4484  0.2763 -0.5456
  744MOL0     H  405  13.324   2.909   9.468 -1.0120  0.0647  0.8000
  744MOL0     H  406  13.464   3.159   9.572  0.3885 -0.2375 -1.3583
  744MOL0     H  407  13.446   3.021   9.687  0.2044  0.3821 -0.6078
  744MOL0     H  408  13.540   2.866   9.549 -3.0358 -0.2844 -2.3310
  744MOL0     H  409  13.553   2.969   9.407  0.6461  0.0693  0.3360
  744MOL0     H  410  13.683   3.016   9.676  0.4694 -0.0174  0.7109
  744MOL0     H  411  13.729   3.101   9.526  2.3630 -1.9325 -2.3339
  744MOL0     H  412  13.823   2.919   9.427 -1.8814 -4.6269 -1.2377
  744MOL0     H  413  13.755   2.796   9.531 -0.4529 -0.2831 -2.2885
  744MOL0     H  414  13.978   2.993   9.591 -1.3846 -0.6845 -1.5215
  744MOL0     H  415  13.884   2.924   9.720  0.2580 -0.4430  0.5543
  744MOL0     H  416  13.998   2.729   9.518  0.9230  0.4866 -0.3116
  744MOL0     H  417  13.941   2.697   9.684  1.9848 -1.8789  0.4002
  744MOL0     H  418  14.189   2.692   9.690  1.6089 -0.0545 -1.9230
  744MOL0     H  419  14.191   2.833   9.581 -0.6494  0.5589  0.5337
  744MOL0     H  420  13.167   2.897   9.257 -0.7556 -2.4317  1.3614
  744MOL0     H  421  12.959   2.925   9.154 -0.3923 -0.0122 -0.1088
  744MOL0     H  422  12.604   3.435   8.930  2.7936 -2.1070 -0.9939
  744MOL0     H  423  12.364   3.412   8.835 -0.3593  0.4220 -0.0499
  744MOL0     H  424  10.787   2.407   8.809  0.0774  2.9578 -1.8417
  744MOL0     H  425  10.541   2.417   8.851 -1.5079 -0.5474  0.3962
  744MOL0     H  426  10.084   2.377   8.482 -0.1510 -2.3195  0.4150
  744MOL0     H  427   9.844   2.403   8.535  1.0344  0.7215  0.4988
  744MOL0     H  428   9.667   2.233   8.760  0.4500 -0.5652 -0.7652
  744MOL0     H  429   9.619   2.350   8.642  0.0029  0.1100  0.1294
  744MOL0     H  430   9.472   2.470   8.818  0.2783 -0.2935  0.1217
  744MOL0     H  431   9.547   2.369   8.939 -2.1298 -2.0065  0.6445
  744MOL0     H  432   9.352   2.255   8.923 -0.1287 -1.3598 -0.7005
  744MOL0     H  433   9.455   2.163   8.820 -0.1004 -0.8575  3.7274
  744MOL0     H  434   9.264   2.373   8.741 -1.6096 -0.4547 -1.0824
  744MOL0     H  435   9.356   2.281   8.620 -0.2192  2.4099  0.3156
  744MOL0     H  436   9.065   1.998   8.757  1.1700 -0.2577 -1.2542
  744MOL0     H  437   9.945   2.378   8.951 -0.7554  1.8723 -0.4808
  744MOL0     H  438  10.165   2.400   9.030 -0.4716 -0.0207  0.3154
  744MOL0     H  439  10.240   2.252   8.962  1.0992  0.9827  1.7047
  744MOL0     H  440  10.298   2.410   8.913 -2.3038  2.7194 -0.6343
  745MOL0     O  441   0.558  10.464   4.019 -0.3964  0.1933  0.2892
  745MOL0     C  442   0.629  10.477   3.919  0.8461 -0.3473  0.1460
  745MOL0     O  443   0.685  10.597   3.880  0.1859  0.5756  0.0404
  745MOL0     C  444   0.770  10.604   3.766  0.0971  0.2906  0.1358
  745MOL0     C  445   0.712  10.612   3.647 -0.0004  0.4582  0.1150
  745MOL0     C  446   0.789  10.607   3.531 -0.3364 -0.5036 -0.5849
  745MOL0     C  447   0.930  10.618   3.539 -0.1384  0.2506 -0.5665
  745MOL0     O  448   1.003  10.599   3.423  0.4413  0.0462 -0.1271
  745MOL0     C  449   1.146  10.586   3.430 -0.0955 -0.7192  0.7247
  745MOL0     C  450   1.204  10.447   3.469  0.2293 -0.2534  0.5291
  745MOL0     C  451   1.119  10.327   3.420  0.5990 -0.3775  0.5986
  745MOL0     C  452   1.189  10.189   3.437  0.2665 -0.3870 -0.5269
  745MOL0     C  453   1.104  10.059   3.412  0.6078  0.1870 -0.5439
  745MOL0     C  454   1.187   9.933   3.422 -1.0930  0.8847 -0.1284
  745MOL0     C  455   1.278   9.914   3.301 -1.0354 -0.3770 -0.0739
  745MOL0     C  456   1.365   9.796   3.329  0.1140  0.4126  0.4317
  745MOL0     N  457   1.474   9.777   3.235  0.2024 -0.1424  0.2454
  745MOL0     C  458   1.593   9.851   3.240  0.0221 -0.1937 -0.1453
  745MOL0     C  459   1.665   9.786   3.148 -0.1025  0.4010 -0.2738
  745MOL0     C  460   1.799   9.830   3.114  0.0133 -0.7600  0.3342
  745MOL0     C  461   1.895   9.774   3.225  0.4826 -1.0955 -0.3623
  745MOL0     C  462   2.003   9.871   3.253  0.2223  0.7612 -0.2949
  745MOL0     C  463   2.103   9.785   3.339  0.1098 -0.0216 -0.0491
  745MOL0     O  464   2.194   9.882   3.403 -0.1527  0.3204 -0.0521
  745MOL0     C  465   2.327   9.872   3.375  0.2292 -0.1692 -0.6422
  745MOL0     C  466   2.413   9.872   3.481 -0.5644  0.1064  0.1471
  745MOL0     C  467   2.547   9.849   3.461 -0.8631 -0.0518  0.0599
  745MOL0     C  468   2.603   9.822   3.334  0.1415 -0.4061  0.3660
  745MOL0     C  469   2.750   9.784   3.308 -0.4461 -0.7534  0.6568
  745MOL0     O  470   2.833   9.809   3.412 -0.2205 -0.0976 -0.2067
  745MOL0     C  471   2.966   9.825   3.385  0.4097  0.7290  0.7614
  745MOL0     C  472   3.042   9.721   3.337  0.2775  0.6236  0.3217
  745MOL0     C  473   3.175   9.738   3.313  0.0462  0.3212  0.8781
  745MOL0     C  474   3.242   9.857   3.330  0.0314  0.2804 -0.4962
  745MOL0     O  475   3.373   9.869   3.293  0.3680 -0.0852 -0.1904
  745MOL0     C  476   3.448   9.984   3.341 -0.4584  0.0188  0.7928
  745MOL0     C  477   3.598   9.959   3.320  0.6363  0.1420  0.3715
  745MOL0     C  478   3.627   9.952   3.172 -0.1893 -0.1200 -0.3764
  745MOL0     C  479   3.778   9.985   3.150 -0.3044 -0.3355  1.0663
  745MOL0     C  480   3.826   9.975   3.005  0.1168  0.6028 -0.4428
  745MOL0     C  481   3.792  10.098   2.919  0.0385  0.7827  0.3106
  745MOL0     C  482   3.854  10.098   2.784 -0.9384 -1.2218  0.2743
  745MOL0     C  483   3.771  10.186   2.695 -0.3629  0.1953 -0.1966
  745MOL0    Cl  484   3.847  10.175   2.534  0.0501  0.1359  0.0191
  745MOL0     C  485   3.174   9.956   3.404  0.0495 -0.4640 -0.0594
  745MOL0     C  486   3.035   9.941   3.427  0.6462 -0.5797  0.3820
  745MOL0     O  487   2.779   9.735   3.199 -0.0971  0.1058  0.1680
  745MOL0     C  488   2.520   9.827   3.226 -0.1405  0.5632 -0.7800
  745MOL0     C  489   2.379   9.854   3.244  0.2296 -1.0613 -0.2831
  745MOL0     N  490   1.591   9.677   3.095  0.4789  0.3450  0.0372
  745MOL0     N  491   1.474   9.681   3.134  0.2756  0.4155  0.0076
  745MOL0     C  492   0.992  10.630   3.665  0.3895 -0.1020  0.5447
  745MOL0     C  493   0.911  10.628   3.773  0.2961  0.8723  0.0636
  745MOL0     C  494   0.637  10.366   3.825 -0.0321 -0.9822  0.4732
  745MOL0     C  495   0.754  10.283   3.812 -0.2991  0.9493  0.6179
  745MOL0     C  496   0.754  10.170   3.721 -0.1640 -0.8808  0.3332
  745MOL0     C  497   0.639  10.148   3.646 -0.5337  0.5161  0.2853
  745MOL0     O  498   0.644  10.046   3.553  0.2019  0.8293  0.4238
  745MOL0     C  499   0.529   9.999   3.477  0.4454 -0.1062 -0.1806
  745MOL0     C  500   0.577   9.864   3.426  0.4988 -0.2469  0.0321
  745MOL0     C  501   0.464   9.774   3.366  0.0707  0.3710  0.4987
  745MOL0     C  502   0.447   9.801   3.215 -0.0986 -0.3309  0.6911
  745MOL0     C  503   0.558   9.763   3.122 -0.0303  1.1376  0.4209
  745MOL0     C  504   0.644   9.722   3.049  0.5648 -0.3669 -0.0892
  745MOL0     C  505   0.521  10.219   3.670  0.0346  0.0653 -0.4074
  745MOL0     C  506   0.519  10.337   3.747  0.2991 -0.0627 -0.5590
  745MOL0     C  507   0.393  10.421   3.745 -0.0081  0.4050 -0.2404
  745MOL0     H  508   0.604  10.617   3.640  0.1509  2.8503 -1.8981
  745MOL0     H  509   0.732  10.584   3.441 -0.0362  0.5386 -1.0573
  745MOL0     H  510   1.195  10.615   3.337  2.4147 -0.5080  2.0400
  745MOL0     H  511   1.182  10.661   3.500 -0.1018 -0.3643  0.3475
  745MOL0     H  512   1.230  10.442   3.575 -0.3775 -2.2013  0.6267
  745MOL0     H  513   1.301  10.424   3.424  0.5002 -0.0881  1.0212
  745MOL0     H  514   1.098  10.350   3.316  1.2717 -0.5106  0.4277
  745MOL0     H  515   1.025  10.344   3.473 -1.2797 -1.0759 -2.3326
  745MOL0     H  516   1.275  10.196   3.370  1.2245  0.2305  0.7133
  745MOL0     H  517   1.219  10.190   3.543  1.4927  2.4974 -0.7842
  745MOL0     H  518   1.033  10.053   3.494  3.0807 -2.3670  1.6082
  745MOL0     H  519   1.051  10.070   3.317  0.2531 -1.0241 -0.4946
  745MOL0     H  520   1.254   9.946   3.508  2.0175  1.6155 -2.5073
  745MOL0     H  521   1.123   9.845   3.432 -1.3238  1.0538 -0.0872
  745MOL0     H  522   1.335  10.008   3.305  0.1455 -1.1112  2.5289
  745MOL0     H  523   1.225   9.895   3.208 -1.6812  0.8847  0.0163
  745MOL0     H  524   1.410   9.805   3.428  0.8758 -0.3097  0.1649
  745MOL0     H  525   1.299   9.709   3.334 -0.3907  0.6769 -0.9659
  745MOL0     H  526   1.620   9.930   3.309  0.3488 -1.6082  1.4259
  745MOL0     H  527   1.833   9.807   3.012  3.8071  1.2062  0.9704
  745MOL0     H  528   1.802   9.938   3.100 -2.8955 -0.6649 -0.0473
  745MOL0     H  529   1.851   9.763   3.325  0.3166  0.1591 -0.2862
  745MOL0     H  530   1.930   9.675   3.196  1.8422 -0.7129 -0.1179
  745MOL0     H  531   1.952   9.956   3.300 -5.7531 -2.5639  0.1922
  745MOL0     H  532   2.052   9.903   3.160 -0.7580  1.7440 -0.4920
  745MOL0     H  533   2.158   9.718   3.272  0.6347 -0.8273  1.1565
  745MOL0     H  534   2.052   9.712   3.402 -2.6801 -1.0858 -3.2498
  745MOL0     H  535   2.376   9.897   3.580 -1.2592 -0.4017  0.0250
  745MOL0     H  536   2.621   9.847   3.540  0.0348 -0.9489 -0.7825
  745MOL0     H  537   2.994   9.624   3.338  1.2182  0.1404 -0.2760
  745MOL0     H  538   3.225   9.654   3.265 -0.8648 -0.4790  1.2848
  745MOL0     H  539   3.417  10.074   3.289  3.5207  0.5157 -1.0676
  745MOL0     H  540   3.428   9.991   3.449 -0.8868  1.3533  0.6386
  745MOL0     H  541   3.659  10.039   3.362 -1.1074  1.9827 -0.4607
  745MOL0     H  542   3.619   9.857   3.354 -1.2364 -0.5915 -0.5263
  745MOL0     H  543   3.590   9.859   3.128 -2.2435  1.9718 -3.4780
  745MOL0     H  544   3.566  10.029   3.124 -1.2167  0.7163  2.1179
  745MOL0     H  545   3.828   9.904   3.204 -1.6058 -1.3540  0.7822
  745MOL0     H  546   3.802  10.088   3.178  0.3185 -0.1242 -0.1507
  745MOL0     H  547   3.771   9.897   2.953  1.3039  1.1575 -2.6722
  745MOL0     H  548   3.933   9.952   3.002 -0.1836 -1.2469  1.3073
  745MOL0     H  549   3.686  10.081   2.899 -0.1874  0.5891  1.6254
  745MOL0     H  550   3.798  10.188   2.981 -5.3880  2.5615 -1.1623
  745MOL0     H  551   3.867   9.998   2.742  2.2283 -0.1255 -1.7205
  745MOL0     H  552   3.951  10.147   2.792 -2.0302  1.1314 -0.0586
  745MOL0     H  553   3.664  10.163   2.688 -0.1559 -1.7405  1.7955
  745MOL0     H  554   3.780  10.288   2.734 -0.1802  1.1278 -2.5154
  745MOL0     H  555   3.226  10.048   3.429  2.2269 -1.9470  1.2239
  745MOL0     H  556   2.977  10.020   3.474  0.4097 -0.9206  0.6722
  745MOL0     H  557   2.564   9.810   3.129  2.0589 -0.4381  0.3276
  745MOL0     H  558   2.312   9.866   3.160  2.3802 -0.4536 -2.0048
  745MOL0     H  559   1.097  10.654   3.677  1.2322 -3.0527  0.0295
  745MOL0     H  560   0.967  10.637   3.866 -0.3517  0.9602  0.4488
  745MOL0     H  561   0.839  10.292   3.879  1.5253 -0.0138 -1.4529
  745MOL0     H  562   0.848  10.117   3.710  2.1982  2.8697  0.7238
  745MOL0     H  563   0.498  10.073   3.402 -1.0282 -0.1051  0.4071
  745MOL0     H  564   0.439   9.983   3.536  0.6625 -0.4233  0.0640
  745MOL0     H  565   0.621   9.798   3.501 -1.1275 -2.5272 -0.9027
  745MOL0     H  566   0.652   9.880   3.348 -0.3509  0.3951 -0.6780
  745MOL0     H  567   0.371   9.789   3.421 -0.1252 -1.0517  0.6020
  745MOL0     H  568   0.495   9.670   3.381 -1.2995 -0.3484 -1.2250
  745MOL0     H  569   0.355   9.754   3.177  0.2344 -1.7918  1.5840
  745MOL0     H  570   0.432   9.909   3.208 -0.2568 -0.4344 -0.9718
  745MOL0     H  571   0.726   9.677   2.995  0.7299 -0.4538  0.2316
  745MOL0     H  572   0.433  10.198   3.610  0.6294 -2.5041 -0.5089
  745MOL0     H  573   0.312  10.347   3.737  2.9378 -3.0859 -0.0509
  745MOL0     H  574   0.392  10.486   3.833  0.6578  0.4418 -0.2597
  745MOL0     H  575   0.392  10.484   3.655  3.2156 -0.0078 -0.6863
  746MOL0     O  576  10.757   0.454  10.253 -0.2676 -0.0899 -0.2364
  746MOL0     C  577  10.666   0.499  10.327 -1.1261 -0.1498 -0.2814
  746MOL0     O  578  10.629   0.446  10.443 -0.9299 -0.6633 -0.6800
  746MOL0     C  579  10.710   0.360  10.504 -0.2098  0.1951  0.2387
  746MOL0     C  580  10.795   0.404  10.602 -0.1587 -0.2917  0.0721
  746MOL0     C  581  10.864   0.313  10.687  0.2339 -0.6199  0.2100
  746MOL0     C  582  10.870   0.174  10.653 -0.8566 -0.2311  0.1669
  746MOL0     O  583  10.940   0.098  10.744  0.2695 -0.3031  0.1435
  746MOL0     C  584  10.957  -0.047  10.744 -0.0271 -0.4074 -0.3065
  746MOL0     C  585  11.037  -0.065  10.871  0.6845  0.9877 -0.4065
  746MOL0     C  586  11.176  -0.023  10.853 -0.1882  0.8645  0.0625
  746MOL0     C  587  11.244  -0.013  10.998 -0.1516  0.8452  0.4243
  746MOL0     C  588  11.397   0.013  10.982  0.4371 -0.4231  0.6700
  746MOL0     C  589  11.473  -0.102  10.917 -0.3283 -0.4477 -0.7918
  746MOL0     C  590  11.628  -0.074  10.918  0.1333  0.8753 -0.0226
  746MOL0     C  591  11.695  -0.097  11.047  0.0006  0.2242  0.0159
  746MOL0     N  592  11.847  -0.100  11.040  0.2198 -0.4018 -0.2903
  746MOL0     C  593  11.936   0.008  11.022  0.1118  0.3018 -0.6322
  746MOL0     C  594  12.062  -0.047  11.022  0.0862  0.2652 -0.3751
  746MOL0     C  595  12.173   0.057  10.990  0.0805  0.4297  0.0941
  746MOL0     C  596  12.191   0.076  10.842  0.3520  0.0773 -0.3713
  746MOL0     C  597  12.272   0.199  10.813 -0.9138  0.7712 -0.1090
  746MOL0     C  598  12.416   0.169  10.785 -0.5721  0.1192  0.5440
  746MOL0     O  599  12.478   0.138  10.910 -0.3526  0.3687 -0.6645
  746MOL0     C  600  12.615   0.164  10.928  0.4315 -0.9088 -0.6318
  746MOL0     C  601  12.667   0.178  11.057  0.4383 -0.3256 -1.1651
  746MOL0     C  602  12.805   0.219  11.076 -0.4966  0.4468  0.6744
  746MOL0     C  603  12.880   0.228  10.953 -0.3110  0.7390  1.1010
  746MOL0     C  604  13.027   0.252  10.963 -0.6064 -0.9914  0.2359
  746MOL0     O  605  13.090   0.255  11.082 -0.6641  0.1367 -0.0217
  746MOL0     C  606  13.232   0.266  11.083  0.0450 -0.1372 -0.3218
  746MOL0     C  607  13.305   0.162  11.039  0.0446 -0.3320  0.5648
  746MOL0     C  608  13.445   0.165  11.043 -0.2180  0.6581  0.5403
  746MOL0     C  609  13.506   0.268  11.121 -0.2356  0.6776 -0.5048
  746MOL0     O  610  13.641   0.274  11.139 -0.3640 -0.1818 -0.4762
  746MOL0     C  611  13.675   0.302  11.280  0.4724  0.1749  0.0212
  746MOL0     C  612  13.818   0.299  11.271 -0.2091 -0.3466  0.5474
  746MOL0     C  613  13.869   0.348  11.405 -0.8294  1.2346  0.0075
  746MOL0     C  614  14.019   0.360  11.411  0.2331  0.1566 -0.1023
  746MOL0     C  615  14.053   0.418  11.547 -1.0582  0.4873 -0.0973
  746MOL0     C  616  14.200   0.455  11.545 -0.3986  1.3997 -0.3038
  746MOL0     C  617  14.248   0.513  11.680  0.0845  0.7307 -0.0732
  746MOL0     C  618  14.397   0.547  11.671  0.3549 -0.1584 -0.0473
  746MOL0    Cl  619  14.432   0.640  11.816 -0.1769 -0.4010  0.0964
  746MOL0     C  620  13.424   0.371  11.163  0.2552  0.6831 -0.2712
  746MOL0     C  621  13.282   0.374  11.139 -0.5676  0.5531 -0.4353
  746MOL0     O  622  13.086   0.267  10.857  0.3257  0.7899  0.2221
  746MOL0     C  623  12.824   0.216  10.827  0.4807 -0.1076  0.5358
  746MOL0     C  624  12.693   0.181  10.813 -0.0046  0.8456 -0.3311
  746MOL0     N  625  12.050  -0.184  11.057  0.1278  0.2042 -0.6293
  746MOL0     N  626  11.923  -0.206  11.065  0.7067  0.3238  0.2016
  746MOL0     C  627  10.803   0.135  10.535 -0.0082 -0.3507  0.5845
  746MOL0     C  628  10.721   0.225  10.466  0.2601 -0.8259  0.6598
  746MOL0     C  629  10.573   0.599  10.277  0.0693  0.0721  0.1368
  746MOL0     C  630  10.576   0.638  10.137  0.2849 -0.6035  0.5151
  746MOL0     C  631  10.484   0.731  10.082  0.5095 -0.1906 -0.0086
  746MOL0     C  632  10.399   0.799  10.166 -0.2274  0.6153  0.0305
  746MOL0     O  633  10.304   0.893  10.125  0.3924 -0.1538 -0.1616
  746MOL0     C  634  10.319   0.958   9.997  0.7952 -0.1009  0.2458
  746MOL0     C  635  10.224   1.075   9.971 -0.6987  0.2053 -0.5510
  746MOL0     C  636  10.077   1.037   9.956 -0.0566  0.7057  0.0979
  746MOL0     C  637   9.988   1.146   9.916  0.7267  0.1395  0.7861
  746MOL0     C  638   9.855   1.090   9.876 -0.1069  0.4373  0.3208
  746MOL0     C  639   9.749   1.048   9.851 -0.0262  0.0394 -0.9112
  746MOL0     C  640  10.397   0.767  10.299 -0.7148  0.7520 -0.0089
  746MOL0     C  641  10.482   0.675  10.362 -0.5773  0.7890  0.2600
  746MOL0     C  642  10.465   0.654  10.513  0.1258 -0.4183 -0.2040
  746MOL0     H  643  10.799   0.510  10.625 -2.0377  0.1391 -1.3328
  746MOL0     H  644  10.909   0.370  10.768 -1.3622  0.2679  0.5220
  746MOL0     H  645  10.859  -0.096  10.745 -0.9001  1.2029  2.7570
  746MOL0     H  646  11.014  -0.075  10.654 -0.6238  0.1846 -0.8827
  746MOL0     H  647  11.029  -0.170  10.902 -1.7423  0.4614 -2.4720
  746MOL0     H  648  10.993  -0.011  10.956  2.2796  0.2529  0.9454
  746MOL0     H  649  11.181   0.076  10.806 -3.2266  1.7072  1.2875
  746MOL0     H  650  11.215  -0.107  10.795 -1.5115 -0.1164  0.5427
  746MOL0     H  651  11.208   0.066  11.064  0.8371 -0.1834  2.2896
  746MOL0     H  652  11.226  -0.105  11.055  0.5237  0.1066 -0.5133
  746MOL0     H  653  11.426   0.100  10.922  0.3470  0.7057  2.2081
  746MOL0     H  654  11.440   0.030  11.081  0.3083 -0.6630  0.7672
  746MOL0     H  655  11.448  -0.195  10.968 -0.7023  0.8503  1.5397
  746MOL0     H  656  11.445  -0.121  10.813  1.0431 -2.6385 -0.8245
  746MOL0     H  657  11.647   0.030  10.891  0.9457  1.5683  2.8485
  746MOL0     H  658  11.675  -0.129  10.837  0.2016  1.4492 -0.3794
  746MOL0     H  659  11.661  -0.007  11.100  1.1443  0.6194  0.1051
  746MOL0     H  660  11.656  -0.184  11.100  0.5855  0.6108  1.1091
  746MOL0     H  661  11.915   0.113  11.003 -0.9975  0.1845 -0.1533
  746MOL0     H  662  12.141   0.149  11.042 -4.6879 -1.0254  0.2317
  746MOL0     H  663  12.265   0.026  11.039 -1.2385  0.3268  2.6939
  746MOL0     H  664  12.238  -0.015  10.802  2.2718  1.3186 -1.1155
  746MOL0     H  665  12.092   0.077  10.796 -0.8751 -2.1229  1.9574
  746MOL0     H  666  12.260   0.267  10.898 -1.3012 -0.5936  0.9501
  746MOL0     H  667  12.229   0.253  10.728  0.1149  0.9043 -0.5615
  746MOL0     H  668  12.466   0.253  10.736 -1.2465 -0.0387 -0.4305
  746MOL0     H  669  12.414   0.080  10.722  0.1206  1.2103 -1.0936
  746MOL0     H  670  12.609   0.184  11.149  0.8937 -0.4114 -0.8640
  746MOL0     H  671  12.861   0.257  11.161  2.8542 -0.0466 -1.1583
  746MOL0     H  672  13.257   0.078  10.990  1.3546  0.2902 -1.9284
  746MOL0     H  673  13.503   0.081  11.005  1.1709  1.3940  1.0036
  746MOL0     H  674  13.636   0.395  11.323  0.4297  0.2125 -0.0963
  746MOL0     H  675  13.643   0.220  11.344  0.4283  0.8386  0.8629
  746MOL0     H  676  13.843   0.194  11.252  0.6838  0.2419 -1.8666
  746MOL0     H  677  13.864   0.362  11.194 -0.8263  3.2497  2.9034
  746MOL0     H  678  13.830   0.447  11.429 -0.4488  1.1858  0.9094
  746MOL0     H  679  13.834   0.284  11.487  0.3374 -0.5316 -0.8056
  746MOL0     H  680  14.061   0.431  11.339  0.0958  0.8259  0.4569
  746MOL0     H  681  14.069   0.263  11.406  0.5948  0.3269  0.1421
  746MOL0     H  682  14.020   0.343  11.620 -3.6247  1.2186 -0.4249
  746MOL0     H  683  14.006   0.516  11.559  0.6971  1.7205 -2.4043
  746MOL0     H  684  14.252   0.359  11.538 -0.7773  0.7802  3.3530
  746MOL0     H  685  14.220   0.516  11.456 -0.4136  0.0604 -1.2510
  746MOL0     H  686  14.226   0.450  11.767  0.4897  1.8596  0.8863
  746MOL0     H  687  14.196   0.607  11.700  0.5621  1.2664 -1.2646
  746MOL0     H  688  14.460   0.458  11.662  0.2056 -0.7101  3.0031
  746MOL0     H  689  14.403   0.610  11.582  0.8153  0.0357  0.1142
  746MOL0     H  690  13.466   0.456  11.215 -1.5932 -0.3549  3.2283
  746MOL0     H  691  13.211   0.448  11.175 -2.9532 -1.4598 -0.7367
  746MOL0     H  692  12.877   0.234  10.735  1.1041 -0.6193  0.7901
  746MOL0     H  693  12.649   0.171  10.715  0.0274 -1.4413 -0.1495
  746MOL0     H  694  10.826   0.031  10.515 -0.2814 -0.3495  0.2550
  746MOL0     H  695  10.656   0.196  10.384 -0.1619  0.5039  0.5096
  746MOL0     H  696  10.647   0.596  10.065  0.7941 -0.7159  1.0784
  746MOL0     H  697  10.471   0.747   9.976 -1.5414 -3.8540 -0.4636
  746MOL0     H  698  10.316   0.874   9.927  0.3053 -1.7992  2.2009
  746MOL0     H  699  10.421   0.998   9.996  0.8224 -0.0459  2.0026
  746MOL0     H  700  10.251   1.121   9.876 -1.3782  0.3351 -0.6890
  746MOL0     H  701  10.228   1.152  10.049  1.4324 -0.9006  0.5109
  746MOL0     H  702  10.042   0.983  10.045 -0.3752 -0.8765 -0.9399
  746MOL0     H  703  10.079   0.974   9.867 -0.0828  1.7480 -0.6472
  746MOL0     H  704   9.969   1.219   9.996 -2.7917  2.5646 -1.9441
  746MOL0     H  705  10.027   1.204   9.832  0.9271 -0.4379  0.4776
  746MOL0     H  706   9.655   0.997   9.842 -1.6931  2.8070 -0.5537
  746MOL0     H  707  10.325   0.827  10.354  0.4207  0.2779  2.1040
  746MOL0     H  708  10.414   0.561  10.539  0.6234 -1.0544 -1.3708
  746MOL0     H  709  10.565   0.666  10.556  0.7000  0.2983 -1.6748
  746MOL0     H  710  10.407   0.740  10.547 -2.7446 -3.1134  2.2565
  747MOL0     O  711   5.123   5.880   5.318 -0.6732 -0.2163  0.6023
  747MOL0     C  712   5.208   5.927   5.398  0.0439 -0.4887  1.0064
  747MOL0     O  713   5.168   5.994   5.518 -0.3487 -0.1855 -0.1393
  747MOL0     C  714   5.039   5.994   5.566  0.6025  0.5171  0.7692
  747MOL0     C  715   4.995   6.090   5.649  0.4057 -0.3553 -0.3167
  747MOL0     C  716   4.863   6.103   5.689 -0.1814  0.3049  0.3385
  747MOL0     C  717   4.771   6.002   5.664  0.7997 -0.4237  0.6123
  747MOL0     O  718   4.647   6.025   5.714  0.0467  0.0900  0.1484
  747MOL0     C  719   4.544   5.925   5.681  0.9722 -0.6248 -1.2071
  747MOL0     C  720   4.434   5.944   5.794  0.2973 -0.5049 -0.8695
  747MOL0     C  721   4.332   5.828   5.784 -0.6369  0.0545  0.4935
  747MOL0     C  722   4.222   5.854   5.877 -0.0537  0.8563 -0.8744
  747MOL0     C  723   4.119   5.743   5.883 -0.1891  0.1729  0.0403
  747MOL0     C  724   4.007   5.791   5.968  1.1390  0.1196  0.2328
  747MOL0     C  725   3.935   5.679   6.036  0.6764 -0.9287  0.0120
  747MOL0     C  726   3.802   5.719   6.107  0.2243  0.0899  0.8242
  747MOL0     N  727   3.816   5.830   6.195 -0.4727 -0.0194 -0.1754
  747MOL0     C  728   3.791   5.961   6.157  0.4697  1.2872  0.4779
  747MOL0     C  729   3.812   6.036   6.273 -0.1603 -0.3557  1.3258
  747MOL0     C  730   3.816   6.188   6.272 -0.4324  0.6953 -0.2594
  747MOL0     C  731   3.941   6.246   6.206  0.1273 -0.0700 -0.6019
  747MOL0     C  732   4.050   6.262   6.316  0.0873 -0.7023 -0.1044
  747MOL0     C  733   4.174   6.328   6.263  0.4409  0.2000 -0.0398
  747MOL0     O  734   4.244   6.379   6.380  0.1501  0.0833  1.0669
  747MOL0     C  735   4.372   6.428   6.377  0.0821  0.0293 -0.8615
  747MOL0     C  736   4.411   6.532   6.288  1.3413  1.0856  0.3444
  747MOL0     C  737   4.541   6.569   6.277  0.1241 -0.1533  0.7365
  747MOL0     C  738   4.641   6.501   6.348  0.0958  0.4227  0.7143
  747MOL0     C  739   4.782   6.541   6.338  0.2932 -0.5676  0.3990
  747MOL0     O  740   4.820   6.648   6.261  0.3556  0.2482 -0.3956
  747MOL0     C  741   4.955   6.685   6.262 -0.3138  0.9317  0.0477
  747MOL0     C  742   5.005   6.772   6.359  0.4061  0.2512  1.5122
  747MOL0     C  743   5.147   6.814   6.364  0.1188  0.1930 -0.1121
  747MOL0     C  744   5.227   6.767   6.266 -0.0159  0.3286  0.3519
  747MOL0     O  745   5.357   6.815   6.279  0.4586  0.7190 -0.4550
  747MOL0     C  746   5.453   6.793   6.176  0.2618 -0.6451 -0.3445
  747MOL0     C  747   5.591   6.850   6.222  0.1666 -0.4627  0.2110
  747MOL0     C  748   5.640   6.783   6.357  0.0007  0.0177 -0.4168
  747MOL0     C  749   5.793   6.796   6.373  0.2444 -0.0287  0.2947
  747MOL0     C  750   5.844   6.717   6.494  0.3318  0.2242 -0.7340
  747MOL0     C  751   5.992   6.692   6.479  0.4138  0.0136 -0.6753
  747MOL0     C  752   6.068   6.814   6.534 -0.1098  0.8310  0.3082
  747MOL0     C  753   6.219   6.799   6.544  0.2574 -0.3250 -0.3782
  747MOL0    Cl  754   6.282   6.741   6.385  0.4993  0.4304 -0.1946
  747MOL0     C  755   5.185   6.679   6.169  0.4245 -0.0695 -1.5166
  747MOL0     C  756   5.049   6.647   6.164 -0.4554 -0.2544  0.2100
  747MOL0     O  757   4.861   6.466   6.391 -0.6817  0.2110  0.0686
  747MOL0     C  758   4.597   6.397   6.439 -0.3121 -0.5973  0.0666
  747MOL0     C  759   4.462   6.364   6.453  0.2754  0.6016  0.4476
  747MOL0     N  760   3.846   5.955   6.374 -0.3215  0.1624 -0.5494
  747MOL0     N  761   3.834   5.832   6.333 -0.2412  0.0902 -0.1647
  747MOL0     C  762   4.815   5.905   5.572  0.4814 -0.0378  0.5856
  747MOL0     C  763   4.948   5.897   5.529  0.6901  0.4835  0.1749
  747MOL0     C  764   5.351   5.920   5.372 -0.4083  0.4328  0.1027
  747MOL0     C  765   5.431   5.975   5.479 -0.0289  0.0859 -0.0218
  747MOL0     C  766   5.577   5.972   5.465  0.0250 -0.9883 -0.6407
  747MOL0     C  767   5.644   5.916   5.358  0.3627  0.0451  0.3183
  747MOL0     O  768   5.776   5.889   5.363 -0.1001 -0.5203  0.1874
  747MOL0     C  769   5.870   5.981   5.424  0.0218 -0.0479 -0.3832
  747MOL0     C  770   5.953   6.039   5.309 -0.8241 -0.4768  0.5032
  747MOL0     C  771   6.058   6.140   5.364 -0.3102 -0.5873 -0.5333
  747MOL0     C  772   6.174   6.148   5.259 -0.3649 -0.5808  0.3609
  747MOL0     C  773   6.259   6.262   5.277 -0.1734  0.3877 -0.1549
  747MOL0     C  774   6.324   6.366   5.271  0.1277  0.3008 -1.2785
  747MOL0     C  775   5.564   5.856   5.262  0.2196  0.1908  0.0035
  747MOL0     C  776   5.423   5.860   5.265  0.2382 -0.1527 -0.3346
  747MOL0     C  777   5.357   5.782   5.147  0.1131 -0.0025  0.0668
  747MOL0     H  778   5.069   6.167   5.668  0.3622 -0.0358 -1.4077
  747MOL0     H  779   4.824   6.189   5.744  0.0678 -1.3893  3.3871
  747MOL0     H  780   4.504   5.938   5.580 -1.2670 -1.3614 -0.4580
  747MOL0     H  781   4.575   5.821   5.686  1.1876 -0.5491 -0.9590
  747MOL0     H  782   4.390   6.042   5.778  2.8162  0.7770 -0.4216
  747MOL0     H  783   4.485   5.952   5.890 -2.3354 -2.1236  0.8078
  747MOL0     H  784   4.381   5.733   5.806 -2.0660 -0.0311  3.9142
  747MOL0     H  785   4.304   5.817   5.679 -1.9899  0.7059  0.7673
  747MOL0     H  786   4.268   5.858   5.976  0.4912 -1.0303 -1.0094
  747MOL0     H  787   4.186   5.955   5.857  4.1532  3.0176  1.1396
  747MOL0     H  788   4.093   5.696   5.787 -1.0189 -1.9349  1.2314
  747MOL0     H  789   4.165   5.660   5.936 -0.0539  0.2099 -0.0164
  747MOL0     H  790   4.038   5.861   6.046  0.9507 -0.7995  1.1592
  747MOL0     H  791   3.929   5.844   5.912 -0.6183 -1.6387  0.9209
  747MOL0     H  792   3.999   5.641   6.116  1.8100 -0.9336 -0.8778
  747MOL0     H  793   3.912   5.597   5.967 -2.1386 -0.5322  0.3509
  747MOL0     H  794   3.721   5.725   6.034 -1.3225 -2.1372  2.2255
  747MOL0     H  795   3.774   5.630   6.164 -1.4284 -1.7818 -2.6254
  747MOL0     H  796   3.766   6.000   6.059  2.4026  2.2454  0.3222
  747MOL0     H  797   3.729   6.233   6.222 -1.1422 -0.5227 -0.1497
  747MOL0     H  798   3.821   6.226   6.374 -0.3516  0.8069 -0.3044
  747MOL0     H  799   3.965   6.185   6.119  0.0145 -0.5754 -0.2823
  747MOL0     H  800   3.916   6.349   6.175 -2.6024  0.7136  3.3677
  747MOL0     H  801   4.070   6.172   6.375 -1.4717  0.9851  3.2351
  747MOL0     H  802   4.012   6.338   6.385  1.3758  0.7870 -0.9611
  747MOL0     H  803   4.141   6.408   6.196 -4.1027 -0.5420  0.9844
  747MOL0     H  804   4.239   6.257   6.211 -0.0310  0.3557 -0.8421
  747MOL0     H  805   4.336   6.569   6.218 -1.3907 -1.9591  1.4009
  747MOL0     H  806   4.559   6.653   6.210 -0.8083  0.9820  1.8461
  747MOL0     H  807   4.936   6.794   6.439 -0.8907 -0.6552  0.6898
  747MOL0     H  808   5.184   6.880   6.441  0.4507 -0.7638  0.5625
  747MOL0     H  809   5.460   6.684   6.169  1.3488 -0.4691 -2.9970
  747MOL0     H  810   5.423   6.842   6.083 -1.3733 -0.5900  0.1714
  747MOL0     H  811   5.662   6.845   6.139 -1.7062  1.1438 -1.6186
  747MOL0     H  812   5.591   6.953   6.260  1.6125 -0.0649 -0.7737
  747MOL0     H  813   5.580   6.817   6.441 -1.2905 -0.9438 -0.9129
  747MOL0     H  814   5.608   6.679   6.345  0.9197 -0.0686 -2.7791
  747MOL0     H  815   5.806   6.904   6.390  1.3738  0.8056 -4.4597
  747MOL0     H  816   5.840   6.759   6.282 -0.4643 -0.2010 -0.0065
  747MOL0     H  817   5.799   6.617   6.496 -1.5296  1.0080 -1.4076
  747MOL0     H  818   5.805   6.766   6.584 -0.6885 -1.2264 -0.3482
  747MOL0     H  819   6.027   6.607   6.539  0.4611  0.3616 -0.2023
  747MOL0     H  820   6.020   6.664   6.377 -0.4617 -2.2383 -0.3589
  747MOL0     H  821   6.027   6.844   6.630 -0.0878  0.0354  0.5722
  747MOL0     H  822   6.051   6.892   6.459  1.9153 -0.0310 -1.1550
  747MOL0     H  823   6.263   6.895   6.571 -3.8459  0.9520  2.9797
  747MOL0     H  824   6.250   6.723   6.617 -0.1194 -0.6123 -0.5125
  747MOL0     H  825   5.251   6.640   6.093  0.3786  0.2591 -1.7263
  747MOL0     H  826   5.011   6.595   6.077  2.0598 -0.8209 -0.6391
  747MOL0     H  827   4.666   6.340   6.500 -0.8385 -0.4902  0.7836
  747MOL0     H  828   4.430   6.278   6.511 -2.7600  1.4892  0.2246
  747MOL0     H  829   4.752   5.823   5.540 -1.2454  1.4275  0.0272
  747MOL0     H  830   4.968   5.817   5.460 -1.6148  1.6156 -1.9495
  747MOL0     H  831   5.383   6.017   5.567 -1.6648 -2.5284  0.4457
  747MOL0     H  832   5.630   6.021   5.546  0.2256 -3.7427  1.0139
  747MOL0     H  833   5.928   5.920   5.494 -1.4725 -2.5522 -1.2171
  747MOL0     H  834   5.821   6.068   5.469 -3.6590 -1.1540 -1.9029
  747MOL0     H  835   5.890   6.097   5.240  2.2468  2.4607 -0.1083
  747MOL0     H  836   6.001   5.959   5.252 -1.4997  0.3243 -1.2479
  747MOL0     H  837   6.102   6.107   5.459  0.6850  3.2869  0.5241
  747MOL0     H  838   6.007   6.236   5.377 -0.1427 -0.7331  1.3962
  747MOL0     H  839   6.239   6.059   5.265 -1.0453 -1.0950  0.2064
  747MOL0     H  840   6.128   6.153   5.160 -1.0174  0.9143  0.7174
  747MOL0     H  841   6.376   6.460   5.272  1.6059 -0.3909  2.3361
  747MOL0     H  842   5.607   5.795   5.183 -1.1214  0.9914 -1.3887
  747MOL0     H  843   5.421   5.736   5.072  0.8739 -0.7610  1.1458
  747MOL0     H  844   5.301   5.702   5.196 -1.7907  1.5466  0.5277
  747MOL0     H  845   5.292   5.853   5.095 -2.1817 -3.1692 -1.7302
  748MOL0     O  846   1.135  10.825   7.470 -0.5686  0.2436 -0.4179
  748MOL0     C  847   1.110  10.907   7.380 -0.6702  0.0270 -0.0060
  748MOL0     O  848   1.203  10.986   7.309 -0.2652  0.1998  0.0175
  748MOL0     C  849   1.314  11.016   7.388  0.0915 -0.1689  0.9901
  748MOL0     C  850   1.435  10.972   7.343 -0.7493 -0.8137 -0.7887
  748MOL0     C  851   1.544  10.993   7.427 -0.7786 -0.0019  0.1791
  748MOL0     C  852   1.536  11.079   7.534  0.4621 -0.5097 -0.4474
  748MOL0     O  853   1.648  11.116   7.602  0.1534  0.0228 -0.4384
  748MOL0     C  854   1.746  11.186   7.525 -0.6812 -0.4572  0.0794
  748MOL0     C  855   1.880  11.183   7.596  0.3791  0.0139  0.1526
  748MOL0     C  856   1.981  11.262   7.515 -0.4887 -0.0180 -0.0257
  748MOL0     C  857   2.112  11.278   7.587 -0.7025 -0.0306  0.5755
  748MOL0     C  858   2.221  11.325   7.495  0.3278  0.2984 -0.3642
  748MOL0     C  859   2.352  11.366   7.566 -0.2444 -0.7442  0.6534
  748MOL0     C  860   2.472  11.382   7.470 -1.2443  0.9984  0.2945
  748MOL0     C  861   2.446  11.477   7.351  0.2197  1.2398 -0.7831
  748MOL0     N  862   2.559  11.485   7.257 -0.0051  0.3771 -0.5036
  748MOL0     C  863   2.633  11.594   7.235  0.6894  0.1946 -0.5184
  748MOL0     C  864   2.722  11.557   7.147 -0.8966  0.7397  0.5410
  748MOL0     C  865   2.823  11.655   7.101  0.9136 -0.2003  0.4912
  748MOL0     C  866   2.963  11.594   7.082 -0.9905  0.1943  0.1229
  748MOL0     C  867   3.075  11.706   7.074 -0.3580 -0.0223  0.4667
  748MOL0     C  868   3.210  11.647   7.020 -0.2848 -0.0381 -0.2016
  748MOL0     O  869   3.293  11.763   7.025 -0.0069  0.7714 -0.2850
  748MOL0     C  870   3.427  11.756   7.028  0.3813 -0.5146 -0.5591
  748MOL0     C  871   3.503  11.643   7.026 -0.4041 -0.2209 -1.1473
  748MOL0     C  872   3.640  11.661   7.027  0.8322 -0.4996  0.3448
  748MOL0     C  873   3.698  11.789   7.028  0.0505  0.5110 -0.4255
  748MOL0     C  874   3.848  11.802   7.021  0.4435 -0.2122  0.1407
  748MOL0     O  875   3.903  11.917   6.968 -0.0468  0.1007  0.5938
  748MOL0     C  876   4.040  11.916   6.940 -0.7144  0.4236 -0.5634
  748MOL0     C  877   4.112  11.812   6.877  0.4394 -0.5547 -0.4895
  748MOL0     C  878   4.251  11.822   6.847 -0.2500  0.0278  1.3296
  748MOL0     C  879   4.318  11.940   6.888  0.7258  0.2517  0.1303
  748MOL0     O  880   4.451  11.969   6.861  0.1620  0.2360  0.8324
  748MOL0     C  881   4.534  11.864   6.804  0.3807 -0.2625 -0.1126
  748MOL0     C  882   4.673  11.917   6.815 -0.2860 -0.0112 -0.0475
  748MOL0     C  883   4.772  11.806   6.771  0.9278 -0.9955 -0.1058
  748MOL0     C  884   4.916  11.856   6.790  0.8294 -0.1316 -0.4020
  748MOL0     C  885   5.017  11.749   6.770 -1.3263  0.1267  0.1750
  748MOL0     C  886   5.148  11.798   6.831  0.4181  0.3298  0.6106
  748MOL0     C  887   5.273  11.717   6.779  0.3919  1.3832 -0.3783
  748MOL0     C  888   5.406  11.770   6.835 -0.5357  0.4888  0.2463
  748MOL0    Cl  889   5.393  11.746   7.013 -0.4534  0.0039 -0.0445
  748MOL0     C  890   4.248  12.042   6.954  0.2810  0.1516 -0.4312
  748MOL0     C  891   4.109  12.030   6.987  0.5154  0.8159  0.7926
  748MOL0     O  892   3.908  11.701   7.062  0.6792 -0.2668  0.0762
  748MOL0     C  893   3.619  11.903   7.037  0.2456  0.7760 -0.2369
  748MOL0     C  894   3.484  11.884   7.046 -0.4175 -0.5466 -0.0670
  748MOL0     N  895   2.708  11.421   7.120 -0.3114  1.0418 -0.2009
  748MOL0     N  896   2.612  11.377   7.195 -0.4898  0.4346  0.8300
  748MOL0     C  897   1.411  11.133   7.577  0.0589  0.7538 -0.5219
  748MOL0     C  898   1.295  11.092   7.501  0.4615 -0.3190  0.0001
  748MOL0     C  899   0.965  10.921   7.340 -0.2044 -0.0329 -0.3531
  748MOL0     C  900   0.946  10.947   7.207 -0.3985  0.4783  0.4411
  748MOL0     C  901   0.822  10.957   7.155 -0.8275 -0.0482  0.4751
  748MOL0     C  902   0.711  10.961   7.236  0.2041  0.2956 -0.5777
  748MOL0     O  903   0.579  10.992   7.202 -0.1638  0.0422 -0.0354
  748MOL0     C  904   0.532  10.995   7.068 -0.8784  0.7185  0.1717
  748MOL0     C  905   0.522  10.865   6.993 -0.2303  0.0236 -1.1432
  748MOL0     C  906   0.394  10.798   7.023  1.2858 -0.4607 -0.2553
  748MOL0     C  907   0.397  10.644   7.035  0.0970 -0.5848  0.5704
  748MOL0     C  908   0.257  10.599   7.078  0.6892  0.6426  0.6611
  748MOL0     C  909   0.143  10.565   7.102 -0.4626 -0.3523 -0.5104
  748MOL0     C  910   0.727  10.945   7.373  1.2952 -0.2570  0.0390
  748MOL0     C  911   0.851  10.917   7.429 -0.5634 -0.0668 -0.5583
  748MOL0     C  912   0.864  10.902   7.575 -0.6807 -0.5336 -0.0515
  748MOL0     H  913   1.444  10.910   7.254  3.1642 -0.8413 -0.5615
  748MOL0     H  914   1.641  10.950   7.409 -1.3227 -0.7818 -0.9603
  748MOL0     H  915   1.762  11.144   7.425  0.3140 -0.9436  0.4364
  748MOL0     H  916   1.713  11.288   7.503  0.0058 -0.5928 -1.7580
  748MOL0     H  917   1.914  11.079   7.607  1.9121  0.2911 -1.5578
  748MOL0     H  918   1.857  11.224   7.695 -2.7330 -3.4542  1.0712
  748MOL0     H  919   1.945  11.359   7.481  1.5336  1.3427  1.4795
  748MOL0     H  920   1.996  11.211   7.419 -0.3896 -0.2035  0.0869
  748MOL0     H  921   2.110  11.359   7.661 -2.0236  1.3369 -0.8726
  748MOL0     H  922   2.143  11.185   7.636 -1.7865 -0.1456  1.0820
  748MOL0     H  923   2.242  11.244   7.423  1.9795 -0.2117  0.6443
  748MOL0     H  924   2.173  11.413   7.451 -1.5824 -0.5549 -0.0588
  748MOL0     H  925   2.347  11.465   7.613 -1.0180 -0.5929  0.2557
  748MOL0     H  926   2.386  11.294   7.641  2.3111  0.3030  0.6256
  748MOL0     H  927   2.499  11.290   7.419  1.2985  1.0760  1.3522
  748MOL0     H  928   2.560  11.404   7.532  0.1586  1.3664 -1.7235
  748MOL0     H  929   2.365  11.422   7.303  0.9653 -0.9810  0.3389
  748MOL0     H  930   2.413  11.573   7.391  1.0765  0.3584  2.2967
  748MOL0     H  931   2.624  11.688   7.290 -0.3441 -0.5278  0.6088
  748MOL0     H  932   2.781  11.709   7.016 -2.2580  2.6842  3.5475
  748MOL0     H  933   2.825  11.733   7.177 -3.4504  0.9551 -0.3282
  748MOL0     H  934   2.992  11.513   7.149 -0.7515  0.8520  0.8369
  748MOL0     H  935   2.977  11.548   6.985  0.6480  0.5062  0.1758
  748MOL0     H  936   3.104  11.738   7.175  3.7274 -2.4452  0.2521
  748MOL0     H  937   3.049  11.793   7.013  0.5840 -0.0146  0.0685
  748MOL0     H  938   3.184  11.618   6.917 -1.2959  0.4112 -0.0857
  748MOL0     H  939   3.236  11.561   7.082  0.4639  1.2167  1.2863
  748MOL0     H  940   3.468  11.540   7.029  0.7464 -0.6726 -2.3722
  748MOL0     H  941   3.705  11.574   7.019  2.0716  0.4256 -0.0869
  748MOL0     H  942   4.055  11.727   6.842  2.1301 -1.2322 -1.7791
  748MOL0     H  943   4.296  11.746   6.783 -1.3802  1.3646 -1.2135
  748MOL0     H  944   4.513  11.770   6.856 -1.2752 -0.4618 -1.0872
  748MOL0     H  945   4.520  11.861   6.696  1.8640 -2.4450 -0.3100
  748MOL0     H  946   4.695  12.010   6.761  2.0433  0.6414  1.8450
  748MOL0     H  947   4.677  11.939   6.922  1.6121 -0.8073  0.0799
  748MOL0     H  948   4.758  11.713   6.826 -1.2021 -1.3249 -1.1068
  748MOL0     H  949   4.752  11.778   6.667 -1.5897  1.5368 -0.4364
  748MOL0     H  950   4.936  11.902   6.887  2.4077 -1.8562  0.1577
  748MOL0     H  951   4.933  11.936   6.717  0.5181 -1.7165 -2.3307
  748MOL0     H  952   5.028  11.726   6.664  0.7765 -0.5070  0.4799
  748MOL0     H  953   4.986  11.661   6.826  1.6515 -0.9479  0.3275
  748MOL0     H  954   5.167  11.903   6.807  0.0281  0.1532 -0.5260
  748MOL0     H  955   5.142  11.799   6.941 -2.7125  1.2051  0.5330
  748MOL0     H  956   5.283  11.737   6.672  2.4504 -0.8228 -0.6882
  748MOL0     H  957   5.259  11.612   6.804  0.4529  1.9114  2.1021
  748MOL0     H  958   5.487  11.710   6.793 -3.1759 -1.3483 -2.6152
  748MOL0     H  959   5.416  11.877   6.818  0.4312  0.2093 -1.1114
  748MOL0     H  960   4.296  12.131   6.993 -1.1342  0.3688  0.8969
  748MOL0     H  961   4.058  12.104   7.048 -0.4297  0.3766  0.5431
  748MOL0     H  962   3.664  12.001   7.044  2.1443 -0.1126  0.7765
  748MOL0     H  963   3.414  11.967   7.044 -1.8989 -1.7127 -3.1807
  748MOL0     H  964   1.401  11.200   7.661  1.3255 -1.1886  1.2747
  748MOL0     H  965   1.192  11.123   7.512  0.0954  1.2755 -5.1042
  748MOL0     H  966   1.028  10.952   7.136  0.5497  0.8066  1.5174
  748MOL0     H  967   0.804  10.960   7.048  0.7112 -0.1871  0.1808
  748MOL0     H  968   0.603  11.054   7.008  1.2358 -0.6308  1.2454
  748MOL0     H  969   0.434  11.043   7.061 -2.5544 -2.6726 -2.2603
  748MOL0     H  970   0.600  10.792   7.018  0.9391  1.1575 -1.3166
  748MOL0     H  971   0.536  10.892   6.888 -1.9379 -0.6788 -1.5792
  748MOL0     H  972   0.314  10.822   6.952  1.5911 -0.5012 -0.6116
  748MOL0     H  973   0.365  10.830   7.124 -1.8904 -0.2113 -1.1418
  748MOL0     H  974   0.415  10.596   6.938  0.5175 -2.8541  1.7121
  748MOL0     H  975   0.480  10.620   7.102  0.6195 -1.5591 -0.3937
  748MOL0     H  976   0.041  10.551   7.134 -0.8924  2.8954 -0.0960
  748MOL0     H  977   0.642  10.953   7.440  1.5217  0.1616  0.2818
  748MOL0     H  978   0.934  10.977   7.613 -1.6041  0.9078 -1.1076
  748MOL0     H  979   0.772  10.937   7.623  1.0320  0.1345  3.0895
  748MOL0     H  980   0.883  10.800   7.610 -1.1922 -1.5557 -2.5753
  749MOL0     O  981   8.971   5.794   6.543 -0.9017  0.3988 -0.3728
  749MOL0     C  982   8.958   5.854   6.440  0.7354  0.7393 -0.1854
  749MOL0     O  983   9.056   5.863   6.341 -0.5030 -0.1198 -0.5958
  749MOL0     C  984   9.168   5.783   6.360  0.2756 -0.0928 -0.0936
  749MOL0     C  985   9.283   5.840   6.422 -0.1984 -0.0125  0.4774
  749MOL0     C  986   9.395   5.745   6.445  0.6873  0.6755 -0.2859
  749MOL0     C  987   9.390   5.612   6.404 -0.8455  0.3579 -0.8042
  749MOL0     O  988   9.496   5.522   6.416 -0.1489  0.5197  0.5178
  749MOL0     C  989   9.614   5.570   6.466 -0.6238 -0.2474 -0.7729
  749MOL0     C  990   9.701   5.445   6.508  0.2924  0.7508 -0.1620
  749MOL0     C  991   9.789   5.491   6.622  0.4940  0.2446 -0.2171
  749MOL0     C  992   9.921   5.550   6.555  0.1656 -0.9097  0.9554
  749MOL0     C  993  10.006   5.640   6.648  0.2622 -0.0265 -0.4203
  749MOL0     C  994  10.152   5.672   6.593  0.2861  0.5096 -0.1364
  749MOL0     C  995  10.252   5.556   6.601 -0.3186 -0.1000  0.1451
  749MOL0     C  996  10.398   5.584   6.551 -0.2407  0.0175 -0.5637
  749MOL0     N  997  10.491   5.485   6.616  0.4541  0.2463 -0.4383
  749MOL0     C  998  10.569   5.490   6.737  0.7176  0.3407 -0.0092
  749MOL0     C  999  10.611   5.366   6.753 -0.3469 -0.1129 -0.4304
  749MOL0     C 1000  10.689   5.317   6.872 -0.3402 -0.1415 -0.9870
  749MOL0     C 1001  10.834   5.362   6.864 -0.4338  0.2098 -0.2119
  749MOL0     C 1002  10.906   5.357   6.996 -0.7103  0.4416  0.0152
  749MOL0     C 1003  10.835   5.417   7.125 -0.0677  0.5774  0.1660
  749MOL0     O 1004  10.809   5.561   7.109 -0.4466 -0.2794  0.2842
  749MOL0     C 1005  10.909   5.661   7.134 -0.8024  0.5392  0.1133
  749MOL0     C 1006  11.041   5.645   7.186  0.4987  0.0613  0.0110
  749MOL0     C 1007  11.128   5.750   7.201 -0.0782 -0.1376 -0.1910
  749MOL0     C 1008  11.089   5.879   7.176 -0.0699  0.8089  0.6249
  749MOL0     C 1009  11.182   5.991   7.178  0.0694 -0.1829  0.6837
  749MOL0     O 1010  11.310   5.956   7.206 -0.7040  0.2248 -0.1154
  749MOL0     C 1011  11.399   6.062   7.212 -0.0419  0.5461 -0.6290
  749MOL0     C 1012  11.495   6.078   7.119 -0.3148  0.0745  0.3764
  749MOL0     C 1013  11.602   6.167   7.135 -0.0097 -0.1024  0.7897
  749MOL0     C 1014  11.613   6.257   7.244 -0.2984  0.0970  0.5060
  749MOL0     O 1015  11.726   6.342   7.254 -0.5881  1.1745  0.0991
  749MOL0     C 1016  11.737   6.423   7.375 -0.5796  0.7828  0.3706
  749MOL0     C 1017  11.876   6.488   7.382  0.2252 -0.6396  0.4509
  749MOL0     C 1018  12.002   6.400   7.364 -0.7184 -0.2437  0.2920
  749MOL0     C 1019  12.131   6.480   7.396 -0.2839 -0.8110  0.2973
  749MOL0     C 1020  12.255   6.430   7.326 -0.2602  0.1840  0.8629
  749MOL0     C 1021  12.356   6.531   7.298  0.0184 -0.3826 -0.7669
  749MOL0     C 1022  12.487   6.472   7.235 -0.6561  0.6768 -0.8177
  749MOL0     C 1023  12.595   6.423   7.324  0.8244 -0.5663  0.1110
  749MOL0    Cl 1024  12.732   6.352   7.223  0.1313  0.0049 -0.0753
  749MOL0     C 1025  11.507   6.241   7.338 -1.1025 -0.1317 -0.0402
  749MOL0     C 1026  11.408   6.144   7.325 -0.3049  0.4953 -0.2277
  749MOL0     O 1027  11.137   6.100   7.156 -0.2024 -0.0557  1.3728
  749MOL0     C 1028  10.957   5.897   7.134  0.1853 -0.1340  0.9636
  749MOL0     C 1029  10.873   5.795   7.111  0.2980 -0.7733  0.1628
  749MOL0     N 1030  10.567   5.287   6.652 -0.4981  1.1417  0.1805
  749MOL0     N 1031  10.492   5.359   6.574 -0.5713 -0.2515 -0.5617
  749MOL0     C 1032   9.273   5.564   6.344 -0.6815 -0.4406  0.1155
  749MOL0     C 1033   9.163   5.649   6.327  0.8879  0.1863 -0.0946
  749MOL0     C 1034   8.835   5.934   6.411 -0.3732 -0.0041 -0.1343
  749MOL0     C 1035   8.853   6.054   6.340 -0.6922 -0.1680  0.2142
  749MOL0     C 1036   8.743   6.151   6.328  0.3796  0.4732  0.0317
  749MOL0     C 1037   8.621   6.130   6.375  0.1272 -0.2221 -0.3564
  749MOL0     O 1038   8.521   6.221   6.348 -0.2160 -0.3628  0.3006
  749MOL0     C 1039   8.389   6.189   6.377  0.7708 -0.3603 -1.2570
  749MOL0     C 1040   8.346   6.220   6.525  0.2017  0.2442 -0.9283
  749MOL0     C 1041   8.441   6.303   6.607  0.2853 -0.7633  0.2210
  749MOL0     C 1042   8.432   6.450   6.561 -0.5263 -0.6171 -0.3641
  749MOL0     C 1043   8.299   6.509   6.607 -0.3009  0.0847 -0.1797
  749MOL0     C 1044   8.196   6.563   6.642  0.3307  0.4650 -1.0258
  749MOL0     C 1045   8.608   6.003   6.444 -0.3479 -0.4050  0.4424
  749MOL0     C 1046   8.705   5.915   6.466 -0.1660  0.0341  0.3716
  749MOL0     C 1047   8.671   5.782   6.522 -0.4852 -0.7838 -0.3406
  749MOL0     H 1048   9.294   5.946   6.443 -1.3925 -0.1312  1.8511
  749MOL0     H 1049   9.477   5.799   6.492  0.9638 -0.7209  0.9265
  749MOL0     H 1050   9.672   5.635   6.399  3.6784 -1.8403  1.0489
  749MOL0     H 1051   9.595   5.629   6.556  2.6764 -1.4854  0.9102
  749MOL0     H 1052   9.754   5.398   6.425 -1.4009 -0.7591 -0.4430
  749MOL0     H 1053   9.642   5.363   6.548 -0.1588  1.5762  0.9098
  749MOL0     H 1054   9.813   5.400   6.678  0.9463  0.3827 -0.1825
  749MOL0     H 1055   9.738   5.563   6.686 -2.7607 -1.5389 -0.5943
  749MOL0     H 1056   9.979   5.470   6.508 -2.3455 -1.2531 -1.8314
  749MOL0     H 1057   9.905   5.609   6.465  0.5215 -1.3809  0.5796
  749MOL0     H 1058   9.961   5.737   6.673  1.8268 -0.1439  3.4995
  749MOL0     H 1059  10.015   5.601   6.750  0.9784  3.3594  0.9567
  749MOL0     H 1060  10.142   5.701   6.488 -1.0035  2.1888  0.4070
  749MOL0     H 1061  10.185   5.764   6.642 -1.7532  0.5848  1.2352
  749MOL0     H 1062  10.213   5.474   6.541  1.0247  0.5039 -1.6705
  749MOL0     H 1063  10.259   5.527   6.706  3.2412 -0.1663  0.0019
  749MOL0     H 1064  10.409   5.567   6.443  0.1643  2.0491 -0.8946
  749MOL0     H 1065  10.439   5.681   6.582  3.2765 -2.2576  2.8179
  749MOL0     H 1066  10.599   5.570   6.805  0.2037  2.2936 -1.9782
  749MOL0     H 1067  10.648   5.352   6.967  1.9671  0.0158  0.0327
  749MOL0     H 1068  10.684   5.208   6.880 -0.7326 -0.0310  0.4818
  749MOL0     H 1069  10.898   5.304   6.797  2.5138  0.8527  1.8515
  749MOL0     H 1070  10.834   5.466   6.831  0.5124 -0.1040 -1.2590
  749MOL0     H 1071  10.999   5.413   6.987  0.8464 -1.7436  1.5083
  749MOL0     H 1072  10.934   5.255   7.022 -0.9365 -0.1689 -2.0041
  749MOL0     H 1073  10.916   5.395   7.195  0.4997  0.6020 -0.4771
  749MOL0     H 1074  10.748   5.362   7.163 -1.0565  2.2702  0.5075
  749MOL0     H 1075  11.065   5.541   7.206 -1.8301 -1.3037 -3.2768
  749MOL0     H 1076  11.227   5.734   7.243  0.4427  0.0130 -1.3246
  749MOL0     H 1077  11.501   6.005   7.038  0.2015  0.0569  0.4216
  749MOL0     H 1078  11.681   6.160   7.061 -1.0398 -1.3700 -0.2443
  749MOL0     H 1079  11.658   6.498   7.382 -0.3130  1.2016 -0.8937
  749MOL0     H 1080  11.731   6.362   7.466  1.0167  1.6907  1.1309
  749MOL0     H 1081  11.878   6.568   7.306  1.2254  0.3638  1.4853
  749MOL0     H 1082  11.886   6.534   7.481 -2.8891  0.3294  0.4162
  749MOL0     H 1083  11.989   6.305   7.417 -3.6207  0.0394  0.2512
  749MOL0     H 1084  11.996   6.383   7.256 -1.3990  0.9782  0.1222
  749MOL0     H 1085  12.145   6.469   7.504 -0.0482  2.4113  0.6720
  749MOL0     H 1086  12.121   6.588   7.384 -1.5026 -0.6654  2.2933
  749MOL0     H 1087  12.232   6.384   7.229  1.0099 -1.7879  1.4439
  749MOL0     H 1088  12.291   6.348   7.388  2.4424 -1.0633 -2.1192
  749MOL0     H 1089  12.309   6.596   7.224 -0.7127 -0.3983 -0.3212
  749MOL0     H 1090  12.385   6.590   7.386  1.1635 -2.9512  0.6797
  749MOL0     H 1091  12.537   6.549   7.176  1.8690  0.3500  0.7476
  749MOL0     H 1092  12.456   6.391   7.168  0.6401 -0.5421 -0.0087
  749MOL0     H 1093  12.634   6.517   7.366 -2.2292  2.2332 -2.7482
  749MOL0     H 1094  12.567   6.350   7.400 -1.5061 -2.8009 -2.6728
  749MOL0     H 1095  11.509   6.301   7.429 -0.5622  1.3925 -1.0188
  749MOL0     H 1096  11.334   6.144   7.404  1.9091  0.8350  1.9656
  749MOL0     H 1097  10.918   5.994   7.105 -1.4402 -1.6744 -2.5201
  749MOL0     H 1098  10.770   5.810   7.080 -1.4257 -1.4081  4.7615
  749MOL0     H 1099   9.258   5.461   6.313  0.7439 -0.9618  1.0731
  749MOL0     H 1100   9.065   5.620   6.290  1.3910 -4.0112  1.2750
  749MOL0     H 1101   8.945   6.082   6.290 -3.0060  3.3088 -2.6785
  749MOL0     H 1102   8.758   6.243   6.272  0.2411 -0.1339 -1.0240
  749MOL0     H 1103   8.373   6.085   6.349 -0.5178 -0.8463  1.0154
  749MOL0     H 1104   8.324   6.245   6.309  0.8808  0.6808 -0.5424
  749MOL0     H 1105   8.352   6.121   6.571 -4.6243 -0.6013 -1.5867
  749MOL0     H 1106   8.240   6.249   6.528 -0.5875 -2.3293 -1.1365
  749MOL0     H 1107   8.542   6.263   6.588  0.3679 -0.2313 -0.4895
  749MOL0     H 1108   8.426   6.299   6.715 -1.2883  0.7756  0.0937
  749MOL0     H 1109   8.521   6.490   6.610  1.7619 -3.0569 -2.2434
  749MOL0     H 1110   8.437   6.460   6.452  2.0258  0.7632 -0.1909
  749MOL0     H 1111   8.108   6.614   6.677  0.5430  2.1110 -2.7239
  749MOL0     H 1112   8.508   5.980   6.480 -1.1447  3.3922  1.0980
  749MOL0     H 1113   8.735   5.707   6.474  0.7966  0.8464 -1.2950
  749MOL0     H 1114   8.687   5.781   6.630  1.0161  0.5416 -0.5205
  749MOL0     H 1115   8.565   5.759   6.510 -1.6457  3.1917  0.7955
  750MOL0     O 1116   5.357   4.028   2.767 -0.0725 -0.2898  0.4610
  750MOL0     C 1117   5.312   4.141   2.761 -0.1846  0.3725 -0.4182
  750MOL0     O 1118   5.384   4.255   2.754 -0.1737  0.8718  0.2613
  750MOL0     C 1119   5.525   4.231   2.746  0.7712  0.1340  0.3642
  750MOL0     C 1120   5.590   4.145   2.654 -0.2588 -0.4594 -0.3692
  750MOL0     C 1121   5.734   4.158   2.651  0.4181  0.1495  0.0819
  750MOL0     C 1122   5.799   4.264   2.716  0.1881 -0.6164  0.1968
  750MOL0     O 1123   5.935   4.286   2.688  0.5287  0.2596 -0.6662
  750MOL0     C 1124   5.981   4.421   2.692 -0.8679  0.2918  0.0816
  750MOL0     C 1125   6.123   4.426   2.641  0.2567 -0.1910 -0.0328
  750MOL0     C 1126   6.232   4.398   2.744 -0.7956 -0.0083  0.0676
  750MOL0     C 1127   6.369   4.360   2.694 -0.4859 -0.5821 -0.6864
  750MOL0     C 1128   6.471   4.304   2.793 -0.6249 -0.0542  0.0403
  750MOL0     C 1129   6.546   4.411   2.882  0.2759  0.3174  0.5335
  750MOL0     C 1130   6.672   4.368   2.952  0.3045 -0.0230  0.3678
  750MOL0     C 1131   6.635   4.269   3.067  0.0432 -0.2143  0.4997
  750MOL0     N 1132   6.759   4.234   3.143 -0.4451  0.4101 -1.0613
  750MOL0     C 1133   6.887   4.192   3.091  0.8369 -0.5541 -0.1183
  750MOL0     C 1134   6.944   4.129   3.194 -0.5225 -0.4577 -0.4106
  750MOL0     C 1135   7.071   4.052   3.195  0.1285 -0.0966 -0.2116
  750MOL0     C 1136   7.198   4.127   3.232  0.7997 -0.2263 -0.1605
  750MOL0     C 1137   7.231   4.252   3.142  0.4221 -0.0672  0.0642
  750MOL0     C 1138   7.357   4.330   3.174  0.5045 -0.1616  0.3452
  750MOL0     O 1139   7.468   4.252   3.138 -0.8650  0.0207 -0.2512
  750MOL0     C 1140   7.588   4.291   3.193  0.0301 -0.5772  0.2312
  750MOL0     C 1141   7.617   4.398   3.275  0.2209 -0.2242 -0.7619
  750MOL0     C 1142   7.747   4.426   3.326 -0.2079 -0.5093  0.1258
  750MOL0     C 1143   7.847   4.340   3.296 -0.3818 -0.2270 -0.7111
  750MOL0     C 1144   7.984   4.358   3.348 -0.6149 -0.8303  0.4413
  750MOL0     O 1145   8.000   4.469   3.433 -0.6042 -0.2970 -0.3760
  750MOL0     C 1146   8.119   4.469   3.501 -0.3064  0.5346 -0.3218
  750MOL0     C 1147   8.225   4.537   3.449  0.5070 -0.7264 -0.7938
  750MOL0     C 1148   8.345   4.551   3.524  0.0288 -0.0830 -0.2996
  750MOL0     C 1149   8.353   4.493   3.649  0.1900  0.5913 -0.8218
  750MOL0     O 1150   8.460   4.495   3.735 -0.1481  0.5412  0.1477
  750MOL0     C 1151   8.570   4.566   3.674  0.1629 -0.3532 -0.0343
  750MOL0     C 1152   8.696   4.558   3.753 -0.6454  0.6928 -0.0800
  750MOL0     C 1153   8.793   4.440   3.721  0.1504 -0.3571  0.2234
  750MOL0     C 1154   8.920   4.456   3.810 -0.1574  0.4376  0.1401
  750MOL0     C 1155   9.030   4.366   3.766  0.0500  0.1521 -0.6167
  750MOL0     C 1156   9.157   4.380   3.857  0.2690 -0.7850  0.3579
  750MOL0     C 1157   9.208   4.529   3.863 -0.1533  0.4753  0.3682
  750MOL0     C 1158   9.362   4.545   3.855  0.8409  0.3271  0.1991
  750MOL0    Cl 1159   9.440   4.423   3.762  0.2178  0.3333  0.7007
  750MOL0     C 1160   8.243   4.426   3.702 -0.3400  0.6387 -0.8824
  750MOL0     C 1161   8.126   4.421   3.628 -0.2444 -0.2699 -0.0974
  750MOL0     O 1162   8.075   4.292   3.301  0.1590  0.7555  0.5193
  750MOL0     C 1163   7.820   4.228   3.211 -0.2467 -0.3791  0.2012
  750MOL0     C 1164   7.694   4.208   3.159  0.2699 -0.2862 -0.0237
  750MOL0     N 1165   6.849   4.112   3.289 -0.2503 -0.1567 -0.2368
  750MOL0     N 1166   6.742   4.170   3.262 -0.5498  0.1482  0.0604
  750MOL0     C 1167   5.730   4.341   2.809  0.1151  0.4474  0.3449
  750MOL0     C 1168   5.595   4.326   2.820  0.4714  0.2233 -0.2117
  750MOL0     C 1169   5.164   4.157   2.750  0.2040 -0.0254  0.0047
  750MOL0     C 1170   5.114   4.264   2.676  0.4734  0.2176 -0.6140
  750MOL0     C 1171   4.974   4.282   2.659 -0.1557 -0.2075  0.3566
  750MOL0     C 1172   4.884   4.195   2.722  0.4057  0.5812  0.0205
  750MOL0     O 1173   4.750   4.221   2.708 -0.6529  0.7757 -0.2544
  750MOL0     C 1174   4.657   4.149   2.786  0.3952 -0.5974  0.1571
  750MOL0     C 1175   4.509   4.186   2.757  0.6132 -0.6893 -0.9927
  750MOL0     C 1176   4.466   4.146   2.613  1.3408 -0.7956  0.1858
  750MOL0     C 1177   4.412   4.001   2.602  1.0740 -0.3818  0.4106
  750MOL0     C 1178   4.267   3.995   2.639 -0.1358 -0.0986 -0.2564
  750MOL0     C 1179   4.153   3.986   2.668  0.3734  0.4057  0.3740
  750MOL0     C 1180   4.934   4.086   2.800 -0.2104 -0.3142 -0.2627
  750MOL0     C 1181   5.072   4.066   2.812 -0.0224 -0.2183  0.1494
  750MOL0     C 1182   5.107   3.942   2.890  0.3185 -0.9270  0.9913
  750MOL0     H 1183   5.538   4.074   2.591  0.5088  1.0140 -2.8268
  750MOL0     H 1184   5.798   4.103   2.584  1.9585 -0.2605  1.8120
  750MOL0     H 1185   5.921   4.472   2.617 -0.8135 -1.8417 -1.5225
  750MOL0     H 1186   5.973   4.471   2.789 -0.9963  1.6755 -0.6263
  750MOL0     H 1187   6.144   4.527   2.603  0.5481 -0.2923 -0.1377
  750MOL0     H 1188   6.139   4.356   2.559 -2.7307 -1.0464 -0.0222
  750MOL0     H 1189   6.199   4.315   2.807  0.7237 -0.3798  0.4125
  750MOL0     H 1190   6.245   4.483   2.812  1.1738  1.1753 -1.6430
  750MOL0     H 1191   6.372   4.290   2.609  1.9263  0.5321 -1.6243
  750MOL0     H 1192   6.413   4.453   2.656  0.0910 -0.9510 -0.9465
  750MOL0     H 1193   6.422   4.227   2.853 -2.0018 -0.5644 -1.6525
  750MOL0     H 1194   6.553   4.258   2.737  0.2996  0.5545  0.8701
  750MOL0     H 1195   6.566   4.494   2.814 -1.5056 -1.4698 -2.3879
  750MOL0     H 1196   6.479   4.457   2.956 -0.6006  0.9547 -0.6281
  750MOL0     H 1197   6.721   4.461   2.985  2.2303 -0.6216 -0.6373
  750MOL0     H 1198   6.740   4.323   2.879 -0.3801 -0.7901  0.1830
  750MOL0     H 1199   6.549   4.301   3.125  0.4269  0.7936  0.5370
  750MOL0     H 1200   6.600   4.179   3.015  0.8541 -0.2901  0.0595
  750MOL0     H 1201   6.922   4.211   2.991 -0.5734  0.8351 -0.3832
  750MOL0     H 1202   7.061   3.966   3.261  0.1161  1.5564  2.0360
  750MOL0     H 1203   7.078   4.016   3.092  2.0434  0.0030 -0.1487
  750MOL0     H 1204   7.172   4.158   3.334  0.4028  1.8455 -0.8308
  750MOL0     H 1205   7.280   4.054   3.228  1.6950  0.7512 -0.2452
  750MOL0     H 1206   7.146   4.321   3.148  1.1401  0.7858  0.7916
  750MOL0     H 1207   7.250   4.199   3.049  3.0006 -2.6768  1.8946
  750MOL0     H 1208   7.351   4.359   3.279 -1.0276  2.7393 -0.4641
  750MOL0     H 1209   7.362   4.419   3.111 -0.0042 -0.2182  0.2247
  750MOL0     H 1210   7.527   4.455   3.296 -0.0816  0.6594 -3.9346
  750MOL0     H 1211   7.767   4.503   3.400  0.3492 -1.7644  1.3367
  750MOL0     H 1212   8.230   4.574   3.347  2.4242 -0.1904 -0.5557
  750MOL0     H 1213   8.419   4.619   3.482  2.1877 -1.1133  1.6590
  750MOL0     H 1214   8.595   4.538   3.571  0.7541 -2.1002  0.5445
  750MOL0     H 1215   8.541   4.671   3.667  2.2740  0.3716  1.1398
  750MOL0     H 1216   8.747   4.651   3.725 -0.2414  0.8069  0.9919
  750MOL0     H 1217   8.681   4.565   3.861  3.5999  0.8144  0.7054
  750MOL0     H 1218   8.733   4.351   3.736 -5.0127  3.1053  3.1805
  750MOL0     H 1219   8.831   4.443   3.618 -3.9384  0.8262 -1.4651
  750MOL0     H 1220   8.890   4.416   3.906 -1.4205 -0.4789 -0.6130
  750MOL0     H 1221   8.957   4.559   3.803 -0.2976  0.4770 -0.0384
  750MOL0     H 1222   9.056   4.407   3.668 -3.2801  0.2077 -1.5690
  750MOL0     H 1223   9.002   4.261   3.756  1.6655 -0.1919 -1.9010
  750MOL0     H 1224   9.129   4.341   3.956 -2.0948 -0.1262  0.0239
  750MOL0     H 1225   9.231   4.310   3.818  0.9973 -0.6772  1.5120
  750MOL0     H 1226   9.168   4.568   3.956  1.1474  2.4215  0.1614
  750MOL0     H 1227   9.163   4.591   3.786 -2.0071  1.6949  2.3322
  750MOL0     H 1228   9.393   4.644   3.820  2.4500  0.4263  1.7673
  750MOL0     H 1229   9.400   4.525   3.956 -1.5992  0.5881  1.2588
  750MOL0     H 1230   8.247   4.383   3.801  1.5573  0.3126 -1.0749
  750MOL0     H 1231   8.046   4.359   3.667 -0.4903 -0.0821 -0.3049
  750MOL0     H 1232   7.903   4.167   3.179 -0.8260 -1.6794  1.0759
  750MOL0     H 1233   7.675   4.124   3.093  0.2363  1.0049 -1.7262
  750MOL0     H 1234   5.782   4.423   2.858  0.6240 -0.4103  1.2921
  750MOL0     H 1235   5.540   4.391   2.887 -1.2165  0.2574 -1.5774
  750MOL0     H 1236   5.177   4.328   2.615  0.7280 -0.1411 -0.7350
  750MOL0     H 1237   4.949   4.376   2.610 -0.6764 -0.7804 -0.5003
  750MOL0     H 1238   4.682   4.157   2.892  4.2034  1.3883 -0.7308
  750MOL0     H 1239   4.660   4.044   2.756  0.2573 -0.5254 -0.1088
  750MOL0     H 1240   4.499   4.295   2.764 -2.1917 -0.9371  0.3213
  750MOL0     H 1241   4.446   4.139   2.833 -1.5064  1.2938 -1.4068
  750MOL0     H 1242   4.551   4.155   2.545  2.0931 -1.4006  1.0165
  750MOL0     H 1243   4.391   4.216   2.576  2.3513  0.7266  0.9554
  750MOL0     H 1244   4.414   3.974   2.496  2.5666  0.3518  0.2328
  750MOL0     H 1245   4.472   3.929   2.659 -0.1043 -0.7612  1.2010
  750MOL0     H 1246   4.046   3.979   2.678  0.4715 -1.9713  0.3999
  750MOL0     H 1247   4.867   4.009   2.836  0.8809 -1.8359 -1.3184
  750MOL0     H 1248   5.027   3.903   2.954  0.7784 -0.6426  1.7537
  750MOL0     H 1249   5.134   3.869   2.813 -2.1206  0.4876 -1.3617
  750MOL0     H 1250   5.192   3.954   2.957  2.0396  0.6663 -1.3201
  751MOL0     O 1251   7.515   8.739   5.369 -0.1496  0.0169 -0.1131
  751MOL0     C 1252   7.451   8.739   5.262  0.2949  0.2660  0.6065
  751MOL0     O 1253   7.514   8.734   5.145 -0.1834 -0.3325 -0.2061
  751MOL0     C 1254   7.637   8.671   5.136  0.0597 -0.1969  0.2730
  751MOL0     C 1255   7.745   8.742   5.087 -0.4786  0.1008  0.0073
  751MOL0     C 1256   7.866   8.675   5.051  0.3432 -0.4377 -0.2019
  751MOL0     C 1257   7.876   8.536   5.076  0.5218  0.2211  0.6361
  751MOL0     O 1258   7.984   8.459   5.030 -0.4977  0.0886 -0.0037
  751MOL0     C 1259   8.100   8.537   4.994  0.8131 -0.0665 -0.1793
  751MOL0     C 1260   8.208   8.444   4.950  0.1953  0.9456  0.4880
  751MOL0     C 1261   8.321   8.510   4.878  0.3605  0.2755  0.7249
  751MOL0     C 1262   8.388   8.419   4.766  0.3231  0.2579 -0.6521
  751MOL0     C 1263   8.502   8.347   4.841 -0.7700  0.1844 -0.1927
  751MOL0     C 1264   8.605   8.276   4.747  0.1045  0.0847  0.4941
  751MOL0     C 1265   8.521   8.180   4.647  0.3139 -0.0187 -1.0381
  751MOL0     C 1266   8.605   8.081   4.567 -0.6804  0.1370 -0.0266
  751MOL0     N 1267   8.671   7.979   4.646  0.1999  0.2211 -0.4936
  751MOL0     C 1268   8.777   7.994   4.730  0.1266  0.1292 -0.3293
  751MOL0     C 1269   8.803   7.865   4.770  0.6711 -0.4492 -0.3717
  751MOL0     C 1270   8.911   7.819   4.863  0.2164 -0.3668  0.0594
  751MOL0     C 1271   9.050   7.834   4.811  0.0330 -0.1685 -0.4524
  751MOL0     C 1272   9.151   7.783   4.909 -0.7460  0.6091  0.0744
  751MOL0     C 1273   9.176   7.863   5.046 -0.4565 -0.4844 -0.8765
  751MOL0     O 1274   9.164   8.002   5.031 -0.8566  0.4340 -0.5932
  751MOL0     C 1275   9.278   8.074   5.012  0.5020 -0.3950  0.4548
  751MOL0     C 1276   9.270   8.210   5.055 -0.5661 -0.2145  0.1105
  751MOL0     C 1277   9.376   8.297   5.029  0.1321 -0.1724  0.3342
  751MOL0     C 1278   9.497   8.252   4.969 -0.5208  0.3272 -0.5726
  751MOL0     C 1279   9.609   8.347   4.941  0.6312 -0.0815 -0.4627
  751MOL0     O 1280   9.720   8.288   4.890 -0.0322  0.3242  0.3932
  751MOL0     C 1281   9.822   8.361   4.834 -0.3255 -0.5239  0.4363
  751MOL0     C 1282   9.955   8.312   4.841 -0.2303  0.2924 -0.0680
  751MOL0     C 1283  10.050   8.376   4.771 -0.1196 -0.2334 -0.2091
  751MOL0     C 1284  10.024   8.478   4.675 -0.7312  0.3048 -0.3818
  751MOL0     O 1285  10.140   8.520   4.604  0.3711  0.0098 -0.1527
  751MOL0     C 1286  10.112   8.622   4.505 -0.4826 -0.0787 -0.2538
  751MOL0     C 1287  10.238   8.653   4.424  0.0742 -1.1295 -0.0340
  751MOL0     C 1288  10.293   8.547   4.328 -0.2356  0.0293 -0.0524
  751MOL0     C 1289  10.436   8.579   4.306  0.4432  0.5486 -0.6476
  751MOL0     C 1290  10.493   8.489   4.203  0.5666  0.6197  0.1648
  751MOL0     C 1291  10.622   8.551   4.156  0.1797 -0.7374  0.3427
  751MOL0     C 1292  10.722   8.552   4.268  0.8700  0.3677 -0.7283
  751MOL0     C 1293  10.867   8.579   4.228  0.0947 -0.4924 -0.2469
  751MOL0    Cl 1294  10.872   8.728   4.128  0.0770 -0.0168 -0.3082
  751MOL0     C 1295   9.900   8.532   4.673 -0.1970 -0.1347  0.4803
  751MOL0     C 1296   9.802   8.470   4.748 -0.0573 -0.2833 -0.1195
  751MOL0     O 1297   9.595   8.465   4.945  0.2105  0.2307  0.0440
  751MOL0     C 1298   9.503   8.120   4.928  0.6367  0.6711 -0.4430
  751MOL0     C 1299   9.396   8.030   4.952  0.5529 -0.6208  0.0077
  751MOL0     N 1300   8.705   7.776   4.713 -0.9226  0.1444 -0.6522
  751MOL0     N 1301   8.638   7.850   4.633  0.2689 -0.5788  0.0194
  751MOL0     C 1302   7.770   8.471   5.128 -0.2500  0.2133 -0.2050
  751MOL0     C 1303   7.643   8.529   5.142 -0.2371 -0.2686  0.0595
  751MOL0     C 1304   7.309   8.751   5.257  0.5917  0.0654 -0.3644
  751MOL0     C 1305   7.246   8.787   5.137  0.0895 -0.1819 -0.1774
  751MOL0     C 1306   7.104   8.797   5.125 -0.4787  0.0443  0.1999
  751MOL0     C 1307   7.024   8.790   5.241 -0.2860 -0.0239 -0.2643
  751MOL0     O 1308   6.880   8.811   5.253  0.2698  0.1477  0.1315
  751MOL0     C 1309   6.806   8.840   5.137  0.5853  0.4408 -0.4032
  751MOL0     C 1310   6.663   8.874   5.167  0.3204 -0.5291  0.8320
  751MOL0     C 1311   6.575   8.892   5.039  0.0511 -0.1040 -0.0626
  751MOL0     C 1312   6.432   8.944   5.088 -0.4282 -0.0256  0.9269
  751MOL0     C 1313   6.352   8.967   4.973  0.4676  0.4507 -0.7282
  751MOL0     C 1314   6.274   9.000   4.891 -0.7427  0.1700 -0.3468
  751MOL0     C 1315   7.093   8.763   5.368  0.3874 -0.2466 -0.2792
  751MOL0     C 1316   7.231   8.735   5.375  0.0315  0.3144 -0.2277
  751MOL0     C 1317   7.281   8.684   5.511 -0.3561 -0.1887  0.0325
  751MOL0     H 1318   7.729   8.848   5.073 -1.7428 -0.2070 -1.0378
  751MOL0     H 1319   7.935   8.745   5.004  0.2195  0.5793  1.0574
  751MOL0     H 1320   8.074   8.601   4.909 -2.2929 -1.4976 -0.4188
  751MOL0     H 1321   8.122   8.599   5.082 -0.6633 -1.8641  1.5231
  751MOL0     H 1322   8.158   8.365   4.895 -2.0766  1.9404  0.9971
  751MOL0     H 1323   8.247   8.406   5.045  0.1982 -1.5663 -0.4566
  751MOL0     H 1324   8.392   8.538   4.956 -2.0626  1.3744  2.7066
  751MOL0     H 1325   8.281   8.604   4.837 -0.6174 -0.2165  0.5093
  751MOL0     H 1326   8.313   8.354   4.721 -0.3615  0.5644  0.0231
  751MOL0     H 1327   8.437   8.478   4.688  2.2348 -0.1411  0.1746
  751MOL0     H 1328   8.558   8.424   4.895  1.4289  1.8701 -4.4024
  751MOL0     H 1329   8.459   8.274   4.910 -2.4159  1.7662  0.5293
  751MOL0     H 1330   8.662   8.339   4.678  1.1982 -1.8368 -0.4579
  751MOL0     H 1331   8.673   8.216   4.809 -1.6878 -1.7943  0.7325
  751MOL0     H 1332   8.460   8.237   4.577  0.4013 -0.3602 -1.3938
  751MOL0     H 1333   8.457   8.116   4.710  0.4425  2.6671  2.0898
  751MOL0     H 1334   8.536   8.027   4.502 -0.5623 -0.1129  0.0537
  751MOL0     H 1335   8.670   8.142   4.504 -0.7875  1.6571  1.2609
  751MOL0     H 1336   8.834   8.077   4.771 -1.6874  0.4567  1.6986
  751MOL0     H 1337   8.898   7.879   4.953 -1.7465  2.3953 -1.9113
  751MOL0     H 1338   8.896   7.711   4.880 -0.4036 -0.1056  1.3357
  751MOL0     H 1339   9.053   7.778   4.718  1.2500 -1.1244  0.1330
  751MOL0     H 1340   9.063   7.942   4.798  2.0005  0.2874  3.5719
  751MOL0     H 1341   9.240   7.770   4.847 -2.3237 -3.6063 -1.7018
  751MOL0     H 1342   9.121   7.680   4.928  0.4236  0.2974  0.2918
  751MOL0     H 1343   9.271   7.826   5.085 -1.2544 -3.5652 -1.5679
  751MOL0     H 1344   9.096   7.824   5.109 -1.5240 -0.8006 -2.3773
  751MOL0     H 1345   9.180   8.247   5.103 -0.8838  2.9165 -2.5131
  751MOL0     H 1346   9.352   8.397   5.063  2.6418 -0.0649  2.0902
  751MOL0     H 1347   9.972   8.220   4.896 -1.3135 -1.4270 -2.4153
  751MOL0     H 1348  10.155   8.350   4.769 -0.1713 -0.4865  0.2708
  751MOL0     H 1349  10.021   8.601   4.449 -2.6872 -0.8155  3.3138
  751MOL0     H 1350  10.094   8.714   4.561  1.1495  0.5294 -0.6556
  751MOL0     H 1351  10.203   8.738   4.365  0.5619 -0.5571  0.4909
  751MOL0     H 1352  10.318   8.684   4.491  1.3741 -0.7199 -1.6957
  751MOL0     H 1353  10.274   8.448   4.369  2.0021 -0.4583 -0.0317
  751MOL0     H 1354  10.245   8.545   4.230  0.7049  2.5028 -0.6415
  751MOL0     H 1355  10.481   8.567   4.405 -2.3594  1.4266  0.8512
  751MOL0     H 1356  10.444   8.679   4.263  4.0237  0.7046  0.0354
  751MOL0     H 1357  10.422   8.490   4.119 -2.6069  1.4448  2.6538
  751MOL0     H 1358  10.502   8.386   4.237  0.1451 -0.2062 -2.0482
  751MOL0     H 1359  10.664   8.498   4.070 -0.8599 -2.8513  1.0595
  751MOL0     H 1360  10.614   8.656   4.128  1.1267 -0.9995 -1.0228
  751MOL0     H 1361  10.711   8.451   4.309  2.3321  1.0117  1.4547
  751MOL0     H 1362  10.689   8.624   4.344 -1.7217  0.8243 -2.1712
  751MOL0     H 1363  10.932   8.585   4.315 -0.6901  2.0937  0.2542
  751MOL0     H 1364  10.905   8.495   4.169  4.0499  0.4341  0.7048
  751MOL0     H 1365   9.871   8.611   4.605  1.2978 -0.7664 -0.9557
  751MOL0     H 1366   9.702   8.514   4.746 -0.1979 -0.5238  0.9551
  751MOL0     H 1367   9.586   8.062   4.887 -1.2383 -2.9837  0.5396
  751MOL0     H 1368   9.425   7.928   4.926  3.2369 -0.5240  2.1478
  751MOL0     H 1369   7.779   8.364   5.114  0.8046  0.4998 -1.8966
  751MOL0     H 1370   7.560   8.463   5.163  0.2580 -1.0956 -0.5102
  751MOL0     H 1371   7.311   8.807   5.053 -0.5926  0.1038 -0.6471
  751MOL0     H 1372   7.056   8.811   5.029 -0.4611  1.4367  0.3686
  751MOL0     H 1373   6.815   8.757   5.065 -1.5477 -0.6954  0.5622
  751MOL0     H 1374   6.841   8.923   5.075 -1.6350  2.2106  0.6181
  751MOL0     H 1375   6.657   8.970   5.218 -2.9816 -0.4061  0.4446
  751MOL0     H 1376   6.626   8.790   5.227 -0.6695 -1.0073 -0.3945
  751MOL0     H 1377   6.556   8.797   4.989  0.8004 -0.2769 -0.0204
  751MOL0     H 1378   6.620   8.966   4.973 -0.2033 -1.2806 -1.5979
  751MOL0     H 1379   6.392   8.876   5.163  0.1304 -0.0564  1.2056
  751MOL0     H 1380   6.448   9.043   5.133  0.0580  0.3729 -0.0953
  751MOL0     H 1381   6.216   9.053   4.818 -0.4521 -0.7479 -1.2789
  751MOL0     H 1382   7.033   8.768   5.459  0.8847 -0.4554  0.0631
  751MOL0     H 1383   7.363   8.612   5.499  1.0459  1.0169  1.8331
  751MOL0     H 1384   7.321   8.771   5.563 -0.0188 -0.3821  0.1022
  751MOL0     H 1385   7.214   8.623   5.572  1.6326 -2.9762 -0.3527
  752MOL0     O 1386   4.048   9.927   4.219  0.1529  0.4223 -0.4891
  752MOL0     C 1387   4.006  10.033   4.184  0.8928  0.5369 -0.1285
  752MOL0     O 1388   4.086  10.123   4.123 -0.7557  0.2549  0.2594
  752MOL0     C 1389   4.226  10.105   4.106  0.0366 -0.6939  0.0086
  752MOL0     C 1390   4.310  10.085   4.215 -0.8598 -0.6480 -0.2764
  752MOL0     C 1391   4.450  10.087   4.198 -0.4600 -0.0855 -0.4591
  752MOL0     C 1392   4.505  10.095   4.065 -0.1360  0.0375 -1.1205
  752MOL0     O 1393   4.641  10.095   4.037  0.4984 -0.8032  0.0583
  752MOL0     C 1394   4.742  10.075   4.136  0.0500 -0.0786 -0.0936
  752MOL0     C 1395   4.875  10.102   4.075 -0.6609  0.4170  0.0816
  752MOL0     C 1396   4.937   9.979   3.990 -0.2934  0.9229  0.6816
  752MOL0     C 1397   4.949   9.850   4.076  0.0335 -0.1766 -0.1298
  752MOL0     C 1398   5.053   9.752   4.009  0.3149 -0.3175  0.6434
  752MOL0     C 1399   5.069   9.618   4.085  0.1009  1.3410  0.6149
  752MOL0     C 1400   5.205   9.540   4.068 -0.2650 -0.5978 -0.0452
  752MOL0     C 1401   5.224   9.497   3.921  0.0248 -0.2475 -0.3770
  752MOL0     N 1402   5.355   9.420   3.902 -0.4253  0.0200 -1.1680
  752MOL0     C 1403   5.477   9.469   3.853  0.0971 -0.5135  0.3894
  752MOL0     C 1404   5.562   9.359   3.855  0.4140  0.4153  0.8777
  752MOL0     C 1405   5.698   9.345   3.801  0.2293  0.7433  0.5873
  752MOL0     C 1406   5.782   9.250   3.884  0.2437 -0.9921 -0.2235
  752MOL0     C 1407   5.921   9.234   3.824 -0.1352 -0.5542 -0.4136
  752MOL0     C 1408   6.008   9.364   3.860  0.0067  0.1121 -0.6551
  752MOL0     O 1409   6.025   9.381   4.003  0.2786  0.1643  0.5612
  752MOL0     C 1410   6.155   9.353   4.052 -0.6231  0.4501  0.7574
  752MOL0     C 1411   6.198   9.409   4.174 -0.2435 -0.4601 -0.0593
  752MOL0     C 1412   6.331   9.390   4.228 -0.6224 -0.0051 -0.2322
  752MOL0     C 1413   6.421   9.312   4.163  0.5228  0.0554  0.0253
  752MOL0     C 1414   6.563   9.301   4.200  0.3909 -0.2259 -0.3421
  752MOL0     O 1415   6.602   9.359   4.321 -0.8638  0.3164 -0.3447
  752MOL0     C 1416   6.734   9.344   4.348  0.1131 -0.0392  0.1705
  752MOL0     C 1417   6.770   9.265   4.456  0.6738 -0.8378 -0.0933
  752MOL0     C 1418   6.912   9.248   4.470 -0.8115  0.5466 -0.0505
  752MOL0     C 1419   7.010   9.316   4.399  0.4683  0.4686 -0.2841
  752MOL0     O 1420   7.141   9.267   4.417 -0.5145  0.3574  0.0025
  752MOL0     C 1421   7.244   9.335   4.354  0.8080 -0.3523 -0.1297
  752MOL0     C 1422   7.383   9.285   4.407 -0.5066 -0.6556  1.1296
  752MOL0     C 1423   7.497   9.366   4.329 -0.4410  0.0486 -1.0670
  752MOL0     C 1424   7.626   9.293   4.308  0.5038  0.0485  0.1235
  752MOL0     C 1425   7.670   9.232   4.446  0.2235 -0.2613  0.6382
  752MOL0     C 1426   7.816   9.242   4.471 -0.3923 -0.2090  0.2404
  752MOL0     C 1427   7.904   9.154   4.379  0.1824  0.0683 -0.2020
  752MOL0     C 1428   8.052   9.171   4.417 -0.7731  0.2093 -0.1746
  752MOL0    Cl 1429   8.116   9.312   4.345 -0.3886 -0.2597  0.0440
  752MOL0     C 1430   6.971   9.401   4.301 -0.0224 -0.2179 -0.0792
  752MOL0     C 1431   6.835   9.414   4.276 -0.2953 -0.1774  0.0119
  752MOL0     O 1432   6.643   9.251   4.115 -0.7540 -0.2416  0.1489
  752MOL0     C 1433   6.373   9.239   4.048  0.6399  0.2482 -0.1226
  752MOL0     C 1434   6.249   9.260   3.996  1.1864 -0.2154  0.0912
  752MOL0     N 1435   5.491   9.256   3.897 -0.0615  0.5491 -0.2510
  752MOL0     N 1436   5.367   9.287   3.923 -0.4624 -0.0031  1.1776
  752MOL0     C 1437   4.416  10.124   3.960  0.3973  0.5840 -0.3729
  752MOL0     C 1438   4.279  10.124   3.983 -0.2922  0.2055  0.1808
  752MOL0     C 1439   3.864  10.070   4.183 -0.1395 -0.3109  0.4316
  752MOL0     C 1440   3.837  10.214   4.177 -0.3131  0.1019 -0.6695
  752MOL0     C 1441   3.698  10.250   4.178 -0.1224  0.1571  0.1813
  752MOL0     C 1442   3.596  10.163   4.200 -0.3682 -0.2573 -1.1608
  752MOL0     O 1443   3.466  10.206   4.209 -0.6433 -0.7594  0.0676
  752MOL0     C 1444   3.359  10.136   4.282  0.1802  0.2927  0.2079
  752MOL0     C 1445   3.266  10.055   4.201 -0.5187  0.2222  0.7169
  752MOL0     C 1446   3.128  10.032   4.250 -0.0431  0.2569  0.3445
  752MOL0     C 1447   3.067   9.902   4.191  0.3263 -0.6160 -0.4052
  752MOL0     C 1448   2.924   9.916   4.219  0.5183  0.0177  0.5599
  752MOL0     C 1449   2.805   9.921   4.242 -0.2572  0.0735  0.0893
  752MOL0     C 1450   3.629  10.031   4.201  0.1065 -0.0314  0.0327
  752MOL0     C 1451   3.759   9.982   4.188  0.7076  0.9324 -0.5665
  752MOL0     C 1452   3.777   9.826   4.205 -0.6441 -1.2298  0.4953
  752MOL0     H 1453   4.276  10.097   4.318 -0.6965  0.7260 -0.3617
  752MOL0     H 1454   4.506  10.088   4.291  0.2113  2.2378 -0.8196
  752MOL0     H 1455   4.717  10.146   4.215 -3.3851  0.9499 -1.9232
  752MOL0     H 1456   4.742   9.976   4.183  2.3919  1.0836  2.6821
  752MOL0     H 1457   4.943  10.119   4.159  1.3869 -0.2131 -1.3666
  752MOL0     H 1458   4.862  10.197   4.021  1.2975  1.3251  1.0783
  752MOL0     H 1459   5.032  10.011   3.947 -1.1919 -0.4741 -2.5896
  752MOL0     H 1460   4.870   9.952   3.908  0.1317 -1.4424  1.0533
  752MOL0     H 1461   4.981   9.869   4.179 -0.6695 -0.2072  0.1006
  752MOL0     H 1462   4.848   9.808   4.078  0.1989 -0.7426  3.4063
  752MOL0     H 1463   5.008   9.726   3.913 -0.9669 -0.1635  1.1697
  752MOL0     H 1464   5.149   9.802   3.993  0.9494 -2.4793 -3.8193
  752MOL0     H 1465   5.062   9.642   4.192 -0.0323 -2.7143  1.6970
  752MOL0     H 1466   4.986   9.551   4.064  1.3895 -0.9559  2.3821
  752MOL0     H 1467   5.195   9.450   4.130  0.2548 -0.6629 -0.0543
  752MOL0     H 1468   5.289   9.601   4.101  2.3120 -3.4522 -0.8094
  752MOL0     H 1469   5.137   9.435   3.896 -1.4454  0.5958  2.2122
  752MOL0     H 1470   5.229   9.584   3.854  0.5682  0.4737  0.5754
  752MOL0     H 1471   5.515   9.563   3.814 -0.4850 -0.4026  0.0904
  752MOL0     H 1472   5.690   9.305   3.700  1.5451 -2.0348  1.4970
  752MOL0     H 1473   5.742   9.445   3.811  3.2627 -0.5770  1.6200
  752MOL0     H 1474   5.788   9.286   3.987  0.1345  0.3627 -0.6749
  752MOL0     H 1475   5.730   9.154   3.874 -0.8513 -0.3404 -1.0078
  752MOL0     H 1476   5.925   9.219   3.716 -0.9867  1.6964 -0.8150
  752MOL0     H 1477   5.955   9.137   3.863 -0.6754 -1.4013 -1.9753
  752MOL0     H 1478   5.971   9.457   3.815  2.0440  0.5493 -1.5609
  752MOL0     H 1479   6.106   9.350   3.813  0.7567 -1.8629  1.3172
  752MOL0     H 1480   6.138   9.482   4.227  0.3687 -0.1698  0.2395
  752MOL0     H 1481   6.357   9.445   4.319 -3.0249  1.6811 -0.4665
  752MOL0     H 1482   6.697   9.210   4.514 -0.0695 -0.1331 -0.3399
  752MOL0     H 1483   6.944   9.164   4.532 -1.6332 -0.4905 -0.9844
  752MOL0     H 1484   7.238   9.316   4.247 -0.3183 -1.1323  0.0592
  752MOL0     H 1485   7.236   9.440   4.381 -0.1742 -0.5595  0.4192
  752MOL0     H 1486   7.387   9.293   4.516  0.3959  2.9107  0.9551
  752MOL0     H 1487   7.392   9.181   4.376  0.0368  0.1634 -1.6544
  752MOL0     H 1488   7.462   9.389   4.228  1.6956 -1.4966 -2.2551
  752MOL0     H 1489   7.524   9.458   4.382  2.2613 -1.3349  0.1964
  752MOL0     H 1490   7.711   9.341   4.258  0.6305  1.0025  1.2169
  752MOL0     H 1491   7.597   9.211   4.242  0.1889  1.2043 -1.2224
  752MOL0     H 1492   7.646   9.125   4.450  0.9396 -0.5964 -2.2378
  752MOL0     H 1493   7.630   9.284   4.534 -2.0933 -2.9397  1.3519
  752MOL0     H 1494   7.850   9.345   4.453 -1.3878  0.0841 -0.0453
  752MOL0     H 1495   7.842   9.232   4.577 -1.4462  2.6309  0.8723
  752MOL0     H 1496   7.901   9.199   4.280  0.9581 -0.0932 -0.3086
  752MOL0     H 1497   7.871   9.050   4.372 -0.8260  0.0492  3.1114
  752MOL0     H 1498   8.073   9.172   4.524 -0.7028  3.4420 -0.1390
  752MOL0     H 1499   8.110   9.090   4.370 -2.4258 -0.7558 -0.6409
  752MOL0     H 1500   7.047   9.447   4.238 -0.3932 -0.0552 -0.4143
  752MOL0     H 1501   6.797   9.481   4.199 -0.7006  0.4831  0.7773
  752MOL0     H 1502   6.432   9.156   4.011 -0.2741 -1.0315  1.1753
  752MOL0     H 1503   6.231   9.199   3.908  0.7777  1.0138 -0.7081
  752MOL0     H 1504   4.456  10.144   3.862 -0.8154 -1.7409 -1.4055
  752MOL0     H 1505   4.213  10.145   3.899 -0.5238  2.2893  0.8134
  752MOL0     H 1506   3.920  10.282   4.161  2.4130 -3.4062 -3.0100
  752MOL0     H 1507   3.678  10.357   4.169  2.5725  0.7239 -0.0840
  752MOL0     H 1508   3.309  10.215   4.339 -0.2384 -0.1829  0.5068
  752MOL0     H 1509   3.397  10.072   4.363 -2.6318 -2.5331 -0.4970
  752MOL0     H 1510   3.315   9.958   4.203  1.8693  1.3706  1.5210
  752MOL0     H 1511   3.262  10.099   4.101  0.8944  0.1372  0.6057
  752MOL0     H 1512   3.068  10.123   4.240 -1.4228 -0.7487 -0.8332
  752MOL0     H 1513   3.134  10.012   4.358 -0.6156 -1.1314  0.1409
  752MOL0     H 1514   3.064   9.894   4.082 -2.3117 -2.5872 -0.2790
  752MOL0     H 1515   3.101   9.814   4.244  0.2287 -1.0515 -1.0470
  752MOL0     H 1516   2.701   9.912   4.267 -0.4444 -1.3163 -1.0330
  752MOL0     H 1517   3.545   9.968   4.230 -0.8471  1.0001 -0.4149
  752MOL0     H 1518   3.681   9.774   4.212 -0.6471 -1.0937  1.8432
  752MOL0     H 1519   3.838   9.795   4.120  1.7808  2.2210  0.7463
  752MOL0     H 1520   3.826   9.809   4.302 -0.7650 -0.6844  0.6573
  753MOL0     O 1521   0.551  11.170   2.420 -0.0096 -0.1478  0.0733
  753MOL0     C 1522   0.549  11.134   2.534  0.1617  0.0368 -0.4548
  753MOL0     O 1523   0.659  11.081   2.601 -0.5877 -0.4495 -0.0886
  753MOL0     C 1524   0.780  11.063   2.529 -0.3372  0.7924  0.2270
  753MOL0     C 1525   0.838  11.151   2.436  0.2996 -0.5537 -0.0170
  753MOL0     C 1526   0.955  11.129   2.374  0.0108  0.1150 -1.0475
  753MOL0     C 1527   1.011  11.003   2.381  0.0538  0.5117  0.8735
  753MOL0     O 1528   1.125  10.987   2.308 -0.0855 -0.3014  0.2454
  753MOL0     C 1529   1.246  10.953   2.378 -0.0210 -0.6518  1.1252
  753MOL0     C 1530   1.355  11.035   2.305 -0.0901 -0.3717  0.4642
  753MOL0     C 1531   1.491  10.989   2.352  0.5141  0.5094 -0.2752
  753MOL0     C 1532   1.596  11.078   2.279 -0.4935 -0.2271 -0.0463
  753MOL0     C 1533   1.738  11.029   2.326  0.0765  0.2930  0.7193
  753MOL0     C 1534   1.836  11.123   2.262  0.3301 -0.0800  0.4850
  753MOL0     C 1535   1.978  11.105   2.317 -0.2167  0.1942 -0.2711
  753MOL0     C 1536   2.049  11.000   2.230  0.7425 -0.4505 -0.5857
  753MOL0     N 1537   2.175  10.959   2.297  0.2530  0.0200  0.0580
  753MOL0     C 1538   2.296  10.950   2.235 -0.0789  0.0910 -0.5350
  753MOL0     C 1539   2.377  10.876   2.317  0.1962  0.7458  0.3852
  753MOL0     C 1540   2.520  10.831   2.284  0.8128  0.1864  0.3872
  753MOL0     C 1541   2.631  10.909   2.361  0.8861 -0.0190  0.4701
  753MOL0     C 1542   2.618  11.065   2.367  0.3139  0.4697 -0.1572
  753MOL0     C 1543   2.603  11.135   2.227 -0.2327  0.4262 -0.7085
  753MOL0     O 1544   2.713  11.116   2.135 -0.0009  0.2447 -0.2966
  753MOL0     C 1545   2.840  11.154   2.171 -0.2392  0.6071 -0.3503
  753MOL0     C 1546   2.942  11.090   2.111 -0.5491 -0.1045 -0.8344
  753MOL0     C 1547   3.073  11.113   2.142  0.8604  0.2368 -0.1670
  753MOL0     C 1548   3.107  11.216   2.233  0.9920  0.2935  0.1290
  753MOL0     C 1549   3.247  11.256   2.272  0.4969  0.4145 -0.3775
  753MOL0     O 1550   3.261  11.357   2.362  0.5366 -0.2557 -0.0561
  753MOL0     C 1551   3.385  11.396   2.395 -0.9893 -0.8669 -0.1133
  753MOL0     C 1552   3.404  11.413   2.534 -0.3748  0.2608  0.4354
  753MOL0     C 1553   3.517  11.470   2.581 -0.4462  0.1014 -0.8396
  753MOL0     C 1554   3.628  11.498   2.502  0.1141  0.3227  0.1736
  753MOL0     O 1555   3.741  11.535   2.564  0.0443  0.8598  0.6570
  753MOL0     C 1556   3.839  11.596   2.487 -0.3741 -0.7497 -0.6431
  753MOL0     C 1557   3.920  11.672   2.591  0.3438 -0.2093 -0.7134
  753MOL0     C 1558   4.040  11.736   2.521 -0.2651  0.4100  0.1036
  753MOL0     C 1559   4.124  11.804   2.640 -0.2857  1.4617  0.4968
  753MOL0     C 1560   4.234  11.901   2.587  0.1694  0.3504  0.2266
  753MOL0     C 1561   4.348  11.821   2.506 -0.4963 -0.5589  0.5960
  753MOL0     C 1562   4.438  11.918   2.439 -0.8917 -0.7213  0.2777
  753MOL0     C 1563   4.581  11.856   2.420 -0.0618 -1.0519 -0.3254
  753MOL0    Cl 1564   4.639  11.827   2.581  0.1275  0.3152 -0.2731
  753MOL0     C 1565   3.612  11.480   2.359  0.0690  0.5905 -0.3067
  753MOL0     C 1566   3.492  11.432   2.302  0.9010  0.1898 -0.5734
  753MOL0     O 1567   3.332  11.186   2.223 -0.2435 -0.1144 -0.9550
  753MOL0     C 1568   2.998  11.288   2.295 -0.1510  0.1625  0.0140
  753MOL0     C 1569   2.867  11.252   2.264 -0.4246 -0.4613 -0.5445
  753MOL0     N 1570   2.294  10.848   2.423  0.0345  0.2722  0.8232
  753MOL0     N 1571   2.179  10.901   2.415 -0.1125  0.1782  0.7874
  753MOL0     C 1572   0.960  10.907   2.465 -0.3775  0.3159 -1.0400
  753MOL0     C 1573   0.846  10.937   2.536  0.4076  0.2760 -0.2656
  753MOL0     C 1574   0.427  11.161   2.613 -0.5310 -0.6090  0.0069
  753MOL0     C 1575   0.318  11.225   2.555 -0.1072 -1.2480 -0.2084
  753MOL0     C 1576   0.201  11.269   2.630 -0.2909 -0.0246  0.4707
  753MOL0     C 1577   0.190  11.235   2.767 -0.2882  0.0738  0.5837
  753MOL0     O 1578   0.081  11.268   2.837 -0.0323  0.2701  0.7151
  753MOL0     C 1579   0.060  11.244   2.977  0.0532 -0.1359 -0.3396
  753MOL0     C 1580  -0.078  11.297   3.021  0.8001  0.0793 -0.6241
  753MOL0     C 1581  -0.197  11.239   2.937 -0.3611 -0.4434 -0.1285
  753MOL0     C 1582  -0.335  11.274   2.999  0.0481  0.6210  0.2903
  753MOL0     C 1583  -0.348  11.211   3.130 -0.5693 -0.8457  0.1313
  753MOL0     C 1584  -0.371  11.148   3.232 -0.0051 -0.0552  0.4988
  753MOL0     C 1585   0.294  11.165   2.828 -0.0260 -0.6614 -0.6421
  753MOL0     C 1586   0.414  11.134   2.758  0.2826 -0.4169  0.0826
  753MOL0     C 1587   0.516  11.058   2.841  0.2376 -0.6409 -1.0070
  753MOL0     H 1588   0.800  11.252   2.419 -0.8487 -1.0146 -0.2662
  753MOL0     H 1589   1.004  11.212   2.324 -0.2819  0.6261 -0.4894
  753MOL0     H 1590   1.240  10.994   2.480 -1.1475  0.9907  0.4479
  753MOL0     H 1591   1.267  10.846   2.380  0.1958 -0.6115  1.0096
  753MOL0     H 1592   1.357  11.139   2.338  2.0859 -1.3043  3.8931
  753MOL0     H 1593   1.336  11.028   2.198  2.3305 -0.8931  0.0057
  753MOL0     H 1594   1.509  10.884   2.328 -0.4266  0.3942 -0.5216
  753MOL0     H 1595   1.504  11.014   2.457  1.2067  3.7171 -1.0129
  753MOL0     H 1596   1.580  11.068   2.171  0.9054  2.0969 -0.5489
  753MOL0     H 1597   1.586  11.186   2.290  0.7812 -0.0232 -0.7492
  753MOL0     H 1598   1.744  11.035   2.435  0.2258  0.1728  0.7189
  753MOL0     H 1599   1.750  10.928   2.285 -0.1823  0.9657 -1.1291
  753MOL0     H 1600   1.833  11.099   2.155  0.9952  1.2037  0.1660
  753MOL0     H 1601   1.811  11.226   2.288 -1.5459 -0.3446 -0.0770
  753MOL0     H 1602   1.969  11.079   2.422  0.1434  2.7707  0.4710
  753MOL0     H 1603   2.043  11.191   2.302  0.3045 -0.0436  0.6179
  753MOL0     H 1604   1.976  10.920   2.214 -1.2624  1.0971  0.3087
  753MOL0     H 1605   2.070  11.043   2.132 -2.8606 -0.5944 -1.5655
  753MOL0     H 1606   2.314  10.971   2.131 -1.3324 -2.4804 -1.3741
  753MOL0     H 1607   2.528  10.726   2.312 -0.1316  0.6636  2.7356
  753MOL0     H 1608   2.525  10.847   2.176  0.2903  2.1532  0.6196
  753MOL0     H 1609   2.633  10.859   2.458 -1.1427  0.0645  0.6048
  753MOL0     H 1610   2.722  10.883   2.307  0.6413 -1.3002  0.6412
  753MOL0     H 1611   2.708  11.098   2.419  0.8641 -2.6179  1.0633
  753MOL0     H 1612   2.533  11.097   2.428 -2.5481  1.1184 -4.1351
  753MOL0     H 1613   2.594  11.243   2.240  2.2193  0.7366 -0.9878
  753MOL0     H 1614   2.511  11.095   2.184 -0.5977  2.6518 -2.1305
  753MOL0     H 1615   2.926  11.012   2.036  0.1064  0.7114 -1.8476
  753MOL0     H 1616   3.148  11.048   2.098 -1.2481 -1.3885 -1.5510
  753MOL0     H 1617   3.321  11.368   2.588 -1.8659  1.5222 -0.7079
  753MOL0     H 1618   3.533  11.478   2.688 -0.9542 -1.7989 -0.5706
  753MOL0     H 1619   3.905  11.522   2.439  0.0028 -1.3194  0.6909
  753MOL0     H 1620   3.799  11.668   2.415 -2.6767 -0.7178  0.5989
  753MOL0     H 1621   3.864  11.748   2.644  2.2637  1.0283 -0.3570
  753MOL0     H 1622   3.963  11.604   2.666  0.7968  0.2354 -0.5651
  753MOL0     H 1623   4.097  11.660   2.467  1.9540  1.0923  1.3537
  753MOL0     H 1624   4.008  11.810   2.446 -1.1137 -0.9399 -0.9132
  753MOL0     H 1625   4.171  11.732   2.706 -1.6906  0.6995  0.7013
  753MOL0     H 1626   4.046  11.851   2.701 -0.9449 -1.4085  1.9969
  753MOL0     H 1627   4.280  11.952   2.672 -1.7779 -0.4216  1.8234
  753MOL0     H 1628   4.187  11.977   2.523 -1.0495 -0.5033  0.0749
  753MOL0     H 1629   4.388  11.754   2.582  0.0795  0.8731  1.5742
  753MOL0     H 1630   4.295  11.768   2.426 -0.8200  1.3153 -0.4887
  753MOL0     H 1631   4.457  12.008   2.498  0.1733 -0.7556  0.0146
  753MOL0     H 1632   4.393  11.937   2.341 -0.7981  1.5278  0.6265
  753MOL0     H 1633   4.571  11.766   2.357 -0.0397 -0.6918 -0.8494
  753MOL0     H 1634   4.649  11.923   2.367 -0.5654 -0.8920 -0.7706
  753MOL0     H 1635   3.698  11.498   2.295 -0.1429 -1.0270 -1.0894
  753MOL0     H 1636   3.488  11.430   2.194 -0.8049  1.2668 -0.5552
  753MOL0     H 1637   3.024  11.372   2.358  1.6172  0.4949 -1.0665
  753MOL0     H 1638   2.785  11.303   2.313  0.1579  1.5116 -1.5190
  753MOL0     H 1639   1.000  10.807   2.476 -0.5199  0.5335  3.1152
  753MOL0     H 1640   0.800  10.864   2.602  1.3195 -1.1684 -1.1571
  753MOL0     H 1641   0.322  11.245   2.448 -1.9219 -3.1944 -0.7147
  753MOL0     H 1642   0.118  11.314   2.576 -0.4225 -0.9729 -0.1426
  753MOL0     H 1643   0.132  11.299   3.039 -0.0233 -1.0786  0.5981
  753MOL0     H 1644   0.076  11.137   2.991  2.0908  0.0873 -0.6726
  753MOL0     H 1645  -0.084  11.406   3.010 -0.5754  0.5269  2.9736
  753MOL0     H 1646  -0.091  11.269   3.126 -0.6759  3.1378  0.1327
  753MOL0     H 1647  -0.180  11.131   2.934 -0.1487 -0.3992 -0.5814
  753MOL0     H 1648  -0.202  11.277   2.835  2.2771 -3.7235 -1.6754
  753MOL0     H 1649  -0.354  11.381   3.008  0.8779  0.6290  2.9341
  753MOL0     H 1650  -0.416  11.246   2.931  1.0914 -0.1728 -0.6522
  753MOL0     H 1651  -0.412  11.084   3.308 -1.3735 -1.7810 -1.5474
  753MOL0     H 1652   0.287  11.129   2.931  0.4166  1.2487  0.1023
  753MOL0     H 1653   0.618  11.095   2.835 -0.0805  0.3436 -0.6198
  753MOL0     H 1654   0.489  11.060   2.947 -1.2764  0.7344 -1.3692
  753MOL0     H 1655   0.514  10.954   2.808  0.1734 -1.7002  2.0874
  754MOL0     O 1656   7.369   1.271   1.398 -0.2675  0.9701  0.3025
  754MOL0     C 1657   7.350   1.391   1.403 -0.2175  0.2881  0.2569
  754MOL0     O 1658   7.440   1.498   1.382  0.0587  0.3825 -0.6592
  754MOL0     C 1659   7.553   1.484   1.304 -0.0610  0.2954 -0.3363
  754MOL0     C 1660   7.549   1.410   1.180  0.4840 -0.7708  0.2532
  754MOL0     C 1661   7.651   1.418   1.092  0.2002  0.5261 -0.6010
  754MOL0     C 1662   7.766   1.502   1.115  0.3254  0.3029 -0.0232
  754MOL0     O 1663   7.879   1.495   1.036 -0.1703 -0.1076 -0.0825
  754MOL0     C 1664   7.867   1.586   0.922  0.4325  1.3817  0.1261
  754MOL0     C 1665   8.001   1.595   0.852  0.8588 -1.2349  0.0073
  754MOL0     C 1666   8.111   1.667   0.937 -0.0453 -0.0429 -0.2441
  754MOL0     C 1667   8.250   1.654   0.873 -0.4231 -0.4757 -0.4705
  754MOL0     C 1668   8.361   1.651   0.973 -0.1852 -0.0421 -0.6806
  754MOL0     C 1669   8.489   1.604   0.895  0.1407 -0.1904 -1.2766
  754MOL0     C 1670   8.624   1.604   0.970  0.0712 -0.0600  0.3232
  754MOL0     C 1671   8.675   1.742   0.999 -0.3746  0.0929 -0.9515
  754MOL0     N 1672   8.779   1.744   1.106 -0.2079 -0.6082 -0.4141
  754MOL0     C 1673   8.887   1.660   1.109 -0.1401  0.1811 -0.0445
  754MOL0     C 1674   8.954   1.704   1.211  0.8870 -0.7118 -0.1918
  754MOL0     C 1675   9.091   1.666   1.261  0.1268  0.6028  1.0392
  754MOL0     C 1676   9.186   1.783   1.262 -0.0742 -0.1592  0.0723
  754MOL0     C 1677   9.321   1.723   1.264  0.5139 -0.6534  0.6912
  754MOL0     C 1678   9.426   1.820   1.318  0.2394  0.1683 -0.4759
  754MOL0     O 1679   9.560   1.771   1.290  0.5996  0.1334 -0.1338
  754MOL0     C 1680   9.672   1.841   1.322  0.2347  0.1898 -0.0503
  754MOL0     C 1681   9.794   1.784   1.286 -0.4731  0.5181 -0.2901
  754MOL0     C 1682   9.912   1.840   1.336  0.6646 -0.2828 -0.1264
  754MOL0     C 1683   9.920   1.964   1.402 -0.4714 -0.1235  0.2311
  754MOL0     C 1684  10.053   2.023   1.437 -0.7413  0.3971 -0.3164
  754MOL0     O 1685  10.156   1.924   1.454 -0.4964 -0.6492 -0.6294
  754MOL0     C 1686  10.285   1.957   1.497  0.2031 -0.9627 -0.2848
  754MOL0     C 1687  10.377   1.857   1.518  0.1775 -0.0344  1.0329
  754MOL0     C 1688  10.507   1.880   1.564 -0.1944 -0.1415 -0.3579
  754MOL0     C 1689  10.552   2.008   1.597 -0.2199  0.7726 -0.2965
  754MOL0     O 1690  10.668   2.017   1.676 -0.5278  0.1407  0.7505
  754MOL0     C 1691  10.737   2.141   1.668 -0.6384  0.1123  0.0735
  754MOL0     C 1692  10.861   2.141   1.765  0.5333  0.4919  1.1004
  754MOL0     C 1693  10.948   2.273   1.744  0.1317 -0.7255  0.2544
  754MOL0     C 1694  11.095   2.269   1.814  0.0623 -0.2580  0.2494
  754MOL0     C 1695  11.207   2.202   1.719  0.1264  0.5001 -0.3066
  754MOL0     C 1696  11.351   2.229   1.767  0.4894  0.1677 -0.3956
  754MOL0     C 1697  11.403   2.372   1.748 -0.1626 -0.5861 -0.0130
  754MOL0     C 1698  11.556   2.373   1.751  0.4352  0.8009  1.0772
  754MOL0    Cl 1699  11.627   2.275   1.885  0.0480 -0.2197 -0.0121
  754MOL0     C 1700  10.470   2.121   1.555 -0.1282  0.1502  0.0011
  754MOL0     C 1701  10.340   2.089   1.509 -0.0108 -0.7014  0.0534
  754MOL0     O 1702  10.060   2.139   1.468  0.3045  0.0166 -0.1461
  754MOL0     C 1703   9.798   2.024   1.446 -0.3036  0.8566  0.1757
  754MOL0     C 1704   9.677   1.965   1.398 -0.0417  0.0663 -0.0923
  754MOL0     N 1705   8.884   1.806   1.278  0.3074  0.4033  0.6217
  754MOL0     N 1706   8.777   1.829   1.210  0.0630 -0.6175  0.1888
  754MOL0     C 1707   7.773   1.572   1.237 -0.1231  0.0669  0.4692
  754MOL0     C 1708   7.668   1.560   1.330  0.1326  0.6011 -0.0672
  754MOL0     C 1709   7.219   1.428   1.444  0.2375 -1.0066 -0.3253
  754MOL0     C 1710   7.209   1.544   1.522  0.2868 -0.1376  1.0686
  754MOL0     C 1711   7.091   1.586   1.567  0.4196  0.1003 -0.1282
  754MOL0     C 1712   6.963   1.527   1.552 -0.1036 -0.1444  0.2860
  754MOL0     O 1713   6.858   1.578   1.621  0.3175 -0.1054 -0.2253
  754MOL0     C 1714   6.741   1.500   1.639 -0.0866  0.2394 -0.6488
  754MOL0     C 1715   6.636   1.580   1.719 -1.0110  0.3646 -0.4479
  754MOL0     C 1716   6.655   1.581   1.868 -0.1160  0.0314  0.3362
  754MOL0     C 1717   6.527   1.621   1.949  0.0019 -0.5064 -0.0815
  754MOL0     C 1718   6.434   1.513   1.949  0.0754 -0.4072  0.5511
  754MOL0     C 1719   6.361   1.417   1.958  0.6157 -0.3594  0.8404
  754MOL0     C 1720   6.970   1.406   1.468  0.0438 -0.4242  0.5420
  754MOL0     C 1721   7.095   1.356   1.423  0.7949 -0.9414 -0.3358
  754MOL0     C 1722   7.083   1.225   1.346  1.0708 -0.1742 -0.3899
  754MOL0     H 1723   7.462   1.363   1.135  1.7026 -1.1432 -1.8376
  754MOL0     H 1724   7.649   1.356   1.003  1.6063 -2.6662  1.4327
  754MOL0     H 1725   7.795   1.527   0.863  2.0647 -1.2185  0.5578
  754MOL0     H 1726   7.827   1.685   0.944  1.0888  1.9301 -1.0681
  754MOL0     H 1727   7.984   1.658   0.764 -0.9976 -1.1079  0.4249
  754MOL0     H 1728   8.035   1.495   0.826  1.1524 -1.0286 -0.4308
  754MOL0     H 1729   8.114   1.638   1.042  0.5268  1.7650  0.2779
  754MOL0     H 1730   8.085   1.773   0.927 -0.5483 -0.0509  0.8588
  754MOL0     H 1731   8.253   1.566   0.809 -0.7764 -1.1991  0.4833
  754MOL0     H 1732   8.257   1.732   0.797 -0.6947 -1.9799 -2.1097
  754MOL0     H 1733   8.377   1.749   1.019 -2.6342 -0.7407  1.8982
  754MOL0     H 1734   8.342   1.579   1.053 -0.3356  0.9405  0.1816
  754MOL0     H 1735   8.477   1.501   0.858 -0.6183  0.0975 -1.8571
  754MOL0     H 1736   8.498   1.671   0.809  0.8257 -1.7266 -2.4427
  754MOL0     H 1737   8.702   1.558   0.908  0.1043  0.0476  0.2848
  754MOL0     H 1738   8.606   1.542   1.058 -0.7828  0.0515  0.2348
  754MOL0     H 1739   8.712   1.795   0.910  3.7219 -1.9963 -0.7545
  754MOL0     H 1740   8.589   1.797   1.037  2.0205  2.1348  2.0902
  754MOL0     H 1741   8.916   1.584   1.036  0.4315  0.4036 -0.0566
  754MOL0     H 1742   9.101   1.625   1.362  2.8805 -0.4058  0.4576
  754MOL0     H 1743   9.129   1.583   1.200  0.9686 -0.7240  3.2369
  754MOL0     H 1744   9.175   1.844   1.172 -0.3274  0.9509  0.8358
  754MOL0     H 1745   9.170   1.853   1.345  0.8912 -0.0565  0.1832
  754MOL0     H 1746   9.343   1.694   1.161  0.7529  2.9276 -0.4338
  754MOL0     H 1747   9.332   1.632   1.324 -1.1772 -2.1688 -1.1872
  754MOL0     H 1748   9.407   1.828   1.425  2.5088  0.0121 -0.0164
  754MOL0     H 1749   9.418   1.920   1.274 -0.0136  0.7520  0.8371
  754MOL0     H 1750   9.785   1.692   1.229 -1.3005  0.7977 -0.6259
  754MOL0     H 1751  10.009   1.796   1.315  1.9385  1.6693  1.2628
  754MOL0     H 1752  10.330   1.758   1.514 -0.1317  0.0365  2.4221
  754MOL0     H 1753  10.581   1.803   1.583  4.3800  3.9204  0.1590
  754MOL0     H 1754  10.761   2.154   1.562 -0.1672 -0.6387  0.0802
  754MOL0     H 1755  10.675   2.228   1.692  2.8166  2.6030  0.9238
  754MOL0     H 1756  10.837   2.119   1.870  4.2066 -0.6783  1.8506
  754MOL0     H 1757  10.926   2.060   1.729 -0.3267  0.9447 -1.6565
  754MOL0     H 1758  10.962   2.283   1.636 -2.5754  1.3154 -0.0215
  754MOL0     H 1759  10.898   2.366   1.775  1.9847  0.2737  0.3589
  754MOL0     H 1760  11.090   2.220   1.912 -0.0277  0.1836  0.4692
  754MOL0     H 1761  11.127   2.373   1.823 -3.0655  0.7132  1.4624
  754MOL0     H 1762  11.199   2.232   1.614  2.7410  0.3754 -0.6113
  754MOL0     H 1763  11.199   2.093   1.721 -1.8535  0.6370  1.6127
  754MOL0     H 1764  11.360   2.220   1.876  0.7065  2.9696 -0.0913
  754MOL0     H 1765  11.414   2.160   1.711  1.9227  0.6986  0.5137
  754MOL0     H 1766  11.356   2.442   1.818 -1.2754 -0.2494 -1.0662
  754MOL0     H 1767  11.384   2.397   1.644  0.4083 -3.1299 -0.8062
  754MOL0     H 1768  11.595   2.326   1.659 -0.8796 -0.4457  1.1338
  754MOL0     H 1769  11.583   2.479   1.762 -0.0538  0.8557  1.7759
  754MOL0     H 1770  10.498   2.226   1.554  0.0984  0.0870 -0.1364
  754MOL0     H 1771  10.287   2.180   1.483 -1.0613 -1.1724  0.4793
  754MOL0     H 1772   9.798   2.113   1.508  0.0815  2.4900 -2.0226
  754MOL0     H 1773   9.580   1.997   1.433 -0.2930 -0.6350 -0.1304
  754MOL0     H 1774   7.855   1.633   1.274 -0.3345 -0.9934  2.8223
  754MOL0     H 1775   7.671   1.612   1.425  0.0780 -1.8498  1.3800
  754MOL0     H 1776   7.290   1.610   1.554  0.3977 -0.2343  0.9882
  754MOL0     H 1777   7.079   1.677   1.625  0.0671  0.7591 -1.2145
  754MOL0     H 1778   6.772   1.412   1.697 -0.3949  2.1016  2.6201
  754MOL0     H 1779   6.710   1.484   1.536 -1.5648 -0.9479 -0.0468
  754MOL0     H 1780   6.536   1.546   1.691 -0.0507 -0.7658 -2.7645
  754MOL0     H 1781   6.651   1.679   1.673  1.2477 -0.3338 -1.3470
  754MOL0     H 1782   6.737   1.648   1.893 -1.6645  1.8027  0.8187
  754MOL0     H 1783   6.683   1.479   1.898 -0.4115  0.6196  2.7562
  754MOL0     H 1784   6.542   1.634   2.056  2.0878 -2.3257 -0.0811
  754MOL0     H 1785   6.481   1.713   1.912  0.4218  0.6749  2.1953
  754MOL0     H 1786   6.306   1.326   1.965 -1.2573  0.8376  2.8031
  754MOL0     H 1787   6.878   1.351   1.451  0.1322 -0.2824 -0.4809
  754MOL0     H 1788   6.980   1.191   1.335  0.9505  0.0704 -0.0219
  754MOL0     H 1789   7.127   1.224   1.245 -1.6526 -2.0160 -1.6747
  754MOL0     H 1790   7.133   1.145   1.401 -0.1155  0.0293  1.0327
  755MOL0     O 1791  10.901   5.750   5.487  0.4489  0.2589 -0.1863
  755MOL0     C 1792  10.865   5.863   5.458 -0.0923 -0.5106 -0.0742
  755MOL0     O 1793  10.922   5.945   5.355  0.3962 -0.0082 -0.0453
  755MOL0     C 1794  10.993   5.867   5.261 -0.8648  0.5121  0.0523
  755MOL0     C 1795  10.935   5.817   5.139 -0.1047  0.6528 -0.8251
  755MOL0     C 1796  11.001   5.725   5.054  0.7289 -1.3665 -0.6121
  755MOL0     C 1797  11.131   5.688   5.092 -0.5382  0.1244  0.1582
  755MOL0     O 1798  11.210   5.611   5.008 -0.1065 -0.4010  0.2644
  755MOL0     C 1799  11.307   5.518   5.071 -0.2644  0.6179  0.3598
  755MOL0     C 1800  11.343   5.430   4.958 -0.0051  0.6004  0.4404
  755MOL0     C 1801  11.452   5.328   4.989  1.2575  0.1159  0.1601
  755MOL0     C 1802  11.411   5.228   5.097 -0.1285  0.6119 -0.8781
  755MOL0     C 1803  11.487   5.096   5.089  0.5435  0.0631 -0.7796
  755MOL0     C 1804  11.491   5.026   4.958 -1.2900  0.1088 -0.1545
  755MOL0     C 1805  11.508   4.878   4.986 -0.3219  0.3723  0.4309
  755MOL0     C 1806  11.644   4.842   5.052  0.5424 -0.1101  0.2456
  755MOL0     N 1807  11.768   4.882   4.984  0.0682  1.1696  0.4981
  755MOL0     C 1808  11.794   4.837   4.856  0.0445 -0.0679  0.4816
  755MOL0     C 1809  11.922   4.873   4.842 -1.0901  0.5029 -0.3352
  755MOL0     C 1810  12.008   4.833   4.721 -1.0990  0.8952 -0.3067
  755MOL0     C 1811  12.092   4.704   4.764  0.3410 -0.5361 -0.1620
  755MOL0     C 1812  12.222   4.746   4.842 -0.3317 -0.3540  0.1396
  755MOL0     C 1813  12.303   4.621   4.890 -0.6479  0.0218  0.9554
  755MOL0     O 1814  12.361   4.555   4.771  0.6994  0.4341  0.3106
  755MOL0     C 1815  12.480   4.597   4.721 -0.1080  0.2937 -0.4208
  755MOL0     C 1816  12.571   4.693   4.776 -0.6787 -0.7078 -0.6205
  755MOL0     C 1817  12.702   4.703   4.736 -0.7356  0.1769 -0.4801
  755MOL0     C 1818  12.749   4.620   4.629 -0.4408  0.6406  0.4341
  755MOL0     C 1819  12.891   4.640   4.579 -0.4835 -0.7630  0.3747
  755MOL0     O 1820  12.930   4.556   4.479  0.4411  0.1750  0.6119
  755MOL0     C 1821  13.039   4.600   4.413 -0.5801  0.3924 -0.1921
  755MOL0     C 1822  13.163   4.537   4.436 -0.0786 -0.0485  0.4774
  755MOL0     C 1823  13.278   4.584   4.369  0.7133  0.9210 -0.6540
  755MOL0     C 1824  13.269   4.677   4.269  0.6852  0.9188  0.0558
  755MOL0     O 1825  13.391   4.702   4.210 -0.6394  0.2255  0.2969
  755MOL0     C 1826  13.410   4.821   4.134  0.1079 -0.3272 -0.2012
  755MOL0     C 1827  13.406   4.942   4.228 -0.7761  0.1548 -0.0489
  755MOL0     C 1828  13.478   4.923   4.363  0.2799 -0.6318  0.1881
  755MOL0     C 1829  13.623   4.890   4.346  0.4039  0.1380  0.0166
  755MOL0     C 1830  13.708   4.887   4.474 -0.0474 -1.4370 -0.4715
  755MOL0     C 1831  13.666   5.007   4.564  0.4174  0.6471  0.2622
  755MOL0     C 1832  13.774   5.064   4.660  0.1295  0.5527  0.4545
  755MOL0     C 1833  13.820   4.964   4.766 -0.0692  0.5766  0.4029
  755MOL0    Cl 1834  13.908   5.039   4.896 -0.0131  0.4765  0.2799
  755MOL0     C 1835  13.147   4.740   4.237 -0.1883 -0.2632  0.2535
  755MOL0     C 1836  13.035   4.701   4.318  0.1949 -0.1321 -0.6682
  755MOL0     O 1837  12.955   4.733   4.622  0.0484  0.6224 -0.2913
  755MOL0     C 1838  12.664   4.525   4.574  0.4279 -0.5966  0.0660
  755MOL0     C 1839  12.532   4.518   4.627  0.0650 -0.4446  0.2943
  755MOL0     N 1840  11.970   4.940   4.950  0.6885  0.0056 -0.0798
  755MOL0     N 1841  11.872   4.951   5.033 -0.3960 -0.1562 -0.3116
  755MOL0     C 1842  11.189   5.734   5.205  0.1202 -0.1003  0.4673
  755MOL0     C 1843  11.123   5.820   5.290 -0.7155 -0.1803  0.5328
  755MOL0     C 1844  10.742   5.916   5.516 -0.5257 -0.9025 -0.0772
  755MOL0     C 1845  10.691   6.034   5.467 -0.2554  0.2046 -0.4989
  755MOL0     C 1846  10.570   6.093   5.510  0.4399 -0.5478 -0.1202
  755MOL0     C 1847  10.500   6.043   5.615  0.3869 -0.0132 -0.6942
  755MOL0     O 1848  10.386   6.115   5.651  0.0729  0.3118  0.3422
  755MOL0     C 1849  10.296   6.054   5.751 -0.1592  1.1288  0.4469
  755MOL0     C 1850  10.220   5.934   5.682 -0.1532  0.3697  0.3142
  755MOL0     C 1851  10.112   5.991   5.594  0.5242 -0.0747 -1.1813
  755MOL0     C 1852  10.032   5.887   5.516 -0.0934  0.5183 -0.0289
  755MOL0     C 1853  10.110   5.822   5.405  0.6797 -0.2243  0.8817
  755MOL0     C 1854  10.172   5.756   5.322  0.0564  0.4052 -0.8797
  755MOL0     C 1855  10.550   5.925   5.676  1.1247  0.7349  0.6139
  755MOL0     C 1856  10.671   5.865   5.632  0.0972 -0.1583  0.4737
  755MOL0     C 1857  10.708   5.740   5.702  0.2280 -0.3061 -0.0151
  755MOL0     H 1858  10.831   5.846   5.124 -0.6277 -1.0561 -0.6898
  755MOL0     H 1859  10.951   5.681   4.968 -2.0731 -0.7580  0.5829
  755MOL0     H 1860  11.394   5.575   5.107 -0.1819  0.4991  0.3489
  755MOL0     H 1861  11.255   5.457   5.146 -0.2081  0.5530  0.3463
  755MOL0     H 1862  11.383   5.497   4.881 -2.3833  0.5796 -0.9112
  755MOL0     H 1863  11.259   5.371   4.922  0.9781 -0.8623  0.4712
  755MOL0     H 1864  11.539   5.384   5.024  0.7421  2.2066 -1.6983
  755MOL0     H 1865  11.477   5.275   4.897  1.5137 -1.5830  1.1646
  755MOL0     H 1866  11.413   5.268   5.199  1.6273  0.8459 -0.9754
  755MOL0     H 1867  11.308   5.196   5.078  1.1361 -4.0433 -1.0494
  755MOL0     H 1868  11.591   5.114   5.118  0.4745 -2.1813  1.0952
  755MOL0     H 1869  11.448   5.032   5.168  3.1804 -0.0958  0.4799
  755MOL0     H 1870  11.405   5.050   4.894 -1.4835  0.2617  0.1588
  755MOL0     H 1871  11.570   5.054   4.887 -1.1405 -1.4694 -0.6501
  755MOL0     H 1872  11.493   4.828   4.890  0.3251  1.7078 -0.4036
  755MOL0     H 1873  11.428   4.850   5.055  1.1368  1.5283  2.7074
  755MOL0     H 1874  11.631   4.884   5.152 -0.0286 -0.0193  0.1341
  755MOL0     H 1875  11.657   4.734   5.064  0.6469 -0.4477 -2.3006
  755MOL0     H 1876  11.728   4.782   4.790  1.1654 -1.6559  0.6404
  755MOL0     H 1877  11.945   4.806   4.636 -0.9084  0.4173 -0.3018
  755MOL0     H 1878  12.073   4.916   4.693 -0.8679  0.4451 -1.1436
  755MOL0     H 1879  12.023   4.640   4.818 -1.4403  0.3203 -1.3055
  755MOL0     H 1880  12.113   4.654   4.669 -0.9019  0.6944 -1.1264
  755MOL0     H 1881  12.195   4.798   4.935 -1.0724  1.8859 -1.2286
  755MOL0     H 1882  12.293   4.808   4.786  0.2598 -1.9172 -0.9033
  755MOL0     H 1883  12.235   4.550   4.938 -0.7863 -0.5986 -0.1232
  755MOL0     H 1884  12.382   4.658   4.956  0.6164 -0.3875 -0.2852
  755MOL0     H 1885  12.533   4.763   4.850  1.1486  0.2310 -0.4988
  755MOL0     H 1886  12.771   4.773   4.782 -0.7647 -0.0836 -0.0363
  755MOL0     H 1887  13.179   4.467   4.518 -0.7933  0.7948  1.3628
  755MOL0     H 1888  13.373   4.542   4.400  0.6757  1.3593  0.0847
  755MOL0     H 1889  13.499   4.812   4.072  0.4688 -1.0214  0.4021
  755MOL0     H 1890  13.325   4.834   4.067  0.5638  0.0126 -0.7187
  755MOL0     H 1891  13.459   5.026   4.183  0.5384 -1.0794 -0.8926
  755MOL0     H 1892  13.301   4.961   4.254 -0.5465  0.2472  0.8374
  755MOL0     H 1893  13.455   5.016   4.417  1.4015  1.0276 -2.0351
  755MOL0     H 1894  13.428   4.839   4.412  0.6156 -1.4919 -0.9059
  755MOL0     H 1895  13.670   4.962   4.279  0.6027  2.0175  2.0771
  755MOL0     H 1896  13.630   4.795   4.291  0.3398  0.0596  0.1435
  755MOL0     H 1897  13.811   4.910   4.446  0.5062  0.3796  2.6434
  755MOL0     H 1898  13.699   4.791   4.526 -0.9353 -0.0653  2.0821
  755MOL0     H 1899  13.651   5.089   4.493 -0.0757  1.0990  0.8720
  755MOL0     H 1900  13.571   4.983   4.614  1.6945  0.8370  2.9320
  755MOL0     H 1901  13.730   5.142   4.723  0.8326 -0.5371  2.3513
  755MOL0     H 1902  13.856   5.110   4.603 -1.2627  0.5373 -1.6991
  755MOL0     H 1903  13.729   4.916   4.804 -0.7974  0.1580 -1.7197
  755MOL0     H 1904  13.878   4.881   4.723 -0.8744  0.4751 -0.5407
  755MOL0     H 1905  13.128   4.813   4.159  1.4437  0.1204  0.1836
  755MOL0     H 1906  12.947   4.762   4.303  0.1607 -0.6953 -3.3070
  755MOL0     H 1907  12.704   4.472   4.489  1.9560 -0.1612  0.4831
  755MOL0     H 1908  12.467   4.442   4.585  0.4161  0.1774 -1.4522
  755MOL0     H 1909  11.293   5.719   5.233  2.2290  0.9963 -5.2452
  755MOL0     H 1910  11.176   5.859   5.376 -0.5791 -0.2323  0.4717
  755MOL0     H 1911  10.752   6.093   5.398 -2.4250  1.8399 -1.1404
  755MOL0     H 1912  10.547   6.188   5.464  1.7052 -0.6244 -0.9446
  755MOL0     H 1913  10.235   6.139   5.785 -0.0895  1.9313 -1.3275
  755MOL0     H 1914  10.358   6.015   5.832 -2.1142 -0.0903  1.4395
  755MOL0     H 1915  10.180   5.865   5.756  0.7562 -0.8940 -0.3291
  755MOL0     H 1916  10.287   5.880   5.614 -0.3654  0.7992 -0.2416
  755MOL0     H 1917  10.154   6.057   5.517 -0.9422  0.8778 -1.2034
  755MOL0     H 1918  10.047   6.061   5.648  0.4346  0.6484 -2.1969
  755MOL0     H 1919   9.985   5.804   5.570 -2.5242 -0.0476 -2.7723
  755MOL0     H 1920   9.954   5.950   5.474  0.7127  2.1161  0.8051
  755MOL0     H 1921  10.221   5.691   5.253  2.3692 -0.0195  1.0281
  755MOL0     H 1922  10.490   5.882   5.756 -0.1630 -0.9064 -1.1279
  755MOL0     H 1923  10.799   5.752   5.762 -0.9239  0.9691  1.5671
  755MOL0     H 1924  10.636   5.711   5.779  0.7967  0.7114  0.9348
  755MOL0     H 1925  10.720   5.662   5.626 -2.0484 -1.7300  0.9669
  756MOL0     O 1926   6.050   6.593  10.701 -0.3697 -0.0569 -0.0449
  756MOL0     C 1927   5.998   6.705  10.681  0.4357  0.0517  0.4393
  756MOL0     O 1928   6.069   6.827  10.694 -0.0158  0.3108  0.4099
  756MOL0     C 1929   6.200   6.828  10.734 -0.0213  0.0575 -0.1536
  756MOL0     C 1930   6.224   6.866  10.862 -0.3805 -0.6086 -0.5547
  756MOL0     C 1931   6.354   6.870  10.904 -0.2676  0.0542 -0.4652
  756MOL0     C 1932   6.461   6.844  10.821  0.0880 -0.1598  0.0575
  756MOL0     O 1933   6.593   6.860  10.875  0.3913  0.4815 -0.1216
  756MOL0     C 1934   6.704   6.888  10.783  0.1424 -0.5107  0.5916
  756MOL0     C 1935   6.814   6.966  10.862  0.6239  0.1562 -0.4092
  756MOL0     C 1936   6.876   6.882  10.973 -0.0072 -0.4493 -0.0625
  756MOL0     C 1937   6.975   6.974  11.045 -1.1381  0.3747  0.1460
  756MOL0     C 1938   7.080   6.884  11.136  0.2261 -0.2240  0.4502
  756MOL0     C 1939   7.216   6.858  11.062 -0.1051 -0.2451  0.1565
  756MOL0     C 1940   7.206   6.781  10.932 -0.1468 -0.2762 -0.3063
  756MOL0     C 1941   7.334   6.726  10.863 -1.0683  0.5895  0.1133
  756MOL0     N 1942   7.444   6.811  10.889  0.0636  0.2241 -0.0384
  756MOL0     C 1943   7.469   6.920  10.811  0.1685 -0.1573 -0.3535
  756MOL0     C 1944   7.574   6.981  10.875  0.5518  0.1886  0.1476
  756MOL0     C 1945   7.651   7.100  10.837  0.4233  0.1026  0.0729
  756MOL0     C 1946   7.801   7.071  10.826  0.3856 -0.5392 -0.0890
  756MOL0     C 1947   7.833   6.999  10.697  0.2386  0.0092 -0.2748
  756MOL0     C 1948   7.988   7.001  10.675 -0.2011  0.2835 -0.2123
  756MOL0     O 1949   8.068   6.932  10.779 -0.0477 -0.5383 -0.1356
  756MOL0     C 1950   8.205   6.944  10.765 -0.2279  1.5518 -0.0419
  756MOL0     C 1951   8.274   6.903  10.879  0.1632 -0.1423 -0.3364
  756MOL0     C 1952   8.410   6.886  10.887  0.0678  0.1126  0.1847
  756MOL0     C 1953   8.489   6.903  10.770  0.0965 -0.1388  0.7469
  756MOL0     C 1954   8.635   6.889  10.773  1.0368  0.1529 -0.6560
  756MOL0     O 1955   8.704   6.942  10.671  0.2591 -0.1741  0.5035
  756MOL0     C 1956   8.836   6.922  10.675  0.8445  0.0015  0.4892
  756MOL0     C 1957   8.891   6.875  10.562 -0.6662 -0.1462 -0.6159
  756MOL0     C 1958   9.023   6.854  10.548  0.4574 -0.1773  0.2027
  756MOL0     C 1959   9.106   6.890  10.648 -0.2211 -0.6830  0.1069
  756MOL0     O 1960   9.230   6.846  10.636 -0.1490 -0.2460 -0.2524
  756MOL0     C 1961   9.327   6.863  10.741  0.2398  0.3308 -0.5263
  756MOL0     C 1962   9.409   6.998  10.733 -0.2882 -0.3546  0.1249
  756MOL0     C 1963   9.524   6.987  10.843  0.0569 -1.1442  0.4633
  756MOL0     C 1964   9.597   7.127  10.858 -0.0774  0.4202 -0.7005
  756MOL0     C 1965   9.655   7.188  10.736  0.0558 -0.8271  0.1564
  756MOL0     C 1966   9.744   7.305  10.764 -0.4870  0.1779 -0.1541
  756MOL0     C 1967   9.689   7.401  10.867 -0.1668 -0.0657  0.8737
  756MOL0     C 1968   9.775   7.530  10.879 -0.5792  0.3611 -0.0628
  756MOL0    Cl 1969   9.953   7.519  10.860  0.2558 -0.2018  0.1051
  756MOL0     C 1970   9.059   6.955  10.760  0.4842  0.6416 -0.2046
  756MOL0     C 1971   8.916   6.969  10.772 -0.1272 -0.4205 -0.7915
  756MOL0     O 1972   8.672   6.806  10.856 -0.0012 -0.2327 -0.5615
  756MOL0     C 1973   8.421   6.955  10.655 -0.3020 -0.3189  0.6766
  756MOL0     C 1974   8.284   6.966  10.645  0.1487  0.5319 -0.1199
  756MOL0     N 1975   7.617   6.892  10.972 -0.1284  0.2977  0.5174
  756MOL0     N 1976   7.533   6.796  10.988  0.3391  0.4878  0.2007
  756MOL0     C 1977   6.433   6.797  10.693  0.4480  0.8438  0.9424
  756MOL0     C 1978   6.295   6.796  10.646  0.1469 -0.2510  0.2859
  756MOL0     C 1979   5.866   6.712  10.619 -0.2222 -0.8822 -0.2899
  756MOL0     C 1980   5.813   6.837  10.609 -0.4478 -0.4330  0.0569
  756MOL0     C 1981   5.686   6.855  10.555 -0.2046  0.4400 -0.1985
  756MOL0     C 1982   5.606   6.750  10.510 -0.3530  0.1649  0.0819
  756MOL0     O 1983   5.489   6.763  10.447  0.4434  0.6063 -0.4636
  756MOL0     C 1984   5.422   6.892  10.438 -0.3542 -0.3959  0.0076
  756MOL0     C 1985   5.270   6.870  10.461 -0.1415 -0.4096 -0.2080
  756MOL0     C 1986   5.264   6.842  10.615 -0.3543 -0.3078 -0.1118
  756MOL0     C 1987   5.130   6.856  10.686  0.7189  0.1624 -0.2640
  756MOL0     C 1988   5.095   6.988  10.727 -1.1122  1.0523  0.5142
  756MOL0     C 1989   5.035   7.092  10.742 -0.3792  0.1553 -0.1775
  756MOL0     C 1990   5.656   6.624  10.539 -0.2838 -0.2824 -0.3848
  756MOL0     C 1991   5.785   6.601  10.596 -0.3410  0.0953 -0.2429
  756MOL0     C 1992   5.818   6.453  10.617 -0.4736 -0.0067  0.4814
  756MOL0     H 1993   6.146   6.882  10.936  0.2728 -1.0901  0.2510
  756MOL0     H 1994   6.383   6.904  11.003  1.9282  0.2854 -1.1276
  756MOL0     H 1995   6.750   6.801  10.735 -2.0435 -1.0661 -0.6441
  756MOL0     H 1996   6.676   6.961  10.707  2.2842 -1.7562 -1.5502
  756MOL0     H 1997   6.767   7.056  10.903  0.7569  0.2139 -0.3822
  756MOL0     H 1998   6.895   7.007  10.802  2.4017  1.7729  2.8195
  756MOL0     H 1999   6.930   6.801  10.924  1.3493  0.6711 -0.5138
  756MOL0     H 2000   6.807   6.835  11.043 -0.3797  1.2584  0.7791
  756MOL0     H 2001   7.037   7.019  10.967 -1.2006 -0.0563 -0.1576
  756MOL0     H 2002   6.916   7.043  11.106 -0.5336 -0.2661  1.4838
  756MOL0     H 2003   7.100   6.926  11.235 -1.2478  2.0111 -0.1262
  756MOL0     H 2004   7.042   6.785  11.163 -3.6982  0.6110 -1.4532
  756MOL0     H 2005   7.257   6.959  11.045 -1.6877  0.4197  0.1422
  756MOL0     H 2006   7.273   6.805  11.138  1.9058 -0.2836 -1.2961
  756MOL0     H 2007   7.163   6.854  10.863  0.3937 -0.5565 -0.9543
  756MOL0     H 2008   7.135   6.700  10.946  1.5187 -1.7619 -0.0407
  756MOL0     H 2009   7.355   6.622  10.890 -1.4141  0.3573 -0.4967
  756MOL0     H 2010   7.313   6.722  10.755 -3.5810 -2.3240  0.5767
  756MOL0     H 2011   7.412   6.957  10.727  0.5591 -1.3305 -1.1567
  756MOL0     H 2012   7.609   7.138  10.743  0.0293  0.7497  0.5012
  756MOL0     H 2013   7.639   7.171  10.920  0.9945 -0.7655  0.9205
  756MOL0     H 2014   7.856   7.165  10.831 -2.7700  1.4862 -0.3157
  756MOL0     H 2015   7.841   7.018  10.913  2.6486  0.9123 -0.1680
  756MOL0     H 2016   7.780   7.046  10.614 -0.9004 -2.5707 -1.1153
  756MOL0     H 2017   7.800   6.895  10.702 -0.1935  0.1911  1.0816
  756MOL0     H 2018   8.015   7.106  10.662 -0.9718  0.4825 -0.2511
  756MOL0     H 2019   7.998   6.958  10.575 -1.5161  3.3090 -1.7746
  756MOL0     H 2020   8.215   6.888  10.969 -0.6776  2.0991 -0.4550
  756MOL0     H 2021   8.444   6.858  10.986 -1.5993  0.6228  0.9488
  756MOL0     H 2022   8.834   6.850  10.473 -0.4643 -1.6022 -0.3737
  756MOL0     H 2023   9.067   6.808  10.460  0.5548 -1.2477  0.7877
  756MOL0     H 2024   9.279   6.856  10.839 -2.2354 -0.6567 -1.7378
  756MOL0     H 2025   9.403   6.785  10.736  1.1495  1.2495 -1.7520
  756MOL0     H 2026   9.455   7.013  10.635  5.0600 -3.9817  1.6401
  756MOL0     H 2027   9.334   7.077  10.745  1.2739  0.8683  2.7451
  756MOL0     H 2028   9.479   6.955  10.938 -0.5468 -0.5093  0.3973
  756MOL0     H 2029   9.601   6.914  10.816  0.9845  0.3665 -1.2111
  756MOL0     H 2030   9.674   7.117  10.934  0.5303  1.6661 -1.1310
  756MOL0     H 2031   9.520   7.196  10.894 -0.4000  0.0746 -0.7085
  756MOL0     H 2032   9.571   7.227  10.677 -1.5078 -0.4906  2.4791
  756MOL0     H 2033   9.704   7.115  10.671  3.0329 -0.1704  1.4911
  756MOL0     H 2034   9.847   7.272  10.781 -0.3093  1.5569  1.6325
  756MOL0     H 2035   9.750   7.367  10.674 -0.8687  0.8365  0.2679
  756MOL0     H 2036   9.687   7.357  10.967  0.0443  0.5039  1.1321
  756MOL0     H 2037   9.590   7.432  10.832  0.3737 -1.2112 -1.8946
  756MOL0     H 2038   9.735   7.605  10.810 -0.1780  2.1878  1.6076
  756MOL0     H 2039   9.758   7.567  10.980  0.0500  2.4662 -0.6718
  756MOL0     H 2040   9.118   6.988  10.845  0.1869  0.6397  0.0073
  756MOL0     H 2041   8.859   7.015  10.852  0.6498  0.1922 -0.5933
  756MOL0     H 2042   8.472   6.971  10.561 -3.0835  0.3824 -0.8208
  756MOL0     H 2043   8.235   6.995  10.552 -0.7081  1.4134  0.5768
  756MOL0     H 2044   6.517   6.771  10.629  0.8331 -0.6024  1.9849
  756MOL0     H 2045   6.255   6.764  10.551 -4.4285 -1.3496  2.3160
  756MOL0     H 2046   5.871   6.926  10.633 -0.0196  0.2992 -3.2209
  756MOL0     H 2047   5.648   6.957  10.556 -0.4130  0.3917 -1.4635
  756MOL0     H 2048   5.443   6.941  10.342 -0.9795  0.8810  0.4984
  756MOL0     H 2049   5.453   6.973  10.505  0.9331 -0.2927 -0.6734
  756MOL0     H 2050   5.239   6.779  10.410  2.7671 -1.4485 -0.2945
  756MOL0     H 2051   5.215   6.959  10.428 -2.7328 -0.8178  2.5592
  756MOL0     H 2052   5.340   6.902  10.666  0.7601 -0.9955 -0.9334
  756MOL0     H 2053   5.297   6.739  10.630  1.3904  0.3982  1.1673
  756MOL0     H 2054   5.056   6.810  10.620 -1.3339  0.8687  1.4511
  756MOL0     H 2055   5.116   6.789  10.772 -0.1565 -0.1290 -0.6162
  756MOL0     H 2056   4.983   7.180  10.776 -0.2117  0.7320 -1.3816
  756MOL0     H 2057   5.596   6.540  10.505 -0.6031 -0.2009 -0.0199
  756MOL0     H 2058   5.885   6.414  10.540  0.6957  0.8736  1.0259
  756MOL0     H 2059   5.862   6.434  10.715  0.1091 -3.1217 -0.2495
  756MOL0     H 2060   5.725   6.395  10.618  0.1735 -1.0877  1.6804
  757MOL0     O 2061   1.788  10.671   9.802  0.1477 -0.0927 -0.6535
  757MOL0     C 2062   1.811  10.730   9.905 -0.3614 -0.1930 -0.1730
  757MOL0     O 2063   1.930  10.722   9.967  0.6521 -0.0178 -0.0364
  757MOL0     C 2064   2.026  10.629   9.938 -0.0551  0.2468 -0.1606
  757MOL0     C 2065   2.004  10.506   9.886 -0.1191 -0.3222  0.2390
  757MOL0     C 2066   2.110  10.416   9.862 -0.0991 -0.3702  0.5489
  757MOL0     C 2067   2.247  10.452   9.887  0.1984 -0.8352  0.2598
  757MOL0     O 2068   2.351  10.359   9.875  0.0081 -0.0802 -0.2668
  757MOL0     C 2069   2.335  10.265   9.985  0.3575  0.6740 -0.4823
  757MOL0     C 2070   2.461  10.204  10.035 -0.0466 -0.0722 -0.4715
  757MOL0     C 2071   2.568  10.298  10.097 -0.4710 -0.8571  0.0001
  757MOL0     C 2072   2.693  10.221  10.118  0.7017  0.7091  0.1776
  757MOL0     C 2073   2.803  10.316  10.165  0.4945  0.3340  0.5275
  757MOL0     C 2074   2.950  10.258  10.166 -0.6175  0.5202  1.3825
  757MOL0     C 2075   3.042  10.350  10.246  0.4971 -0.5358  0.5189
  757MOL0     C 2076   3.180  10.282  10.236  0.0161  0.2636  0.6606
  757MOL0     N 2077   3.194  10.148  10.289  0.6968  0.4422 -0.3995
  757MOL0     C 2078   3.185  10.142  10.427  0.5140  0.8084 -0.1414
  757MOL0     C 2079   3.229  10.016  10.454 -0.3542  0.0965 -0.7161
  757MOL0     C 2080   3.220   9.960  10.596 -0.6997 -0.3462  0.5982
  757MOL0     C 2081   3.365   9.931  10.653 -0.3485 -0.0595  0.2818
  757MOL0     C 2082   3.445   9.813  10.583  0.1046 -0.0484 -0.4227
  757MOL0     C 2083   3.584   9.785  10.626  0.4503  0.5817  0.4176
  757MOL0     O 2084   3.659   9.906  10.634 -0.3639 -0.5040  0.3779
  757MOL0     C 2085   3.784   9.901  10.686 -0.0360 -0.4178  0.5109
  757MOL0     C 2086   3.858  10.021  10.706  0.1191 -0.3638  0.2611
  757MOL0     C 2087   3.985  10.016  10.765 -0.3877 -0.1468  0.0554
  757MOL0     C 2088   4.059   9.896  10.791 -0.3981 -0.2772  0.0155
  757MOL0     C 2089   4.193   9.896  10.844  0.7689 -0.0938 -0.4363
  757MOL0     O 2090   4.238   9.772  10.866 -0.1973 -0.4942 -0.4283
  757MOL0     C 2091   4.369   9.757  10.912  0.3944 -0.7515 -0.0792
  757MOL0     C 2092   4.401   9.634  10.983 -0.0302 -0.1129  0.3628
  757MOL0     C 2093   4.531   9.614  11.011 -0.4372 -0.2839  0.4917
  757MOL0     C 2094   4.636   9.705  10.980  0.3253 -0.4285  0.3182
  757MOL0     O 2095   4.764   9.696  11.027 -0.4680 -0.0451 -0.5951
  757MOL0     C 2096   4.822   9.567  11.046 -0.0701  0.0746 -0.0013
  757MOL0     C 2097   4.965   9.557  10.987 -0.2037 -0.6677  0.3264
  757MOL0     C 2098   5.070   9.635  11.065 -0.1497  0.2800  0.1034
  757MOL0     C 2099   5.209   9.564  11.067 -0.1609 -0.1289  0.3606
  757MOL0     C 2100   5.298   9.587  10.938 -0.1154  0.5893 -0.2076
  757MOL0     C 2101   5.433   9.519  10.951  0.2299  0.1092 -0.2759
  757MOL0     C 2102   5.511   9.512  10.814 -0.4192 -0.2861 -0.3002
  757MOL0     C 2103   5.661   9.534  10.844 -0.0401  0.0126  0.7815
  757MOL0    Cl 2104   5.740   9.573  10.687 -0.0853  0.1886 -0.2048
  757MOL0     C 2105   4.601   9.818  10.916  0.3120  0.2617  0.7064
  757MOL0     C 2106   4.476   9.848  10.889 -1.1450 -0.2250  0.9256
  757MOL0     O 2107   4.247   9.999  10.875  0.2939  0.0832 -0.1381
  757MOL0     C 2108   3.982   9.775  10.771  0.2972  0.0851 -0.1999
  757MOL0     C 2109   3.851   9.780  10.714 -0.6298 -0.3866  0.1711
  757MOL0     N 2110   3.288   9.962  10.341  0.9763  0.0742 -0.0306
  757MOL0     N 2111   3.257  10.034  10.240  0.7759 -0.0876 -0.8245
  757MOL0     C 2112   2.270  10.579   9.934  0.0693 -0.1015 -0.5055
  757MOL0     C 2113   2.161  10.662   9.962 -0.5777  0.2962  0.8964
  757MOL0     C 2114   1.718  10.838   9.956  0.2239  0.7078  0.0810
  757MOL0     C 2115   1.773  10.934  10.044  0.4856 -0.0121 -0.0050
  757MOL0     C 2116   1.692  11.028  10.111  0.1249  1.1370 -1.0011
  757MOL0     C 2117   1.562  11.046  10.065 -0.3754 -0.0210  0.0827
  757MOL0     O 2118   1.496  11.159  10.117 -0.7418  0.5289 -0.1038
  757MOL0     C 2119   1.378  11.216  10.063  1.9060  0.0305  0.4858
  757MOL0     C 2120   1.338  11.341  10.115  0.1366  0.7964  0.6520
  757MOL0     C 2121   1.420  11.460  10.068 -0.0450 -1.1166  0.3165
  757MOL0     C 2122   1.562  11.458  10.122 -0.9512 -0.0272 -0.3740
  757MOL0     C 2123   1.576  11.439  10.266  0.7476  0.9089  0.4616
  757MOL0     C 2124   1.573  11.409  10.379 -0.1519  0.0191 -0.3849
  757MOL0     C 2125   1.512  10.972   9.965  0.4844  0.1007  0.0445
  757MOL0     C 2126   1.583  10.853   9.918 -0.1603 -0.6947 -0.2013
  757MOL0     C 2127   1.503  10.756   9.828 -0.1178  0.2489 -1.1813
  757MOL0     H 2128   1.903  10.475   9.863 -0.5482  2.0602 -1.4074
  757MOL0     H 2129   2.095  10.316   9.823  3.0715 -1.8146  2.5437
  757MOL0     H 2130   2.294  10.324  10.067 -1.3807  3.8791 -3.4108
  757MOL0     H 2131   2.259  10.194   9.951  0.2669  1.6269 -2.4430
  757MOL0     H 2132   2.501  10.149   9.950 -2.4548 -2.1343 -0.3965
  757MOL0     H 2133   2.437  10.130  10.111  0.1798 -0.7397 -1.0422
  757MOL0     H 2134   2.541  10.334  10.196 -0.4457 -1.2134  0.1366
  757MOL0     H 2135   2.578  10.383  10.028 -0.3873 -2.7470 -2.4498
  757MOL0     H 2136   2.674  10.143  10.192  0.1993 -0.1973 -0.8815
  757MOL0     H 2137   2.724  10.161  10.032  0.7870 -0.9767  1.3434
  757MOL0     H 2138   2.800  10.409  10.107 -2.8792 -0.0449 -0.0577
  757MOL0     H 2139   2.781  10.341  10.270 -1.4520  1.4243 -0.0907
  757MOL0     H 2140   2.943  10.162  10.220  1.5248  0.0933  1.0249
  757MOL0     H 2141   2.990  10.241  10.066  0.4508  3.8285  1.1233
  757MOL0     H 2142   3.009  10.357  10.350 -0.7612 -0.9335  0.1651
  757MOL0     H 2143   3.050  10.448  10.198 -0.4681 -0.9386 -0.5040
  757MOL0     H 2144   3.215  10.294  10.134 -2.3872  1.2761 -0.1184
  757MOL0     H 2145   3.251  10.339  10.297  0.9998 -1.1076  0.8283
  757MOL0     H 2146   3.140  10.206  10.502  0.8192 -0.1874  0.9195
  757MOL0     H 2147   3.171  10.035  10.661 -0.0174 -0.4521  1.2495
  757MOL0     H 2148   3.156   9.872  10.604 -1.0413 -0.0724  0.9316
  757MOL0     H 2149   3.417  10.027  10.639 -0.8223 -0.0381 -1.6965
  757MOL0     H 2150   3.372   9.909  10.759 -0.6899 -0.5434  0.2056
  757MOL0     H 2151   3.446   9.828  10.474 -0.6818 -1.9654 -0.7396
  757MOL0     H 2152   3.395   9.716  10.598 -0.3222  0.4438  1.5673
  757MOL0     H 2153   3.623   9.712  10.555 -0.2137  0.5454  0.0839
  757MOL0     H 2154   3.578   9.734  10.723  0.1049 -0.2790 -0.0419
  757MOL0     H 2155   3.817  10.118  10.681  1.8734  0.6281  1.0930
  757MOL0     H 2156   4.033  10.113  10.774 -3.7857  1.7692 -0.8568
  757MOL0     H 2157   4.328   9.561  11.016  1.8527 -1.3480  2.1081
  757MOL0     H 2158   4.564   9.531  11.073 -1.1162 -0.4890  0.5926
  757MOL0     H 2159   4.818   9.537  11.151 -1.3173  0.1771 -0.0030
  757MOL0     H 2160   4.768   9.487  10.994  0.7977 -0.9392  0.6384
  757MOL0     H 2161   4.993   9.452  10.980  1.6679 -0.0659 -2.8750
  757MOL0     H 2162   4.961   9.591  10.883 -0.4512  1.6508  1.0292
  757MOL0     H 2163   5.075   9.728  11.008  0.2683 -0.5570 -1.2876
  757MOL0     H 2164   5.042   9.662  11.167  0.1217  0.3901  0.1485
  757MOL0     H 2165   5.193   9.456  11.077 -0.8875 -0.0716 -0.0809
  757MOL0     H 2166   5.282   9.591  11.144  1.1206 -1.1679 -0.4372
  757MOL0     H 2167   5.323   9.693  10.928  3.8410 -0.1689 -0.2677
  757MOL0     H 2168   5.242   9.557  10.849  1.3271 -2.3064 -0.2946
  757MOL0     H 2169   5.488   9.574  11.029 -0.2915  1.9892 -1.1894
  757MOL0     H 2170   5.422   9.417  10.989  0.8999  0.0961 -0.1021
  757MOL0     H 2171   5.480   9.590  10.744  1.8211 -0.9286 -2.1306
  757MOL0     H 2172   5.482   9.417  10.769  1.7406 -0.0224 -2.4429
  757MOL0     H 2173   5.683   9.618  10.911 -0.5730 -1.1014  2.4310
  757MOL0     H 2174   5.709   9.452  10.899  1.2415 -0.8096 -1.4405
  757MOL0     H 2175   4.686   9.884  10.899  0.5719 -0.1049  0.5632
  757MOL0     H 2176   4.461   9.942  10.838 -1.5938 -0.3597  0.8035
  757MOL0     H 2177   4.030   9.682  10.800  2.3836  1.6176  1.5458
  757MOL0     H 2178   3.798   9.686  10.705 -1.8621  0.3244 -0.2009
  757MOL0     H 2179   2.375  10.600   9.951 -0.0811  1.1839 -1.0627
  757MOL0     H 2180   2.182  10.762   9.999 -2.2693  0.6656  0.9395
  757MOL0     H 2181   1.879  10.932  10.068  0.1718  0.1744  1.4731
  757MOL0     H 2182   1.726  11.101  10.184  1.6804  0.3743 -0.9211
  757MOL0     H 2183   1.298  11.149  10.095  2.2598  0.6525  2.8271
  757MOL0     H 2184   1.371  11.223   9.954 -1.0306 -1.5809  0.4797
  757MOL0     H 2185   1.345  11.338  10.224  4.6332 -1.8213  0.5484
  757MOL0     H 2186   1.238  11.364  10.077 -0.4306 -0.0018  1.5888
  757MOL0     H 2187   1.368  11.546  10.110 -1.4874 -1.4861 -0.6547
  757MOL0     H 2188   1.411  11.474   9.960  1.4378 -3.5268 -0.2014
  757MOL0     H 2189   1.620  11.382  10.070 -1.1488  1.3050 -2.6850
  757MOL0     H 2190   1.613  11.551  10.095  0.8621 -1.1678 -1.1134
  757MOL0     H 2191   1.577  11.381  10.482  2.1691 -1.7094 -0.8431
  757MOL0     H 2192   1.410  11.000   9.940 -0.0083 -0.5537  1.2665
  757MOL0     H 2193   1.488  10.793   9.727 -4.1414  0.6003 -0.6195
  757MOL0     H 2194   1.540  10.653   9.827 -1.5220 -0.2678 -1.0153
  757MOL0     H 2195   1.405  10.748   9.875 -0.1951 -0.9052 -1.5245
  758MOL0     O 2196   0.484   8.537   2.291 -0.3919 -0.0291  0.2966
  758MOL0     C 2197   0.471   8.574   2.408  0.2732 -0.6331 -0.5763
  758MOL0     O 2198   0.580   8.592   2.495 -0.2490  0.0079 -0.2825
  758MOL0     C 2199   0.703   8.543   2.445  0.1932  0.6766  0.3736
  758MOL0     C 2200   0.772   8.601   2.341  0.6005 -0.2671  0.4771
  758MOL0     C 2201   0.903   8.563   2.317  0.2959  0.1032  0.2704
  758MOL0     C 2202   0.976   8.478   2.401  0.4612  0.2158 -1.2087
  758MOL0     O 2203   1.106   8.460   2.372 -0.4618 -0.3175 -0.1353
  758MOL0     C 2204   1.185   8.382   2.457  0.0222 -0.4870  0.0849
  758MOL0     C 2205   1.323   8.379   2.398 -0.0407  0.6730  0.0733
  758MOL0     C 2206   1.426   8.326   2.495 -0.1541 -0.0213  0.1119
  758MOL0     C 2207   1.563   8.330   2.433 -0.2189  0.1319  0.3744
  758MOL0     C 2208   1.669   8.256   2.526  0.3895  0.3935  0.3036
  758MOL0     C 2209   1.804   8.248   2.470  0.8572 -0.8075  0.9199
  758MOL0     C 2210   1.907   8.198   2.570  0.0505  0.9629 -0.0113
  758MOL0     C 2211   2.055   8.200   2.514 -0.0255 -0.6034 -0.1965
  758MOL0     N 2212   2.153   8.189   2.624 -0.1005 -0.1113  0.0984
  758MOL0     C 2213   2.218   8.291   2.685  0.1269 -0.1808 -0.7793
  758MOL0     C 2214   2.289   8.233   2.781 -0.0823  0.9721  0.4983
  758MOL0     C 2215   2.376   8.315   2.876 -0.4318  0.3248 -0.5841
  758MOL0     C 2216   2.525   8.323   2.831  1.0286 -0.8009  0.0493
  758MOL0     C 2217   2.604   8.198   2.857 -1.2700  0.0642 -0.2869
  758MOL0     C 2218   2.755   8.217   2.818 -0.4113  0.3064  0.3651
  758MOL0     O 2219   2.837   8.281   2.925  0.6999 -0.9792  0.2519
  758MOL0     C 2220   2.974   8.302   2.896  0.1955  0.5746  0.5659
  758MOL0     C 2221   3.043   8.231   2.796 -0.0486 -0.4109  0.5250
  758MOL0     C 2222   3.176   8.261   2.775 -0.1954  0.0447  0.7654
  758MOL0     C 2223   3.250   8.333   2.869  0.8747  0.3529  0.1350
  758MOL0     C 2224   3.393   8.360   2.843  0.0047  1.3403  0.6719
  758MOL0     O 2225   3.463   8.438   2.930 -0.0934 -0.5381 -0.2275
  758MOL0     C 2226   3.596   8.478   2.905  0.2605  0.3714 -0.3458
  758MOL0     C 2227   3.698   8.390   2.871 -0.4743  1.0395  0.7131
  758MOL0     C 2228   3.830   8.431   2.851  1.0880 -0.1688  0.9373
  758MOL0     C 2229   3.868   8.563   2.873  0.5055 -0.0226 -0.1201
  758MOL0     O 2230   4.003   8.614   2.869  0.9496  0.7814  0.4549
  758MOL0     C 2231   4.102   8.526   2.832 -0.5566  0.0361  0.4692
  758MOL0     C 2232   4.227   8.606   2.792 -0.1666  0.5013  0.5118
  758MOL0     C 2233   4.274   8.691   2.908 -0.4186 -0.0723  0.2869
  758MOL0     C 2234   4.369   8.804   2.862 -0.1810 -0.1212  0.8919
  758MOL0     C 2235   4.516   8.767   2.853  0.2136 -0.2052 -0.0725
  758MOL0     C 2236   4.573   8.719   2.986  0.0978  0.7072 -0.2366
  758MOL0     C 2237   4.710   8.660   2.958  1.2453 -0.5452 -0.7112
  758MOL0     C 2238   4.743   8.566   3.081 -0.2110 -0.2948  0.6833
  758MOL0    Cl 2239   4.904   8.511   3.035  0.3900  0.3064 -0.5975
  758MOL0     C 2240   3.768   8.655   2.917 -0.6187  0.0340  0.3081
  758MOL0     C 2241   3.638   8.608   2.930  0.0061 -0.3467 -0.3963
  758MOL0     O 2242   3.447   8.315   2.746 -0.4889 -0.7311  0.2691
  758MOL0     C 2243   3.182   8.397   2.971 -0.8311  0.6795  0.4146
  758MOL0     C 2244   3.048   8.381   2.985  0.1052  0.1627  0.4229
  758MOL0     N 2245   2.253   8.105   2.789  0.0458  1.3922  0.9099
  758MOL0     N 2246   2.176   8.077   2.694  0.0149  0.0154  0.4184
  758MOL0     C 2247   0.907   8.427   2.508  0.3321  0.9740  0.0642
  758MOL0     C 2248   0.769   8.454   2.523 -0.1215  0.3745  0.4390
  758MOL0     C 2249   0.337   8.594   2.471 -0.7349 -0.7349  0.1174
  758MOL0     C 2250   0.332   8.604   2.611  0.1245 -0.1538  0.9144
  758MOL0     C 2251   0.216   8.627   2.683  0.1970  0.2162 -0.0520
  758MOL0     C 2252   0.094   8.631   2.615 -0.0356  0.1310 -0.7555
  758MOL0     O 2253  -0.024   8.671   2.660 -0.0429 -0.2583 -0.9222
  758MOL0     C 2254  -0.035   8.664   2.802 -0.2751 -0.8464  0.0902
  758MOL0     C 2255  -0.183   8.658   2.849  0.1314  0.0424 -0.4771
  758MOL0     C 2256  -0.277   8.583   2.744 -0.2363 -0.0921 -0.3770
  758MOL0     C 2257  -0.420   8.572   2.797 -0.6064 -0.2172 -0.3558
  758MOL0     C 2258  -0.428   8.479   2.916  0.4465  0.7430  0.3949
  758MOL0     C 2259  -0.416   8.398   3.011 -0.8531 -0.7570  0.0872
  758MOL0     C 2260   0.091   8.598   2.481 -0.4618  0.1544 -0.7412
  758MOL0     C 2261   0.211   8.585   2.405  0.0620 -0.4198 -0.6849
  758MOL0     C 2262   0.192   8.574   2.255  0.5784  0.6412  0.2788
  758MOL0     H 2263   0.732   8.678   2.275  0.5636 -1.8996 -1.5103
  758MOL0     H 2264   0.944   8.606   2.226 -2.5727 -2.7798 -2.6660
  758MOL0     H 2265   1.194   8.425   2.557  0.8862  0.2944 -0.3194
  758MOL0     H 2266   1.142   8.282   2.461  1.9838 -1.3632  0.0728
  758MOL0     H 2267   1.353   8.481   2.375  0.3519  0.3296 -0.9880
  758MOL0     H 2268   1.304   8.328   2.303 -1.6279  0.9213  0.2287
  758MOL0     H 2269   1.400   8.223   2.520  1.9298 -0.7118 -0.2946
  758MOL0     H 2270   1.420   8.376   2.592 -0.2065 -1.0728  0.6733
  758MOL0     H 2271   1.556   8.274   2.339  1.5987  0.9359 -0.2764
  758MOL0     H 2272   1.584   8.435   2.416 -3.1588  0.8554  0.6863
  758MOL0     H 2273   1.666   8.312   2.620 -2.9586  1.3488 -0.2364
  758MOL0     H 2274   1.645   8.153   2.555  0.5240  0.0510 -0.7619
  758MOL0     H 2275   1.794   8.169   2.394  0.3867  0.5626 -0.4947
  758MOL0     H 2276   1.835   8.346   2.432 -0.7955 -0.1339  1.2479
  758MOL0     H 2277   1.876   8.094   2.582 -0.7470  1.2452  0.4272
  758MOL0     H 2278   1.904   8.261   2.660  0.0389 -0.6750  1.1751
  758MOL0     H 2279   2.058   8.115   2.446 -1.5130 -0.1145 -0.9241
  758MOL0     H 2280   2.069   8.298   2.468 -1.9607 -0.7522 -1.2012
  758MOL0     H 2281   2.211   8.397   2.660 -2.2031  0.1936  1.1379
  758MOL0     H 2282   2.342   8.419   2.871  1.4330  0.9628 -0.6594
  758MOL0     H 2283   2.391   8.286   2.980  2.8625  3.6550  0.0918
  758MOL0     H 2284   2.526   8.349   2.725  0.9701 -0.8650  0.0326
  758MOL0     H 2285   2.586   8.399   2.880  0.0474  1.2169 -1.7179
  758MOL0     H 2286   2.557   8.118   2.798 -2.3672 -1.8992  2.9651
  758MOL0     H 2287   2.585   8.179   2.963  1.6799  3.2491  0.9921
  758MOL0     H 2288   2.770   8.269   2.723  3.0690 -0.8359  0.1507
  758MOL0     H 2289   2.793   8.115   2.807 -0.7030  0.1027  1.1859
  758MOL0     H 2290   2.993   8.169   2.723 -0.3434  0.8841 -0.4126
  758MOL0     H 2291   3.222   8.219   2.686  1.7310  1.0790  1.2203
  758MOL0     H 2292   3.669   8.286   2.864  1.7274  0.4297 -0.3791
  758MOL0     H 2293   3.899   8.357   2.812 -1.6789 -1.1486 -2.6561
  758MOL0     H 2294   4.114   8.455   2.914 -0.3287  0.1674  0.5486
  758MOL0     H 2295   4.066   8.477   2.741  2.0671  0.5996 -0.9920
  758MOL0     H 2296   4.302   8.544   2.740 -0.6551 -1.0784  1.6163
  758MOL0     H 2297   4.190   8.683   2.724 -0.2171  0.4509  0.4813
  758MOL0     H 2298   4.192   8.746   2.956  0.4970  1.4105  0.2277
  758MOL0     H 2299   4.324   8.618   2.972  1.0477 -1.5381 -2.3876
  758MOL0     H 2300   4.348   8.887   2.930 -0.2929  0.7386 -0.1860
  758MOL0     H 2301   4.337   8.837   2.763  0.3847  1.8511  1.3243
  758MOL0     H 2302   4.582   8.850   2.828  1.3657 -1.5926 -1.8400
  758MOL0     H 2303   4.520   8.690   2.775  0.5362  1.6077 -1.9409
  758MOL0     H 2304   4.573   8.804   3.055 -4.1368 -0.4924  1.5181
  758MOL0     H 2305   4.511   8.651   3.045  1.9351  0.8726  2.0233
  758MOL0     H 2306   4.774   8.747   2.941 -0.8249  0.4834 -4.0734
  758MOL0     H 2307   4.706   8.597   2.869 -2.3856  0.0136 -1.0594
  758MOL0     H 2308   4.753   8.614   3.178 -2.2773  0.2922  0.6527
  758MOL0     H 2309   4.677   8.479   3.085 -0.4118 -0.1267  1.0569
  758MOL0     H 2310   3.798   8.755   2.948 -5.0030  0.5881  3.8518
  758MOL0     H 2311   3.565   8.680   2.967  1.9612  0.2255  2.7426
  758MOL0     H 2312   3.247   8.444   3.044 -0.1841 -0.9894  0.9705
  758MOL0     H 2313   2.999   8.433   3.067 -0.2805 -0.6049  0.6876
  758MOL0     H 2314   0.958   8.359   2.576  1.8209  0.0692 -1.8562
  758MOL0     H 2315   0.703   8.408   2.596  0.0217 -1.3334 -0.4590
  758MOL0     H 2316   0.421   8.588   2.671 -0.1084  1.5998  1.8020
  758MOL0     H 2317   0.226   8.651   2.789  0.2266  2.0044 -0.4224
  758MOL0     H 2318   0.018   8.748   2.847 -2.5467  1.9901 -2.1493
  758MOL0     H 2319   0.011   8.570   2.833  1.8070  0.2660  0.5381
  758MOL0     H 2320  -0.218   8.760   2.866  3.0771  1.3630 -1.5357
  758MOL0     H 2321  -0.184   8.617   2.950 -1.5282 -0.4657 -0.6669
  758MOL0     H 2322  -0.233   8.490   2.705  5.3849  1.9729  0.0000
  758MOL0     H 2323  -0.287   8.648   2.657  2.1723 -0.1049 -0.7455
  758MOL0     H 2324  -0.448   8.673   2.828  0.5849  0.2626 -0.8185
  758MOL0     H 2325  -0.488   8.551   2.714 -0.1916 -0.7323 -0.5670
  758MOL0     H 2326  -0.418   8.327   3.092 -2.9549 -2.0006 -0.9839
  758MOL0     H 2327  -0.005   8.582   2.431  0.3343  0.7087 -2.5201
  758MOL0     H 2328   0.182   8.469   2.227 -0.1472  0.5852  0.7082
  758MOL0     H 2329   0.107   8.628   2.214 -0.5536 -0.1529  1.4893
  758MOL0     H 2330   0.276   8.625   2.206  0.5155  1.6941  1.2235
  759MOL0     O 2331   4.934   7.568  10.240 -0.1821  0.6113 -0.7966
  759MOL0     C 2332   5.009   7.655  10.198 -0.3946 -0.1464 -0.0487
  759MOL0     O 2333   5.131   7.690  10.246 -0.3291 -0.8927 -0.5850
  759MOL0     C 2334   5.206   7.597  10.317 -0.4854  0.0464 -0.7214
  759MOL0     C 2335   5.316   7.653  10.395  0.2191  0.4038  0.4695
  759MOL0     C 2336   5.386   7.565  10.472 -0.1173 -0.6734 -0.0805
  759MOL0     C 2337   5.362   7.434  10.495 -0.5166 -0.1781 -0.1685
  759MOL0     O 2338   5.434   7.368  10.590  0.2618  0.2079 -0.1068
  759MOL0     C 2339   5.422   7.234  10.599 -0.5786  0.4636  0.1920
  759MOL0     C 2340   5.498   7.183  10.728 -0.2722 -0.1910 -0.2825
  759MOL0     C 2341   5.637   7.227  10.730  0.5618 -0.1414 -0.9603
  759MOL0     C 2342   5.709   7.145  10.849  0.2290 -0.4019  0.6483
  759MOL0     C 2343   5.859   7.179  10.864 -0.3391  0.7010 -0.4564
  759MOL0     C 2344   5.879   7.313  10.916  0.4850 -0.1763  1.0372
  759MOL0     C 2345   6.026   7.335  10.965  0.1811 -0.6280  0.3367
  759MOL0     C 2346   6.052   7.286  11.107 -0.4384  0.2428  0.7379
  759MOL0     N 2347   6.189   7.228  11.125  0.9631 -0.0483 -0.0027
  759MOL0     C 2348   6.221   7.144  11.225  0.6879 -0.2241  0.0683
  759MOL0     C 2349   6.351   7.113  11.202  0.2362  1.0402 -0.4513
  759MOL0     C 2350   6.424   7.034  11.309 -0.1274  0.0087  0.4262
  759MOL0     C 2351   6.552   6.972  11.267  0.6627 -0.2067  0.1946
  759MOL0     C 2352   6.643   6.922  11.380 -0.1722 -0.6451 -0.4710
  759MOL0     C 2353   6.701   7.041  11.465  0.0831  0.3994  0.1730
  759MOL0     O 2354   6.778   6.991  11.574 -0.0468 -0.2414  0.3926
  759MOL0     C 2355   6.898   6.943  11.555  0.9176  0.4224 -0.4308
  759MOL0     C 2356   7.013   7.013  11.533  0.7288 -0.1312 -0.0375
  759MOL0     C 2357   7.139   6.958  11.524  0.5260  1.1600  0.6651
  759MOL0     C 2358   7.161   6.817  11.532 -0.2714 -0.1956  0.2697
  759MOL0     C 2359   7.296   6.742  11.492 -0.4533  0.3213 -0.0532
  759MOL0     O 2360   7.405   6.817  11.458  0.2233  0.3256 -0.5632
  759MOL0     C 2361   7.526   6.751  11.443  0.1901 -0.5012  0.3617
  759MOL0     C 2362   7.600   6.733  11.324 -0.3476 -0.1284 -0.6759
  759MOL0     C 2363   7.721   6.661  11.325  0.7742 -0.1474 -0.1452
  759MOL0     C 2364   7.767   6.584  11.438 -0.0490 -0.0394 -0.4100
  759MOL0     O 2365   7.876   6.495  11.428  0.5590  0.1248  0.1776
  759MOL0     C 2366   7.974   6.498  11.536  0.3660  0.0956  0.3123
  759MOL0     C 2367   7.977   6.363  11.604 -0.7558  0.0694 -0.0969
  759MOL0     C 2368   7.873   6.342  11.708  0.4095 -0.2845 -0.6884
  759MOL0     C 2369   7.879   6.200  11.779 -0.8243 -0.6842 -0.1872
  759MOL0     C 2370   7.783   6.192  11.897  0.0363  0.3386  0.1045
  759MOL0     C 2371   7.633   6.166  11.855  0.1438 -0.0361  0.8583
  759MOL0     C 2372   7.580   6.027  11.876 -0.1637  0.2646  0.3884
  759MOL0     C 2373   7.443   6.002  11.810  0.9081  0.2605 -0.4466
  759MOL0    Cl 2374   7.405   5.828  11.828  0.1751 -0.5274  0.4238
  759MOL0     C 2375   7.691   6.595  11.552 -0.1456 -0.4451  0.7987
  759MOL0     C 2376   7.581   6.683  11.552 -0.1211  0.2764 -1.1863
  759MOL0     O 2377   7.299   6.617  11.513 -0.0765 -0.1264  0.2481
  759MOL0     C 2378   7.050   6.740  11.551  0.3250  0.1343  1.3888
  759MOL0     C 2379   6.923   6.802  11.573  0.5079  0.0791 -0.6155
  759MOL0     N 2380   6.393   7.164  11.081 -0.8013  0.5524  0.0669
  759MOL0     N 2381   6.294   7.237  11.040  0.4945  0.2239  0.6945
  759MOL0     C 2382   5.259   7.380  10.419 -0.1709  0.0133 -0.1724
  759MOL0     C 2383   5.182   7.460  10.335  0.1943  0.1105 -0.1489
  759MOL0     C 2384   4.945   7.746  10.091  0.4161  0.1119 -0.3930
  759MOL0     C 2385   5.034   7.839  10.021 -0.2715  0.5518  0.5495
  759MOL0     C 2386   4.988   7.926   9.925 -0.5582 -0.1971  0.2288
  759MOL0     C 2387   4.855   7.911   9.881 -0.4024  0.2788  0.4761
  759MOL0     O 2388   4.814   7.985   9.779 -0.1812  0.7375  0.4552
  759MOL0     C 2389   4.700   8.068   9.769  0.3720  0.3260 -0.2920
  759MOL0     C 2390   4.710   8.189   9.868 -0.1945 -1.0643  0.6972
  759MOL0     C 2391   4.636   8.315   9.812 -0.7923  0.0312  0.1340
  759MOL0     C 2392   4.641   8.435   9.901  0.7257  0.4281 -0.5890
  759MOL0     C 2393   4.522   8.442   9.995 -0.7161 -0.9283 -0.2237
  759MOL0     C 2394   4.432   8.456  10.080 -0.5743 -0.2718 -0.4694
  759MOL0     C 2395   4.763   7.837   9.953  0.0778  0.4204 -0.1924
  759MOL0     C 2396   4.805   7.750  10.060  0.2111 -0.2118  0.7845
  759MOL0     C 2397   4.695   7.667  10.116  0.6802 -0.4271 -0.7026
  759MOL0     H 2398   5.340   7.757  10.373 -2.2071  0.6775 -1.2325
  759MOL0     H 2399   5.482   7.596  10.511 -0.5126  0.7625 -0.2006
  759MOL0     H 2400   5.317   7.208  10.611 -0.0076 -1.1388  2.2920
  759MOL0     H 2401   5.484   7.184  10.524  3.7234  1.7341  2.5641
  759MOL0     H 2402   5.479   7.076  10.724 -2.0202  0.1015 -0.8336
  759MOL0     H 2403   5.442   7.210  10.818  1.0192 -0.8826  0.7575
  759MOL0     H 2404   5.638   7.335  10.746 -4.1810  0.5347 -3.5560
  759MOL0     H 2405   5.690   7.203  10.638  2.0164 -0.4693 -0.0773
  759MOL0     H 2406   5.661   7.155  10.947 -3.2179 -0.9346 -0.8184
  759MOL0     H 2407   5.704   7.037  10.829 -1.8038  0.0172 -1.5646
  759MOL0     H 2408   5.906   7.106  10.930 -0.0218  2.3734  1.2350
  759MOL0     H 2409   5.905   7.177  10.764 -1.5569  0.4625 -1.0376
  759MOL0     H 2410   5.861   7.374  10.827  1.4641  1.2122  1.7468
  759MOL0     H 2411   5.816   7.335  11.002  0.1471  0.0518  0.7383
  759MOL0     H 2412   6.044   7.442  10.951 -2.3671 -0.4090 -2.1003
  759MOL0     H 2413   6.094   7.294  10.890  1.8457  0.0813  1.3958
  759MOL0     H 2414   6.032   7.371  11.172 -3.0874  1.5445 -1.5880
  759MOL0     H 2415   5.982   7.203  11.122  1.3728 -1.9237 -1.9399
  759MOL0     H 2416   6.165   7.133  11.317  1.2884 -0.0931  0.4493
  759MOL0     H 2417   6.438   7.109  11.388 -1.7912  0.1233  0.6621
  759MOL0     H 2418   6.352   6.962  11.349 -1.4352  1.0236 -0.0197
  759MOL0     H 2419   6.529   6.893  11.195  0.3093  0.2124 -0.1575
  759MOL0     H 2420   6.610   7.044  11.209 -2.0480  0.7267 -1.5387
  759MOL0     H 2421   6.729   6.871  11.335  1.6659  0.0294  2.0697
  759MOL0     H 2422   6.593   6.848  11.444 -1.1264  0.6942  0.3940
  759MOL0     H 2423   6.624   7.104  11.511  0.6512 -0.0494  1.7792
  759MOL0     H 2424   6.774   7.095  11.403 -0.6811  1.1905 -0.0571
  759MOL0     H 2425   7.001   7.120  11.521 -1.9300 -0.3652 -0.1134
  759MOL0     H 2426   7.222   7.026  11.504  0.6779  0.5408 -0.9935
  759MOL0     H 2427   7.550   6.757  11.230  2.3267 -1.3037 -2.5345
  759MOL0     H 2428   7.776   6.655  11.232 -0.1258  2.2226 -0.9162
  759MOL0     H 2429   8.072   6.499  11.486 -0.4005 -1.2213 -1.3195
  759MOL0     H 2430   7.971   6.581  11.607 -0.5386  0.6797 -0.3880
  759MOL0     H 2431   7.972   6.280  11.533 -2.9620 -0.1827  0.2847
  759MOL0     H 2432   8.072   6.369  11.658 -0.8530  1.5419 -0.0620
  759MOL0     H 2433   7.875   6.427  11.775  0.0929  1.1389 -2.4070
  759MOL0     H 2434   7.769   6.339  11.673 -0.0795  1.6627  0.4773
  759MOL0     H 2435   7.982   6.193  11.815 -1.2015  2.4886  1.9332
  759MOL0     H 2436   7.855   6.129  11.700 -0.6293  0.6051 -1.4438
  759MOL0     H 2437   7.795   6.290  11.944 -0.4376  0.6229 -0.3528
  759MOL0     H 2438   7.822   6.114  11.963 -1.7793 -2.7194 -2.1621
  759MOL0     H 2439   7.571   6.231  11.918  1.8933  2.2731  0.3210
  759MOL0     H 2440   7.612   6.198  11.752 -0.3980  1.5836  1.4307
  759MOL0     H 2441   7.580   6.003  11.983  2.4956  1.3227  0.7015
  759MOL0     H 2442   7.649   5.956  11.829 -0.5793  0.3247 -0.3403
  759MOL0     H 2443   7.360   6.056  11.856  0.5394 -0.0466 -0.7425
  759MOL0     H 2444   7.451   6.016  11.702  0.6219  0.0633 -0.4934
  759MOL0     H 2445   7.719   6.532  11.635  6.1406 -2.3637 -2.1392
  759MOL0     H 2446   7.528   6.688  11.647 -1.5332  0.3026 -1.9592
  759MOL0     H 2447   7.057   6.631  11.555  0.6762  0.0606 -0.4654
  759MOL0     H 2448   6.833   6.742  11.582  0.0464  0.7863 -0.4651
  759MOL0     H 2449   5.246   7.273  10.425 -0.4863  0.1204  1.4440
  759MOL0     H 2450   5.103   7.396  10.298 -0.1171  0.2710  0.2310
  759MOL0     H 2451   5.141   7.848  10.031 -0.0463  2.0038 -2.1563
  759MOL0     H 2452   5.057   7.988   9.868 -0.8720  0.5641  0.6625
  759MOL0     H 2453   4.607   8.014   9.787  1.0358 -1.0398 -0.7700
  759MOL0     H 2454   4.710   8.110   9.669  1.3887 -1.0829 -0.8149
  759MOL0     H 2455   4.816   8.214   9.881 -0.5965  0.8680  0.6152
  759MOL0     H 2456   4.669   8.148   9.961 -3.0054 -0.5470 -0.2080
  759MOL0     H 2457   4.534   8.277   9.803  0.4746 -3.0827 -3.2418
  759MOL0     H 2458   4.679   8.339   9.715  0.7698 -1.8865  0.2850
  759MOL0     H 2459   4.733   8.443   9.960  0.6813  1.6768 -0.6485
  759MOL0     H 2460   4.632   8.533   9.852  1.4051  1.9153  2.0861
  759MOL0     H 2461   4.362   8.477  10.158 -1.1743 -0.4460 -0.9507
  759MOL0     H 2462   4.658   7.842   9.925 -0.2315 -0.5819  0.7237
  759MOL0     H 2463   4.681   7.694  10.221 -1.2767 -0.6925 -0.8517
  759MOL0     H 2464   4.606   7.682  10.054 -0.3357 -1.5168  0.4370
  759MOL0     H 2465   4.719   7.562  10.097 -3.2510 -1.2349 -2.2374
  760MOL0     O 2466  10.033   7.468   3.834  0.2165  0.1105  0.0141
  760MOL0     C 2467   9.999   7.558   3.907  0.0818 -0.2363 -0.1480
  760MOL0     O 2468  10.085   7.625   3.996 -0.8003  0.2158 -0.0476
  760MOL0     C 2469  10.221   7.597   3.985 -0.0719  0.4374 -1.5522
  760MOL0     C 2470  10.286   7.483   4.049  0.8024  0.3171 -0.3951
  760MOL0     C 2471  10.423   7.467   4.044 -0.6565  0.8106 -0.3050
  760MOL0     C 2472  10.507   7.547   3.968  0.3532 -0.2090 -0.2145
  760MOL0     O 2473  10.634   7.501   3.970 -0.2860  0.1089 -0.0094
  760MOL0     C 2474  10.730   7.589   3.908  0.5295  0.3302 -0.2879
  760MOL0     C 2475  10.860   7.518   3.898 -0.2332  0.5085 -0.4642
  760MOL0     C 2476  10.971   7.591   3.822  0.1119 -0.4555 -0.3890
  760MOL0     C 2477  11.090   7.501   3.818  0.6531 -0.8177 -0.4364
  760MOL0     C 2478  11.210   7.576   3.755  0.2732  0.0465 -1.0789
  760MOL0     C 2479  11.275   7.655   3.870  0.0280  0.1824  0.3326
  760MOL0     C 2480  11.401   7.731   3.815  0.4188  0.8449  0.8411
  760MOL0     C 2481  11.468   7.809   3.926 -0.1801 -0.0524 -0.6661
  760MOL0     N 2482  11.607   7.855   3.896  0.2423 -0.4615 -0.0885
  760MOL0     C 2483  11.722   7.776   3.903 -0.3602 -0.1890 -0.5129
  760MOL0     C 2484  11.822   7.869   3.891  0.6140 -0.3071  0.3615
  760MOL0     C 2485  11.962   7.842   3.893 -0.1553  0.1847  0.2198
  760MOL0     C 2486  12.035   7.846   4.034 -1.0666  0.1218 -0.0039
  760MOL0     C 2487  12.026   7.997   4.079  0.3073 -0.7189 -0.0139
  760MOL0     C 2488  12.105   8.032   4.209 -0.0986  0.0064 -0.5626
  760MOL0     O 2489  12.249   8.022   4.179  0.3485 -0.1087 -0.3737
  760MOL0     C 2490  12.337   8.104   4.251  0.5480  0.9072 -0.0585
  760MOL0     C 2491  12.448   8.137   4.179 -0.0617  0.1023 -0.5991
  760MOL0     C 2492  12.545   8.222   4.234  0.2011  0.4211 -0.3030
  760MOL0     C 2493  12.535   8.259   4.373  0.0746  0.7365 -0.5960
  760MOL0     C 2494  12.642   8.318   4.446 -0.3477  0.3750 -0.7848
  760MOL0     O 2495  12.770   8.276   4.413  0.9453  0.0882  0.5566
  760MOL0     C 2496  12.879   8.334   4.466 -0.2275 -0.7385 -0.4708
  760MOL0     C 2497  12.886   8.462   4.517 -0.1550  0.1054  0.2890
  760MOL0     C 2498  13.001   8.523   4.550 -1.3264 -0.6488 -0.2796
  760MOL0     C 2499  13.116   8.441   4.559 -0.2693 -0.9059  0.1712
  760MOL0     O 2500  13.241   8.494   4.584  0.3329  0.6439 -0.9817
  760MOL0     C 2501  13.264   8.638   4.591 -0.7280  0.1031 -0.0344
  760MOL0     C 2502  13.406   8.664   4.562 -0.5744 -0.0036  1.0641
  760MOL0     C 2503  13.439   8.808   4.605 -0.8902 -0.3471 -0.7793
  760MOL0     C 2504  13.368   8.915   4.520  0.7201  0.5258  0.0636
  760MOL0     C 2505  13.380   9.063   4.573 -0.3710  0.1616  0.2060
  760MOL0     C 2506  13.520   9.109   4.542  0.1603  0.1256  0.2998
  760MOL0     C 2507  13.567   9.208   4.640  0.1493 -0.7815 -0.5554
  760MOL0     C 2508  13.715   9.251   4.606  0.3688  0.1172  1.2197
  760MOL0    Cl 2509  13.725   9.329   4.442  0.2259 -0.5861  0.2975
  760MOL0     C 2510  13.107   8.306   4.527 -0.1784  0.6406 -0.4563
  760MOL0     C 2511  12.988   8.256   4.479 -0.3813 -0.1508 -0.7336
  760MOL0     O 2512  12.609   8.390   4.543 -0.4497  0.0263 -0.7679
  760MOL0     C 2513  12.420   8.227   4.440 -0.8849  0.1577  0.2855
  760MOL0     C 2514  12.320   8.157   4.377 -0.6198 -0.1005 -0.6288
  760MOL0     N 2515  11.773   7.992   3.887  0.3565  0.6472 -0.3308
  760MOL0     N 2516  11.644   7.985   3.890  0.2719 -0.3233  0.1453
  760MOL0     C 2517  10.450   7.655   3.899  0.5761 -0.2197  0.4900
  760MOL0     C 2518  10.306   7.674   3.912 -0.3447 -0.1317 -0.7776
  760MOL0     C 2519   9.846   7.585   3.904 -1.0269 -0.3622  0.0164
  760MOL0     C 2520   9.801   7.659   4.011  0.0840 -0.4996 -0.6165
  760MOL0     C 2521   9.667   7.670   4.033 -0.8205 -0.9981  0.4120
  760MOL0     C 2522   9.572   7.637   3.947  0.6568 -0.3181  0.9935
  760MOL0     O 2523   9.447   7.684   3.985  0.4224  0.6186  0.1422
  760MOL0     C 2524   9.344   7.638   3.903 -0.7238  0.6789  0.1144
  760MOL0     C 2525   9.207   7.673   3.961  0.2799  0.1667  0.0973
  760MOL0     C 2526   9.089   7.603   3.882  0.0615  0.3616  0.0506
  760MOL0     C 2527   8.961   7.584   3.972 -0.3059  0.5630  0.4151
  760MOL0     C 2528   8.887   7.462   3.931 -0.0267  0.6815 -0.1429
  760MOL0     C 2529   8.835   7.355   3.893 -0.2588  0.0836 -0.2538
  760MOL0     C 2530   9.613   7.568   3.826 -0.5838 -0.7846 -0.1354
  760MOL0     C 2531   9.753   7.542   3.808  0.8367 -0.0095 -0.8364
  760MOL0     C 2532   9.807   7.464   3.693 -0.2802  0.3363  0.7910
  760MOL0     H 2533  10.229   7.418   4.115  0.4759  2.6349  1.7504
  760MOL0     H 2534  10.473   7.394   4.107 -0.8720 -0.0152 -1.0691
  760MOL0     H 2535  10.696   7.608   3.805 -0.4175 -3.5879 -0.8761
  760MOL0     H 2536  10.730   7.688   3.956  0.9705  0.5505 -0.7301
  760MOL0     H 2537  10.831   7.424   3.852 -0.9505  0.0391  0.8762
  760MOL0     H 2538  10.883   7.502   4.004  2.3745 -0.0225 -1.0427
  760MOL0     H 2539  10.990   7.682   3.880 -0.5046 -0.7557  0.3114
  760MOL0     H 2540  10.939   7.633   3.727 -1.0882 -3.0827 -1.2421
  760MOL0     H 2541  11.123   7.479   3.920  2.2452 -0.4810 -0.8482
  760MOL0     H 2542  11.062   7.419   3.751 -1.6331  0.6787 -1.4218
  760MOL0     H 2543  11.284   7.503   3.723 -1.5930 -2.3638 -0.2271
  760MOL0     H 2544  11.178   7.640   3.672 -1.2363  0.0198 -0.5550
  760MOL0     H 2545  11.200   7.724   3.910  2.3218  2.4313  1.0467
  760MOL0     H 2546  11.298   7.589   3.954 -0.1549  1.1937  1.2069
  760MOL0     H 2547  11.366   7.802   3.740  0.6135  0.1786  0.1044
  760MOL0     H 2548  11.459   7.652   3.765 -0.5457  0.8150 -0.2536
  760MOL0     H 2549  11.401   7.892   3.946 -0.9980 -1.2341  1.8642
  760MOL0     H 2550  11.461   7.760   4.024  0.4386  2.5554  0.7559
  760MOL0     H 2551  11.738   7.672   3.931 -1.7134 -0.7280 -1.5887
  760MOL0     H 2552  11.970   7.743   3.848 -1.8157  0.4253 -0.6969
  760MOL0     H 2553  12.005   7.912   3.821 -2.9411  0.5367 -1.2206
  760MOL0     H 2554  11.982   7.782   4.106 -0.2860 -1.4848 -0.8028
  760MOL0     H 2555  12.135   7.804   4.023 -0.3581  1.6973  0.1268
  760MOL0     H 2556  11.923   8.025   4.100  0.4809  0.6038 -0.8549
  760MOL0     H 2557  12.056   8.062   3.997 -0.6186  1.3154  1.1839
  760MOL0     H 2558  12.071   7.965   4.289 -0.4622 -0.7858 -1.3634
  760MOL0     H 2559  12.085   8.137   4.230 -0.7941  0.0282 -1.2542
  760MOL0     H 2560  12.448   8.111   4.074 -0.0849 -0.4100 -0.4749
  760MOL0     H 2561  12.627   8.254   4.170 -0.6435  2.1762 -0.5487
  760MOL0     H 2562  12.797   8.524   4.521 -0.1795  0.0682  0.3186
  760MOL0     H 2563  13.016   8.619   4.599 -1.2691 -1.8550  2.2196
  760MOL0     H 2564  13.202   8.692   4.519  0.3926  0.8405 -0.4700
  760MOL0     H 2565  13.242   8.668   4.694 -2.6723  3.1209 -1.2124
  760MOL0     H 2566  13.468   8.590   4.613 -0.5126  0.0170  1.0199
  760MOL0     H 2567  13.424   8.653   4.454 -3.6305 -2.5684  0.6849
  760MOL0     H 2568  13.413   8.818   4.711  4.7540 -0.2978  0.9356
  760MOL0     H 2569  13.548   8.819   4.611 -0.4781 -2.2705 -3.1808
  760MOL0     H 2570  13.260   8.898   4.523  0.5255  1.5597  3.3228
  760MOL0     H 2571  13.404   8.899   4.418 -0.4480  0.6955 -0.3917
  760MOL0     H 2572  13.359   9.072   4.680  1.0460  2.5529  0.3735
  760MOL0     H 2573  13.304   9.124   4.524 -0.5727  0.8806  1.3759
  760MOL0     H 2574  13.590   9.025   4.555  1.4135  1.2846  1.4182
  760MOL0     H 2575  13.512   9.147   4.440 -1.3998  2.2700  1.1647
  760MOL0     H 2576  13.560   9.168   4.741  0.8162  1.3357  0.4036
  760MOL0     H 2577  13.519   9.306   4.631  0.7393 -0.1754  2.0578
  760MOL0     H 2578  13.766   9.314   4.679  2.4106 -0.7739  0.6488
  760MOL0     H 2579  13.772   9.158   4.600  0.0675 -0.0720  1.2314
  760MOL0     H 2580  13.195   8.242   4.526 -0.7305 -0.1276 -1.2024
  760MOL0     H 2581  12.995   8.153   4.447 -0.1366 -0.0351 -1.0624
  760MOL0     H 2582  12.406   8.254   4.545  0.2957 -1.3760  0.8880
  760MOL0     H 2583  12.228   8.129   4.428 -0.5300  0.7614  0.0470
  760MOL0     H 2584  10.510   7.730   3.848  0.6788 -1.3390 -1.1221
  760MOL0     H 2585  10.275   7.760   3.853  1.8845  1.5569  0.3861
  760MOL0     H 2586   9.866   7.711   4.081 -1.0079  0.1953 -0.1002
  760MOL0     H 2587   9.627   7.722   4.120 -1.6672 -1.9352  0.6080
  760MOL0     H 2588   9.352   7.529   3.893 -1.5136  0.5088  1.1168
  760MOL0     H 2589   9.357   7.678   3.802 -1.3186 -2.1278 -1.1998
  760MOL0     H 2590   9.192   7.782   3.960  1.8320  0.4793  2.3054
  760MOL0     H 2591   9.207   7.637   4.064  0.6915  2.3782  0.9309
  760MOL0     H 2592   9.126   7.504   3.853  0.1391 -0.2720  2.1479
  760MOL0     H 2593   9.062   7.655   3.789  1.7335 -1.8717 -1.8005
  760MOL0     H 2594   8.985   7.583   4.079 -4.1533 -0.3708  1.3925
  760MOL0     H 2595   8.899   7.673   3.962  1.1964  1.8629  2.0548
  760MOL0     H 2596   8.807   7.256   3.864 -3.9329  0.6705  0.7981
  760MOL0     H 2597   9.539   7.546   3.751 -1.5085 -0.8246  0.7637
  760MOL0     H 2598   9.835   7.362   3.722 -0.3802  0.1772  0.3371
  760MOL0     H 2599   9.724   7.452   3.622 -1.2712  2.1280  1.5901
  760MOL0     H 2600   9.890   7.512   3.639 -0.5001 -1.0687 -0.8788
  761MOL0     O 2601   6.190  10.122   0.330 -0.3357  0.9300  0.1221
  761MOL0     C 2602   6.132  10.161   0.227 -0.8507  0.0020 -0.2091
  761MOL0     O 2603   6.202  10.196   0.118  0.2962  0.1281 -0.2706
  761MOL0     C 2604   6.310  10.112   0.077 -1.4349 -0.6359 -0.1793
  761MOL0     C 2605   6.416  10.172   0.006 -0.6168  0.1610  0.0903
  761MOL0     C 2606   6.526  10.099  -0.044 -0.0357  0.1851  1.1409
  761MOL0     C 2607   6.533   9.958  -0.026 -1.1090 -0.2418 -0.4058
  761MOL0     O 2608   6.650   9.902  -0.075 -0.1275 -0.2130 -0.4579
  761MOL0     C 2609   6.677   9.763  -0.046  0.2407  0.2098  0.6311
  761MOL0     C 2610   6.807   9.715  -0.108 -0.3498 -1.0200  0.1450
  761MOL0     C 2611   6.917   9.746  -0.007 -0.8201 -0.5926  0.0094
  761MOL0     C 2612   7.054   9.701  -0.061 -0.4900  0.4428  1.0449
  761MOL0     C 2613   7.165   9.782   0.018  0.4923 -0.4408  0.2846
  761MOL0     C 2614   7.306   9.738  -0.036  0.2994 -0.3627  0.1352
  761MOL0     C 2615   7.415   9.813   0.042  0.0260  1.0855 -0.6147
  761MOL0     C 2616   7.405   9.965   0.055 -0.0671 -0.7486 -0.4448
  761MOL0     N 2617   7.542  10.028   0.057 -0.7182  0.2467 -0.3765
  761MOL0     C 2618   7.614  10.077  -0.048 -0.2090  0.0669 -0.0158
  761MOL0     C 2619   7.731  10.111  -0.003 -0.1619 -0.2125  0.1501
  761MOL0     C 2620   7.852  10.174  -0.062  0.1162 -0.0858  0.8387
  761MOL0     C 2621   7.982  10.134   0.002  0.1370  0.0290 -0.0365
  761MOL0     C 2622   8.013   9.993  -0.024  0.4609 -0.1445  0.6233
  761MOL0     C 2623   8.037   9.944  -0.177  0.2850  0.1739  0.3911
  761MOL0     O 2624   7.916   9.942  -0.256 -0.5321 -0.3863  0.0411
  761MOL0     C 2625   7.819   9.842  -0.247  0.0931 -1.2196 -0.0800
  761MOL0     C 2626   7.832   9.730  -0.164 -0.3124 -0.8161  0.7063
  761MOL0     C 2627   7.738   9.630  -0.158 -0.7930  0.1996  1.6482
  761MOL0     C 2628   7.630   9.631  -0.249  0.0153 -0.2675  0.5896
  761MOL0     C 2629   7.547   9.506  -0.264 -0.4721  0.2368 -0.7311
  761MOL0     O 2630   7.445   9.513  -0.357 -0.2217 -0.3180  0.6221
  761MOL0     C 2631   7.350   9.414  -0.336  0.2967  0.1904  0.2030
  761MOL0     C 2632   7.236   9.460  -0.276 -0.1039  0.1986  0.1063
  761MOL0     C 2633   7.135   9.367  -0.259 -0.0546 -0.3721 -0.0192
  761MOL0     C 2634   7.141   9.233  -0.285  0.7449 -0.7128  0.0225
  761MOL0     O 2635   7.029   9.154  -0.266 -0.0885 -0.8828 -0.0434
  761MOL0     C 2636   7.006   9.064  -0.373 -0.9991 -0.5765 -0.1878
  761MOL0     C 2637   6.878   8.988  -0.333 -0.1702 -0.1710  0.4166
  761MOL0     C 2638   6.755   9.080  -0.342 -1.4079  0.1673  0.4638
  761MOL0     C 2639   6.635   9.004  -0.284  0.1365  0.5073 -0.1263
  761MOL0     C 2640   6.510   9.086  -0.309 -0.1529 -0.6179 -0.6449
  761MOL0     C 2641   6.382   9.028  -0.245 -0.6002  0.6255 -0.5206
  761MOL0     C 2642   6.251   9.098  -0.307  0.2750 -0.4969 -0.9090
  761MOL0     C 2643   6.126   9.020  -0.246 -0.1056  0.9988  0.2196
  761MOL0    Cl 2644   5.979   9.122  -0.290 -0.1411  0.2469 -0.7063
  761MOL0     C 2645   7.264   9.184  -0.332  0.7794  0.1157 -0.0766
  761MOL0     C 2646   7.359   9.281  -0.364 -0.4056  0.3324  0.7115
  761MOL0     O 2647   7.581   9.410  -0.197 -0.3968 -0.9089  0.0456
  761MOL0     C 2648   7.612   9.749  -0.329 -0.0900  0.9348  0.1528
  761MOL0     C 2649   7.705   9.853  -0.334 -0.3812  0.9736  0.2480
  761MOL0     N 2650   7.729  10.079   0.137 -0.3725  0.0268 -0.2265
  761MOL0     N 2651   7.616  10.036   0.169 -0.0808 -0.4279  0.1550
  761MOL0     C 2652   6.432   9.892   0.049  0.1768 -0.5579 -0.9429
  761MOL0     C 2653   6.318   9.969   0.094  0.1850 -0.5607 -0.3301
  761MOL0     C 2654   5.985  10.180   0.228  0.5892  0.7306 -0.8621
  761MOL0     C 2655   5.929  10.209   0.108 -0.4424  0.3294 -0.5194
  761MOL0     C 2656   5.786  10.200   0.090  0.3681 -0.1296  0.1096
  761MOL0     C 2657   5.700  10.188   0.204  0.0774  1.2111  0.0730
  761MOL0     O 2658   5.565  10.208   0.168  0.2490  0.5380  0.2569
  761MOL0     C 2659   5.468  10.209   0.271 -0.0581  0.3419 -0.8391
  761MOL0     C 2660   5.324  10.255   0.230  0.4394  0.4789 -0.2956
  761MOL0     C 2661   5.224  10.278   0.344  0.6157  0.7038 -0.4401
  761MOL0     C 2662   5.074  10.278   0.304 -0.4372 -0.3453  0.1091
  761MOL0     C 2663   5.064  10.368   0.193  0.9405 -0.9468  0.3686
  761MOL0     C 2664   5.068  10.446   0.097  0.4987 -0.0444  0.6990
  761MOL0     C 2665   5.756  10.168   0.330  0.0953  0.6765  0.1750
  761MOL0     C 2666   5.895  10.166   0.349 -0.3203  0.3419  0.0312
  761MOL0     C 2667   5.952  10.129   0.487 -0.1206  0.8428 -0.8073
  761MOL0     H 2668   6.414  10.280  -0.006  3.3854  0.5667  1.5352
  761MOL0     H 2669   6.608  10.148  -0.095 -0.9514  0.8904  0.2909
  761MOL0     H 2670   6.671   9.734   0.060  2.6814  2.0869  1.3986
  761MOL0     H 2671   6.608   9.705  -0.107  1.5743  1.4575 -2.2179
  761MOL0     H 2672   6.834   9.766  -0.201  0.4164  1.5717  1.6893
  761MOL0     H 2673   6.795   9.610  -0.136  1.0335 -0.8512 -1.2367
  761MOL0     H 2674   6.903   9.696   0.089 -1.1299  0.7211  0.6725
  761MOL0     H 2675   6.923   9.855   0.008 -0.4093 -0.6637  0.3923
  761MOL0     H 2676   7.069   9.593  -0.054  0.3272  0.3642 -1.1920
  761MOL0     H 2677   7.063   9.726  -0.167 -1.2268  2.2871  1.3744
  761MOL0     H 2678   7.143   9.889   0.021  3.7687  0.4592 -1.9386
  761MOL0     H 2679   7.164   9.747   0.121 -0.7245 -2.2008 -0.2889
  761MOL0     H 2680   7.312   9.632  -0.008  0.3216 -0.2975  0.3792
  761MOL0     H 2681   7.314   9.755  -0.144  0.3297  2.1000  0.4790
  761MOL0     H 2682   7.503   9.769  -0.005 -1.4345 -3.1369  0.1716
  761MOL0     H 2683   7.420   9.771   0.143 -0.5036  0.2719 -0.9145
  761MOL0     H 2684   7.350  10.007  -0.029  2.5548  1.0742 -1.4003
  761MOL0     H 2685   7.353   9.992   0.147  3.1098 -0.8340  1.5500
  761MOL0     H 2686   7.574  10.078  -0.149 -1.9099 -0.0335  0.6213
  761MOL0     H 2687   7.851  10.153  -0.170  0.6244  1.7989  0.4259
  761MOL0     H 2688   7.842  10.282  -0.053  3.1857  0.3661 -0.1489
  761MOL0     H 2689   8.057  10.201  -0.041 -1.4917  0.9935 -1.5094
  761MOL0     H 2690   7.978  10.146   0.111 -0.1466  0.2967 -0.0745
  761MOL0     H 2691   7.933   9.932   0.019  0.2558 -0.6501 -0.4321
  761MOL0     H 2692   8.101   9.965   0.035  0.9086  1.4405  0.7477
  761MOL0     H 2693   8.086   9.846  -0.173  0.8442  0.4903  1.6331
  761MOL0     H 2694   8.110  10.012  -0.221  2.5217 -1.1859  1.8212
  761MOL0     H 2695   7.920   9.712  -0.102  0.4815 -2.3637 -0.8104
  761MOL0     H 2696   7.761   9.552  -0.086  0.7509  0.9758  2.0459
  761MOL0     H 2697   7.243   9.564  -0.249  0.4921  1.5455 -4.4133
  761MOL0     H 2698   7.042   9.399  -0.212  0.0773  0.6491 -0.4146
  761MOL0     H 2699   7.006   9.119  -0.467 -1.8153  1.4665  0.9487
  761MOL0     H 2700   7.088   8.991  -0.371  0.4194  0.9731  0.0237
  761MOL0     H 2701   6.876   8.908  -0.407 -0.6629  1.2588 -1.1829
  761MOL0     H 2702   6.889   8.948  -0.232 -2.2749 -0.7821  0.4530
  761MOL0     H 2703   6.768   9.168  -0.278 -0.5392  0.8634 -0.6376
  761MOL0     H 2704   6.743   9.119  -0.443  1.3676 -1.6013 -0.6674
  761MOL0     H 2705   6.649   8.975  -0.180 -2.4379 -1.5969 -0.2424
  761MOL0     H 2706   6.631   8.919  -0.353 -0.7139  0.1296  0.3633
  761MOL0     H 2707   6.494   9.106  -0.415 -0.2012 -1.9000 -0.8986
  761MOL0     H 2708   6.527   9.178  -0.253 -1.5001 -0.6339 -0.1934
  761MOL0     H 2709   6.374   8.923  -0.275  0.2635  0.7278 -1.1468
  761MOL0     H 2710   6.386   9.036  -0.136 -2.6199 -0.9107 -0.2676
  761MOL0     H 2711   6.249   9.090  -0.416 -0.1789 -4.3567 -0.7525
  761MOL0     H 2712   6.244   9.205  -0.285 -2.6571 -0.5306 -1.2822
  761MOL0     H 2713   6.114   8.923  -0.295 -2.8238  0.3546  1.9393
  761MOL0     H 2714   6.129   8.994  -0.139 -0.5886  0.3798  0.0897
  761MOL0     H 2715   7.281   9.080  -0.359  1.7622  0.4215 -0.7127
  761MOL0     H 2716   7.456   9.255  -0.406 -1.2064  0.7721 -1.5170
  761MOL0     H 2717   7.523   9.765  -0.390  1.1438  3.7999 -1.1013
  761MOL0     H 2718   7.710   9.942  -0.396 -0.1958  1.4765  0.9715
  761MOL0     H 2719   6.433   9.784   0.059  0.5031 -0.9018 -3.8215
  761MOL0     H 2720   6.239   9.906   0.135  1.4815 -0.5034  2.4196
  761MOL0     H 2721   5.996  10.215   0.023  1.8068 -2.0851  0.8965
  761MOL0     H 2722   5.739  10.225  -0.005  0.6216  0.8252  0.2236
  761MOL0     H 2723   5.512  10.270   0.350  0.8652  0.9506 -1.8053
  761MOL0     H 2724   5.457  10.114   0.324 -0.7388  0.3441 -0.9637
  761MOL0     H 2725   5.292  10.173   0.165 -1.0710  1.7982 -1.2835
  761MOL0     H 2726   5.337  10.350   0.177 -0.8845  1.7100  1.4775
  761MOL0     H 2727   5.248  10.375   0.389  2.2733 -0.4870  1.4260
  761MOL0     H 2728   5.243  10.200   0.419  5.0109 -0.4856 -2.4482
  761MOL0     H 2729   5.030  10.181   0.280 -2.4899  0.9965 -1.9455
  761MOL0     H 2730   5.022  10.317   0.392 -1.6374  0.2187 -0.8209
  761MOL0     H 2731   5.058  10.519   0.019 -2.6112 -0.4106  0.6274
  761MOL0     H 2732   5.692  10.163   0.418  0.8371  0.0377  0.6999
  761MOL0     H 2733   5.871  10.130   0.561  3.3011  3.4279  3.3343
  761MOL0     H 2734   5.991  10.028   0.473 -2.7520 -0.1346 -1.8279
  761MOL0     H 2735   6.026  10.198   0.527  0.5538 -0.4105  0.1875
  762MOL0     O 2736   6.861  10.551   0.734  0.4890 -0.0010 -0.0778
  762MOL0     C 2737   6.842  10.644   0.809 -0.3978  0.4331  0.5835
  762MOL0     O 2738   6.912  10.755   0.812 -0.1573 -0.5452  0.5840
  762MOL0     C 2739   7.018  10.775   0.728 -0.0066  0.2471 -0.2332
  762MOL0     C 2740   7.137  10.794   0.795 -0.7307  0.2143  0.5368
  762MOL0     C 2741   7.250  10.812   0.717 -0.1256 -0.6698 -0.2764
  762MOL0     C 2742   7.245  10.814   0.577  0.2726  0.1396  0.1350
  762MOL0     O 2743   7.365  10.841   0.528  0.7108  0.1326  0.1558
  762MOL0     C 2744   7.396  10.776   0.398  0.4650  0.4816 -0.5848
  762MOL0     C 2745   7.545  10.761   0.381  0.2491 -0.4223 -0.6511
  762MOL0     C 2746   7.608  10.894   0.379  0.0401 -0.1999 -0.5163
  762MOL0     C 2747   7.763  10.890   0.389  0.3941 -0.3345  0.1239
  762MOL0     C 2748   7.823  11.031   0.375 -0.1372 -0.8158  0.2542
  762MOL0     C 2749   7.976  11.035   0.386  0.2385  0.6843  0.4367
  762MOL0     C 2750   8.030  11.187   0.363  0.5715 -0.2561  0.4084
  762MOL0     C 2751   8.174  11.202   0.399  0.3240  0.3064  0.4011
  762MOL0     N 2752   8.226  11.329   0.338  0.9498 -0.6926  0.3351
  762MOL0     C 2753   8.273  11.342   0.211  0.8018  0.1620 -0.2493
  762MOL0     C 2754   8.317  11.466   0.198 -0.1406 -0.8255 -0.0549
  762MOL0     C 2755   8.379  11.527   0.073  0.7704  0.3123 -0.7305
  762MOL0     C 2756   8.298  11.620  -0.010 -0.1520 -0.1432  0.0407
  762MOL0     C 2757   8.283  11.561  -0.151  0.4912  0.0698  0.4278
  762MOL0     C 2758   8.152  11.470  -0.167 -0.2337 -0.6296  0.0002
  762MOL0     O 2759   8.032  11.549  -0.135 -0.3200  0.2663  0.2358
  762MOL0     C 2760   7.911  11.497  -0.171  0.5298 -0.5119  0.2648
  762MOL0     C 2761   7.802  11.587  -0.156 -0.5078 -0.0127 -0.5811
  762MOL0     C 2762   7.678  11.538  -0.187  0.1670 -0.3102 -0.4008
  762MOL0     C 2763   7.649  11.409  -0.226  0.2936  0.7922  0.4463
  762MOL0     C 2764   7.506  11.372  -0.258  0.5611 -0.0901  0.6248
  762MOL0     O 2765   7.482  11.261  -0.329  0.0583  0.3263  0.1096
  762MOL0     C 2766   7.362  11.207  -0.322  0.8161 -0.0829  0.2225
  762MOL0     C 2767   7.306  11.167  -0.202  0.7441  0.4242 -0.0196
  762MOL0     C 2768   7.184  11.100  -0.191  0.5635  0.5832 -0.4405
  762MOL0     C 2769   7.107  11.083  -0.309  0.3626  0.0237 -0.2561
  762MOL0     O 2770   6.984  11.026  -0.324  0.0357 -0.1992  0.1379
  762MOL0     C 2771   6.938  10.932  -0.221 -0.2913  0.3751  0.4255
  762MOL0     C 2772   6.812  10.840  -0.268 -0.5516 -0.0300 -0.4715
  762MOL0     C 2773   6.678  10.911  -0.291  0.6317  0.0693 -0.7095
  762MOL0     C 2774   6.590  10.919  -0.170 -0.9095  0.1262 -0.1684
  762MOL0     C 2775   6.451  10.955  -0.202  0.4314  0.0629 -0.1616
  762MOL0     C 2776   6.353  10.961  -0.083  0.1343  0.2702  0.0296
  762MOL0     C 2777   6.206  10.968  -0.134 -0.4860 -0.8506  0.1653
  762MOL0     C 2778   6.099  10.997  -0.021  0.4167 -0.4266  0.4095
  762MOL0    Cl 2779   5.942  10.917  -0.076 -0.0886 -0.2858 -0.0765
  762MOL0     C 2780   7.151  11.135  -0.430 -0.4507  0.3709 -0.0926
  762MOL0     C 2781   7.281  11.188  -0.432  0.4868  0.6099  0.3731
  762MOL0     O 2782   7.417  11.444  -0.208  0.4314  0.1185 -0.0970
  762MOL0     C 2783   7.759  11.321  -0.233 -0.5797  0.0232  0.3547
  762MOL0     C 2784   7.886  11.366  -0.207 -0.0400  0.5903 -0.3857
  762MOL0     N 2785   8.290  11.532   0.312 -1.3864  0.3564  0.0763
  762MOL0     N 2786   8.239  11.454   0.398  0.0546  0.6472  0.6781
  762MOL0     C 2787   7.130  10.783   0.511 -0.3160  0.1628  0.6770
  762MOL0     C 2788   7.018  10.766   0.593  0.3292  0.4683 -0.5060
  762MOL0     C 2789   6.726  10.626   0.903  1.1142  0.5150 -0.3277
  762MOL0     C 2790   6.603  10.575   0.842  0.3521 -0.8201 -0.4706
  762MOL0     C 2791   6.476  10.576   0.916  0.5389  0.6044  0.0381
  762MOL0     C 2792   6.485  10.614   1.052  0.3302  0.1749 -0.1074
  762MOL0     O 2793   6.377  10.611   1.134  0.4136  0.3287 -0.5027
  762MOL0     C 2794   6.242  10.603   1.081 -0.1507 -0.2592 -0.3904
  762MOL0     C 2795   6.134  10.600   1.189  0.0681 -0.8876  0.2017
  762MOL0     C 2796   6.006  10.541   1.125  0.2563  0.1461  0.1189
  762MOL0     C 2797   5.898  10.541   1.233  0.8525  0.7288 -0.0012
  762MOL0     C 2798   5.773  10.517   1.160 -0.0648 -0.2382  0.4965
  762MOL0     C 2799   5.679  10.489   1.094  1.2127 -0.9731  0.1554
  762MOL0     C 2800   6.599  10.654   1.106 -1.5633  0.1115 -1.0329
  762MOL0     C 2801   6.721  10.670   1.031 -0.5358  0.3131 -0.4213
  762MOL0     C 2802   6.839  10.720   1.098 -1.3640  0.0348 -1.2740
  762MOL0     H 2803   7.131  10.790   0.903  1.7924 -0.6077  0.6937
  762MOL0     H 2804   7.349  10.831   0.759  0.1997  2.5051 -2.1419
  762MOL0     H 2805   7.351  10.677   0.408  0.1687  0.8037  1.8343
  762MOL0     H 2806   7.354  10.829   0.312  0.5550  1.3409 -0.1047
  762MOL0     H 2807   7.575  10.724   0.283  1.4485  1.1025 -0.8796
  762MOL0     H 2808   7.585  10.702   0.464  0.0637  2.2691  1.4984
  762MOL0     H 2809   7.570  10.962   0.456  0.3259 -0.9067  0.2632
  762MOL0     H 2810   7.588  10.941   0.282 -0.4502  0.8064  0.0629
  762MOL0     H 2811   7.781  10.857   0.492  1.2255 -2.1102 -0.5423
  762MOL0     H 2812   7.811  10.815   0.325  3.1849  0.7466  0.8128
  762MOL0     H 2813   7.801  11.059   0.271  1.1612  1.3537  0.5091
  762MOL0     H 2814   7.770  11.097   0.444  1.2226  0.3914  0.2034
  762MOL0     H 2815   8.004  11.010   0.488  1.2749  0.8325  0.1998
  762MOL0     H 2816   8.031  10.958   0.331 -1.3112 -1.5920  1.9580
  762MOL0     H 2817   7.962  11.261   0.405  0.2725  1.3410 -2.6611
  762MOL0     H 2818   8.020  11.210   0.257 -1.2553  1.4224  0.8919
  762MOL0     H 2819   8.183  11.213   0.507  1.2718 -1.9072  0.5898
  762MOL0     H 2820   8.221  11.116   0.351  1.1671  1.6092 -1.2350
  762MOL0     H 2821   8.266  11.261   0.138 -2.6283  0.5015 -0.4988
  762MOL0     H 2822   8.471  11.579   0.100  0.9003 -0.4455  0.3718
  762MOL0     H 2823   8.404  11.435   0.019 -1.3969 -1.4925  1.1113
  762MOL0     H 2824   8.197  11.642   0.026 -0.4924  0.2263 -1.0932
  762MOL0     H 2825   8.352  11.714  -0.028  0.4109 -0.8101 -2.0014
  762MOL0     H 2826   8.368  11.502  -0.188  0.7493  0.0034  1.1065
  762MOL0     H 2827   8.261  11.642  -0.221 -1.3529  0.1654  1.0592
  762MOL0     H 2828   8.162  11.384  -0.100 -1.1510  0.1326  1.1551
  762MOL0     H 2829   8.146  11.445  -0.274 -1.7338  0.1483 -0.1290
  762MOL0     H 2830   7.837  11.689  -0.141 -0.9885 -0.0922  1.3315
  762MOL0     H 2831   7.602  11.614  -0.172  0.0794  0.2337 -3.1044
  762MOL0     H 2832   7.354  11.170  -0.105 -0.4616 -1.3806  0.6899
  762MOL0     H 2833   7.139  11.076  -0.096  0.0679 -2.7004 -1.4025
  762MOL0     H 2834   7.018  10.862  -0.195 -0.9110 -0.4805  0.0668
  762MOL0     H 2835   6.904  10.982  -0.130 -4.9170 -4.2867  1.7369
  762MOL0     H 2836   6.847  10.800  -0.364  0.0467 -1.5217  0.3478
  762MOL0     H 2837   6.806  10.755  -0.201 -1.5456  1.2342  1.1043
  762MOL0     H 2838   6.695  11.009  -0.336  0.1776  1.3888  1.8295
  762MOL0     H 2839   6.619  10.848  -0.358  0.1769  0.3849 -0.6038
  762MOL0     H 2840   6.628  10.994  -0.100  0.4429 -2.2424  1.7662
  762MOL0     H 2841   6.592  10.831  -0.106  0.0799  0.8596  0.8535
  762MOL0     H 2842   6.410  10.887  -0.276  0.9789 -1.8179  1.1927
  762MOL0     H 2843   6.447  11.057  -0.242 -3.3359  0.2926  0.4310
  762MOL0     H 2844   6.372  10.871  -0.025  3.5159 -0.2916 -1.6832
  762MOL0     H 2845   6.394  11.045  -0.026 -1.7683 -0.0975  2.0664
  762MOL0     H 2846   6.186  10.869  -0.174  1.7564 -0.1944 -2.9639
  762MOL0     H 2847   6.198  11.033  -0.221  2.1928  0.3089  0.6537
  762MOL0     H 2848   6.136  10.954   0.072 -1.2483 -0.7263  0.9593
  762MOL0     H 2849   6.091  11.105  -0.006 -2.5210 -0.3324 -1.1348
  762MOL0     H 2850   7.087  11.138  -0.518 -0.6047  2.5602  0.0394
  762MOL0     H 2851   7.317  11.220  -0.529  0.1236  0.6577  0.2515
  762MOL0     H 2852   7.749  11.218  -0.267  0.2931 -0.2296  0.8383
  762MOL0     H 2853   7.964  11.291  -0.208 -0.9350 -0.4775  1.9664
  762MOL0     H 2854   7.114  10.792   0.404  0.7887  0.6806  0.5453
  762MOL0     H 2855   6.926  10.750   0.537  0.0401 -1.0429  0.3397
  762MOL0     H 2856   6.591  10.546   0.738 -0.2064 -1.9916 -0.0974
  762MOL0     H 2857   6.382  10.555   0.868  0.1149  0.1812  1.0247
  762MOL0     H 2858   6.220  10.521   1.012 -0.1545 -0.3422 -0.2919
  762MOL0     H 2859   6.232  10.700   1.031 -0.3519 -0.1893 -0.2162
  762MOL0     H 2860   6.104  10.696   1.231 -2.2713 -2.1089  1.5736
  762MOL0     H 2861   6.175  10.528   1.261  0.2747 -0.0961  0.8807
  762MOL0     H 2862   6.030  10.436   1.112  1.6987  0.2454  1.5800
  762MOL0     H 2863   5.978  10.586   1.029  1.1710  0.6491  0.0729
  762MOL0     H 2864   5.907  10.463   1.309 -0.2776 -0.1466 -0.7475
  762MOL0     H 2865   5.874  10.638   1.277 -1.1021  0.4214 -0.3160
  762MOL0     H 2866   5.599  10.473   1.025  2.1043  0.9853 -1.4432
  762MOL0     H 2867   6.600  10.703   1.203 -1.2123  0.2683 -1.1140
  762MOL0     H 2868   6.902  10.633   1.118 -0.4666  0.9820  0.2516
  762MOL0     H 2869   6.902  10.792   1.045 -0.3924  0.8073  0.8211
  762MOL0     H 2870   6.816  10.766   1.195  1.7530  1.0849 -0.9218
  763MOL0     O 2871   3.750   9.760   7.472  0.4269 -0.2339  0.2164
  763MOL0     C 2872   3.631   9.725   7.464 -0.5541  1.2492  0.7064
  763MOL0     O 2873   3.591   9.594   7.505  0.0395 -0.6030  0.1033
  763MOL0     C 2874   3.670   9.510   7.579  0.1997  0.4470 -0.1213
  763MOL0     C 2875   3.680   9.522   7.723 -0.5930  0.4578  0.1173
  763MOL0     C 2876   3.753   9.421   7.789  0.3409 -0.8253  0.3000
  763MOL0     C 2877   3.807   9.305   7.720 -0.8054  0.0840  0.0048
  763MOL0     O 2878   3.873   9.207   7.788 -0.5323  0.0108  0.0120
  763MOL0     C 2879   3.956   9.116   7.717 -0.8264 -0.3602  0.3405
  763MOL0     C 2880   4.048   9.034   7.814  0.1069  0.5119  0.1672
  763MOL0     C 2881   3.980   8.912   7.876 -0.7389 -1.0138  0.0460
  763MOL0     C 2882   4.072   8.827   7.970 -0.2205 -0.6907 -0.3730
  763MOL0     C 2883   4.120   8.906   8.097  0.2202  0.8665 -0.4936
  763MOL0     C 2884   4.181   8.802   8.188 -0.2287 -0.2430 -0.3565
  763MOL0     C 2885   4.229   8.856   8.317  0.0520 -0.6627 -0.2947
  763MOL0     C 2886   4.285   8.749   8.408  0.6859  0.7182 -0.1226
  763MOL0     N 2887   4.407   8.686   8.363  0.6411 -0.1877 -0.3278
  763MOL0     C 2888   4.417   8.575   8.288 -0.6069 -0.1828 -0.1837
  763MOL0     C 2889   4.547   8.531   8.306 -0.6833  0.1150 -0.6667
  763MOL0     C 2890   4.614   8.408   8.243  1.1707  0.1601 -0.4010
  763MOL0     C 2891   4.697   8.445   8.119  0.3190  0.2817 -0.3701
  763MOL0     C 2892   4.851   8.450   8.136 -0.9646  0.4080  0.2052
  763MOL0     C 2893   4.891   8.550   8.255  0.2929  1.0215  0.0228
  763MOL0     O 2894   5.035   8.550   8.270  0.3390 -0.2464  0.6538
  763MOL0     C 2895   5.082   8.628   8.377  0.9130  0.5117  0.6238
  763MOL0     C 2896   5.013   8.721   8.454 -0.2427 -0.4901 -0.2626
  763MOL0     C 2897   5.077   8.787   8.562 -0.4921 -0.1837  0.0670
  763MOL0     C 2898   5.212   8.774   8.586 -0.1985 -0.5297 -0.5978
  763MOL0     C 2899   5.282   8.848   8.692  0.2908  1.3394 -0.5560
  763MOL0     O 2900   5.422   8.854   8.690  0.7742  0.6176  0.0505
  763MOL0     C 2901   5.496   8.942   8.765  0.0502  0.2660  0.7962
  763MOL0     C 2902   5.444   9.055   8.829 -0.2511  0.4152 -0.2574
  763MOL0     C 2903   5.528   9.135   8.904 -0.1535 -0.1106 -0.5931
  763MOL0     C 2904   5.663   9.102   8.926  0.3246  0.6860 -0.2073
  763MOL0     O 2905   5.757   9.159   9.017  0.2318 -0.0645 -0.1895
  763MOL0     C 2906   5.709   9.256   9.105 -0.8116 -0.3043 -0.4993
  763MOL0     C 2907   5.827   9.284   9.206 -0.0457 -0.1468  0.9393
  763MOL0     C 2908   5.854   9.163   9.291  0.0904  0.7606 -0.5264
  763MOL0     C 2909   5.976   9.197   9.386  1.1048 -0.3501  0.6185
  763MOL0     C 2910   5.957   9.337   9.464 -0.4803 -0.5637  0.1106
  763MOL0     C 2911   6.072   9.348   9.565  0.0251 -1.2514 -0.3550
  763MOL0     C 2912   6.079   9.487   9.634  0.0846  0.7762  0.2648
  763MOL0     C 2913   6.217   9.511   9.696 -0.9908 -0.9893  0.3660
  763MOL0    Cl 2914   6.205   9.622   9.839  0.1520  0.1811 -0.1466
  763MOL0     C 2915   5.714   8.997   8.845 -0.6697 -0.1319 -0.3187
  763MOL0     C 2916   5.632   8.920   8.772 -0.0742  0.5494  0.1354
  763MOL0     O 2917   5.211   8.901   8.781 -0.3718  1.1163  0.5216
  763MOL0     C 2918   5.281   8.689   8.499  0.2665 -0.0539  0.1956
  763MOL0     C 2919   5.217   8.611   8.402  0.0651  0.1953 -0.2856
  763MOL0     N 2920   4.607   8.614   8.399 -0.2783 -0.4450  0.2901
  763MOL0     N 2921   4.527   8.707   8.422 -0.2449 -0.7189 -0.3354
  763MOL0     C 2922   3.782   9.298   7.582  0.3782  0.2160  0.0761
  763MOL0     C 2923   3.721   9.399   7.512  0.5319 -0.3362 -0.0682
  763MOL0     C 2924   3.530   9.809   7.384 -0.9021 -0.1497  0.0622
  763MOL0     C 2925   3.399   9.757   7.385 -0.6371  0.1630 -0.0782
  763MOL0     C 2926   3.292   9.836   7.345 -0.0349  0.5703 -0.1193
  763MOL0     C 2927   3.317   9.968   7.304  0.3461 -0.8060 -0.6113
  763MOL0     O 2928   3.223  10.052   7.262  0.3354  0.3881 -0.5082
  763MOL0     C 2929   3.112   9.992   7.192 -0.6660 -0.3125  0.1716
  763MOL0     C 2930   3.026  10.087   7.126 -1.2933 -0.4485  0.6139
  763MOL0     C 2931   3.103  10.169   7.019  0.4662  0.8535 -0.0328
  763MOL0     C 2932   3.017  10.255   6.926  0.2948 -0.2754  0.1385
  763MOL0     C 2933   3.087  10.309   6.811 -0.6939 -0.6590 -0.2217
  763MOL0     C 2934   3.166  10.341   6.723  0.4223  0.3438 -1.4220
  763MOL0     C 2935   3.444  10.019   7.300 -0.7928 -0.1734 -0.9359
  763MOL0     C 2936   3.555   9.942   7.335  1.1021  0.0459  0.5892
  763MOL0     C 2937   3.694   9.988   7.320 -0.2118 -0.0771 -0.6409
  763MOL0     H 2938   3.664   9.622   7.762  2.0907  0.3645  1.6694
  763MOL0     H 2939   3.775   9.446   7.893 -1.5175  1.8831  0.1514
  763MOL0     H 2940   3.893   9.050   7.657 -1.3659 -1.5650  2.1365
  763MOL0     H 2941   4.017   9.169   7.644 -2.8389  1.8758  0.1325
  763MOL0     H 2942   4.074   9.104   7.894 -1.8816  2.6962 -0.9634
  763MOL0     H 2943   4.138   8.994   7.768  0.3527 -1.5241  2.2352
  763MOL0     H 2944   3.943   8.844   7.798  0.7337 -3.0603  1.0443
  763MOL0     H 2945   3.891   8.948   7.929 -0.8760 -1.3496  0.0481
  763MOL0     H 2946   4.016   8.738   7.998 -0.4906 -0.3083  0.3124
  763MOL0     H 2947   4.165   8.797   7.919  0.0386 -0.0747 -0.2713
  763MOL0     H 2948   4.196   8.979   8.070  0.0061  0.5495 -2.0902
  763MOL0     H 2949   4.028   8.955   8.130 -0.6120 -0.1623 -1.2011
  763MOL0     H 2950   4.111   8.721   8.211 -0.7396  0.8352  2.2904
  763MOL0     H 2951   4.271   8.761   8.141 -0.5995 -0.9252 -0.4860
  763MOL0     H 2952   4.139   8.889   8.369  0.0623 -1.6425  0.3803
  763MOL0     H 2953   4.308   8.931   8.309 -0.9104  0.4181 -0.0069
  763MOL0     H 2954   4.297   8.787   8.510 -0.6119 -1.2289  0.8313
  763MOL0     H 2955   4.216   8.665   8.422  1.1586  0.7925  3.6848
  763MOL0     H 2956   4.337   8.534   8.226 -1.1743  0.3332  0.1923
  763MOL0     H 2957   4.671   8.352   8.317 -0.2741 -0.8019  0.0417
  763MOL0     H 2958   4.533   8.338   8.219  0.9904  0.6642 -1.3351
  763MOL0     H 2959   4.666   8.377   8.040  4.6179 -2.5057  0.0097
  763MOL0     H 2960   4.660   8.543   8.087  1.6387  0.8558 -0.2004
  763MOL0     H 2961   4.901   8.487   8.047 -0.6110  0.8828  0.6000
  763MOL0     H 2962   4.886   8.348   8.157 -1.6147 -0.3042 -1.9414
  763MOL0     H 2963   4.847   8.515   8.349  1.6546  0.1466  0.3604
  763MOL0     H 2964   4.853   8.648   8.225 -1.9006 -0.8183 -3.8301
  763MOL0     H 2965   4.907   8.737   8.435 -0.4044 -0.2925  0.7295
  763MOL0     H 2966   5.018   8.853   8.625 -2.7256 -2.7825  0.9281
  763MOL0     H 2967   5.345   9.099   8.819 -0.1201  1.8923  3.3345
  763MOL0     H 2968   5.489   9.217   8.963  4.2428 -0.5823  3.6566
  763MOL0     H 2969   5.681   9.342   9.045 -1.8281 -1.1158 -1.2279
  763MOL0     H 2970   5.620   9.218   9.156 -1.1559 -0.3664 -1.1436
  763MOL0     H 2971   5.913   9.313   9.146  2.4750 -2.2072  3.2884
  763MOL0     H 2972   5.781   9.358   9.272 -2.2588 -1.8538  1.4399
  763MOL0     H 2973   5.766   9.146   9.354 -0.2093  0.1699 -1.0925
  763MOL0     H 2974   5.873   9.071   9.234 -1.0618 -0.7966  1.4620
  763MOL0     H 2975   6.071   9.204   9.333 -0.4464  2.8656 -2.1366
  763MOL0     H 2976   5.977   9.112   9.455 -2.4495 -0.8996  0.2163
  763MOL0     H 2977   5.867   9.363   9.520  0.6903  0.5825  1.5383
  763MOL0     H 2978   5.959   9.428   9.403  0.8576 -0.2326  0.6079
  763MOL0     H 2979   6.077   9.273   9.645  2.4655  0.3309  1.1264
  763MOL0     H 2980   6.162   9.338   9.504  0.5315  0.7156 -0.0060
  763MOL0     H 2981   6.003   9.488   9.713 -1.8268 -1.9615 -1.3869
  763MOL0     H 2982   6.057   9.564   9.560  2.6137  0.9497 -0.3814
  763MOL0     H 2983   6.254   9.413   9.729  0.4791 -0.9788 -1.1369
  763MOL0     H 2984   6.281   9.555   9.619 -3.6821 -1.4816 -2.3392
  763MOL0     H 2985   5.822   8.987   8.844 -0.6218  0.3452 -1.2574
  763MOL0     H 2986   5.657   8.830   8.717 -1.8511  0.2124 -0.1717
  763MOL0     H 2987   5.389   8.675   8.500  0.8121  3.4160  0.1224
  763MOL0     H 2988   5.277   8.531   8.359 -0.7276  0.4719 -2.0202
  763MOL0     H 2989   3.815   9.214   7.521 -0.9868 -0.5317  0.3471
  763MOL0     H 2990   3.705   9.396   7.405 -0.5797 -0.4795  0.0906
  763MOL0     H 2991   3.371   9.657   7.417 -3.0668  1.0942  0.9714
  763MOL0     H 2992   3.189   9.801   7.343 -0.1302  0.8549 -0.1529
  763MOL0     H 2993   3.057   9.935   7.268  1.5879 -1.5756  0.9636
  763MOL0     H 2994   3.146   9.917   7.119 -0.0932 -0.2707  0.3895
  763MOL0     H 2995   2.998  10.168   7.195 -0.3809 -0.7557  1.3681
  763MOL0     H 2996   2.937  10.037   7.089 -1.9453 -0.4141  2.0573
  763MOL0     H 2997   3.147  10.097   6.950 -0.2051  1.4296 -1.0872
  763MOL0     H 2998   3.181  10.231   7.066 -0.9840  1.4254  1.7478
  763MOL0     H 2999   2.931  10.204   6.883 -0.4706 -0.5637  1.9206
  763MOL0     H 3000   2.989  10.336   6.993  1.5528  0.0452  0.3081
  763MOL0     H 3001   3.223  10.377   6.640  2.0582 -1.0041 -0.9426
  763MOL0     H 3002   3.460  10.119   7.261 -1.2782  0.6588  0.8577
  763MOL0     H 3003   3.766   9.920   7.274  1.1222  0.0316  1.1560
  763MOL0     H 3004   3.692  10.091   7.283 -0.9540 -0.1185 -0.7152
  763MOL0     H 3005   3.730   9.993   7.424 -0.1335  4.5014 -0.6826
  764MOL0     O 3006  10.265   5.182   1.102  0.0946  0.0663  0.1561
  764MOL0     C 3007  10.205   5.195   1.002 -0.1304 -0.2361 -0.6549
  764MOL0     O 3008  10.252   5.247   0.887 -0.4633 -0.5905  0.1639
  764MOL0     C 3009  10.391   5.262   0.863 -0.3678  1.2933 -0.3863
  764MOL0     C 3010  10.500   5.199   0.919 -0.2190 -0.0206 -0.4256
  764MOL0     C 3011  10.628   5.227   0.868 -0.4755 -0.6574 -0.1889
  764MOL0     C 3012  10.649   5.305   0.758 -1.1130  0.5085 -0.1045
  764MOL0     O 3013  10.774   5.317   0.719 -0.1530  0.1971 -1.1445
  764MOL0     C 3014  10.816   5.450   0.678 -1.2149  0.1452 -0.2417
  764MOL0     C 3015  10.961   5.455   0.627 -0.0445  0.4992  0.6513
  764MOL0     C 3016  10.994   5.594   0.569 -0.2824 -0.7648 -0.1082
  764MOL0     C 3017  11.146   5.601   0.554  0.4509  0.2187  0.4157
  764MOL0     C 3018  11.190   5.750   0.563 -0.6174 -0.0960  0.0753
  764MOL0     C 3019  11.340   5.756   0.512  0.3999  0.4330  0.3920
  764MOL0     C 3020  11.415   5.884   0.556 -0.1767 -0.1150  0.1741
  764MOL0     C 3021  11.367   6.012   0.479 -0.7356 -0.1144 -0.4510
  764MOL0     N 3022  11.462   6.121   0.496  0.9626 -0.4651  0.0321
  764MOL0     C 3023  11.463   6.236   0.423  0.8118 -0.8532  0.1594
  764MOL0     C 3024  11.558   6.310   0.482 -0.4853 -1.2494  0.8634
  764MOL0     C 3025  11.599   6.452   0.447 -0.9698 -0.3918 -0.2659
  764MOL0     C 3026  11.756   6.450   0.430  0.0820 -0.0039 -0.7233
  764MOL0     C 3027  11.806   6.586   0.391 -0.3165 -0.8362  0.1607
  764MOL0     C 3028  11.962   6.593   0.380  0.2221 -0.3289 -0.1339
  764MOL0     O 3029  12.023   6.621   0.503  0.0445 -0.1896  0.0548
  764MOL0     C 3030  12.153   6.655   0.503  0.1122 -0.0435  0.8692
  764MOL0     C 3031  12.202   6.752   0.594  0.7146 -0.6595  0.4858
  764MOL0     C 3032  12.329   6.794   0.607  0.1578  0.0122 -0.4866
  764MOL0     C 3033  12.433   6.734   0.525  0.3614  0.2117 -0.0738
  764MOL0     C 3034  12.571   6.777   0.532 -1.1752 -0.4506 -0.3528
  764MOL0     O 3035  12.659   6.735   0.431  0.1088 -0.2735  0.8078
  764MOL0     C 3036  12.796   6.743   0.430 -0.0655  0.9018  0.3690
  764MOL0     C 3037  12.861   6.643   0.355 -0.6456  0.0106 -0.0059
  764MOL0     C 3038  13.001   6.642   0.341 -0.0163  0.4528 -0.0803
  764MOL0     C 3039  13.076   6.754   0.387 -0.8503  0.2733  0.6801
  764MOL0     O 3040  13.207   6.764   0.365 -0.0134 -0.2362  0.0016
  764MOL0     C 3041  13.281   6.664   0.297  0.6641 -0.4470  0.3213
  764MOL0     C 3042  13.419   6.730   0.269  0.1298  0.2325  0.2246
  764MOL0     C 3043  13.497   6.618   0.199 -0.0567 -0.4420  0.6105
  764MOL0     C 3044  13.637   6.667   0.157  0.0634 -0.2173 -0.7657
  764MOL0     C 3045  13.717   6.554   0.082  1.0306  0.2201 -0.2587
  764MOL0     C 3046  13.844   6.610   0.029  0.6134  0.0341 -0.3336
  764MOL0     C 3047  13.932   6.493  -0.025  0.1988  0.9656 -0.0745
  764MOL0     C 3048  14.073   6.544  -0.039  0.4298 -0.4406 -0.1119
  764MOL0    Cl 3049  14.170   6.431  -0.132 -0.0679 -0.0392  0.0109
  764MOL0     C 3050  13.014   6.853   0.464  0.3320  0.2839  0.9250
  764MOL0     C 3051  12.871   6.848   0.486  0.1127 -0.7344  1.1872
  764MOL0     O 3052  12.609   6.846   0.631 -0.6648 -0.1739  0.2257
  764MOL0     C 3053  12.387   6.637   0.433  0.9029 -0.6859 -1.0280
  764MOL0     C 3054  12.254   6.601   0.413 -0.0996 -0.6060 -0.6828
  764MOL0     N 3055  11.604   6.247   0.591 -0.3107  0.2769  0.4944
  764MOL0     N 3056  11.539   6.137   0.611 -0.0521  0.3931  0.1487
  764MOL0     C 3057  10.534   5.356   0.695  0.0653 -0.2942 -0.0619
  764MOL0     C 3058  10.404   5.336   0.748  0.0314 -1.4557 -0.1814
  764MOL0     C 3059  10.060   5.166   1.004  0.4290 -0.6115 -0.1470
  764MOL0     C 3060   9.982   5.238   0.909 -0.4367 -0.6902 -0.3521
  764MOL0     C 3061   9.845   5.224   0.916  0.1524 -0.9629  0.9539
  764MOL0     C 3062   9.780   5.157   1.009  0.1016  0.1162  0.7185
  764MOL0     O 3063   9.642   5.169   1.004 -0.4347 -0.2828 -0.2183
  764MOL0     C 3064   9.553   5.121   1.104  0.1362  0.2523  0.1066
  764MOL0     C 3065   9.414   5.191   1.089 -0.4986  0.1052  0.6092
  764MOL0     C 3066   9.358   5.188   0.949  0.4802 -0.5028 -0.0963
  764MOL0     C 3067   9.212   5.211   0.932 -0.4888 -0.8657  0.0506
  764MOL0     C 3068   9.171   5.353   0.944 -0.3019 -0.7754 -0.3196
  764MOL0     C 3069   9.123   5.460   0.944  0.9101 -0.8668  0.0033
  764MOL0     C 3070   9.852   5.083   1.102 -0.5393  0.2390  0.1182
  764MOL0     C 3071   9.995   5.082   1.101 -0.4829 -0.2957 -0.4025
  764MOL0     C 3072  10.064   4.998   1.199 -1.1917  0.1092 -0.0035
  764MOL0     H 3073  10.495   5.133   1.005  1.0645 -0.5070 -0.6987
  764MOL0     H 3074  10.713   5.190   0.926 -0.0614 -1.1144 -1.0619
  764MOL0     H 3075  10.751   5.474   0.593 -0.2455  1.7747 -0.5623
  764MOL0     H 3076  10.801   5.522   0.760 -2.5012 -1.4612  1.0058
  764MOL0     H 3077  10.976   5.379   0.550  0.5612  1.0980  0.1704
  764MOL0     H 3078  11.025   5.423   0.710 -2.1591  0.8141  2.5285
  764MOL0     H 3079  10.968   5.666   0.647 -0.4024  0.3612 -1.1528
  764MOL0     H 3080  10.933   5.629   0.485 -1.8135  0.0905  1.3105
  764MOL0     H 3081  11.205   5.536   0.621 -2.1396 -1.4623  1.2322
  764MOL0     H 3082  11.166   5.559   0.455 -3.0630 -1.4304  0.2377
  764MOL0     H 3083  11.122   5.809   0.501 -2.6828  0.1649  2.4205
  764MOL0     H 3084  11.180   5.785   0.666  0.6635  1.7726 -0.3978
  764MOL0     H 3085  11.404   5.673   0.545  0.7268  0.6226  0.2329
  764MOL0     H 3086  11.345   5.748   0.404  1.7298  1.3972  0.3647
  764MOL0     H 3087  11.524   5.875   0.546 -0.1383  1.6419 -1.5453
  764MOL0     H 3088  11.400   5.893   0.664  1.8251 -2.3464  0.7235
  764MOL0     H 3089  11.353   5.996   0.372 -1.6158  0.4402 -0.4306
  764MOL0     H 3090  11.276   6.054   0.522 -1.0686 -1.7315  0.4945
  764MOL0     H 3091  11.405   6.261   0.335 -0.0518 -2.8690  0.0885
  764MOL0     H 3092  11.553   6.488   0.355 -0.1753  0.7431 -0.2361
  764MOL0     H 3093  11.577   6.521   0.529  1.4371 -0.5345  0.5833
  764MOL0     H 3094  11.797   6.418   0.526  1.1095 -0.1603 -1.2087
  764MOL0     H 3095  11.787   6.375   0.357  0.3932 -1.7786  1.1656
  764MOL0     H 3096  11.777   6.669   0.457  1.7046  1.1868 -1.3309
  764MOL0     H 3097  11.752   6.615   0.301  1.2529  1.0286 -0.2470
  764MOL0     H 3098  11.990   6.672   0.309  0.3867  1.1274  1.4963
  764MOL0     H 3099  11.992   6.494   0.345 -0.7701 -0.6914  0.0240
  764MOL0     H 3100  12.124   6.782   0.663 -0.8938 -0.4104 -1.3467
  764MOL0     H 3101  12.350   6.872   0.680 -2.1133 -0.5685  0.8917
  764MOL0     H 3102  12.805   6.560   0.313  0.1192 -0.0122 -1.0350
  764MOL0     H 3103  13.045   6.567   0.276 -1.3083 -0.0557 -0.4082
  764MOL0     H 3104  13.291   6.573   0.356  0.8681 -1.2801 -0.9661
  764MOL0     H 3105  13.228   6.651   0.202  1.9761  3.0626 -1.0841
  764MOL0     H 3106  13.409   6.817   0.204 -0.9894  0.6463  0.9208
  764MOL0     H 3107  13.466   6.766   0.361  1.3174  2.5059 -1.1939
  764MOL0     H 3108  13.502   6.530   0.264 -0.4608 -1.3216 -0.5099
  764MOL0     H 3109  13.438   6.592   0.110  1.1657 -0.3452 -0.2534
  764MOL0     H 3110  13.682   6.707   0.249 -0.8068  0.8679 -0.7917
  764MOL0     H 3111  13.646   6.751   0.087 -0.4636  0.8908  0.4631
  764MOL0     H 3112  13.662   6.506  -0.000  2.8300  1.9986 -2.6578
  764MOL0     H 3113  13.731   6.478   0.159 -1.1101 -0.2135 -0.2352
  764MOL0     H 3114  13.836   6.680  -0.055  3.3800  0.0081 -0.7170
  764MOL0     H 3115  13.887   6.677   0.105 -0.6562 -0.2618  0.6888
  764MOL0     H 3116  13.894   6.451  -0.118  0.5681  0.4823 -0.0147
  764MOL0     H 3117  13.943   6.415   0.051  1.0008 -0.5978 -1.7173
  764MOL0     H 3118  14.084   6.641  -0.087 -1.9220 -0.0834 -0.0456
  764MOL0     H 3119  14.114   6.549   0.063  0.7727 -1.2758 -0.2024
  764MOL0     H 3120  13.070   6.938   0.503 -0.0510  0.2608  1.5388
  764MOL0     H 3121  12.825   6.929   0.542  1.3534 -1.2130  2.9878
  764MOL0     H 3122  12.455   6.575   0.375 -0.4405 -3.9932  0.6577
  764MOL0     H 3123  12.228   6.523   0.343 -1.5720  0.0595 -0.9084
  764MOL0     H 3124  10.548   5.411   0.602 -1.6015  0.5428  0.1474
  764MOL0     H 3125  10.316   5.386   0.708 -1.2863  1.1923  5.1228
  764MOL0     H 3126  10.018   5.300   0.827 -0.5673 -2.0894 -1.4944
  764MOL0     H 3127   9.783   5.286   0.852 -0.8652 -0.9791  1.8963
  764MOL0     H 3128   9.588   5.149   1.204  1.8058 -1.8780  0.1913
  764MOL0     H 3129   9.540   5.013   1.103 -1.4965  0.4001  1.2904
  764MOL0     H 3130   9.423   5.291   1.132 -0.2452  0.3947 -0.1066
  764MOL0     H 3131   9.348   5.139   1.159  0.3846 -0.6639  0.8932
  764MOL0     H 3132   9.374   5.090   0.904 -2.5387 -0.3817 -1.6535
  764MOL0     H 3133   9.421   5.252   0.887  1.4906  0.6423  1.9712
  764MOL0     H 3134   9.183   5.181   0.831  0.2647 -2.2031  0.2115
  764MOL0     H 3135   9.151   5.152   1.002 -0.6484 -0.5170  0.2104
  764MOL0     H 3136   9.086   5.561   0.941 -2.4763 -1.8909  2.0115
  764MOL0     H 3137   9.804   5.038   1.187 -0.1953  2.5348  1.6182
  764MOL0     H 3138  10.040   5.031   1.300 -2.5071 -2.7774  0.7102
  764MOL0     H 3139  10.021   4.898   1.188 -0.6427 -0.0252 -1.1090
  764MOL0     H 3140  10.172   4.996   1.181 -1.3463  3.7708 -2.5249
  765MOL0     O 3141   8.615   2.648   5.710 -0.0327  0.6215  0.4472
  765MOL0     C 3142   8.643   2.656   5.826 -0.6140 -1.0511  0.0414
  765MOL0     O 3143   8.759   2.714   5.864  0.0390  0.3014 -0.5198
  765MOL0     C 3144   8.875   2.697   5.797 -0.7115  0.0579 -0.6002
  765MOL0     C 3145   8.906   2.578   5.740  0.2482 -0.3159 -0.7263
  765MOL0     C 3146   9.037   2.546   5.700 -0.0105  0.2354  0.2835
  765MOL0     C 3147   9.136   2.640   5.715 -1.6647 -0.6188 -0.4156
  765MOL0     O 3148   9.269   2.604   5.678  0.1245  0.3105  0.4811
  765MOL0     C 3149   9.380   2.685   5.714  0.0225  0.3156 -0.1616
  765MOL0     C 3150   9.508   2.607   5.693  0.2229 -0.2641 -0.2597
  765MOL0     C 3151   9.547   2.584   5.541  0.4743  0.0851 -0.7925
  765MOL0     C 3152   9.680   2.504   5.529 -0.2306  0.6788 -0.5946
  765MOL0     C 3153   9.785   2.590   5.600 -1.0552 -0.0837  0.7752
  765MOL0     C 3154   9.933   2.546   5.573  0.1420 -1.4209  0.5048
  765MOL0     C 3155   9.963   2.408   5.635  0.0465 -0.0893  0.3811
  765MOL0     C 3156  10.093   2.356   5.566 -0.5855  0.5808 -0.9801
  765MOL0     N 3157  10.209   2.439   5.603 -0.8009  0.1696 -0.3800
  765MOL0     C 3158  10.277   2.524   5.517  0.2203 -0.0390 -0.6337
  765MOL0     C 3159  10.369   2.573   5.597 -0.4126 -0.8713 -0.0873
  765MOL0     C 3160  10.468   2.678   5.549 -0.0127 -0.5367 -1.0053
  765MOL0     C 3161  10.598   2.682   5.626  0.1461  0.0483 -0.5107
  765MOL0     C 3162  10.697   2.763   5.557  0.1645  0.1474 -0.3257
  765MOL0     C 3163  10.822   2.774   5.633  0.4724 -0.3776 -0.2938
  765MOL0     O 3164  10.875   2.640   5.652  0.8569  0.2377  0.7554
  765MOL0     C 3165  11.008   2.631   5.682 -0.6069  0.7356 -1.2582
  765MOL0     C 3166  11.064   2.499   5.669  0.2835 -0.4039 -0.0834
  765MOL0     C 3167  11.190   2.468   5.710 -0.4573  0.4549 -0.5836
  765MOL0     C 3168  11.275   2.569   5.759  0.2551  0.1687 -0.2118
  765MOL0     C 3169  11.418   2.546   5.787 -0.2993 -0.4047  0.6640
  765MOL0     O 3170  11.463   2.420   5.819 -0.0992  0.2543  0.9811
  765MOL0     C 3171  11.600   2.418   5.846 -0.0030 -0.5170 -0.1257
  765MOL0     C 3172  11.643   2.465   5.969 -0.3719 -0.0868 -0.0709
  765MOL0     C 3173  11.781   2.453   6.017  0.6050  0.2248 -0.2219
  765MOL0     C 3174  11.876   2.395   5.934  0.2916  0.1413  0.5903
  765MOL0     O 3175  12.008   2.380   5.970  0.4089 -0.0473  0.0059
  765MOL0     C 3176  12.093   2.277   5.909 -0.2035  0.0804  0.1697
  765MOL0     C 3177  12.216   2.255   5.997  0.2477 -0.7277  0.3014
  765MOL0     C 3178  12.320   2.366   5.969 -0.0085  0.0029 -0.0333
  765MOL0     C 3179  12.462   2.327   5.975 -0.3807  0.0995 -0.3134
  765MOL0     C 3180  12.553   2.451   5.953  0.0847  0.2214 -0.0169
  765MOL0     C 3181  12.694   2.387   5.954 -0.1812 -0.8006  0.0686
  765MOL0     C 3182  12.804   2.491   5.915  0.1109 -0.5342 -0.8252
  765MOL0     C 3183  12.938   2.426   5.883  0.0076 -0.1764 -0.2136
  765MOL0    Cl 3184  12.996   2.337   6.017  0.1349 -0.0230 -0.0925
  765MOL0     C 3185  11.827   2.339   5.807  0.4256 -0.7452 -0.9881
  765MOL0     C 3186  11.693   2.351   5.770  0.3807  0.3327  0.2212
  765MOL0     O 3187  11.483   2.645   5.791  0.1491  0.0759 -0.3794
  765MOL0     C 3188  11.219   2.697   5.779 -0.2152 -1.1586 -0.2345
  765MOL0     C 3189  11.090   2.736   5.738  0.0671  0.1897  0.6705
  765MOL0     N 3190  10.373   2.528   5.732  0.1209  0.0868  0.3501
  765MOL0     N 3191  10.270   2.452   5.728 -0.4179 -0.3403 -0.4123
  765MOL0     C 3192   9.104   2.760   5.771  0.4641 -0.5289 -0.0719
  765MOL0     C 3193   8.971   2.787   5.808 -0.0439 -0.5529  0.7990
  765MOL0     C 3194   8.536   2.632   5.923 -0.0258  0.5538 -0.2112
  765MOL0     C 3195   8.539   2.701   6.044  0.6960 -1.0135  0.3566
  765MOL0     C 3196   8.442   2.672   6.140  0.1731  0.2465 -1.0441
  765MOL0     C 3197   8.340   2.575   6.125 -1.1794 -0.0087  0.1269
  765MOL0     O 3198   8.254   2.569   6.231  0.2321  0.3225 -0.1677
  765MOL0     C 3199   8.130   2.501   6.224  0.8292 -0.1725  0.1088
  765MOL0     C 3200   8.014   2.606   6.210 -0.3877 -0.4708  0.1406
  765MOL0     C 3201   8.020   2.720   6.306  0.7566 -0.3255 -0.7322
  765MOL0     C 3202   7.958   2.691   6.442 -0.1613  0.5444 -0.3985
  765MOL0     C 3203   8.035   2.588   6.515  0.0151 -0.0898  0.7764
  765MOL0     C 3204   8.110   2.518   6.586  0.2353 -0.1006  0.5187
  765MOL0     C 3205   8.348   2.494   6.013 -0.3972 -0.1201 -0.0522
  765MOL0     C 3206   8.441   2.523   5.911  0.8475 -0.1113  1.0814
  765MOL0     C 3207   8.448   2.431   5.795  0.2992  0.2977  0.1229
  765MOL0     H 3208   8.830   2.505   5.718 -2.2576  1.1107  2.3328
  765MOL0     H 3209   9.074   2.455   5.654  1.2859 -0.1304  1.9275
  765MOL0     H 3210   9.387   2.772   5.649 -0.0349  0.9848  0.7190
  765MOL0     H 3211   9.375   2.726   5.815  0.8408  1.8932 -0.7394
  765MOL0     H 3212   9.506   2.513   5.748  2.4115 -1.2945 -1.7861
  765MOL0     H 3213   9.583   2.672   5.740 -0.5518 -1.1533  2.3329
  765MOL0     H 3214   9.545   2.677   5.484 -0.8285  0.0296 -0.8845
  765MOL0     H 3215   9.461   2.527   5.504  1.4046 -1.7657 -0.2352
  765MOL0     H 3216   9.675   2.408   5.582  2.2042  1.7138  1.7713
  765MOL0     H 3217   9.717   2.480   5.429  1.5266 -2.7477  0.7288
  765MOL0     H 3218   9.770   2.692   5.563  2.7610  0.4632  0.3854
  765MOL0     H 3219   9.770   2.593   5.708  1.8595 -0.6655  1.2778
  765MOL0     H 3220   9.932   2.547   5.464 -0.1646  2.9525  0.3746
  765MOL0     H 3221   9.994   2.627   5.614 -2.3434  1.0316 -0.4193
  765MOL0     H 3222   9.881   2.339   5.612  0.5657 -0.8653  0.8387
  765MOL0     H 3223   9.967   2.414   5.744 -1.0889  1.3503  0.3830
  765MOL0     H 3224  10.115   2.251   5.589 -1.9078  0.7891  1.4964
  765MOL0     H 3225  10.087   2.373   5.458  1.0708  2.4984 -0.8467
  765MOL0     H 3226  10.246   2.540   5.415 -2.9764 -1.6618 -0.0364
  765MOL0     H 3227  10.488   2.652   5.445 -0.4740  2.3442 -1.9016
  765MOL0     H 3228  10.429   2.780   5.537  0.3910 -0.4513 -1.6252
  765MOL0     H 3229  10.590   2.730   5.724  2.2555  0.6148 -0.5634
  765MOL0     H 3230  10.638   2.581   5.635 -0.5188 -0.1875 -0.0728
  765MOL0     H 3231  10.650   2.859   5.537  1.8244  0.6287 -2.2405
  765MOL0     H 3232  10.722   2.720   5.460  0.5722  0.8630 -0.5454
  765MOL0     H 3233  10.793   2.822   5.726  3.2250 -1.1396  1.0660
  765MOL0     H 3234  10.878   2.859   5.592 -0.1963  0.1937 -0.0406
  765MOL0     H 3235  11.004   2.423   5.620 -0.2690 -0.3144  0.4417
  765MOL0     H 3236  11.245   2.375   5.700  0.7141  0.8321  1.7123
  765MOL0     H 3237  11.563   2.518   6.019 -0.0880 -1.0385  1.4584
  765MOL0     H 3238  11.812   2.501   6.109 -1.2301  0.1175  0.5105
  765MOL0     H 3239  12.043   2.179   5.909 -2.5671  1.2107  0.7254
  765MOL0     H 3240  12.129   2.303   5.809 -0.4767  2.2248  0.5839
  765MOL0     H 3241  12.186   2.267   6.101  0.6620  4.0774  0.0592
  765MOL0     H 3242  12.266   2.158   5.982 -0.0387 -1.0269  1.2098
  765MOL0     H 3243  12.307   2.410   5.870  1.2607  0.4356 -0.0254
  765MOL0     H 3244  12.301   2.458   6.025  0.5127  2.5913 -3.7626
  765MOL0     H 3245  12.485   2.253   5.897  1.0479  1.6691 -1.4391
  765MOL0     H 3246  12.481   2.283   6.074  0.7652 -0.1132 -0.6122
  765MOL0     H 3247  12.543   2.537   6.020 -0.2934  0.3693 -0.2616
  765MOL0     H 3248  12.525   2.488   5.854 -1.2437  0.4670  0.4375
  765MOL0     H 3249  12.709   2.345   6.054  0.5421  0.6043  0.5876
  765MOL0     H 3250  12.701   2.302   5.886 -1.6991 -0.8319 -0.0635
  765MOL0     H 3251  12.809   2.556   6.003 -4.9323  0.5340 -1.0283
  765MOL0     H 3252  12.767   2.545   5.827  1.4931 -1.4218 -2.0183
  765MOL0     H 3253  12.916   2.356   5.802 -0.9684  1.6567 -1.6142
  765MOL0     H 3254  13.000   2.511   5.852 -0.6286 -0.3459 -2.0186
  765MOL0     H 3255  11.896   2.289   5.739  0.1416 -1.1385 -0.9844
  765MOL0     H 3256  11.662   2.307   5.676 -1.0030  0.0666  0.7685
  765MOL0     H 3257  11.275   2.776   5.828  0.0908 -0.1766 -2.0927
  765MOL0     H 3258  11.063   2.841   5.738  1.3008  0.5549 -1.2809
  765MOL0     H 3259   9.177   2.838   5.793 -0.6879  0.3296  0.8252
  765MOL0     H 3260   8.957   2.883   5.856 -0.8217  0.1085 -0.6746
  765MOL0     H 3261   8.601   2.789   6.058 -0.6577  0.2250 -1.0637
  765MOL0     H 3262   8.434   2.736   6.227 -0.1950 -3.0617  1.5927
  765MOL0     H 3263   8.113   2.450   6.319  1.8612  2.4355  1.8047
  765MOL0     H 3264   8.119   2.431   6.141  1.4923  2.1914 -2.1015
  765MOL0     H 3265   7.922   2.547   6.214 -0.4669 -0.3557  0.0288
  765MOL0     H 3266   8.033   2.652   6.112  3.3626  0.1724  0.9988
  765MOL0     H 3267   7.965   2.808   6.270  0.1459  0.4185  1.8011
  765MOL0     H 3268   8.122   2.755   6.320  1.0684 -1.2550 -0.6371
  765MOL0     H 3269   7.949   2.781   6.505  0.9845  0.8056 -0.5784
  765MOL0     H 3270   7.862   2.641   6.428 -0.7675  1.3658  0.6192
  765MOL0     H 3271   8.176   2.454   6.641  2.1357  2.4519  1.3663
  765MOL0     H 3272   8.282   2.409   5.995  0.9656 -0.5273 -4.3591
  765MOL0     H 3273   8.542   2.377   5.781 -1.5075 -3.3662  0.8032
  765MOL0     H 3274   8.385   2.346   5.826  1.3010  0.3459  2.5365
  765MOL0     H 3275   8.405   2.481   5.708  0.0013 -0.3061 -0.0815
  766MOL0     O 3276   9.406   4.544   8.935  0.2955 -0.0457  0.3486
  766MOL0     C 3277   9.364   4.598   9.034 -0.2279  0.3853  0.0521
  766MOL0     O 3278   9.433   4.675   9.120 -0.1610 -0.0576  0.5631
  766MOL0     C 3279   9.566   4.688   9.092  0.3646 -0.4243  0.0037
  766MOL0     C 3280   9.657   4.632   9.174  0.0994  0.0068  0.6279
  766MOL0     C 3281   9.796   4.644   9.150 -0.5710 -0.0405  0.1808
  766MOL0     C 3282   9.847   4.718   9.044 -0.1731 -0.1506  0.5519
  766MOL0     O 3283   9.984   4.736   9.025  0.1143  0.1321  0.0707
  766MOL0     C 3284  10.059   4.614   8.993  0.0511  0.3234 -0.3234
  766MOL0     C 3285  10.201   4.622   9.035 -0.4965  0.0701 -0.0908
  766MOL0     C 3286  10.274   4.753   8.992 -0.3723  0.2750  0.7184
  766MOL0     C 3287  10.424   4.742   9.025 -0.3703  0.4660 -0.5677
  766MOL0     C 3288  10.505   4.859   8.976 -1.2677  0.4113  0.9758
  766MOL0     C 3289  10.648   4.840   9.047 -0.2266  0.4279 -0.0307
  766MOL0     C 3290  10.737   4.967   9.052  0.4980 -0.1948  0.1094
  766MOL0     C 3291  10.886   4.938   9.027  0.3006 -0.7092  0.5331
  766MOL0     N 3292  10.971   5.051   9.037  0.5806  0.0706  0.5503
  766MOL0     C 3293  11.069   5.065   8.953  0.0152  0.6122 -0.6442
  766MOL0     C 3294  11.145   5.166   9.007  0.0175 -0.1610  0.4763
  766MOL0     C 3295  11.275   5.205   8.943 -0.1874 -0.3640 -0.6774
  766MOL0     C 3296  11.391   5.128   9.008 -0.0686 -0.1033  0.0285
  766MOL0     C 3297  11.441   5.195   9.133  0.4697  0.7639  0.4006
  766MOL0     C 3298  11.555   5.112   9.180 -0.3223 -0.9872 -0.2813
  766MOL0     O 3299  11.664   5.138   9.085  0.2388  0.6720 -0.2419
  766MOL0     C 3300  11.787   5.080   9.098  0.3775 -0.4742 -0.3254
  766MOL0     C 3301  11.856   5.071   8.982  0.3581 -0.4091 -0.3117
  766MOL0     C 3302  11.988   5.018   8.976 -0.0073 -0.9390 -0.0173
  766MOL0     C 3303  12.062   4.999   9.091 -0.8959  0.7612 -0.0808
  766MOL0     C 3304  12.205   4.947   9.088 -0.3919  0.2469 -0.8773
  766MOL0     O 3305  12.262   4.903   9.207  0.7915 -0.4028 -0.2594
  766MOL0     C 3306  12.394   4.859   9.184  1.2275  0.2185 -0.5640
  766MOL0     C 3307  12.489   4.935   9.249 -0.1045  0.4197 -0.0598
  766MOL0     C 3308  12.623   4.896   9.231  0.6282  0.3012 -0.1620
  766MOL0     C 3309  12.664   4.778   9.166 -0.0448 -0.0541  0.7631
  766MOL0     O 3310  12.796   4.737   9.153  0.2419 -0.5966 -1.0631
  766MOL0     C 3311  12.891   4.794   9.234 -0.3852  0.6501 -0.1700
  766MOL0     C 3312  13.035   4.733   9.187  0.7143 -1.1138 -0.3739
  766MOL0     C 3313  13.141   4.796   9.276 -0.3902 -0.5428  0.0819
  766MOL0     C 3314  13.268   4.706   9.304 -0.1092  0.0381 -0.3622
  766MOL0     C 3315  13.336   4.685   9.168 -0.1556  0.3043  0.1890
  766MOL0     C 3316  13.471   4.621   9.185 -0.7846 -0.0810  0.5896
  766MOL0     C 3317  13.551   4.594   9.058  0.0846  0.0135 -0.0651
  766MOL0     C 3318  13.684   4.530   9.097  0.4127  0.0693 -0.2976
  766MOL0    Cl 3319  13.792   4.526   8.950 -0.1234 -0.0930 -0.4027
  766MOL0     C 3320  12.572   4.712   9.089  0.7192  0.5471 -0.3751
  766MOL0     C 3321  12.436   4.748   9.102 -0.1980 -0.3769 -0.5329
  766MOL0     O 3322  12.259   4.942   8.980 -0.2097  0.5543  0.2417
  766MOL0     C 3323  11.988   4.997   9.216 -0.5179 -0.6989  0.5879
  766MOL0     C 3324  11.854   5.038   9.218 -0.0351  0.1889  0.0868
  766MOL0     N 3325  11.089   5.199   9.133 -0.3302 -0.1985  0.2956
  766MOL0     N 3326  10.982   5.132   9.149  0.1686  0.7606 -0.2026
  766MOL0     C 3327   9.757   4.785   8.964 -0.2369  0.4297  0.1826
  766MOL0     C 3328   9.619   4.774   8.988  0.3281  0.4602 -0.3846
  766MOL0     C 3329   9.210   4.607   9.047 -1.1178  0.4798  0.7356
  766MOL0     C 3330   9.149   4.724   9.034 -0.2813 -0.7334 -0.6976
  766MOL0     C 3331   9.010   4.738   9.045 -0.8603  0.5065  0.6657
  766MOL0     C 3332   8.923   4.623   9.061  0.0639 -0.5180  0.1659
  766MOL0     O 3333   8.786   4.620   9.070 -0.2662 -0.4402 -0.1554
  766MOL0     C 3334   8.741   4.725   9.158 -0.9814  0.8206  0.3897
  766MOL0     C 3335   8.587   4.718   9.152  0.0407  0.1531  0.3374
  766MOL0     C 3336   8.526   4.844   9.217  0.9246 -0.7107  0.4810
  766MOL0     C 3337   8.374   4.839   9.246  0.0746  0.5772 -0.4236
  766MOL0     C 3338   8.335   4.934   9.350  0.0885 -0.1305  0.3012
  766MOL0     C 3339   8.302   5.027   9.415  0.0465 -0.1183 -0.5955
  766MOL0     C 3340   8.991   4.496   9.079 -0.0469  0.2470 -0.5193
  766MOL0     C 3341   9.131   4.489   9.059  0.6464  0.1868  0.4780
  766MOL0     C 3342   9.201   4.352   9.049  0.7922 -0.3639 -0.7369
  766MOL0     H 3343   9.639   4.564   9.257 -1.7476 -0.9878 -0.5005
  766MOL0     H 3344   9.864   4.593   9.217  0.1795  0.7501  0.0372
  766MOL0     H 3345  10.018   4.527   9.047  1.1147 -1.2445 -1.9248
  766MOL0     H 3346  10.048   4.586   8.888  0.1757 -2.0205  0.2124
  766MOL0     H 3347  10.262   4.545   8.986  0.2497  1.9403 -2.3139
  766MOL0     H 3348  10.206   4.615   9.144  0.6650 -5.2850 -0.1889
  766MOL0     H 3349  10.222   4.829   9.051 -2.5378 -0.8917  0.4345
  766MOL0     H 3350  10.259   4.773   8.886 -0.0986 -2.3658  0.1073
  766MOL0     H 3351  10.427   4.752   9.134  0.6967  1.7903 -0.7006
  766MOL0     H 3352  10.473   4.649   8.995 -0.9008 -0.2176  0.6070
  766MOL0     H 3353  10.507   4.864   8.866  0.4285 -1.3830  0.8688
  766MOL0     H 3354  10.462   4.953   9.013  1.3398  2.1741 -0.1166
  766MOL0     H 3355  10.647   4.808   9.151 -0.1124  2.7717  0.7485
  766MOL0     H 3356  10.705   4.768   8.986  0.4242 -0.2239  1.3162
  766MOL0     H 3357  10.722   5.019   9.147 -4.3321 -3.5744  1.5720
  766MOL0     H 3358  10.720   5.025   8.960 -0.2960 -0.8812 -0.1847
  766MOL0     H 3359  10.917   4.863   9.100 -0.0231  1.0947  2.6356
  766MOL0     H 3360  10.897   4.900   8.925  3.2353 -0.8564  0.8161
  766MOL0     H 3361  11.096   4.992   8.877  0.3502 -2.9611  2.5523
  766MOL0     H 3362  11.271   5.181   8.836 -0.7172  1.7646 -1.1785
  766MOL0     H 3363  11.285   5.314   8.944  1.6002 -0.4766 -1.3182
  766MOL0     H 3364  11.358   5.026   9.029  1.3966 -0.4914  0.6246
  766MOL0     H 3365  11.472   5.105   8.938  0.5478 -2.1548  1.3356
  766MOL0     H 3366  11.358   5.181   9.204  0.0231 -1.5053 -0.4769
  766MOL0     H 3367  11.467   5.301   9.128  1.4358  0.7171  3.0341
  766MOL0     H 3368  11.521   5.009   9.186 -0.5053 -0.9763 -1.1119
  766MOL0     H 3369  11.582   5.142   9.282 -1.2882  0.9376 -0.5466
  766MOL0     H 3370  11.800   5.106   8.896  0.0134  1.1003  0.5013
  766MOL0     H 3371  12.029   5.005   8.877  0.3906  3.7447 -0.6900
  766MOL0     H 3372  12.457   5.015   9.315 -1.9605 -1.0790  0.9629
  766MOL0     H 3373  12.697   4.955   9.285  0.6119  1.0389 -0.9236
  766MOL0     H 3374  12.899   4.903   9.236 -1.6013  0.7511  1.5973
  766MOL0     H 3375  12.878   4.771   9.340  1.7311  2.7896  0.6386
  766MOL0     H 3376  13.032   4.624   9.195 -0.9101 -0.9901  1.2777
  766MOL0     H 3377  13.051   4.762   9.083 -1.1672  0.3127 -0.2988
  766MOL0     H 3378  13.172   4.890   9.230 -0.2221 -0.7205 -0.1685
  766MOL0     H 3379  13.096   4.818   9.373 -3.3310 -0.7210 -1.1339
  766MOL0     H 3380  13.241   4.612   9.353  1.6367  0.4284  1.4734
  766MOL0     H 3381  13.332   4.760   9.373 -0.5689  1.4185 -0.9865
  766MOL0     H 3382  13.346   4.781   9.118 -0.9885  0.6312  0.6248
  766MOL0     H 3383  13.275   4.618   9.108  0.1167 -0.8580  1.1579
  766MOL0     H 3384  13.532   4.688   9.246  0.1274  0.6047 -1.0216
  766MOL0     H 3385  13.461   4.523   9.233  0.5984 -0.8271 -0.5997
  766MOL0     H 3386  13.577   4.692   9.016 -1.5987  0.2532 -0.6320
  766MOL0     H 3387  13.485   4.543   8.988 -1.5198 -0.8699  2.0263
  766MOL0     H 3388  13.735   4.592   9.172  1.0808  0.0360 -0.7148
  766MOL0     H 3389  13.655   4.431   9.130 -3.1474  0.2459 -2.4064
  766MOL0     H 3390  12.598   4.625   9.030 -1.3668 -0.5946  0.2653
  766MOL0     H 3391  12.358   4.691   9.052 -0.4818 -1.2411  0.8576
  766MOL0     H 3392  12.026   4.951   9.307 -0.2196  1.4183  1.5996
  766MOL0     H 3393  11.791   5.035   9.307  1.8140  2.0910  1.5582
  766MOL0     H 3394   9.804   4.847   8.888 -3.4774 -0.6054 -2.9627
  766MOL0     H 3395   9.540   4.820   8.930 -0.3114  1.0908  0.9252
  766MOL0     H 3396   9.218   4.807   9.031 -0.3569 -0.4790  1.9019
  766MOL0     H 3397   8.971   4.838   9.030 -1.8325 -0.3430 -4.5154
  766MOL0     H 3398   8.776   4.824   9.125  1.4349  0.3728  1.3511
  766MOL0     H 3399   8.779   4.712   9.260 -1.2266  2.2586  0.6941
  766MOL0     H 3400   8.561   4.627   9.204  0.5913 -0.3115 -0.1773
  766MOL0     H 3401   8.568   4.707   9.045  2.3970 -0.7095 -0.0616
  766MOL0     H 3402   8.537   4.930   9.150 -1.2402 -1.2511 -0.6505
  766MOL0     H 3403   8.572   4.855   9.316 -0.1352 -2.7623  1.2574
  766MOL0     H 3404   8.319   4.859   9.153  0.3177  0.3047 -0.6298
  766MOL0     H 3405   8.351   4.742   9.290  3.7768  0.0320  0.6896
  766MOL0     H 3406   8.269   5.107   9.477  1.9374 -0.8846  1.5355
  766MOL0     H 3407   8.931   4.407   9.095 -0.1586 -0.0517 -2.3196
  766MOL0     H 3408   9.286   4.338   9.116  0.1748 -1.5223 -0.1643
  766MOL0     H 3409   9.121   4.284   9.080  2.2447 -0.8667  2.3371
  766MOL0     H 3410   9.231   4.319   8.950 -2.9584  1.2202 -2.6264
  767MOL0     O 3411   1.383   4.832   1.182  0.5718  0.0913 -0.2814
  767MOL0     C 3412   1.303   4.760   1.243 -0.9660  0.6045 -0.7451
  767MOL0     O 3413   1.328   4.675   1.348 -0.0858  0.9076 -0.3388
  767MOL0     C 3414   1.453   4.670   1.407  0.1508 -0.4823 -0.0709
  767MOL0     C 3415   1.495   4.762   1.497 -0.1824 -0.3719 -0.1913
  767MOL0     C 3416   1.623   4.743   1.560  0.3116 -0.0466 -0.1478
  767MOL0     C 3417   1.714   4.641   1.531  0.2983  1.1259  0.5363
  767MOL0     O 3418   1.831   4.609   1.592  0.0930  0.1795  0.2565
  767MOL0     C 3419   1.888   4.718   1.666 -0.3613  0.2035 -0.3998
  767MOL0     C 3420   2.010   4.668   1.726  0.0202 -0.7619  0.7215
  767MOL0     C 3421   2.121   4.670   1.625 -0.2943  0.0506  0.1902
  767MOL0     C 3422   2.245   4.596   1.691 -0.7620 -0.0371  0.5507
  767MOL0     C 3423   2.370   4.588   1.588  0.5102  0.9143  0.1067
  767MOL0     C 3424   2.489   4.520   1.660 -0.0588 -0.3005  0.4395
  767MOL0     C 3425   2.464   4.381   1.715 -0.2857  0.1505 -0.1049
  767MOL0     C 3426   2.605   4.317   1.741  0.0392  0.5987 -0.8236
  767MOL0     N 3427   2.572   4.178   1.791 -0.2851  0.3911  0.3337
  767MOL0     C 3428   2.543   4.069   1.716  0.2565  0.7418 -0.1021
  767MOL0     C 3429   2.489   3.978   1.798 -0.2227  0.4104  0.5000
  767MOL0     C 3430   2.433   3.849   1.758 -0.3258 -0.1004  0.0036
  767MOL0     C 3431   2.524   3.728   1.799 -1.5591 -0.1458  0.5200
  767MOL0     C 3432   2.650   3.712   1.701  0.5929 -0.5790 -0.7625
  767MOL0     C 3433   2.752   3.597   1.730 -0.3494 -0.0209  0.3406
  767MOL0     O 3434   2.865   3.597   1.634 -0.1217 -0.1180  0.3703
  767MOL0     C 3435   2.975   3.518   1.660 -0.2425 -0.4365 -0.4951
  767MOL0     C 3436   3.084   3.536   1.566 -0.3721  0.0377 -0.3695
  767MOL0     C 3437   3.192   3.450   1.555 -0.2687  0.9104 -0.1778
  767MOL0     C 3438   3.216   3.364   1.666  0.2340 -0.5884  0.5348
  767MOL0     C 3439   3.343   3.290   1.663  0.3848 -0.6918  0.4274
  767MOL0     O 3440   3.429   3.298   1.551  0.1114 -0.8221  0.6905
  767MOL0     C 3441   3.558   3.245   1.558  0.7826  0.1793  0.3436
  767MOL0     C 3442   3.591   3.152   1.456 -0.0637 -0.1114  0.9113
  767MOL0     C 3443   3.720   3.093   1.441 -0.9556  0.0831 -0.1903
  767MOL0     C 3444   3.813   3.115   1.553  0.1747 -0.0894  0.7857
  767MOL0     O 3445   3.930   3.036   1.545 -0.4711 -0.3541 -0.5170
  767MOL0     C 3446   4.052   3.099   1.597  0.2059 -0.2775  0.1849
  767MOL0     C 3447   4.182   3.023   1.546  0.4261  0.0626 -0.0384
  767MOL0     C 3448   4.192   3.040   1.390  0.4645  0.2680 -0.1838
  767MOL0     C 3449   4.335   3.010   1.341  0.4041  0.7173 -0.1140
  767MOL0     C 3450   4.362   3.012   1.195 -0.2416  0.0262  0.3698
  767MOL0     C 3451   4.500   2.955   1.149 -0.2878  0.3087 -0.2486
  767MOL0     C 3452   4.528   2.953   0.997 -0.2142 -0.1953 -0.0471
  767MOL0     C 3453   4.569   3.089   0.937  0.2984 -0.8124 -0.5777
  767MOL0    Cl 3454   4.641   3.050   0.775  0.0683  0.1172  0.1154
  767MOL0     C 3455   3.777   3.201   1.656 -0.1807 -0.1290  0.4171
  767MOL0     C 3456   3.648   3.265   1.657  0.4744  1.0582  0.2373
  767MOL0     O 3457   3.361   3.219   1.760 -0.6099  0.0343 -0.1074
  767MOL0     C 3458   3.119   3.357   1.776  1.1053  0.9196 -0.2450
  767MOL0     C 3459   2.997   3.433   1.771  0.0885 -0.5558  0.0688
  767MOL0     N 3460   2.491   4.026   1.927  0.5363 -0.3051  0.8390
  767MOL0     N 3461   2.534   4.145   1.921  0.1459 -0.3104  0.2634
  767MOL0     C 3462   1.669   4.553   1.432  0.3404 -0.2381  0.0120
  767MOL0     C 3463   1.543   4.559   1.378  0.7080  0.4462 -0.6807
  767MOL0     C 3464   1.159   4.754   1.190  0.3797 -0.7622 -0.2234
  767MOL0     C 3465   1.068   4.662   1.250 -0.5626  0.1228  0.5028
  767MOL0     C 3466   0.937   4.659   1.214 -0.4036 -0.5754 -0.5339
  767MOL0     C 3467   0.876   4.756   1.137 -0.0263  0.1813 -0.2973
  767MOL0     O 3468   0.744   4.771   1.106 -0.3518  0.1086 -0.7659
  767MOL0     C 3469   0.654   4.676   1.179  0.5178 -0.4934  0.3431
  767MOL0     C 3470   0.508   4.700   1.146  0.5986 -0.5259 -0.0024
  767MOL0     C 3471   0.429   4.582   1.193 -0.0025 -0.4035  0.2132
  767MOL0     C 3472   0.283   4.604   1.187  0.1257  0.0455  0.7525
  767MOL0     C 3473   0.231   4.469   1.195 -0.1586  0.3935 -0.4463
  767MOL0     C 3474   0.180   4.359   1.196 -0.3301 -0.0656  0.1404
  767MOL0     C 3475   0.965   4.834   1.066 -0.1375  0.0477 -0.1578
  767MOL0     C 3476   1.101   4.838   1.097  0.0630  0.6724 -0.0096
  767MOL0     C 3477   1.189   4.929   1.009 -0.0937 -0.0524  0.0624
  767MOL0     H 3478   1.429   4.847   1.513 -2.2282 -1.5470 -1.8673
  767MOL0     H 3479   1.651   4.807   1.643 -1.2083  0.3992  0.0517
  767MOL0     H 3480   1.904   4.808   1.606  0.2634  2.9684  3.5421
  767MOL0     H 3481   1.820   4.758   1.742  0.4881  1.3166 -0.1997
  767MOL0     H 3482   1.991   4.579   1.788  1.2956 -1.2033  0.5154
  767MOL0     H 3483   2.032   4.746   1.800  0.6898 -1.2243  1.0292
  767MOL0     H 3484   2.159   4.772   1.613  4.0014 -1.0244  2.4971
  767MOL0     H 3485   2.102   4.620   1.530 -0.4834 -0.0260  0.2688
  767MOL0     H 3486   2.269   4.627   1.793 -1.7685 -1.8336  1.3805
  767MOL0     H 3487   2.219   4.490   1.693 -1.6541  0.1708  0.4426
  767MOL0     H 3488   2.350   4.526   1.501  1.4804 -0.4195  0.8055
  767MOL0     H 3489   2.407   4.684   1.551  0.9330  1.3582  1.5823
  767MOL0     H 3490   2.572   4.513   1.589  0.4293 -0.9971  1.0534
  767MOL0     H 3491   2.518   4.589   1.740  1.1886 -0.6806  0.3378
  767MOL0     H 3492   2.402   4.324   1.645 -3.0519  2.3361  0.3681
  767MOL0     H 3493   2.407   4.398   1.807 -1.7542  1.2075 -1.1584
  767MOL0     H 3494   2.665   4.291   1.654  1.7464 -0.1944  0.5408
  767MOL0     H 3495   2.665   4.366   1.818  2.7863 -0.8520 -1.9256
  767MOL0     H 3496   2.569   4.056   1.611 -0.9463 -0.1761 -0.3066
  767MOL0     H 3497   2.340   3.846   1.814  0.5763 -0.3392  1.5418
  767MOL0     H 3498   2.396   3.856   1.655  0.1606 -1.0856 -0.2547
  767MOL0     H 3499   2.561   3.752   1.899  0.7350  1.0814 -0.5324
  767MOL0     H 3500   2.464   3.637   1.796  0.3400 -1.4526 -1.9536
  767MOL0     H 3501   2.697   3.811   1.698 -1.5809  0.5063 -0.8350
  767MOL0     H 3502   2.608   3.688   1.603 -1.0586 -1.8586  0.1997
  767MOL0     H 3503   2.704   3.499   1.733 -0.0584 -0.1864 -0.3714
  767MOL0     H 3504   2.794   3.612   1.830 -0.1576 -1.7671  0.5432
  767MOL0     H 3505   3.078   3.609   1.486  1.5374  0.4941 -0.1379
  767MOL0     H 3506   3.267   3.465   1.479  1.0916 -1.5550  0.5809
  767MOL0     H 3507   3.516   3.117   1.385  0.4394 -0.9110  0.7656
  767MOL0     H 3508   3.748   3.031   1.356  0.4376  1.2089 -0.5927
  767MOL0     H 3509   4.064   3.204   1.570  2.8880  0.2756  2.9197
  767MOL0     H 3510   4.045   3.093   1.706 -3.3706 -1.5067  0.0183
  767MOL0     H 3511   4.279   3.043   1.592  1.5084 -0.7751 -1.8498
  767MOL0     H 3512   4.151   2.921   1.569 -2.1733  1.3972  3.2989
  767MOL0     H 3513   4.122   2.972   1.341  0.4666  0.7932 -0.9356
  767MOL0     H 3514   4.161   3.139   1.355 -0.9040 -0.7976 -2.2628
  767MOL0     H 3515   4.359   2.913   1.386 -3.3065  0.9433  2.9242
  767MOL0     H 3516   4.400   3.080   1.393  0.1125 -0.2964  1.7226
  767MOL0     H 3517   4.352   3.117   1.166  0.4475  0.2490  0.8868
  767MOL0     H 3518   4.289   2.955   1.137 -1.4837  2.6373 -0.7794
  767MOL0     H 3519   4.583   3.009   1.196  0.5992 -0.6997 -0.6109
  767MOL0     H 3520   4.504   2.852   1.187 -0.7690  0.5482  0.4750
  767MOL0     H 3521   4.445   2.909   0.942 -0.1015 -1.1574  0.5179
  767MOL0     H 3522   4.618   2.892   0.985  0.3544  0.5248  0.4768
  767MOL0     H 3523   4.491   3.166   0.936  0.8910 -0.2060 -0.4627
  767MOL0     H 3524   4.646   3.128   1.004 -3.5850  1.4969  3.0542
  767MOL0     H 3525   3.840   3.239   1.736 -1.6518 -1.8549  2.5252
  767MOL0     H 3526   3.614   3.339   1.730  2.5252  2.4496 -0.1539
  767MOL0     H 3527   3.134   3.302   1.868 -1.4315  0.5941  0.0581
  767MOL0     H 3528   2.920   3.425   1.847 -1.3170 -2.1926 -1.4410
  767MOL0     H 3529   1.727   4.465   1.404 -0.3851 -0.7139 -0.0114
  767MOL0     H 3530   1.517   4.479   1.311  0.2485 -0.8934  1.0240
  767MOL0     H 3531   1.108   4.599   1.328 -0.2231 -2.1123 -1.3712
  767MOL0     H 3532   0.872   4.590   1.266 -0.7895 -0.6093 -1.0513
  767MOL0     H 3533   0.658   4.688   1.288 -1.0715  0.9280  0.3017
  767MOL0     H 3534   0.688   4.573   1.165  1.8455  0.0116 -0.2481
  767MOL0     H 3535   0.508   4.729   1.041  1.2665  0.4920  0.2555
  767MOL0     H 3536   0.466   4.791   1.191  0.8841 -1.1571  1.6302
  767MOL0     H 3537   0.449   4.564   1.299 -1.8618  0.4123  0.7248
  767MOL0     H 3538   0.452   4.489   1.139 -0.1112 -0.5607  0.4402
  767MOL0     H 3539   0.236   4.672   1.259 -0.0637  0.0796  0.5984
  767MOL0     H 3540   0.260   4.639   1.086 -0.7487 -1.7788  0.2786
  767MOL0     H 3541   0.128   4.266   1.194 -0.0878 -0.1957 -0.9727
  767MOL0     H 3542   0.927   4.905   0.993  1.1963  0.8654 -0.0840
  767MOL0     H 3543   1.227   5.007   1.075  2.1351 -0.9251 -0.0989
  767MOL0     H 3544   1.276   4.879   0.965  1.5939  2.8458 -0.1406
  767MOL0     H 3545   1.133   4.978   0.929  2.3870  0.6085 -1.3640
  768MOL0     O 3546   6.269   7.983   5.087  0.0843  0.5534  0.3228
  768MOL0     C 3547   6.210   7.895   5.026  0.0637  0.9930  0.3060
  768MOL0     O 3548   6.273   7.771   5.004  0.0200  0.4640  0.5457
  768MOL0     C 3549   6.396   7.739   5.054 -0.6485  0.0995 -0.0536
  768MOL0     C 3550   6.511   7.824   5.037  0.9171 -0.3977  0.4097
  768MOL0     C 3551   6.633   7.784   5.085 -0.4879  0.1715  0.0860
  768MOL0     C 3552   6.649   7.654   5.144  0.6299 -0.1861  0.1202
  768MOL0     O 3553   6.778   7.616   5.183  0.1250  0.2627  0.8239
  768MOL0     C 3554   6.803   7.528   5.296  0.7660  0.3169  0.3274
  768MOL0     C 3555   6.729   7.565   5.431  0.1724  0.1720  0.8104
  768MOL0     C 3556   6.830   7.536   5.541  0.5047 -0.4000 -0.4487
  768MOL0     C 3557   6.752   7.543   5.674 -0.4414  0.1263  0.3180
  768MOL0     C 3558   6.848   7.507   5.785  0.7280 -1.1804 -0.0165
  768MOL0     C 3559   6.770   7.452   5.909 -0.0395 -0.5778 -0.0059
  768MOL0     C 3560   6.857   7.408   6.028 -0.9571  0.1736  0.3758
  768MOL0     C 3561   6.892   7.260   6.021  0.7470  0.7234  0.3223
  768MOL0     N 3562   6.975   7.211   6.129 -0.1704  0.3815  0.5930
  768MOL0     C 3563   6.964   7.228   6.262 -0.1617  0.3106  0.5950
  768MOL0     C 3564   7.048   7.134   6.310 -0.4647  0.2270 -0.4046
  768MOL0     C 3565   7.079   7.105   6.455 -0.1189  0.0316 -0.0866
  768MOL0     C 3566   7.181   7.207   6.504  0.2275 -0.1309  0.5631
  768MOL0     C 3567   7.199   7.183   6.658  0.0664 -0.1399  0.4420
  768MOL0     C 3568   7.265   7.298   6.730 -0.0309 -0.2018 -0.0823
  768MOL0     O 3569   7.282   7.276   6.869  0.6654  0.1575  0.0570
  768MOL0     C 3570   7.368   7.361   6.940  0.0287  0.2307 -0.1898
  768MOL0     C 3571   7.433   7.314   7.050 -0.4588  0.1850  0.6101
  768MOL0     C 3572   7.540   7.370   7.109 -0.3450 -0.2541  0.5831
  768MOL0     C 3573   7.571   7.498   7.069 -0.2066 -0.5416  0.0055
  768MOL0     C 3574   7.679   7.578   7.133 -0.1466  0.2001 -0.2952
  768MOL0     O 3575   7.724   7.527   7.250 -0.5426 -0.1039 -0.1023
  768MOL0     C 3576   7.837   7.573   7.315 -0.0371  0.6324  0.5491
  768MOL0     C 3577   7.848   7.703   7.363  0.1324 -0.2671  0.0917
  768MOL0     C 3578   7.966   7.747   7.426 -1.1442 -0.4139 -0.1148
  768MOL0     C 3579   8.071   7.661   7.428 -0.1355 -0.3270  0.3440
  768MOL0     O 3580   8.181   7.720   7.489  0.5971 -0.3144  0.6159
  768MOL0     C 3581   8.285   7.777   7.401  0.5194 -0.4499  0.2807
  768MOL0     C 3582   8.405   7.830   7.476  0.2683 -0.0711 -0.1221
  768MOL0     C 3583   8.366   7.941   7.572 -0.0097  0.2604 -0.0534
  768MOL0     C 3584   8.281   8.050   7.509 -0.7010  0.1220 -0.6633
  768MOL0     C 3585   8.364   8.126   7.402 -0.3405 -0.6979  0.3165
  768MOL0     C 3586   8.296   8.263   7.386  0.1994  0.3151  0.3706
  768MOL0     C 3587   8.352   8.345   7.268  0.1169 -0.3342  0.0048
  768MOL0     C 3588   8.503   8.359   7.267 -0.9759  0.1953 -0.6751
  768MOL0    Cl 3589   8.560   8.407   7.438 -0.1671 -0.1004  0.3643
  768MOL0     C 3590   8.066   7.531   7.383 -0.2806 -0.1955  0.0506
  768MOL0     C 3591   7.940   7.483   7.340 -0.3663  0.1269 -0.8520
  768MOL0     O 3592   7.699   7.688   7.090  0.2630 -0.4732  0.1517
  768MOL0     C 3593   7.493   7.561   6.959 -0.0957 -1.0772 -0.3850
  768MOL0     C 3594   7.397   7.486   6.887 -0.3177 -0.0960  0.2088
  768MOL0     N 3595   7.109   7.066   6.210 -0.8961  0.3506  0.4318
  768MOL0     N 3596   7.061   7.110   6.103 -0.3688 -0.4442  0.1738
  768MOL0     C 3597   6.532   7.573   5.167  0.5410 -0.2645  0.6868
  768MOL0     C 3598   6.414   7.617   5.106  0.3780  0.2135  0.2204
  768MOL0     C 3599   6.068   7.914   4.981  0.2274  0.1375 -0.0943
  768MOL0     C 3600   6.005   7.814   4.911 -0.5038  0.3279  0.0081
  768MOL0     C 3601   5.883   7.833   4.853 -0.4361  0.2337 -0.2779
  768MOL0     C 3602   5.807   7.946   4.868 -0.2486 -0.0788  0.7233
  768MOL0     O 3603   5.679   7.939   4.815  0.7612  0.2492  0.4759
  768MOL0     C 3604   5.591   8.049   4.844 -0.5582  0.5722  0.5720
  768MOL0     C 3605   5.453   8.015   4.790 -0.1052  0.3427 -0.1529
  768MOL0     C 3606   5.379   8.144   4.779  0.6365  0.0630 -0.3220
  768MOL0     C 3607   5.233   8.126   4.751 -0.8024  0.5142 -0.0036
  768MOL0     C 3608   5.204   8.055   4.631  0.6272 -0.2763  0.2088
  768MOL0     C 3609   5.169   8.007   4.530  0.1805 -0.3496  0.4995
  768MOL0     C 3610   5.865   8.052   4.947  0.2856 -0.6632  1.0780
  768MOL0     C 3611   5.989   8.029   5.008  0.6351  0.5424  0.7473
  768MOL0     C 3612   6.026   8.128   5.097 -0.4310 -0.6423 -0.9464
  768MOL0     H 3613   6.499   7.919   4.986 -2.0901 -1.7223 -1.6375
  768MOL0     H 3614   6.723   7.845   5.081 -0.4664  0.2113  0.9882
  768MOL0     H 3615   6.766   7.429   5.266  0.3706  0.5726 -0.0362
  768MOL0     H 3616   6.909   7.523   5.324  0.7006  2.4991  1.1387
  768MOL0     H 3617   6.636   7.507   5.434 -1.0299  1.2653 -4.8665
  768MOL0     H 3618   6.703   7.672   5.430 -2.6232 -0.3668  2.7957
  768MOL0     H 3619   6.910   7.611   5.544 -1.2349  1.5391  2.5815
  768MOL0     H 3620   6.869   7.435   5.527  1.9922 -0.3194  2.3105
  768MOL0     H 3621   6.697   7.635   5.697  1.7367  0.9668  2.5557
  768MOL0     H 3622   6.672   7.469   5.663  0.3406 -0.4655 -1.7911
  768MOL0     H 3623   6.921   7.429   5.763 -0.6863 -3.1009  1.6941
  768MOL0     H 3624   6.904   7.597   5.810  0.1536 -0.1640 -2.1696
  768MOL0     H 3625   6.694   7.523   5.941  0.1143 -1.0943  1.6027
  768MOL0     H 3626   6.718   7.360   5.883  1.2952 -1.7298  1.2339
  768MOL0     H 3627   6.803   7.425   6.121 -2.4643 -0.1913 -0.4033
  768MOL0     H 3628   6.954   7.459   6.025 -0.8586 -0.0261  0.1073
  768MOL0     H 3629   6.801   7.201   6.013  0.7675  0.6736  0.4417
  768MOL0     H 3630   6.937   7.225   5.928 -0.5251 -1.5830  0.5026
  768MOL0     H 3631   6.890   7.282   6.321 -0.4444 -3.4054  4.0470
  768MOL0     H 3632   6.993   7.115   6.523 -0.6427 -1.1701 -0.5429
  768MOL0     H 3633   7.116   7.003   6.462  0.9583  0.2889 -1.5593
  768MOL0     H 3634   7.280   7.201   6.459  0.3007  1.5136  0.4275
  768MOL0     H 3635   7.142   7.308   6.490 -2.1271 -0.9218  0.9613
  768MOL0     H 3636   7.256   7.094   6.688  0.3170  0.8815  3.3901
  768MOL0     H 3637   7.098   7.175   6.701 -0.6407 -0.3357 -1.1867
  768MOL0     H 3638   7.215   7.394   6.714  3.0235  1.4163 -0.6183
  768MOL0     H 3639   7.367   7.307   6.693 -0.0859 -1.5852 -0.6194
  768MOL0     H 3640   7.407   7.215   7.087 -2.7211  0.5201  0.0444
  768MOL0     H 3641   7.586   7.332   7.201 -1.9277 -1.4395  0.9277
  768MOL0     H 3642   7.759   7.765   7.354  0.8334  1.2449  2.4066
  768MOL0     H 3643   7.960   7.851   7.456  3.0884  0.3361 -1.1702
  768MOL0     H 3644   8.319   7.712   7.320 -0.4910  1.0557 -1.4002
  768MOL0     H 3645   8.248   7.861   7.343 -0.8912  1.4487  3.6433
  768MOL0     H 3646   8.452   7.748   7.533 -2.2338  0.3233  2.7746
  768MOL0     H 3647   8.486   7.866   7.413  1.5629 -2.3321  0.1305
  768MOL0     H 3648   8.306   7.892   7.650  1.5288  1.7850  2.2081
  768MOL0     H 3649   8.453   7.980   7.626 -0.3686 -2.0955  2.4621
  768MOL0     H 3650   8.255   8.115   7.593  1.0705 -0.4837  0.3940
  768MOL0     H 3651   8.188   8.011   7.466 -0.6397 -1.2971  0.4109
  768MOL0     H 3652   8.368   8.073   7.306 -0.9841 -0.7157  0.2986
  768MOL0     H 3653   8.470   8.133   7.428 -0.1704 -2.9465  0.4278
  768MOL0     H 3654   8.189   8.247   7.368  0.2173 -0.7225  1.0868
  768MOL0     H 3655   8.306   8.311   7.484 -1.2840 -3.7270  2.7315
  768MOL0     H 3656   8.305   8.443   7.262 -1.7765 -1.0941  1.5278
  768MOL0     H 3657   8.314   8.299   7.176 -1.0144  1.8322 -0.6646
  768MOL0     H 3658   8.548   8.266   7.233 -1.2587 -0.4811  0.7373
  768MOL0     H 3659   8.540   8.432   7.193  4.4955 -0.7529  0.6994
  768MOL0     H 3660   8.152   7.465   7.388  0.4952  0.7751 -0.0415
  768MOL0     H 3661   7.908   7.385   7.305 -0.8906  0.8395 -2.4825
  768MOL0     H 3662   7.519   7.659   6.921 -0.2116 -1.6627 -2.0688
  768MOL0     H 3663   7.345   7.531   6.803 -4.9768 -3.3730  0.9203
  768MOL0     H 3664   6.541   7.478   5.218 -1.1016 -0.2668  1.0490
  768MOL0     H 3665   6.322   7.560   5.108  0.9595 -0.8043 -1.0065
  768MOL0     H 3666   6.048   7.714   4.907 -0.2074  0.3749  1.5283
  768MOL0     H 3667   5.833   7.744   4.817  0.0301 -0.7628  1.4463
  768MOL0     H 3668   5.636   8.135   4.793 -1.2788 -0.3512 -1.7364
  768MOL0     H 3669   5.588   8.060   4.953 -4.1977 -2.1009  0.9076
  768MOL0     H 3670   5.406   7.941   4.856  0.1157  0.8790  0.6167
  768MOL0     H 3671   5.467   7.953   4.701  0.4638 -0.7255  0.6573
  768MOL0     H 3672   5.421   8.206   4.699  2.2035 -2.6616 -1.7610
  768MOL0     H 3673   5.389   8.199   4.873  1.0686  2.2653 -1.5871
  768MOL0     H 3674   5.180   8.079   4.834 -1.3667  1.6795  0.3216
  768MOL0     H 3675   5.195   8.228   4.735 -0.1101  0.8954  0.7119
  768MOL0     H 3676   5.131   7.960   4.441  0.1117 -1.7088  1.2121
  768MOL0     H 3677   5.813   8.147   4.958  1.1884  0.3112 -2.1201
  768MOL0     H 3678   6.116   8.180   5.064  2.4458 -4.0670  0.7826
  768MOL0     H 3679   5.949   8.204   5.112  0.7273  0.9833 -2.6887
  768MOL0     H 3680   6.048   8.087   5.196  0.7480 -3.0328 -2.1188
  769MOL0     O 3681   9.942   3.868   1.979 -0.9581 -0.0563 -0.7293
  769MOL0     C 3682   9.833   3.919   2.002 -0.4639 -0.0354  0.2329
  769MOL0     O 3683   9.795   3.964   2.118 -0.8128 -0.0901  0.0497
  769MOL0     C 3684   9.884   3.993   2.219  0.6820  0.6067 -0.2346
  769MOL0     C 3685   9.993   4.083   2.200 -0.0404  0.4171  0.4377
  769MOL0     C 3686  10.071   4.110   2.315  0.4227  0.2800  1.2323
  769MOL0     C 3687  10.049   4.064   2.446 -0.6561 -0.4082  0.0040
  769MOL0     O 3688  10.133   4.116   2.544 -0.2172 -0.0372  0.4288
  769MOL0     C 3689  10.145   4.038   2.661 -0.3553  0.4518 -0.1590
  769MOL0     C 3690  10.264   4.086   2.745 -0.0831 -0.8762  0.1522
  769MOL0     C 3691  10.266   3.999   2.873  1.3064 -0.3132  0.7907
  769MOL0     C 3692  10.375   4.041   2.972 -0.3980 -0.6085 -0.2795
  769MOL0     C 3693  10.361   3.972   3.102 -0.0051  0.0204  1.0964
  769MOL0     C 3694  10.451   4.023   3.213 -0.6763 -0.0032 -0.2586
  769MOL0     C 3695  10.589   4.081   3.169  0.3417  0.7888 -0.3527
  769MOL0     C 3696  10.680   3.971   3.123 -0.5130  0.7764 -0.5045
  769MOL0     N 3697  10.810   4.020   3.093 -0.0702 -0.1071  0.5898
  769MOL0     C 3698  10.908   4.039   3.189  0.9861  0.2601  1.1031
  769MOL0     C 3699  11.013   4.090   3.121  0.0982 -0.4847  0.3370
  769MOL0     C 3700  11.152   4.118   3.180  0.2195  0.0228 -0.3241
  769MOL0     C 3701  11.163   4.260   3.248  0.1708  0.8711 -0.2799
  769MOL0     C 3702  11.180   4.377   3.150  0.7014  0.4519  0.6193
  769MOL0     C 3703  11.106   4.493   3.211  0.2868 -1.4852 -1.0097
  769MOL0     O 3704  11.100   4.588   3.104  0.2538 -0.4397 -0.7400
  769MOL0     C 3705  11.194   4.688   3.110  0.4648  0.3019  0.0178
  769MOL0     C 3706  11.163   4.804   3.032  0.1730  0.3339 -0.5626
  769MOL0     C 3707  11.260   4.914   3.034 -0.2833  0.7123  0.0832
  769MOL0     C 3708  11.373   4.917   3.115  0.4255  0.2669  0.0477
  769MOL0     C 3709  11.457   5.038   3.126  0.5802  1.1977  0.7132
  769MOL0     O 3710  11.550   5.036   3.225 -0.0397 -0.8231  0.3445
  769MOL0     C 3711  11.660   5.125   3.242  0.4429 -0.4294  0.3634
  769MOL0     C 3712  11.712   5.214   3.145  1.4292  0.2051  0.3460
  769MOL0     C 3713  11.822   5.297   3.168 -0.9464  0.3614 -0.3209
  769MOL0     C 3714  11.887   5.296   3.292  0.1069 -0.0614  0.1614
  769MOL0     O 3715  11.971   5.390   3.336 -0.2140  0.4756 -0.0563
  769MOL0     C 3716  12.058   5.470   3.244  0.7930  0.1672 -0.5550
  769MOL0     C 3717  12.191   5.491   3.323  0.6076 -0.7525  0.1781
  769MOL0     C 3718  12.298   5.571   3.248  0.7436 -0.2347 -1.1713
  769MOL0     C 3719  12.398   5.621   3.360 -0.3455 -0.7017  0.3528
  769MOL0     C 3720  12.494   5.716   3.295  0.0982 -0.2560 -0.1852
  769MOL0     C 3721  12.624   5.747   3.376 -0.0180 -0.3909  0.0225
  769MOL0     C 3722  12.704   5.633   3.435  0.4185  0.0537  0.0512
  769MOL0     C 3723  12.847   5.658   3.481 -1.0979 -0.3195  0.0446
  769MOL0    Cl 3724  12.864   5.800   3.590  0.3716  0.2385 -0.0858
  769MOL0     C 3725  11.841   5.208   3.386  0.9255 -0.1941 -0.5739
  769MOL0     C 3726  11.723   5.131   3.365 -0.1973  0.5813 -0.0798
  769MOL0     O 3727  11.427   5.136   3.053  0.3722 -1.0908 -0.1655
  769MOL0     C 3728  11.393   4.804   3.195 -0.0293 -0.4889 -0.0122
  769MOL0     C 3729  11.312   4.688   3.184 -0.6071  0.8532  0.5592
  769MOL0     N 3730  10.974   4.095   2.987  0.4365  0.4568  0.3572
  769MOL0     N 3731  10.852   4.054   2.973  0.0112 -0.1045  0.7625
  769MOL0     C 3732   9.937   3.978   2.466 -0.6959 -0.5194 -0.2850
  769MOL0     C 3733   9.854   3.950   2.357  1.1641  0.0182  0.1747
  769MOL0     C 3734   9.730   3.921   1.898  0.1666 -0.4173 -0.3100
  769MOL0     C 3735   9.632   4.024   1.906 -0.9777  0.0947  0.7250
  769MOL0     C 3736   9.538   4.040   1.807 -0.4703  0.5110  0.5927
  769MOL0     C 3737   9.534   3.953   1.696  0.6343  0.0162  0.2178
  769MOL0     O 3738   9.440   3.961   1.591 -0.4765 -0.1322 -0.2574
  769MOL0     C 3739   9.327   4.052   1.594  0.8198  0.0695 -0.0647
  769MOL0     C 3740   9.272   4.080   1.454 -0.0058  0.3373 -0.3194
  769MOL0     C 3741   9.118   4.083   1.438  0.2678 -0.7907 -0.1037
  769MOL0     C 3742   9.062   4.196   1.345 -0.4221  1.1512  0.1613
  769MOL0     C 3743   8.920   4.221   1.365  0.4352 -0.2087 -0.1150
  769MOL0     C 3744   8.806   4.249   1.374  0.9166 -0.6672  0.9584
  769MOL0     C 3745   9.620   3.847   1.695  0.1439  0.1482  0.3588
  769MOL0     C 3746   9.716   3.826   1.792  0.1719 -0.6744 -0.8711
  769MOL0     C 3747   9.817   3.721   1.767  0.3792 -0.1485 -0.3274
  769MOL0     H 3748  10.012   4.132   2.105  0.9257 -0.8048 -0.0189
  769MOL0     H 3749  10.160   4.170   2.297  0.4508  0.0384  0.5632
  769MOL0     H 3750  10.052   4.044   2.718 -0.1273 -1.4040  0.4623
  769MOL0     H 3751  10.169   3.934   2.637 -1.0392  0.4367 -0.7831
  769MOL0     H 3752  10.255   4.193   2.767 -0.2323 -0.6804 -0.8015
  769MOL0     H 3753  10.359   4.078   2.692 -0.4377 -0.8742 -0.4906
  769MOL0     H 3754  10.293   3.896   2.846  1.8053 -0.3414  1.3798
  769MOL0     H 3755  10.171   4.008   2.926  0.3725  1.1011 -1.0082
  769MOL0     H 3756  10.471   4.021   2.923  0.6364  2.5240  0.2656
  769MOL0     H 3757  10.378   4.149   2.986 -2.3907 -0.1336 -2.7977
  769MOL0     H 3758  10.255   3.982   3.124 -1.2006  0.1107 -3.6098
  769MOL0     H 3759  10.390   3.867   3.094  2.0185  0.5013  1.5808
  769MOL0     H 3760  10.387   4.097   3.263 -0.7771  0.1914 -0.6689
  769MOL0     H 3761  10.465   3.942   3.285 -0.1180  0.9204  0.7003
  769MOL0     H 3762  10.645   4.137   3.244  0.2066  0.2403  0.1569
  769MOL0     H 3763  10.573   4.155   3.089  1.0977  0.4645 -0.8251
  769MOL0     H 3764  10.684   3.895   3.202 -0.6254  1.3721  0.0870
  769MOL0     H 3765  10.657   3.923   3.028  3.3337 -0.4545 -0.9705
  769MOL0     H 3766  10.902   4.014   3.294 -1.2415 -1.3389  0.6531
  769MOL0     H 3767  11.193   4.036   3.238  1.9453  0.0777 -1.4066
  769MOL0     H 3768  11.223   4.125   3.097  1.8349 -1.7765  0.8261
  769MOL0     H 3769  11.080   4.270   3.319 -3.3197 -2.8811 -3.2858
  769MOL0     H 3770  11.251   4.264   3.312 -0.4769  2.6268  0.5531
  769MOL0     H 3771  11.129   4.349   3.057 -0.9785 -0.0136  1.6351
  769MOL0     H 3772  11.283   4.387   3.114 -0.2045 -0.3199 -2.4156
  769MOL0     H 3773  11.145   4.518   3.311 -0.1808 -0.0310 -1.1723
  769MOL0     H 3774  11.003   4.473   3.242 -0.2766 -0.5982 -2.2469
  769MOL0     H 3775  11.075   4.805   2.968  0.9899 -0.2696 -1.7410
  769MOL0     H 3776  11.238   4.991   2.962  0.4616 -0.2347 -1.1969
  769MOL0     H 3777  11.670   5.211   3.045  0.8832 -0.2162  0.5789
  769MOL0     H 3778  11.854   5.368   3.091 -0.2856  0.0518 -0.3417
  769MOL0     H 3779  12.063   5.422   3.146 -0.4443 -1.2515  0.0230
  769MOL0     H 3780  12.010   5.564   3.216 -3.3260 -1.2873  0.8698
  769MOL0     H 3781  12.164   5.540   3.416  1.2360 -1.8791  0.9819
  769MOL0     H 3782  12.232   5.393   3.351 -1.3263 -1.4928  0.5857
  769MOL0     H 3783  12.335   5.517   3.160 -0.5161 -0.0745 -1.8238
  769MOL0     H 3784  12.243   5.659   3.213  1.3286  0.7603  0.3370
  769MOL0     H 3785  12.442   5.526   3.391 -2.3283 -2.6387 -2.2460
  769MOL0     H 3786  12.350   5.677   3.441  0.9483  0.2135  0.5115
  769MOL0     H 3787  12.435   5.807   3.279 -0.9172 -0.7701  0.5287
  769MOL0     H 3788  12.522   5.667   3.201  0.5685 -1.5578  0.6078
  769MOL0     H 3789  12.685   5.814   3.315 -0.5077 -1.6812 -2.0037
  769MOL0     H 3790  12.593   5.803   3.464  1.3642  2.4974 -1.1678
  769MOL0     H 3791  12.709   5.553   3.361 -1.5222  1.1089 -1.3251
  769MOL0     H 3792  12.653   5.600   3.525  0.6862  3.7837  1.7615
  769MOL0     H 3793  12.888   5.571   3.534  1.4977  0.4308 -0.5861
  769MOL0     H 3794  12.907   5.671   3.391  0.3699 -0.9360  0.8837
  769MOL0     H 3795  11.880   5.206   3.488 -1.0410  1.5107  0.2616
  769MOL0     H 3796  11.685   5.077   3.451 -0.8176  2.8080  1.1430
  769MOL0     H 3797  11.482   4.812   3.257  0.2376  3.1692 -0.6379
  769MOL0     H 3798  11.350   4.598   3.231  0.6897 -0.1525 -2.1722
  769MOL0     H 3799   9.915   3.939   2.565 -0.4258  0.3441  0.1213
  769MOL0     H 3800   9.760   3.896   2.370  1.1617 -0.4116 -1.4774
  769MOL0     H 3801   9.627   4.089   1.992 -1.1232 -0.6436  1.2904
  769MOL0     H 3802   9.462   4.114   1.831  1.4672  1.8373  3.1047
  769MOL0     H 3803   9.352   4.149   1.637 -0.2608  0.8488 -1.1678
  769MOL0     H 3804   9.245   4.001   1.646  0.3034 -0.9629 -1.8335
  769MOL0     H 3805   9.290   3.994   1.388 -1.2701  0.3716 -0.7422
  769MOL0     H 3806   9.318   4.175   1.424  0.2024  0.3606  0.0673
  769MOL0     H 3807   9.065   4.092   1.534  0.0940 -0.2762 -0.2443
  769MOL0     H 3808   9.077   3.990   1.397 -1.3660  0.2673 -1.0150
  769MOL0     H 3809   9.127   4.284   1.355 -0.2321  0.9586  0.6853
  769MOL0     H 3810   9.074   4.161   1.242 -1.9693 -4.2662  1.4989
  769MOL0     H 3811   8.701   4.270   1.388  0.3438 -3.6266  1.6298
  769MOL0     H 3812   9.619   3.791   1.602 -3.5803 -1.6306  1.2873
  769MOL0     H 3813   9.870   3.687   1.856 -1.4022 -1.1750  0.4089
  769MOL0     H 3814   9.760   3.635   1.730 -0.7414  0.4031  0.0584
  769MOL0     H 3815   9.893   3.754   1.696  1.3674  0.8344  1.1349
  770MOL0     O 3816   9.421   4.482   5.605  0.1826 -0.6970 -0.0577
  770MOL0     C 3817   9.355   4.581   5.634  0.4277  0.0687 -0.7796
  770MOL0     O 3818   9.405   4.702   5.675  0.0395 -0.0843  0.0391
  770MOL0     C 3819   9.538   4.722   5.664  0.5324 -1.3737 -0.3488
  770MOL0     C 3820   9.619   4.717   5.781 -0.8170 -0.8262  0.2139
  770MOL0     C 3821   9.759   4.718   5.755 -0.1442 -0.6151 -0.1966
  770MOL0     C 3822   9.824   4.738   5.635 -0.0119 -0.7254 -0.1743
  770MOL0     O 3823   9.961   4.728   5.616 -0.2141  0.3651 -0.3454
  770MOL0     C 3824  10.057   4.763   5.723 -0.1668  0.5985  0.3829
  770MOL0     C 3825  10.200   4.781   5.671  0.6684  0.2995  0.4065
  770MOL0     C 3826  10.260   4.652   5.633 -0.7315  0.1101  0.7605
  770MOL0     C 3827  10.381   4.674   5.540 -0.5714  0.7846 -0.7507
  770MOL0     C 3828  10.485   4.559   5.544  0.2936  0.6791  1.2261
  770MOL0     C 3829  10.553   4.533   5.680 -0.1017  0.5455 -0.9117
  770MOL0     C 3830  10.665   4.430   5.676 -0.4828 -0.1772  0.0760
  770MOL0     C 3831  10.775   4.454   5.573 -0.7237  0.0691  0.0323
  770MOL0     N 3832  10.891   4.384   5.610  0.0377 -0.3101  0.2344
  770MOL0     C 3833  10.900   4.254   5.617  0.2554  0.5997 -0.4802
  770MOL0     C 3834  11.030   4.229   5.641 -0.5819 -0.5014  0.1806
  770MOL0     C 3835  11.093   4.101   5.613 -1.2341  0.2648 -0.2088
  770MOL0     C 3836  11.242   4.102   5.633 -0.7989 -0.3957 -0.3421
  770MOL0     C 3837  11.317   3.970   5.610  0.0412 -0.0831 -0.9293
  770MOL0     C 3838  11.460   3.957   5.666  0.1911 -0.1733  0.4574
  770MOL0     O 3839  11.491   3.819   5.653 -0.1980  0.2908  0.7791
  770MOL0     C 3840  11.633   3.786   5.653  0.4255  0.3405 -0.5028
  770MOL0     C 3841  11.746   3.869   5.677  0.1608  0.5423 -0.5766
  770MOL0     C 3842  11.875   3.809   5.671 -0.1307 -0.9526  0.3999
  770MOL0     C 3843  11.900   3.671   5.648 -0.8647 -0.4244  0.2897
  770MOL0     C 3844  12.041   3.619   5.642  0.0485  0.9393 -0.8768
  770MOL0     O 3845  12.141   3.701   5.594  0.5744  0.3816  0.0157
  770MOL0     C 3846  12.274   3.654   5.603  0.1393  0.8475 -0.6257
  770MOL0     C 3847  12.345   3.698   5.711  0.1853  0.1997  0.3026
  770MOL0     C 3848  12.472   3.660   5.734 -0.8460  0.2685  0.5662
  770MOL0     C 3849  12.545   3.586   5.641  0.3910  0.0642 -0.1780
  770MOL0     O 3850  12.677   3.560   5.652 -0.2813 -0.0361 -0.1164
  770MOL0     C 3851  12.731   3.426   5.610  0.7692  0.0205 -0.1312
  770MOL0     C 3852  12.840   3.375   5.695 -0.1424 -0.0644  0.0956
  770MOL0     C 3853  12.938   3.474   5.751  0.2680  0.2645  0.1077
  770MOL0     C 3854  13.068   3.421   5.776 -1.5090  0.4554 -0.8760
  770MOL0     C 3855  13.152   3.507   5.874 -0.8108 -0.2972 -0.1662
  770MOL0     C 3856  13.294   3.445   5.886 -0.3593 -0.2669  0.2915
  770MOL0     C 3857  13.374   3.502   6.006 -0.0709  0.3452 -0.0950
  770MOL0     C 3858  13.523   3.534   5.978 -0.1876  0.4428  0.6734
  770MOL0    Cl 3859  13.580   3.606   6.129  0.1370  0.1858  0.1752
  770MOL0     C 3860  12.472   3.533   5.529  0.5503  0.0626  0.5020
  770MOL0     C 3861  12.339   3.572   5.509 -0.8962  0.5851  0.7410
  770MOL0     O 3862  12.054   3.504   5.687 -0.1324 -0.1849 -0.5504
  770MOL0     C 3863  11.785   3.581   5.641  0.0513  0.7439 -1.4317
  770MOL0     C 3864  11.655   3.650   5.644  0.3445  1.0778  0.4802
  770MOL0     N 3865  11.098   4.349   5.656  0.1804  0.6820  0.3405
  770MOL0     N 3866  11.013   4.444   5.640  0.1613 -0.4131 -0.0145
  770MOL0     C 3867   9.729   4.744   5.524  0.3443 -0.4826  0.4647
  770MOL0     C 3868   9.595   4.737   5.538  0.0416  0.7925 -0.4874
  770MOL0     C 3869   9.212   4.579   5.613 -0.1507  1.2555 -0.2731
  770MOL0     C 3870   9.170   4.506   5.506 -0.6339  0.7423  1.3613
  770MOL0     C 3871   9.036   4.482   5.487 -0.7506 -0.3529 -0.1710
  770MOL0     C 3872   8.936   4.548   5.568 -0.3054 -0.3583 -0.4215
  770MOL0     O 3873   8.799   4.537   5.548  0.2461 -0.8207 -0.5751
  770MOL0     C 3874   8.738   4.460   5.444  0.3849 -0.2425  1.1474
  770MOL0     C 3875   8.596   4.430   5.479  0.6194 -0.5462 -0.1796
  770MOL0     C 3876   8.502   4.554   5.479 -0.9748  0.0903 -0.5910
  770MOL0     C 3877   8.484   4.618   5.339  0.2109 -0.2249 -1.0989
  770MOL0     C 3878   8.385   4.541   5.271 -0.2584 -0.5385  0.0923
  770MOL0     C 3879   8.310   4.459   5.216  0.1054 -0.5129  0.4961
  770MOL0     C 3880   8.982   4.626   5.671 -0.1711 -0.2190 -0.8548
  770MOL0     C 3881   9.118   4.638   5.698  0.0289 -0.5121 -0.5440
  770MOL0     C 3882   9.156   4.716   5.822  0.5612  1.2833 -0.0583
  770MOL0     H 3883   9.586   4.688   5.880 -0.2936  0.5204  0.8140
  770MOL0     H 3884   9.819   4.703   5.844 -1.7528  0.2159  1.0729
  770MOL0     H 3885  10.026   4.852   5.778 -1.4093  1.0859 -1.0303
  770MOL0     H 3886  10.066   4.679   5.792  0.2829  0.9156  0.7138
  770MOL0     H 3887  10.270   4.815   5.748  0.3450  1.6855  0.1185
  770MOL0     H 3888  10.192   4.854   5.589 -2.8914  0.3301  0.6314
  770MOL0     H 3889  10.184   4.590   5.584  0.4311 -1.8609  1.3781
  770MOL0     H 3890  10.279   4.604   5.729 -1.5135  0.5053  1.1331
  770MOL0     H 3891  10.338   4.680   5.440  0.1861  0.9606 -1.0776
  770MOL0     H 3892  10.421   4.772   5.568  2.0626 -0.8236  1.7413
  770MOL0     H 3893  10.442   4.471   5.495 -0.1209  2.1782 -1.3045
  770MOL0     H 3894  10.562   4.574   5.468 -1.4164  1.5353 -0.4076
  770MOL0     H 3895  10.589   4.627   5.724 -0.1056 -0.0119  0.2992
  770MOL0     H 3896  10.487   4.488   5.755  1.4545  1.2899  1.0007
  770MOL0     H 3897  10.625   4.330   5.654  0.8119 -0.3748 -1.6258
  770MOL0     H 3898  10.706   4.416   5.777  1.1872  1.2254 -0.3682
  770MOL0     H 3899  10.754   4.418   5.472 -0.3349  1.0890 -0.4297
  770MOL0     H 3900  10.799   4.561   5.578  0.8348 -0.3137  2.5620
  770MOL0     H 3901  10.827   4.175   5.597 -0.8813  1.9165 -1.7639
  770MOL0     H 3902  11.057   4.042   5.699 -0.0725  0.7494  0.6363
  770MOL0     H 3903  11.060   4.056   5.519 -2.8595 -0.1910  0.5461
  770MOL0     H 3904  11.295   4.175   5.571 -0.0718 -1.5518 -1.1414
  770MOL0     H 3905  11.264   4.131   5.736  0.8908 -0.4071 -0.6603
  770MOL0     H 3906  11.316   3.955   5.501  3.1579 -1.1006 -0.9263
  770MOL0     H 3907  11.255   3.895   5.660  1.3384 -0.6413 -0.1149
  770MOL0     H 3908  11.460   3.987   5.771 -0.1621 -2.5399  1.1922
  770MOL0     H 3909  11.535   4.012   5.609  0.4395 -0.3254  0.6350
  770MOL0     H 3910  11.732   3.977   5.685  1.1768  0.6086  0.4463
  770MOL0     H 3911  11.965   3.870   5.668 -0.8640  0.1314 -1.5539
  770MOL0     H 3912  12.301   3.764   5.785  0.6903 -0.0023  0.7911
  770MOL0     H 3913  12.524   3.691   5.824 -0.6011  2.9326 -0.3809
  770MOL0     H 3914  12.648   3.355   5.619  0.3864  0.5213  0.3516
  770MOL0     H 3915  12.767   3.428   5.507  0.8643 -0.3071 -0.1060
  770MOL0     H 3916  12.802   3.318   5.780  0.1538 -0.7554 -0.2212
  770MOL0     H 3917  12.892   3.307   5.626 -0.1097  0.5760 -0.5141
  770MOL0     H 3918  12.945   3.561   5.685  0.7440 -0.6070 -1.0218
  770MOL0     H 3919  12.895   3.512   5.845  0.0838 -1.3335  0.7040
  770MOL0     H 3920  13.129   3.416   5.686  0.6808  0.1298  0.5432
  770MOL0     H 3921  13.062   3.320   5.817 -0.8683  0.6483 -0.3004
  770MOL0     H 3922  13.107   3.512   5.973 -4.8223 -1.3082 -1.7230
  770MOL0     H 3923  13.157   3.610   5.837 -0.4531  0.3438  1.5884
  770MOL0     H 3924  13.275   3.338   5.900 -0.5313 -0.4163 -0.9635
  770MOL0     H 3925  13.350   3.458   5.792  0.7447 -0.2500  0.9372
  770MOL0     H 3926  13.370   3.424   6.083  1.0703 -0.8052 -1.1539
  770MOL0     H 3927  13.318   3.589   6.040 -0.7737  1.0233 -2.6983
  770MOL0     H 3928  13.571   3.443   5.940 -1.5072  0.7620 -1.9882
  770MOL0     H 3929  13.528   3.614   5.904  0.6138  0.0579  0.2967
  770MOL0     H 3930  12.527   3.472   5.459  1.3749  2.4480 -1.0644
  770MOL0     H 3931  12.287   3.522   5.427  2.4067  1.8100 -2.3397
  770MOL0     H 3932  11.786   3.472   5.641  0.6286  0.5238  3.0981
  770MOL0     H 3933  11.575   3.577   5.649  0.9277  0.4631  1.0686
  770MOL0     H 3934   9.781   4.760   5.430  0.5615  0.0136  0.6636
  770MOL0     H 3935   9.533   4.732   5.449  0.4015  0.0646 -0.6947
  770MOL0     H 3936   9.237   4.457   5.436 -1.5604 -0.7762  1.5096
  770MOL0     H 3937   9.010   4.428   5.397 -3.2013 -0.2492  0.4113
  770MOL0     H 3938   8.794   4.366   5.442  0.7527 -0.0274  1.4014
  770MOL0     H 3939   8.740   4.518   5.351 -3.6476  1.2068  1.7503
  770MOL0     H 3940   8.591   4.391   5.581  2.0178 -0.7691 -0.1886
  770MOL0     H 3941   8.552   4.368   5.400  1.3753 -0.6099 -0.5546
  770MOL0     H 3942   8.547   4.629   5.545 -0.1931 -0.3328 -0.6310
  770MOL0     H 3943   8.408   4.527   5.528  0.0568 -2.1655  0.2841
  770MOL0     H 3944   8.451   4.722   5.344  2.6862  0.5935  1.2858
  770MOL0     H 3945   8.576   4.621   5.279 -0.1821 -1.6383 -1.8093
  770MOL0     H 3946   8.248   4.381   5.176 -0.2981  1.4033 -2.9819
  770MOL0     H 3947   8.913   4.684   5.731  1.3961 -0.6258  1.4910
  770MOL0     H 3948   9.079   4.716   5.900  0.9008 -0.1797  0.3107
  770MOL0     H 3949   9.238   4.671   5.879  0.0766  0.5389  0.0588
  770MOL0     H 3950   9.174   4.820   5.792  0.7158  1.2371 -0.1267
  771MOL0     O 3951   5.891   7.470   1.993  0.2913  1.5006 -0.9830
  771MOL0     C 3952   5.824   7.360   1.978 -0.0290 -0.3898 -0.2504
  771MOL0     O 3953   5.852   7.245   2.042  0.1764  0.3118 -0.4083
  771MOL0     C 3954   5.932   7.231   2.154  0.6878  0.9550  1.1994
  771MOL0     C 3955   5.968   7.326   2.238  0.2346 -0.4777  0.5018
  771MOL0     C 3956   6.059   7.296   2.342  0.2862 -0.1467 -0.2333
  771MOL0     C 3957   6.108   7.164   2.362 -0.3007 -0.1432  0.5478
  771MOL0     O 3958   6.192   7.131   2.469  0.2444 -0.0543 -0.3483
  771MOL0     C 3959   6.331   7.112   2.442 -0.0251  0.5692  0.9184
  771MOL0     C 3960   6.409   7.243   2.461  0.6369  0.4481  0.2084
  771MOL0     C 3961   6.560   7.228   2.469  0.1340 -1.0175  0.0589
  771MOL0     C 3962   6.631   7.225   2.334 -0.1845 -0.8573  0.0336
  771MOL0     C 3963   6.784   7.258   2.343 -0.2596  0.1355 -0.5148
  771MOL0     C 3964   6.856   7.247   2.206 -0.1361  0.5271 -0.0342
  771MOL0     C 3965   6.990   7.313   2.209  0.3727  0.8251 -1.0271
  771MOL0     C 3966   7.064   7.284   2.078  0.7020 -0.3374 -0.2132
  771MOL0     N 3967   7.204   7.280   2.097 -1.2653  0.2160 -0.5196
  771MOL0     C 3968   7.281   7.181   2.154 -0.4412 -0.9170  0.2449
  771MOL0     C 3969   7.409   7.206   2.115 -0.1407 -0.0460 -0.2917
  771MOL0     C 3970   7.534   7.125   2.154 -0.1008 -0.7994  0.2039
  771MOL0     C 3971   7.535   7.080   2.301  0.5860 -0.4349 -0.1863
  771MOL0     C 3972   7.633   6.975   2.345  0.6409  0.4230  0.6939
  771MOL0     C 3973   7.781   7.022   2.347  0.9221  0.0633 -0.6189
  771MOL0     O 3974   7.817   7.039   2.208 -0.5035  0.2315  0.1739
  771MOL0     C 3975   7.949   7.037   2.173  0.2086 -0.6679 -0.0956
  771MOL0     C 3976   8.051   7.079   2.267  0.5907  0.8194 -0.0418
  771MOL0     C 3977   8.182   7.088   2.236  0.5530  0.4528 -0.4899
  771MOL0     C 3978   8.234   7.061   2.103 -0.2070  0.7293 -0.2274
  771MOL0     C 3979   8.374   7.084   2.074  0.4074  0.5631  1.1666
  771MOL0     O 3980   8.467   7.122   2.168  0.0417  1.0046  0.1206
  771MOL0     C 3981   8.602   7.090   2.140 -0.3631  0.5598  0.1368
  771MOL0     C 3982   8.694   7.187   2.183  0.0298  0.1771  0.2369
  771MOL0     C 3983   8.831   7.155   2.179 -0.2662 -0.4262 -0.1580
  771MOL0     C 3984   8.880   7.033   2.123  0.2430 -0.3565  0.5780
  771MOL0     O 3985   9.012   7.000   2.103 -0.0782 -1.1111  0.7805
  771MOL0     C 3986   9.104   7.111   2.089  0.6382  1.1355 -0.6050
  771MOL0     C 3987   9.237   7.066   2.022 -0.1083 -0.3238 -0.1865
  771MOL0     C 3988   9.340   7.186   2.013  0.8528 -0.3215  0.2568
  771MOL0     C 3989   9.463   7.140   1.938  0.5613 -0.3618  0.2401
  771MOL0     C 3990   9.551   7.257   1.905  0.5522  0.1694  0.3560
  771MOL0     C 3991   9.690   7.228   1.852 -0.3630  0.2944 -0.1969
  771MOL0     C 3992   9.795   7.233   1.961  0.2373 -0.1419  0.0834
  771MOL0     C 3993   9.925   7.172   1.909 -0.3304 -0.4120  0.2929
  771MOL0    Cl 3994   9.902   6.994   1.908  0.2281  0.4292  0.2323
  771MOL0     C 3995   8.784   6.940   2.085 -0.1792 -0.1518 -0.9910
  771MOL0     C 3996   8.649   6.964   2.088  0.1344 -0.2294 -0.6875
  771MOL0     O 3997   8.398   7.058   1.951  0.1675 -0.2055  0.3328
  771MOL0     C 3998   8.133   7.021   2.008  0.4775  0.3333 -0.4319
  771MOL0     C 3999   7.995   7.012   2.042  0.8211  0.2433 -0.2521
  771MOL0     N 4000   7.416   7.315   2.032 -0.1190 -0.9382 -0.7305
  771MOL0     N 4001   7.296   7.357   2.024  0.7608 -1.1278  0.4587
  771MOL0     C 4002   6.070   7.063   2.275  0.3246  0.3075 -0.1825
  771MOL0     C 4003   5.978   7.093   2.171 -0.0359 -0.2579  0.6962
  771MOL0     C 4004   5.705   7.364   1.890  0.4817  0.4015  0.2178
  771MOL0     C 4005   5.671   7.486   1.831  0.3346  0.1097  0.0901
  771MOL0     C 4006   5.566   7.493   1.736  0.3174 -0.0067  0.2741
  771MOL0     C 4007   5.493   7.381   1.698  0.1942  0.8289  0.1959
  771MOL0     O 4008   5.401   7.372   1.596  0.1421 -0.2192  0.1891
  771MOL0     C 4009   5.381   7.485   1.509  0.2746 -0.7180  0.6894
  771MOL0     C 4010   5.335   7.435   1.374  0.5465 -0.8257 -0.6205
  771MOL0     C 4011   5.186   7.408   1.353 -0.0014 -0.0924  0.2030
  771MOL0     C 4012   5.111   7.534   1.368  0.2723 -0.8222  0.1852
  771MOL0     C 4013   4.985   7.525   1.303 -0.3938  0.0448 -0.1686
  771MOL0     C 4014   4.874   7.503   1.253  0.5602 -0.1983  0.3394
  771MOL0     C 4015   5.523   7.262   1.764  0.3211 -0.6651 -0.0858
  771MOL0     C 4016   5.620   7.249   1.861 -0.6307 -0.1050 -0.9134
  771MOL0     C 4017   5.632   7.109   1.928 -0.4740  0.1665  0.1989
  771MOL0     H 4018   5.917   7.420   2.220  0.3837 -0.9352 -3.1615
  771MOL0     H 4019   6.091   7.376   2.408  0.2512  1.7746 -2.4237
  771MOL0     H 4020   6.366   7.040   2.516  2.4814 -0.0639 -0.7557
  771MOL0     H 4021   6.349   7.077   2.339  1.0931  0.7243  1.0513
  771MOL0     H 4022   6.379   7.294   2.553  1.7747 -0.1436  0.9343
  771MOL0     H 4023   6.382   7.318   2.387 -0.7548 -0.6948 -0.4854
  771MOL0     H 4024   6.590   7.136   2.520  3.9136  0.6878  1.2765
  771MOL0     H 4025   6.592   7.318   2.522 -0.1533 -0.8421 -0.0619
  771MOL0     H 4026   6.625   7.124   2.294  0.7845 -1.5024  1.4210
  771MOL0     H 4027   6.592   7.294   2.259  2.9785 -0.7507 -1.6852
  771MOL0     H 4028   6.796   7.360   2.378  0.4390  0.7911 -2.5057
  771MOL0     H 4029   6.833   7.194   2.417  0.2141  0.9155 -0.1399
  771MOL0     H 4030   6.864   7.144   2.170 -0.8117  0.8932 -1.3062
  771MOL0     H 4031   6.788   7.297   2.136  0.6342  0.4085 -0.8751
  771MOL0     H 4032   7.042   7.248   2.279 -1.5122 -1.4366 -1.5954
  771MOL0     H 4033   7.001   7.420   2.231  0.2980  1.3947 -3.5051
  771MOL0     H 4034   7.032   7.193   2.027 -2.0871  0.2305  0.3632
  771MOL0     H 4035   7.043   7.368   2.011  2.5736  0.6349  0.3571
  771MOL0     H 4036   7.256   7.089   2.207 -4.0983 -0.5332 -0.5755
  771MOL0     H 4037   7.545   7.040   2.086  0.7200  0.1910 -0.9699
  771MOL0     H 4038   7.613   7.193   2.119  0.6438  0.1077  3.3075
  771MOL0     H 4039   7.543   7.168   2.366  1.6182 -0.4361 -0.2989
  771MOL0     H 4040   7.437   7.032   2.316 -0.3861  1.4793 -0.1352
  771MOL0     H 4041   7.633   6.890   2.276  0.1345 -0.0344  1.2502
  771MOL0     H 4042   7.594   6.943   2.442 -2.3859  1.0059 -0.2173
  771MOL0     H 4043   7.846   6.958   2.407  2.3176  2.3022  0.4020
  771MOL0     H 4044   7.789   7.115   2.404 -0.2075 -1.1304  1.5976
  771MOL0     H 4045   8.029   7.085   2.373 -0.2822  0.4706 -0.1978
  771MOL0     H 4046   8.246   7.098   2.323 -0.7124  0.2453  0.4918
  771MOL0     H 4047   8.663   7.279   2.231  1.6642  0.5150  0.6880
  771MOL0     H 4048   8.899   7.228   2.220 -2.1848  1.1166  0.4345
  771MOL0     H 4049   9.058   7.190   2.029 -0.7558  2.0070  1.4962
  771MOL0     H 4050   9.113   7.155   2.189  1.8574 -1.7088  0.6416
  771MOL0     H 4051   9.282   6.986   2.082  3.6283  0.0139 -2.2912
  771MOL0     H 4052   9.216   7.025   1.923  3.3813 -0.6335 -0.8898
  771MOL0     H 4053   9.287   7.268   1.963  0.4491 -0.4460  0.4747
  771MOL0     H 4054   9.370   7.221   2.112 -1.5086 -0.7794  1.1886
  771MOL0     H 4055   9.430   7.081   1.852  0.4001  1.9100 -1.3319
  771MOL0     H 4056   9.519   7.071   2.003 -0.1093 -0.9152  0.2492
  771MOL0     H 4057   9.564   7.315   1.997  2.8746  1.7913 -0.8819
  771MOL0     H 4058   9.511   7.313   1.820  0.1007  0.6983  0.9030
  771MOL0     H 4059   9.683   7.130   1.803 -0.1949 -0.3290  0.9847
  771MOL0     H 4060   9.713   7.300   1.773  1.3593  0.5933  0.5226
  771MOL0     H 4061   9.765   7.177   2.050 -1.0693  3.2616  1.9500
  771MOL0     H 4062   9.817   7.339   1.979  1.6996 -0.4940  0.5461
  771MOL0     H 4063   9.942   7.199   1.804  1.0580  0.9485  0.8450
  771MOL0     H 4064  10.007   7.206   1.972 -0.4635  1.3126 -0.4115
  771MOL0     H 4065   8.817   6.842   2.050  1.0409 -0.0941 -0.0649
  771MOL0     H 4066   8.566   6.907   2.048 -1.4937  0.1577  1.9457
  771MOL0     H 4067   8.158   6.991   1.907  0.7160 -2.3498  0.3282
  771MOL0     H 4068   7.929   6.983   1.961 -0.4693  0.1189  0.8115
  771MOL0     H 4069   6.099   6.961   2.299  1.0488  1.1854  3.2630
  771MOL0     H 4070   5.943   7.026   2.093 -1.2136  1.1342 -0.0176
  771MOL0     H 4071   5.725   7.577   1.855 -0.0706 -0.6688  4.9686
  771MOL0     H 4072   5.542   7.596   1.710 -2.4277 -0.9636 -1.4614
  771MOL0     H 4073   5.476   7.533   1.483 -0.1926 -0.4721 -0.6159
  771MOL0     H 4074   5.303   7.548   1.553 -1.0262 -2.2255  0.6517
  771MOL0     H 4075   5.388   7.348   1.334  0.5327 -1.2583  0.2862
  771MOL0     H 4076   5.356   7.519   1.307  0.1324 -0.2690 -0.0649
  771MOL0     H 4077   5.147   7.323   1.410  1.2001 -0.0714  1.1167
  771MOL0     H 4078   5.174   7.378   1.249 -1.1057 -3.7727  1.2413
  771MOL0     H 4079   5.090   7.563   1.472 -2.3516 -2.5670  0.2438
  771MOL0     H 4080   5.178   7.611   1.330 -0.2312 -0.7833 -0.6474
  771MOL0     H 4081   4.779   7.496   1.206  0.1445  1.4990  0.8858
  771MOL0     H 4082   5.466   7.172   1.740  0.2632 -0.4127 -0.9216
  771MOL0     H 4083   5.734   7.069   1.922 -0.0702  1.2033 -0.1474
  771MOL0     H 4084   5.622   7.118   2.036  1.7202  0.5974  0.4130
  771MOL0     H 4085   5.565   7.037   1.881 -0.1769  1.2555 -2.0168
  772MOL0     O 4086   8.954   3.638   6.271 -0.4713  0.3033  0.9025
  772MOL0     C 4087   8.953   3.545   6.186 -0.3857  0.4566 -0.7211
  772MOL0     O 4088   9.057   3.468   6.150  0.0553  0.6649  0.2631
  772MOL0     C 4089   9.181   3.492   6.206  0.0822  0.3252  0.4968
  772MOL0     C 4090   9.201   3.483   6.345  0.2838  0.6295  0.7354
  772MOL0     C 4091   9.329   3.479   6.393  0.9064  0.1269  0.8403
  772MOL0     C 4092   9.442   3.496   6.316  0.8817 -0.0978 -0.3850
  772MOL0     O 4093   9.569   3.491   6.368 -0.0619 -0.4734  0.5729
  772MOL0     C 4094   9.598   3.417   6.483 -0.5752 -0.4035  0.4728
  772MOL0     C 4095   9.565   3.265   6.462 -0.4448  0.3506  0.4852
  772MOL0     C 4096   9.597   3.186   6.585  0.0132 -0.4647  0.2373
  772MOL0     C 4097   9.520   3.233   6.709 -0.5456 -0.0906  0.0075
  772MOL0     C 4098   9.563   3.159   6.839  0.1711  1.3436 -0.2083
  772MOL0     C 4099   9.477   3.199   6.960  0.4256  0.1595  0.6335
  772MOL0     C 4100   9.523   3.330   7.022  0.2318 -0.0430 -0.4840
  772MOL0     C 4101   9.464   3.349   7.156 -0.8665  0.0107  0.2722
  772MOL0     N 4102   9.511   3.482   7.198 -0.1747 -0.2301  0.0861
  772MOL0     C 4103   9.429   3.596   7.212  0.2940  0.1790 -1.2111
  772MOL0     C 4104   9.513   3.693   7.259  0.3734  0.2390  0.9845
  772MOL0     C 4105   9.465   3.826   7.312  0.7860  0.3719 -0.1058
  772MOL0     C 4106   9.571   3.935   7.292 -0.5369 -0.0885  0.2888
  772MOL0     C 4107   9.640   3.951   7.155 -0.5954 -0.2739 -0.8761
  772MOL0     C 4108   9.798   3.951   7.183  0.8817 -0.7377  0.4417
  772MOL0     O 4109   9.866   3.937   7.057 -0.2066  0.0434  0.1761
  772MOL0     C 4110   9.999   3.886   7.055 -0.0607  0.1764  0.0164
  772MOL0     C 4111  10.086   3.880   7.163  0.1273  0.4378  0.2851
  772MOL0     C 4112  10.207   3.819   7.155  0.3121 -0.6278 -0.3093
  772MOL0     C 4113  10.253   3.759   7.046  0.5824  0.1493  0.7445
  772MOL0     C 4114  10.371   3.674   7.044 -0.0479 -0.4427  0.2777
  772MOL0     O 4115  10.445   3.692   7.163 -0.2572 -0.5763 -0.6842
  772MOL0     C 4116  10.559   3.615   7.171  0.0844  0.4945  0.3751
  772MOL0     C 4117  10.582   3.547   7.286  0.6131  0.4915 -0.2307
  772MOL0     C 4118  10.694   3.475   7.309 -0.2971 -0.7414 -0.7663
  772MOL0     C 4119  10.797   3.460   7.215  1.0291 -0.2994 -0.0504
  772MOL0     O 4120  10.921   3.401   7.244  0.4513  0.3140 -0.2174
  772MOL0     C 4121  10.920   3.301   7.349 -0.1695  0.4770 -0.2439
  772MOL0     C 4122  11.050   3.219   7.352  0.4122 -0.2123  0.3831
  772MOL0     C 4123  11.167   3.295   7.411  0.6744  0.4192  0.4631
  772MOL0     C 4124  11.286   3.199   7.410 -0.5718 -0.1945 -0.3429
  772MOL0     C 4125  11.399   3.277   7.477 -0.7177  0.5970 -0.1307
  772MOL0     C 4126  11.540   3.219   7.446 -0.0304  0.1981 -0.2367
  772MOL0     C 4127  11.644   3.319   7.505  0.7777  0.2262 -0.4984
  772MOL0     C 4128  11.784   3.250   7.509  0.5348 -0.2152  0.9275
  772MOL0    Cl 4129  11.857   3.236   7.346 -0.5989 -0.0450  0.2744
  772MOL0     C 4130  10.770   3.514   7.089 -0.2047 -0.8408 -0.0239
  772MOL0     C 4131  10.657   3.601   7.071 -0.3222 -0.5380 -0.0626
  772MOL0     O 4132  10.406   3.611   6.943 -0.5404 -0.8513  0.1848
  772MOL0     C 4133  10.174   3.763   6.929  0.8773 -0.4863  0.5849
  772MOL0     C 4134  10.047   3.832   6.940  0.0913 -0.5882  0.4087
  772MOL0     N 4135   9.634   3.626   7.295  0.0296  0.1482 -0.3439
  772MOL0     N 4136   9.629   3.507   7.254 -0.6780 -0.5970 -0.4694
  772MOL0     C 4137   9.425   3.509   6.177 -0.2675  0.3967 -0.0096
  772MOL0     C 4138   9.292   3.504   6.122  0.2873  0.7457 -0.0145
  772MOL0     C 4139   8.824   3.506   6.134  0.4654 -1.0520 -0.6011
  772MOL0     C 4140   8.786   3.532   6.000 -0.7248  0.2391 -0.7136
  772MOL0     C 4141   8.655   3.504   5.959 -0.8619  1.2580  0.4220
  772MOL0     C 4142   8.559   3.444   6.045  0.3437 -1.0502 -0.4822
  772MOL0     O 4143   8.432   3.397   6.016  0.2148  0.6022  0.2319
  772MOL0     C 4144   8.387   3.408   5.880  0.1291 -0.4309  0.3050
  772MOL0     C 4145   8.253   3.330   5.874 -0.6302  0.2064 -0.1888
  772MOL0     C 4146   8.130   3.389   5.945  0.1776 -0.1304 -0.1992
  772MOL0     C 4147   8.051   3.497   5.870  0.8013  0.4389  0.4024
  772MOL0     C 4148   7.944   3.439   5.786 -0.0824  0.0569 -0.1829
  772MOL0     C 4149   7.849   3.400   5.720 -0.2445  0.2334 -0.6698
  772MOL0     C 4150   8.593   3.443   6.181  0.1024  0.1181 -0.4001
  772MOL0     C 4151   8.722   3.477   6.227 -0.4486  0.1980  0.5352
  772MOL0     C 4152   8.741   3.463   6.381  0.4899 -0.4034 -0.4261
  772MOL0     H 4153   9.119   3.452   6.410 -0.2794  1.1667  0.2949
  772MOL0     H 4154   9.335   3.472   6.501 -1.8900  0.1184  1.0614
  772MOL0     H 4155   9.696   3.441   6.524 -2.1448  1.4591  3.5401
  772MOL0     H 4156   9.528   3.451   6.560 -3.6837  1.2881 -2.7761
  772MOL0     H 4157   9.618   3.238   6.370 -0.3757  3.5062 -0.5245
  772MOL0     H 4158   9.458   3.248   6.447 -0.1822 -0.5737 -0.5024
  772MOL0     H 4159   9.703   3.198   6.610  0.1976 -1.3235 -0.1014
  772MOL0     H 4160   9.583   3.080   6.565  1.0317 -0.8097  1.2531
  772MOL0     H 4161   9.528   3.341   6.719  0.5009 -0.1665  0.1707
  772MOL0     H 4162   9.416   3.202   6.698 -0.4470 -2.2752  3.5154
  772MOL0     H 4163   9.542   3.052   6.833 -3.4056  1.8064  1.4476
  772MOL0     H 4164   9.666   3.183   6.866  0.3679  1.7051 -1.2438
  772MOL0     H 4165   9.373   3.199   6.925  0.5391 -2.6950 -0.0143
  772MOL0     H 4166   9.485   3.120   7.035 -1.2368 -0.2761  0.4077
  772MOL0     H 4167   9.491   3.410   6.955 -0.7273 -0.5776 -0.6769
  772MOL0     H 4168   9.632   3.326   7.030  0.0850 -3.0203  1.7478
  772MOL0     H 4169   9.355   3.336   7.160 -0.6541 -2.2484 -0.1276
  772MOL0     H 4170   9.499   3.276   7.230 -1.6684 -1.1977 -0.5112
  772MOL0     H 4171   9.322   3.599   7.194 -0.5559 -0.0171  2.9637
  772MOL0     H 4172   9.378   3.858   7.253  0.4790  1.0448  0.7059
  772MOL0     H 4173   9.434   3.833   7.416 -2.4970 -0.9060 -0.8589
  772MOL0     H 4174   9.525   4.034   7.303 -1.7937 -0.2832 -2.4785
  772MOL0     H 4175   9.644   3.910   7.369 -1.2597  0.6703  1.2455
  772MOL0     H 4176   9.617   4.035   7.090 -3.8890 -2.1692 -2.3751
  772MOL0     H 4177   9.620   3.876   7.078  1.4965 -0.0152 -1.7356
  772MOL0     H 4178   9.822   3.862   7.242  0.2672 -1.0710  0.1988
  772MOL0     H 4179   9.833   4.038   7.241  1.2335 -1.7787  1.8412
  772MOL0     H 4180  10.059   3.928   7.257  2.7744 -0.6324  1.6802
  772MOL0     H 4181  10.262   3.814   7.248  0.8368  1.2764 -0.4699
  772MOL0     H 4182  10.512   3.552   7.370  1.8540 -2.4144  1.1281
  772MOL0     H 4183  10.712   3.432   7.407 -1.4242 -1.1928 -0.7394
  772MOL0     H 4184  10.908   3.339   7.451  0.4525  0.4429 -0.1567
  772MOL0     H 4185  10.839   3.230   7.328 -0.8149  1.2577 -0.4663
  772MOL0     H 4186  11.031   3.123   7.401  0.9272 -0.2878  0.4341
  772MOL0     H 4187  11.083   3.208   7.248 -1.5188 -0.8720 -0.2016
  772MOL0     H 4188  11.173   3.375   7.338 -1.7322 -2.7874 -3.7059
  772MOL0     H 4189  11.146   3.322   7.515 -0.3363  0.7896  0.1765
  772MOL0     H 4190  11.309   3.164   7.309  0.3519 -0.2892 -0.1109
  772MOL0     H 4191  11.268   3.107   7.467 -1.0246  1.4895  2.4605
  772MOL0     H 4192  11.378   3.283   7.584  0.4988  0.4358  0.1313
  772MOL0     H 4193  11.390   3.381   7.444 -0.4149 -0.0872 -2.5962
  772MOL0     H 4194  11.552   3.123   7.498  0.9259 -0.2428 -1.2383
  772MOL0     H 4195  11.546   3.198   7.339 -0.2008  1.4357 -0.4944
  772MOL0     H 4196  11.610   3.332   7.608  1.0191  0.2455 -0.4217
  772MOL0     H 4197  11.643   3.422   7.468  0.5331  1.0994  1.7707
  772MOL0     H 4198  11.844   3.322   7.566 -1.6590  3.0998 -0.6278
  772MOL0     H 4199  11.773   3.150   7.552  0.3379 -0.6527 -0.1221
  772MOL0     H 4200  10.847   3.531   7.016 -1.3417  2.2397 -0.6430
  772MOL0     H 4201  10.637   3.637   6.971  1.4475 -2.8752 -1.3781
  772MOL0     H 4202  10.205   3.719   6.835  0.1398 -0.6776  0.4200
  772MOL0     H 4203   9.988   3.848   6.850 -1.9768  0.5630  1.8788
  772MOL0     H 4204   9.511   3.513   6.111  0.4426 -1.9840  0.6704
  772MOL0     H 4205   9.284   3.520   6.015 -1.4430  0.3633  0.0297
  772MOL0     H 4206   8.858   3.572   5.928  1.6936 -1.1330  0.7951
  772MOL0     H 4207   8.632   3.516   5.853  0.4133  0.4503  0.0279
  772MOL0     H 4208   8.467   3.352   5.830 -0.9909 -0.7021 -1.2563
  772MOL0     H 4209   8.373   3.509   5.842  2.5704  0.2241  0.9757
  772MOL0     H 4210   8.264   3.230   5.918 -1.3461  0.0978 -0.2523
  772MOL0     H 4211   8.227   3.299   5.773  1.1643  0.9971 -0.9396
  772MOL0     H 4212   8.165   3.435   6.038 -1.6497  1.0421 -0.0356
  772MOL0     H 4213   8.063   3.310   5.980 -0.5502  0.1188 -1.0010
  772MOL0     H 4214   8.006   3.564   5.943 -1.2963 -0.8327  0.3726
  772MOL0     H 4215   8.106   3.553   5.794 -1.7372 -1.1283 -2.8856
  772MOL0     H 4216   7.756   3.397   5.667  0.0223 -0.8782 -1.1037
  772MOL0     H 4217   8.516   3.407   6.250 -0.0974 -1.2987 -1.3126
  772MOL0     H 4218   8.835   3.423   6.420  0.5997  1.3995  1.2861
  772MOL0     H 4219   8.737   3.562   6.428 -1.7739 -1.3753  1.6789
  772MOL0     H 4220   8.652   3.413   6.420 -0.5608  1.0505 -0.8754
  773MOL0     O 4221   2.307   8.714   9.418  0.3588 -0.0551 -0.6863
  773MOL0     C 4222   2.267   8.593   9.414 -0.5569  0.2729  0.0137
  773MOL0     O 4223   2.346   8.490   9.436 -0.8491  0.1306 -0.8566
  773MOL0     C 4224   2.478   8.498   9.481  0.0828 -0.5389 -0.2792
  773MOL0     C 4225   2.553   8.381   9.459 -0.6704 -0.1197 -0.3843
  773MOL0     C 4226   2.694   8.376   9.477 -0.1055  0.7287 -0.2938
  773MOL0     C 4227   2.760   8.481   9.537  0.4977 -0.4931 -0.2855
  773MOL0     O 4228   2.895   8.481   9.566  0.4877  0.9992 -0.3982
  773MOL0     C 4229   2.983   8.418   9.473  0.3205  0.0831  0.8740
  773MOL0     C 4230   3.123   8.428   9.542  0.1112 -0.1447 -0.3539
  773MOL0     C 4231   3.233   8.361   9.463  0.0123 -0.0080  0.1668
  773MOL0     C 4232   3.362   8.363   9.540 -0.0419  0.6107 -0.5965
  773MOL0     C 4233   3.478   8.305   9.451 -0.3411  0.1591 -0.1847
  773MOL0     C 4234   3.608   8.302   9.536  0.5126  0.3412  0.6683
  773MOL0     C 4235   3.716   8.198   9.471 -0.8195  0.0217  0.4473
  773MOL0     C 4236   3.847   8.175   9.559 -1.0144  0.2352  0.5713
  773MOL0     N 4237   3.915   8.061   9.491  0.3576 -0.9658  0.6705
  773MOL0     C 4238   3.916   7.932   9.526 -0.1423 -0.2730  0.2269
  773MOL0     C 4239   4.005   7.881   9.438  0.0983  0.2209  1.4150
  773MOL0     C 4240   4.076   7.742   9.431  0.3516 -0.3255  0.4331
  773MOL0     C 4241   4.228   7.750   9.432  1.2536  0.0139 -0.2871
  773MOL0     C 4242   4.282   7.718   9.294  0.1147  0.4616 -0.0965
  773MOL0     C 4243   4.263   7.567   9.266 -0.0487 -0.3516 -0.0715
  773MOL0     O 4244   4.327   7.526   9.148 -0.2192 -0.1026  0.3098
  773MOL0     C 4245   4.464   7.530   9.140 -0.3923  0.6693 -0.7503
  773MOL0     C 4246   4.520   7.556   9.013  1.1473  0.3197 -0.1324
  773MOL0     C 4247   4.657   7.540   8.994 -0.0393  0.3716  0.1734
  773MOL0     C 4248   4.746   7.513   9.099  0.4263 -0.1071 -0.1039
  773MOL0     C 4249   4.890   7.505   9.082 -1.2332  0.2025 -0.6458
  773MOL0     O 4250   4.954   7.504   9.202  0.1197  0.4871  0.4560
  773MOL0     C 4251   5.086   7.512   9.231  0.5796 -0.5745  0.2051
  773MOL0     C 4252   5.189   7.533   9.137  0.1743  1.0669 -0.1942
  773MOL0     C 4253   5.321   7.550   9.197  0.0002  0.6256  0.4161
  773MOL0     C 4254   5.342   7.558   9.338 -0.6613 -0.5238 -0.1906
  773MOL0     O 4255   5.463   7.573   9.397 -0.0473 -0.0118 -0.4167
  773MOL0     C 4256   5.563   7.500   9.334  0.1270 -0.4583 -0.4224
  773MOL0     C 4257   5.674   7.457   9.434 -0.5613 -0.7320  0.2755
  773MOL0     C 4258   5.758   7.569   9.490 -0.3972 -0.2637 -0.2204
  773MOL0     C 4259   5.872   7.508   9.568  0.5576  0.0007  0.0177
  773MOL0     C 4260   5.991   7.612   9.591  1.0051  0.0345 -0.9019
  773MOL0     C 4261   6.115   7.530   9.632 -0.2814 -0.0767  0.0978
  773MOL0     C 4262   6.231   7.619   9.679 -0.3130 -0.7124 -0.9750
  773MOL0     C 4263   6.330   7.532   9.759  0.5314 -0.1981  0.6060
  773MOL0    Cl 4264   6.422   7.437   9.635  0.3773 -0.4710 -0.1846
  773MOL0     C 4265   5.232   7.555   9.415  0.5880  0.3314 -0.7155
  773MOL0     C 4266   5.107   7.527   9.365  0.1168 -0.3510 -0.2342
  773MOL0     O 4267   4.939   7.473   8.968 -0.7098  0.4405 -0.2828
  773MOL0     C 4268   4.685   7.503   9.225 -0.2885  0.4418  0.5403
  773MOL0     C 4269   4.549   7.498   9.245 -0.5191  0.1602  0.3666
  773MOL0     N 4270   4.032   7.973   9.339 -0.1218  0.0521  0.8274
  773MOL0     N 4271   3.986   8.090   9.372  0.1989 -0.2370 -0.4107
  773MOL0     C 4272   2.688   8.599   9.564 -0.4483 -0.1388 -0.3584
  773MOL0     C 4273   2.551   8.602   9.543 -0.9082 -0.1579 -0.4526
  773MOL0     C 4274   2.126   8.561   9.403 -0.0012  0.6942  0.5532
  773MOL0     C 4275   2.077   8.440   9.460  0.3764 -0.7165  0.1072
  773MOL0     C 4276   1.946   8.398   9.443  0.2123 -0.0651 -0.3284
  773MOL0     C 4277   1.851   8.472   9.377 -0.0077  0.2670  0.0527
  773MOL0     O 4278   1.719   8.426   9.372  0.4182 -0.2718 -0.2920
  773MOL0     C 4279   1.618   8.498   9.293 -0.2498 -0.2834  0.4425
  773MOL0     C 4280   1.474   8.432   9.289  1.0967  0.1691  0.0440
  773MOL0     C 4281   1.482   8.280   9.267 -0.6586 -0.1842 -0.8269
  773MOL0     C 4282   1.350   8.217   9.315  0.1970  0.0895  0.7309
  773MOL0     C 4283   1.233   8.266   9.245 -0.6899 -0.1458  0.2258
  773MOL0     C 4284   1.139   8.310   9.192  0.6712  0.3185  0.8579
  773MOL0     C 4285   1.895   8.600   9.336  0.2194 -0.3753  0.4640
  773MOL0     C 4286   2.032   8.644   9.341  0.0145 -1.1001 -0.3379
  773MOL0     C 4287   2.069   8.768   9.257  0.2930 -0.9955  0.2118
  773MOL0     H 4288   2.505   8.292   9.418  0.6023  0.4366 -3.3997
  773MOL0     H 4289   2.744   8.283   9.453 -3.2764 -1.1442 -0.2350
  773MOL0     H 4290   2.961   8.313   9.455  0.9838 -0.1300  1.2902
  773MOL0     H 4291   2.985   8.474   9.378  0.6154 -1.4752 -0.0744
  773MOL0     H 4292   3.112   8.378   9.639 -0.5637 -2.4081 -1.5172
  773MOL0     H 4293   3.144   8.535   9.552 -0.4977  0.0009 -0.5855
  773MOL0     H 4294   3.256   8.423   9.376 -0.5662 -1.7762 -1.2976
  773MOL0     H 4295   3.201   8.261   9.433 -2.0695  0.5677  0.2894
  773MOL0     H 4296   3.392   8.460   9.581  0.5656  0.1926 -0.0322
  773MOL0     H 4297   3.350   8.288   9.619  0.3615  1.5973  0.4249
  773MOL0     H 4298   3.464   8.201   9.419 -0.3003 -0.0365  0.4292
  773MOL0     H 4299   3.487   8.367   9.361 -1.8545  0.7223  0.0247
  773MOL0     H 4300   3.645   8.405   9.533 -2.3326  1.4287  0.2673
  773MOL0     H 4301   3.580   8.273   9.637 -4.6290 -0.0359 -0.6147
  773MOL0     H 4302   3.741   8.228   9.369 -0.2502 -3.4544 -0.5480
  773MOL0     H 4303   3.658   8.107   9.454 -0.6101 -0.1249  0.5195
  773MOL0     H 4304   3.919   8.257   9.562  0.8039 -1.0914 -2.2993
  773MOL0     H 4305   3.817   8.152   9.661 -4.2195  0.3461 -0.2228
  773MOL0     H 4306   3.861   7.890   9.609  2.0156 -0.5077  1.6198
  773MOL0     H 4307   4.031   7.678   9.508 -1.4293  0.3744  0.0070
  773MOL0     H 4308   4.042   7.688   9.342  1.4117  0.3591 -0.4091
  773MOL0     H 4309   4.250   7.852   9.464  4.4811 -0.4472 -0.6621
  773MOL0     H 4310   4.265   7.679   9.507 -1.1876 -0.8568  0.1745
  773MOL0     H 4311   4.388   7.744   9.301 -0.6103  3.2086  4.7630
  773MOL0     H 4312   4.228   7.786   9.227  0.7722  0.5325 -0.5635
  773MOL0     H 4313   4.159   7.544   9.243  0.2337  0.8461 -3.0704
  773MOL0     H 4314   4.304   7.507   9.348 -2.1195 -1.7461  0.0116
  773MOL0     H 4315   4.450   7.581   8.934 -1.7623 -0.7147  1.9596
  773MOL0     H 4316   4.698   7.558   8.895  0.2722  1.1107  0.4333
  773MOL0     H 4317   5.169   7.515   9.032  1.5786  2.4591 -0.7391
  773MOL0     H 4318   5.408   7.547   9.132 -0.0733 -1.6244  0.3234
  773MOL0     H 4319   5.536   7.400   9.298  2.0809 -1.3563  0.4246
  773MOL0     H 4320   5.598   7.567   9.255  0.4836  2.0031  1.7081
  773MOL0     H 4321   5.632   7.395   9.514  0.7914  0.2488  1.8103
  773MOL0     H 4322   5.744   7.396   9.377  0.3428 -3.2334  3.6965
  773MOL0     H 4323   5.806   7.623   9.409  0.1867 -0.7910 -0.2317
  773MOL0     H 4324   5.702   7.622   9.567 -0.1619 -0.8209  0.3474
  773MOL0     H 4325   5.923   7.430   9.511  0.2277 -0.1530 -0.0728
  773MOL0     H 4326   5.839   7.468   9.664 -1.1034  0.3641 -0.3691
  773MOL0     H 4327   5.961   7.689   9.663  0.0114  0.2439 -1.5120
  773MOL0     H 4328   6.017   7.663   9.498 -1.0199  0.2009 -1.4253
  773MOL0     H 4329   6.096   7.468   9.720 -0.1759  0.3703  0.4415
  773MOL0     H 4330   6.146   7.472   9.545 -1.1387 -1.4210  0.6472
  773MOL0     H 4331   6.195   7.705   9.737  1.1260  0.1465 -1.3001
  773MOL0     H 4332   6.282   7.655   9.589 -1.3099  1.8671 -0.6098
  773MOL0     H 4333   6.391   7.592   9.827  0.1224 -0.2980  1.0656
  773MOL0     H 4334   6.271   7.460   9.816 -0.9667 -0.2134 -0.9028
  773MOL0     H 4335   5.249   7.568   9.522  2.2560  0.2681 -0.9604
  773MOL0     H 4336   5.018   7.516   9.426 -0.8277  2.2994 -0.9792
  773MOL0     H 4337   4.741   7.473   9.313  0.9013  0.6983 -0.1112
  773MOL0     H 4338   4.514   7.481   9.346  0.5386 -0.6839  0.6155
  773MOL0     H 4339   2.734   8.687   9.608  1.1354 -0.0803 -2.0280
  773MOL0     H 4340   2.499   8.697   9.549 -0.6522  0.2593 -3.3996
  773MOL0     H 4341   2.147   8.376   9.514 -0.5781 -1.0271  1.0097
  773MOL0     H 4342   1.925   8.298   9.479 -1.3363  0.4159  0.1912
  773MOL0     H 4343   1.658   8.512   9.192 -3.6699 -0.0162 -1.0286
  773MOL0     H 4344   1.598   8.600   9.326 -0.8488 -0.7873  1.7076
  773MOL0     H 4345   1.413   8.482   9.213  1.6172 -0.9319 -1.1337
  773MOL0     H 4346   1.429   8.455   9.386  3.3628  2.7077  0.6216
  773MOL0     H 4347   1.568   8.241   9.322 -0.4251  0.9675 -0.3569
  773MOL0     H 4348   1.501   8.264   9.160 -2.5411  0.8706 -1.3565
  773MOL0     H 4349   1.338   8.109   9.307 -2.4193  0.3312  0.4891
  773MOL0     H 4350   1.344   8.242   9.421 -1.6045  0.4364  0.5853
  773MOL0     H 4351   1.043   8.351   9.165  1.2507  1.0447 -0.1893
  773MOL0     H 4352   1.818   8.662   9.292  0.9489 -0.1492 -0.5341
  773MOL0     H 4353   2.150   8.833   9.292 -1.9063  2.3761 -0.4435
  773MOL0     H 4354   2.096   8.722   9.162  1.8400  1.0044 -0.4043
  773MOL0     H 4355   1.980   8.830   9.243  1.5781  0.7393 -0.7457
  774MOL0     O 4356   7.641   7.821   4.740  0.3006 -0.3456  0.1538
  774MOL0     C 4357   7.551   7.813   4.657  0.3462  0.1029 -0.2595
  774MOL0     O 4358   7.540   7.732   4.545 -0.1945  0.7311 -0.1100
  774MOL0     C 4359   7.642   7.641   4.540 -0.4713 -0.2626  0.6956
  774MOL0     C 4360   7.747   7.684   4.449 -0.1752  0.4028  0.3781
  774MOL0     C 4361   7.852   7.589   4.433  0.2981 -0.5439 -0.1205
  774MOL0     C 4362   7.845   7.462   4.494 -0.7194 -0.0700 -0.3078
  774MOL0     O 4363   7.956   7.376   4.476 -0.4033  1.0289  0.1477
  774MOL0     C 4364   7.931   7.232   4.490  0.3421 -0.5704  0.7242
  774MOL0     C 4365   8.052   7.152   4.452  0.3543  0.6467  0.1294
  774MOL0     C 4366   8.178   7.167   4.537  0.8187  0.0412  0.1122
  774MOL0     C 4367   8.291   7.067   4.490  0.8555 -0.0925 -0.3912
  774MOL0     C 4368   8.417   7.096   4.566 -0.9224  0.0660 -1.4113
  774MOL0     C 4369   8.534   7.002   4.527  0.0179  0.1860 -0.7569
  774MOL0     C 4370   8.667   7.054   4.559  0.2576  0.2478 -0.2864
  774MOL0     C 4371   8.768   6.947   4.516 -0.4136 -0.5743 -0.5470
  774MOL0     N 4372   8.900   6.978   4.566  0.3179  0.1937 -0.7289
  774MOL0     C 4373   8.949   7.095   4.612  0.2419 -0.7070 -0.2564
  774MOL0     C 4374   9.071   7.078   4.673 -0.2341 -0.5420  0.1416
  774MOL0     C 4375   9.148   7.176   4.754 -0.8690 -0.9675 -0.4750
  774MOL0     C 4376   9.302   7.156   4.777 -0.1307  0.6935 -0.2443
  774MOL0     C 4377   9.380   7.163   4.645  0.2526 -0.4377  0.0459
  774MOL0     C 4378   9.532   7.141   4.672 -0.2561  0.8587  0.0503
  774MOL0     O 4379   9.588   7.255   4.746 -0.3184  0.0132  0.1894
  774MOL0     C 4380   9.729   7.241   4.775  0.1433 -0.2157 -0.1719
  774MOL0     C 4381   9.812   7.134   4.746 -0.0509 -0.2636 -0.3039
  774MOL0     C 4382   9.943   7.126   4.782 -0.3698 -0.5908  1.0028
  774MOL0     C 4383  10.007   7.217   4.868  0.0063 -0.2480  0.7885
  774MOL0     C 4384  10.143   7.217   4.907 -0.8177  0.9244  0.3106
  774MOL0     O 4385  10.227   7.141   4.822 -0.6620 -0.5463 -0.5037
  774MOL0     C 4386  10.364   7.171   4.800  0.8970  0.7810 -0.5622
  774MOL0     C 4387  10.414   7.298   4.831  0.8759 -0.0989 -0.2350
  774MOL0     C 4388  10.544   7.334   4.803 -0.0611  0.1766  0.3468
  774MOL0     C 4389  10.637   7.246   4.748 -0.3946  0.6197 -0.0171
  774MOL0     O 4390  10.769   7.275   4.722  0.0746  0.0797  0.0397
  774MOL0     C 4391  10.802   7.413   4.701  0.0364 -0.2581  0.3250
  774MOL0     C 4392  10.950   7.419   4.672 -0.4251 -0.2299  0.8099
  774MOL0     C 4393  10.995   7.565   4.664 -0.4755  0.0403  0.2495
  774MOL0     C 4394  11.145   7.567   4.679  0.2307  0.0599 -0.0837
  774MOL0     C 4395  11.213   7.687   4.609  0.0825  0.1460  0.3917
  774MOL0     C 4396  11.204   7.686   4.456 -0.2440 -0.1254  0.1978
  774MOL0     C 4397  11.287   7.564   4.410 -0.3844 -0.7102 -0.1208
  774MOL0     C 4398  11.305   7.591   4.259  0.3506  1.3214 -1.1301
  774MOL0    Cl 4399  11.407   7.456   4.206 -0.0982 -0.0042  0.1289
  774MOL0     C 4400  10.591   7.113   4.716  0.3814 -0.5979  0.4316
  774MOL0     C 4401  10.454   7.083   4.744  0.0780 -0.8867 -0.3120
  774MOL0     O 4402  10.176   7.280   5.005 -0.3059  0.2600 -0.2706
  774MOL0     C 4403   9.924   7.326   4.906  0.4371 -0.0516 -0.6377
  774MOL0     C 4404   9.790   7.330   4.865  1.0515  0.6521 -1.5249
  774MOL0     N 4405   9.094   6.942   4.673 -0.7753 -0.2679  0.4703
  774MOL0     N 4406   8.995   6.888   4.600 -0.7815 -0.1015  0.6426
  774MOL0     C 4407   7.740   7.423   4.581  0.1731  0.0117 -0.6929
  774MOL0     C 4408   7.637   7.517   4.603 -0.4059  0.9618 -0.3187
  774MOL0     C 4409   7.443   7.923   4.657  0.3245  0.3470 -0.6115
  774MOL0     C 4410   7.325   7.902   4.570 -0.1961 -0.3055 -0.4515
  774MOL0     C 4411   7.233   8.000   4.563  0.8132 -0.6295 -0.2557
  774MOL0     C 4412   7.227   8.110   4.650  0.2634 -0.2817  0.0214
  774MOL0     O 4413   7.124   8.199   4.664 -0.3309 -0.2029  0.5703
  774MOL0     C 4414   7.141   8.316   4.590 -0.4655  0.0540 -0.0481
  774MOL0     C 4415   7.032   8.351   4.488  0.5497  0.1530 -0.7167
  774MOL0     C 4416   6.986   8.234   4.395  0.3320 -0.7121  0.2099
  774MOL0     C 4417   7.073   8.206   4.268 -0.4626  0.3999  0.0159
  774MOL0     C 4418   7.057   8.306   4.157 -0.1623 -0.2422 -0.3647
  774MOL0     C 4419   7.028   8.387   4.071  0.7386  0.2965 -0.1581
  774MOL0     C 4420   7.332   8.114   4.742  0.8345  0.0522  0.4582
  774MOL0     C 4421   7.436   8.024   4.751 -0.5711 -0.5952  0.2535
  774MOL0     C 4422   7.514   8.031   4.877  0.4889  0.3898  0.5104
  774MOL0     H 4423   7.743   7.778   4.396  0.9037  1.9865  2.9226
  774MOL0     H 4424   7.935   7.617   4.369 -0.0939 -0.1094 -0.4389
  774MOL0     H 4425   7.898   7.217   4.593 -3.2428  1.5469  0.0681
  774MOL0     H 4426   7.842   7.213   4.429  1.6273 -0.6210 -1.2003
  774MOL0     H 4427   8.076   7.170   4.347 -0.7997  0.6525 -0.1357
  774MOL0     H 4428   8.025   7.047   4.466 -1.0967  1.1058  0.9991
  774MOL0     H 4429   8.144   7.151   4.639  0.5587 -0.1736 -0.0093
  774MOL0     H 4430   8.213   7.271   4.538 -2.0179  1.0956  2.6773
  774MOL0     H 4431   8.258   6.965   4.508 -1.6965  0.6546 -0.4101
  774MOL0     H 4432   8.319   7.085   4.386  1.9951 -1.3143 -0.3215
  774MOL0     H 4433   8.447   7.198   4.541 -0.6805 -0.1313 -1.9495
  774MOL0     H 4434   8.400   7.087   4.673  1.8501  1.7998 -0.7227
  774MOL0     H 4435   8.524   6.911   4.587 -3.1441  2.7126  3.0507
  774MOL0     H 4436   8.530   6.972   4.422 -2.4722  0.4092 -0.7757
  774MOL0     H 4437   8.674   7.057   4.668  0.2493 -3.0569 -0.1034
  774MOL0     H 4438   8.688   7.146   4.503 -0.5827 -0.2401 -1.4446
  774MOL0     H 4439   8.749   6.848   4.559 -0.1496 -0.4881 -0.2207
  774MOL0     H 4440   8.765   6.950   4.407 -0.7887 -0.1420 -0.5290
  774MOL0     H 4441   8.903   7.193   4.616 -0.0046 -0.8580  1.2491
  774MOL0     H 4442   9.142   7.274   4.705  1.1339 -0.4905  0.1436
  774MOL0     H 4443   9.107   7.189   4.855  1.6219  2.0790  0.2936
  774MOL0     H 4444   9.340   7.226   4.852 -2.7230  2.3311 -0.3313
  774MOL0     H 4445   9.324   7.054   4.811 -0.1994  0.5040 -0.7662
  774MOL0     H 4446   9.364   7.263   4.602 -1.9121  0.2706  2.2598
  774MOL0     H 4447   9.342   7.083   4.580 -0.8776 -1.5954  2.0211
  774MOL0     H 4448   9.586   7.147   4.577 -0.2872  1.1242  0.0492
  774MOL0     H 4449   9.549   7.050   4.731 -3.0159  0.7509  0.7824
  774MOL0     H 4450   9.766   7.066   4.675  0.9380 -0.6488 -0.5928
  774MOL0     H 4451   9.999   7.049   4.729 -3.9747 -1.8479 -1.3258
  774MOL0     H 4452  10.356   7.380   4.873  0.0466  0.5838 -2.5521
  774MOL0     H 4453  10.576   7.432   4.839  0.3153  0.5470 -0.9422
  774MOL0     H 4454  10.751   7.469   4.622  0.4349  0.2966  0.4501
  774MOL0     H 4455  10.789   7.476   4.790  0.8213  2.7479 -1.5245
  774MOL0     H 4456  10.999   7.364   4.753 -0.4056 -2.2591 -0.5048
  774MOL0     H 4457  10.983   7.371   4.579  1.5987 -1.4058  2.0675
  774MOL0     H 4458  10.963   7.608   4.569  0.4108  0.3829  0.0890
  774MOL0     H 4459  10.955   7.619   4.750 -3.1271  1.0241 -1.4788
  774MOL0     H 4460  11.187   7.477   4.633 -0.3406  0.1925 -0.8885
  774MOL0     H 4461  11.184   7.564   4.781  0.2704 -1.4535 -0.1206
  774MOL0     H 4462  11.316   7.692   4.647 -0.3110  2.0996  1.2919
  774MOL0     H 4463  11.170   7.782   4.642 -1.4802  0.7270 -2.8874
  774MOL0     H 4464  11.101   7.682   4.419  1.1521  0.6468 -4.3883
  774MOL0     H 4465  11.233   7.783   4.415 -1.5501 -0.4029 -1.5310
  774MOL0     H 4466  11.239   7.465   4.412  0.5488 -1.1852 -0.5525
  774MOL0     H 4467  11.386   7.568   4.457  0.7951  3.4248 -2.4755
  774MOL0     H 4468  11.211   7.588   4.203 -0.2834 -2.1015 -0.1178
  774MOL0     H 4469  11.348   7.691   4.246 -1.1907  2.4630  1.6622
  774MOL0     H 4470  10.656   7.033   4.682  1.4290 -0.7242  2.5614
  774MOL0     H 4471  10.438   6.976   4.730  2.6464 -1.2553 -0.9708
  774MOL0     H 4472   9.950   7.411   4.970  1.1445  0.8562 -2.0816
  774MOL0     H 4473   9.715   7.405   4.890  0.5670  0.0875 -1.2568
  774MOL0     H 4474   7.733   7.336   4.646  0.1803  0.8523  0.4749
  774MOL0     H 4475   7.562   7.485   4.676 -1.3562  1.6853 -0.9637
  774MOL0     H 4476   7.313   7.812   4.509 -1.0678 -0.3665 -0.2068
  774MOL0     H 4477   7.149   7.993   4.495  0.8804  0.6363 -0.4922
  774MOL0     H 4478   7.234   8.319   4.533 -1.1825  0.3090 -1.2404
  774MOL0     H 4479   7.136   8.396   4.665  1.6772  1.4366 -1.2936
  774MOL0     H 4480   7.058   8.434   4.422  1.3529 -1.1514 -2.1098
  774MOL0     H 4481   6.940   8.381   4.538  0.8790  0.8889 -0.5246
  774MOL0     H 4482   6.891   8.252   4.343 -0.2387 -2.5257  0.5346
  774MOL0     H 4483   6.965   8.145   4.456  0.8667 -0.2328  1.1119
  774MOL0     H 4484   7.180   8.209   4.291 -0.3571 -0.6945 -0.2823
  774MOL0     H 4485   7.046   8.111   4.221  0.9860 -0.1779  0.3103
  774MOL0     H 4486   6.977   8.453   4.003  0.6781 -1.3293 -1.7445
  774MOL0     H 4487   7.331   8.191   4.818 -0.4829  1.6101 -1.0620
  774MOL0     H 4488   7.617   8.051   4.846  1.0429 -1.4310  1.0855
  774MOL0     H 4489   7.492   8.124   4.931 -0.4903  1.4152 -1.5404
  774MOL0     H 4490   7.501   7.947   4.945  1.6461 -2.6845 -2.7550
  775MOL0     O 4491   0.323  10.201   5.333 -0.4660  0.5534 -0.0193
  775MOL0     C 4492   0.243  10.195   5.239 -0.1584  0.6045  0.1850
  775MOL0     O 4493   0.267  10.243   5.107 -0.3409 -0.1832 -0.7037
  775MOL0     C 4494   0.381  10.321   5.075  1.0449 -0.3113 -0.1912
  775MOL0     C 4495   0.361  10.452   5.039 -0.5520  0.9576  0.9110
  775MOL0     C 4496   0.474  10.528   5.018  0.2194 -0.5354 -0.4617
  775MOL0     C 4497   0.606  10.479   5.025  0.3667 -0.2118 -0.3913
  775MOL0     O 4498   0.710  10.564   5.019 -0.5019 -0.0370  0.0915
  775MOL0     C 4499   0.709  10.678   5.095 -0.6001 -0.5416 -0.4502
  775MOL0     C 4500   0.822  10.767   5.057 -0.6865 -0.0582 -0.3479
  775MOL0     C 4501   0.795  10.860   4.941  0.5863 -0.6180 -0.0825
  775MOL0     C 4502   0.903  10.968   4.923 -0.2468 -0.7845 -0.0444
  775MOL0     C 4503   0.861  11.099   4.883 -0.3889 -0.2240  0.2922
  775MOL0     C 4504   0.836  11.121   4.736  0.6237 -0.0945 -0.6850
  775MOL0     C 4505   0.775  11.260   4.704  0.3350 -0.9045  0.5067
  775MOL0     C 4506   0.724  11.272   4.555  0.3358 -0.4344  0.2493
  775MOL0     N 4507   0.825  11.311   4.452 -0.2531 -0.0033 -0.1465
  775MOL0     C 4508   0.927  11.235   4.398 -0.7130 -0.1165  0.6943
  775MOL0     C 4509   1.016  11.327   4.338  0.1991  0.5924 -1.0283
  775MOL0     C 4510   1.148  11.314   4.267 -0.4321  0.6698  0.9103
  775MOL0     C 4511   1.274  11.375   4.331  0.1794 -0.6145  0.7709
  775MOL0     C 4512   1.280  11.530   4.335 -0.2088  0.8067  0.9364
  775MOL0     C 4513   1.245  11.602   4.195 -0.2472 -0.0234  0.1950
  775MOL0     O 4514   1.330  11.525   4.096 -0.2447 -0.1972 -0.0864
  775MOL0     C 4515   1.461  11.566   4.071 -0.2032 -1.0347  0.0464
  775MOL0     C 4516   1.528  11.486   3.989 -0.8094 -0.2580  0.2185
  775MOL0     C 4517   1.648  11.525   3.936  0.3550  0.0850  0.6864
  775MOL0     C 4518   1.723  11.638   3.987  0.5138  0.2263 -0.1441
  775MOL0     C 4519   1.859  11.661   3.955 -0.4559  0.5983  0.5245
  775MOL0     O 4520   1.921  11.768   4.006 -0.0250  0.0954 -0.1860
  775MOL0     C 4521   2.052  11.793   3.968  0.1056  0.6993 -0.1975
  775MOL0     C 4522   2.146  11.832   4.071 -0.2393 -0.0966 -0.1612
  775MOL0     C 4523   2.272  11.868   4.027 -0.0114 -0.1720  0.6184
  775MOL0     C 4524   2.315  11.857   3.889 -0.1128  0.2671 -0.5490
  775MOL0     O 4525   2.446  11.874   3.847 -0.1226  0.1106  0.0808
  775MOL0     C 4526   2.551  11.811   3.931 -0.0386 -0.6391  0.2953
  775MOL0     C 4527   2.694  11.870   3.892  1.0569 -1.3192  0.6277
  775MOL0     C 4528   2.808  11.797   3.966  0.2177 -0.1166 -0.8681
  775MOL0     C 4529   2.949  11.846   3.927  0.2909  0.4667 -0.4185
  775MOL0     C 4530   3.046  11.779   4.022 -0.0998  0.3731 -0.1662
  775MOL0     C 4531   3.191  11.787   3.986  0.6730  0.0378 -0.3072
  775MOL0     C 4532   3.280  11.702   4.083 -0.1023  0.3864 -0.0339
  775MOL0     C 4533   3.427  11.714   4.040  0.2506 -0.6333  0.1754
  775MOL0    Cl 4534   3.484  11.870   4.115  0.2959  0.2304 -0.1207
  775MOL0     C 4535   2.226  11.809   3.792  0.6341  0.1114 -0.0015
  775MOL0     C 4536   2.099  11.783   3.832  0.3207 -0.0864 -0.3482
  775MOL0     O 4537   1.905  11.584   3.863 -0.1700 -0.4296 -0.6821
  775MOL0     C 4538   1.655  11.711   4.085 -0.1336  0.2173 -0.5949
  775MOL0     C 4539   1.524  11.680   4.128 -0.3683  0.3604 -0.1727
  775MOL0     N 4540   0.960  11.453   4.337 -0.2482 -0.1981  0.0605
  775MOL0     N 4541   0.847  11.441   4.410  0.2107 -0.7768  0.5650
  775MOL0     C 4542   0.616  10.348   5.042 -0.4898  0.8797  0.2099
  775MOL0     C 4543   0.503  10.266   5.066 -0.1562 -0.3843  0.7003
  775MOL0     C 4544   0.101  10.147   5.257  0.6043  0.3411 -0.1636
  775MOL0     C 4545   0.024  10.133   5.153  0.4436 -0.1392 -0.0725
  775MOL0     C 4546  -0.111  10.086   5.164  0.4129 -0.1560 -0.0600
  775MOL0     C 4547  -0.168  10.047   5.284  0.2336 -0.6462  0.0107
  775MOL0     O 4548  -0.300   9.999   5.281 -0.3528 -0.9147  0.0212
  775MOL0     C 4549  -0.355   9.925   5.388 -0.1141 -0.1076  0.0136
  775MOL0     C 4550  -0.426  10.008   5.493 -0.2734  0.0021 -0.9322
  775MOL0     C 4551  -0.569  10.064   5.454  0.0514 -0.1820  0.5446
  775MOL0     C 4552  -0.681   9.957   5.450 -0.5203  0.2691  0.1496
  775MOL0     C 4553  -0.808  10.029   5.457  0.4804  0.3924 -0.0266
  775MOL0     C 4554  -0.910  10.088   5.475 -0.2131  0.0262 -0.5734
  775MOL0     C 4555  -0.085  10.059   5.396  0.7007 -0.1976  0.7643
  775MOL0     C 4556   0.051  10.108   5.383 -0.1133 -0.0593  0.4986
  775MOL0     C 4557   0.129  10.106   5.505 -0.3183 -0.0931  0.1082
  775MOL0     H 4558   0.260  10.491   5.043 -0.0617  2.3096  0.6369
  775MOL0     H 4559   0.458  10.633   4.996 -0.3761  0.1149  2.6570
  775MOL0     H 4560   0.617  10.733   5.077 -1.5868 -1.5056  1.3459
  775MOL0     H 4561   0.721  10.666   5.203  0.4875 -0.8066 -0.5833
  775MOL0     H 4562   0.913  10.713   5.031  0.2923  0.9115  0.9645
  775MOL0     H 4563   0.842  10.819   5.151 -2.0590 -1.1622  0.5909
  775MOL0     H 4564   0.701  10.914   4.955  0.0921 -1.2629 -0.8418
  775MOL0     H 4565   0.785  10.802   4.849 -1.4919 -2.5864  1.2797
  775MOL0     H 4566   0.958  10.972   5.018  0.7416 -3.0318 -0.4525
  775MOL0     H 4567   0.971  10.920   4.851  0.6739 -2.3697  1.7670
  775MOL0     H 4568   0.774  11.126   4.943 -2.7347 -1.1546 -2.4114
  775MOL0     H 4569   0.941  11.169   4.907  0.1929 -0.8962  0.3612
  775MOL0     H 4570   0.933  11.120   4.684  0.8448  0.4110 -0.2910
  775MOL0     H 4571   0.774  11.038   4.701  2.0623 -2.1969  1.4267
  775MOL0     H 4572   0.850  11.339   4.717 -0.1047 -0.3365 -0.3622
  775MOL0     H 4573   0.692  11.278   4.772  1.0489  3.3509  0.5071
  775MOL0     H 4574   0.677  11.181   4.516  1.6843 -0.6058 -1.1086
  775MOL0     H 4575   0.639  11.340   4.550  1.4113  0.8301 -2.4066
  775MOL0     H 4576   0.947  11.129   4.414  1.1763 -0.0571 -0.8697
  775MOL0     H 4577   1.167  11.208   4.247  0.2581  1.3896 -2.9870
  775MOL0     H 4578   1.134  11.357   4.167 -0.3786  1.5813  1.2851
  775MOL0     H 4579   1.301  11.335   4.429  1.1762  0.5800  1.0136
  775MOL0     H 4580   1.366  11.342   4.281 -0.0806 -0.8477  0.4465
  775MOL0     H 4581   1.386  11.543   4.358  0.1988 -2.4516  1.3074
  775MOL0     H 4582   1.231  11.585   4.416  0.3683  2.1189  0.4264
  775MOL0     H 4583   1.269  11.707   4.214 -1.8111 -0.0543  2.8230
  775MOL0     H 4584   1.138  11.603   4.172 -0.4712  1.6583  1.1684
  775MOL0     H 4585   1.473  11.398   3.956 -1.7590  0.5135 -0.2913
  775MOL0     H 4586   1.697  11.467   3.859 -1.2149 -0.4093  0.0041
  775MOL0     H 4587   2.117  11.835   4.175  2.6809 -0.1876  0.7563
  775MOL0     H 4588   2.351  11.907   4.090  0.1639 -1.4204  1.1882
  775MOL0     H 4589   2.539  11.839   4.036  1.0168  4.3124 -0.6331
  775MOL0     H 4590   2.552  11.704   3.911 -0.9316 -0.3186 -1.7809
  775MOL0     H 4591   2.721  11.855   3.787  0.7566  0.0304  0.3407
  775MOL0     H 4592   2.697  11.974   3.925  1.8673 -1.5261  1.2496
  775MOL0     H 4593   2.794  11.809   4.074  2.2648  0.2938 -0.6227
  775MOL0     H 4594   2.797  11.689   3.953  0.1707  0.0564 -2.4106
  775MOL0     H 4595   2.957  11.954   3.940  2.9697  0.0260  3.4658
  775MOL0     H 4596   2.964  11.818   3.822  1.4140  0.2128 -0.2045
  775MOL0     H 4597   3.020  11.675   4.040 -0.2435  0.3331 -0.6002
  775MOL0     H 4598   3.038  11.836   4.115  2.4050  0.8440 -0.1658
  775MOL0     H 4599   3.210  11.765   3.880 -0.1374 -2.7760  0.0478
  775MOL0     H 4600   3.220  11.889   4.011  0.7901 -0.2491  0.7786
  775MOL0     H 4601   3.254  11.596   4.075  1.7574 -0.3071  1.9173
  775MOL0     H 4602   3.267  11.739   4.185  0.7674  2.9578 -0.7793
  775MOL0     H 4603   3.484  11.633   4.087 -3.5516 -3.5162  0.2265
  775MOL0     H 4604   3.442  11.717   3.932 -0.4161 -0.6850  0.0802
  775MOL0     H 4605   2.262  11.806   3.690  2.1614 -1.3070  0.5378
  775MOL0     H 4606   2.033  11.749   3.753 -0.2159  2.1097 -0.9293
  775MOL0     H 4607   1.697  11.796   4.139 -0.4353  1.2044 -1.8689
  775MOL0     H 4608   1.478  11.755   4.191 -1.3642 -0.0083 -0.4474
  775MOL0     H 4609   0.717  10.308   5.042 -0.7897  0.0307  1.6828
  775MOL0     H 4610   0.523  10.164   5.098 -0.3168 -1.1725 -1.4926
  775MOL0     H 4611   0.059  10.149   5.051 -1.7155 -0.7360 -0.9648
  775MOL0     H 4612  -0.170  10.080   5.073 -0.3010  1.1435  0.2918
  775MOL0     H 4613  -0.269   9.869   5.426  0.7081  1.3719  0.4355
  775MOL0     H 4614  -0.419   9.852   5.339  1.2099 -0.8492 -0.6493
  775MOL0     H 4615  -0.360  10.094   5.513  3.1032 -2.7275  0.8398
  775MOL0     H 4616  -0.431   9.962   5.592 -0.2535 -0.0765 -0.9680
  775MOL0     H 4617  -0.557  10.112   5.357 -0.9443 -0.9189  0.0427
  775MOL0     H 4618  -0.596  10.151   5.515 -3.0934  1.4043 -2.7746
  775MOL0     H 4619  -0.669   9.897   5.359 -0.1271 -0.7215  0.8276
  775MOL0     H 4620  -0.669   9.878   5.526  3.8597 -1.8470 -2.3660
  775MOL0     H 4621  -0.996  10.150   5.489 -0.3571 -0.6474  2.0678
  775MOL0     H 4622  -0.122  10.027   5.493 -2.4084 -1.2710 -0.6363
  775MOL0     H 4623   0.231  10.072   5.488 -0.3008 -0.1727  0.3584
  775MOL0     H 4624   0.137  10.212   5.533 -0.7769  0.3358 -1.3097
  775MOL0     H 4625   0.079  10.047   5.583 -1.3164 -0.4959 -0.8150
  776MOL0     O 4626   8.057   8.187   9.698  0.6643  1.0387 -0.8132
  776MOL0     C 4627   7.955   8.153   9.762 -0.4034 -0.5359 -0.4655
  776MOL0     O 4628   7.950   8.089   9.888 -0.4160  0.2720  0.0452
  776MOL0     C 4629   8.067   8.064   9.949 -0.3340 -0.1989 -1.2245
  776MOL0     C 4630   8.129   7.938   9.940 -0.1979 -0.4454  0.3195
  776MOL0     C 4631   8.254   7.906   9.998 -0.3732  0.0425  0.0480
  776MOL0     C 4632   8.327   8.011  10.061  0.5061  0.4497 -0.4776
  776MOL0     O 4633   8.444   7.991  10.131 -0.0442 -0.9044  0.1599
  776MOL0     C 4634   8.531   7.894  10.075  0.4217 -0.6445  0.0401
  776MOL0     C 4635   8.671   7.943  10.099 -0.3379 -0.4737  0.3056
  776MOL0     C 4636   8.772   7.885  10.004 -0.3831  0.0853 -0.0745
  776MOL0     C 4637   8.909   7.918  10.059 -1.2964  0.1676 -0.0363
  776MOL0     C 4638   9.027   7.878   9.965  0.9467  0.2885  0.0502
  776MOL0     C 4639   9.150   7.952  10.009 -0.1138 -0.0892  0.5639
  776MOL0     C 4640   9.218   7.880  10.126  0.2261 -1.2475 -0.1815
  776MOL0     C 4641   9.370   7.906  10.120  0.4402 -0.8855 -0.4979
  776MOL0     N 4642   9.442   7.856  10.000  0.5595  0.0701 -1.3554
  776MOL0     C 4643   9.512   7.932   9.917 -1.1419 -0.5384 -0.1325
  776MOL0     C 4644   9.554   7.840   9.833 -0.3143  0.2343  0.2528
  776MOL0     C 4645   9.640   7.865   9.707  0.1405 -1.0421 -1.0743
  776MOL0     C 4646   9.786   7.823   9.723 -0.1257  0.0845 -0.0576
  776MOL0     C 4647   9.877   7.862   9.609 -0.3055 -0.3790  0.0754
  776MOL0     C 4648  10.027   7.844   9.634 -0.0929  0.0589  0.4103
  776MOL0     O 4649  10.093   7.849   9.512 -0.0048 -0.9523  0.2207
  776MOL0     C 4650  10.230   7.853   9.508  0.1431  0.0464 -0.7960
  776MOL0     C 4651  10.324   7.830   9.609 -0.1556 -0.1887 -0.1629
  776MOL0     C 4652  10.467   7.838   9.581 -0.6498  0.2668 -0.2093
  776MOL0     C 4653  10.509   7.872   9.449 -0.9916 -0.3856 -0.0309
  776MOL0     C 4654  10.656   7.878   9.422  0.2034  0.2392 -0.1180
  776MOL0     O 4655  10.740   7.848   9.527 -0.0753 -0.3828 -0.4415
  776MOL0     C 4656  10.877   7.863   9.516 -1.1034 -0.0239  0.4512
  776MOL0     C 4657  10.956   7.932   9.417 -1.2815 -0.3737 -0.4206
  776MOL0     C 4658  11.089   7.958   9.452 -0.2525  0.4821  0.0018
  776MOL0     C 4659  11.161   7.906   9.563 -0.3593  1.0318  0.2521
  776MOL0     O 4660  11.298   7.923   9.584  1.1598 -0.5234  0.3597
  776MOL0     C 4661  11.380   8.013   9.510  0.6708  0.0790  0.8291
  776MOL0     C 4662  11.525   7.969   9.534 -0.0503  0.4906 -0.3923
  776MOL0     C 4663  11.619   8.082   9.476  1.2641  0.4426 -0.5487
  776MOL0     C 4664  11.608   8.101   9.322 -0.0217 -0.1764  0.1397
  776MOL0     C 4665  11.709   8.213   9.289  0.6675  0.0553  0.3545
  776MOL0     C 4666  11.766   8.211   9.154  0.9972  0.3137 -0.3622
  776MOL0     C 4667  11.853   8.324   9.127 -0.1358 -0.1736 -0.4072
  776MOL0     C 4668  11.983   8.326   9.206 -0.8946  1.0163 -0.9560
  776MOL0    Cl 4669  12.086   8.466   9.153  0.1160 -0.4227  0.3190
  776MOL0     C 4670  11.087   7.822   9.648  0.7355  0.0137 -0.3249
  776MOL0     C 4671  10.946   7.813   9.626 -0.8803  1.1091  0.9337
  776MOL0     O 4672  10.685   7.893   9.306 -0.1577  0.3062 -0.1364
  776MOL0     C 4673  10.417   7.895   9.353 -0.1312 -0.1806  0.0158
  776MOL0     C 4674  10.284   7.886   9.375  0.0000 -0.1692 -0.4898
  776MOL0     N 4675   9.479   7.722   9.852  0.5802  0.1703 -0.1306
  776MOL0     N 4676   9.420   7.730   9.959 -0.1705  0.7397 -0.9387
  776MOL0     C 4677   8.269   8.131  10.068  0.2072  0.1762 -0.0134
  776MOL0     C 4678   8.140   8.166  10.009  0.6201 -0.1939  0.4132
  776MOL0     C 4679   7.826   8.199   9.709 -0.0744 -0.0564  0.7185
  776MOL0     C 4680   7.706   8.191   9.788  0.9492  0.2655 -0.3810
  776MOL0     C 4681   7.583   8.236   9.738  0.0857 -0.8376 -0.3807
  776MOL0     C 4682   7.575   8.299   9.615 -0.1360  0.8609  1.0520
  776MOL0     O 4683   7.466   8.362   9.559 -0.3451 -0.1736 -0.4392
  776MOL0     C 4684   7.344   8.380   9.638 -0.5918 -0.2047 -0.1322
  776MOL0     C 4685   7.252   8.267   9.605 -0.2054  1.0217  0.8251
  776MOL0     C 4686   7.110   8.294   9.660  0.1239  0.0598 -0.8579
  776MOL0     C 4687   7.003   8.193   9.639  0.7191  0.6911  0.8412
  776MOL0     C 4688   6.950   8.203   9.502  0.0699 -0.0304 -0.0218
  776MOL0     C 4689   6.913   8.220   9.389 -0.0910 -0.0265  0.2693
  776MOL0     C 4690   7.696   8.315   9.543  0.5106  0.3703 -0.5586
  776MOL0     C 4691   7.819   8.264   9.585 -1.2575  1.3154 -0.6100
  776MOL0     C 4692   7.926   8.275   9.477  0.3318 -0.2336  0.1538
  776MOL0     H 4693   8.073   7.867   9.880  0.8352 -1.2712  0.2988
  776MOL0     H 4694   8.282   7.801   9.994 -1.4139 -0.2176 -0.9718
  776MOL0     H 4695   8.506   7.803  10.131  0.7327 -0.3753  0.6178
  776MOL0     H 4696   8.509   7.870   9.970 -2.0451 -0.8617  0.5497
  776MOL0     H 4697   8.703   7.926  10.202  0.4764 -1.3823 -0.0898
  776MOL0     H 4698   8.654   8.049  10.077  0.6827 -0.5015 -0.6886
  776MOL0     H 4699   8.758   7.916   9.900  0.6356  0.1299 -0.2130
  776MOL0     H 4700   8.757   7.777  10.010 -2.2301  0.2050 -1.7451
  776MOL0     H 4701   8.904   8.025  10.081 -1.7457 -0.2030  1.8728
  776MOL0     H 4702   8.926   7.863  10.152  2.3346  1.3538  0.1629
  776MOL0     H 4703   9.043   7.771   9.979 -2.1814 -0.2705  0.1310
  776MOL0     H 4704   9.018   7.905   9.860  1.2683  2.7832  0.6032
  776MOL0     H 4705   9.218   7.959   9.923  0.4413  1.9975  1.1145
  776MOL0     H 4706   9.121   8.056  10.028 -2.0897 -0.7974  1.6837
  776MOL0     H 4707   9.189   7.774  10.118 -0.3471 -1.2294  1.3203
  776MOL0     H 4708   9.176   7.911  10.221 -0.0803 -1.8768 -0.1045
  776MOL0     H 4709   9.386   8.014  10.117  0.1826 -0.7749  1.1038
  776MOL0     H 4710   9.415   7.864  10.211  0.1584  1.4179  0.7781
  776MOL0     H 4711   9.539   8.035   9.935 -2.0880 -0.5990  1.9708
  776MOL0     H 4712   9.598   7.820   9.617  0.3169 -1.3342 -1.0118
  776MOL0     H 4713   9.641   7.973   9.693 -0.8435 -0.7337  0.8417
  776MOL0     H 4714   9.826   7.864   9.816 -0.5110  0.1463  0.0823
  776MOL0     H 4715   9.788   7.715   9.742 -4.2040 -0.2298 -0.4661
  776MOL0     H 4716   9.851   7.960   9.568  2.1954 -0.1220 -1.0759
  776MOL0     H 4717   9.854   7.790   9.530 -3.3202  2.4082 -1.8222
  776MOL0     H 4718  10.051   7.746   9.676 -0.8503 -0.1987  0.2640
  776MOL0     H 4719  10.061   7.914   9.711 -2.4584  0.3829  1.2503
  776MOL0     H 4720  10.300   7.807   9.713  0.9227 -1.8928 -0.2425
  776MOL0     H 4721  10.535   7.818   9.662 -0.1579 -0.0682 -0.7051
  776MOL0     H 4722  10.922   7.977   9.323 -3.1616  0.6663  0.6845
  776MOL0     H 4723  11.138   8.035   9.393  1.9628  0.0516  1.1733
  776MOL0     H 4724  11.368   8.013   9.401  1.0830  0.4002  0.7790
  776MOL0     H 4725  11.353   8.114   9.540 -1.2003 -0.3254  0.6320
  776MOL0     H 4726  11.533   7.962   9.643 -0.6705  1.2411 -0.2890
  776MOL0     H 4727  11.539   7.873   9.484  0.3810  1.7554 -2.8553
  776MOL0     H 4728  11.593   8.179   9.520 -0.0185  0.0547 -0.4019
  776MOL0     H 4729  11.720   8.052   9.504  1.5438  2.0351  0.2514
  776MOL0     H 4730  11.514   8.131   9.276  1.0140  0.1883 -1.8702
  776MOL0     H 4731  11.631   8.014   9.260 -0.6121 -0.5176  0.3999
  776MOL0     H 4732  11.790   8.212   9.362  0.8857 -0.8407  0.1052
  776MOL0     H 4733  11.649   8.305   9.297  1.2142  0.5683 -1.2017
  776MOL0     H 4734  11.829   8.122   9.141  1.5358  0.5260  0.6728
  776MOL0     H 4735  11.685   8.203   9.081 -0.6657 -0.2974  1.4476
  776MOL0     H 4736  11.796   8.415   9.144  0.2078  0.2945 -1.6458
  776MOL0     H 4737  11.882   8.315   9.022 -0.1042 -2.3459 -0.2675
  776MOL0     H 4738  11.957   8.337   9.312 -2.5526 -4.1743 -0.5558
  776MOL0     H 4739  12.029   8.228   9.197 -1.9751  0.2573  1.0498
  776MOL0     H 4740  11.147   7.782   9.729 -0.2375  0.7654  0.8158
  776MOL0     H 4741  10.899   7.756   9.706  2.8221 -1.0574  1.7938
  776MOL0     H 4742  10.450   7.923   9.253 -3.8322  3.7471 -0.4261
  776MOL0     H 4743  10.207   7.907   9.302 -0.9527  0.1766  0.5772
  776MOL0     H 4744   8.315   8.217  10.115 -1.2716  0.1311  1.5822
  776MOL0     H 4745   8.099   8.266  10.014 -1.2288 -0.9527  1.7077
  776MOL0     H 4746   7.703   8.127   9.876  4.6409 -0.9559 -0.9655
  776MOL0     H 4747   7.493   8.219   9.797 -0.6958  0.1929 -1.2167
  776MOL0     H 4748   7.297   8.478   9.625  0.9835  0.8299  1.6419
  776MOL0     H 4749   7.358   8.377   9.746  1.3519  0.3643 -0.3365
  776MOL0     H 4750   7.294   8.175   9.647 -0.3782 -0.6669 -2.3809
  776MOL0     H 4751   7.250   8.254   9.496  3.8246  2.3823  0.4026
  776MOL0     H 4752   7.067   8.384   9.616 -1.2030 -1.0094 -1.8380
  776MOL0     H 4753   7.127   8.290   9.768  1.1496 -0.3053 -1.0134
  776MOL0     H 4754   7.040   8.091   9.654  2.1758  0.6548 -2.2328
  776MOL0     H 4755   6.928   8.212   9.716 -0.2221 -0.7303  0.3237
  776MOL0     H 4756   6.861   8.224   9.295  0.6871  1.8001 -0.1215
  776MOL0     H 4757   7.691   8.372   9.451 -0.4721  0.7717 -0.2765
  776MOL0     H 4758   7.973   8.177   9.466 -0.3295 -0.4619 -0.7843
  776MOL0     H 4759   7.890   8.303   9.378 -0.3917 -1.0620  0.1665
  776MOL0     H 4760   7.999   8.349   9.511 -0.2002 -0.1124  1.0728
  777MOL0     O 4761   4.520   7.090   0.374  0.2675  0.6301 -0.3962
  777MOL0     C 4762   4.433   7.013   0.412 -0.5835 -0.3404  0.2669
  777MOL0     O 4763   4.416   6.978   0.543  0.4003 -0.0094 -0.4030
  777MOL0     C 4764   4.502   7.001   0.645 -0.3615 -0.2779  0.9368
  777MOL0     C 4765   4.631   7.063   0.646 -0.5091  0.7733  0.4079
  777MOL0     C 4766   4.707   7.088   0.761  0.1629 -0.1669 -0.1442
  777MOL0     C 4767   4.656   7.067   0.891  0.1140  0.5417 -0.1635
  777MOL0     O 4768   4.731   7.107   0.996  0.0747  0.5772  1.1910
  777MOL0     C 4769   4.698   7.042   1.116  0.4582 -0.7790 -0.8916
  777MOL0     C 4770   4.812   7.085   1.220 -0.4018 -0.0355  0.6808
  777MOL0     C 4771   4.945   7.019   1.197  0.3992 -0.2991 -0.7579
  777MOL0     C 4772   5.033   7.065   1.091  0.2460 -0.6960  0.0940
  777MOL0     C 4773   5.180   7.017   1.107  0.0430 -0.4805 -0.4225
  777MOL0     C 4774   5.257   7.101   1.211 -0.3249  1.2899  0.0008
  777MOL0     C 4775   5.385   7.013   1.256  0.0834 -0.1379 -0.4795
  777MOL0     C 4776   5.497   7.005   1.152  0.5741  0.0117 -0.0512
  777MOL0     N 4777   5.596   6.910   1.198 -0.1383  0.1558  0.7481
  777MOL0     C 4778   5.704   6.941   1.279  0.3741 -0.8327 -0.3853
  777MOL0     C 4779   5.766   6.827   1.299 -0.1614  0.7993 -0.3333
  777MOL0     C 4780   5.896   6.819   1.372  0.0808  0.5572  0.0327
  777MOL0     C 4781   5.893   6.713   1.487 -0.1994  0.0806  0.5372
  777MOL0     C 4782   5.825   6.780   1.614 -0.2631 -0.4093  1.1993
  777MOL0     C 4783   5.672   6.811   1.619  0.1191  0.0054 -0.6469
  777MOL0     O 4784   5.597   6.694   1.603 -0.2881 -0.1946 -0.0892
  777MOL0     C 4785   5.474   6.712   1.546  0.2003  0.0297  0.0339
  777MOL0     C 4786   5.436   6.651   1.429 -0.4626  0.5561  0.8511
  777MOL0     C 4787   5.310   6.661   1.372  0.0481 -0.0984 -0.9921
  777MOL0     C 4788   5.210   6.731   1.438 -0.2053  0.6579  0.1774
  777MOL0     C 4789   5.071   6.733   1.395  0.2609  0.1915  0.2861
  777MOL0     O 4790   4.974   6.764   1.488 -0.4831  0.2340  0.1201
  777MOL0     C 4791   4.845   6.764   1.456 -0.3339 -1.0166 -0.7674
  777MOL0     C 4792   4.783   6.656   1.388  0.8719  0.8664  0.7970
  777MOL0     C 4793   4.645   6.670   1.350 -0.4963  0.0726 -0.6871
  777MOL0     C 4794   4.573   6.778   1.398  0.0484  0.9151 -0.2682
  777MOL0     O 4795   4.446   6.796   1.343 -0.3965 -0.6337  0.2245
  777MOL0     C 4796   4.337   6.791   1.438  0.9198 -0.1867  0.3171
  777MOL0     C 4797   4.227   6.689   1.395  0.5897  0.6302 -0.4918
  777MOL0     C 4798   4.239   6.660   1.248 -0.2410 -0.9330  0.0313
  777MOL0     C 4799   4.148   6.551   1.189 -0.0150  0.1767  0.2788
  777MOL0     C 4800   4.177   6.545   1.041  0.4173  1.1581  0.4728
  777MOL0     C 4801   4.092   6.442   0.978  1.4386 -1.1484  1.0793
  777MOL0     C 4802   3.936   6.490   0.981  0.5689  0.0997  0.0407
  777MOL0     C 4803   3.840   6.441   0.871 -0.8921 -1.2937 -0.3207
  777MOL0    Cl 4804   3.874   6.274   0.821 -0.0731  0.3950  0.1183
  777MOL0     C 4805   4.630   6.879   1.479  0.2698 -0.5804 -0.2737
  777MOL0     C 4806   4.768   6.871   1.497 -0.2866  0.4407 -0.4109
  777MOL0     O 4807   5.048   6.696   1.273 -0.1967 -0.2386  0.3884
  777MOL0     C 4808   5.241   6.788   1.564 -0.5193  0.2980  0.5032
  777MOL0     C 4809   5.384   6.790   1.609  1.2280  0.0272 -0.1783
  777MOL0     N 4810   5.690   6.724   1.241  0.6125  0.2419  0.5084
  777MOL0     N 4811   5.590   6.772   1.175  0.7000 -0.0500 -0.7401
  777MOL0     C 4812   4.531   6.998   0.897  0.3136 -0.2089  0.1807
  777MOL0     C 4813   4.453   6.977   0.775  0.7124 -0.5698 -0.6431
  777MOL0     C 4814   4.345   6.966   0.305  0.5692 -0.6447  0.2734
  777MOL0     C 4815   4.220   6.909   0.340  0.4756 -0.6599  0.0701
  777MOL0     C 4816   4.118   6.874   0.246 -0.7755 -0.5056 -0.0592
  777MOL0     C 4817   4.150   6.894   0.112  0.6666  0.4471 -0.5363
  777MOL0     O 4818   4.056   6.899   0.007  0.5737  0.1205 -0.3019
  777MOL0     C 4819   3.933   6.831   0.016  0.5491 -0.7330  0.1894
  777MOL0     C 4820   3.950   6.682   0.003  0.9703 -0.6330  0.1589
  777MOL0     C 4821   3.830   6.586   0.012  0.5420 -0.2587 -0.9738
  777MOL0     C 4822   3.719   6.620  -0.080  0.4994  0.0075 -1.1649
  777MOL0     C 4823   3.759   6.625  -0.218 -0.2834 -0.5231 -0.2524
  777MOL0     C 4824   3.793   6.630  -0.331  0.3704 -0.1087 -0.1333
  777MOL0     C 4825   4.270   6.953   0.075 -0.0106 -0.3169 -0.5013
  777MOL0     C 4826   4.375   6.983   0.164  0.2612  0.5419 -0.5549
  777MOL0     C 4827   4.508   7.016   0.110  0.0718 -0.3316 -0.5406
  777MOL0     H 4828   4.680   7.098   0.555 -0.7233  0.1093  0.0372
  777MOL0     H 4829   4.806   7.132   0.766 -1.0044  2.5683  3.6113
  777MOL0     H 4830   4.607   7.096   1.146  1.1040 -0.8851  1.4297
  777MOL0     H 4831   4.676   6.935   1.110 -1.9301 -0.3576 -0.7776
  777MOL0     H 4832   4.766   7.067   1.318 -1.9924  0.0759 -0.0033
  777MOL0     H 4833   4.824   7.193   1.211  2.2224 -0.4188 -1.9093
  777MOL0     H 4834   4.929   6.912   1.183  1.2190 -0.4707 -0.4389
  777MOL0     H 4835   4.992   7.034   1.294  4.1429 -0.3070 -2.4010
  777MOL0     H 4836   4.994   7.017   1.001 -3.2758  2.8056 -0.4811
  777MOL0     H 4837   5.030   7.173   1.078  0.9669 -0.6031  0.6179
  777MOL0     H 4838   5.181   6.912   1.138  0.7694 -0.2516  0.3664
  777MOL0     H 4839   5.219   7.035   1.006 -0.4591 -1.4173 -0.7973
  777MOL0     H 4840   5.280   7.199   1.168  0.4062  1.7723  1.4302
  777MOL0     H 4841   5.200   7.118   1.303  2.2504 -0.9174  2.2006
  777MOL0     H 4842   5.352   6.914   1.288  2.2042 -0.2464  1.6265
  777MOL0     H 4843   5.421   7.045   1.354 -0.7903  1.2933 -0.5947
  777MOL0     H 4844   5.449   6.958   1.066 -0.1070 -0.9130  0.8052
  777MOL0     H 4845   5.546   7.100   1.130  0.5901  0.3055  1.1489
  777MOL0     H 4846   5.738   7.040   1.306  0.0228 -0.6122 -0.7606
  777MOL0     H 4847   5.977   6.789   1.305  0.1209  0.1071  0.2837
  777MOL0     H 4848   5.925   6.919   1.404  0.8933  1.0743 -2.1405
  777MOL0     H 4849   5.830   6.627   1.461  0.3934 -0.1730 -0.0935
  777MOL0     H 4850   5.992   6.683   1.522  0.4492  2.7430  1.2344
  777MOL0     H 4851   5.875   6.873   1.642 -0.7160  0.1887  0.0614
  777MOL0     H 4852   5.850   6.705   1.690  1.6142 -1.5471 -0.4301
  777MOL0     H 4853   5.646   6.887   1.545 -1.1635 -0.2390 -0.4704
  777MOL0     H 4854   5.650   6.858   1.715  0.2220  1.6709 -1.4165
  777MOL0     H 4855   5.511   6.593   1.377  0.3939 -0.5340  3.1613
  777MOL0     H 4856   5.291   6.607   1.280  0.5692 -0.3728 -0.9402
  777MOL0     H 4857   4.830   6.561   1.364 -0.6799 -0.0050  1.0976
  777MOL0     H 4858   4.597   6.591   1.293  0.1584 -2.0184  1.5107
  777MOL0     H 4859   4.377   6.769   1.537  2.5062 -1.4042 -0.5666
  777MOL0     H 4860   4.275   6.881   1.445  0.0156 -0.8988  2.7606
  777MOL0     H 4861   4.234   6.602   1.460  2.0090  3.6554  3.8780
  777MOL0     H 4862   4.125   6.725   1.408 -0.4170 -1.0258 -3.1405
  777MOL0     H 4863   4.215   6.750   1.189  0.9867 -0.9937 -0.5904
  777MOL0     H 4864   4.335   6.630   1.206 -2.2282 -1.2742 -4.9058
  777MOL0     H 4865   4.040   6.565   1.197  0.1115  0.2178  2.4606
  777MOL0     H 4866   4.172   6.459   1.243  1.4166  1.3066  1.6627
  777MOL0     H 4867   4.281   6.515   1.024 -0.2268  0.0440 -1.8911
  777MOL0     H 4868   4.165   6.643   0.994 -0.3923  1.8158  1.9704
  777MOL0     H 4869   4.116   6.412   0.876  0.9733 -3.8373  1.6805
  777MOL0     H 4870   4.091   6.347   1.031 -0.6175 -0.9132  1.5077
  777MOL0     H 4871   3.920   6.598   0.984  1.5721  0.2430  0.5155
  777MOL0     H 4872   3.892   6.440   1.067  0.0286 -1.1284 -0.9132
  777MOL0     H 4873   3.736   6.459   0.900 -0.3278 -0.7174  1.4161
  777MOL0     H 4874   3.849   6.496   0.777 -0.6013 -2.5709 -1.0718
  777MOL0     H 4875   4.579   6.970   1.509 -0.2095  0.0379 -2.7965
  777MOL0     H 4876   4.821   6.947   1.553  0.1147 -1.4981  2.0007
  777MOL0     H 4877   5.151   6.827   1.610 -2.4782  0.1722 -2.8483
  777MOL0     H 4878   5.406   6.837   1.705 -0.6538  0.3942  0.1008
  777MOL0     H 4879   4.482   6.966   0.989  1.6810 -2.8584  0.0841
  777MOL0     H 4880   4.352   6.937   0.776  0.1208  0.8231 -1.7720
  777MOL0     H 4881   4.201   6.890   0.445 -2.0928 -0.1108 -0.2408
  777MOL0     H 4882   4.020   6.842   0.280 -0.2033 -2.3691 -0.0160
  777MOL0     H 4883   3.872   6.872  -0.066 -1.1072 -1.4161  1.0451
  777MOL0     H 4884   3.887   6.859   0.111  0.9223 -0.4113  0.2778
  777MOL0     H 4885   4.021   6.657   0.083  0.5342  0.3569  0.8878
  777MOL0     H 4886   4.005   6.669  -0.090 -1.4470 -0.2815 -1.4216
  777MOL0     H 4887   3.797   6.577   0.116 -0.7582 -2.9759 -1.5337
  777MOL0     H 4888   3.863   6.483  -0.003  0.4917 -0.4693  0.2533
  777MOL0     H 4889   3.641   6.546  -0.063 -0.1308  1.0236  0.5616
  777MOL0     H 4890   3.682   6.717  -0.047  2.4214  0.4043 -0.0015
  777MOL0     H 4891   3.824   6.643  -0.433 -0.0082  0.7674 -0.1441
  777MOL0     H 4892   4.275   6.966  -0.032 -2.3156  1.9880 -0.4173
  777MOL0     H 4893   4.523   6.975   0.010  2.7142  0.2146 -0.4508
  777MOL0     H 4894   4.533   7.123   0.111  1.5354 -0.6370  1.8920
  777MOL0     H 4895   4.583   6.973   0.178 -1.0461 -0.7016  0.4987
  778MOL0     O 4896   5.925   4.600   3.127  0.5277 -0.0819  0.2968
  778MOL0     C 4897   5.827   4.537   3.169 -0.9466  0.7135 -0.4307
  778MOL0     O 4898   5.838   4.440   3.264 -0.2042  0.6964 -0.1376
  778MOL0     C 4899   5.968   4.402   3.293  0.7916 -0.7921 -0.2553
  778MOL0     C 4900   6.059   4.348   3.198  0.3136  0.1178  0.0052
  778MOL0     C 4901   6.190   4.316   3.243 -0.2758 -0.0111 -0.5285
  778MOL0     C 4902   6.233   4.328   3.374  0.4271  0.1498 -0.4465
  778MOL0     O 4903   6.365   4.300   3.405  0.4137  0.1221  0.2239
  778MOL0     C 4904   6.393   4.243   3.541  0.1876  0.2293  0.0315
  778MOL0     C 4905   6.524   4.159   3.525  0.0153 -0.3556  0.4211
  778MOL0     C 4906   6.571   4.092   3.646 -0.6164  0.1986 -0.4215
  778MOL0     C 4907   6.727   4.066   3.651 -0.1348  0.8696  0.1407
  778MOL0     C 4908   6.804   4.190   3.693 -0.3721 -0.0663  0.4891
  778MOL0     C 4909   6.955   4.163   3.716 -1.1241  0.5674 -0.2912
  778MOL0     C 4910   6.979   4.093   3.855 -0.2514  0.1720 -0.2484
  778MOL0     C 4911   7.125   4.106   3.895 -0.2844  0.2169  0.0168
  778MOL0     N 4912   7.165   4.235   3.953 -0.1991  0.1265 -0.3114
  778MOL0     C 4913   7.110   4.299   4.062 -0.2013 -0.2624 -0.1232
  778MOL0     C 4914   7.208   4.391   4.104 -0.0087 -0.3695  0.0047
  778MOL0     C 4915   7.216   4.485   4.225 -0.6627  0.4136  1.0386
  778MOL0     C 4916   7.342   4.456   4.313  0.4425  0.0046 -0.2289
  778MOL0     C 4917   7.343   4.557   4.423  0.5240  0.0602  0.3553
  778MOL0     C 4918   7.457   4.537   4.517 -0.5306 -0.3765  0.3730
  778MOL0     O 4919   7.581   4.553   4.440 -0.0262  0.0173 -0.0840
  778MOL0     C 4920   7.699   4.561   4.513  0.2403 -0.6049  0.5012
  778MOL0     C 4921   7.720   4.512   4.646 -0.3641  0.3293  0.2648
  778MOL0     C 4922   7.845   4.527   4.696  0.0168  0.1511 -1.1525
  778MOL0     C 4923   7.950   4.588   4.623 -0.0023 -0.6150  0.0571
  778MOL0     C 4924   8.083   4.624   4.686 -0.7507  0.3121 -0.2360
  778MOL0     O 4925   8.190   4.656   4.607 -0.2219 -0.0482 -0.1562
  778MOL0     C 4926   8.312   4.691   4.654 -0.4342 -0.2147  0.3425
  778MOL0     C 4927   8.345   4.752   4.778  0.3700  0.0440  0.2898
  778MOL0     C 4928   8.472   4.802   4.795 -0.3043 -0.3471 -0.0238
  778MOL0     C 4929   8.571   4.791   4.698 -0.6340 -0.1053 -0.1213
  778MOL0     O 4930   8.696   4.850   4.717  0.3081  0.4527  0.3081
  778MOL0     C 4931   8.802   4.816   4.631 -0.3487 -0.2696  0.7153
  778MOL0     C 4932   8.935   4.815   4.702  0.2641 -0.6096  0.0746
  778MOL0     C 4933   8.986   4.948   4.763  1.0795  0.0613 -0.1487
  778MOL0     C 4934   9.074   4.903   4.882 -0.6546 -0.3999 -0.0819
  778MOL0     C 4935   9.171   5.016   4.939 -0.4390  0.2170  0.0890
  778MOL0     C 4936   9.273   4.949   5.025  0.0137 -1.3153 -0.6846
  778MOL0     C 4937   9.353   5.051   5.102  0.1581 -0.6759  0.0849
  778MOL0     C 4938   9.453   4.988   5.186 -0.7395  0.0631  0.5879
  778MOL0    Cl 4939   9.514   5.105   5.304 -0.0942 -0.0210 -0.1802
  778MOL0     C 4940   8.538   4.734   4.577 -0.2688 -0.9957  0.8569
  778MOL0     C 4941   8.414   4.685   4.550  0.2197 -0.3063  0.5816
  778MOL0     O 4942   8.075   4.623   4.804 -0.0465 -0.5703 -0.5265
  778MOL0     C 4943   7.927   4.634   4.494  0.4047 -0.8906  0.0416
  778MOL0     C 4944   7.801   4.619   4.435 -0.2562 -0.0007 -0.7146
  778MOL0     N 4945   7.313   4.382   4.017 -0.9280 -0.0143  0.7288
  778MOL0     N 4946   7.290   4.289   3.935  0.1642 -0.2806 -0.0914
  778MOL0     C 4947   6.137   4.378   3.465 -0.0188  0.1501  0.0513
  778MOL0     C 4948   6.014   4.422   3.427  0.4299  0.0036 -0.3530
  778MOL0     C 4949   5.689   4.564   3.119 -0.6472  0.0686  0.3335
  778MOL0     C 4950   5.582   4.479   3.163  0.3122  0.3792  0.9330
  778MOL0     C 4951   5.451   4.497   3.107  0.0139 -1.0330  0.7023
  778MOL0     C 4952   5.420   4.614   3.028 -0.4400 -0.0133  0.3473
  778MOL0     O 4953   5.292   4.633   2.991 -0.8529 -0.2621 -0.5619
  778MOL0     C 4954   5.265   4.542   2.880  0.0363  0.4856 -0.5667
  778MOL0     C 4955   5.136   4.592   2.807 -0.6824  0.4094 -0.0602
  778MOL0     C 4956   5.154   4.723   2.740 -0.4060 -0.6298  0.0475
  778MOL0     C 4957   5.132   4.719   2.585 -0.4683  0.5961 -0.4335
  778MOL0     C 4958   5.178   4.839   2.530 -0.3717  0.3539 -0.2205
  778MOL0     C 4959   5.221   4.925   2.455  0.3884  0.2942 -0.6382
  778MOL0     C 4960   5.528   4.686   2.971  0.1199  0.0394  0.1269
  778MOL0     C 4961   5.664   4.658   3.013 -0.4061 -1.0292  0.0921
  778MOL0     C 4962   5.767   4.744   2.940 -0.2087 -0.4252  0.3377
  778MOL0     H 4963   6.037   4.340   3.092 -4.0265  0.4715  0.7083
  778MOL0     H 4964   6.264   4.265   3.182 -1.6076 -4.2262  1.0328
  778MOL0     H 4965   6.411   4.321   3.616 -0.7697 -0.0826  0.5925
  778MOL0     H 4966   6.317   4.175   3.579  0.8485 -0.2620  0.4808
  778MOL0     H 4967   6.588   4.243   3.497 -1.9076  1.0062 -0.0243
  778MOL0     H 4968   6.511   4.085   3.445 -0.7620 -1.6471  1.6823
  778MOL0     H 4969   6.524   3.994   3.652 -0.5169  0.2419  3.3151
  778MOL0     H 4970   6.546   4.143   3.739  1.2251 -0.0622  0.2499
  778MOL0     H 4971   6.738   3.991   3.730 -3.5964  0.9747  0.9012
  778MOL0     H 4972   6.757   4.022   3.556 -2.8139 -2.0395  0.4610
  778MOL0     H 4973   6.802   4.267   3.614  0.1908 -0.4892  0.0594
  778MOL0     H 4974   6.754   4.221   3.785  0.1239 -1.2773  1.1777
  778MOL0     H 4975   7.002   4.112   3.632  1.4961  0.8853  0.8847
  778MOL0     H 4976   7.013   4.255   3.723  0.6829 -0.5943  0.6533
  778MOL0     H 4977   6.968   3.984   3.851  0.4916 -0.0082  1.4421
  778MOL0     H 4978   6.914   4.139   3.930  3.9947  0.1996  3.8509
  778MOL0     H 4979   7.136   4.030   3.973 -1.6568  0.8315  0.8576
  778MOL0     H 4980   7.186   4.076   3.809  0.7771 -3.2938  1.8135
  778MOL0     H 4981   7.017   4.279   4.115 -0.1183 -0.1729  0.0586
  778MOL0     H 4982   7.232   4.586   4.185  2.2074  1.1322  3.6321
  778MOL0     H 4983   7.125   4.481   4.286 -1.7089 -0.8655 -0.4903
  778MOL0     H 4984   7.324   4.359   4.361 -1.9878 -0.1987 -1.4294
  778MOL0     H 4985   7.436   4.449   4.257 -1.0106 -0.9916 -2.7087
  778MOL0     H 4986   7.245   4.545   4.469 -1.1203  1.5006 -2.4663
  778MOL0     H 4987   7.355   4.661   4.390  3.2523  0.2809  1.7563
  778MOL0     H 4988   7.451   4.437   4.560  2.9958  0.4599  3.1998
  778MOL0     H 4989   7.473   4.603   4.603  0.2484 -1.3707  1.0133
  778MOL0     H 4990   7.644   4.452   4.695  0.7082 -0.2262  1.2870
  778MOL0     H 4991   7.866   4.483   4.793 -4.5194 -1.3039 -0.5852
  778MOL0     H 4992   8.264   4.772   4.847 -0.8459  1.1113 -1.3590
  778MOL0     H 4993   8.501   4.859   4.884 -0.6408  1.5696 -1.0874
  778MOL0     H 4994   8.802   4.715   4.589  1.7576 -1.0343  2.3783
  778MOL0     H 4995   8.791   4.887   4.548 -2.7105 -0.5959  0.6790
  778MOL0     H 4996   8.917   4.750   4.789 -1.3729  0.7466  0.7984
  778MOL0     H 4997   9.012   4.771   4.639  1.4861 -0.7368  1.5748
  778MOL0     H 4998   9.032   5.005   4.682 -1.0035  2.1672  0.0196
  778MOL0     H 4999   8.905   5.011   4.801  2.4811  1.3704  0.7793
  778MOL0     H 5000   9.138   4.821   4.848  0.1309  0.2486 -0.1965
  778MOL0     H 5001   9.022   4.869   4.973 -0.0348 -1.2187 -0.0190
  778MOL0     H 5002   9.103   5.073   5.003  0.7439  0.5722  1.0564
  778MOL0     H 5003   9.216   5.083   4.866  2.7989 -0.2643  1.4680
  778MOL0     H 5004   9.224   4.883   5.096 -2.6607  0.2289 -0.9522
  778MOL0     H 5005   9.341   4.894   4.959  4.2995 -0.7708  2.7691
  778MOL0     H 5006   9.288   5.110   5.168  2.2668  0.7241  1.0048
  778MOL0     H 5007   9.405   5.109   5.026  0.1052  0.5113  0.9425
  778MOL0     H 5008   9.418   4.899   5.239 -5.4041  0.6222 -1.0485
  778MOL0     H 5009   9.534   4.952   5.123 -1.4372 -2.5821  1.0894
  778MOL0     H 5010   8.613   4.732   4.497  0.0684  0.9414  1.0705
  778MOL0     H 5011   8.397   4.639   4.453 -1.0827  1.7003 -0.2057
  778MOL0     H 5012   7.996   4.700   4.442 -0.2368 -1.3619 -1.4645
  778MOL0     H 5013   7.774   4.644   4.333 -1.4374 -0.2324 -0.4732
  778MOL0     H 5014   6.159   4.388   3.571 -2.0057 -3.2240  0.9515
  778MOL0     H 5015   5.949   4.477   3.495  0.8645  1.8748 -1.3977
  778MOL0     H 5016   5.615   4.409   3.239  0.3319 -0.8386 -0.1709
  778MOL0     H 5017   5.372   4.426   3.127 -0.0474 -0.7182  1.6140
  778MOL0     H 5018   5.253   4.441   2.922  0.7523 -0.1878 -1.9077
  778MOL0     H 5019   5.349   4.535   2.809  0.8162  1.0402  0.2754
  778MOL0     H 5020   5.065   4.601   2.890  0.0804  1.1763  0.5202
  778MOL0     H 5021   5.087   4.517   2.744 -3.1333  2.4327 -0.7086
  778MOL0     H 5022   5.257   4.751   2.765  0.5409 -4.3562  0.9726
  778MOL0     H 5023   5.083   4.798   2.777  2.7070  2.1778  0.8407
  778MOL0     H 5024   5.181   4.632   2.540 -3.0306 -1.3580  0.3658
  778MOL0     H 5025   5.024   4.718   2.573 -0.5855  1.3189  0.4386
  778MOL0     H 5026   5.259   5.002   2.391 -1.1937  1.3647 -0.3447
  778MOL0     H 5027   5.505   4.767   2.903 -2.3755  0.4563  1.3849
  778MOL0     H 5028   5.805   4.814   3.016 -0.8306 -0.4356  0.6566
  778MOL0     H 5029   5.851   4.681   2.909 -0.4146 -1.6256  2.0962
  778MOL0     H 5030   5.718   4.794   2.856  0.9654 -0.6381 -0.5012
  779MOL0     O 5031   2.041   8.438   6.394 -0.3356  0.3462  0.2932
  779MOL0     C 5032   1.979   8.529   6.343  1.0397 -0.1441 -0.3325
  779MOL0     O 5033   2.031   8.628   6.267 -0.3889  0.1820  0.6009
  779MOL0     C 5034   2.164   8.627   6.247 -0.5365 -0.0870 -0.6691
  779MOL0     C 5035   2.243   8.716   6.317 -0.1612 -0.1444  0.1484
  779MOL0     C 5036   2.382   8.718   6.305 -0.6463 -0.2975 -0.3615
  779MOL0     C 5037   2.452   8.620   6.226  0.6279  0.0904 -0.4209
  779MOL0     O 5038   2.589   8.619   6.202 -0.0549  1.1889 -0.2145
  779MOL0     C 5039   2.665   8.727   6.241  0.8170 -0.5737 -0.4830
  779MOL0     C 5040   2.807   8.712   6.189  0.2978 -0.3791 -0.9205
  779MOL0     C 5041   2.865   8.583   6.250 -0.1607  0.3521  1.2050
  779MOL0     C 5042   3.009   8.558   6.200 -0.5608  0.1120 -0.3207
  779MOL0     C 5043   3.077   8.430   6.251 -0.3285  0.3961 -0.1644
  779MOL0     C 5044   3.232   8.433   6.234  0.5154 -0.0896  0.7575
  779MOL0     C 5045   3.297   8.320   6.315 -0.4906 -0.8322  0.0640
  779MOL0     C 5046   3.445   8.341   6.309 -1.0536 -0.1607 -0.0459
  779MOL0     N 5047   3.501   8.329   6.173  0.9496  0.0839  0.0784
  779MOL0     C 5048   3.553   8.204   6.137 -0.3418 -0.0367  0.0570
  779MOL0     C 5049   3.589   8.219   6.006 -0.8059  0.1177  0.0555
  779MOL0     C 5050   3.662   8.118   5.926  0.7110 -0.3724 -0.3685
  779MOL0     C 5051   3.810   8.134   5.929  0.1448  0.4045  0.4171
  779MOL0     C 5052   3.863   8.041   5.821  0.2918  0.4879  0.4402
  779MOL0     C 5053   4.007   8.070   5.782  0.2501 -0.1126  0.8655
  779MOL0     O 5054   4.104   8.069   5.880  0.5112  0.2856  0.1797
  779MOL0     C 5055   4.235   8.073   5.847 -0.6947 -0.3550 -0.6846
  779MOL0     C 5056   4.280   8.120   5.725 -0.2166  0.4650 -0.5235
  779MOL0     C 5057   4.423   8.129   5.702 -0.5616  0.3147  0.2240
  779MOL0     C 5058   4.518   8.066   5.785  0.4262  0.5603 -0.1288
  779MOL0     C 5059   4.661   8.046   5.743  0.2093  0.2262  0.1412
  779MOL0     O 5060   4.749   8.003   5.834  0.8747 -0.1512  0.7948
  779MOL0     C 5061   4.880   8.038   5.819 -0.7568  0.3890 -0.6897
  779MOL0     C 5062   4.922   8.159   5.761 -0.3449  1.0120 -0.4514
  779MOL0     C 5063   5.056   8.195   5.762 -0.4029  0.2225 -0.4501
  779MOL0     C 5064   5.142   8.109   5.838 -0.4356 -0.1640 -0.0167
  779MOL0     O 5065   5.279   8.129   5.860  0.1327  0.6173 -0.2014
  779MOL0     C 5066   5.310   8.270   5.885  0.5489 -0.3154 -0.3014
  779MOL0     C 5067   5.442   8.298   5.964  0.6858  0.1246 -0.1342
  779MOL0     C 5068   5.565   8.243   5.899 -0.3024 -0.0657 -0.1376
  779MOL0     C 5069   5.680   8.332   5.966  0.4969  0.5987  0.2691
  779MOL0     C 5070   5.819   8.317   5.894  0.7080  0.3862 -0.8206
  779MOL0     C 5071   5.935   8.370   5.977 -0.1247 -0.6672 -0.3346
  779MOL0     C 5072   6.063   8.370   5.884 -1.0143  1.3269 -0.1008
  779MOL0     C 5073   6.191   8.425   5.955 -0.4419  0.3241  0.5965
  779MOL0    Cl 5074   6.320   8.394   5.831 -0.4651 -0.3824  0.2249
  779MOL0     C 5075   5.092   7.986   5.886  1.0464 -0.2800 -0.9540
  779MOL0     C 5076   4.960   7.949   5.878  0.4627  0.2069 -0.4947
  779MOL0     O 5077   4.686   8.078   5.629  0.1179 -0.3369 -0.6540
  779MOL0     C 5078   4.466   8.010   5.905  0.1244  0.6688  0.5371
  779MOL0     C 5079   4.326   8.012   5.939  0.1942 -0.0947  0.4332
  779MOL0     N 5080   3.564   8.350   5.959  0.0816 -0.4321 -0.1037
  779MOL0     N 5081   3.508   8.412   6.059  0.5026 -0.9623  0.4763
  779MOL0     C 5082   2.371   8.522   6.171  0.7697  0.9318  0.6276
  779MOL0     C 5083   2.229   8.526   6.172  0.2473 -0.0965  0.1248
  779MOL0     C 5084   1.827   8.520   6.347 -0.8106 -0.0374 -0.1604
  779MOL0     C 5085   1.765   8.406   6.304 -0.5022  0.8315 -0.0375
  779MOL0     C 5086   1.620   8.400   6.310 -0.1954  0.5060 -0.3458
  779MOL0     C 5087   1.551   8.508   6.368 -0.4393  0.4229  0.5441
  779MOL0     O 5088   1.420   8.501   6.395  0.9346 -0.1548  1.2937
  779MOL0     C 5089   1.342   8.385   6.373 -0.3055 -0.2605 -0.4825
  779MOL0     C 5090   1.217   8.381   6.451 -0.7126  1.4420  0.1560
  779MOL0     C 5091   1.131   8.258   6.412 -0.2856 -0.7463  0.1124
  779MOL0     C 5092   0.993   8.274   6.465  0.8383 -0.1482 -0.2111
  779MOL0     C 5093   0.984   8.250   6.607 -0.0018  0.5845 -0.1899
  779MOL0     C 5094   0.985   8.222   6.727  0.2510 -0.2283 -0.0089
  779MOL0     C 5095   1.618   8.615   6.417 -0.9821 -0.9162  0.4584
  779MOL0     C 5096   1.757   8.632   6.401  0.1239  0.7341 -0.7170
  779MOL0     C 5097   1.823   8.758   6.459 -0.2877  0.3527 -0.4971
  779MOL0     H 5098   2.187   8.780   6.384 -1.0296  0.4182 -1.0630
  779MOL0     H 5099   2.441   8.798   6.349  0.3807  0.0062 -2.1976
  779MOL0     H 5100   2.626   8.824   6.211  0.4465  0.1557  2.0980
  779MOL0     H 5101   2.668   8.730   6.350 -2.7014  1.8301 -0.3000
  779MOL0     H 5102   2.872   8.798   6.206  1.9507 -1.5505 -1.0453
  779MOL0     H 5103   2.816   8.708   6.080  1.2484  0.9362 -0.9204
  779MOL0     H 5104   2.811   8.499   6.206  4.0498 -1.8372 -0.3818
  779MOL0     H 5105   2.857   8.587   6.359  0.4287  3.1019  1.2261
  779MOL0     H 5106   3.012   8.559   6.091  0.4520 -1.6825 -0.3353
  779MOL0     H 5107   3.067   8.642   6.238 -1.6716  1.0791 -0.7129
  779MOL0     H 5108   3.061   8.421   6.359  0.0084  0.7842 -0.0812
  779MOL0     H 5109   3.031   8.339   6.211 -0.4410 -1.8107  4.3263
  779MOL0     H 5110   3.242   8.425   6.126  1.1234  1.5149  0.6600
  779MOL0     H 5111   3.277   8.528   6.267  2.3520 -1.4333  2.3751
  779MOL0     H 5112   3.265   8.220   6.284 -1.8405  0.1709 -1.9849
  779MOL0     H 5113   3.269   8.332   6.420 -3.0723  1.3110 -0.7562
  779MOL0     H 5114   3.487   8.433   6.353 -0.9889  0.3500 -1.1496
  779MOL0     H 5115   3.490   8.264   6.372 -0.9932 -0.3874 -0.3618
  779MOL0     H 5116   3.560   8.116   6.200 -0.0812 -0.2608 -0.2753
  779MOL0     H 5117   3.649   8.019   5.971  2.3374 -1.0143 -1.2325
  779MOL0     H 5118   3.617   8.125   5.826 -0.6070  0.5769  0.2587
  779MOL0     H 5119   3.848   8.234   5.909  1.0194  0.4968  2.2850
  779MOL0     H 5120   3.861   8.113   6.024 -0.9144 -0.6639  0.7813
  779MOL0     H 5121   3.800   8.044   5.732  1.0851  0.3574 -0.1432
  779MOL0     H 5122   3.855   7.937   5.854  0.1176  0.5591  0.6234
  779MOL0     H 5123   4.002   8.171   5.740 -0.2226  0.0810  1.3770
  779MOL0     H 5124   4.041   8.003   5.703  2.8004  1.7114  0.2859
  779MOL0     H 5125   4.215   8.179   5.661 -0.9677  0.5416  0.3072
  779MOL0     H 5126   4.460   8.187   5.618 -1.5450  0.2631 -0.2632
  779MOL0     H 5127   4.850   8.234   5.731 -1.0291 -0.3800 -2.5138
  779MOL0     H 5128   5.100   8.282   5.714 -0.1857 -0.5258 -1.6229
  779MOL0     H 5129   5.315   8.321   5.788 -0.0920 -0.9847 -0.6945
  779MOL0     H 5130   5.230   8.323   5.939  1.1117 -0.9955  1.2582
  779MOL0     H 5131   5.448   8.406   5.980 -1.1951  0.1252  0.8759
  779MOL0     H 5132   5.433   8.256   6.065  1.8844  2.3770  1.0042
  779MOL0     H 5133   5.593   8.139   5.914  1.5276  0.5773  1.3485
  779MOL0     H 5134   5.557   8.267   5.792  1.6178 -0.7433 -0.4772
  779MOL0     H 5135   5.698   8.298   6.068  0.9196 -0.2690 -0.0755
  779MOL0     H 5136   5.655   8.438   5.979 -0.2922  0.2931  1.3773
  779MOL0     H 5137   5.814   8.381   5.805  1.6634  0.8281 -0.5739
  779MOL0     H 5138   5.845   8.215   5.865  2.0550  1.4296 -3.7055
  779MOL0     H 5139   5.924   8.468   6.025 -0.5994 -0.8302 -0.1079
  779MOL0     H 5140   5.960   8.295   6.052  1.4444 -0.7795 -0.9353
  779MOL0     H 5141   6.048   8.423   5.790 -0.0504 -2.3614 -2.5155
  779MOL0     H 5142   6.091   8.271   5.846 -0.9764  2.3473 -2.9598
  779MOL0     H 5143   6.178   8.533   5.969 -1.1227  0.1365  1.5202
  779MOL0     H 5144   6.208   8.370   6.048  0.0915  0.4243  0.5621
  779MOL0     H 5145   5.174   7.932   5.932  1.1091  0.6959  0.1479
  779MOL0     H 5146   4.909   7.866   5.926 -2.2441  1.8516 -0.3310
  779MOL0     H 5147   4.530   7.959   5.976  2.4128  1.4536 -0.8336
  779MOL0     H 5148   4.295   7.982   6.038 -2.8534 -0.8024 -0.6277
  779MOL0     H 5149   2.423   8.447   6.111 -0.8442  0.5045 -0.2975
  779MOL0     H 5150   2.180   8.444   6.122 -0.4376  1.0198 -1.1054
  779MOL0     H 5151   1.819   8.324   6.258 -1.1822 -0.5792  1.5848
  779MOL0     H 5152   1.568   8.309   6.280 -2.4523  1.7574 -0.4714
  779MOL0     H 5153   1.401   8.300   6.407 -0.3095 -0.2373 -0.4184
  779MOL0     H 5154   1.330   8.370   6.266  2.4003  1.3034 -1.0857
  779MOL0     H 5155   1.165   8.474   6.427 -1.0008  1.1125 -0.5423
  779MOL0     H 5156   1.245   8.378   6.557  0.4004  0.9600 -0.1314
  779MOL0     H 5157   1.178   8.163   6.439 -2.3946 -2.1906 -0.9844
  779MOL0     H 5158   1.127   8.251   6.303 -1.7005 -3.2920  0.2310
  779MOL0     H 5159   0.952   8.373   6.442  0.1940 -0.6251 -1.1672
  779MOL0     H 5160   0.928   8.201   6.416 -1.5295 -1.2095  3.9702
  779MOL0     H 5161   0.976   8.204   6.833  2.3471  3.2645  0.9296
  779MOL0     H 5162   1.566   8.699   6.462 -1.3201 -0.2483 -1.1296
  779MOL0     H 5163   1.928   8.736   6.481  0.2863 -1.4343 -4.1883
  779MOL0     H 5164   1.814   8.847   6.396 -0.4952 -0.7561 -2.1114
  779MOL0     H 5165   1.779   8.771   6.558 -1.4257  2.0224 -1.1846
  780MOL0     O 5166   2.718   4.341   9.227  0.5280 -0.1178  0.6456
  780MOL0     C 5167   2.737   4.224   9.266 -0.5870  0.0620 -0.1682
  780MOL0     O 5168   2.659   4.153   9.357 -0.5041  0.0568 -0.5394
  780MOL0     C 5169   2.550   4.213   9.419 -0.2030 -0.3222  0.3338
  780MOL0     C 5170   2.571   4.247   9.550 -1.0257  0.3129 -0.1182
  780MOL0     C 5171   2.473   4.311   9.616 -0.1173 -0.4624  0.5442
  780MOL0     C 5172   2.351   4.337   9.555 -0.5259  0.9005 -0.4106
  780MOL0     O 5173   2.261   4.402   9.634  0.6057 -0.2483 -0.1479
  780MOL0     C 5174   2.122   4.400   9.601 -0.2536 -0.5865 -0.4351
  780MOL0     C 5175   2.034   4.494   9.680 -0.6095  0.1499  0.1330
  780MOL0     C 5176   2.081   4.627   9.672 -0.1652  0.4411 -0.7929
  780MOL0     C 5177   1.986   4.737   9.729 -0.5588 -0.5009  0.3040
  780MOL0     C 5178   1.997   4.744   9.883  0.4788  0.6484 -0.6697
  780MOL0     C 5179   1.883   4.813   9.945 -0.1972  0.0404  0.8264
  780MOL0     C 5180   1.913   4.858  10.081 -0.0344 -0.1798 -0.8318
  780MOL0     C 5181   1.799   4.941  10.150 -1.0588 -0.3553  0.1784
  780MOL0     N 5182   1.798   5.085  10.100  0.4245 -0.4846 -0.5444
  780MOL0     C 5183   1.699   5.137  10.026 -0.3159 -0.2889 -0.2095
  780MOL0     C 5184   1.733   5.274  10.043 -1.3916 -0.5661 -0.2778
  780MOL0     C 5185   1.641   5.375   9.991  0.4604 -0.0025 -0.5443
  780MOL0     C 5186   1.710   5.506   9.936 -0.3856  0.5037  0.9300
  780MOL0     C 5187   1.792   5.466   9.805  0.2317 -0.4829 -0.3557
  780MOL0     C 5188   1.880   5.590   9.773  0.7417  0.0048 -0.3068
  780MOL0     O 5189   1.981   5.603   9.873 -0.1477 -0.4849  0.0702
  780MOL0     C 5190   2.097   5.536   9.857 -0.2020  0.4058  0.1684
  780MOL0     C 5191   2.126   5.428   9.937 -0.2265  0.6576  0.4925
  780MOL0     C 5192   2.249   5.360   9.934 -0.4131  0.1529  1.1520
  780MOL0     C 5193   2.352   5.397   9.849  0.5193  0.7358  0.3666
  780MOL0     C 5194   2.479   5.329   9.845 -0.2177  0.2805  0.5077
  780MOL0     O 5195   2.512   5.246   9.945  0.2631 -0.3521 -1.1768
  780MOL0     C 5196   2.632   5.182   9.936  0.0026 -0.3528 -0.9241
  780MOL0     C 5197   2.751   5.252   9.973  0.2903  0.3169  0.3177
  780MOL0     C 5198   2.874   5.192   9.959  0.3670 -0.4845  0.1186
  780MOL0     C 5199   2.882   5.052   9.931 -0.8727 -0.5876 -0.1639
  780MOL0     O 5200   3.003   4.989   9.921  0.1478  0.1765 -0.0938
  780MOL0     C 5201   3.054   4.950  10.049 -0.2836 -0.0866  0.4996
  780MOL0     C 5202   3.164   4.839  10.045 -0.3001  0.7667 -0.4171
  780MOL0     C 5203   3.289   4.865   9.955  0.3728 -0.4206 -0.6732
  780MOL0     C 5204   3.410   4.777   9.989 -1.0513 -0.7397  0.2717
  780MOL0     C 5205   3.517   4.788   9.879 -0.0329 -0.0772 -0.7645
  780MOL0     C 5206   3.651   4.728   9.922  0.1204 -0.1592  0.0776
  780MOL0     C 5207   3.648   4.594   9.989  0.3549  0.5469  0.0284
  780MOL0     C 5208   3.787   4.527  10.007  0.5522  0.7646  0.0516
  780MOL0    Cl 5209   3.875   4.612  10.136 -0.0430  0.2419  0.2386
  780MOL0     C 5210   2.762   4.984   9.907 -0.1790  0.7226  0.7162
  780MOL0     C 5211   2.636   5.048   9.903  0.0150 -0.5642  0.4163
  780MOL0     O 5212   2.558   5.363   9.761  0.8150  0.3078  0.0405
  780MOL0     C 5213   2.323   5.509   9.765 -0.2795  0.3930 -0.1203
  780MOL0     C 5214   2.199   5.567   9.765 -0.2734 -0.0036  0.8388
  780MOL0     N 5215   1.848   5.294  10.117 -0.7212  0.1465 -0.0756
  780MOL0     N 5216   1.897   5.174  10.134 -0.3368  0.3400 -0.1818
  780MOL0     C 5217   2.325   4.288   9.425  0.0914 -1.1784 -0.3517
  780MOL0     C 5218   2.432   4.233   9.357  1.1507 -0.7451  0.0342
  780MOL0     C 5219   2.842   4.153   9.194  0.0970  0.5161 -0.0922
  780MOL0     C 5220   2.927   4.065   9.262  0.3690  0.1466 -0.3526
  780MOL0     C 5221   3.021   3.989   9.205 -0.4329  0.0277  0.1323
  780MOL0     C 5222   3.044   4.003   9.064 -0.1285  0.1798  0.4275
  780MOL0     O 5223   3.139   3.938   8.992  0.3644  0.7976 -0.8208
  780MOL0     C 5224   3.248   3.874   9.069  0.3159 -0.6697  1.0397
  780MOL0     C 5225   3.369   3.864   8.984 -0.1021  0.2222  0.2043
  780MOL0     C 5226   3.361   3.740   8.891  0.5169  0.0553  0.5877
  780MOL0     C 5227   3.489   3.720   8.803 -0.2490 -0.2010 -0.0674
  780MOL0     C 5228   3.482   3.820   8.690 -0.0054 -0.7340 -0.0613
  780MOL0     C 5229   3.444   3.886   8.588  0.4654 -0.0155  0.7569
  780MOL0     C 5230   2.962   4.091   8.989  0.5089  0.8413 -0.2818
  780MOL0     C 5231   2.858   4.165   9.054 -0.4280 -0.1523 -0.5987
  780MOL0     C 5232   2.761   4.241   8.967 -0.7312 -0.3953 -0.2422
  780MOL0     H 5233   2.668   4.218   9.590 -1.4151 -1.7226 -0.5211
  780MOL0     H 5234   2.491   4.342   9.718  0.5682 -1.8009  0.8556
  780MOL0     H 5235   2.106   4.426   9.496 -3.9632 -0.0944  0.0996
  780MOL0     H 5236   2.080   4.299   9.610 -1.8880 -0.0976 -1.9932
  780MOL0     H 5237   2.030   4.457   9.783  1.4035 -0.1228  0.1540
  780MOL0     H 5238   1.935   4.498   9.633  0.0488  0.7524 -1.2617
  780MOL0     H 5239   2.095   4.642   9.565 -0.3146 -0.4425 -0.9469
  780MOL0     H 5240   2.176   4.629   9.726  0.0145 -3.6960 -0.6375
  780MOL0     H 5241   2.017   4.832   9.685  1.8217 -1.2037  0.3102
  780MOL0     H 5242   1.885   4.718   9.693 -1.7837 -0.3380  3.3614
  780MOL0     H 5243   2.009   4.646   9.928  0.7262  0.3966 -1.2698
  780MOL0     H 5244   2.089   4.800   9.903  0.7491  0.4766 -1.4063
  780MOL0     H 5245   1.866   4.902   9.884  0.7378 -0.3179  0.0088
  780MOL0     H 5246   1.798   4.744   9.950 -0.0060 -0.3612 -0.9370
  780MOL0     H 5247   2.005   4.916  10.086  0.9027 -1.5172 -2.0048
  780MOL0     H 5248   1.937   4.770  10.141  0.1123  0.5231  0.1612
  780MOL0     H 5249   1.698   4.906  10.127 -2.4559  2.7839  0.9275
  780MOL0     H 5250   1.809   4.937  10.259  0.3415  1.4551  0.1578
  780MOL0     H 5251   1.609   5.089   9.988 -0.0286 -1.7134  0.8375
  780MOL0     H 5252   1.562   5.342   9.923 -2.9487 -0.7393  3.3421
  780MOL0     H 5253   1.579   5.400  10.077  2.4611  0.8117  0.7458
  780MOL0     H 5254   1.642   5.589   9.917 -0.6807 -0.1774 -1.3420
  780MOL0     H 5255   1.780   5.541  10.013  0.5278 -1.1372  0.9022
  780MOL0     H 5256   1.732   5.475   9.714 -2.1540  3.0630  1.3778
  780MOL0     H 5257   1.841   5.369   9.823 -1.2692 -1.1441  0.3367
  780MOL0     H 5258   1.828   5.686   9.774  0.5043  0.0171 -3.2946
  780MOL0     H 5259   1.915   5.573   9.671 -0.3247 -0.1022 -0.6661
  780MOL0     H 5260   2.057   5.408  10.018 -1.0053  1.5751  0.0781
  780MOL0     H 5261   2.275   5.273   9.993 -0.4937 -1.6018 -1.2570
  780MOL0     H 5262   2.739   5.355  10.003  0.4287  0.0034  1.5176
  780MOL0     H 5263   2.957   5.260   9.970 -0.0478 -0.2442  2.0566
  780MOL0     H 5264   3.098   5.041  10.091  1.1852  0.2302 -1.6028
  780MOL0     H 5265   2.970   4.919  10.113  0.2848 -0.2582  1.1718
  780MOL0     H 5266   3.196   4.840  10.150  0.5540  1.3954 -0.6685
  780MOL0     H 5267   3.125   4.739  10.025  2.1909 -0.4283  0.3125
  780MOL0     H 5268   3.259   4.848   9.851 -3.9530  0.9925  0.1334
  780MOL0     H 5269   3.315   4.971   9.964 -2.6589  0.3690 -0.3761
  780MOL0     H 5270   3.379   4.676  10.018 -1.7288 -0.1774  1.5612
  780MOL0     H 5271   3.446   4.821  10.082 -2.3446  1.2304 -0.1107
  780MOL0     H 5272   3.524   4.895   9.858 -0.7126  0.1328  0.0422
  780MOL0     H 5273   3.485   4.749   9.782 -2.5281  1.9488 -0.8926
  780MOL0     H 5274   3.720   4.742   9.839  0.6842  2.4125  0.8907
  780MOL0     H 5275   3.673   4.801  10.001 -4.2836 -0.0243  1.4800
  780MOL0     H 5276   3.591   4.527   9.924 -1.6408  2.4162 -0.2582
  780MOL0     H 5277   3.596   4.606  10.084  1.5928  0.4145  0.7519
  780MOL0     H 5278   3.778   4.420  10.027  2.6725  0.7937  1.5315
  780MOL0     H 5279   3.844   4.535   9.914 -0.0541 -1.8286 -0.6058
  780MOL0     H 5280   2.755   4.876   9.891  2.2688  0.7427 -0.9396
  780MOL0     H 5281   2.540   4.999   9.896  0.5861 -1.7387  0.5236
  780MOL0     H 5282   2.405   5.547   9.705  0.2637  1.1150  1.0428
  780MOL0     H 5283   2.183   5.654   9.701 -1.3877 -1.4280 -0.9152
  780MOL0     H 5284   2.235   4.315   9.372  0.4149  2.6044  0.7651
  780MOL0     H 5285   2.422   4.206   9.253 -1.3503 -0.8078  0.2292
  780MOL0     H 5286   2.907   4.039   9.365 -1.6562  1.1345 -0.4432
  780MOL0     H 5287   3.070   3.912   9.263  0.3205  1.4467  1.4435
  780MOL0     H 5288   3.214   3.777   9.107 -1.8842 -0.6044 -0.5057
  780MOL0     H 5289   3.272   3.939   9.153  2.0868  0.4274 -0.2612
  780MOL0     H 5290   3.460   3.862   9.043  0.6669  2.5960 -0.7659
  780MOL0     H 5291   3.389   3.954   8.924  0.1447  0.1513  0.1800
  780MOL0     H 5292   3.281   3.757   8.818  1.4234  0.1853 -0.3938
  780MOL0     H 5293   3.342   3.645   8.941  2.9516 -1.1882 -0.6519
  780MOL0     H 5294   3.582   3.734   8.860 -1.4671 -1.0714  2.2788
  780MOL0     H 5295   3.494   3.622   8.754  0.5871 -0.1787 -0.0400
  780MOL0     H 5296   3.424   3.945   8.501  0.2401  0.1800  0.9431
  780MOL0     H 5297   2.976   4.092   8.881  3.6972  0.2304  0.0021
  780MOL0     H 5298   2.783   4.214   8.863  3.8325  0.7049  0.2162
  780MOL0     H 5299   2.659   4.215   8.996 -1.2427  1.1210 -0.5829
  780MOL0     H 5300   2.784   4.346   8.989  1.5221 -1.2887  2.0470
  781MOL0     O 5301   9.881   3.631   9.996 -0.6321 -0.3236  0.1910
  781MOL0     C 5302   9.805   3.535   9.983  0.2831 -0.8153  0.7942
  781MOL0     O 5303   9.841   3.409   9.942 -0.3906 -0.6395 -0.8816
  781MOL0     C 5304   9.974   3.386   9.922 -0.1424  0.7874  0.3263
  781MOL0     C 5305  10.039   3.402   9.797  0.6793  0.5459  0.0157
  781MOL0     C 5306  10.174   3.364   9.786  0.3058 -0.0819  0.5500
  781MOL0     C 5307  10.250   3.311   9.890 -0.2853 -0.1383  0.4514
  781MOL0     O 5308  10.382   3.278   9.868 -0.7602  0.1682 -0.0711
  781MOL0     C 5309  10.477   3.306   9.971  0.7296  0.2006  0.7110
  781MOL0     C 5310  10.629   3.318   9.936 -0.4463  0.0357 -0.1094
  781MOL0     C 5311  10.697   3.439  10.013  0.4611 -0.3255  0.0082
  781MOL0     C 5312  10.834   3.456   9.960 -0.2004 -0.0015 -0.1368
  781MOL0     C 5313  10.908   3.589  10.003  0.5958 -0.3045  0.0099
  781MOL0     C 5314  10.833   3.723   9.961  0.8509 -0.1933 -0.3684
  781MOL0     C 5315  10.807   3.746   9.809  0.2343  0.4382 -0.2953
  781MOL0     C 5316  10.943   3.741   9.735 -0.1126 -0.0082  0.1395
  781MOL0     N 5317  11.038   3.852   9.770  0.5052  0.5695  0.4326
  781MOL0     C 5318  11.170   3.843   9.740  0.1900 -0.1548 -0.0351
  781MOL0     C 5319  11.223   3.965   9.751 -0.3241 -0.5915 -0.1821
  781MOL0     C 5320  11.370   4.005   9.724  0.1517 -0.0533  0.7759
  781MOL0     C 5321  11.445   4.031   9.850  0.2216 -0.2625 -0.0118
  781MOL0     C 5322  11.589   4.047   9.804 -0.1257  0.0441  0.0847
  781MOL0     C 5323  11.696   4.079   9.914 -0.2235  0.5296  0.0366
  781MOL0     O 5324  11.827   4.035   9.855  0.6096  0.3934 -0.5644
  781MOL0     C 5325  11.938   4.019   9.930 -0.2261  0.4420  0.0837
  781MOL0     C 5326  11.958   4.102  10.049 -0.7814 -0.0195  0.6950
  781MOL0     C 5327  12.076   4.095  10.123 -0.4090  0.4809  0.4700
  781MOL0     C 5328  12.181   4.009  10.079  0.3166  0.3211 -0.2875
  781MOL0     C 5329  12.309   4.006  10.154 -0.1788 -0.9878  0.0275
  781MOL0     O 5330  12.328   4.104  10.248 -0.4024 -0.2533  0.1070
  781MOL0     C 5331  12.445   4.090  10.318  0.5146  0.4166  0.0175
  781MOL0     C 5332  12.444   4.018  10.445 -0.1556  0.4729 -0.1192
  781MOL0     C 5333  12.558   4.009  10.522  0.6134 -0.0153  0.1359
  781MOL0     C 5334  12.680   4.066  10.484 -0.0405  0.7043 -0.3395
  781MOL0     O 5335  12.800   4.040  10.539  0.8715  0.3928 -0.0662
  781MOL0     C 5336  12.809   3.918  10.618 -0.0114 -0.1026 -0.2443
  781MOL0     C 5337  12.947   3.894  10.671  0.6812 -0.1236 -0.1747
  781MOL0     C 5338  13.037   3.804  10.588 -0.0129 -1.1951 -0.3713
  781MOL0     C 5339  13.188   3.812  10.626  0.1562 -0.4967 -0.3319
  781MOL0     C 5340  13.248   3.949  10.596  0.4082 -0.3907  0.5489
  781MOL0     C 5341  13.406   3.957  10.572  0.9464  0.6676  0.6829
  781MOL0     C 5342  13.482   3.897  10.448  0.0999 -0.4587  0.1089
  781MOL0     C 5343  13.592   3.986  10.393 -0.4088 -0.3335  0.5874
  781MOL0    Cl 5344  13.723   3.998  10.510  0.3194  0.3010  0.3127
  781MOL0     C 5345  12.684   4.130  10.368  0.5092  0.4945 -0.2349
  781MOL0     C 5346  12.570   4.149  10.288  0.7857  0.2596  0.4789
  781MOL0     O 5347  12.387   3.914  10.131 -0.2352 -0.6570 -0.1265
  781MOL0     C 5348  12.168   3.935   9.954  0.4523 -0.7514  0.1045
  781MOL0     C 5349  12.046   3.939   9.887 -0.5839 -0.1742 -0.2862
  781MOL0     N 5350  11.127   4.047   9.802  0.2462  0.1639  0.1194
  781MOL0     N 5351  11.017   3.981   9.805 -0.7385  0.0504  0.2362
  781MOL0     C 5352  10.189   3.308  10.013  0.5146  0.2147  0.1766
  781MOL0     C 5353  10.046   3.332  10.027 -0.0248  0.1868 -0.8952
  781MOL0     C 5354   9.654   3.562   9.992 -0.2863  0.1289 -0.9478
  781MOL0     C 5355   9.566   3.452  10.006  0.1287 -0.7924 -0.3277
  781MOL0     C 5356   9.430   3.475  10.018  0.2766  0.1312 -0.2466
  781MOL0     C 5357   9.373   3.594  10.019  0.5799 -0.3113  0.2620
  781MOL0     O 5358   9.237   3.592  10.019 -0.1514  0.5328  0.5113
  781MOL0     C 5359   9.170   3.717  10.018  0.7101 -0.1167 -0.2167
  781MOL0     C 5360   9.021   3.684  10.045  0.1170 -0.3694  0.6809
  781MOL0     C 5361   8.950   3.600   9.938 -1.0801 -0.3429  0.0557
  781MOL0     C 5362   8.810   3.562   9.977  0.1803  0.0326 -1.0773
  781MOL0     C 5363   8.801   3.500  10.114  0.2876 -0.5228  0.6905
  781MOL0     C 5364   8.791   3.476  10.228  0.0664  0.0735 -0.1008
  781MOL0     C 5365   9.456   3.704  10.011  0.1408 -0.1092  1.3208
  781MOL0     C 5366   9.604   3.697   9.995  0.3552  0.5283 -0.2078
  781MOL0     C 5367   9.684   3.825   9.982  0.1170  0.5347  0.3046
  781MOL0     H 5368   9.985   3.453   9.718  0.3118 -1.8910 -1.3978
  781MOL0     H 5369  10.229   3.376   9.693 -0.7218 -0.1152 -0.0715
  781MOL0     H 5370  10.446   3.397  10.024  2.0030  1.1262 -0.0800
  781MOL0     H 5371  10.471   3.235  10.054  0.7027 -1.0052 -0.2955
  781MOL0     H 5372  10.636   3.343   9.829  2.0204  1.4291  0.3160
  781MOL0     H 5373  10.675   3.220   9.954 -1.4817 -0.2529  1.0758
  781MOL0     H 5374  10.694   3.425  10.121  1.5329 -1.8328 -0.1271
  781MOL0     H 5375  10.636   3.526   9.986 -2.6413 -1.8132  1.5944
  781MOL0     H 5376  10.901   3.376   9.992  1.0677  1.0070 -0.1777
  781MOL0     H 5377  10.834   3.458   9.851 -0.6056  0.5907 -0.1354
  781MOL0     H 5378  10.919   3.602  10.111  0.7941  0.0052 -0.0444
  781MOL0     H 5379  11.007   3.590   9.955  0.0603  0.4129 -1.1423
  781MOL0     H 5380  10.739   3.729  10.016 -0.3251 -0.9431 -2.2109
  781MOL0     H 5381  10.893   3.806  10.001 -1.6965  0.3317  2.7592
  781MOL0     H 5382  10.751   3.838   9.793 -1.9166 -0.3301  1.9938
  781MOL0     H 5383  10.745   3.661   9.778 -0.2093  0.0146  1.6011
  781MOL0     H 5384  10.992   3.643   9.744  1.4361  0.6780 -0.5894
  781MOL0     H 5385  10.927   3.755   9.628 -2.2742  0.7909  0.5147
  781MOL0     H 5386  11.225   3.753   9.714  0.1671 -0.5096  1.0785
  781MOL0     H 5387  11.412   3.916   9.676  0.6440  1.1408 -1.0769
  781MOL0     H 5388  11.393   4.093   9.664 -0.5253 -1.4635 -1.6810
  781MOL0     H 5389  11.404   4.117   9.904  1.1442 -0.0365  0.3584
  781MOL0     H 5390  11.429   3.945   9.914  1.0187  0.7817  1.6720
  781MOL0     H 5391  11.598   4.123   9.725 -2.6446 -0.5046 -0.8273
  781MOL0     H 5392  11.620   3.951   9.763  1.7307 -1.0172  3.6316
  781MOL0     H 5393  11.671   4.024  10.006 -1.4125  1.0054  0.0161
  781MOL0     H 5394  11.686   4.184   9.941 -0.8482  0.0152  2.0074
  781MOL0     H 5395  11.883   4.179  10.069 -0.5758  0.0167  1.3450
  781MOL0     H 5396  12.073   4.144  10.220  0.1697  0.1237  0.6744
  781MOL0     H 5397  12.356   3.960  10.473  0.8492 -0.8831  0.3373
  781MOL0     H 5398  12.552   3.962  10.620 -0.5287  0.5514  0.3580
  781MOL0     H 5399  12.742   3.927  10.705 -0.6739 -2.7928 -0.3805
  781MOL0     H 5400  12.778   3.838  10.550  2.0037  0.1135 -1.4935
  781MOL0     H 5401  12.983   3.997  10.664 -1.3062  0.5106 -2.2919
  781MOL0     H 5402  12.954   3.860  10.775  0.8368 -0.2632 -0.2304
  781MOL0     H 5403  12.997   3.702  10.598  0.3351 -1.2898  0.0981
  781MOL0     H 5404  13.025   3.831  10.483 -1.5186  1.6642  0.4392
  781MOL0     H 5405  13.238   3.736  10.566  1.1959 -0.6921  0.7387
  781MOL0     H 5406  13.205   3.789  10.732  1.4517  0.3406 -0.3395
  781MOL0     H 5407  13.225   4.014  10.682  0.2099  1.1982 -0.6575
  781MOL0     H 5408  13.192   3.994  10.514  0.0071 -0.0643  0.9944
  781MOL0     H 5409  13.434   4.063  10.566 -0.9161  1.1884  0.4180
  781MOL0     H 5410  13.452   3.928  10.667  1.0604 -0.2601  0.3496
  781MOL0     H 5411  13.404   3.887  10.371 -0.9976 -1.3229  1.3047
  781MOL0     H 5412  13.532   3.802  10.465 -0.0792 -0.3035  1.6135
  781MOL0     H 5413  13.625   3.935  10.302  0.1609  2.7715 -1.0777
  781MOL0     H 5414  13.540   4.079  10.366  0.3382 -0.3786 -1.1632
  781MOL0     H 5415  12.782   4.170  10.343  0.0123  0.7442 -1.9208
  781MOL0     H 5416  12.583   4.210  10.199 -1.1354  2.2941  1.4763
  781MOL0     H 5417  12.242   3.865   9.917  1.5153  0.2648  0.2329
  781MOL0     H 5418  12.036   3.886   9.793 -0.2786 -1.2968  0.3048
  781MOL0     H 5419  10.248   3.271  10.096 -0.5388 -3.1241 -0.4106
  781MOL0     H 5420   9.994   3.319  10.122  1.0672 -2.1963 -0.5458
  781MOL0     H 5421   9.609   3.352  10.011  2.3315  0.0703 -0.7419
  781MOL0     H 5422   9.369   3.386  10.018  0.4552 -0.0490 -2.5546
  781MOL0     H 5423   9.184   3.763   9.920  2.2996  2.6696  1.2002
  781MOL0     H 5424   9.209   3.789  10.090  0.1373  0.0859 -0.0998
  781MOL0     H 5425   8.972   3.782  10.037  2.2979  0.6790 -0.8612
  781MOL0     H 5426   9.006   3.646  10.146 -1.1205  1.7178  1.3521
  781MOL0     H 5427   9.005   3.508   9.920 -1.8384 -1.4304  2.7779
  781MOL0     H 5428   8.944   3.664   9.849 -0.7571 -0.3169  0.0493
  781MOL0     H 5429   8.748   3.652   9.981  1.2518  0.7566 -0.2037
  781MOL0     H 5430   8.757   3.489   9.914  0.5571 -2.2395  1.0600
  781MOL0     H 5431   8.781   3.450  10.331  0.3701 -2.7254 -0.6915
  781MOL0     H 5432   9.418   3.805  10.004  1.3233  0.3093  0.5670
  781MOL0     H 5433   9.741   3.821   9.889 -3.0441  0.3369 -1.7738
  781MOL0     H 5434   9.619   3.913   9.973 -0.3975  0.1885  0.5887
  781MOL0     H 5435   9.741   3.838  10.075  0.8051  2.1641 -0.3153
  782MOL0     O 5436   9.516   2.927   4.493  0.5757 -0.1877 -0.2798
  782MOL0     C 5437   9.534   2.828   4.562 -0.1403 -0.2320  0.9634
  782MOL0     O 5438   9.645   2.797   4.631 -0.2991 -0.1371 -0.6074
  782MOL0     C 5439   9.771   2.854   4.635  0.4379 -1.0406  0.9188
  782MOL0     C 5440   9.861   2.815   4.729 -0.6846  0.0174  0.6019
  782MOL0     C 5441   9.987   2.870   4.740  1.2687 -0.0629  0.2497
  782MOL0     C 5442  10.028   2.975   4.662  0.8452  0.3615  0.6584
  782MOL0     O 5443  10.150   3.028   4.696 -0.1020 -0.1082  0.5028
  782MOL0     C 5444  10.167   3.162   4.660  0.6998  0.9416  0.3550
  782MOL0     C 5445  10.312   3.201   4.706  0.2616 -0.1977 -0.0491
  782MOL0     C 5446  10.417   3.114   4.631 -0.4302 -0.2292 -0.6931
  782MOL0     C 5447  10.563   3.156   4.674  0.3791 -0.2412 -0.6766
  782MOL0     C 5448  10.658   3.047   4.610 -0.3754  0.3814 -1.1155
  782MOL0     C 5449  10.800   3.087   4.627  0.5205  0.8451 -0.0646
  782MOL0     C 5450  10.893   2.969   4.591 -0.3280  0.5991 -0.3152
  782MOL0     C 5451  11.039   3.009   4.561 -0.1529 -0.7240  0.0021
  782MOL0     N 5452  11.127   3.012   4.685 -0.3074 -0.6998  0.6867
  782MOL0     C 5453  11.141   3.119   4.778 -0.3538 -0.2148 -0.1652
  782MOL0     C 5454  11.243   3.072   4.851  0.3028 -0.7814 -0.2899
  782MOL0     C 5455  11.319   3.148   4.955  0.2727  0.2826 -0.0010
  782MOL0     C 5456  11.263   3.157   5.092  0.1967  1.1467  0.6439
  782MOL0     C 5457  11.226   3.291   5.140 -0.3940  0.3220 -0.6063
  782MOL0     C 5458  11.129   3.362   5.045 -0.2205 -0.1239 -1.3936
  782MOL0     O 5459  11.005   3.292   5.031 -0.3814  0.2998 -0.0443
  782MOL0     C 5460  10.906   3.356   4.963 -0.7180  0.0367 -0.1196
  782MOL0     C 5461  10.780   3.309   4.970 -0.1243  0.0163 -0.6699
  782MOL0     C 5462  10.662   3.366   4.926 -0.5116  1.1478  0.3713
  782MOL0     C 5463  10.677   3.487   4.845  0.2800  0.1698 -0.1713
  782MOL0     C 5464  10.569   3.564   4.785 -1.1354  0.0947 -0.0223
  782MOL0     O 5465  10.598   3.695   4.747  0.2577  0.4877 -0.9556
  782MOL0     C 5466  10.500   3.766   4.682 -0.1568  0.4631  0.9386
  782MOL0     C 5467  10.414   3.837   4.756  0.0701 -0.4107 -0.4325
  782MOL0     C 5468  10.327   3.929   4.692 -0.0115 -0.0106 -0.2862
  782MOL0     C 5469  10.316   3.942   4.555  0.1591 -0.1587  0.5711
  782MOL0     O 5470  10.233   4.035   4.508  0.3632  0.0024 -0.7762
  782MOL0     C 5471  10.167   4.016   4.383 -0.4081 -0.4803  0.3564
  782MOL0     C 5472  10.067   3.900   4.388  0.8823 -0.3095 -0.6094
  782MOL0     C 5473   9.956   3.909   4.285  0.6040 -0.0150  0.5892
  782MOL0     C 5474  10.011   3.904   4.128  0.6603  0.0019 -0.1077
  782MOL0     C 5475  10.117   3.797   4.111 -0.2106  0.2769 -0.7286
  782MOL0     C 5476  10.127   3.758   3.969 -0.5788  1.0142 -0.0026
  782MOL0     C 5477  10.226   3.636   3.947  0.1055  0.1914 -0.5316
  782MOL0     C 5478  10.363   3.662   4.004 -1.1247  0.2804 -0.0588
  782MOL0    Cl 5479  10.472   3.531   3.975  0.1848  0.2284  0.3531
  782MOL0     C 5480  10.401   3.857   4.480  0.3192  0.3193 -0.0207
  782MOL0     C 5481  10.501   3.774   4.541 -0.1936  0.2214  0.9566
  782MOL0     O 5482  10.459   3.518   4.768  0.0625 -0.4738 -0.4949
  782MOL0     C 5483  10.804   3.532   4.828  0.3184 -0.2703 -0.6477
  782MOL0     C 5484  10.917   3.474   4.881  0.1681 -0.7365 -0.1034
  782MOL0     N 5485  11.291   2.961   4.816  0.5081 -0.2444  0.0348
  782MOL0     N 5486  11.218   2.918   4.717  0.6914 -0.0567 -0.0102
  782MOL0     C 5487   9.932   3.026   4.567  0.5986  0.1842 -0.2887
  782MOL0     C 5488   9.806   2.970   4.555 -0.0784  0.2258  0.4530
  782MOL0     C 5489   9.424   2.734   4.592  1.0270 -0.9542  0.5489
  782MOL0     C 5490   9.433   2.669   4.715 -0.1909 -0.4286 -0.4543
  782MOL0     C 5491   9.340   2.580   4.763 -0.0598 -0.3857  0.2522
  782MOL0     C 5492   9.218   2.567   4.696  0.4869  0.0363 -0.7606
  782MOL0     O 5493   9.114   2.496   4.756 -0.0914 -0.4902  0.0255
  782MOL0     C 5494   9.090   2.525   4.898 -1.0477 -0.0987  0.6594
  782MOL0     C 5495   8.962   2.451   4.943 -0.0968  0.7968 -0.1069
  782MOL0     C 5496   8.840   2.515   4.892  0.2617 -0.1267  1.3652
  782MOL0     C 5497   8.789   2.625   4.976  0.2301  0.0738 -0.5294
  782MOL0     C 5498   8.642   2.643   4.980 -0.8333  0.3091 -0.4712
  782MOL0     C 5499   8.525   2.643   4.971 -0.1810 -0.1951 -0.1381
  782MOL0     C 5500   9.199   2.635   4.576 -0.6254  0.2588 -0.4961
  782MOL0     C 5501   9.297   2.729   4.529  0.3487  0.5730 -0.3434
  782MOL0     C 5502   9.270   2.817   4.410 -0.3471  0.0022 -0.0711
  782MOL0     H 5503   9.827   2.730   4.788  1.0692  0.1313  1.8509
  782MOL0     H 5504  10.046   2.819   4.815 -2.1325 -1.8160  1.9831
  782MOL0     H 5505  10.151   3.170   4.552 -4.8972 -2.4239  0.5204
  782MOL0     H 5506  10.085   3.225   4.694 -0.8130  0.2734 -1.8414
  782MOL0     H 5507  10.304   3.187   4.814 -2.5949  0.5384 -0.0660
  782MOL0     H 5508  10.327   3.305   4.677 -0.9753 -0.3140 -1.2102
  782MOL0     H 5509  10.403   3.119   4.523  0.2916  0.1885 -0.7698
  782MOL0     H 5510  10.402   3.009   4.657 -4.0939  0.9788  3.1590
  782MOL0     H 5511  10.587   3.259   4.645  0.0473  0.5001  1.5178
  782MOL0     H 5512  10.573   3.155   4.783 -0.5378 -1.7244 -0.5713
  782MOL0     H 5513  10.637   2.950   4.655  0.8916  0.5993  0.0271
  782MOL0     H 5514  10.636   3.048   4.503 -0.8934 -1.2433 -1.0481
  782MOL0     H 5515  10.827   3.171   4.563 -0.4524  2.3320  1.3911
  782MOL0     H 5516  10.813   3.112   4.733  0.4850 -0.8691  0.3808
  782MOL0     H 5517  10.855   2.911   4.506  0.1702 -3.9071  2.1916
  782MOL0     H 5518  10.891   2.893   4.670 -0.8437  0.0464 -0.8442
  782MOL0     H 5519  11.082   2.935   4.493  1.6314  0.8866 -0.7064
  782MOL0     H 5520  11.044   3.112   4.524 -0.6146  0.1531  2.1970
  782MOL0     H 5521  11.082   3.210   4.785 -0.6286 -0.1092 -3.0168
  782MOL0     H 5522  11.418   3.102   4.964 -0.1844 -0.3559  2.8439
  782MOL0     H 5523  11.341   3.250   4.922  0.3949  0.4747  0.6524
  782MOL0     H 5524  11.175   3.094   5.104  0.8212  0.3442  1.1421
  782MOL0     H 5525  11.327   3.110   5.168 -0.0383 -3.1967 -1.5083
  782MOL0     H 5526  11.312   3.354   5.162  0.1234 -1.0415  1.5296
  782MOL0     H 5527  11.185   3.282   5.241  1.3475 -0.3197  0.0737
  782MOL0     H 5528  11.178   3.380   4.949 -0.9065  1.7736 -1.4283
  782MOL0     H 5529  11.112   3.459   5.093  1.4636 -1.0699  1.3387
  782MOL0     H 5530  10.777   3.223   5.036  0.6475  0.5006  0.0225
  782MOL0     H 5531  10.564   3.321   4.937  0.3608 -0.4728  2.2417
  782MOL0     H 5532  10.418   3.835   4.864 -0.8252 -2.2815 -0.3917
  782MOL0     H 5533  10.266   3.998   4.750 -0.3703  1.2011 -2.0273
  782MOL0     H 5534  10.113   4.109   4.366  0.7996  0.3643  0.9743
  782MOL0     H 5535  10.241   4.019   4.301  0.1864  0.8231  0.9225
  782MOL0     H 5536  10.124   3.808   4.370  0.0399 -0.4617 -2.9005
  782MOL0     H 5537  10.023   3.891   4.487  0.4302  0.9482 -0.6888
  782MOL0     H 5538   9.894   3.821   4.305  0.6921 -0.2742 -0.2451
  782MOL0     H 5539   9.891   3.996   4.296 -0.4003 -0.4099 -1.7761
  782MOL0     H 5540  10.047   4.002   4.095  0.2295  0.3637  0.4638
  782MOL0     H 5541   9.924   3.875   4.067  0.9628  1.3859 -1.2462
  782MOL0     H 5542  10.093   3.708   4.171  3.6160  0.2159  1.0333
  782MOL0     H 5543  10.213   3.830   4.151 -0.6980  2.6268 -1.3464
  782MOL0     H 5544  10.025   3.746   3.931 -1.2604  4.5479  0.3985
  782MOL0     H 5545  10.168   3.841   3.911  1.6042  0.8620  1.2110
  782MOL0     H 5546  10.232   3.624   3.838  3.3025  1.0665 -0.5247
  782MOL0     H 5547  10.181   3.545   3.988 -0.1499  0.2119 -0.7655
  782MOL0     H 5548  10.388   3.760   3.961 -3.0100  0.2287 -1.4190
  782MOL0     H 5549  10.361   3.682   4.111 -3.2595  1.1475 -0.2279
  782MOL0     H 5550  10.403   3.863   4.372 -0.7034  0.6031 -0.0371
  782MOL0     H 5551  10.568   3.712   4.483 -1.5312  0.7435 -1.2812
  782MOL0     H 5552  10.838   3.617   4.769  3.8568 -0.7286  0.4655
  782MOL0     H 5553  11.009   3.523   4.852  0.3874  0.6529  2.5514
  782MOL0     H 5554   9.950   3.116   4.508  0.8974 -0.9362 -1.9899
  782MOL0     H 5555   9.725   3.010   4.494  1.3998 -3.8221 -4.8721
  782MOL0     H 5556   9.520   2.671   4.780 -1.3754 -3.7463  1.4798
  782MOL0     H 5557   9.367   2.516   4.846 -0.7747  0.2497  0.9866
  782MOL0     H 5558   9.074   2.633   4.898 -1.8495 -0.1311  3.3930
  782MOL0     H 5559   9.179   2.497   4.956  1.9231  0.5917 -3.1787
  782MOL0     H 5560   8.958   2.434   5.051  1.9781 -2.3031 -0.3779
  782MOL0     H 5561   8.958   2.348   4.907  2.0860 -0.1815  2.1010
  782MOL0     H 5562   8.760   2.441   4.885 -1.0766  1.0114  3.4406
  782MOL0     H 5563   8.855   2.554   4.791  2.2698 -1.7367  0.9656
  782MOL0     H 5564   8.819   2.623   5.081  0.5556  0.2831 -0.6189
  782MOL0     H 5565   8.839   2.712   4.934 -1.0372  0.4376 -1.3515
  782MOL0     H 5566   8.419   2.657   4.969  0.0300  1.8550  0.3812
  782MOL0     H 5567   9.098   2.628   4.537 -1.7155  0.8103  2.0451
  782MOL0     H 5568   9.354   2.805   4.342 -0.7658 -0.7965 -0.4516
  782MOL0     H 5569   9.178   2.792   4.357  1.1635 -1.3894 -2.2005
  782MOL0     H 5570   9.271   2.922   4.443 -1.0628 -0.2734  0.8591
  783MOL0     O 5571  11.084   2.863   0.496 -0.2855 -0.6507  0.0639
  783MOL0     C 5572  11.082   2.741   0.483  0.1599 -0.8522 -0.4141
  783MOL0     O 5573  11.179   2.659   0.530 -1.0235 -0.1777 -0.3088
  783MOL0     C 5574  11.288   2.727   0.579  0.0474 -0.4044  0.7899
  783MOL0     C 5575  11.280   2.801   0.699 -0.0820 -0.1883 -0.5601
  783MOL0     C 5576  11.405   2.842   0.753 -0.2082  0.2996 -0.3136
  783MOL0     C 5577  11.530   2.814   0.694  0.3035 -0.1296  0.0054
  783MOL0     O 5578  11.635   2.865   0.764  0.4454 -1.0859 -0.0390
  783MOL0     C 5579  11.769   2.829   0.723  0.2071  0.4496  0.7871
  783MOL0     C 5580  11.867   2.879   0.825  0.4218  0.8785  0.4305
  783MOL0     C 5581  11.841   2.828   0.956 -0.0945 -0.1146  0.4395
  783MOL0     C 5582  11.953   2.867   1.062  0.0064 -0.4326 -0.6103
  783MOL0     C 5583  11.914   2.826   1.204  0.1972 -0.5608 -0.9654
  783MOL0     C 5584  12.028   2.791   1.296 -0.7898  0.4342 -0.4197
  783MOL0     C 5585  12.147   2.887   1.297  0.2240 -0.3190  0.1147
  783MOL0     C 5586  12.251   2.835   1.383  0.1059 -0.1096  0.3565
  783MOL0     N 5587  12.376   2.918   1.377 -0.0309  0.9605  0.0215
  783MOL0     C 5588  12.482   2.924   1.470 -0.5766 -0.4713  0.1191
  783MOL0     C 5589  12.587   2.973   1.400  0.0150  1.0478  0.6965
  783MOL0     C 5590  12.722   2.979   1.452 -0.4372 -0.6918  0.7105
  783MOL0     C 5591  12.746   3.106   1.543 -0.6051  0.6855  0.4589
  783MOL0     C 5592  12.839   3.069   1.656  0.1036 -0.1019  0.2555
  783MOL0     C 5593  12.772   3.018   1.779  0.2545 -0.5205  0.0906
  783MOL0     O 5594  12.866   3.015   1.890  0.5129 -0.8815  0.3388
  783MOL0     C 5595  12.978   2.948   1.892  0.3317  1.0773  0.3391
  783MOL0     C 5596  13.089   2.994   1.967 -0.3952 -0.0984  0.3342
  783MOL0     C 5597  13.209   2.924   1.975 -0.1726 -0.5481  0.3388
  783MOL0     C 5598  13.228   2.805   1.913 -0.2587  1.1502 -0.5979
  783MOL0     C 5599  13.359   2.722   1.920  0.7125  0.2481 -0.0325
  783MOL0     O 5600  13.466   2.780   1.982  0.0645  0.3026  0.1892
  783MOL0     C 5601  13.595   2.735   1.963  0.2386  0.8197 -0.2015
  783MOL0     C 5602  13.686   2.742   2.066  0.0225 -0.4269 -0.7507
  783MOL0     C 5603  13.809   2.683   2.056 -0.8120 -0.6714  0.0140
  783MOL0     C 5604  13.854   2.613   1.943  0.7028 -0.0142  0.1423
  783MOL0     O 5605  13.975   2.549   1.918  0.4068  0.0898  0.2895
  783MOL0     C 5606  14.058   2.529   2.034 -0.5495  0.1824 -1.0027
  783MOL0     C 5607  14.179   2.439   2.000 -0.0470 -0.4568  0.7032
  783MOL0     C 5608  14.129   2.309   1.935 -0.1246 -0.5789 -0.1822
  783MOL0     C 5609  14.212   2.185   1.966  0.8412 -0.0836  0.4593
  783MOL0     C 5610  14.355   2.217   1.923  0.0727 -0.3699  0.5208
  783MOL0     C 5611  14.425   2.091   1.867 -0.0736  0.3206  0.7147
  783MOL0     C 5612  14.487   2.010   1.984 -0.1136  0.1084  0.2413
  783MOL0     C 5613  14.389   1.939   2.083  0.6547  0.2954  0.1196
  783MOL0    Cl 5614  14.270   1.836   2.005 -0.0434  0.2091  0.2440
  783MOL0     C 5615  13.770   2.617   1.833  0.5802  0.3691  0.4266
  783MOL0     C 5616  13.642   2.684   1.842 -0.4975  1.0791 -0.2592
  783MOL0     O 5617  13.362   2.619   1.850 -0.1890  0.0460 -0.7383
  783MOL0     C 5618  13.118   2.750   1.847 -0.0537 -0.3925  0.4170
  783MOL0     C 5619  12.995   2.817   1.830 -0.2887 -0.3086  0.1870
  783MOL0     N 5620  12.539   3.018   1.279 -1.0289  0.0007 -0.3870
  783MOL0     N 5621  12.419   2.972   1.257  0.4163  0.6992 -0.3280
  783MOL0     C 5622  11.528   2.744   0.573  0.8812  0.2914  0.0092
  783MOL0     C 5623  11.408   2.710   0.514 -0.6021  0.0698 -0.4301
  783MOL0     C 5624  10.962   2.666   0.443  0.6493 -0.4544  0.3264
  783MOL0     C 5625  10.935   2.532   0.480 -0.3724  0.2052  0.2172
  783MOL0     C 5626  10.822   2.469   0.441  0.1495 -0.8230  0.2891
  783MOL0     C 5627  10.723   2.521   0.364  0.0162 -0.8416  0.7955
  783MOL0     O 5628  10.614   2.443   0.342 -0.2622 -0.1757  0.1337
  783MOL0     C 5629  10.494   2.509   0.305 -0.0721 -0.4176 -0.0321
  783MOL0     C 5630  10.400   2.399   0.266  1.0575 -0.3770  1.1379
  783MOL0     C 5631  10.283   2.476   0.208  0.7431 -0.3585 -0.4035
  783MOL0     C 5632  10.170   2.385   0.155 -0.5280 -0.4841 -0.0299
  783MOL0     C 5633  10.220   2.302   0.049  0.0125  0.1781 -0.5300
  783MOL0     C 5634  10.264   2.223  -0.028 -0.5389 -0.3487  0.3562
  783MOL0     C 5635  10.744   2.647   0.317 -0.9829 -0.4159 -0.5490
  783MOL0     C 5636  10.859   2.724   0.355  0.0453 -0.2790 -0.1084
  783MOL0     C 5637  10.863   2.875   0.303 -0.8829  0.3772 -0.8871
  783MOL0     H 5638  11.191   2.822   0.758  2.1847 -0.9393  3.4091
  783MOL0     H 5639  11.402   2.888   0.852 -0.7954  2.1698 -1.1429
  783MOL0     H 5640  11.777   2.720   0.714  1.4990  0.6290 -0.5188
  783MOL0     H 5641  11.796   2.877   0.629  1.3927  1.8445  1.7974
  783MOL0     H 5642  11.857   2.988   0.828  0.6706  0.9192 -0.0633
  783MOL0     H 5643  11.963   2.837   0.796 -0.5224 -0.3925 -1.0265
  783MOL0     H 5644  11.819   2.720   0.958 -1.3834  0.1219 -0.1469
  783MOL0     H 5645  11.748   2.877   0.987 -0.6507  0.8400 -2.4867
  783MOL0     H 5646  12.044   2.829   1.014  0.0883  1.2189 -1.8743
  783MOL0     H 5647  11.966   2.976   1.063  4.9744 -0.7563 -2.2667
  783MOL0     H 5648  11.862   2.910   1.252  0.1857 -0.9141 -0.3598
  783MOL0     H 5649  11.834   2.752   1.205  0.7393 -1.1634 -1.6269
  783MOL0     H 5650  11.986   2.782   1.396 -2.1534  1.3606 -0.8763
  783MOL0     H 5651  12.062   2.691   1.268 -0.5123  0.7722 -1.3492
  783MOL0     H 5652  12.116   2.988   1.325  0.5809 -0.4970  1.2104
  783MOL0     H 5653  12.189   2.908   1.198  1.8410 -0.8278  0.6474
  783MOL0     H 5654  12.200   2.828   1.480 -1.0232 -1.3245 -0.2905
  783MOL0     H 5655  12.274   2.731   1.357 -2.8701 -0.5992 -0.7077
  783MOL0     H 5656  12.494   2.907   1.577 -2.6944 -1.0590  0.3077
  783MOL0     H 5657  12.728   2.889   1.515  1.6905  1.2466  3.5243
  783MOL0     H 5658  12.784   2.976   1.363 -0.8512 -2.6638  0.4351
  783MOL0     H 5659  12.788   3.176   1.470 -0.8667 -0.2866 -0.6527
  783MOL0     H 5660  12.651   3.149   1.576 -1.6402 -1.1200 -0.0443
  783MOL0     H 5661  12.922   3.140   1.668  1.2767 -1.0785 -1.5658
  783MOL0     H 5662  12.895   2.985   1.615  1.7679  1.6141 -1.2150
  783MOL0     H 5663  12.712   2.927   1.768 -1.0475  0.5586 -2.4075
  783MOL0     H 5664  12.694   3.089   1.808  1.0013  2.5616 -4.4538
  783MOL0     H 5665  13.082   3.083   2.029 -2.6853  0.6811 -0.9320
  783MOL0     H 5666  13.286   2.956   2.043 -0.1282  1.8484 -0.7112
  783MOL0     H 5667  13.672   2.798   2.158  0.2855 -0.9127 -0.4066
  783MOL0     H 5668  13.865   2.690   2.148  0.6838 -0.2857 -0.8856
  783MOL0     H 5669  14.086   2.622   2.083  1.1568 -1.2387  0.9024
  783MOL0     H 5670  14.010   2.480   2.120 -0.4950 -0.7929 -1.5110
  783MOL0     H 5671  14.247   2.491   1.931  1.4324 -0.1792  2.3041
  783MOL0     H 5672  14.228   2.414   2.095  1.4470  1.7713  0.6154
  783MOL0     H 5673  14.025   2.295   1.966 -0.1914 -0.2854 -0.2649
  783MOL0     H 5674  14.129   2.328   1.827 -1.2527  0.1587 -0.0735
  783MOL0     H 5675  14.165   2.116   1.896  0.2239 -0.8485  1.5814
  783MOL0     H 5676  14.205   2.148   2.069 -0.7746 -0.3999  0.2615
  783MOL0     H 5677  14.408   2.275   1.999  0.4666 -2.4792  1.9413
  783MOL0     H 5678  14.343   2.276   1.832 -2.1989 -2.0236 -0.3438
  783MOL0     H 5679  14.360   2.038   1.797  1.8146 -0.9266 -0.1674
  783MOL0     H 5680  14.509   2.111   1.801 -1.6473  2.8128 -0.6884
  783MOL0     H 5681  14.546   2.084   2.038  1.7039 -0.2832 -1.1053
  783MOL0     H 5682  14.557   1.935   1.946 -0.5544 -0.9808  1.5069
  783MOL0     H 5683  14.453   1.874   2.144  0.0395 -0.4917 -0.0613
  783MOL0     H 5684  14.352   2.011   2.156  0.9597 -0.1413  0.7092
  783MOL0     H 5685  13.798   2.578   1.736  0.7887  0.5927  0.3961
  783MOL0     H 5686  13.591   2.678   1.747  0.2597 -1.2541 -0.5755
  783MOL0     H 5687  13.128   2.646   1.818  2.2644 -0.8180  2.3971
  783MOL0     H 5688  12.920   2.772   1.766 -2.1556 -0.4020  2.3669
  783MOL0     H 5689  11.616   2.723   0.514  1.2728  1.0540  0.3058
  783MOL0     H 5690  11.418   2.661   0.417  0.3428 -0.3025 -0.1518
  783MOL0     H 5691  10.999   2.487   0.554  3.6840  1.2184 -2.3219
  783MOL0     H 5692  10.790   2.370   0.474  1.5680 -1.0317  1.1395
  783MOL0     H 5693  10.520   2.578   0.224  1.9364 -1.3771 -0.2501
  783MOL0     H 5694  10.453   2.556   0.395  0.5835  1.3632 -0.6225
  783MOL0     H 5695  10.368   2.333   0.348  0.4528 -2.0566 -0.3744
  783MOL0     H 5696  10.433   2.340   0.180  1.6968  0.5603  0.7249
  783MOL0     H 5697  10.319   2.554   0.141 -0.5049  0.3643 -0.2618
  783MOL0     H 5698  10.247   2.533   0.295 -1.8916 -0.7533 -1.1549
  783MOL0     H 5699  10.129   2.325   0.237 -1.9609  1.2982  0.6309
  783MOL0     H 5700  10.100   2.455   0.109  0.1065  0.2400  0.0673
  783MOL0     H 5701  10.284   2.156  -0.109 -0.2384 -0.0973  0.2172
  783MOL0     H 5702  10.672   2.701   0.256  0.5362 -2.8140 -4.9983
  783MOL0     H 5703  10.962   2.881   0.256 -0.2424 -2.3263 -0.0819
  783MOL0     H 5704  10.783   2.879   0.228 -2.9145 -3.1568  0.8097
  783MOL0     H 5705  10.857   2.949   0.383 -0.1061  1.3190 -1.6740
  784MOL0     O 5706   1.348   1.301   1.847 -0.0498  0.3207 -0.1644
  784MOL0     C 5707   1.330   1.385   1.760 -0.5741 -0.1296 -0.2347
  784MOL0     O 5708   1.422   1.413   1.665  0.6030  0.3156  0.1107
  784MOL0     C 5709   1.554   1.409   1.709 -0.3732  0.0232  0.2430
  784MOL0     C 5710   1.650   1.352   1.630  0.0993  0.3242  0.8754
  784MOL0     C 5711   1.781   1.334   1.672 -0.5130 -0.5900  0.1946
  784MOL0     C 5712   1.829   1.377   1.795 -0.1352 -0.2720 -1.1805
  784MOL0     O 5713   1.961   1.361   1.834 -0.0415 -0.3260 -0.3802
  784MOL0     C 5714   1.993   1.349   1.979  0.0004 -0.8582  0.1952
  784MOL0     C 5715   2.098   1.243   1.995 -0.1617  0.6134  0.9634
  784MOL0     C 5716   2.187   1.245   2.126 -0.9036  0.2081  0.1778
  784MOL0     C 5717   2.317   1.163   2.100  0.7206 -0.4082  0.5349
  784MOL0     C 5718   2.431   1.256   2.100 -0.6392 -0.0845  0.6443
  784MOL0     C 5719   2.551   1.176   2.042 -1.1513 -0.2488 -0.5499
  784MOL0     C 5720   2.681   1.256   2.042 -0.2096 -0.2721  0.0620
  784MOL0     C 5721   2.797   1.174   1.998 -0.0682 -0.1988  1.0049
  784MOL0     N 5722   2.917   1.258   2.036  0.1901  0.8302 -0.3821
  784MOL0     C 5723   2.953   1.376   1.981 -0.4977  0.1865 -0.2560
  784MOL0     C 5724   3.077   1.406   2.038  0.1101 -0.1190  0.3189
  784MOL0     C 5725   3.163   1.518   2.011  0.4243  0.7413  0.1314
  784MOL0     C 5726   3.303   1.463   1.960 -0.0535 -0.0199 -0.1388
  784MOL0     C 5727   3.402   1.582   1.947  1.2647 -1.0768  0.5759
  784MOL0     C 5728   3.523   1.561   1.858  0.2454  1.3775  1.0796
  784MOL0     O 5729   3.595   1.446   1.899  0.4382  0.3390 -0.0256
  784MOL0     C 5730   3.727   1.442   1.884 -0.8059  0.2439  0.2075
  784MOL0     C 5731   3.812   1.546   1.889 -0.2284 -0.5255  0.3160
  784MOL0     C 5732   3.956   1.528   1.875  1.1281 -0.0972 -0.6952
  784MOL0     C 5733   4.009   1.396   1.862  0.1359 -0.0654 -0.0531
  784MOL0     C 5734   4.155   1.377   1.857 -0.0565  0.7673 -0.5682
  784MOL0     O 5735   4.208   1.245   1.847  0.5688 -0.1214  0.3842
  784MOL0     C 5736   4.344   1.237   1.845 -0.4312  0.1057 -0.1190
  784MOL0     C 5737   4.419   1.286   1.728 -0.7386  0.3168  0.2840
  784MOL0     C 5738   4.555   1.245   1.712 -0.1222 -0.0024 -0.1827
  784MOL0     C 5739   4.621   1.182   1.818  0.7243 -0.9945  0.2601
  784MOL0     O 5740   4.754   1.160   1.800  0.1281 -0.2291  0.3231
  784MOL0     C 5741   4.795   1.031   1.829 -0.6664 -0.1196  0.0453
  784MOL0     C 5742   4.947   1.041   1.818  0.5078 -0.3364 -0.4005
  784MOL0     C 5743   5.027   0.940   1.892 -0.4879 -0.4765 -0.5299
  784MOL0     C 5744   5.177   0.973   1.872  0.0188  0.3249 -0.5510
  784MOL0     C 5745   5.257   0.895   1.974  0.2158  0.0879 -0.2759
  784MOL0     C 5746   5.405   0.929   1.986  0.1855 -0.0165 -0.0354
  784MOL0     C 5747   5.469   0.845   2.097 -0.7471 -0.4805  0.2888
  784MOL0     C 5748   5.626   0.827   2.070 -0.4534 -0.3694  0.2121
  784MOL0    Cl 5749   5.708   0.985   2.071  0.4198 -0.1545  0.0618
  784MOL0     C 5750   4.564   1.151   1.939  1.1423  0.6656  0.6916
  784MOL0     C 5751   4.422   1.169   1.951  0.3235 -0.2904 -0.4229
  784MOL0     O 5752   4.222   1.476   1.877  0.3470  0.4508  0.7291
  784MOL0     C 5753   3.916   1.290   1.852  0.8131 -0.7261 -0.1911
  784MOL0     C 5754   3.778   1.314   1.858  0.1229 -1.0556 -0.3468
  784MOL0     N 5755   3.100   1.306   2.136 -0.0847 -0.0124  0.1995
  784MOL0     N 5756   3.006   1.219   2.129  0.1836  0.5286  0.4168
  784MOL0     C 5757   1.729   1.429   1.881  0.3229 -0.7383  0.0170
  784MOL0     C 5758   1.598   1.451   1.835  0.7181 -0.0697  0.2815
  784MOL0     C 5759   1.204   1.466   1.765  0.2376 -0.1356  0.1183
  784MOL0     C 5760   1.216   1.600   1.719  0.5985 -0.2486 -0.1417
  784MOL0     C 5761   1.101   1.682   1.711  0.4642 -1.0661 -0.5394
  784MOL0     C 5762   0.976   1.636   1.741  0.1496 -0.3550 -0.7688
  784MOL0     O 5763   0.872   1.726   1.738  0.0956 -0.3774 -0.1455
  784MOL0     C 5764   0.740   1.687   1.757 -1.1218 -0.4766  0.8329
  784MOL0     C 5765   0.648   1.814   1.738  0.1912 -0.0506  1.0382
  784MOL0     C 5766   0.503   1.781   1.775 -0.2025  1.2022 -0.1626
  784MOL0     C 5767   0.413   1.887   1.713 -0.7209 -0.6879  0.6806
  784MOL0     C 5768   0.272   1.879   1.733 -1.1577  0.3079 -0.9729
  784MOL0     C 5769   0.159   1.873   1.773 -0.3465  0.2711 -0.2487
  784MOL0     C 5770   0.959   1.500   1.781 -0.1329 -0.1833  0.0828
  784MOL0     C 5771   1.077   1.415   1.791 -0.1102  0.4881  0.1933
  784MOL0     C 5772   1.063   1.271   1.849 -0.2842  0.1867 -0.4984
  784MOL0     H 5773   1.627   1.318   1.530 -0.8474  2.3121  0.3590
  784MOL0     H 5774   1.846   1.278   1.605  1.5527  2.4225 -0.5325
  784MOL0     H 5775   2.016   1.448   2.021 -0.9674 -0.6748  0.3181
  784MOL0     H 5776   1.905   1.309   2.029  0.7013 -0.7868  1.5486
  784MOL0     H 5777   2.167   1.237   1.910  2.2976  0.6472  2.8391
  784MOL0     H 5778   2.040   1.150   1.992  1.4987 -0.4789 -2.4095
  784MOL0     H 5779   2.135   1.204   2.212  0.8333 -0.9874  0.7246
  784MOL0     H 5780   2.207   1.349   2.154 -0.0397  0.0680  0.1276
  784MOL0     H 5781   2.313   1.086   2.178 -3.0972 -0.3393  0.6297
  784MOL0     H 5782   2.318   1.123   1.998 -0.5355  2.1862 -0.6020
  784MOL0     H 5783   2.411   1.339   2.032  1.4703  0.9663  1.2111
  784MOL0     H 5784   2.437   1.305   2.198 -1.3340  3.1472 -0.7812
  784MOL0     H 5785   2.557   1.075   2.084 -0.0029 -0.6880 -1.6857
  784MOL0     H 5786   2.529   1.147   1.939 -1.9126 -1.2670 -0.1133
  784MOL0     H 5787   2.697   1.284   2.147  1.6487  0.5814 -0.4143
  784MOL0     H 5788   2.657   1.337   1.973 -2.0955 -2.5887 -2.2153
  784MOL0     H 5789   2.807   1.077   2.048  1.8820  0.1814  1.4544
  784MOL0     H 5790   2.799   1.157   1.890  1.0234 -1.0650  1.1403
  784MOL0     H 5791   2.897   1.427   1.904 -1.7217 -2.3072 -1.1394
  784MOL0     H 5792   3.116   1.588   1.942 -1.7043 -0.9946 -0.2943
  784MOL0     H 5793   3.171   1.564   2.110 -2.3593 -2.3202  1.9887
  784MOL0     H 5794   3.350   1.396   2.033 -0.5687 -1.6740 -1.2605
  784MOL0     H 5795   3.296   1.401   1.870 -2.5831 -0.7325  0.4745
  784MOL0     H 5796   3.436   1.610   2.047  0.4762  2.9893 -0.1158
  784MOL0     H 5797   3.354   1.671   1.906  3.3224 -0.9234 -1.7466
  784MOL0     H 5798   3.587   1.650   1.855  4.0449 -1.1308 -0.9322
  784MOL0     H 5799   3.478   1.544   1.760 -0.3544 -2.6135  1.8961
  784MOL0     H 5800   3.778   1.646   1.914  0.4951 -0.0032 -0.6947
  784MOL0     H 5801   4.021   1.615   1.881  0.1656  0.6303 -0.7103
  784MOL0     H 5802   4.371   1.327   1.640 -0.5603  1.6521  0.7756
  784MOL0     H 5803   4.614   1.259   1.622 -1.7042  1.2873 -1.0638
  784MOL0     H 5804   4.777   0.992   1.930 -0.3318 -1.0111 -0.2228
  784MOL0     H 5805   4.754   0.955   1.762  0.2873 -0.9429  0.3571
  784MOL0     H 5806   4.971   1.045   1.711  0.2789  0.3457 -0.4284
  784MOL0     H 5807   4.966   1.139   1.863  0.1116  1.0169 -2.9631
  784MOL0     H 5808   4.998   0.951   1.997 -1.7164  2.4895 -1.0540
  784MOL0     H 5809   5.016   0.836   1.860 -0.6374 -0.5027 -0.3957
  784MOL0     H 5810   5.201   1.079   1.884 -1.3348  0.7550 -1.4040
  784MOL0     H 5811   5.208   0.942   1.771  2.8673 -0.6130  0.4939
  784MOL0     H 5812   5.239   0.787   1.971 -1.2946  0.3214 -0.3988
  784MOL0     H 5813   5.208   0.926   2.067 -3.3742  0.1524 -2.0257
  784MOL0     H 5814   5.448   0.902   1.889 -0.1533 -0.9228  0.0601
  784MOL0     H 5815   5.421   1.037   1.996  0.0390  0.2231 -1.9622
  784MOL0     H 5816   5.429   0.743   2.102 -0.5111 -0.6638 -1.0814
  784MOL0     H 5817   5.450   0.888   2.196 -1.6825  1.5120 -0.6946
  784MOL0     H 5818   5.671   0.774   2.154 -1.5671  2.4779  2.7996
  784MOL0     H 5819   5.639   0.778   1.973  0.5699  2.8646 -1.4097
  784MOL0     H 5820   4.617   1.100   2.019  0.1601 -0.4674  0.6623
  784MOL0     H 5821   4.369   1.132   2.038  0.2621 -2.2553 -1.2485
  784MOL0     H 5822   3.951   1.188   1.840  1.2782 -0.5802 -0.0862
  784MOL0     H 5823   3.710   1.232   1.837 -3.5708  2.0709 -2.0572
  784MOL0     H 5824   1.743   1.457   1.985 -2.2820  2.8709 -0.4230
  784MOL0     H 5825   1.515   1.484   1.897 -0.0206 -0.3756 -0.5260
  784MOL0     H 5826   1.313   1.633   1.683  1.4293 -2.2479  0.1477
  784MOL0     H 5827   1.114   1.786   1.683 -0.1640  0.8145  4.9723
  784MOL0     H 5828   0.733   1.660   1.863 -0.7270  0.6168  1.1602
  784MOL0     H 5829   0.724   1.598   1.697  1.0987 -0.1591 -0.3571
  784MOL0     H 5830   0.659   1.850   1.635  2.7264  0.9200  1.5788
  784MOL0     H 5831   0.683   1.885   1.813  3.2443 -2.4439  2.1030
  784MOL0     H 5832   0.489   1.767   1.883  1.5442 -0.5532 -0.1096
  784MOL0     H 5833   0.485   1.686   1.725  2.9168  1.3176 -1.7667
  784MOL0     H 5834   0.447   1.983   1.753  2.1173 -2.3565  2.6530
  784MOL0     H 5835   0.446   1.887   1.609 -0.2762 -0.9622  0.8188
  784MOL0     H 5836   0.056   1.861   1.797 -1.5008  3.8951 -2.5502
  784MOL0     H 5837   0.867   1.454   1.814  0.2245 -0.7323  0.3446
  784MOL0     H 5838   1.111   1.186   1.801  2.1762 -1.3316  4.0730
  784MOL0     H 5839   1.108   1.276   1.948  0.1720  1.5821 -0.7456
  784MOL0     H 5840   0.956   1.255   1.862 -0.6817  1.0042 -2.3880
  785MOL0     O 5841   9.771   0.110   0.720 -0.0525 -0.3544 -0.3352
  785MOL0     C 5842   9.764   0.010   0.799 -0.7699 -0.8294 -0.4867
  785MOL0     O 5843   9.851  -0.011   0.907 -0.0914 -1.1780 -0.6835
  785MOL0     C 5844   9.965   0.055   0.912 -0.3538 -0.5762  0.2317
  785MOL0     C 5845   9.992   0.143   1.020 -0.1138 -0.4326  0.2274
  785MOL0     C 5846  10.115   0.216   1.026 -0.4890 -0.0150 -0.0157
  785MOL0     C 5847  10.214   0.186   0.931  0.2660  0.5810  0.1749
  785MOL0     O 5848  10.341   0.240   0.940  0.3525 -0.1998  0.4217
  785MOL0     C 5849  10.394   0.275   1.071  0.2911  0.3527 -0.1133
  785MOL0     C 5850  10.551   0.272   1.076  0.2913  0.3068  0.6695
  785MOL0     C 5851  10.593   0.421   1.079  0.1756  0.2839  0.1625
  785MOL0     C 5852  10.751   0.413   1.054 -0.3161  0.1021  0.4272
  785MOL0     C 5853  10.803   0.551   1.017 -0.1666  0.1358  0.6486
  785MOL0     C 5854  10.956   0.543   1.011  1.4313 -1.1962  0.0264
  785MOL0     C 5855  11.017   0.668   0.953 -0.2753  0.0671 -1.3293
  785MOL0     C 5856  11.168   0.673   0.982  0.1629 -0.1684 -0.1252
  785MOL0     N 5857  11.230   0.784   0.916 -0.2890 -0.2501 -0.2233
  785MOL0     C 5858  11.204   0.911   0.952 -0.0724 -0.1691  0.4647
  785MOL0     C 5859  11.263   1.001   0.866  0.7663  0.0376 -0.0083
  785MOL0     C 5860  11.262   1.150   0.863 -0.3211  0.5642 -0.0867
  785MOL0     C 5861  11.405   1.208   0.905  0.3878  0.5896 -0.7073
  785MOL0     C 5862  11.401   1.356   0.866  0.0636  0.2137 -0.6109
  785MOL0     C 5863  11.538   1.434   0.879 -0.3884 -0.7959 -0.5549
  785MOL0     O 5864  11.604   1.416   0.758 -0.1379 -0.2857  0.0916
  785MOL0     C 5865  11.731   1.466   0.753 -0.8481  0.5992 -0.1924
  785MOL0     C 5866  11.818   1.475   0.862 -0.2896  0.2002  0.4536
  785MOL0     C 5867  11.952   1.524   0.849  1.0353  0.7488  0.8186
  785MOL0     C 5868  11.995   1.547   0.712 -0.0056 -0.0069  0.1233
  785MOL0     C 5869  12.137   1.599   0.690 -0.0544  0.5097 -0.2344
  785MOL0     O 5870  12.192   1.665   0.800 -0.1622  0.4691 -0.4976
  785MOL0     C 5871  12.326   1.702   0.788  0.2519 -0.4439 -0.2477
  785MOL0     C 5872  12.360   1.814   0.716  0.0288  0.1955 -0.3004
  785MOL0     C 5873  12.494   1.848   0.699 -0.4240  0.8021  0.5886
  785MOL0     C 5874  12.600   1.778   0.767  0.2405 -0.3824 -0.0271
  785MOL0     O 5875  12.729   1.821   0.770 -0.5749  0.2744  0.4334
  785MOL0     C 5876  12.744   1.957   0.746 -1.0221 -0.4755  0.0835
  785MOL0     C 5877  12.895   1.998   0.741 -0.3364 -0.7987  1.2158
  785MOL0     C 5878  12.975   1.932   0.628  0.4411  0.1809 -1.2896
  785MOL0     C 5879  13.120   1.981   0.619  0.4757  0.8367  0.2704
  785MOL0     C 5880  13.206   1.904   0.519  0.2265  0.1186 -0.6967
  785MOL0     C 5881  13.357   1.944   0.524  0.4581 -0.2218  0.2060
  785MOL0     C 5882  13.454   1.897   0.416 -0.0094 -0.1870 -0.1107
  785MOL0     C 5883  13.598   1.892   0.472 -0.2619  0.0455 -0.2896
  785MOL0    Cl 5884  13.638   1.748   0.556  0.1070  0.2157  0.0315
  785MOL0     C 5885  12.559   1.666   0.837 -0.1176 -0.5413 -0.0776
  785MOL0     C 5886  12.424   1.638   0.859  0.4158 -0.2720  0.6027
  785MOL0     O 5887  12.187   1.571   0.579  0.4225  0.1234  0.0297
  785MOL0     C 5888  11.906   1.533   0.603 -0.1788 -0.1755 -0.3185
  785MOL0     C 5889  11.769   1.502   0.623 -0.2251  0.1855 -0.0316
  785MOL0     N 5890  11.327   0.920   0.778 -0.9225 -0.5043 -0.8385
  785MOL0     N 5891  11.311   0.793   0.811 -0.3883  0.0490  0.4809
  785MOL0     C 5892  10.190   0.095   0.832 -0.0690 -0.6161  0.2693
  785MOL0     C 5893  10.064   0.034   0.815  0.2144  0.0813 -1.0459
  785MOL0     C 5894   9.643  -0.069   0.817  0.2318  1.2438  0.4494
  785MOL0     C 5895   9.611  -0.143   0.934  0.2324 -0.8095  0.0098
  785MOL0     C 5896   9.490  -0.211   0.949 -0.1645  0.4285 -0.0203
  785MOL0     C 5897   9.400  -0.224   0.842  0.3597  0.4212 -0.0939
  785MOL0     O 5898   9.277  -0.293   0.857  0.7557 -0.3282 -0.6739
  785MOL0     C 5899   9.184  -0.276   0.748  0.6088  0.5104  0.4790
  785MOL0     C 5900   9.041  -0.345   0.771 -0.5209 -0.1245  0.1576
  785MOL0     C 5901   9.047  -0.488   0.828  0.2678  0.2049  0.8129
  785MOL0     C 5902   9.141  -0.581   0.752  0.3280 -0.6419  0.3690
  785MOL0     C 5903   9.155  -0.723   0.795 -0.4362 -0.7777 -0.6930
  785MOL0     C 5904   9.162  -0.825   0.839  0.0952 -0.1939 -0.3193
  785MOL0     C 5905   9.426  -0.155   0.728 -0.8139 -0.2757  0.2874
  785MOL0     C 5906   9.539  -0.072   0.715  0.8903 -0.0876 -0.4770
  785MOL0     C 5907   9.553   0.004   0.585  0.5891 -0.0881 -0.7553
  785MOL0     H 5908   9.924   0.159   1.103 -0.0620  1.3307 -0.0285
  785MOL0     H 5909  10.131   0.280   1.113 -0.7009 -0.5488  0.4235
  785MOL0     H 5910  10.350   0.372   1.097  1.0592  0.4518  0.8966
  785MOL0     H 5911  10.369   0.206   1.152  0.3244  0.5888  0.0983
  785MOL0     H 5912  10.594   0.217   0.992  0.8289  1.3942  0.2028
  785MOL0     H 5913  10.586   0.218   1.165  1.2608  0.7897  0.5960
  785MOL0     H 5914  10.556   0.471   1.168 -2.5302 -1.2877  0.0152
  785MOL0     H 5915  10.541   0.456   0.990 -0.5385 -1.2599 -0.0706
  785MOL0     H 5916  10.786   0.367   1.147 -0.0675 -0.3830  0.0962
  785MOL0     H 5917  10.785   0.346   0.974  0.4235 -0.6687  1.3520
  785MOL0     H 5918  10.768   0.580   0.918  2.1503  1.4151  0.1253
  785MOL0     H 5919  10.768   0.627   1.088 -1.7405 -2.2891  2.6688
  785MOL0     H 5920  10.991   0.522   1.112  1.8600 -0.0096  0.1333
  785MOL0     H 5921  10.985   0.458   0.948  2.6172 -0.2218 -0.7843
  785MOL0     H 5922  10.974   0.750   1.011 -1.7370 -0.9443 -0.9345
  785MOL0     H 5923  11.011   0.681   0.845 -1.8527  3.1332 -0.9717
  785MOL0     H 5924  11.186   0.693   1.088  1.9159  3.0318 -0.9124
  785MOL0     H 5925  11.213   0.575   0.960 -1.1541 -0.9774  0.6178
  785MOL0     H 5926  11.151   0.940   1.042  1.0976  1.1057  0.7813
  785MOL0     H 5927  11.238   1.184   0.762  2.7863  0.0452 -1.1078
  785MOL0     H 5928  11.182   1.187   0.928 -1.7781  0.8712 -1.9905
  785MOL0     H 5929  11.423   1.187   1.011  2.0208  1.1408 -0.8476
  785MOL0     H 5930  11.484   1.157   0.848 -0.4804 -0.0691 -1.3496
  785MOL0     H 5931  11.333   1.391   0.944  0.8741  0.2282  0.1112
  785MOL0     H 5932  11.370   1.365   0.762 -1.3958 -2.3227 -0.4819
  785MOL0     H 5933  11.589   1.386   0.963 -0.0743 -2.1424 -1.4700
  785MOL0     H 5934  11.507   1.538   0.893 -3.3063 -1.5176 -0.9619
  785MOL0     H 5935  11.787   1.453   0.964  0.7973 -0.5330  0.6412
  785MOL0     H 5936  11.999   1.534   0.946  1.2474  0.7735  0.7161
  785MOL0     H 5937  12.281   1.874   0.672 -0.1200 -0.1014 -0.4414
  785MOL0     H 5938  12.498   1.935   0.635 -0.1475  0.3941  0.0441
  785MOL0     H 5939  12.700   1.996   0.653 -0.4066  0.8904  0.3456
  785MOL0     H 5940  12.696   2.017   0.824 -3.3008 -1.7100 -0.2745
  785MOL0     H 5941  12.920   2.101   0.713 -0.7760 -1.3065 -1.3054
  785MOL0     H 5942  12.943   1.975   0.837  2.7131  0.7920  0.2423
  785MOL0     H 5943  12.979   1.824   0.644 -1.4499  0.1268 -1.0098
  785MOL0     H 5944  12.922   1.953   0.535 -2.8330  0.2970  0.4529
  785MOL0     H 5945  13.163   1.972   0.719  1.9780 -3.8227 -0.5749
  785MOL0     H 5946  13.114   2.085   0.584 -0.8044  0.4747 -0.6370
  785MOL0     H 5947  13.157   1.916   0.422  0.5592 -0.9468 -1.0055
  785MOL0     H 5948  13.195   1.796   0.536  2.8619 -0.1947 -0.6499
  785MOL0     H 5949  13.361   2.054   0.526 -2.4257  0.0123  4.0717
  785MOL0     H 5950  13.400   1.902   0.616 -0.9535  1.7583  1.8564
  785MOL0     H 5951  13.448   1.962   0.328 -1.2268 -2.4915 -1.8394
  785MOL0     H 5952  13.423   1.796   0.390  1.5267 -1.3573  2.2885
  785MOL0     H 5953  13.680   1.919   0.405 -0.9745 -0.2187 -1.2843
  785MOL0     H 5954  13.615   1.978   0.538  3.8483  1.2957 -2.6481
  785MOL0     H 5955  12.623   1.598   0.892 -0.3845 -0.7555 -0.0307
  785MOL0     H 5956  12.383   1.549   0.906 -1.6103 -0.3614 -1.1261
  785MOL0     H 5957  11.936   1.541   0.499 -1.9615 -0.1872 -0.8732
  785MOL0     H 5958  11.689   1.504   0.549 -1.4008  0.0214  1.2096
  785MOL0     H 5959  10.276   0.068   0.771 -0.1964  0.0013 -0.1816
  785MOL0     H 5960  10.053  -0.037   0.733  0.9539 -0.2059 -0.9014
  785MOL0     H 5961   9.686  -0.148   1.012 -0.3705  1.1942  0.8021
  785MOL0     H 5962   9.455  -0.275   1.030  0.0248 -0.3418 -0.5361
  785MOL0     H 5963   9.219  -0.317   0.653  0.0415 -3.0233  1.6634
  785MOL0     H 5964   9.167  -0.175   0.710 -2.5229 -0.5715 -1.4144
  785MOL0     H 5965   8.980  -0.336   0.681  0.6423 -3.2478 -1.0708
  785MOL0     H 5966   8.991  -0.281   0.845  0.5143  1.4489 -0.4562
  785MOL0     H 5967   8.946  -0.528   0.816  1.0668 -1.0488 -3.1087
  785MOL0     H 5968   9.072  -0.483   0.935 -0.1905  2.2663  0.8691
  785MOL0     H 5969   9.121  -0.590   0.645  3.4015 -2.1663 -0.2212
  785MOL0     H 5970   9.244  -0.544   0.758  0.6123 -1.4869  0.8531
  785MOL0     H 5971   9.168  -0.927   0.872 -0.9997 -0.1069  0.1674
  785MOL0     H 5972   9.376  -0.174   0.633  1.4915 -1.0369 -0.8633
  785MOL0     H 5973   9.519   0.107   0.599 -0.3679 -0.6768  1.8250
  785MOL0     H 5974   9.656   0.008   0.551  0.7620 -2.8589 -0.7687
  785MOL0     H 5975   9.489  -0.041   0.509  3.1592 -1.9699 -1.9483
  786MOL0     O 5976   9.016   4.866   7.415  0.5690 -0.0256 -0.2434
  786MOL0     C 5977   9.008   4.829   7.302  0.8532  0.4748 -0.4708
  786MOL0     O 5978   9.108   4.828   7.212  0.0938 -0.1698 -0.0987
  786MOL0     C 5979   9.236   4.812   7.267 -0.2720  0.1814  0.7270
  786MOL0     C 5980   9.292   4.912   7.340 -0.7332 -0.2920 -0.1242
  786MOL0     C 5981   9.413   4.890   7.401  0.5087 -0.6236  0.6219
  786MOL0     C 5982   9.472   4.771   7.396 -0.4078 -0.6564  0.2674
  786MOL0     O 5983   9.593   4.751   7.451 -0.3121  0.3715  0.4276
  786MOL0     C 5984   9.674   4.642   7.414  0.5726  0.1564 -0.2093
  786MOL0     C 5985   9.815   4.658   7.457  0.7663 -0.6188  0.4818
  786MOL0     C 5986   9.896   4.765   7.377  0.6510  0.2053  0.1905
  786MOL0     C 5987   9.842   4.903   7.392 -0.1859  0.0413 -0.6292
  786MOL0     C 5988   9.942   5.017   7.371  0.4004  0.7127 -0.1603
  786MOL0     C 5989   9.875   5.151   7.342  0.3899  0.3810 -0.7142
  786MOL0     C 5990   9.954   5.281   7.385  0.3872  0.5094 -0.3446
  786MOL0     C 5991   9.897   5.413   7.330 -0.1377  0.6112  0.0925
  786MOL0     N 5992   9.982   5.525   7.366 -0.1002  0.8960 -0.1177
  786MOL0     C 5993  10.010   5.551   7.499  0.3690  0.3412 -0.3827
  786MOL0     C 5994  10.113   5.643   7.491  0.8799  0.2848  0.1808
  786MOL0     C 5995  10.172   5.729   7.596  0.3129  0.4189 -0.5648
  786MOL0     C 5996  10.256   5.644   7.685 -0.3684 -0.1743  0.6581
  786MOL0     C 5997  10.353   5.558   7.612  0.0234 -0.2286  0.5232
  786MOL0     C 5998  10.454   5.639   7.528  0.2868  0.3586  0.4061
  786MOL0     O 5999  10.553   5.541   7.488  0.6933  0.1125 -0.0775
  786MOL0     C 6000  10.670   5.554   7.553  0.1338  0.0358  0.2433
  786MOL0     C 6001  10.696   5.621   7.679 -0.1284 -0.3776  0.1253
  786MOL0     C 6002  10.827   5.644   7.726  0.3794  0.2164 -0.3576
  786MOL0     C 6003  10.943   5.608   7.641  0.4773 -0.6612 -0.3810
  786MOL0     C 6004  11.076   5.639   7.687 -0.2775  0.0284  0.4886
  786MOL0     O 6005  11.104   5.694   7.810  0.3131 -0.2227  0.2300
  786MOL0     C 6006  11.223   5.696   7.865 -0.2693 -0.2350 -0.5184
  786MOL0     C 6007  11.307   5.591   7.851 -0.5440  0.0360 -0.0675
  786MOL0     C 6008  11.439   5.595   7.910  0.6971 -1.4549  0.7462
  786MOL0     C 6009  11.480   5.706   7.987 -0.1796  0.2431  0.4216
  786MOL0     O 6010  11.598   5.713   8.060  0.3446 -0.6202  0.2192
  786MOL0     C 6011  11.694   5.613   8.033 -0.7492 -0.0619  0.5331
  786MOL0     C 6012  11.816   5.638   8.127 -0.1953 -0.4985 -0.4728
  786MOL0     C 6013  11.931   5.538   8.116 -0.0397  0.3265  0.8769
  786MOL0     C 6014  12.036   5.559   8.222 -0.4021 -0.5273  0.0019
  786MOL0     C 6015  12.140   5.447   8.230 -0.1316  0.0838  0.8258
  786MOL0     C 6016  12.249   5.459   8.131  0.9810 -0.2495 -0.1304
  786MOL0     C 6017  12.366   5.364   8.166 -0.0773 -1.0658  0.4540
  786MOL0     C 6018  12.433   5.325   8.039 -0.0135  0.6380  0.5931
  786MOL0    Cl 6019  12.519   5.463   7.981  0.8022 -0.0434 -0.0198
  786MOL0     C 6020  11.387   5.810   8.008 -0.7490 -0.1730  0.1571
  786MOL0     C 6021  11.266   5.800   7.949  0.2331 -0.4999 -0.2565
  786MOL0     O 6022  11.164   5.601   7.605  0.4647  0.3657  0.6316
  786MOL0     C 6023  10.910   5.542   7.529  0.9224  0.0338 -0.1129
  786MOL0     C 6024  10.784   5.511   7.485  0.9217 -0.0414  0.5741
  786MOL0     N 6025  10.164   5.638   7.362 -0.1712  0.0197 -0.2035
  786MOL0     N 6026  10.091   5.567   7.291  0.5324  0.3372 -0.4939
  786MOL0     C 6027   9.398   4.668   7.339  0.3759  0.0849 -0.5091
  786MOL0     C 6028   9.284   4.680   7.268 -0.0267 -0.0075 -0.1538
  786MOL0     C 6029   8.872   4.798   7.247 -0.1401  0.1068 -0.0774
  786MOL0     C 6030   8.861   4.733   7.124  0.3540  0.3718  0.1941
  786MOL0     C 6031   8.739   4.700   7.060  0.0737 -0.3262 -0.3241
  786MOL0     C 6032   8.614   4.723   7.127 -0.7584 -0.1189 -0.0300
  786MOL0     O 6033   8.492   4.698   7.075 -0.1995 -0.5782  0.2974
  786MOL0     C 6034   8.465   4.791   6.964 -0.1556  0.9313 -0.7863
  786MOL0     C 6035   8.316   4.816   6.979  0.0187  0.0438 -0.1621
  786MOL0     C 6036   8.266   4.878   7.105  0.2091  0.0050 -0.8546
  786MOL0     C 6037   8.117   4.853   7.120 -1.3247 -0.1066 -0.2005
  786MOL0     C 6038   8.040   4.904   7.010 -0.5894 -0.2378 -0.4318
  786MOL0     C 6039   7.991   4.930   6.902  0.0624  0.9022  0.1361
  786MOL0     C 6040   8.624   4.783   7.254 -0.2747 -0.4502  0.1329
  786MOL0     C 6041   8.746   4.813   7.316 -0.2925 -0.6216 -0.6397
  786MOL0     C 6042   8.729   4.882   7.455  0.2535  0.6709  0.2054
  786MOL0     H 6043   9.246   5.010   7.337  1.0095  0.5728 -0.1986
  786MOL0     H 6044   9.455   4.967   7.464 -0.2898 -0.2505  0.7118
  786MOL0     H 6045   9.642   4.546   7.456 -2.3625  1.4170  0.6718
  786MOL0     H 6046   9.668   4.629   7.306 -1.1983  0.4352 -0.1705
  786MOL0     H 6047   9.853   4.556   7.453 -0.0204 -0.9285  0.6295
  786MOL0     H 6048   9.806   4.688   7.562 -0.1087  0.2457  0.1788
  786MOL0     H 6049   9.878   4.742   7.272 -0.2834  1.0102  0.1595
  786MOL0     H 6050  10.001   4.762   7.410  0.5511  0.5857  0.5606
  786MOL0     H 6051   9.767   4.921   7.315 -0.9546  0.3904  0.1765
  786MOL0     H 6052   9.796   4.915   7.491 -1.0033 -0.1829 -0.9753
  786MOL0     H 6053  10.008   5.018   7.458  0.2025 -0.8042  0.0178
  786MOL0     H 6054  10.006   4.995   7.284  0.8352  0.5645  0.1918
  786MOL0     H 6055   9.866   5.152   7.233 -1.7604  0.0292 -0.5919
  786MOL0     H 6056   9.773   5.139   7.381  0.5702 -2.0515 -0.8731
  786MOL0     H 6057  10.056   5.271   7.345 -0.5320  1.1384 -3.0531
  786MOL0     H 6058   9.972   5.296   7.492  2.8342  1.5312 -0.8206
  786MOL0     H 6059   9.887   5.411   7.221  2.0137 -1.5755 -0.1524
  786MOL0     H 6060   9.799   5.417   7.379 -0.5598 -2.8315 -0.2313
  786MOL0     H 6061   9.946   5.525   7.583  0.4855  1.5554  0.0939
  786MOL0     H 6062  10.229   5.813   7.556  0.0959 -0.0804 -1.9836
  786MOL0     H 6063  10.091   5.781   7.647 -0.5042  1.1340 -2.5118
  786MOL0     H 6064  10.310   5.701   7.761 -0.2125 -2.4972  2.3915
  786MOL0     H 6065  10.189   5.581   7.746 -1.0693 -1.5620 -1.4212
  786MOL0     H 6066  10.301   5.491   7.543 -0.7969  1.3041 -0.3938
  786MOL0     H 6067  10.405   5.498   7.687 -0.2266 -1.2262 -0.0900
  786MOL0     H 6068  10.484   5.726   7.588 -2.5710  0.6510  1.5886
  786MOL0     H 6069  10.400   5.681   7.442  0.5155 -0.2117 -0.0182
  786MOL0     H 6070  10.616   5.662   7.741  0.1856 -0.3537  0.5184
  786MOL0     H 6071  10.827   5.706   7.815 -1.3203  0.8635 -0.7704
  786MOL0     H 6072  11.279   5.501   7.796  3.1733 -0.5991 -1.2081
  786MOL0     H 6073  11.497   5.504   7.895  0.1624 -1.8663  1.1137
  786MOL0     H 6074  11.652   5.515   8.059  0.3850 -1.0502 -1.1538
  786MOL0     H 6075  11.740   5.619   7.934 -0.4253  0.6700  0.7227
  786MOL0     H 6076  11.858   5.736   8.102 -1.3105  0.7288  2.0617
  786MOL0     H 6077  11.765   5.645   8.224 -0.8804  3.9540 -0.9417
  786MOL0     H 6078  11.889   5.438   8.126 -0.2649  0.3091 -0.1243
  786MOL0     H 6079  11.978   5.561   8.021 -1.6148 -1.9447 -0.5517
  786MOL0     H 6080  11.990   5.576   8.319 -2.8303 -1.5679 -0.8968
  786MOL0     H 6081  12.092   5.650   8.195  1.9585 -0.4216  4.3393
  786MOL0     H 6082  12.085   5.352   8.229 -2.7521  1.4651 -1.2209
  786MOL0     H 6083  12.186   5.463   8.327  2.8775  0.2758 -0.5101
  786MOL0     H 6084  12.218   5.441   8.028  0.3437  2.7173 -0.5384
  786MOL0     H 6085  12.277   5.565   8.129 -1.3822  0.4583  0.8475
  786MOL0     H 6086  12.333   5.271   8.214  0.9213 -1.1623  0.9876
  786MOL0     H 6087  12.442   5.396   8.237  2.0072 -2.5270 -0.9929
  786MOL0     H 6088  12.501   5.241   8.058 -2.4944 -2.4484 -2.7374
  786MOL0     H 6089  12.360   5.284   7.969  1.0106 -1.7685  0.8086
  786MOL0     H 6090  11.427   5.891   8.068  3.0406 -0.6460 -1.4129
  786MOL0     H 6091  11.194   5.874   7.981 -0.9808 -0.7906 -2.1951
  786MOL0     H 6092  10.993   5.506   7.469  1.7686  3.5299 -1.3147
  786MOL0     H 6093  10.763   5.457   7.393 -0.3149  1.7260 -0.2391
  786MOL0     H 6094   9.445   4.570   7.345  1.1249  0.5041  0.9433
  786MOL0     H 6095   9.231   4.607   7.208 -1.1745  1.4871 -1.0385
  786MOL0     H 6096   8.956   4.709   7.077 -0.1335  0.1343 -0.6913
  786MOL0     H 6097   8.728   4.647   6.966 -2.6520  0.8456 -0.7869
  786MOL0     H 6098   8.485   4.739   6.870  0.7890 -1.4793  0.6467
  786MOL0     H 6099   8.522   4.883   6.981 -1.0247  1.0411  1.9740
  786MOL0     H 6100   8.274   4.716   6.964 -1.4934  0.7603 -0.9810
  786MOL0     H 6101   8.279   4.885   6.902  1.8722 -0.1064 -1.2499
  786MOL0     H 6102   8.293   4.983   7.103  0.3029 -0.0116 -2.7130
  786MOL0     H 6103   8.321   4.839   7.191  2.5900  2.0135 -1.3658
  786MOL0     H 6104   8.094   4.747   7.128 -4.2313  0.2517 -2.3892
  786MOL0     H 6105   8.085   4.901   7.213 -1.6295  1.3136 -1.0079
  786MOL0     H 6106   7.960   4.954   6.802  0.9949  0.8049 -0.1890
  786MOL0     H 6107   8.526   4.799   7.299 -0.9034 -3.0755 -0.1286
  786MOL0     H 6108   8.768   4.828   7.542  1.5159 -2.1671 -1.9909
  786MOL0     H 6109   8.762   4.986   7.451  0.6879  0.4900 -1.6070
  786MOL0     H 6110   8.623   4.901   7.470 -0.0375 -0.0341 -0.8909
  787MOL0     O 6111   9.100   0.746   2.622  0.5151  0.5090  0.1919
  787MOL0     C 6112   9.168   0.668   2.550 -0.1551 -1.4075  0.4366
  787MOL0     O 6113   9.282   0.614   2.593 -1.0307  0.5424  0.2037
  787MOL0     C 6114   9.363   0.670   2.696 -0.1413  0.4844 -0.3747
  787MOL0     C 6115   9.467   0.598   2.747  0.5481  0.0387 -0.2493
  787MOL0     C 6116   9.572   0.653   2.833  0.7353 -0.0891  1.5322
  787MOL0     C 6117   9.570   0.794   2.856 -0.4762  0.6649 -0.7112
  787MOL0     O 6118   9.652   0.851   2.949 -0.2514 -0.3100 -0.3453
  787MOL0     C 6119   9.589   0.888   3.079 -1.1771 -0.3087  0.4888
  787MOL0     C 6120   9.711   0.920   3.176  0.4385  0.4250  0.4902
  787MOL0     C 6121   9.783   0.786   3.216  0.9016 -0.0142 -0.3280
  787MOL0     C 6122   9.888   0.807   3.313  0.0428  0.0452 -0.4984
  787MOL0     C 6123  10.019   0.861   3.245 -0.1806 -0.4037 -0.5074
  787MOL0     C 6124  10.123   0.891   3.349  0.4025  0.0139  0.3111
  787MOL0     C 6125  10.237   0.983   3.299 -0.1629  0.4892 -0.6716
  787MOL0     C 6126  10.326   0.911   3.198  1.2575  0.3823  0.4893
  787MOL0     N 6127  10.429   1.003   3.156  0.1121  0.2779  0.3286
  787MOL0     C 6128  10.422   1.071   3.035  0.0319 -0.9486 -0.5312
  787MOL0     C 6129  10.548   1.097   3.009 -0.3257 -0.5468 -0.2777
  787MOL0     C 6130  10.607   1.172   2.900  1.0163  0.4040 -0.3808
  787MOL0     C 6131  10.752   1.129   2.873  0.4294 -0.1604  0.4092
  787MOL0     C 6132  10.800   1.162   2.727 -0.9078  0.0577 -0.0806
  787MOL0     C 6133  10.938   1.107   2.700  0.5049  0.1939 -0.9976
  787MOL0     O 6134  11.052   1.180   2.752 -0.0999  0.0969 -0.2156
  787MOL0     C 6135  11.176   1.133   2.724 -0.1690 -0.4694 -0.6150
  787MOL0     C 6136  11.206   1.030   2.629  0.0518  0.1924 -0.0294
  787MOL0     C 6137  11.340   0.982   2.612  0.4264 -0.3986  0.6656
  787MOL0     C 6138  11.441   1.020   2.697  0.4975 -0.4973 -0.7160
  787MOL0     C 6139  11.566   0.963   2.692  0.1631  0.6030 -0.3034
  787MOL0     O 6140  11.586   0.855   2.603 -0.2430 -0.1174 -0.3921
  787MOL0     C 6141  11.703   0.795   2.593  0.0999  0.6281  0.5243
  787MOL0     C 6142  11.825   0.864   2.567  0.0682  0.1857  0.8632
  787MOL0     C 6143  11.949   0.795   2.562 -0.2691  0.3835  0.4421
  787MOL0     C 6144  11.952   0.658   2.568  0.1951 -0.7039  0.0447
  787MOL0     O 6145  12.080   0.591   2.571  0.6509  0.5105  0.4137
  787MOL0     C 6146  12.195   0.675   2.591 -0.1033  0.8626  0.3478
  787MOL0     C 6147  12.321   0.610   2.628  0.0781 -0.2305 -0.6539
  787MOL0     C 6148  12.301   0.536   2.763  0.7695 -0.4981  0.1055
  787MOL0     C 6149  12.425   0.463   2.815 -1.3257  0.1051 -0.4888
  787MOL0     C 6150  12.410   0.412   2.955 -0.7452 -0.4628  0.1341
  787MOL0     C 6151  12.513   0.315   3.001  0.7299 -1.0182  0.3192
  787MOL0     C 6152  12.480   0.282   3.150 -0.1206 -0.4232  1.5287
  787MOL0     C 6153  12.606   0.216   3.198 -0.7598 -0.4528  1.2717
  787MOL0    Cl 6154  12.644   0.063   3.095 -0.3212 -0.0388 -0.2404
  787MOL0     C 6155  11.835   0.585   2.577  0.0550 -0.9368 -0.0117
  787MOL0     C 6156  11.711   0.658   2.584  0.2403  0.4490  0.1553
  787MOL0     O 6157  11.659   1.021   2.753  0.0045 -0.8381 -0.4198
  787MOL0     C 6158  11.407   1.118   2.796 -0.1630  0.5400  0.8534
  787MOL0     C 6159  11.287   1.178   2.799  0.2722 -0.9885 -0.0751
  787MOL0     N 6160  10.622   1.050   3.113 -0.0525  0.4514 -0.6546
  787MOL0     N 6161  10.558   1.001   3.211  0.4170  1.0591 -0.5377
  787MOL0     C 6162   9.471   0.868   2.798 -0.1028 -0.3675 -0.6229
  787MOL0     C 6163   9.369   0.806   2.728 -0.2901  0.5603 -0.0091
  787MOL0     C 6164   9.107   0.631   2.416 -0.2274 -0.8278 -0.0065
  787MOL0     C 6165   8.976   0.671   2.398  0.4944  0.1869  0.1766
  787MOL0     C 6166   8.905   0.627   2.280 -0.2443 -0.2282 -0.8114
  787MOL0     C 6167   8.963   0.542   2.189  0.2799 -0.0791 -0.4733
  787MOL0     O 6168   8.904   0.476   2.088  0.0493  0.4675  0.0107
  787MOL0     C 6169   8.764   0.495   2.077 -0.6902 -0.9989 -0.0158
  787MOL0     C 6170   8.702   0.411   1.956  0.1978 -0.7919 -0.3962
  787MOL0     C 6171   8.544   0.402   1.969  0.7084 -0.9837  0.4905
  787MOL0     C 6172   8.484   0.350   1.842  0.3049 -0.0819 -0.0610
  787MOL0     C 6173   8.341   0.362   1.820  0.1234 -0.5469  0.4243
  787MOL0     C 6174   8.220   0.374   1.794 -0.0605  0.2066  0.2665
  787MOL0     C 6175   9.103   0.508   2.205  1.3538 -0.2473 -0.4741
  787MOL0     C 6176   9.172   0.558   2.316  0.9474  0.5143  0.4621
  787MOL0     C 6177   9.319   0.507   2.319 -0.1509 -0.0109  0.3814
  787MOL0     H 6178   9.460   0.492   2.727  0.0313 -0.4307  2.0664
  787MOL0     H 6179   9.646   0.585   2.874 -0.6480 -1.1706  2.3431
  787MOL0     H 6180   9.551   0.990   3.064  0.8907  0.6775  1.5032
  787MOL0     H 6181   9.521   0.812   3.117 -0.4964 -0.9944  0.3468
  787MOL0     H 6182   9.674   0.979   3.260  0.6007  1.2230  0.0133
  787MOL0     H 6183   9.786   0.975   3.118 -1.1329  1.4938 -0.6292
  787MOL0     H 6184   9.830   0.749   3.125 -0.2238 -3.0311  0.2032
  787MOL0     H 6185   9.707   0.717   3.253  1.0946 -0.2784 -0.4251
  787MOL0     H 6186   9.851   0.870   3.394 -1.1734 -1.2275 -0.0101
  787MOL0     H 6187   9.919   0.708   3.349  1.9271  0.4817 -0.7913
  787MOL0     H 6188  10.071   0.787   3.183  1.8069  1.0423 -0.6744
  787MOL0     H 6189  10.011   0.951   3.184 -0.0558 -0.4624 -0.6122
  787MOL0     H 6190  10.082   0.949   3.431  1.6161 -0.0764  1.0040
  787MOL0     H 6191  10.160   0.795   3.386 -1.6096 -0.6154  0.8054
  787MOL0     H 6192  10.300   0.999   3.387  0.0741 -2.3707 -0.2276
  787MOL0     H 6193  10.198   1.079   3.263  1.6016  2.1438  1.5498
  787MOL0     H 6194  10.365   0.816   3.236  2.1173  0.2095 -0.7636
  787MOL0     H 6195  10.275   0.876   3.107  1.4875 -0.8121  0.7984
  787MOL0     H 6196  10.327   1.101   2.992  2.1586  1.5123 -4.0318
  787MOL0     H 6197  10.532   1.160   2.822 -2.2849  3.0635  2.0912
  787MOL0     H 6198  10.610   1.277   2.928  0.4824  0.0452  1.1121
  787MOL0     H 6199  10.822   1.171   2.946  3.0768  0.0286 -2.0831
  787MOL0     H 6200  10.760   1.021   2.887  1.7860 -0.3040 -1.2193
  787MOL0     H 6201  10.808   1.270   2.707 -0.8303 -0.1545 -1.2702
  787MOL0     H 6202  10.724   1.118   2.662 -0.4873 -0.0720 -0.4933
  787MOL0     H 6203  10.951   1.099   2.592  0.7515  3.4677 -1.3113
  787MOL0     H 6204  10.950   1.007   2.744  2.2106  0.1704 -1.4685
  787MOL0     H 6205  11.133   0.979   2.566  0.4757 -0.6181  0.1252
  787MOL0     H 6206  11.365   0.916   2.530  1.6653 -0.3764  0.9984
  787MOL0     H 6207  11.820   0.972   2.553 -0.8225  0.0347 -0.1356
  787MOL0     H 6208  12.039   0.851   2.539  0.5332 -1.9989 -2.9654
  787MOL0     H 6209  12.212   0.724   2.494  0.0729 -1.3990 -0.8379
  787MOL0     H 6210  12.170   0.746   2.670 -1.6690  0.7960 -0.0473
  787MOL0     H 6211  12.357   0.540   2.552  1.6360  1.4601 -1.5537
  787MOL0     H 6212  12.407   0.675   2.645  0.8759 -0.5143 -3.1470
  787MOL0     H 6213  12.252   0.608   2.829  1.6891  1.0142 -0.8173
  787MOL0     H 6214  12.233   0.453   2.742  1.1588 -0.6056 -0.7963
  787MOL0     H 6215  12.514   0.527   2.822 -0.5684 -1.1003  1.6763
  787MOL0     H 6216  12.454   0.396   2.734  0.3491  0.5394 -0.2912
  787MOL0     H 6217  12.308   0.377   2.971 -1.3450  1.9063  2.2087
  787MOL0     H 6218  12.417   0.497   3.024 -0.0213 -2.2994  2.4743
  787MOL0     H 6219  12.509   0.217   2.953 -1.1220 -0.7288 -0.1962
  787MOL0     H 6220  12.614   0.352   2.984  0.5379  0.4623  2.0811
  787MOL0     H 6221  12.386   0.227   3.158 -1.4100  1.7741  2.4065
  787MOL0     H 6222  12.465   0.380   3.196  0.4271  0.4849 -0.1457
  787MOL0     H 6223  12.690   0.285   3.185 -0.1210 -1.6334 -1.6900
  787MOL0     H 6224  12.585   0.192   3.302  0.9103 -1.8514  1.3326
  787MOL0     H 6225  11.851   0.478   2.581  0.7146 -0.8617 -0.4651
  787MOL0     H 6226  11.619   0.600   2.580  0.9932 -0.7397 -3.6366
  787MOL0     H 6227  11.480   1.153   2.869  1.7799  2.5577 -1.8726
  787MOL0     H 6228  11.263   1.249   2.878 -1.8202 -0.7632 -0.8462
  787MOL0     H 6229   9.462   0.973   2.820  1.3342 -0.0875 -1.2443
  787MOL0     H 6230   9.307   0.880   2.678 -0.0662 -0.4532 -1.8738
  787MOL0     H 6231   8.918   0.723   2.473 -0.6913 -0.0088 -0.5748
  787MOL0     H 6232   8.800   0.653   2.288 -0.9995 -3.5568  3.4043
  787MOL0     H 6233   8.742   0.602   2.081  1.7802 -0.4787  2.0248
  787MOL0     H 6234   8.720   0.466   2.173 -2.6773  1.8526  0.0749
  787MOL0     H 6235   8.745   0.310   1.955 -1.2990 -1.4509 -1.6369
  787MOL0     H 6236   8.732   0.465   1.867 -2.3810 -0.0844 -0.9111
  787MOL0     H 6237   8.503   0.501   1.985 -0.7634 -1.2330 -1.3988
  787MOL0     H 6238   8.519   0.334   2.051 -0.8191 -2.0038 -0.7806
  787MOL0     H 6239   8.529   0.402   1.758 -1.5483  1.4974 -0.1466
  787MOL0     H 6240   8.507   0.243   1.843 -0.8609 -0.3867 -1.8762
  787MOL0     H 6241   8.113   0.381   1.790  0.0673  1.9113 -1.5540
  787MOL0     H 6242   9.132   0.426   2.141  0.7660 -0.7746 -0.0822
  787MOL0     H 6243   9.388   0.574   2.267 -0.0976 -1.4428 -1.5395
  787MOL0     H 6244   9.357   0.494   2.421  0.2652  0.0134  0.2322
  787MOL0     H 6245   9.335   0.415   2.261  0.8328  0.3229  0.1029
  788MOL0     O 6246   8.243   6.371   5.463 -0.1493 -0.0617  0.1029
  788MOL0     C 6247   8.207   6.315   5.361 -0.4531 -0.3378  0.1569
  788MOL0     O 6248   8.106   6.367   5.272 -0.0516  0.1040 -0.2091
  788MOL0     C 6249   8.028   6.477   5.312 -0.5692 -0.0666 -0.4415
  788MOL0     C 6250   7.906   6.449   5.380 -0.2439  0.4972 -0.3590
  788MOL0     C 6251   7.824   6.556   5.419 -0.2706  0.3583 -0.5925
  788MOL0     C 6252   7.860   6.686   5.376  0.3837  0.6934  0.6018
  788MOL0     O 6253   7.788   6.797   5.387  0.0810  0.4199  0.5512
  788MOL0     C 6254   7.651   6.778   5.416 -0.1916 -0.0236 -0.2955
  788MOL0     C 6255   7.570   6.705   5.302 -0.3437 -0.2039  0.2446
  788MOL0     C 6256   7.558   6.800   5.184  0.0632 -0.4026 -0.4153
  788MOL0     C 6257   7.482   6.735   5.072 -0.5376 -0.2613  0.4325
  788MOL0     C 6258   7.482   6.810   4.942  1.0049 -0.9591  0.1117
  788MOL0     C 6259   7.619   6.820   4.868 -0.2317 -0.3919  0.4079
  788MOL0     C 6260   7.593   6.884   4.729 -0.5370  0.8553 -0.1973
  788MOL0     C 6261   7.721   6.928   4.661 -0.0418 -0.4439  0.5569
  788MOL0     N 6262   7.789   6.827   4.593 -0.9379 -0.1416  0.3275
  788MOL0     C 6263   7.809   6.832   4.456 -0.7183  0.5152 -0.2199
  788MOL0     C 6264   7.881   6.718   4.431 -0.2590  0.0190  0.3311
  788MOL0     C 6265   7.908   6.669   4.292 -0.2699 -0.9984  0.3507
  788MOL0     C 6266   8.055   6.668   4.266 -0.1363 -0.4084 -0.4224
  788MOL0     C 6267   8.120   6.802   4.219  0.5859  0.2174  0.2064
  788MOL0     C 6268   8.269   6.787   4.182 -0.3423 -0.6802 -0.3957
  788MOL0     O 6269   8.326   6.913   4.169  0.7295  0.1969  0.2776
  788MOL0     C 6270   8.462   6.935   4.156  0.3047 -0.5128  0.0698
  788MOL0     C 6271   8.554   6.833   4.193 -0.0551  0.2449  0.7885
  788MOL0     C 6272   8.687   6.860   4.194  0.2697  0.1902  0.6160
  788MOL0     C 6273   8.737   6.978   4.153  0.2762 -0.4401 -0.4064
  788MOL0     C 6274   8.883   7.008   4.167  0.2702 -1.4938 -0.1602
  788MOL0     O 6275   8.966   6.922   4.238 -0.1119 -0.2559  0.7970
  788MOL0     C 6276   9.105   6.929   4.228  1.0756  0.1447  0.5032
  788MOL0     C 6277   9.182   7.023   4.150 -0.2750  0.9883  0.4291
  788MOL0     C 6278   9.318   7.017   4.158 -0.2551  0.6760  0.1403
  788MOL0     C 6279   9.387   6.932   4.254 -0.1530  0.2873  0.9019
  788MOL0     O 6280   9.524   6.944   4.262  0.5802 -0.6749  0.0922
  788MOL0     C 6281   9.597   6.869   4.359  0.3989  0.2895  0.8636
  788MOL0     C 6282   9.743   6.864   4.328  0.2753  0.1820  0.1154
  788MOL0     C 6283   9.834   6.980   4.298  0.4251 -0.3740 -0.0664
  788MOL0     C 6284   9.967   6.937   4.235  0.0412 -0.3660 -0.1500
  788MOL0     C 6285  10.069   7.053   4.224  0.1722  0.1023 -0.2673
  788MOL0     C 6286  10.129   7.089   4.359  0.5606  0.9022 -0.4607
  788MOL0     C 6287  10.206   7.218   4.350 -0.5323  0.4873  0.6338
  788MOL0     C 6288  10.263   7.265   4.480  0.1001 -0.5101 -0.6549
  788MOL0    Cl 6289  10.314   7.430   4.470 -0.7048 -0.3763 -0.4855
  788MOL0     C 6290   9.307   6.843   4.324  0.2447 -0.4296 -0.0068
  788MOL0     C 6291   9.170   6.836   4.305  1.6660  0.1207 -0.3090
  788MOL0     O 6292   8.917   7.125   4.136 -0.1102 -0.6035  0.4867
  788MOL0     C 6293   8.646   7.080   4.120 -0.0574  0.1465 -0.0210
  788MOL0     C 6294   8.507   7.062   4.116  0.3327  0.1890 -0.3548
  788MOL0     N 6295   7.900   6.651   4.548 -0.8503  0.2320  0.3821
  788MOL0     N 6296   7.856   6.721   4.646  0.7571  0.7456 -0.4852
  788MOL0     C 6297   7.982   6.706   5.313  0.5020  0.2873 -0.3556
  788MOL0     C 6298   8.063   6.606   5.274 -0.3169  0.7451 -0.0282
  788MOL0     C 6299   8.272   6.192   5.303  0.3705 -0.6136  0.1858
  788MOL0     C 6300   8.192   6.112   5.215  0.0656 -0.2930 -0.3794
  788MOL0     C 6301   8.252   6.001   5.151 -0.3948  0.5351  0.2533
  788MOL0     C 6302   8.382   5.961   5.183  0.2976  0.5147 -0.1108
  788MOL0     O 6303   8.423   5.839   5.138 -0.0663 -0.6824 -1.0951
  788MOL0     C 6304   8.560   5.794   5.163  0.3211  0.4261 -0.7642
  788MOL0     C 6305   8.588   5.718   5.302  0.2595 -0.8856 -0.1369
  788MOL0     C 6306   8.492   5.602   5.320 -0.3558 -0.0138  0.5306
  788MOL0     C 6307   8.536   5.508   5.423 -0.2720 -0.1959  0.1081
  788MOL0     C 6308   8.522   5.557   5.558  0.5319 -0.2352 -0.2237
  788MOL0     C 6309   8.481   5.579   5.670  0.5433  0.2419 -0.1271
  788MOL0     C 6310   8.457   6.038   5.277  0.1477  0.1261  0.5640
  788MOL0     C 6311   8.397   6.149   5.342 -0.7772  0.0172 -0.5052
  788MOL0     C 6312   8.481   6.222   5.444 -0.2405  0.1808  0.1308
  788MOL0     H 6313   7.879   6.347   5.406  0.6014 -0.0890 -1.6663
  788MOL0     H 6314   7.737   6.539   5.482 -0.2256 -0.5944 -0.7768
  788MOL0     H 6315   7.638   6.721   5.509 -0.0844  1.7482  0.8547
  788MOL0     H 6316   7.608   6.878   5.424  1.3642  0.9377 -2.7980
  788MOL0     H 6317   7.470   6.677   5.338 -0.1807 -2.2901 -0.7732
  788MOL0     H 6318   7.617   6.613   5.268 -2.2235 -0.5471 -1.6702
  788MOL0     H 6319   7.654   6.834   5.144 -0.6304  0.7810 -1.1049
  788MOL0     H 6320   7.513   6.894   5.215  1.3420 -0.2484  1.1462
  788MOL0     H 6321   7.519   6.634   5.053 -3.0632 -0.8648 -1.8784
  788MOL0     H 6322   7.376   6.727   5.097 -1.0578  2.4470 -0.5217
  788MOL0     H 6323   7.407   6.771   4.872 -0.8617  1.7682  0.4263
  788MOL0     H 6324   7.440   6.911   4.954 -1.9914 -1.8123 -2.0000
  788MOL0     H 6325   7.687   6.879   4.931 -1.0299  1.4128 -0.3631
  788MOL0     H 6326   7.663   6.723   4.844 -0.6744 -0.4514 -0.1606
  788MOL0     H 6327   7.524   6.967   4.742 -0.0300  1.0508  1.4757
  788MOL0     H 6328   7.537   6.812   4.669 -0.8392 -0.0994  1.1912
  788MOL0     H 6329   7.694   7.003   4.586  1.2433  0.7853  1.2768
  788MOL0     H 6330   7.791   6.977   4.728  0.1551 -0.8496  0.6524
  788MOL0     H 6331   7.788   6.906   4.378  3.6507  0.0917 -2.0631
  788MOL0     H 6332   7.867   6.567   4.286  0.3191 -1.3656  2.0544
  788MOL0     H 6333   7.860   6.727   4.213  0.1167 -3.1366 -1.5595
  788MOL0     H 6334   8.116   6.640   4.353  2.5173  0.2004 -1.9761
  788MOL0     H 6335   8.080   6.597   4.187  2.4880  0.1141 -0.1551
  788MOL0     H 6336   8.103   6.878   4.296  1.9863  0.8465 -0.0672
  788MOL0     H 6337   8.059   6.842   4.137 -0.0928 -0.2788  0.4554
  788MOL0     H 6338   8.274   6.720   4.096 -2.0902 -1.5859  0.1496
  788MOL0     H 6339   8.315   6.743   4.271 -0.2174 -0.3235 -0.2819
  788MOL0     H 6340   8.523   6.739   4.237 -1.5760  2.1392  4.1085
  788MOL0     H 6341   8.750   6.777   4.223 -1.5771 -1.2321  0.7676
  788MOL0     H 6342   9.133   7.088   4.079  2.1150  1.9167 -0.4905
  788MOL0     H 6343   9.368   7.091   4.097 -1.3836  0.0613 -1.6308
  788MOL0     H 6344   9.584   6.911   4.459  1.5683  0.8695  0.7971
  788MOL0     H 6345   9.565   6.766   4.370 -1.4328  0.9150  1.8094
  788MOL0     H 6346   9.789   6.802   4.406 -0.5036  0.1143  0.5406
  788MOL0     H 6347   9.759   6.795   4.245  0.1964 -0.8171  0.9099
  788MOL0     H 6348   9.778   7.042   4.227  0.1617 -1.8275 -1.1757
  788MOL0     H 6349   9.850   7.031   4.393  0.7072 -1.8424  0.6942
  788MOL0     H 6350   9.946   6.901   4.134  1.3576  1.7306 -1.2286
  788MOL0     H 6351  10.014   6.863   4.300  0.7997  0.7127  0.5619
  788MOL0     H 6352  10.011   7.137   4.186 -1.4380 -1.2725 -0.9805
  788MOL0     H 6353  10.146   7.036   4.147 -2.0797 -2.0276 -2.2256
  788MOL0     H 6354  10.046   7.096   4.430  0.9314  2.9244 -0.1718
  788MOL0     H 6355  10.198   7.012   4.396  0.5287  1.1117  0.0410
  788MOL0     H 6356  10.146   7.295   4.299  1.2727  0.2102 -2.1233
  788MOL0     H 6357  10.294   7.215   4.286 -0.9499 -1.6475  0.0842
  788MOL0     H 6358  10.181   7.247   4.551  0.2292 -0.7317 -0.5627
  788MOL0     H 6359  10.343   7.197   4.510 -1.1411 -1.8298 -0.2432
  788MOL0     H 6360   9.354   6.776   4.395  2.2098 -0.5818 -1.3576
  788MOL0     H 6361   9.124   6.765   4.373  1.4434 -0.4466 -1.0368
  788MOL0     H 6362   8.692   7.174   4.091 -0.4779 -0.0971 -1.5442
  788MOL0     H 6363   8.432   7.134   4.084 -2.4221 -0.8858  3.0862
  788MOL0     H 6364   8.006   6.807   5.283 -1.3056  0.4235 -1.4905
  788MOL0     H 6365   8.150   6.620   5.211 -0.6002 -0.7723 -0.8218
  788MOL0     H 6366   8.088   6.140   5.206  0.6397  1.2300 -3.5683
  788MOL0     H 6367   8.195   5.933   5.088  1.6361 -1.5343  0.4971
  788MOL0     H 6368   8.640   5.869   5.159  1.5518 -0.7855 -0.0112
  788MOL0     H 6369   8.583   5.724   5.082  1.3917  3.7504 -3.5842
  788MOL0     H 6370   8.577   5.787   5.386 -3.9612 -1.4298 -0.0238
  788MOL0     H 6371   8.691   5.681   5.311  0.5033 -0.2222 -0.1026
  788MOL0     H 6372   8.483   5.553   5.222  0.0629 -0.2285  0.5969
  788MOL0     H 6373   8.393   5.633   5.354 -0.8239 -1.0739  0.2124
  788MOL0     H 6374   8.471   5.420   5.411 -2.8940  1.0670  3.3331
  788MOL0     H 6375   8.635   5.467   5.403  0.6615  2.5802 -1.5680
  788MOL0     H 6376   8.440   5.599   5.767  1.6516 -0.0591  0.4153
  788MOL0     H 6377   8.554   6.004   5.309 -0.4499 -1.1810  1.0726
  788MOL0     H 6378   8.520   6.318   5.409  0.4930 -0.0067  0.4217
  788MOL0     H 6379   8.431   6.235   5.540  0.8522  2.2463  0.4742
  788MOL0     H 6380   8.571   6.163   5.467  0.7770  0.8414 -1.9166
  789MOL0     O 6381   4.008   2.985   0.337  0.0662  0.0071 -0.2011
  789MOL0     C 6382   3.894   2.961   0.290 -1.3113 -0.2441  0.3242
  789MOL0     O 6383   3.874   2.931   0.158  0.0126  0.6162  0.0552
  789MOL0     C 6384   3.979   2.903   0.072  0.2385  0.1476  0.0533
  789MOL0     C 6385   4.098   2.840   0.114  0.3282 -0.4192 -0.6309
  789MOL0     C 6386   4.206   2.832   0.024  0.7035 -0.6318  0.1067
  789MOL0     C 6387   4.201   2.891  -0.107  0.1418 -0.1862 -0.6354
  789MOL0     O 6388   4.308   2.865  -0.186  0.4295 -0.5657 -0.2657
  789MOL0     C 6389   4.340   2.962  -0.290  0.5853 -0.6462 -0.2459
  789MOL0     C 6390   4.414   3.084  -0.229  0.2631 -0.1922 -0.6074
  789MOL0     C 6391   4.525   3.052  -0.122 -0.0186 -0.3640 -0.2885
  789MOL0     C 6392   4.649   2.975  -0.178 -0.2696  0.1435  0.2004
  789MOL0     C 6393   4.739   2.941  -0.062  0.8759 -0.6700 -0.8525
  789MOL0     C 6394   4.867   2.877  -0.105  0.1989  1.0096  0.6131
  789MOL0     C 6395   4.945   2.801   0.007 -0.2950 -0.5276  0.0263
  789MOL0     C 6396   4.872   2.683   0.070 -0.1800  0.0798  0.0175
  789MOL0     N 6397   4.814   2.587  -0.025 -0.2106  0.3134 -0.0882
  789MOL0     C 6398   4.686   2.587  -0.069 -0.6562  0.2525  0.1356
  789MOL0     C 6399   4.668   2.479  -0.149 -0.3147 -0.2002 -0.1342
  789MOL0     C 6400   4.535   2.443  -0.221  0.1942 -0.2145  0.3810
  789MOL0     C 6401   4.416   2.527  -0.182  0.4490  0.8974  0.6760
  789MOL0     C 6402   4.289   2.456  -0.237 -0.3137  0.7346  0.2274
  789MOL0     C 6403   4.164   2.538  -0.203  0.0399 -0.7517 -0.4937
  789MOL0     O 6404   4.049   2.460  -0.246  0.2132  0.2884  0.1683
  789MOL0     C 6405   3.920   2.514  -0.227  0.0187  0.3358  0.0315
  789MOL0     C 6406   3.817   2.443  -0.286  0.4709  0.4982 -0.1227
  789MOL0     C 6407   3.689   2.472  -0.241 -0.2920  0.5262  0.8737
  789MOL0     C 6408   3.663   2.573  -0.152 -0.0108  0.6736 -0.4283
  789MOL0     C 6409   3.522   2.598  -0.107  0.6054 -0.0478  0.0779
  789MOL0     O 6410   3.511   2.693  -0.014  0.1850  0.2695 -0.1573
  789MOL0     C 6411   3.382   2.716   0.024  1.2649 -0.3072  0.7900
  789MOL0     C 6412   3.327   2.843   0.020 -0.4652  0.4612  0.0740
  789MOL0     C 6413   3.189   2.863   0.053  0.1729 -0.5995 -0.7325
  789MOL0     C 6414   3.105   2.761   0.109 -0.1667 -1.0130  0.4948
  789MOL0     O 6415   2.969   2.779   0.144  0.0154 -0.1682 -0.0836
  789MOL0     C 6416   2.894   2.904   0.137  0.6162  0.8873 -0.3499
  789MOL0     C 6417   2.780   2.906   0.236  0.6365  0.0632 -0.4292
  789MOL0     C 6418   2.664   2.803   0.220  0.0653 -0.7089  0.0759
  789MOL0     C 6419   2.566   2.854   0.106  0.3019 -0.3670 -0.0878
  789MOL0     C 6420   2.438   2.774   0.117 -0.3449 -0.2636 -0.1931
  789MOL0     C 6421   2.331   2.850   0.035 -0.2118 -0.6054 -0.6033
  789MOL0     C 6422   2.198   2.762   0.038 -0.0128  0.2025  0.1568
  789MOL0     C 6423   2.074   2.848   0.002  0.4816  0.1636 -0.1674
  789MOL0    Cl 6424   1.937   2.732   0.026 -0.3170 -0.0556 -0.5227
  789MOL0     C 6425   3.161   2.637   0.118 -0.0284  0.3991 -0.2813
  789MOL0     C 6426   3.298   2.614   0.085  0.9828  0.4769  0.7826
  789MOL0     O 6427   3.431   2.534  -0.150  0.3743  0.0830 -0.3686
  789MOL0     C 6428   3.768   2.647  -0.094  0.2947 -0.1817  0.2819
  789MOL0     C 6429   3.898   2.610  -0.133  0.1989 -0.7085  0.2115
  789MOL0     N 6430   4.783   2.402  -0.145 -0.4899 -0.1744 -0.1289
  789MOL0     N 6431   4.871   2.469  -0.065 -0.1242  0.0545  0.4676
  789MOL0     C 6432   4.072   2.933  -0.152  0.1377  0.1130 -0.4230
  789MOL0     C 6433   3.972   2.950  -0.057  0.2770  0.8643 -0.2064
  789MOL0     C 6434   3.789   2.976   0.389 -0.0880  0.1808  0.1873
  789MOL0     C 6435   3.812   2.987   0.529 -0.4152 -0.5148  0.2151
  789MOL0     C 6436   3.704   2.978   0.623 -0.2113 -0.2850 -0.6733
  789MOL0     C 6437   3.570   2.977   0.589 -0.5274  0.4329  0.0989
  789MOL0     O 6438   3.475   2.962   0.686 -0.1008 -0.0403  0.7213
  789MOL0     C 6439   3.350   3.022   0.658 -0.3460  0.2484 -0.9554
  789MOL0     C 6440   3.249   2.910   0.643  0.0217 -0.6774  0.1950
  789MOL0     C 6441   3.090   2.951   0.645 -0.4175 -0.4821 -0.6131
  789MOL0     C 6442   3.045   3.021   0.515  0.4340  0.5432 -0.8739
  789MOL0     C 6443   2.910   3.072   0.539 -0.0674  0.3438  0.6555
  789MOL0     C 6444   2.813   3.130   0.567  0.2127  0.1360  0.8374
  789MOL0     C 6445   3.545   2.971   0.443 -0.6547  0.2027 -0.2408
  789MOL0     C 6446   3.650   2.982   0.351 -0.7553  0.7800  0.4156
  789MOL0     C 6447   3.602   2.979   0.206 -0.8601  0.2503 -0.7711
  789MOL0     H 6448   4.118   2.784   0.205  2.6232  0.2962 -0.6198
  789MOL0     H 6449   4.299   2.783   0.050  1.5139 -0.2180 -1.7825
  789MOL0     H 6450   4.415   2.928  -0.361  2.1122  0.0185  0.9964
  789MOL0     H 6451   4.252   2.993  -0.347  1.3646  0.2594 -0.9724
  789MOL0     H 6452   4.335   3.140  -0.177 -0.0628 -1.1778  0.0037
  789MOL0     H 6453   4.453   3.157  -0.300  0.2860 -0.3740 -0.7829
  789MOL0     H 6454   4.482   2.996  -0.039  1.2704  0.7442  1.1925
  789MOL0     H 6455   4.555   3.142  -0.068  3.3943 -1.4218 -0.1879
  789MOL0     H 6456   4.609   2.883  -0.221 -0.5710  0.0396  0.7006
  789MOL0     H 6457   4.700   3.037  -0.252 -0.4033 -1.5954 -1.4253
  789MOL0     H 6458   4.778   3.028  -0.008  2.1723 -1.4127 -0.5356
  789MOL0     H 6459   4.686   2.884   0.015 -0.2843  1.9041  0.3740
  789MOL0     H 6460   4.840   2.804  -0.182  0.8768  1.4642 -0.0713
  789MOL0     H 6461   4.934   2.943  -0.162  0.7653  0.1904  0.3025
  789MOL0     H 6462   4.970   2.874   0.084  3.0533 -2.7747  1.2868
  789MOL0     H 6463   5.043   2.769  -0.031  0.1891 -0.1314  0.9185
  789MOL0     H 6464   4.943   2.633   0.137  1.3420 -0.1719 -1.7248
  789MOL0     H 6465   4.792   2.718   0.136 -1.4711 -0.0367 -1.4414
  789MOL0     H 6466   4.608   2.654  -0.034  0.6184  1.2995  1.0884
  789MOL0     H 6467   4.553   2.461  -0.327  2.2613 -1.4357  0.4779
  789MOL0     H 6468   4.516   2.337  -0.203  0.6651 -0.1538  1.3513
  789MOL0     H 6469   4.403   2.534  -0.073 -1.6814 -0.5887  0.5794
  789MOL0     H 6470   4.430   2.630  -0.217  0.0599 -0.3935 -3.8296
  789MOL0     H 6471   4.271   2.358  -0.193 -0.7280 -0.1191 -1.7293
  789MOL0     H 6472   4.291   2.449  -0.346 -2.6475  4.0971 -0.2008
  789MOL0     H 6473   4.157   2.632  -0.259  0.1992  0.8705  2.0322
  789MOL0     H 6474   4.168   2.556  -0.095 -2.1155 -0.2601 -0.4529
  789MOL0     H 6475   3.837   2.356  -0.347 -1.3919 -0.4307  0.5361
  789MOL0     H 6476   3.603   2.417  -0.278  0.6598  0.4900 -1.4286
  789MOL0     H 6477   3.386   2.925  -0.020  1.0266 -1.1702 -1.2729
  789MOL0     H 6478   3.149   2.963   0.037 -1.5310 -1.2342 -0.7156
  789MOL0     H 6479   2.965   2.982   0.165 -2.1082  2.7245  2.0786
  789MOL0     H 6480   2.862   2.915   0.033  0.2138 -0.2561 -0.3617
  789MOL0     H 6481   2.814   2.897   0.339  1.3533  0.2483 -0.6474
  789MOL0     H 6482   2.739   3.007   0.224  1.8369  0.9204  2.0180
  789MOL0     H 6483   2.704   2.701   0.218  3.8031  0.5786  1.0316
  789MOL0     H 6484   2.610   2.815   0.315 -0.1820 -2.6379  0.2166
  789MOL0     H 6485   2.607   2.843   0.006  1.1664  0.0557  0.2117
  789MOL0     H 6486   2.547   2.961   0.119  0.0480 -0.1842 -1.7587
  789MOL0     H 6487   2.411   2.759   0.222  0.2891 -0.4557 -0.0558
  789MOL0     H 6488   2.445   2.675   0.072 -0.1789 -0.9374  1.2586
  789MOL0     H 6489   2.325   2.946   0.087  0.4381 -1.2135  0.6615
  789MOL0     H 6490   2.375   2.850  -0.065 -2.3600 -2.1851 -1.6189
  789MOL0     H 6491   2.183   2.719   0.138  1.7246  0.8050  0.7178
  789MOL0     H 6492   2.207   2.681  -0.034 -0.1594  0.4017 -0.0860
  789MOL0     H 6493   2.057   2.936   0.065  2.2364 -0.0255  0.6126
  789MOL0     H 6494   2.067   2.874  -0.104 -4.1697 -0.4926 -0.2285
  789MOL0     H 6495   3.102   2.564   0.173  0.4077  2.5459  3.3877
  789MOL0     H 6496   3.346   2.519   0.105 -0.2686 -0.4021 -0.2945
  789MOL0     H 6497   3.749   2.728  -0.025  3.3372  1.6532 -0.8111
  789MOL0     H 6498   3.978   2.665  -0.084 -2.2232  3.3939 -0.0024
  789MOL0     H 6499   4.056   2.980  -0.249  1.4914  3.9040  0.9956
  789MOL0     H 6500   3.881   2.999  -0.088 -2.1018 -2.6683  0.6403
  789MOL0     H 6501   3.912   2.999   0.568 -1.6725  1.8196  3.1687
  789MOL0     H 6502   3.734   2.971   0.728 -1.7408 -2.1374 -0.3156
  789MOL0     H 6503   3.347   3.099   0.580  0.1692  1.5501  0.2643
  789MOL0     H 6504   3.332   3.080   0.750  0.5603 -2.1592  0.8309
  789MOL0     H 6505   3.263   2.841   0.726 -0.5553  1.3564  2.0867
  789MOL0     H 6506   3.269   2.857   0.550 -3.5144  0.8025 -1.6081
  789MOL0     H 6507   3.056   3.011   0.729 -2.0620 -1.6164 -0.4179
  789MOL0     H 6508   3.032   2.858   0.648 -0.8178 -0.2747 -1.4169
  789MOL0     H 6509   3.111   3.104   0.488  1.6039  0.4400  1.4410
  789MOL0     H 6510   3.047   2.948   0.434 -0.2039 -0.9891  0.4383
  789MOL0     H 6511   2.718   3.175   0.589 -1.0632  0.2405 -3.7875
  789MOL0     H 6512   3.446   2.947   0.405 -0.7241  0.0778  0.0189
  789MOL0     H 6513   3.668   3.034   0.137 -1.5691  0.4543 -1.2949
  789MOL0     H 6514   3.588   2.879   0.164 -4.3907 -0.1852  1.0660
  789MOL0     H 6515   3.508   3.035   0.212 -2.1881 -1.8039 -1.4540
  790MOL0     O 6516   7.092   5.785   2.591 -0.4366  0.5209  0.0226
  790MOL0     C 6517   7.017   5.876   2.571 -0.2032  0.0858  0.1903
  790MOL0     O 6518   7.046   5.981   2.485 -0.3473  0.3675 -0.2962
  790MOL0     C 6519   7.155   5.967   2.406 -0.4343  0.3875  0.0143
  790MOL0     C 6520   7.151   5.870   2.308 -0.5436 -0.3720  0.2118
  790MOL0     C 6521   7.268   5.868   2.219 -0.2673  0.3042 -0.7272
  790MOL0     C 6522   7.380   5.954   2.242  0.6698  0.3183 -0.0889
  790MOL0     O 6523   7.485   5.922   2.162 -0.4511  0.3497 -0.3414
  790MOL0     C 6524   7.614   5.986   2.199  0.5245 -0.7182  0.3145
  790MOL0     C 6525   7.722   5.963   2.095  0.1520  0.2538  0.8050
  790MOL0     C 6526   7.845   6.037   2.123 -0.4463  0.1069 -0.2352
  790MOL0     C 6527   7.948   5.988   2.030 -0.1415 -1.0716 -0.0275
  790MOL0     C 6528   8.086   6.055   2.041 -0.8686  0.7880  0.3290
  790MOL0     C 6529   8.175   6.003   1.928  0.3778  0.6549  0.6620
  790MOL0     C 6530   8.316   6.058   1.921  0.3618 -0.5500 -0.5113
  790MOL0     C 6531   8.408   5.986   2.020 -0.2182 -0.7311 -0.4456
  790MOL0     N 6532   8.547   6.034   1.994  0.5408  1.0654  0.0002
  790MOL0     C 6533   8.613   6.138   2.041  0.0796 -0.6610  0.1412
  790MOL0     C 6534   8.724   6.158   1.959 -0.3043 -0.1222 -0.4217
  790MOL0     C 6535   8.805   6.282   1.987  0.2139 -0.2806 -0.6455
  790MOL0     C 6536   8.739   6.412   1.928  0.8462 -0.1385  0.8411
  790MOL0     C 6537   8.836   6.528   1.938 -0.0915 -0.1583 -0.0291
  790MOL0     C 6538   8.929   6.538   1.818  0.1977 -0.5339  0.0400
  790MOL0     O 6539   9.034   6.635   1.865  0.2345 -0.0484  0.4359
  790MOL0     C 6540   9.122   6.687   1.772 -0.6953 -0.4699 -1.0045
  790MOL0     C 6541   9.119   6.679   1.634  0.1641 -1.1097 -0.4539
  790MOL0     C 6542   9.216   6.725   1.548 -0.7984 -0.5687  0.8175
  790MOL0     C 6543   9.333   6.784   1.595 -0.4187 -0.8904 -0.0946
  790MOL0     C 6544   9.451   6.819   1.507  0.3899 -0.6153  0.2082
  790MOL0     O 6545   9.564   6.843   1.588  0.3619  0.2183 -0.0024
  790MOL0     C 6546   9.683   6.895   1.539  1.1206  0.4958  0.2945
  790MOL0     C 6547   9.789   6.891   1.632  0.0188 -0.3316  0.1839
  790MOL0     C 6548   9.908   6.953   1.598  0.4510 -0.4887  0.7270
  790MOL0     C 6549   9.928   7.018   1.474  0.6386 -0.2944  0.3594
  790MOL0     O 6550  10.046   7.062   1.430 -0.0351  0.5180  0.3116
  790MOL0     C 6551  10.094   7.042   1.299  0.1527 -0.4844  0.3349
  790MOL0     C 6552  10.233   7.101   1.294 -0.0799  0.0714  0.3252
  790MOL0     C 6553  10.215   7.260   1.315  0.6372  0.5090 -0.6521
  790MOL0     C 6554  10.344   7.338   1.319  0.3691  0.1017  0.8643
  790MOL0     C 6555  10.441   7.301   1.423 -0.1214  0.1193 -0.2350
  790MOL0     C 6556  10.387   7.315   1.566  1.0667 -0.0355 -0.0474
  790MOL0     C 6557  10.484   7.273   1.669 -1.2540 -0.6450  0.5877
  790MOL0     C 6558  10.432   7.268   1.813  0.3803  0.1330  0.3943
  790MOL0    Cl 6559  10.296   7.152   1.827 -0.1274 -0.3327  0.4837
  790MOL0     C 6560   9.818   7.025   1.387 -0.1533 -0.1266 -0.1201
  790MOL0     C 6561   9.707   6.956   1.417 -0.0382 -1.1660  0.0624
  790MOL0     O 6562   9.448   6.819   1.386  0.2519 -0.6378 -0.7535
  790MOL0     C 6563   9.341   6.798   1.736  0.1744  0.3749  0.6766
  790MOL0     C 6564   9.234   6.759   1.823  0.9040 -0.2474  0.4780
  790MOL0     N 6565   8.732   6.053   1.868  0.0494 -0.0819  0.1350
  790MOL0     N 6566   8.622   5.980   1.895  0.1041 -0.6346  0.2653
  790MOL0     C 6567   7.372   6.058   2.336 -0.3037  0.5856  0.0875
  790MOL0     C 6568   7.262   6.062   2.419 -0.1442  0.3190  0.2409
  790MOL0     C 6569   6.887   5.871   2.633  0.5467  0.6620 -0.7959
  790MOL0     C 6570   6.845   5.983   2.699  0.0085 -0.4205 -0.1178
  790MOL0     C 6571   6.717   5.992   2.756 -1.0193 -0.2021 -0.1278
  790MOL0     C 6572   6.634   5.874   2.755 -1.0966 -0.0143 -0.5274
  790MOL0     O 6573   6.520   5.889   2.819  0.2615  0.6885 -0.0123
  790MOL0     C 6574   6.420   5.950   2.742 -0.2782 -0.4885  0.7640
  790MOL0     C 6575   6.365   5.866   2.620  0.2198  0.0576  0.3932
  790MOL0     C 6576   6.339   5.951   2.500 -0.3666  0.3691  0.6456
  790MOL0     C 6577   6.264   6.072   2.514  1.0559 -0.5594 -0.3108
  790MOL0     C 6578   6.130   6.040   2.578  0.3960 -0.0953 -0.5278
  790MOL0     C 6579   6.021   6.019   2.635 -0.3221 -0.2450  0.7123
  790MOL0     C 6580   6.682   5.761   2.697  0.1276  0.2818 -0.2250
  790MOL0     C 6581   6.804   5.760   2.625  0.1546 -0.4349 -0.9123
  790MOL0     C 6582   6.829   5.648   2.527  0.7349  0.3329  0.3464
  790MOL0     H 6583   7.065   5.813   2.272  0.9753 -2.5879 -0.1599
  790MOL0     H 6584   7.281   5.785   2.151  2.4396 -1.0007  1.2300
  790MOL0     H 6585   7.595   6.093   2.212  1.7142 -0.6579  1.9028
  790MOL0     H 6586   7.655   5.948   2.293  6.5583  2.1427 -0.7282
  790MOL0     H 6587   7.684   5.991   1.997 -1.7908 -1.2773  1.0574
  790MOL0     H 6588   7.742   5.856   2.084 -0.6439 -0.0807  2.3301
  790MOL0     H 6589   7.876   6.006   2.223  1.7700 -0.1354 -0.9430
  790MOL0     H 6590   7.849   6.145   2.105 -0.2710  0.4465  1.6119
  790MOL0     H 6591   7.965   5.881   2.044  1.5063 -0.9228 -0.7013
  790MOL0     H 6592   7.904   5.984   1.930 -0.4045  2.0040 -0.1218
  790MOL0     H 6593   8.072   6.164   2.034  1.3468  1.1923  1.2910
  790MOL0     H 6594   8.134   6.021   2.133 -0.5396 -1.5936 -0.6613
  790MOL0     H 6595   8.187   5.894   1.935  1.5678  0.8225  1.5351
  790MOL0     H 6596   8.119   6.032   1.839 -1.4821  3.7975  2.6667
  790MOL0     H 6597   8.315   6.167   1.935 -0.4272 -0.1427 -3.0919
  790MOL0     H 6598   8.358   6.036   1.822  1.0337  0.2975 -0.4193
  790MOL0     H 6599   8.379   6.017   2.121 -0.7870 -2.1607 -0.1499
  790MOL0     H 6600   8.395   5.878   2.017  0.7043 -0.8284 -2.5100
  790MOL0     H 6601   8.584   6.221   2.104  0.9890 -0.0637 -0.2107
  790MOL0     H 6602   8.812   6.301   2.095 -0.7987  1.4554 -0.8616
  790MOL0     H 6603   8.904   6.275   1.942  0.2307 -0.9848 -0.5140
  790MOL0     H 6604   8.702   6.394   1.827 -0.4522 -2.2934  1.6379
  790MOL0     H 6605   8.649   6.438   1.986 -0.3101 -1.5510 -0.2511
  790MOL0     H 6606   8.893   6.518   2.031  0.3666  0.0220 -0.2875
  790MOL0     H 6607   8.780   6.622   1.948  1.5446  0.8129  0.4091
  790MOL0     H 6608   8.880   6.571   1.725  1.0798 -3.5531 -1.6376
  790MOL0     H 6609   8.966   6.439   1.789  0.6859  0.2015 -2.0600
  790MOL0     H 6610   9.034   6.629   1.588 -0.0431  0.1656 -1.5170
  790MOL0     H 6611   9.201   6.698   1.444  2.1765  2.9261 -0.7104
  790MOL0     H 6612   9.777   6.845   1.730 -1.5968 -0.4962 -0.0677
  790MOL0     H 6613   9.991   6.933   1.664  0.6099  0.4157  0.8180
  790MOL0     H 6614  10.106   6.935   1.277 -0.6245 -0.9769  2.1117
  790MOL0     H 6615  10.022   7.088   1.232  1.0373  0.3596 -0.0561
  790MOL0     H 6616  10.298   7.053   1.367 -0.0290  1.0660  0.9492
  790MOL0     H 6617  10.256   7.075   1.190  2.2697 -0.8098  1.0018
  790MOL0     H 6618  10.150   7.289   1.232 -0.2173  3.6566  0.9296
  790MOL0     H 6619  10.147   7.274   1.400 -0.1617  2.1942 -1.5200
  790MOL0     H 6620  10.323   7.443   1.339 -1.1184 -0.3561  1.9524
  790MOL0     H 6621  10.388   7.326   1.220 -0.8281 -1.1555  0.4445
  790MOL0     H 6622  10.521   7.375   1.410  0.2917 -0.1500  0.6696
  790MOL0     H 6623  10.486   7.203   1.405 -1.5111 -0.4167 -0.9246
  790MOL0     H 6624  10.359   7.420   1.579 -0.4603 -0.3519 -0.5585
  790MOL0     H 6625  10.300   7.250   1.573  0.1479  1.1164 -0.5928
  790MOL0     H 6626  10.566   7.346   1.668 -1.0369 -0.8671 -1.1427
  790MOL0     H 6627  10.532   7.178   1.644  0.0579 -0.5386  2.5001
  790MOL0     H 6628  10.510   7.233   1.881  2.3395  1.2874 -1.1437
  790MOL0     H 6629  10.393   7.365   1.845  1.3267  0.1661  1.5116
  790MOL0     H 6630   9.819   7.077   1.292  0.8367 -0.9336 -0.5794
  790MOL0     H 6631   9.637   6.954   1.334  3.4138  1.1142 -3.2410
  790MOL0     H 6632   9.438   6.827   1.774  1.1441  2.3920 -2.8959
  790MOL0     H 6633   9.246   6.759   1.931  0.6757 -1.5070  0.5235
  790MOL0     H 6634   7.447   6.135   2.350  1.6174 -0.9689 -1.0891
  790MOL0     H 6635   7.235   6.141   2.488  0.0281  1.1377 -0.6106
  790MOL0     H 6636   6.903   6.074   2.697 -1.1701  0.3954  1.3018
  790MOL0     H 6637   6.679   6.082   2.804  0.4711 -0.2858  1.2723
  790MOL0     H 6638   6.456   6.047   2.707 -3.9713  0.8279  0.1649
  790MOL0     H 6639   6.336   5.970   2.809 -0.6532 -1.4680  0.5977
  790MOL0     H 6640   6.271   5.815   2.643  0.7551 -0.4875  1.4352
  790MOL0     H 6641   6.437   5.792   2.581 -1.9974 -2.1737  0.2780
  790MOL0     H 6642   6.289   5.890   2.424 -1.7099  0.4253  1.4516
  790MOL0     H 6643   6.431   5.986   2.452 -0.8117  1.9991  0.9310
  790MOL0     H 6644   6.315   6.151   2.570  0.8323 -0.0973 -0.7466
  790MOL0     H 6645   6.247   6.111   2.413 -0.2020 -1.8303 -0.6194
  790MOL0     H 6646   5.921   5.996   2.667 -1.5235 -0.7299 -2.9623
  790MOL0     H 6647   6.625   5.670   2.708 -0.7973  0.7563 -0.9540
  790MOL0     H 6648   6.837   5.694   2.428  0.2932 -1.0478 -0.3460
  790MOL0     H 6649   6.915   5.581   2.540  0.1034 -0.6581 -0.4487
  790MOL0     H 6650   6.741   5.584   2.521 -0.0678  1.4875 -0.7040
  791MOL0     O 6651   7.943   2.368   6.823  0.0120  0.9426  0.0639
  791MOL0     C 6652   7.890   2.429   6.914 -0.7201  0.1292 -0.2726
  791MOL0     O 6653   7.939   2.552   6.969 -0.8390 -0.1718  0.0208
  791MOL0     C 6654   8.045   2.609   6.911 -0.2620  0.0391 -0.4484
  791MOL0     C 6655   8.170   2.545   6.924 -0.2657 -0.6644  0.4229
  791MOL0     C 6656   8.288   2.611   6.879  0.1026  0.4190 -0.4672
  791MOL0     C 6657   8.284   2.742   6.827 -0.4695  0.4058 -0.8604
  791MOL0     O 6658   8.398   2.804   6.779  0.4569  0.4189  0.1945
  791MOL0     C 6659   8.471   2.736   6.680 -0.6322 -0.0434  0.6486
  791MOL0     C 6660   8.589   2.826   6.636  1.0244  0.3234 -0.5858
  791MOL0     C 6661   8.690   2.748   6.547 -0.9799  0.1857 -0.6376
  791MOL0     C 6662   8.749   2.624   6.617  0.4848  0.0376 -0.0736
  791MOL0     C 6663   8.880   2.573   6.542  0.6126  0.0685  0.0821
  791MOL0     C 6664   9.008   2.659   6.579 -0.4653 -1.0913  0.3472
  791MOL0     C 6665   9.054   2.740   6.462  0.0330  0.2325  0.1269
  791MOL0     C 6666   9.080   2.671   6.326 -0.0876  0.3627  1.0071
  791MOL0     N 6667   9.163   2.750   6.236  0.2411 -0.2144 -0.3716
  791MOL0     C 6668   9.285   2.801   6.282  0.6847 -0.2521 -0.1138
  791MOL0     C 6669   9.335   2.879   6.182 -0.2031 -0.1283  0.6895
  791MOL0     C 6670   9.454   2.972   6.197 -0.7739  0.1217  1.0113
  791MOL0     C 6671   9.591   2.897   6.180 -0.0866 -0.2236 -0.1925
  791MOL0     C 6672   9.612   2.826   6.045  0.3140  1.0559  0.8569
  791MOL0     C 6673   9.735   2.735   6.039  0.2612  0.5626 -0.2295
  791MOL0     O 6674   9.856   2.818   6.041  0.7783 -0.3761  0.3121
  791MOL0     C 6675   9.974   2.756   6.063  0.5516 -0.4125  0.3178
  791MOL0     C 6676  10.026   2.642   6.001  0.1544 -0.4209 -0.6237
  791MOL0     C 6677  10.161   2.599   6.031 -0.3873 -0.5101 -1.0243
  791MOL0     C 6678  10.252   2.678   6.105  0.3695  0.0293 -0.0804
  791MOL0     C 6679  10.395   2.639   6.129  0.1134  0.9951  0.5961
  791MOL0     O 6680  10.434   2.515   6.087 -0.1955 -0.0195  0.8163
  791MOL0     C 6681  10.564   2.488   6.088 -0.7396 -0.4704  0.2439
  791MOL0     C 6682  10.654   2.497   5.983  0.0361 -0.5819 -0.5506
  791MOL0     C 6683  10.795   2.504   5.997 -0.5666 -0.1994  0.0927
  791MOL0     C 6684  10.856   2.476   6.125  0.5374  0.2440 -0.6858
  791MOL0     O 6685  10.991   2.477   6.154  0.1312  0.4151  0.2767
  791MOL0     C 6686  11.085   2.514   6.057 -0.2748  0.2121  0.3096
  791MOL0     C 6687  11.221   2.448   6.100  0.4767  0.3384 -0.3692
  791MOL0     C 6688  11.286   2.508   6.231  0.4434  0.0352  0.1042
  791MOL0     C 6689  11.344   2.648   6.202 -0.5643 -0.4465  0.0490
  791MOL0     C 6690  11.436   2.691   6.324 -0.3042  0.1962  0.9517
  791MOL0     C 6691  11.568   2.616   6.342  0.0447 -0.8137 -0.0450
  791MOL0     C 6692  11.646   2.712   6.447  0.9385 -0.7427  1.6264
  791MOL0     C 6693  11.786   2.665   6.465  0.2751 -0.0778  0.3102
  791MOL0    Cl 6694  11.852   2.766   6.594 -0.0310 -0.0464 -0.2547
  791MOL0     C 6695  10.767   2.449   6.230  0.2254 -0.4988  0.3535
  791MOL0     C 6696  10.630   2.454   6.212  0.5441  0.1032  0.1621
  791MOL0     O 6697  10.470   2.717   6.181 -0.7579 -0.0746  0.1787
  791MOL0     C 6698  10.201   2.796   6.157 -0.7953  0.2984 -0.2299
  791MOL0     C 6699  10.069   2.831   6.144  0.1171  0.5162  0.7988
  791MOL0     N 6700   9.247   2.874   6.070 -0.3388  0.2182 -0.1127
  791MOL0     N 6701   9.148   2.797   6.108  0.2826 -0.3593 -0.4156
  791MOL0     C 6702   8.156   2.800   6.801 -0.5836  0.0713 -0.1064
  791MOL0     C 6703   8.042   2.740   6.847  0.3235  0.6723  0.2750
  791MOL0     C 6704   7.776   2.370   6.980  0.7717  0.1265  0.3054
  791MOL0     C 6705   7.751   2.396   7.111 -0.1973 -1.0715 -0.7950
  791MOL0     C 6706   7.652   2.336   7.183 -0.7032 -0.0102 -0.3938
  791MOL0     C 6707   7.561   2.249   7.124 -0.3965 -0.5152 -0.9736
  791MOL0     O 6708   7.480   2.189   7.216  0.6866 -0.6028  0.5284
  791MOL0     C 6709   7.387   2.093   7.170 -0.2443  0.7173  0.6936
  791MOL0     C 6710   7.292   2.056   7.279  0.3661 -0.4414  0.2955
  791MOL0     C 6711   7.206   2.173   7.314  0.2941  0.5716 -0.2334
  791MOL0     C 6712   7.115   2.152   7.434 -0.4708 -0.7429  0.7663
  791MOL0     C 6713   7.171   2.123   7.561  0.3856 -0.5474 -0.0785
  791MOL0     C 6714   7.219   2.074   7.658 -0.8167  0.1444 -0.7006
  791MOL0     C 6715   7.567   2.239   6.984 -0.6239  0.4194 -0.0289
  791MOL0     C 6716   7.671   2.296   6.911 -0.3466 -0.6000  0.5547
  791MOL0     C 6717   7.674   2.268   6.764  0.1099  1.1470  0.3999
  791MOL0     H 6718   8.177   2.448   6.972 -2.3756 -0.6509  0.8494
  791MOL0     H 6719   8.390   2.574   6.886 -0.4865 -0.9881  1.5163
  791MOL0     H 6720   8.509   2.639   6.712  2.3296  0.6767 -0.3854
  791MOL0     H 6721   8.414   2.713   6.590  1.4299 -0.5834 -0.5687
  791MOL0     H 6722   8.633   2.858   6.731  0.4026 -2.3308  0.6764
  791MOL0     H 6723   8.553   2.914   6.581 -3.4810 -2.8204 -3.3488
  791MOL0     H 6724   8.771   2.819   6.522 -2.2120  1.1243 -2.1900
  791MOL0     H 6725   8.644   2.713   6.454 -0.9547  0.5394 -0.7851
  791MOL0     H 6726   8.776   2.656   6.718  0.7848  0.1541 -0.1926
  791MOL0     H 6727   8.684   2.536   6.613  1.0991 -0.4874  1.0889
  791MOL0     H 6728   8.895   2.474   6.584 -3.5146  0.6951  3.7381
  791MOL0     H 6729   8.851   2.572   6.436 -3.0708  0.2620  0.9337
  791MOL0     H 6730   8.994   2.727   6.664  1.3294 -0.7613  0.4013
  791MOL0     H 6731   9.088   2.591   6.608  0.1617 -0.5720 -0.1285
  791MOL0     H 6732   9.145   2.787   6.501  1.1330 -0.8413 -1.0497
  791MOL0     H 6733   8.980   2.818   6.446  0.0477  0.9183  2.9093
  791MOL0     H 6734   9.134   2.580   6.353  0.3930  0.7195  1.2750
  791MOL0     H 6735   8.981   2.656   6.281  0.3828  0.2488 -0.0033
  791MOL0     H 6736   9.331   2.788   6.379 -1.7180 -1.5866  0.9359
  791MOL0     H 6737   9.438   3.055   6.127  0.1756  0.2233  0.9038
  791MOL0     H 6738   9.444   3.021   6.295  0.9793  0.5652  0.9925
  791MOL0     H 6739   9.672   2.970   6.194  1.1781 -1.6016 -0.1483
  791MOL0     H 6740   9.589   2.827   6.264 -1.0999 -3.8721 -3.0049
  791MOL0     H 6741   9.621   2.904   5.968  0.8682  1.2509  1.1170
  791MOL0     H 6742   9.526   2.765   6.018  2.4846 -0.9218 -2.2886
  791MOL0     H 6743   9.733   2.679   5.945 -2.8397 -0.9942  0.6485
  791MOL0     H 6744   9.746   2.669   6.126  0.8858  3.3782  2.0186
  791MOL0     H 6745   9.957   2.584   5.940  0.3332 -1.8036  0.4391
  791MOL0     H 6746  10.206   2.517   5.976 -0.1491 -2.8421  2.3656
  791MOL0     H 6747  10.636   2.515   5.877  0.7205  3.0727 -0.1883
  791MOL0     H 6748  10.849   2.515   5.904 -1.1882  1.3666 -0.1102
  791MOL0     H 6749  11.056   2.474   5.960  1.0904  0.9333 -0.4274
  791MOL0     H 6750  11.089   2.623   6.043  0.1318 -0.0296 -1.7670
  791MOL0     H 6751  11.212   2.344   6.131  2.4386 -0.2040 -1.4757
  791MOL0     H 6752  11.299   2.457   6.024  2.3615 -1.9816  1.1560
  791MOL0     H 6753  11.207   2.518   6.306 -2.3126 -2.0832 -2.2416
  791MOL0     H 6754  11.367   2.446   6.270  0.2335 -1.0020 -1.0366
  791MOL0     H 6755  11.266   2.720   6.174 -1.6753 -1.2596  0.9401
  791MOL0     H 6756  11.416   2.640   6.120 -2.3032 -0.1475 -1.5992
  791MOL0     H 6757  11.371   2.690   6.411 -0.4014  2.2258  0.9576
  791MOL0     H 6758  11.469   2.793   6.301  0.7495 -0.5992 -1.5566
  791MOL0     H 6759  11.557   2.512   6.371  1.1234 -1.3394 -1.3845
  791MOL0     H 6760  11.619   2.612   6.245 -0.1305  0.3666 -0.1977
  791MOL0     H 6761  11.589   2.736   6.537  0.2920  2.0840  0.5897
  791MOL0     H 6762  11.661   2.811   6.402 -6.3587 -0.6301 -2.0140
  791MOL0     H 6763  11.775   2.565   6.508  1.4704 -0.9877 -1.3688
  791MOL0     H 6764  11.855   2.673   6.380  1.0072  1.0377  0.9848
  791MOL0     H 6765  10.805   2.428   6.330 -0.2904  2.5004  1.2595
  791MOL0     H 6766  10.569   2.446   6.301 -0.2140 -0.5251 -0.3995
  791MOL0     H 6767  10.257   2.869   6.215  0.1032  0.6572 -1.4976
  791MOL0     H 6768  10.035   2.916   6.202 -3.6608  0.6472 -1.2661
  791MOL0     H 6769   8.166   2.889   6.740  2.6725 -1.2538 -1.7858
  791MOL0     H 6770   7.952   2.798   6.833  0.7723  1.1246 -0.9048
  791MOL0     H 6771   7.828   2.452   7.163 -0.5575 -0.5146 -0.8502
  791MOL0     H 6772   7.642   2.359   7.289 -0.8839 -1.2285 -0.1286
  791MOL0     H 6773   7.427   1.999   7.131 -0.5070  1.3107 -1.1170
  791MOL0     H 6774   7.328   2.133   7.087 -0.9373  2.2133  1.8490
  791MOL0     H 6775   7.352   2.028   7.366 -0.8005 -1.6051  0.7606
  791MOL0     H 6776   7.227   1.974   7.248  0.2621  0.0380 -0.8207
  791MOL0     H 6777   7.151   2.213   7.228  0.6005  0.6025 -0.4201
  791MOL0     H 6778   7.274   2.256   7.334  0.9562  0.1264 -0.5918
  791MOL0     H 6779   7.056   2.242   7.451 -0.6734 -1.0193  1.5444
  791MOL0     H 6780   7.045   2.073   7.404  1.0984 -2.0114  0.2985
  791MOL0     H 6781   7.263   2.036   7.748  1.3028 -0.0453 -1.7519
  791MOL0     H 6782   7.488   2.184   6.934 -2.0295  1.8419  0.5433
  791MOL0     H 6783   7.574   2.258   6.720  0.1251 -2.6438  0.9272
  791MOL0     H 6784   7.714   2.358   6.717  1.0762  0.6389  0.2237
  791MOL0     H 6785   7.724   2.173   6.740 -0.8366  1.0838 -1.4931
  792MOL0     O 6786   5.953   7.356   4.625  0.4361 -0.0303  0.0282
  792MOL0     C 6787   5.945   7.478   4.603  0.1848 -1.0360 -0.1461
  792MOL0     O 6788   6.056   7.558   4.588 -0.4210 -0.3104  0.6615
  792MOL0     C 6789   6.180   7.512   4.623 -0.3582 -0.2190 -0.3204
  792MOL0     C 6790   6.203   7.473   4.751 -0.4813  0.0024  0.5578
  792MOL0     C 6791   6.334   7.451   4.787 -0.6113  1.1407 -0.4885
  792MOL0     C 6792   6.439   7.457   4.697 -0.8440  0.1418  0.1587
  792MOL0     O 6793   6.576   7.434   4.731  0.1928 -0.1114 -0.1416
  792MOL0     C 6794   6.611   7.449   4.867 -0.3876  0.0579  0.3771
  792MOL0     C 6795   6.765   7.436   4.880  0.2110 -0.4148  0.1531
  792MOL0     C 6796   6.830   7.565   4.827  0.7615  0.5415  0.2304
  792MOL0     C 6797   6.977   7.526   4.828 -0.1695  0.6574 -0.1143
  792MOL0     C 6798   7.061   7.655   4.797 -0.4574 -0.0541  1.0100
  792MOL0     C 6799   7.214   7.662   4.805  0.6167  0.3273  0.2967
  792MOL0     C 6800   7.289   7.568   4.897  0.0964  0.4171 -0.1927
  792MOL0     C 6801   7.326   7.442   4.817  0.2997  0.4868  0.0728
  792MOL0     N 6802   7.450   7.370   4.869  0.1641 -0.4370 -0.1953
  792MOL0     C 6803   7.541   7.419   4.964  0.9240 -0.7385  0.3026
  792MOL0     C 6804   7.635   7.331   4.988  0.0646 -0.6636 -0.3892
  792MOL0     C 6805   7.765   7.349   5.061  0.8317 -0.1959 -0.5949
  792MOL0     C 6806   7.889   7.344   4.977  0.9860 -0.8535 -0.9002
  792MOL0     C 6807   7.928   7.485   4.920 -0.6539  1.0071 -0.1060
  792MOL0     C 6808   8.037   7.493   4.810 -0.1885 -0.5346 -0.5361
  792MOL0     O 6809   8.142   7.404   4.866  0.4779 -0.0537  0.4546
  792MOL0     C 6810   8.269   7.401   4.810 -0.0384 -0.1321 -0.3548
  792MOL0     C 6811   8.363   7.314   4.871 -0.1070  0.2727 -0.0535
  792MOL0     C 6812   8.495   7.302   4.824 -0.8979  0.1536 -0.2088
  792MOL0     C 6813   8.540   7.387   4.725  0.3277 -0.0250  0.4674
  792MOL0     C 6814   8.677   7.378   4.678  0.3204 -0.3966  0.4161
  792MOL0     O 6815   8.711   7.426   4.559 -0.0275  0.2688 -0.6949
  792MOL0     C 6816   8.834   7.423   4.517 -0.8205  0.6174  0.1116
  792MOL0     C 6817   8.937   7.491   4.592  0.3595  0.6844  0.8826
  792MOL0     C 6818   9.064   7.492   4.541  0.1706 -0.0603  0.2155
  792MOL0     C 6819   9.091   7.418   4.423 -0.4047  1.1337 -0.3961
  792MOL0     O 6820   9.221   7.422   4.396  0.2900 -0.4118 -0.0609
  792MOL0     C 6821   9.263   7.377   4.266 -0.9508  1.2180 -0.1273
  792MOL0     C 6822   9.413   7.423   4.240 -0.6398  0.1688 -0.0152
  792MOL0     C 6823   9.520   7.366   4.343  0.3551  0.2467  0.8375
  792MOL0     C 6824   9.657   7.438   4.324  0.5386  0.9709  0.1038
  792MOL0     C 6825   9.740   7.415   4.446 -0.4882 -0.8257 -0.1471
  792MOL0     C 6826   9.873   7.494   4.432 -0.4293  0.7284 -0.4902
  792MOL0     C 6827   9.969   7.518   4.561  0.4172 -0.0528 -0.4505
  792MOL0     C 6828   9.923   7.625   4.664 -0.4383 -0.2478 -0.1709
  792MOL0    Cl 6829  10.023   7.629   4.820 -0.2884 -0.1302  0.1760
  792MOL0     C 6830   8.991   7.358   4.351 -0.6791 -0.0643  0.7977
  792MOL0     C 6831   8.864   7.359   4.397  0.0052  0.0605 -1.3353
  792MOL0     O 6832   8.756   7.325   4.757  0.6366  0.5512  0.4641
  792MOL0     C 6833   8.445   7.471   4.659 -0.6707 -0.7179 -0.8414
  792MOL0     C 6834   8.313   7.486   4.708  1.1249 -0.3849  0.0301
  792MOL0     N 6835   7.599   7.223   4.908  0.3115 -0.1937 -0.0660
  792MOL0     N 6836   7.495   7.248   4.836  0.8651 -0.2449 -0.1544
  792MOL0     C 6837   6.410   7.463   4.563  0.1600 -0.1452  0.7010
  792MOL0     C 6838   6.280   7.499   4.527  1.0558  0.9928 -0.8514
  792MOL0     C 6839   5.810   7.545   4.592  1.1512 -0.0177  0.5609
  792MOL0     C 6840   5.802   7.671   4.539  0.6998 -0.6805 -0.0455
  792MOL0     C 6841   5.671   7.735   4.519 -0.3373  0.5266 -0.0951
  792MOL0     C 6842   5.552   7.671   4.558 -0.4614 -0.4077  0.1962
  792MOL0     O 6843   5.432   7.745   4.548  0.1714 -0.1212 -0.3823
  792MOL0     C 6844   5.322   7.672   4.488 -0.2622  0.1357 -0.6783
  792MOL0     C 6845   5.227   7.631   4.587 -0.7993  1.1852  0.3615
  792MOL0     C 6846   5.103   7.577   4.513 -0.6607  0.6087  0.4165
  792MOL0     C 6847   5.033   7.477   4.600 -0.5998 -0.2344  0.6342
  792MOL0     C 6848   4.919   7.431   4.513  0.8136 -0.6260 -0.6674
  792MOL0     C 6849   4.832   7.417   4.427 -1.3045 -0.9344 -0.4320
  792MOL0     C 6850   5.557   7.548   4.619  0.0978  0.4060  0.2962
  792MOL0     C 6851   5.681   7.484   4.633 -0.8625  0.1878 -0.3509
  792MOL0     C 6852   5.680   7.357   4.711  0.6812  0.5703 -0.1194
  792MOL0     H 6853   6.120   7.478   4.820  0.7689  0.0516  2.1445
  792MOL0     H 6854   6.354   7.430   4.892 -2.6854 -1.0858 -0.4542
  792MOL0     H 6855   6.576   7.548   4.900  0.3535 -0.3624  2.5600
  792MOL0     H 6856   6.564   7.377   4.934 -0.0173  2.6075  3.6237
  792MOL0     H 6857   6.784   7.350   4.814 -1.3149 -1.2837  0.7800
  792MOL0     H 6858   6.795   7.408   4.981 -0.6011 -3.5405 -0.3435
  792MOL0     H 6859   6.803   7.645   4.897  4.4851  2.1506  0.0271
  792MOL0     H 6860   6.802   7.590   4.725 -0.7665 -2.1786 -0.1135
  792MOL0     H 6861   7.001   7.482   4.925  1.1605  1.8157  0.1029
  792MOL0     H 6862   6.997   7.449   4.753  1.7777 -0.5015  1.5060
  792MOL0     H 6863   7.031   7.705   4.704 -0.5006  0.0978  1.1043
  792MOL0     H 6864   7.027   7.722   4.876  1.3216  0.6792  1.1912
  792MOL0     H 6865   7.248   7.657   4.701 -0.6832  1.7474 -0.2222
  792MOL0     H 6866   7.242   7.761   4.843 -0.2745  0.6126  0.2260
  792MOL0     H 6867   7.230   7.541   4.985  0.7797 -1.3254 -0.2251
  792MOL0     H 6868   7.378   7.623   4.928 -1.2289  1.6516  1.6713
  792MOL0     H 6869   7.241   7.374   4.828 -0.6519  1.6192 -0.0648
  792MOL0     H 6870   7.343   7.469   4.713 -2.3665  0.8782 -0.3130
  792MOL0     H 6871   7.535   7.522   4.999 -0.4675 -1.3769  2.1359
  792MOL0     H 6872   7.764   7.452   5.099  1.0716 -0.4865  0.2284
  792MOL0     H 6873   7.778   7.275   5.141  1.5449 -1.2306 -1.6425
  792MOL0     H 6874   7.974   7.313   5.038 -0.2162 -0.9953  0.7835
  792MOL0     H 6875   7.886   7.268   4.898  4.0738 -1.5036 -0.4992
  792MOL0     H 6876   7.968   7.541   5.005 -0.2872 -0.5142  0.7602
  792MOL0     H 6877   7.838   7.529   4.875 -0.0448  2.9855  0.4779
  792MOL0     H 6878   8.077   7.595   4.803  0.9629 -0.8214  1.2944
  792MOL0     H 6879   7.999   7.464   4.712  0.8804  0.4768 -1.2745
  792MOL0     H 6880   8.337   7.264   4.964  1.1119  1.6972  1.1130
  792MOL0     H 6881   8.556   7.240   4.889 -2.1922  0.0110  0.8983
  792MOL0     H 6882   8.902   7.537   4.684  1.9985 -1.4291  2.6826
  792MOL0     H 6883   9.140   7.551   4.592  0.0633 -0.7578  1.2020
  792MOL0     H 6884   9.258   7.268   4.263 -0.0149  1.1062  1.1827
  792MOL0     H 6885   9.202   7.419   4.186  0.5666  1.5984 -1.1293
  792MOL0     H 6886   9.452   7.383   4.146  3.4770 -0.7160  1.8418
  792MOL0     H 6887   9.429   7.531   4.254  1.0712 -0.0689  0.0082
  792MOL0     H 6888   9.485   7.375   4.446  0.0673 -2.3128  1.0365
  792MOL0     H 6889   9.535   7.261   4.316 -1.2841  1.0443 -4.1178
  792MOL0     H 6890   9.636   7.545   4.318 -0.4392  0.7371 -1.0235
  792MOL0     H 6891   9.698   7.399   4.231 -2.4387  0.6400 -1.1862
  792MOL0     H 6892   9.776   7.312   4.449  2.0357 -0.1970 -2.9668
  792MOL0     H 6893   9.682   7.435   4.536 -1.0224 -1.8179 -0.2550
  792MOL0     H 6894   9.934   7.448   4.354  0.5763  0.5519  0.3668
  792MOL0     H 6895   9.849   7.591   4.386  0.8073  1.1030 -0.3990
  792MOL0     H 6896  10.072   7.532   4.525  0.0811  1.3420 -0.9131
  792MOL0     H 6897   9.965   7.427   4.622  0.4158  1.3969  1.8657
  792MOL0     H 6898   9.917   7.727   4.624  1.9652 -0.1157 -0.3698
  792MOL0     H 6899   9.822   7.603   4.701 -1.6693 -0.3780 -3.3261
  792MOL0     H 6900   9.016   7.299   4.264 -1.4102  1.4323 -0.4790
  792MOL0     H 6901   8.794   7.304   4.334 -1.7254 -0.0685  0.5866
  792MOL0     H 6902   8.495   7.531   4.584  0.4112 -2.5206 -1.6007
  792MOL0     H 6903   8.263   7.572   4.665  0.8197 -0.5352  0.0863
  792MOL0     H 6904   6.487   7.448   4.488 -0.5138  0.4382 -0.1355
  792MOL0     H 6905   6.257   7.534   4.427 -0.2161  3.0535  0.0925
  792MOL0     H 6906   5.883   7.725   4.492  0.9175 -1.7259 -0.9108
  792MOL0     H 6907   5.656   7.826   4.461  0.4718 -0.4214 -1.8606
  792MOL0     H 6908   5.353   7.579   4.440 -3.2774 -1.7862  0.7812
  792MOL0     H 6909   5.291   7.741   4.409 -0.3316 -0.7294 -1.4160
  792MOL0     H 6910   5.198   7.703   4.665  1.1967  0.5516  1.7548
  792MOL0     H 6911   5.261   7.543   4.642 -2.7400 -0.8484 -1.5123
  792MOL0     H 6912   5.136   7.516   4.428  0.9370 -0.4765  1.7636
  792MOL0     H 6913   5.039   7.658   4.477  1.2453  1.0032 -2.4926
  792MOL0     H 6914   5.102   7.396   4.625  2.2942  1.8142 -0.1522
  792MOL0     H 6915   4.995   7.524   4.691 -0.6506  0.3302  0.3258
  792MOL0     H 6916   4.763   7.393   4.349 -0.1926  0.9171 -2.0693
  792MOL0     H 6917   5.460   7.500   4.627 -1.5532  3.1836 -1.3699
  792MOL0     H 6918   5.675   7.270   4.646 -0.3557  1.8694 -1.8818
  792MOL0     H 6919   5.767   7.350   4.776  0.0812 -0.6190  0.5763
  792MOL0     H 6920   5.597   7.345   4.781  0.9540 -2.2413 -0.1691
  793MOL0     O 6921   6.810  10.922   0.244 -0.0018  0.2233  0.9280
  793MOL0     C 6922   6.752  11.035   0.233  0.9951 -0.3544  0.4271
  793MOL0     O 6923   6.819  11.149   0.192  0.1857  0.5354  0.3436
  793MOL0     C 6924   6.957  11.168   0.219 -0.6370  1.1050 -0.0184
  793MOL0     C 6925   7.026  11.095   0.320 -0.4818  1.0065 -0.2119
  793MOL0     C 6926   7.163  11.115   0.325  0.9327  0.5675  0.2468
  793MOL0     C 6927   7.241  11.214   0.259  0.1453 -0.7021  0.0391
  793MOL0     O 6928   7.370  11.243   0.306  0.2883 -0.3821 -0.4593
  793MOL0     C 6929   7.448  11.345   0.238 -0.1331 -0.2009  0.2539
  793MOL0     C 6930   7.586  11.359   0.291 -0.0732  0.3614 -1.3311
  793MOL0     C 6931   7.680  11.440   0.199  0.0390 -1.0878  0.3151
  793MOL0     C 6932   7.703  11.576   0.268 -0.3375 -0.7152 -0.1870
  793MOL0     C 6933   7.789  11.668   0.172  0.6707  0.6207 -0.7644
  793MOL0     C 6934   7.828  11.803   0.245 -0.2492  0.4833  0.7546
  793MOL0     C 6935   7.958  11.779   0.315  0.9874  1.0903  1.1318
  793MOL0     C 6936   8.074  11.838   0.232  0.1130  0.5902  0.8506
  793MOL0     N 6937   8.122  11.962   0.287 -0.0243  0.4457  0.2200
  793MOL0     C 6938   8.198  11.972   0.403  0.3517 -1.0591  0.1616
  793MOL0     C 6939   8.237  12.105   0.414 -0.0786  0.6419  0.8169
  793MOL0     C 6940   8.307  12.162   0.528 -0.4399  0.2639  0.5598
  793MOL0     C 6941   8.212  12.231   0.631 -0.3527  0.3698  0.2186
  793MOL0     C 6942   8.299  12.312   0.732  0.4931 -0.7840  0.2835
  793MOL0     C 6943   8.391  12.232   0.831 -0.0250  0.4265  0.2239
  793MOL0     O 6944   8.469  12.307   0.917  0.1335 -0.2280 -0.8383
  793MOL0     C 6945   8.563  12.395   0.872 -1.0542  0.1594  0.3833
  793MOL0     C 6946   8.642  12.384   0.755 -0.0246 -0.1337 -0.0793
  793MOL0     C 6947   8.752  12.464   0.722  0.5883  0.5293 -0.5823
  793MOL0     C 6948   8.801  12.549   0.815  0.2189  0.2296 -0.4127
  793MOL0     C 6949   8.920  12.630   0.791  0.0264  0.9257  0.4100
  793MOL0     O 6950   8.995  12.589   0.683 -0.3804 -0.0894  0.2535
  793MOL0     C 6951   9.117  12.642   0.641 -0.5762 -0.0669  0.4326
  793MOL0     C 6952   9.210  12.724   0.710  0.5906 -0.3104  0.4017
  793MOL0     C 6953   9.338  12.744   0.657 -0.2739  0.7177 -0.1346
  793MOL0     C 6954   9.373  12.709   0.521 -0.4498 -0.8139 -0.2686
  793MOL0     O 6955   9.499  12.732   0.461 -0.0132 -0.0886  0.6344
  793MOL0     C 6956   9.591  12.829   0.512  0.2970 -0.4647 -0.5898
  793MOL0     C 6957   9.716  12.819   0.426 -0.4997  0.1229  0.1799
  793MOL0     C 6958   9.695  12.896   0.297 -0.3393  0.9558  0.3083
  793MOL0     C 6959   9.716  13.050   0.300 -0.3421  0.2891  0.1441
  793MOL0     C 6960   9.700  13.111   0.164  0.3019  0.3601  0.1344
  793MOL0     C 6961   9.711  13.267   0.183 -0.3907  0.4058 -0.1745
  793MOL0     C 6962   9.759  13.326   0.057  0.2533 -0.3990  0.2202
  793MOL0     C 6963   9.797  13.473   0.083 -0.8006 -0.3781 -0.3575
  793MOL0    Cl 6964   9.824  13.580  -0.056 -0.6425 -0.2626  0.2070
  793MOL0     C 6965   9.287  12.637   0.459  0.4177  0.8379 -0.1190
  793MOL0     C 6966   9.158  12.604   0.511  0.7232 -0.1566 -1.1236
  793MOL0     O 6967   8.948  12.721   0.870 -0.2140 -0.2333  0.8803
  793MOL0     C 6968   8.731  12.559   0.938 -0.0045  0.2909  0.2283
  793MOL0     C 6969   8.623  12.479   0.964 -0.7422 -0.5428  0.3919
  793MOL0     N 6970   8.186  12.179   0.307  0.0252  0.5360  1.3459
  793MOL0     N 6971   8.122  12.090   0.233 -0.0588 -0.5264 -0.5175
  793MOL0     C 6972   7.174  11.275   0.156  0.3322 -0.5818  0.6814
  793MOL0     C 6973   7.034  11.248   0.126  0.4181  0.0376 -0.7609
  793MOL0     C 6974   6.601  11.043   0.262 -0.1718  0.1706 -0.4307
  793MOL0     C 6975   6.538  10.923   0.303 -0.1609  0.6234 -0.2304
  793MOL0     C 6976   6.399  10.917   0.321 -0.4726  0.3272 -0.2447
  793MOL0     C 6977   6.316  11.032   0.309  0.1100 -0.6246  0.4948
  793MOL0     O 6978   6.181  11.015   0.344 -0.3303 -0.0544 -0.4613
  793MOL0     C 6979   6.087  11.123   0.330  0.5293  0.4700 -0.5150
  793MOL0     C 6980   5.945  11.073   0.378  0.2956  0.9943  0.1039
  793MOL0     C 6981   5.950  11.091   0.533  0.4041  0.1762 -0.2091
  793MOL0     C 6982   5.824  11.031   0.612  1.1131 -0.3992  0.8363
  793MOL0     C 6983   5.690  11.062   0.542 -0.9083 -0.0322 -0.9461
  793MOL0     C 6984   5.590  11.103   0.479 -0.1649 -0.0457 -0.2449
  793MOL0     C 6985   6.373  11.147   0.264 -0.5677  0.3887 -0.5876
  793MOL0     C 6986   6.516  11.158   0.247 -0.6122  1.1240  0.4162
  793MOL0     C 6987   6.568  11.287   0.197  0.6701  0.7212 -0.4250
  793MOL0     H 6988   6.970  11.023   0.379 -1.8822  0.1471 -2.4473
  793MOL0     H 6989   7.199  11.046   0.401  2.5406 -1.7969 -2.4629
  793MOL0     H 6990   7.456  11.330   0.130 -0.8374 -0.9538  0.2964
  793MOL0     H 6991   7.398  11.440   0.261 -1.8472 -1.4407  1.9813
  793MOL0     H 6992   7.646  11.268   0.300  0.2314  0.7573  1.2785
  793MOL0     H 6993   7.582  11.400   0.392 -0.1098 -4.5350  0.9267
  793MOL0     H 6994   7.642  11.453   0.097 -1.1140  0.2758  0.8846
  793MOL0     H 6995   7.783  11.404   0.198  0.2804 -0.4012 -0.6164
  793MOL0     H 6996   7.606  11.621   0.292  0.2553  1.2345 -1.1624
  793MOL0     H 6997   7.762  11.562   0.358  1.1227  0.4069 -0.9265
  793MOL0     H 6998   7.879  11.617   0.136 -0.0168 -1.2959  0.0676
  793MOL0     H 6999   7.723  11.697   0.089  0.7097 -0.5816 -1.2412
  793MOL0     H 7000   7.847  11.883   0.173 -1.1819  1.3894  1.4939
  793MOL0     H 7001   7.751  11.852   0.305  0.7020  0.0661  2.3787
  793MOL0     H 7002   7.978  11.671   0.321  0.6127  0.5758 -3.6423
  793MOL0     H 7003   7.942  11.823   0.414 -3.1815 -1.4980  1.8398
  793MOL0     H 7004   8.153  11.763   0.243 -0.1432 -0.6578 -3.6546
  793MOL0     H 7005   8.041  11.834   0.128 -3.3424 -1.6060  1.8502
  793MOL0     H 7006   8.221  11.890   0.469  2.2230 -1.6558 -1.1481
  793MOL0     H 7007   8.361  12.086   0.585  1.0866  1.9911  1.5104
  793MOL0     H 7008   8.380  12.240   0.508  0.5623 -0.1582  2.3618
  793MOL0     H 7009   8.138  12.294   0.581  0.6287 -0.4384 -2.4268
  793MOL0     H 7010   8.169  12.145   0.683  0.4311 -0.3276 -0.2585
  793MOL0     H 7011   8.224  12.359   0.796  0.0880 -0.5178 -0.3688
  793MOL0     H 7012   8.356  12.386   0.675 -1.7631 -0.7789 -2.1874
  793MOL0     H 7013   8.447  12.158   0.772 -1.4612 -0.2814 -0.3158
  793MOL0     H 7014   8.323  12.176   0.896  0.1855  0.8145  0.7737
  793MOL0     H 7015   8.607  12.311   0.684  0.5712  0.2041 -0.7330
  793MOL0     H 7016   8.795  12.448   0.623 -0.4939  2.8059 -1.4858
  793MOL0     H 7017   9.187  12.745   0.814 -0.3088  0.7767 -0.0058
  793MOL0     H 7018   9.415  12.800   0.708  0.9394  0.9761 -2.1435
  793MOL0     H 7019   9.550  12.930   0.512 -0.6142 -0.8136  0.4164
  793MOL0     H 7020   9.633  12.809   0.611  2.2166 -2.4940 -1.7146
  793MOL0     H 7021   9.801  12.865   0.477 -0.0143  0.7894 -1.1624
  793MOL0     H 7022   9.733  12.713   0.408 -0.7851  0.0045  0.5988
  793MOL0     H 7023   9.774  12.872   0.226  0.7579 -1.0381  2.0495
  793MOL0     H 7024   9.603  12.865   0.247  0.5025 -0.2271 -0.5715
  793MOL0     H 7025   9.819  13.059   0.334 -0.1866 -2.7582  0.7568
  793MOL0     H 7026   9.639  13.094   0.364 -3.2358 -2.7599 -0.9554
  793MOL0     H 7027   9.605  13.074   0.125  0.9241 -0.4164 -0.6962
  793MOL0     H 7028   9.780  13.080   0.097 -0.4437 -0.0090 -0.6021
  793MOL0     H 7029   9.609  13.292   0.215 -0.7182 -2.4585  1.2908
  793MOL0     H 7030   9.787  13.280   0.260  0.8578  1.1656 -1.4875
  793MOL0     H 7031   9.671  13.337  -0.008  0.3710  2.2441  0.3996
  793MOL0     H 7032   9.834  13.266   0.004 -3.0309 -3.3773 -1.5117
  793MOL0     H 7033   9.723  13.514   0.153 -0.6833  0.0317 -0.4723
  793MOL0     H 7034   9.895  13.462   0.130  0.1208  2.0510 -1.5134
  793MOL0     H 7035   9.321  12.597   0.364  0.3153  3.3900 -1.2881
  793MOL0     H 7036   9.090  12.544   0.450 -1.4060  2.8417 -1.9321
  793MOL0     H 7037   8.758  12.631   1.015  0.4807  0.3118  0.0432
  793MOL0     H 7038   8.559  12.479   1.052 -0.9227 -1.6555  0.2686
  793MOL0     H 7039   7.218  11.361   0.106 -2.1662 -0.6505 -1.8948
  793MOL0     H 7040   6.982  11.291   0.040  0.4783 -0.0601 -0.8455
  793MOL0     H 7041   6.595  10.833   0.323 -1.2702 -0.3140 -1.0916
  793MOL0     H 7042   6.362  10.824   0.363  0.2367 -0.0547 -0.4559
  793MOL0     H 7043   6.080  11.156   0.226  1.2554  3.0820  0.1843
  793MOL0     H 7044   6.117  11.207   0.393  0.4503 -1.0130  1.6133
  793MOL0     H 7045   5.930  10.968   0.350  0.1272  0.7297  1.1375
  793MOL0     H 7046   5.859  11.127   0.337  1.2821  2.2355 -0.3918
  793MOL0     H 7047   5.957  11.199   0.552  1.1267  0.4324 -1.7575
  793MOL0     H 7048   6.041  11.045   0.571 -0.9442 -0.1064  3.0512
  793MOL0     H 7049   5.824  10.923   0.624  1.6570 -0.4775  0.2526
  793MOL0     H 7050   5.816  11.065   0.716  0.1391  1.1514  0.3014
  793MOL0     H 7051   5.512  11.147   0.422  0.7675  0.7455 -0.9450
  793MOL0     H 7052   6.321  11.242   0.259  1.8403  1.8041 -0.1010
  793MOL0     H 7053   6.481  11.350   0.174 -1.3421 -1.7132  0.1322
  793MOL0     H 7054   6.628  11.336   0.274 -0.2645  3.5739 -1.3876
  793MOL0     H 7055   6.632  11.267   0.110  0.8097 -0.7341 -0.0064
  794MOL0     O 7056   7.323   5.997   0.091 -0.0211  0.4231 -0.3267
  794MOL0     C 7057   7.380   6.086   0.152 -0.6969  0.5503  0.3250
  794MOL0     O 7058   7.510   6.137   0.116  0.3237 -0.3773  0.2652
  794MOL0     C 7059   7.598   6.075   0.030  0.0867 -0.4355 -0.4326
  794MOL0     C 7060   7.586   5.965  -0.053 -1.0191  0.1132 -0.3261
  794MOL0     C 7061   7.691   5.924  -0.130 -0.1727  0.5614 -0.3186
  794MOL0     C 7062   7.824   5.971  -0.117 -0.1798  0.1917 -0.4587
  794MOL0     O 7063   7.930   5.932  -0.206  0.1507  0.4973  0.5857
  794MOL0     C 7064   7.883   5.930  -0.345  0.3899 -0.1224  0.3161
  794MOL0     C 7065   8.008   5.982  -0.417 -0.1101  0.6635 -0.0121
  794MOL0     C 7066   8.069   6.120  -0.376  0.4367  0.7757 -0.2644
  794MOL0     C 7067   8.198   6.154  -0.441  0.4121 -0.0582 -0.5291
  794MOL0     C 7068   8.185   6.189  -0.588  0.5160  0.2019  0.3743
  794MOL0     C 7069   8.306   6.266  -0.632  0.7805  0.6107  0.2443
  794MOL0     C 7070   8.442   6.182  -0.651  0.3653  1.2027 -0.4135
  794MOL0     C 7071   8.572   6.266  -0.647 -0.1544 -0.3204 -0.7731
  794MOL0     N 7072   8.688   6.187  -0.673 -0.9369 -1.1719 -0.8191
  794MOL0     C 7073   8.815   6.237  -0.672 -0.6075 -0.2361  0.0109
  794MOL0     C 7074   8.895   6.138  -0.716  0.0641  0.7087 -0.2078
  794MOL0     C 7075   9.040   6.159  -0.729 -0.2076 -0.4470 -0.0725
  794MOL0     C 7076   9.117   6.064  -0.639 -0.4774  0.6689  0.5225
  794MOL0     C 7077   9.263   6.056  -0.669 -0.1355 -0.9827 -0.2231
  794MOL0     C 7078   9.335   5.970  -0.571  0.2058 -0.2004 -0.5463
  794MOL0     O 7079   9.414   5.883  -0.648 -0.4961  0.0929 -0.3849
  794MOL0     C 7080   9.474   5.773  -0.591  0.3202  0.1811  0.2257
  794MOL0     C 7081   9.517   5.769  -0.459 -0.2054 -0.1774 -0.3546
  794MOL0     C 7082   9.594   5.661  -0.410 -0.0480  0.5819 -0.3838
  794MOL0     C 7083   9.635   5.559  -0.493 -0.3441  0.4942 -0.0076
  794MOL0     C 7084   9.727   5.457  -0.433 -0.8533 -0.3372  0.7246
  794MOL0     O 7085   9.730   5.452  -0.298  0.9362  0.0400 -0.1169
  794MOL0     C 7086   9.809   5.357  -0.250 -0.2084  0.5076 -0.0921
  794MOL0     C 7087   9.752   5.228  -0.233  0.2894 -0.6278  0.2213
  794MOL0     C 7088   9.826   5.127  -0.177 -0.1812  0.0236 -0.4501
  794MOL0     C 7089   9.959   5.150  -0.129 -0.7972  0.0757  0.3854
  794MOL0     O 7090  10.037   5.069  -0.059  0.1540 -0.4429 -0.0239
  794MOL0     C 7091   9.999   4.933  -0.025 -0.1412  0.0453  0.1089
  794MOL0     C 7092  10.086   4.886   0.094  0.0662 -0.2465  0.2267
  794MOL0     C 7093  10.053   4.970   0.220 -0.5636 -0.2646 -0.0358
  794MOL0     C 7094   9.909   4.993   0.260  0.2278  0.3784  1.0898
  794MOL0     C 7095   9.900   5.074   0.384  0.3426 -0.7297  0.4512
  794MOL0     C 7096   9.761   5.129   0.414 -0.0293  0.6931 -0.3952
  794MOL0     C 7097   9.728   5.138   0.567 -1.4311  0.2778  1.0910
  794MOL0     C 7098   9.591   5.198   0.582  0.0812  0.2122 -0.3753
  794MOL0    Cl 7099   9.455   5.123   0.483  0.1384  0.1239 -0.3005
  794MOL0     C 7100  10.012   5.278  -0.150 -0.1782 -0.3856  0.1815
  794MOL0     C 7101   9.941   5.385  -0.202 -0.2491  0.3638 -0.7694
  794MOL0     O 7102   9.788   5.386  -0.508 -0.4268  0.3227  0.0040
  794MOL0     C 7103   9.585   5.554  -0.623 -0.2708 -0.9424  0.7829
  794MOL0     C 7104   9.498   5.660  -0.665 -0.0271 -0.3533  0.9620
  794MOL0     N 7105   8.822   6.028  -0.740  0.2388  0.5315  1.3059
  794MOL0     N 7106   8.702   6.056  -0.711  0.9095  0.1740 -0.1006
  794MOL0     C 7107   7.836   6.083  -0.026 -0.1708 -0.5443  0.1344
  794MOL0     C 7108   7.724   6.127   0.044  0.4845  1.0601  0.0097
  794MOL0     C 7109   7.310   6.153   0.262  0.2369 -0.0018 -0.6740
  794MOL0     C 7110   7.361   6.282   0.304  0.0220  0.4963  0.1508
  794MOL0     C 7111   7.296   6.354   0.404  0.8579  0.3994 -0.0736
  794MOL0     C 7112   7.183   6.315   0.468  0.1026 -0.1703 -0.8524
  794MOL0     O 7113   7.139   6.391   0.571  0.4184  0.8050 -0.1309
  794MOL0     C 7114   7.045   6.490   0.538  0.3427  0.2837  0.5583
  794MOL0     C 7115   6.940   6.507   0.644  0.5223 -0.7013  0.0031
  794MOL0     C 7116   6.844   6.627   0.623 -0.3545  0.0092  0.6521
  794MOL0     C 7117   6.895   6.763   0.651 -0.1748 -0.5332 -1.1058
  794MOL0     C 7118   6.953   6.785   0.787 -0.1755 -0.3801  0.0502
  794MOL0     C 7119   7.033   6.810   0.870  0.2109 -0.5244 -0.7379
  794MOL0     C 7120   7.131   6.195   0.418 -0.2623  0.5401 -0.1449
  794MOL0     C 7121   7.186   6.110   0.317  0.0650 -0.3982  0.0238
  794MOL0     C 7122   7.124   5.973   0.301  0.7760  0.1944  0.1243
  794MOL0     H 7123   7.489   5.921  -0.074 -0.2493 -2.2624  0.7574
  794MOL0     H 7124   7.670   5.837  -0.192 -0.9755 -0.6407  1.5456
  794MOL0     H 7125   7.854   5.828  -0.372 -0.7163 -0.4543  2.4837
  794MOL0     H 7126   7.799   5.996  -0.368 -0.2295 -0.1894  2.2175
  794MOL0     H 7127   7.985   5.982  -0.524 -1.2034 -0.3641  0.2001
  794MOL0     H 7128   8.092   5.914  -0.397 -0.0336  1.5283  3.2618
  794MOL0     H 7129   8.085   6.131  -0.269 -1.5109  0.1292  0.1222
  794MOL0     H 7130   7.983   6.178  -0.409 -3.0979 -4.1862 -0.9018
  794MOL0     H 7131   8.231   6.246  -0.393 -1.4096  0.5938 -0.4786
  794MOL0     H 7132   8.268   6.071  -0.424 -0.4794 -0.4051  1.8070
  794MOL0     H 7133   8.175   6.103  -0.654  1.5228  1.5199 -1.6117
  794MOL0     H 7134   8.108   6.267  -0.584  0.8348  0.4768  1.2717
  794MOL0     H 7135   8.289   6.312  -0.729  1.5116 -3.6687 -2.1642
  794MOL0     H 7136   8.323   6.348  -0.561 -0.7429  1.6804 -0.5727
  794MOL0     H 7137   8.440   6.121  -0.741 -0.9180  2.4146 -1.2475
  794MOL0     H 7138   8.462   6.116  -0.566  1.6617  1.5147 -0.4536
  794MOL0     H 7139   8.562   6.328  -0.736 -3.7447  1.3310  0.5955
  794MOL0     H 7140   8.572   6.326  -0.555 -2.9596 -1.4683  0.0831
  794MOL0     H 7141   8.855   6.337  -0.657  1.6597 -0.8003 -1.6840
  794MOL0     H 7142   9.064   6.147  -0.835 -1.7734  0.6318 -0.5994
  794MOL0     H 7143   9.066   6.258  -0.692 -1.8559  0.5161 -1.3256
  794MOL0     H 7144   9.108   6.101  -0.536 -1.2425  0.2980  0.5968
  794MOL0     H 7145   9.067   5.968  -0.649 -0.6994  0.8335  0.0275
  794MOL0     H 7146   9.298   6.159  -0.680  0.3280 -1.2965 -2.1395
  794MOL0     H 7147   9.276   6.017  -0.770 -0.1659  2.2898 -1.6150
  794MOL0     H 7148   9.270   5.914  -0.504  1.3027  0.5041  1.1789
  794MOL0     H 7149   9.397   6.032  -0.506  2.0139 -0.8985 -1.5209
  794MOL0     H 7150   9.499   5.857  -0.398  3.6875  0.9477 -0.5590
  794MOL0     H 7151   9.627   5.668  -0.307 -1.2509  0.2646  0.0438
  794MOL0     H 7152   9.649   5.206  -0.263  0.2730  1.7322 -1.7423
  794MOL0     H 7153   9.800   5.023  -0.156  0.9836 -0.2653 -0.3171
  794MOL0     H 7154   9.895   4.935   0.010 -0.1330 -0.9630  0.1964
  794MOL0     H 7155  10.009   4.859  -0.104  0.4714  2.3295 -2.0850
  794MOL0     H 7156  10.069   4.781   0.119 -1.5976  0.0663  0.4939
  794MOL0     H 7157  10.190   4.906   0.068 -0.0588 -0.7844 -0.6997
  794MOL0     H 7158  10.103   4.912   0.298 -0.1467 -2.2459 -1.7132
  794MOL0     H 7159  10.101   5.068   0.213 -2.8086  0.8807 -0.4697
  794MOL0     H 7160   9.872   4.892   0.280  0.1022  0.6921  2.5781
  794MOL0     H 7161   9.846   5.037   0.182  0.0470 -0.0345  1.0003
  794MOL0     H 7162   9.972   5.156   0.375  0.0496 -0.5300 -0.1475
  794MOL0     H 7163   9.924   5.003   0.464  0.0917  0.0305  1.2182
  794MOL0     H 7164   9.768   5.228   0.368 -1.3443  0.9407 -0.0970
  794MOL0     H 7165   9.688   5.062   0.368  0.9582 -1.0361  0.4512
  794MOL0     H 7166   9.805   5.194   0.621 -0.2124  0.1100 -0.4081
  794MOL0     H 7167   9.718   5.037   0.609 -1.6818 -0.5347 -0.8094
  794MOL0     H 7168   9.572   5.180   0.688  3.7082 -0.9800  0.2251
  794MOL0     H 7169   9.601   5.306   0.566 -0.7710  0.2844 -0.4498
  794MOL0     H 7170  10.111   5.290  -0.108  1.3255 -1.5005 -2.7690
  794MOL0     H 7171   9.975   5.488  -0.207 -0.5784  0.4298 -1.7466
  794MOL0     H 7172   9.619   5.477  -0.691  2.0559 -0.7526  1.6550
  794MOL0     H 7173   9.455   5.667  -0.764  1.5316  1.1180  0.3467
  794MOL0     H 7174   7.936   6.124  -0.012 -0.0904  0.0544 -1.8216
  794MOL0     H 7175   7.741   6.208   0.114 -1.5958  1.6968 -0.1455
  794MOL0     H 7176   7.448   6.333   0.265 -0.6796  2.5185  1.0578
  794MOL0     H 7177   7.341   6.449   0.431  2.2694 -0.7026  1.6772
  794MOL0     H 7178   6.988   6.472   0.446  1.6290 -0.6073 -0.0909
  794MOL0     H 7179   7.103   6.581   0.525  1.3003 -0.4122 -0.2490
  794MOL0     H 7180   6.987   6.518   0.742 -1.1613  2.8990  0.5650
  794MOL0     H 7181   6.883   6.413   0.647 -2.8105  1.1749 -0.1753
  794MOL0     H 7182   6.752   6.615   0.681 -2.1601 -1.4039 -2.2535
  794MOL0     H 7183   6.814   6.634   0.518  1.6356 -1.4124 -0.0716
  794MOL0     H 7184   6.971   6.789   0.577  0.8192 -1.2392 -0.3503
  794MOL0     H 7185   6.813   6.835   0.638 -1.5259 -1.5535  1.0839
  794MOL0     H 7186   7.109   6.848   0.935  0.8108  0.5360 -2.0209
  794MOL0     H 7187   7.040   6.174   0.474  0.1931 -0.5860  0.1949
  794MOL0     H 7188   7.052   5.986   0.220 -1.0146  6.5163  2.1121
  794MOL0     H 7189   7.192   5.887   0.302 -1.1601 -1.4137  1.5581
  794MOL0     H 7190   7.054   5.948   0.382  1.2438  0.3261  0.5772
  795MOL0     O 7191   0.139   7.195  10.073  0.8599 -0.7667  0.1022
  795MOL0     C 7192   0.180   7.134   9.977  0.4774  0.2754 -0.2838
  795MOL0     O 7193   0.111   7.045   9.907 -1.0675  0.4565 -0.1351
  795MOL0     C 7194  -0.013   7.009   9.942  0.5837 -0.3691  1.1596
  795MOL0     C 7195  -0.121   7.072   9.877 -0.1185 -0.0760  0.7566
  795MOL0     C 7196  -0.249   7.053   9.949  0.5827 -0.2083  0.2791
  795MOL0     C 7197  -0.268   6.966  10.057  0.1003  0.1336  0.5490
  795MOL0     O 7198  -0.394   6.923  10.095  0.1322  0.8789 -0.6394
  795MOL0     C 7199  -0.470   6.850  10.000 -0.3752 -0.1436  0.4557
  795MOL0     C 7200  -0.441   6.702   9.965 -0.7646  1.6368  0.0129
  795MOL0     C 7201  -0.465   6.604  10.077  0.5858 -0.1855 -0.5591
  795MOL0     C 7202  -0.354   6.496  10.104 -0.0848 -0.6450 -1.1603
  795MOL0     C 7203  -0.363   6.437  10.247  0.3597 -0.1280 -0.2997
  795MOL0     C 7204  -0.252   6.328  10.255 -0.0343 -0.3495 -0.5425
  795MOL0     C 7205  -0.242   6.269  10.400  0.1538 -0.6565 -0.4278
  795MOL0     C 7206  -0.164   6.138  10.390  0.4284  1.1801  0.1440
  795MOL0     N 7207  -0.024   6.168  10.402 -0.6516  0.2232  0.0158
  795MOL0     C 7208   0.062   6.211  10.302 -0.5996 -0.5502  0.1787
  795MOL0     C 7209   0.180   6.225  10.359  0.0393 -0.1980  0.2477
  795MOL0     C 7210   0.306   6.259  10.278  0.7804 -0.1237 -0.7899
  795MOL0     C 7211   0.410   6.163  10.314 -1.0202 -0.1255 -0.2637
  795MOL0     C 7212   0.542   6.188  10.231  0.0404 -0.3197  0.0168
  795MOL0     C 7213   0.661   6.099  10.284  0.5700 -0.7801  0.7959
  795MOL0     O 7214   0.777   6.163  10.221 -0.4237 -0.4510 -0.6359
  795MOL0     C 7215   0.903   6.104  10.238 -0.2262 -0.8935  0.0413
  795MOL0     C 7216   0.924   5.998  10.323  0.3625 -0.1004  0.7301
  795MOL0     C 7217   1.051   5.952  10.346 -0.4143 -0.3105 -0.1537
  795MOL0     C 7218   1.159   6.006  10.283 -0.1015  0.0989  0.5026
  795MOL0     C 7219   1.301   5.946  10.287 -0.3504  1.5525 -0.5971
  795MOL0     O 7220   1.310   5.833  10.357 -0.2494 -0.3123  0.2421
  795MOL0     C 7221   1.436   5.777  10.395 -0.5391  0.7397  0.4800
  795MOL0     C 7222   1.486   5.772  10.525  0.0393 -0.2696  0.2069
  795MOL0     C 7223   1.618   5.719  10.552 -0.0757  0.0888 -0.2221
  795MOL0     C 7224   1.695   5.652  10.448  1.3382 -0.3197  0.1050
  795MOL0     O 7225   1.818   5.609  10.476 -0.2280  0.7331  0.3579
  795MOL0     C 7226   1.876   5.503  10.395 -0.5652  1.0048 -0.8664
  795MOL0     C 7227   1.963   5.408  10.478 -0.8032  0.0791 -0.4745
  795MOL0     C 7228   1.976   5.284  10.403 -0.1614  0.3866  0.6457
  795MOL0     C 7229   2.035   5.167  10.498  0.3752  0.0534 -1.0603
  795MOL0     C 7230   2.062   5.045  10.413  0.8955  0.7134 -0.0384
  795MOL0     C 7231   2.068   4.913  10.496 -0.1865  0.0216 -0.1640
  795MOL0     C 7232   1.928   4.851  10.504 -0.0254  0.6017 -0.5654
  795MOL0     C 7233   1.919   4.738  10.610 -0.5280  0.2120 -0.4484
  795MOL0    Cl 7234   1.745   4.692  10.628 -0.1103  0.4254 -0.3322
  795MOL0     C 7235   1.633   5.667  10.317 -1.2520  0.2015 -0.4150
  795MOL0     C 7236   1.511   5.726  10.293  0.2610  0.0875 -0.6226
  795MOL0     O 7237   1.390   6.001  10.234  0.2099 -0.2808 -0.3605
  795MOL0     C 7238   1.140   6.124  10.208 -0.9176  0.0908 -0.8974
  795MOL0     C 7239   1.014   6.179  10.187 -0.8184  0.8648 -0.1565
  795MOL0     N 7240   0.173   6.190  10.493 -0.0715 -0.6026 -0.4712
  795MOL0     N 7241   0.052   6.157  10.513  0.6342 -0.2618  0.3565
  795MOL0     C 7242  -0.164   6.880  10.079 -0.0186  0.0827  0.2829
  795MOL0     C 7243  -0.034   6.908  10.043  0.2163 -0.6372 -0.7208
  795MOL0     C 7244   0.323   7.147   9.932 -0.7201  0.2073 -0.8667
  795MOL0     C 7245   0.358   7.095   9.806 -0.3762 -0.1696 -0.4271
  795MOL0     C 7246   0.494   7.080   9.775  0.0451  0.3721 -0.7849
  795MOL0     C 7247   0.595   7.133   9.855  0.3788  0.6377  0.2681
  795MOL0     O 7248   0.725   7.109   9.814 -0.4703  0.3379  0.4105
  795MOL0     C 7249   0.828   7.202   9.855 -0.8577  0.5457  0.2244
  795MOL0     C 7250   0.957   7.128   9.802  0.9083  1.6681 -0.2632
  795MOL0     C 7251   1.076   7.220   9.848  0.3940  0.5696  0.2604
  795MOL0     C 7252   1.199   7.195   9.763  0.3795  0.5666 -0.2982
  795MOL0     C 7253   1.269   7.077   9.808  0.3953 -0.5694 -0.0889
  795MOL0     C 7254   1.330   6.979   9.853  0.0547  0.2405  0.3631
  795MOL0     C 7255   0.553   7.201   9.972 -0.2520 -0.0260 -0.6709
  795MOL0     C 7256   0.422   7.204  10.011 -0.0766 -0.2817 -1.0113
  795MOL0     C 7257   0.403   7.247  10.154  0.7312  0.1876 -0.1572
  795MOL0     H 7258  -0.105   7.133   9.789  0.3184 -0.9976  0.1787
  795MOL0     H 7259  -0.338   7.102   9.910  1.4850 -0.9466 -3.0183
  795MOL0     H 7260  -0.561   6.849  10.060  0.0760  1.1116  1.2233
  795MOL0     H 7261  -0.487   6.903   9.906 -4.7754 -2.4670 -0.2880
  795MOL0     H 7262  -0.334   6.699   9.944 -0.7480  1.8839  0.0669
  795MOL0     H 7263  -0.494   6.665   9.876 -0.5959 -1.6030  1.1333
  795MOL0     H 7264  -0.558   6.552  10.053 -3.2461  5.6311 -0.2460
  795MOL0     H 7265  -0.480   6.667  10.165  1.2506  0.0154 -0.5852
  795MOL0     H 7266  -0.353   6.416  10.029  1.3118  0.9497 -2.9456
  795MOL0     H 7267  -0.257   6.547  10.104 -0.3327 -0.1411  0.2839
  795MOL0     H 7268  -0.342   6.515  10.321 -0.6558 -1.2418  1.2168
  795MOL0     H 7269  -0.459   6.399  10.282  0.7470 -0.0594  0.8861
  795MOL0     H 7270  -0.288   6.259  10.178 -0.3886  0.2411 -0.9163
  795MOL0     H 7271  -0.156   6.375  10.230 -0.4319  1.0356  0.4498
  795MOL0     H 7272  -0.339   6.240  10.442  1.5447 -2.7487  1.6003
  795MOL0     H 7273  -0.203   6.347  10.466 -0.9368  1.1498 -1.8156
  795MOL0     H 7274  -0.200   6.083  10.478 -1.4614  2.4035  0.1805
  795MOL0     H 7275  -0.189   6.075  10.304 -0.4733  2.5021 -0.5958
  795MOL0     H 7276   0.030   6.230  10.200 -0.7735 -2.4953 -0.1760
  795MOL0     H 7277   0.278   6.259  10.173 -0.3158  1.2361 -0.5284
  795MOL0     H 7278   0.334   6.360  10.312 -0.6860 -0.0331  0.2880
  795MOL0     H 7279   0.439   6.182  10.417  0.0958  0.2811 -0.6419
  795MOL0     H 7280   0.377   6.059  10.298  0.8855 -1.4089  3.1568
  795MOL0     H 7281   0.562   6.294  10.248  1.4848 -0.4670 -0.6175
  795MOL0     H 7282   0.525   6.172  10.124 -1.1302 -0.0766  0.1578
  795MOL0     H 7283   0.647   5.997  10.249  0.7197  0.0721 -1.9967
  795MOL0     H 7284   0.683   6.106  10.391 -0.3720 -3.3253  1.2199
  795MOL0     H 7285   0.841   5.945  10.368  2.6760 -3.2124  1.7414
  795MOL0     H 7286   1.076   5.868  10.411 -2.2891  0.9232  2.3213
  795MOL0     H 7287   1.424   5.822  10.599  2.9806  0.0375  2.6863
  795MOL0     H 7288   1.668   5.733  10.648 -1.3125  1.4348  0.2606
  795MOL0     H 7289   1.794   5.448  10.349 -0.3408  1.2766 -1.6001
  795MOL0     H 7290   1.940   5.556  10.324 -0.4020  3.6631  1.1284
  795MOL0     H 7291   2.065   5.438  10.502 -0.8251  2.4598 -2.8879
  795MOL0     H 7292   1.914   5.390  10.574  0.4114 -2.0110 -0.1712
  795MOL0     H 7293   1.879   5.255  10.362  0.2885 -1.2114  0.6343
  795MOL0     H 7294   2.040   5.304  10.316  1.7953  0.8572  2.1177
  795MOL0     H 7295   1.966   5.141  10.578  0.2380 -0.2062 -1.2608
  795MOL0     H 7296   2.126   5.201  10.548 -0.1337 -0.1051 -0.0157
  795MOL0     H 7297   2.157   5.060  10.360 -0.5638  3.0509 -2.2663
  795MOL0     H 7298   1.992   5.034  10.330  1.1613  0.5386 -0.2423
  795MOL0     H 7299   2.127   4.852  10.426  0.0169 -0.8941  0.7770
  795MOL0     H 7300   2.115   4.924  10.594 -0.9189  1.2371  0.0656
  795MOL0     H 7301   1.887   4.822  10.407 -0.8400  1.1659 -0.3989
  795MOL0     H 7302   1.862   4.925  10.549  0.3113 -0.7851  2.4112
  795MOL0     H 7303   1.974   4.654  10.568  0.8506  1.2680 -0.8396
  795MOL0     H 7304   1.956   4.751  10.712  0.5735 -0.1970 -0.7873
  795MOL0     H 7305   1.688   5.622  10.235  0.6405  0.3279  0.7437
  795MOL0     H 7306   1.470   5.729  10.193 -0.6619 -0.5640 -0.2881
  795MOL0     H 7307   1.226   6.178  10.170 -0.6488 -0.1957 -0.7033
  795MOL0     H 7308   0.999   6.262  10.118 -1.6274  0.2488 -0.7302
  795MOL0     H 7309  -0.178   6.779  10.117  1.3815 -2.1194 -4.2956
  795MOL0     H 7310   0.047   6.845  10.078  0.2286  0.4989  1.4302
  795MOL0     H 7311   0.282   7.041   9.750 -1.9001  1.3578  0.0558
  795MOL0     H 7312   0.529   7.028   9.686 -0.7496  2.0655 -2.1512
  795MOL0     H 7313   0.832   7.226   9.961  1.0600 -0.9542  0.5389
  795MOL0     H 7314   0.809   7.292   9.796 -3.4532 -0.1462 -0.1067
  795MOL0     H 7315   0.949   7.133   9.693  0.4717  0.4678 -0.2993
  795MOL0     H 7316   0.971   7.026   9.838 -4.0612  1.2870  1.3335
  795MOL0     H 7317   1.098   7.213   9.955  1.3622  3.1761  0.3079
  795MOL0     H 7318   1.054   7.327   9.841  0.7751  0.5687 -1.1866
  795MOL0     H 7319   1.182   7.195   9.655 -0.8331 -1.0772 -0.1416
  795MOL0     H 7320   1.281   7.266   9.780  0.8342 -0.4397  2.1338
  795MOL0     H 7321   1.383   6.896   9.893 -1.0153  0.4367  2.3116
  795MOL0     H 7322   0.625   7.243  10.041 -2.4033  2.6701  0.1178
  795MOL0     H 7323   0.489   7.302  10.194  0.1064 -0.4281  2.1481
  795MOL0     H 7324   0.315   7.312  10.168 -1.1137 -1.5921 -2.6360
  795MOL0     H 7325   0.397   7.164  10.224  0.2691 -0.9736 -1.5301
  796MOL0     O 7326   2.548  10.015   0.208 -0.1670 -0.2459 -0.1525
  796MOL0     C 7327   2.482   9.992   0.106  0.4725 -1.4503  0.2531
  796MOL0     O 7328   2.532   9.979  -0.020  0.1315  0.6374 -0.4697
  796MOL0     C 7329   2.664   9.999  -0.036  0.0754 -0.7464 -0.2185
  796MOL0     C 7330   2.714  10.120  -0.072  0.5533 -0.5735  0.2039
  796MOL0     C 7331   2.853  10.132  -0.096 -0.2080  0.4340 -0.2066
  796MOL0     C 7332   2.944  10.018  -0.110  0.6596  0.0286 -0.4124
  796MOL0     O 7333   3.074  10.016  -0.152 -0.1540  0.9799  0.1248
  796MOL0     C 7334   3.121  10.136  -0.208 -1.0345  1.1163 -0.0553
  796MOL0     C 7335   3.249  10.106  -0.294  0.4191  0.3469 -0.9876
  796MOL0     C 7336   3.378  10.112  -0.210  0.3592 -0.6636  0.5263
  796MOL0     C 7337   3.499  10.078  -0.299 -0.2584  0.3288  0.1885
  796MOL0     C 7338   3.633  10.063  -0.236  0.4308  0.5348 -0.2524
  796MOL0     C 7339   3.640   9.932  -0.148  0.0571 -0.1754  0.1090
  796MOL0     C 7340   3.771   9.930  -0.073 -0.3001  0.4389 -0.4538
  796MOL0     C 7341   3.896   9.908  -0.160  0.6524 -0.3638  0.4680
  796MOL0     N 7342   4.015   9.885  -0.079 -0.1605  0.3673  0.2555
  796MOL0     C 7343   4.139   9.958  -0.079  0.1239 -0.5086 -0.4213
  796MOL0     C 7344   4.213   9.912   0.020 -1.0217 -0.3485 -0.7659
  796MOL0     C 7345   4.348   9.957   0.053  0.2165 -0.8832  0.0251
  796MOL0     C 7346   4.429   9.848   0.122 -0.2950 -0.1878 -0.1529
  796MOL0     C 7347   4.553   9.902   0.200  0.3316 -0.3052  0.0994
  796MOL0     C 7348   4.667   9.804   0.201  0.4099  1.1508 -0.6303
  796MOL0     O 7349   4.784   9.861   0.269  0.7960 -0.0353  0.0255
  796MOL0     C 7350   4.910   9.815   0.239 -0.0311  0.1556  0.5920
  796MOL0     C 7351   4.938   9.696   0.167  0.4556 -0.3133 -0.2141
  796MOL0     C 7352   5.063   9.644   0.152  0.0487 -0.1265 -0.1321
  796MOL0     C 7353   5.171   9.708   0.220 -0.4067  0.1801  0.2065
  796MOL0     C 7354   5.302   9.645   0.223  0.4971 -0.0235  0.3164
  796MOL0     O 7355   5.380   9.671   0.322  0.0092  0.2149 -0.6985
  796MOL0     C 7356   5.513   9.638   0.301  0.5752  0.6813 -0.5845
  796MOL0     C 7357   5.603   9.733   0.349 -0.6549  0.3333  0.8427
  796MOL0     C 7358   5.737   9.720   0.320 -0.2495  0.3386 -0.0389
  796MOL0     C 7359   5.791   9.597   0.271  0.5298 -0.6367  0.5624
  796MOL0     O 7360   5.925   9.583   0.238  0.0919 -1.0147  0.5143
  796MOL0     C 7361   6.012   9.597   0.347  0.2988  1.0139 -0.2384
  796MOL0     C 7362   6.099   9.715   0.342 -0.8115 -1.3073 -0.0636
  796MOL0     C 7363   6.228   9.697   0.426  0.1300  0.0928  0.7532
  796MOL0     C 7364   6.351   9.731   0.351  0.4050 -0.0948  0.0007
  796MOL0     C 7365   6.474   9.702   0.437 -0.3809 -0.0093  0.4255
  796MOL0     C 7366   6.606   9.705   0.352  0.8740  0.3496 -0.9248
  796MOL0     C 7367   6.729   9.730   0.434  0.6528  0.3765 -0.2284
  796MOL0     C 7368   6.778   9.604   0.506  0.0243 -0.3869  0.0236
  796MOL0    Cl 7369   6.685   9.557   0.650  0.0314  0.5600 -0.1882
  796MOL0     C 7370   5.700   9.495   0.243 -0.1395  0.1755  0.6884
  796MOL0     C 7371   5.567   9.511   0.263 -0.2822 -0.2549 -0.1195
  796MOL0     O 7372   5.330   9.609   0.110  0.1101  0.7920 -0.1996
  796MOL0     C 7373   5.150   9.822   0.295 -0.2023  0.2741  0.7658
  796MOL0     C 7374   5.017   9.876   0.301  0.2399 -0.1179  0.5316
  796MOL0     N 7375   4.142   9.809   0.079  0.1215 -0.8543  0.4961
  796MOL0     N 7376   4.026   9.799   0.026 -1.0025 -0.4527  0.0766
  796MOL0     C 7377   2.881   9.904  -0.066 -0.0740  0.3483  0.0056
  796MOL0     C 7378   2.750   9.894  -0.020 -0.5950 -0.2361 -0.9768
  796MOL0     C 7379   2.336   9.976   0.133  0.0599 -0.6882 -0.1671
  796MOL0     C 7380   2.295   9.978   0.268  1.0109 -0.3367  1.0114
  796MOL0     C 7381   2.161   9.955   0.298  0.8631  0.3995 -0.9028
  796MOL0     C 7382   2.065   9.933   0.203  0.2220  0.8807  0.0512
  796MOL0     O 7383   1.937   9.913   0.253 -0.2435 -0.2147  0.1190
  796MOL0     C 7384   1.839   9.847   0.170  0.2877 -0.5820  0.0767
  796MOL0     C 7385   1.706   9.811   0.232  1.1876 -0.3379  0.1286
  796MOL0     C 7386   1.717   9.741   0.366  0.5389  0.4562  1.4782
  796MOL0     C 7387   1.802   9.616   0.359 -1.0471  0.4903 -0.6582
  796MOL0     C 7388   1.764   9.521   0.259  0.1637 -0.2505  0.3516
  796MOL0     C 7389   1.712   9.456   0.170 -0.2470  0.9444  0.2962
  796MOL0     C 7390   2.099   9.925   0.063 -0.3815  1.4381 -0.5556
  796MOL0     C 7391   2.235   9.953   0.030  1.1101  0.2322 -0.0765
  796MOL0     C 7392   2.272   9.959  -0.118 -0.0408  0.8148 -0.1326
  796MOL0     H 7393   2.654  10.208  -0.091  1.9664  0.3014 -0.3558
  796MOL0     H 7394   2.883  10.234  -0.117  3.3432 -0.4224 -0.0244
  796MOL0     H 7395   3.050  10.183  -0.277  0.0987  0.8687 -1.4249
  796MOL0     H 7396   3.143  10.208  -0.128 -0.5666 -0.2153  1.0564
  796MOL0     H 7397   3.267  10.195  -0.356  0.1224 -0.1041 -1.7368
  796MOL0     H 7398   3.238  10.019  -0.360  1.4001 -1.2011  0.8079
  796MOL0     H 7399   3.372  10.047  -0.123  2.5695 -0.8774  0.5721
  796MOL0     H 7400   3.385  10.215  -0.174  0.0299  0.4070 -2.2005
  796MOL0     H 7401   3.478   9.990  -0.362 -0.8065  0.6345 -0.0634
  796MOL0     H 7402   3.516  10.160  -0.370 -0.5492  0.8699  0.7357
  796MOL0     H 7403   3.708  10.053  -0.316 -1.5489 -0.3899 -2.0985
  796MOL0     H 7404   3.661  10.142  -0.166  1.7191  0.2658 -0.4328
  796MOL0     H 7405   3.556   9.927  -0.077  1.1457  1.0947  1.5383
  796MOL0     H 7406   3.615   9.853  -0.221 -2.0930  2.0768 -1.7702
  796MOL0     H 7407   3.769   9.849   0.000  2.7167 -0.2830 -1.0362
  796MOL0     H 7408   3.797  10.019  -0.015  2.5581 -0.6421  0.0641
  796MOL0     H 7409   3.888   9.823  -0.228 -0.5479 -1.1600  1.5729
  796MOL0     H 7410   3.918   9.997  -0.220  1.5972 -0.8117  0.1401
  796MOL0     H 7411   4.180  10.036  -0.143  2.5799 -2.2922 -1.1666
  796MOL0     H 7412   4.391   9.994  -0.041 -1.6727 -0.3010 -0.6528
  796MOL0     H 7413   4.338  10.043   0.119 -2.2581 -0.3704 -0.8960
  796MOL0     H 7414   4.366   9.805   0.199  0.2807  1.0614  1.0603
  796MOL0     H 7415   4.449   9.775   0.043 -3.1939 -1.1132 -0.1419
  796MOL0     H 7416   4.523   9.917   0.304 -1.7596  2.0462 -0.7727
  796MOL0     H 7417   4.600   9.994   0.163 -0.9751  0.4149  0.1998
  796MOL0     H 7418   4.703   9.772   0.103  3.5148  0.8667  0.4974
  796MOL0     H 7419   4.632   9.713   0.251  0.8996  1.3326  0.0571
  796MOL0     H 7420   4.854   9.636   0.133  0.2765 -1.8554  2.6147
  796MOL0     H 7421   5.083   9.550   0.100  2.3814 -0.0903  0.5628
  796MOL0     H 7422   5.565   9.825   0.393 -1.7145 -0.8286  2.4688
  796MOL0     H 7423   5.808   9.802   0.319  0.6754 -0.4339  0.8756
  796MOL0     H 7424   5.952   9.594   0.439 -0.6411 -1.1497 -0.8512
  796MOL0     H 7425   6.063   9.503   0.327 -0.0905  1.4604 -4.1019
  796MOL0     H 7426   6.128   9.725   0.238  0.7690 -0.1929  0.4453
  796MOL0     H 7427   6.053   9.811   0.370  1.3150  0.2969 -1.7608
  796MOL0     H 7428   6.218   9.749   0.522  3.0986 -0.0707  1.2237
  796MOL0     H 7429   6.244   9.590   0.437  0.7299 -0.0217 -0.9515
  796MOL0     H 7430   6.348   9.838   0.327 -2.6056 -0.4868 -1.8690
  796MOL0     H 7431   6.351   9.679   0.255  0.2242 -0.3734  0.1502
  796MOL0     H 7432   6.463   9.605   0.486 -2.9586  0.4370  0.8434
  796MOL0     H 7433   6.465   9.771   0.521  1.2900 -1.8940  2.2842
  796MOL0     H 7434   6.616   9.613   0.294 -1.6917 -0.7705  0.2692
  796MOL0     H 7435   6.600   9.785   0.278  1.5932  1.9511  0.6489
  796MOL0     H 7436   6.718   9.808   0.510 -0.2228  1.4326 -1.3994
  796MOL0     H 7437   6.813   9.761   0.371  0.6669 -0.4975 -0.6541
  796MOL0     H 7438   6.779   9.528   0.428  0.9569  0.5134 -0.8671
  796MOL0     H 7439   6.881   9.628   0.533 -0.9064  4.0051  0.4742
  796MOL0     H 7440   5.739   9.403   0.200  1.6554  1.3310 -0.2889
  796MOL0     H 7441   5.508   9.421   0.248 -2.4209  1.6414 -4.8780
  796MOL0     H 7442   5.226   9.884   0.340 -0.0593  1.1312 -0.5888
  796MOL0     H 7443   5.000   9.969   0.355  1.9314  0.2019  0.5841
  796MOL0     H 7444   2.946   9.817  -0.067  1.3127  1.3455 -0.1344
  796MOL0     H 7445   2.721   9.801   0.028  3.4918 -0.3908  1.7057
  796MOL0     H 7446   2.367   9.976   0.350 -0.8892 -1.5822  2.7380
  796MOL0     H 7447   2.115   9.974   0.395  3.1169  0.2413  0.2898
  796MOL0     H 7448   1.888   9.755   0.137  1.1080 -0.0999 -0.0657
  796MOL0     H 7449   1.821   9.904   0.079 -1.4431 -0.0662  0.6998
  796MOL0     H 7450   1.634   9.762   0.166 -0.4973  0.1128  1.5514
  796MOL0     H 7451   1.658   9.908   0.247  0.0314 -0.3643 -2.7463
  796MOL0     H 7452   1.617   9.712   0.397 -1.1886  1.2415 -2.6928
  796MOL0     H 7453   1.757   9.814   0.437  3.8144 -1.7271  2.1390
  796MOL0     H 7454   1.908   9.636   0.343 -0.8779  0.0053 -0.1762
  796MOL0     H 7455   1.793   9.572   0.459  0.6856 -2.4159 -1.6523
  796MOL0     H 7456   1.660   9.399   0.095 -0.8307  1.8824 -0.0304
  796MOL0     H 7457   2.029   9.898  -0.016 -1.6987  0.3792  0.9070
  796MOL0     H 7458   2.350   9.886  -0.143 -2.8784 -1.9681 -1.6270
  796MOL0     H 7459   2.193   9.930  -0.189 -0.2119  1.3559 -0.1672
  796MOL0     H 7460   2.303  10.061  -0.140 -0.8171  1.0110 -0.3498
  797MOL0     O 7461  10.060   1.087   1.441 -0.3418  0.1453 -0.4289
  797MOL0     C 7462  10.082   1.011   1.536  1.6331 -0.7374  0.3062
  797MOL0     O 7463  10.177   1.039   1.625 -0.0731 -0.3811 -0.0154
  797MOL0     C 7464  10.262   1.150   1.603 -0.5041  0.0918  0.6468
  797MOL0     C 7465  10.236   1.271   1.664 -0.5278 -0.1932 -0.0033
  797MOL0     C 7466  10.299   1.395   1.634 -0.0193 -0.6006 -0.5421
  797MOL0     C 7467  10.384   1.389   1.522 -0.3430 -0.4434 -1.0192
  797MOL0     O 7468  10.431   1.517   1.472  0.0420 -0.2458 -0.2808
  797MOL0     C 7469  10.484   1.509   1.341 -0.6535 -0.5891 -0.3835
  797MOL0     C 7470  10.500   1.642   1.276 -0.2258 -0.1160 -0.5126
  797MOL0     C 7471  10.358   1.703   1.244  0.6754  0.1841  0.5483
  797MOL0     C 7472  10.332   1.670   1.094 -0.6741 -0.2863  0.0006
  797MOL0     C 7473  10.182   1.677   1.070  0.4590  0.5734  0.1367
  797MOL0     C 7474  10.157   1.639   0.929  0.2829  0.3302  1.5307
  797MOL0     C 7475  10.002   1.625   0.907 -0.1305  0.2546  1.0678
  797MOL0     C 7476   9.923   1.757   0.930  0.3289 -0.6866 -0.3821
  797MOL0     N 7477   9.773   1.730   0.923  0.0149  0.3179 -0.0064
  797MOL0     C 7478   9.682   1.826   0.959  0.2673 -0.1019  0.7146
  797MOL0     C 7479   9.572   1.788   0.896  0.2734  0.6913  0.4770
  797MOL0     C 7480   9.443   1.858   0.905 -1.1485  0.0112 -0.1230
  797MOL0     C 7481   9.330   1.783   0.844 -0.1172 -0.2380  0.6576
  797MOL0     C 7482   9.197   1.861   0.839  0.1328  0.1322  0.5784
  797MOL0     C 7483   9.105   1.770   0.759 -0.1028 -0.2837 -0.0616
  797MOL0     O 7484   8.982   1.850   0.749 -0.2644 -0.5600  0.0471
  797MOL0     C 7485   8.869   1.790   0.696 -0.6511 -0.3829  1.1863
  797MOL0     C 7486   8.757   1.876   0.671 -0.4358  0.8566 -0.0107
  797MOL0     C 7487   8.642   1.825   0.610 -0.8473 -0.3600 -0.4333
  797MOL0     C 7488   8.629   1.692   0.576  0.3388 -1.0840 -0.0194
  797MOL0     C 7489   8.496   1.649   0.515 -0.5536  0.2264 -0.7535
  797MOL0     O 7490   8.478   1.516   0.504  0.2435  0.8208  0.3429
  797MOL0     C 7491   8.353   1.465   0.500  0.4468 -0.2101 -0.4771
  797MOL0     C 7492   8.272   1.494   0.383 -0.5433 -0.2449 -0.1710
  797MOL0     C 7493   8.140   1.456   0.379  0.3032 -0.3636 -0.2405
  797MOL0     C 7494   8.086   1.395   0.491  0.0555 -0.7319 -0.0756
  797MOL0     O 7495   7.951   1.375   0.508  0.4510  0.3013 -0.4303
  797MOL0     C 7496   7.865   1.491   0.500 -0.0695 -0.4753  0.5463
  797MOL0     C 7497   7.736   1.459   0.418  0.5411 -0.2096  0.5070
  797MOL0     C 7498   7.761   1.386   0.295  0.3435 -0.1976  0.7463
  797MOL0     C 7499   7.640   1.382   0.205  1.4151  0.2813  0.5780
  797MOL0     C 7500   7.538   1.273   0.218  0.5450  1.1654  0.0333
  797MOL0     C 7501   7.409   1.297   0.128 -0.6575 -1.1198 -0.1311
  797MOL0     C 7502   7.284   1.224   0.178  0.0249  0.6514  0.4597
  797MOL0     C 7503   7.155   1.263   0.097  0.9594 -0.1007  0.5505
  797MOL0    Cl 7504   7.012   1.163   0.167 -0.3982  0.0066  0.0383
  797MOL0     C 7505   8.161   1.371   0.602 -0.8216  0.3314  0.2643
  797MOL0     C 7506   8.298   1.390   0.607  0.9347  0.1948  1.0002
  797MOL0     O 7507   8.412   1.737   0.484 -0.3446 -0.1922 -0.2533
  797MOL0     C 7508   8.741   1.607   0.603 -0.4620 -0.1970  0.0643
  797MOL0     C 7509   8.860   1.658   0.658 -0.4695 -0.0352  0.1088
  797MOL0     N 7510   9.595   1.677   0.820  0.1995 -0.4246 -0.3021
  797MOL0     N 7511   9.719   1.648   0.828 -0.2523  0.2228  0.4885
  797MOL0     C 7512  10.419   1.266   1.463 -0.5999  0.4140  0.1211
  797MOL0     C 7513  10.360   1.143   1.510  0.2087 -0.1300 -0.1337
  797MOL0     C 7514  10.003   0.885   1.554 -0.6233 -0.0110 -0.0456
  797MOL0     C 7515  10.065   0.786   1.631  0.1368 -0.0679 -0.0881
  797MOL0     C 7516  10.013   0.658   1.653  0.1700 -0.6445 -0.4335
  797MOL0     C 7517   9.884   0.632   1.601 -0.3326 -0.0148  0.6643
  797MOL0     O 7518   9.829   0.513   1.632  0.4254 -0.8022  0.3634
  797MOL0     C 7519   9.707   0.512   1.695  0.0738  0.8704 -0.3818
  797MOL0     C 7520   9.578   0.490   1.602  0.5447 -0.2184 -0.4852
  797MOL0     C 7521   9.448   0.520   1.679  0.4223 -0.2726  0.5336
  797MOL0     C 7522   9.334   0.433   1.619 -0.0919  1.2147 -0.0103
  797MOL0     C 7523   9.219   0.428   1.713 -0.0615 -0.4440 -0.0902
  797MOL0     C 7524   9.112   0.421   1.775  0.0367 -0.8252  0.0752
  797MOL0     C 7525   9.824   0.729   1.525 -0.0804  0.0096  0.5166
  797MOL0     C 7526   9.875   0.854   1.505  0.9131 -0.1302 -0.3856
  797MOL0     C 7527   9.792   0.954   1.431  0.1905  0.3596 -0.2468
  797MOL0     H 7528  10.159   1.279   1.741  0.3137  0.8555  0.7654
  797MOL0     H 7529  10.251   1.481   1.680  0.8835  0.6379 -1.8261
  797MOL0     H 7530  10.580   1.456   1.338 -0.4115 -0.1240 -0.9079
  797MOL0     H 7531  10.419   1.447   1.278 -0.3568  0.3227 -1.6121
  797MOL0     H 7532  10.574   1.641   1.195  0.5255  1.8568  0.0832
  797MOL0     H 7533  10.540   1.706   1.356 -2.6401  0.3253  0.4324
  797MOL0     H 7534  10.368   1.812   1.247  1.0640  0.2475 -1.4906
  797MOL0     H 7535  10.274   1.671   1.306  0.0501  0.8023  0.0370
  797MOL0     H 7536  10.377   1.748   1.032 -2.0584 -0.0936 -0.8023
  797MOL0     H 7537  10.375   1.574   1.065  1.6172  0.3403  1.0812
  797MOL0     H 7538  10.120   1.612   1.133 -2.0235  0.7901 -1.8865
  797MOL0     H 7539  10.152   1.779   1.096  0.7176  0.2410  1.8434
  797MOL0     H 7540  10.219   1.704   0.867 -2.2353  0.3692 -1.1404
  797MOL0     H 7541  10.187   1.534   0.922 -1.1165 -0.3493  4.1951
  797MOL0     H 7542   9.978   1.540   0.971 -0.2104  0.2593  1.0452
  797MOL0     H 7543   9.988   1.594   0.803  0.6790 -0.2582  1.1051
  797MOL0     H 7544   9.942   1.799   1.029 -1.7435  1.9861 -0.9764
  797MOL0     H 7545   9.945   1.831   0.853 -1.8711  1.5344  0.9530
  797MOL0     H 7546   9.683   1.912   1.026 -0.1723  0.6208 -0.1781
  797MOL0     H 7547   9.413   1.874   1.009 -1.2038  2.1431 -0.4238
  797MOL0     H 7548   9.451   1.954   0.853  0.3423 -0.0386 -0.0288
  797MOL0     H 7549   9.354   1.782   0.737  0.0682 -0.2069  0.6982
  797MOL0     H 7550   9.320   1.681   0.882 -3.6986 -0.5634 -0.7238
  797MOL0     H 7551   9.203   1.964   0.803 -0.3831  1.0343  2.8836
  797MOL0     H 7552   9.157   1.863   0.941 -0.0861  0.0999  0.4952
  797MOL0     H 7553   9.092   1.685   0.826  0.5664  0.4222  0.9829
  797MOL0     H 7554   9.143   1.746   0.659 -0.6552  1.4773 -0.7375
  797MOL0     H 7555   8.753   1.981   0.701 -1.1975  1.1949 -1.2242
  797MOL0     H 7556   8.565   1.898   0.588 -0.3759  0.6690  1.1270
  797MOL0     H 7557   8.325   1.543   0.302 -0.0249 -0.3570  0.0942
  797MOL0     H 7558   8.080   1.481   0.292  0.2831 -1.1870 -0.4765
  797MOL0     H 7559   7.842   1.525   0.601  0.7549 -1.5931  1.1204
  797MOL0     H 7560   7.906   1.577   0.446  1.3489 -1.5040 -0.0599
  797MOL0     H 7561   7.668   1.400   0.479  0.6707  0.2816  1.1357
  797MOL0     H 7562   7.682   1.552   0.394  1.5817 -0.0606 -1.5261
  797MOL0     H 7563   7.844   1.428   0.238  0.5233 -0.4783  0.7984
  797MOL0     H 7564   7.784   1.282   0.320 -0.1424 -0.1798  1.2971
  797MOL0     H 7565   7.664   1.387   0.098 -0.3882 -1.6514  0.0041
  797MOL0     H 7566   7.574   1.468   0.220  3.5282  2.2096 -0.4273
  797MOL0     H 7567   7.504   1.286   0.321 -0.7630 -4.3019  0.5525
  797MOL0     H 7568   7.577   1.173   0.201 -2.4961  0.2860 -2.7772
  797MOL0     H 7569   7.390   1.404   0.141  1.4640 -0.5124 -1.5102
  797MOL0     H 7570   7.433   1.282   0.022  1.8318 -2.5551  0.5457
  797MOL0     H 7571   7.265   1.234   0.285 -0.4552 -2.3934  0.7674
  797MOL0     H 7572   7.304   1.118   0.160 -0.2882  0.6387  0.1597
  797MOL0     H 7573   7.138   1.370   0.111 -0.1599  0.0051 -1.2130
  797MOL0     H 7574   7.159   1.252  -0.012 -1.5525  2.8730  0.0201
  797MOL0     H 7575   8.106   1.320   0.679 -2.3548 -0.1127 -1.0712
  797MOL0     H 7576   8.342   1.357   0.701 -0.2524 -0.1646  1.4560
  797MOL0     H 7577   8.738   1.501   0.581  1.7250 -0.5526  1.2202
  797MOL0     H 7578   8.949   1.600   0.681  0.4359  1.4417  0.4692
  797MOL0     H 7579  10.492   1.257   1.383  1.1660 -3.7213  1.8699
  797MOL0     H 7580  10.370   1.044   1.467 -1.0594 -0.3488  0.0192
  797MOL0     H 7581  10.164   0.812   1.667  0.8534 -3.9979  1.3107
  797MOL0     H 7582  10.071   0.581   1.703  2.1545 -0.5456 -2.4013
  797MOL0     H 7583   9.709   0.594   1.767  1.0258  0.6974 -0.1979
  797MOL0     H 7584   9.718   0.430   1.767  0.6371  0.6739 -0.6876
  797MOL0     H 7585   9.576   0.387   1.567  0.5079 -1.1225  1.9567
  797MOL0     H 7586   9.588   0.556   1.515 -1.0889 -0.2672 -0.7415
  797MOL0     H 7587   9.420   0.625   1.680  0.4179 -0.2642  2.5286
  797MOL0     H 7588   9.456   0.500   1.786 -0.8815 -2.0932  0.3354
  797MOL0     H 7589   9.292   0.477   1.528 -0.2302 -0.4541 -0.7929
  797MOL0     H 7590   9.367   0.330   1.599 -0.3901  0.9103  0.9863
  797MOL0     H 7591   9.022   0.386   1.820  0.0814 -0.7949  0.1882
  797MOL0     H 7592   9.724   0.712   1.485 -1.1036  1.0975  2.4164
  797MOL0     H 7593   9.844   1.015   1.357  0.7440 -1.0129 -1.0212
  797MOL0     H 7594   9.715   0.894   1.381  1.2140  1.4895 -3.4087
  797MOL0     H 7595   9.741   1.022   1.500 -0.6251 -1.3659  0.9281
  798MOL0     O 7596  10.492   2.001   4.040 -0.0307 -0.4229  0.2644
  798MOL0     C 7597  10.446   1.930   3.951  0.0229 -0.4893 -0.5436
  798MOL0     O 7598  10.468   1.944   3.818  0.3304  0.6267  0.3401
  798MOL0     C 7599  10.571   2.020   3.771  0.2053 -0.3494  0.0071
  798MOL0     C 7600  10.572   2.164   3.788  1.3607  0.5153  0.3147
  798MOL0     C 7601  10.669   2.245   3.734 -0.7089 -0.4148 -0.1964
  798MOL0     C 7602  10.771   2.186   3.657  0.5176 -0.3170  0.8658
  798MOL0     O 7603  10.851   2.278   3.593 -0.3950  0.3904 -0.6890
  798MOL0     C 7604  10.943   2.222   3.496 -0.3947 -1.2674  0.2359
  798MOL0     C 7605  11.048   2.331   3.464  0.3329  0.2789  0.2448
  798MOL0     C 7606  11.142   2.273   3.354  0.2350 -0.7231  0.2521
  798MOL0     C 7607  11.250   2.374   3.299 -0.2849  0.0699  0.4028
  798MOL0     C 7608  11.326   2.341   3.172 -0.3271 -0.2002 -0.2785
  798MOL0     C 7609  11.425   2.461   3.133 -0.6472  0.1674 -0.9409
  798MOL0     C 7610  11.474   2.446   2.990  0.2100 -0.0678 -0.3118
  798MOL0     C 7611  11.570   2.343   2.960 -0.0938  0.1552  0.2732
  798MOL0     N 7612  11.705   2.360   3.007  0.2580  0.4678  0.6492
  798MOL0     C 7613  11.757   2.296   3.119 -0.1831 -0.0127  0.7173
  798MOL0     C 7614  11.876   2.358   3.134 -0.2400 -0.3890 -0.0601
  798MOL0     C 7615  11.972   2.348   3.253  1.1712  0.4287  1.3458
  798MOL0     C 7616  12.121   2.357   3.223 -0.0974 -0.0058 -0.1560
  798MOL0     C 7617  12.209   2.371   3.340 -0.1200  0.2430 -0.1285
  798MOL0     C 7618  12.362   2.348   3.306  0.0412  0.4518 -0.2674
  798MOL0     O 7619  12.435   2.395   3.415 -0.0095  0.5421  0.1594
  798MOL0     C 7620  12.569   2.368   3.412  0.3063 -0.4398  0.4681
  798MOL0     C 7621  12.637   2.261   3.341  0.9725  0.1274 -0.4489
  798MOL0     C 7622  12.772   2.243   3.360 -0.9284  0.1455  0.3527
  798MOL0     C 7623  12.856   2.320   3.445  0.0439  0.2985  0.1701
  798MOL0     C 7624  13.004   2.309   3.457 -0.9151  0.5348  0.0537
  798MOL0     O 7625  13.068   2.351   3.576  0.6484 -0.3903  0.2362
  798MOL0     C 7626  13.180   2.295   3.615 -0.9836 -0.3534 -0.2267
  798MOL0     C 7627  13.220   2.164   3.592 -0.3469  1.2107 -0.2571
  798MOL0     C 7628  13.342   2.118   3.653 -0.7044  0.4119 -0.2845
  798MOL0     C 7629  13.433   2.199   3.717  0.5472  0.2615  0.0773
  798MOL0     O 7630  13.555   2.160   3.763 -0.4331  0.2248  0.5298
  798MOL0     C 7631  13.619   2.049   3.688  0.7440 -0.2249  0.4204
  798MOL0     C 7632  13.770   2.041   3.680  0.4073  0.2584  0.4852
  798MOL0     C 7633  13.834   2.028   3.819  0.8101 -0.2558  0.6193
  798MOL0     C 7634  13.983   2.074   3.823  0.4877  0.2793  0.4112
  798MOL0     C 7635  14.080   1.968   3.789 -0.0156  0.5989 -0.1654
  798MOL0     C 7636  14.236   1.988   3.797  0.7447  0.4865 -1.0418
  798MOL0     C 7637  14.288   1.984   3.940  0.9909  0.3786 -0.1569
  798MOL0     C 7638  14.426   2.056   3.949 -0.1034 -0.1724  0.1618
  798MOL0    Cl 7639  14.459   2.073   4.125 -0.4286 -0.0356  0.1691
  798MOL0     C 7640  13.395   2.329   3.737  0.7621 -0.5376 -0.4461
  798MOL0     C 7641  13.268   2.374   3.687 -0.3845  0.9310 -0.5238
  798MOL0     O 7642  13.058   2.241   3.373  0.7305  0.8333  0.4462
  798MOL0     C 7643  12.783   2.429   3.501  0.3632 -0.0757  0.2682
  798MOL0     C 7644  12.645   2.453   3.485  0.1944  0.4727  0.0014
  798MOL0     N 7645  11.891   2.446   3.031  0.2382  0.0012  0.6355
  798MOL0     N 7646  11.788   2.446   2.956  0.2002 -1.0284  0.1417
  798MOL0     C 7647  10.771   2.043   3.642  0.2344  0.0838  0.5246
  798MOL0     C 7648  10.676   1.958   3.703  0.5367 -0.6617 -0.8764
  798MOL0     C 7649  10.347   1.823   3.986  0.5985  0.0505  0.9373
  798MOL0     C 7650  10.332   1.718   3.890 -0.5211  0.0630 -0.3868
  798MOL0     C 7651  10.238   1.615   3.910 -0.3286  0.4649 -0.1337
  798MOL0     C 7652  10.170   1.604   4.029  0.6960  0.2136 -0.2401
  798MOL0     O 7653  10.079   1.512   4.062  0.1088  0.4474 -0.0241
  798MOL0     C 7654  10.073   1.393   3.981 -0.5150  0.0747 -0.0119
  798MOL0     C 7655   9.995   1.290   4.063 -0.5837 -0.6109  0.2703
  798MOL0     C 7656   9.870   1.336   4.133 -0.4727 -0.0256 -0.4563
  798MOL0     C 7657   9.809   1.225   4.218  0.5568  0.8518 -0.3561
  798MOL0     C 7658   9.703   1.290   4.292 -0.2138  0.1788  0.1881
  798MOL0     C 7659   9.602   1.335   4.348 -0.5841 -0.3950 -0.5878
  798MOL0     C 7660  10.196   1.700   4.126 -0.0676 -0.1220 -0.3283
  798MOL0     C 7661  10.289   1.804   4.107  0.1357 -0.3619  0.3252
  798MOL0     C 7662  10.310   1.900   4.227  0.2802 -0.2212 -0.0687
  798MOL0     H 7663  10.509   2.224   3.853  3.1666  1.2391  1.4687
  798MOL0     H 7664  10.683   2.351   3.751  2.6360 -0.9584  1.2387
  798MOL0     H 7665  10.992   2.138   3.545 -2.3792 -1.6265  1.7211
  798MOL0     H 7666  10.894   2.196   3.401  0.0121  2.6945 -1.2452
  798MOL0     H 7667  11.106   2.355   3.554  0.7623 -2.3728  0.7657
  798MOL0     H 7668  10.994   2.420   3.433 -2.4437 -0.3110  2.8963
  798MOL0     H 7669  11.081   2.244   3.268  1.7256  2.0057 -1.9062
  798MOL0     H 7670  11.192   2.187   3.398 -2.1765 -2.5643 -0.3766
  798MOL0     H 7671  11.200   2.469   3.279  1.6261  0.6010 -2.4663
  798MOL0     H 7672  11.320   2.401   3.378  0.3593 -0.2020 -0.0675
  798MOL0     H 7673  11.377   2.245   3.187 -0.7207 -0.2308  0.9446
  798MOL0     H 7674  11.260   2.314   3.089  4.2146 -1.8124 -3.7989
  798MOL0     H 7675  11.365   2.552   3.143  1.9139  1.9174 -0.5655
  798MOL0     H 7676  11.509   2.471   3.203 -2.8498  0.0673  1.8749
  798MOL0     H 7677  11.514   2.543   2.961  3.1671 -0.5803  1.6392
  798MOL0     H 7678  11.389   2.420   2.927  2.0788 -2.8304 -1.8958
  798MOL0     H 7679  11.528   2.249   2.999  2.1290 -0.3350  1.6872
  798MOL0     H 7680  11.568   2.332   2.852  0.4612  3.2533 -0.1425
  798MOL0     H 7681  11.704   2.224   3.181 -0.9674 -1.1279 -1.1658
  798MOL0     H 7682  11.943   2.430   3.320  0.2734  2.1630 -1.0489
  798MOL0     H 7683  11.950   2.251   3.297  0.1792  1.2414  2.7330
  798MOL0     H 7684  12.154   2.271   3.164  2.6993  0.9847 -0.1983
  798MOL0     H 7685  12.125   2.448   3.163 -0.6923  2.1566  2.8840
  798MOL0     H 7686  12.171   2.301   3.416 -0.2926  2.1480  1.6438
  798MOL0     H 7687  12.197   2.471   3.383  0.0533  0.6413 -0.9885
  798MOL0     H 7688  12.406   2.402   3.221  3.0012 -1.3996 -0.0488
  798MOL0     H 7689  12.374   2.240   3.289 -2.5996  0.2162 -1.1084
  798MOL0     H 7690  12.575   2.193   3.283  3.4560 -2.6337 -0.0629
  798MOL0     H 7691  12.818   2.156   3.314 -1.9391 -0.7427  0.9566
  798MOL0     H 7692  13.154   2.087   3.553 -0.9972 -1.2930  4.9243
  798MOL0     H 7693  13.351   2.010   3.652 -2.9183  0.1707  0.0257
  798MOL0     H 7694  13.582   1.954   3.729 -0.3810  0.7603  1.7791
  798MOL0     H 7695  13.594   2.056   3.582  0.8109  0.9072  0.4745
  798MOL0     H 7696  13.811   1.953   3.630  0.4410 -0.1801  1.2770
  798MOL0     H 7697  13.812   2.136   3.646  2.2399  0.0129  1.9332
  798MOL0     H 7698  13.785   2.104   3.881  2.5208  1.0336  0.4691
  798MOL0     H 7699  13.817   1.927   3.855  2.5489 -1.1555 -0.9297
  798MOL0     H 7700  14.006   2.112   3.923 -1.7163  0.0548  1.0551
  798MOL0     H 7701  14.000   2.158   3.755 -1.8062 -0.0360 -0.6467
  798MOL0     H 7702  14.072   1.946   3.682  0.2487  1.3159 -0.3377
  798MOL0     H 7703  14.060   1.877   3.846  1.6639  0.7635  0.7719
  798MOL0     H 7704  14.288   1.910   3.741 -0.6872 -1.3610  0.0414
  798MOL0     H 7705  14.260   2.089   3.764 -1.3883  0.0923 -4.3223
  798MOL0     H 7706  14.293   1.885   3.987 -1.0332  0.5249  0.4544
  798MOL0     H 7707  14.212   2.046   3.990  0.0580 -0.3849 -0.5878
  798MOL0     H 7708  14.497   1.996   3.890 -2.2340 -0.2666 -2.4859
  798MOL0     H 7709  14.426   2.158   3.911 -0.4261  0.0590  0.7773
  798MOL0     H 7710  13.455   2.394   3.800  0.5739 -2.1583  1.5266
  798MOL0     H 7711  13.236   2.476   3.707  1.3627  1.4030  0.0586
  798MOL0     H 7712  12.833   2.506   3.559  0.8174  1.0387 -1.5423
  798MOL0     H 7713  12.610   2.530   3.553  0.3335 -0.8794  1.6778
  798MOL0     H 7714  10.844   2.004   3.572 -0.7391  4.6576 -3.6167
  798MOL0     H 7715  10.671   1.850   3.708 -0.5694 -0.5893  2.8608
  798MOL0     H 7716  10.396   1.712   3.803 -0.3582  3.9760 -0.7010
  798MOL0     H 7717  10.223   1.540   3.833 -0.1269  0.6155 -0.3224
  798MOL0     H 7718  10.164   1.340   3.952 -0.7538  0.3050 -1.2023
  798MOL0     H 7719  10.023   1.431   3.892  2.5999  0.0448 -1.9008
  798MOL0     H 7720  10.064   1.262   4.143 -2.5696  1.5773  2.9452
  798MOL0     H 7721   9.977   1.201   4.001  2.4593 -1.6095  0.6136
  798MOL0     H 7722   9.795   1.368   4.060 -4.1343 -0.6151  2.7470
  798MOL0     H 7723   9.883   1.418   4.205  2.2337 -1.2288  0.5455
  798MOL0     H 7724   9.776   1.144   4.151 -1.6298  2.7755 -1.7532
  798MOL0     H 7725   9.884   1.184   4.287 -0.6823 -0.3554  0.3310
  798MOL0     H 7726   9.515   1.376   4.396 -0.6101 -0.9427 -0.1410
  798MOL0     H 7727  10.146   1.687   4.222  0.2627 -0.9685 -0.2609
  798MOL0     H 7728  10.230   1.891   4.300 -0.3010 -1.4675 -0.8250
  798MOL0     H 7729  10.406   1.879   4.275 -0.4939  2.3970  2.9638
  798MOL0     H 7730  10.312   2.004   4.192  0.4557 -0.9159 -2.2659
  799MOL0     O 7731   5.359   2.802   9.258  0.0480  0.2820 -0.6000
  799MOL0     C 7732   5.254   2.832   9.310  0.1238 -0.3637  0.1123
  799MOL0     O 7733   5.194   2.956   9.301  0.0064 -0.3690  0.6109
  799MOL0     C 7734   5.255   3.042   9.221 -0.0827 -0.1540  0.4032
  799MOL0     C 7735   5.332   3.137   9.288 -0.7195  0.3767 -0.7197
  799MOL0     C 7736   5.390   3.245   9.215 -0.2989  0.7336  0.8953
  799MOL0     C 7737   5.375   3.250   9.074 -0.6574  0.8700 -0.0578
  799MOL0     O 7738   5.427   3.361   9.009  0.6147 -0.7576  0.4384
  799MOL0     C 7739   5.563   3.397   9.019 -0.3704 -0.1006 -0.7910
  799MOL0     C 7740   5.589   3.522   8.935 -0.4022  0.0770 -0.7039
  799MOL0     C 7741   5.739   3.557   8.961 -0.4436 -0.0819 -0.1774
  799MOL0     C 7742   5.770   3.697   8.907  0.8921 -0.2864  0.0605
  799MOL0     C 7743   5.902   3.746   8.958 -0.3820  0.2259  0.4063
  799MOL0     C 7744   5.935   3.890   8.913  0.3363  0.1680 -0.4812
  799MOL0     C 7745   6.076   3.931   8.958 -0.0501  0.0520 -0.9553
  799MOL0     C 7746   6.096   4.081   8.988 -0.5337 -0.4106  0.6690
  799MOL0     N 7747   6.243   4.103   9.014  0.0777 -0.1653  0.2373
  799MOL0     C 7748   6.309   4.097   9.135 -0.1583 -0.4490  0.3245
  799MOL0     C 7749   6.442   4.120   9.107  0.3894  0.2164  0.4446
  799MOL0     C 7750   6.555   4.120   9.205 -0.6799  0.3381 -0.3443
  799MOL0     C 7751   6.678   4.028   9.162  0.0809 -0.9570 -0.6023
  799MOL0     C 7752   6.638   3.880   9.146  0.9010 -0.0676  0.5521
  799MOL0     C 7753   6.737   3.806   9.061  0.3834 -0.7846  0.2300
  799MOL0     O 7754   6.855   3.808   9.142 -0.8087  0.4929  0.5480
  799MOL0     C 7755   6.962   3.730   9.087  0.1629 -0.1136 -0.0104
  799MOL0     C 7756   6.949   3.646   8.973  0.2915  0.8181  0.4581
  799MOL0     C 7757   7.054   3.572   8.922  0.2308  0.2752  0.7130
  799MOL0     C 7758   7.179   3.569   8.985 -0.6973  0.4063 -0.3656
  799MOL0     C 7759   7.285   3.482   8.943  0.0711  0.0036 -0.0113
  799MOL0     O 7760   7.411   3.516   8.985 -0.4520  0.6656 -0.0458
  799MOL0     C 7761   7.517   3.420   8.991  1.0183 -0.3855 -0.2110
  799MOL0     C 7762   7.499   3.279   8.984  0.0351 -0.3254 -0.0934
  799MOL0     C 7763   7.605   3.184   8.978 -0.3833 -0.2775  0.2322
  799MOL0     C 7764   7.743   3.234   8.967 -0.4458  1.1620 -0.0158
  799MOL0     O 7765   7.848   3.151   8.957 -0.2126 -0.2670 -0.0860
  799MOL0     C 7766   7.829   3.024   9.032 -0.1165 -0.5720 -0.4089
  799MOL0     C 7767   7.807   3.052   9.178 -1.0830  0.2714 -0.7346
  799MOL0     C 7768   7.807   2.916   9.254  0.0002 -0.1146  0.2400
  799MOL0     C 7769   7.832   2.938   9.402 -0.2113  0.5613  0.1819
  799MOL0     C 7770   7.726   3.008   9.483  0.2205  0.4204  0.3405
  799MOL0     C 7771   7.588   2.947   9.489  0.8996 -0.1111 -0.0950
  799MOL0     C 7772   7.581   2.800   9.533 -0.8199  0.3153 -0.9160
  799MOL0     C 7773   7.439   2.751   9.524  0.3861 -0.9257  0.4930
  799MOL0    Cl 7774   7.328   2.858   9.621  0.6010 -0.1734  0.4558
  799MOL0     C 7775   7.766   3.368   8.992  0.7989 -0.1264  0.1946
  799MOL0     C 7776   7.655   3.457   9.001  0.3382 -0.0902 -0.8930
  799MOL0     O 7777   7.253   3.379   8.877 -0.4433 -0.2906  0.5310
  799MOL0     C 7778   7.192   3.649   9.104 -0.5400  0.6881 -0.3568
  799MOL0     C 7779   7.089   3.727   9.148  0.0295 -0.4076 -0.4572
  799MOL0     N 7780   6.446   4.152   8.973  0.1247 -0.1738 -0.1291
  799MOL0     N 7781   6.333   4.139   8.920  0.3921  0.3370  0.3773
  799MOL0     C 7782   5.313   3.139   9.008  0.0236  0.1832 -0.4298
  799MOL0     C 7783   5.256   3.037   9.084 -0.4048 -0.0875 -0.3389
  799MOL0     C 7784   5.197   2.721   9.395 -0.1455  0.4734 -0.1947
  799MOL0     C 7785   5.245   2.590   9.368  0.4316  0.2981 -0.2486
  799MOL0     C 7786   5.203   2.484   9.450  0.9448  0.5433 -0.1043
  799MOL0     C 7787   5.101   2.497   9.545  0.1613  0.3505  0.3368
  799MOL0     O 7788   5.044   2.400   9.620 -0.0195  0.1757  0.0722
  799MOL0     C 7789   5.115   2.276   9.646 -0.3240 -0.8400  0.7655
  799MOL0     C 7790   5.046   2.208   9.767 -0.8329 -0.6761  0.1258
  799MOL0     C 7791   4.904   2.164   9.746  0.2554 -0.1390  0.2943
  799MOL0     C 7792   4.821   2.113   9.871  0.1400 -0.2272  0.3103
  799MOL0     C 7793   4.883   1.998   9.941 -0.4976 -0.3374  0.3192
  799MOL0     C 7794   4.927   1.896   9.995  0.3663 -1.3408 -0.2184
  799MOL0     C 7795   5.043   2.622   9.558  0.2057 -0.3240  0.0095
  799MOL0     C 7796   5.096   2.738   9.494 -0.8143  0.0340  0.0644
  799MOL0     C 7797   5.050   2.870   9.549 -1.1474  0.7681 -0.3565
  799MOL0     H 7798   5.342   3.135   9.396  0.9171  3.2517 -0.7131
  799MOL0     H 7799   5.449   3.313   9.274  2.4765 -1.2369  0.5765
  799MOL0     H 7800   5.597   3.418   9.121  0.8288 -3.1670 -0.4505
  799MOL0     H 7801   5.624   3.311   8.992  0.9695 -0.1439  2.0102
  799MOL0     H 7802   5.531   3.608   8.970 -1.2259  0.3144 -2.5442
  799MOL0     H 7803   5.572   3.518   8.827  2.0852 -3.0314 -1.1421
  799MOL0     H 7804   5.810   3.489   8.913  0.8256  1.3000 -0.3317
  799MOL0     H 7805   5.758   3.545   9.068  1.8444 -0.4531 -0.5873
  799MOL0     H 7806   5.773   3.708   8.798  2.1863  0.3403  0.1336
  799MOL0     H 7807   5.694   3.768   8.943  2.0233  1.4596 -0.8391
  799MOL0     H 7808   5.900   3.745   9.067  0.0961  0.3354  0.4167
  799MOL0     H 7809   5.983   3.684   8.920  0.2464  1.8176 -0.9937
  799MOL0     H 7810   5.927   3.900   8.804  1.9021 -1.2105 -0.7578
  799MOL0     H 7811   5.857   3.955   8.955  0.0533  1.3424 -2.6750
  799MOL0     H 7812   6.137   3.887   8.878  0.8654 -0.3712 -0.0482
  799MOL0     H 7813   6.102   3.880   9.051 -0.0686  1.4700 -0.1402
  799MOL0     H 7814   6.067   4.135   8.897  1.5667 -1.0038 -0.4272
  799MOL0     H 7815   6.044   4.123   9.075 -0.8203  2.4349 -0.7733
  799MOL0     H 7816   6.269   4.066   9.231  0.1748  1.8453  1.2830
  799MOL0     H 7817   6.597   4.221   9.211  0.6534 -0.1701 -0.6850
  799MOL0     H 7818   6.519   4.097   9.306  0.5107  3.3042  0.8666
  799MOL0     H 7819   6.710   4.059   9.063  0.8205 -2.7556 -0.9639
  799MOL0     H 7820   6.763   4.031   9.231 -1.3681 -1.3654  1.2893
  799MOL0     H 7821   6.547   3.876   9.087 -0.4152  0.1324  2.4815
  799MOL0     H 7822   6.613   3.828   9.239  0.6052  1.7070  1.5074
  799MOL0     H 7823   6.748   3.859   8.967 -0.5207  3.1400  2.1119
  799MOL0     H 7824   6.704   3.702   9.047 -1.6042 -0.4425  1.7815
  799MOL0     H 7825   6.858   3.639   8.914  0.9499  0.4733 -0.5542
  799MOL0     H 7826   7.027   3.516   8.833  2.0532 -1.1519  1.0024
  799MOL0     H 7827   7.398   3.238   8.976  0.6122 -1.6650 -0.8441
  799MOL0     H 7828   7.580   3.080   8.961  2.0400 -0.6450 -1.6219
  799MOL0     H 7829   7.744   2.964   8.997 -0.3652  0.8634 -2.4596
  799MOL0     H 7830   7.922   2.970   9.010  0.5576 -0.5858  2.1864
  799MOL0     H 7831   7.891   3.103   9.227 -0.6781 -2.8644  2.2696
  799MOL0     H 7832   7.719   3.109   9.208  0.7415  1.1052  3.9964
  799MOL0     H 7833   7.719   2.855   9.232 -0.1598  0.7300 -1.6414
  799MOL0     H 7834   7.888   2.855   9.213  0.2056  0.7068 -0.5942
  799MOL0     H 7835   7.923   2.998   9.411 -0.4130  0.9809 -0.5405
  799MOL0     H 7836   7.857   2.837   9.436  0.2795 -0.5537 -3.1233
  799MOL0     H 7837   7.740   3.114   9.457 -2.5136  0.7343 -0.1251
  799MOL0     H 7838   7.763   3.004   9.586 -0.7431 -0.8614  0.6532
  799MOL0     H 7839   7.535   3.009   9.561 -1.2437 -2.8124  0.8306
  799MOL0     H 7840   7.550   2.955   9.386  0.2065  0.3292  0.1908
  799MOL0     H 7841   7.621   2.798   9.635  4.5071 -0.3894 -2.7545
  799MOL0     H 7842   7.645   2.741   9.467 -0.8759 -0.4822 -0.2765
  799MOL0     H 7843   7.423   2.744   9.416 -0.9063 -0.8047  0.6642
  799MOL0     H 7844   7.425   2.652   9.569 -4.6885 -0.9067 -0.4554
  799MOL0     H 7845   7.866   3.409   9.005  0.9046 -0.7539  1.5241
  799MOL0     H 7846   7.678   3.561   9.017 -0.2943 -0.0565 -0.1383
  799MOL0     H 7847   7.288   3.646   9.155 -0.2710 -0.7073 -0.9093
  799MOL0     H 7848   7.102   3.792   9.234 -2.1668 -2.1713  1.3759
  799MOL0     H 7849   5.295   3.130   8.901 -1.6511 -1.0019 -0.0969
  799MOL0     H 7850   5.202   2.964   9.026 -0.7669 -0.5533  0.5657
  799MOL0     H 7851   5.324   2.571   9.296  0.0588  2.5131 -1.2971
  799MOL0     H 7852   5.252   2.387   9.442  0.8879  0.4208  0.9619
  799MOL0     H 7853   5.222   2.292   9.660 -0.4382  4.1169 -1.7759
  799MOL0     H 7854   5.096   2.223   9.552 -2.0463 -1.0870  1.2165
  799MOL0     H 7855   5.047   2.269   9.857  0.5751 -0.4233 -0.0441
  799MOL0     H 7856   5.108   2.121   9.789 -0.1430 -0.2263 -0.0393
  799MOL0     H 7857   4.899   2.089   9.667  0.7707 -1.0324  1.0889
  799MOL0     H 7858   4.855   2.257   9.715  0.9726  0.0680 -0.2545
  799MOL0     H 7859   4.805   2.207   9.925  2.0519 -0.3663  1.1891
  799MOL0     H 7860   4.726   2.070   9.837  0.5890 -0.6971 -0.3685
  799MOL0     H 7861   4.971   1.804  10.027  0.3136 -1.3306 -0.1157
  799MOL0     H 7862   4.972   2.628   9.640 -0.5585  1.4203 -0.7204
  799MOL0     H 7863   5.127   2.947   9.560 -0.8366  0.2312  1.6393
  799MOL0     H 7864   4.983   2.917   9.476 -2.4036  1.7647  1.3642
  799MOL0     H 7865   5.007   2.865   9.649  1.3456  1.1564  0.8152
  800MOL0     O 7866   8.315   4.824   5.595  0.4879  0.3137 -0.2921
  800MOL0     C 7867   8.220   4.792   5.670 -0.6658 -0.3485  0.4707
  800MOL0     O 7868   8.243   4.733   5.791  0.0076  0.3361 -0.0443
  800MOL0     C 7869   8.374   4.694   5.807 -0.3035  0.2803  0.1388
  800MOL0     C 7870   8.391   4.558   5.822 -0.1841 -0.1490  0.1843
  800MOL0     C 7871   8.514   4.505   5.853 -0.1615  0.8425 -0.2443
  800MOL0     C 7872   8.621   4.590   5.872 -0.0130 -0.0005  0.0472
  800MOL0     O 7873   8.740   4.541   5.902  0.8211  0.3642  0.0291
  800MOL0     C 7874   8.746   4.418   5.978  0.9728 -0.3203 -0.2185
  800MOL0     C 7875   8.874   4.432   6.050  0.4142  0.0759 -0.5908
  800MOL0     C 7876   8.860   4.519   6.176 -0.6835  0.9282 -0.7816
  800MOL0     C 7877   8.915   4.453   6.304  0.7352 -0.1159  0.0546
  800MOL0     C 7878   9.068   4.453   6.298 -0.2496 -0.4338  0.8346
  800MOL0     C 7879   9.137   4.372   6.409 -0.6296  0.1514 -0.5690
  800MOL0     C 7880   9.291   4.353   6.390  0.6467  0.3636  0.4279
  800MOL0     C 7881   9.363   4.295   6.510  0.0164  0.0894  0.2630
  800MOL0     N 7882   9.505   4.287   6.470 -0.3724  0.1032  0.2257
  800MOL0     C 7883   9.597   4.391   6.487 -0.3022  0.3191  0.8752
  800MOL0     C 7884   9.701   4.351   6.413 -0.6528  0.4556 -0.5789
  800MOL0     C 7885   9.827   4.435   6.392  0.2110  0.3486 -0.2016
  800MOL0     C 7886   9.857   4.530   6.515  0.4028 -0.5966  0.1754
  800MOL0     C 7887   9.995   4.595   6.502 -0.0571  0.1831  0.2699
  800MOL0     C 7888  10.115   4.504   6.527  0.8761 -0.0050  0.3043
  800MOL0     O 7889  10.101   4.428   6.646 -0.7190  0.1318 -0.0748
  800MOL0     C 7890  10.206   4.358   6.699  0.8525 -0.7279 -0.7342
  800MOL0     C 7891  10.196   4.311   6.836  0.2788  0.1134  0.3276
  800MOL0     C 7892  10.305   4.264   6.903  0.2584 -0.3495 -0.0523
  800MOL0     C 7893  10.432   4.256   6.839  0.3371 -0.3985  0.0398
  800MOL0     C 7894  10.547   4.202   6.925 -0.0630 -0.4764 -0.4335
  800MOL0     O 7895  10.530   4.191   7.064  0.0846 -0.2308 -0.3182
  800MOL0     C 7896  10.624   4.119   7.135 -0.7913 -0.4993 -0.5635
  800MOL0     C 7897  10.685   4.174   7.248 -0.1546  0.7507  0.9087
  800MOL0     C 7898  10.783   4.099   7.306  0.5435 -0.9106 -0.0242
  800MOL0     C 7899  10.809   3.963   7.268 -0.2235 -0.8186  0.2142
  800MOL0     O 7900  10.929   3.916   7.329  0.7092  0.3333 -0.2007
  800MOL0     C 7901  10.978   3.792   7.288  0.2140 -0.4045 -0.5699
  800MOL0     C 7902  11.098   3.768   7.360 -0.1559 -0.3730  0.6774
  800MOL0     C 7903  11.092   3.758   7.512  0.1219  0.7603 -0.5608
  800MOL0     C 7904  11.211   3.680   7.565  0.0617  0.0271  0.2377
  800MOL0     C 7905  11.177   3.625   7.694  0.2158  0.2721  0.2007
  800MOL0     C 7906  11.303   3.555   7.740  0.5101 -0.8987  1.0657
  800MOL0     C 7907  11.271   3.483   7.872 -0.5321  0.4363  0.1946
  800MOL0     C 7908  11.381   3.382   7.902  0.2919  0.2454  0.2592
  800MOL0    Cl 7909  11.544   3.454   7.891  0.0812 -0.2620 -0.4873
  800MOL0     C 7910  10.748   3.910   7.153 -0.1807 -0.2508 -0.2520
  800MOL0     C 7911  10.649   3.982   7.096 -0.7399 -0.7779  1.0425
  800MOL0     O 7912  10.645   4.167   6.870  0.0820  0.1760 -0.0090
  800MOL0     C 7913  10.440   4.295   6.708  0.6089  0.4771  0.1029
  800MOL0     C 7914  10.330   4.351   6.642  0.2237  0.2775 -0.2752
  800MOL0     N 7915   9.666   4.233   6.342  0.0115 -0.4456  0.0121
  800MOL0     N 7916   9.558   4.190   6.390 -0.4203 -0.8858 -0.2253
  800MOL0     C 7917   8.609   4.730   5.840 -0.2757  0.2351  0.2351
  800MOL0     C 7918   8.480   4.782   5.817 -0.5481 -0.1612 -0.5911
  800MOL0     C 7919   8.084   4.842   5.635 -0.3898 -0.3156  0.7859
  800MOL0     C 7920   7.997   4.859   5.741 -0.8293  0.0607  0.1439
  800MOL0     C 7921   7.861   4.878   5.725 -0.3311 -0.2363  0.4745
  800MOL0     C 7922   7.809   4.896   5.596  0.4406  0.2703 -0.3795
  800MOL0     O 7923   7.677   4.919   5.572 -0.0315  0.1378  0.2194
  800MOL0     C 7924   7.576   4.825   5.614  0.0627 -0.1415  0.1757
  800MOL0     C 7925   7.530   4.730   5.501  0.1987  0.2040 -0.0752
  800MOL0     C 7926   7.403   4.676   5.554 -0.6383  0.6600 -0.1859
  800MOL0     C 7927   7.341   4.587   5.453  0.5135 -0.3538 -0.0223
  800MOL0     C 7928   7.202   4.553   5.500 -0.1465  0.2255 -0.1019
  800MOL0     C 7929   7.085   4.521   5.526  0.2994 -0.6343 -0.6610
  800MOL0     C 7930   7.894   4.879   5.491 -0.1242  0.2574  0.3535
  800MOL0     C 7931   8.027   4.848   5.507 -0.1268  0.4267  0.0489
  800MOL0     C 7932   8.104   4.805   5.382 -0.0129 -0.4915 -0.5071
  800MOL0     H 7933   8.305   4.495   5.804  0.4878 -0.8137 -0.8016
  800MOL0     H 7934   8.517   4.396   5.848  0.6038  0.8996 -1.3981
  800MOL0     H 7935   8.672   4.395   6.056  3.7100 -1.4300  2.2385
  800MOL0     H 7936   8.761   4.324   5.925  1.1799 -1.3001  1.4822
  800MOL0     H 7937   8.957   4.467   5.987  0.8407  1.2854  0.5812
  800MOL0     H 7938   8.907   4.333   6.082 -0.9467  0.2621  1.5755
  800MOL0     H 7939   8.765   4.566   6.200 -1.9286 -2.4824  1.8013
  800MOL0     H 7940   8.934   4.596   6.153 -0.2313  1.2296  1.5294
  800MOL0     H 7941   8.889   4.512   6.393 -1.5427 -1.3437  0.2927
  800MOL0     H 7942   8.868   4.355   6.316  2.6942 -1.7361 -3.7074
  800MOL0     H 7943   9.100   4.425   6.197 -1.7992 -0.4318  0.3117
  800MOL0     H 7944   9.100   4.557   6.305 -1.1598  0.0070 -1.0838
  800MOL0     H 7945   9.129   4.427   6.503  0.2220  1.8033 -1.4108
  800MOL0     H 7946   9.089   4.274   6.416  1.9610 -1.0522  2.6196
  800MOL0     H 7947   9.350   4.441   6.365  2.0295 -0.4437  0.7758
  800MOL0     H 7948   9.299   4.288   6.303 -1.7818 -2.1357  1.9130
  800MOL0     H 7949   9.357   4.354   6.601  0.8012 -2.3591  2.0135
  800MOL0     H 7950   9.318   4.199   6.536  0.6417 -0.0888  0.7262
  800MOL0     H 7951   9.583   4.488   6.534  0.7788  0.5760  0.6900
  800MOL0     H 7952   9.913   4.371   6.368  1.6559  1.5045  1.6027
  800MOL0     H 7953   9.811   4.494   6.301 -0.3748 -0.9510 -0.9669
  800MOL0     H 7954   9.784   4.611   6.524  0.1998 -0.7007 -0.5513
  800MOL0     H 7955   9.853   4.481   6.613  0.2775  1.3046  1.1776
  800MOL0     H 7956  10.002   4.693   6.550  1.1990  0.6081 -0.7341
  800MOL0     H 7957   9.993   4.628   6.398 -1.0296  1.2772  0.6122
  800MOL0     H 7958  10.206   4.564   6.531  0.5345  0.6468 -0.9882
  800MOL0     H 7959  10.115   4.441   6.438  1.9152 -0.2085  0.4388
  800MOL0     H 7960  10.097   4.305   6.880 -0.5668 -2.5515 -1.7038
  800MOL0     H 7961  10.291   4.236   7.007 -1.5747  0.6531  0.0241
  800MOL0     H 7962  10.667   4.277   7.277  0.6785  1.0901  0.2715
  800MOL0     H 7963  10.829   4.147   7.393  1.6217  0.4349 -1.2773
  800MOL0     H 7964  10.902   3.715   7.307 -0.6366  0.1088 -1.7498
  800MOL0     H 7965  10.994   3.787   7.179  0.8603 -0.4440 -0.4764
  800MOL0     H 7966  11.121   3.672   7.314 -1.6685  0.5069 -2.1283
  800MOL0     H 7967  11.169   3.847   7.333  1.9655 -2.8081 -1.2899
  800MOL0     H 7968  11.088   3.855   7.563  4.0801  1.2617 -0.8578
  800MOL0     H 7969  11.003   3.701   7.540  1.8149 -0.4138  3.0446
  800MOL0     H 7970  11.296   3.748   7.563 -0.0250  0.1220 -0.6259
  800MOL0     H 7971  11.225   3.591   7.503 -2.6249  0.7301 -1.5626
  800MOL0     H 7972  11.087   3.564   7.681 -0.5544  1.2863  0.5829
  800MOL0     H 7973  11.158   3.698   7.774  2.8065 -1.5155  2.6156
  800MOL0     H 7974  11.338   3.486   7.662  0.3694 -0.7586  0.8753
  800MOL0     H 7975  11.386   3.623   7.757  2.6223 -2.5196 -1.7512
  800MOL0     H 7976  11.170   3.440   7.867  0.9342 -3.3762  0.2154
  800MOL0     H 7977  11.265   3.558   7.951  1.9999  0.3963  0.4904
  800MOL0     H 7978  11.365   3.322   7.992 -1.7009 -2.9998 -2.0133
  800MOL0     H 7979  11.370   3.310   7.820 -1.0129  1.0617 -0.3158
  800MOL0     H 7980  10.777   3.813   7.113 -3.0177 -1.2283 -0.1864
  800MOL0     H 7981  10.615   3.936   7.004  2.3470 -1.0494 -0.0680
  800MOL0     H 7982  10.536   4.290   6.657  0.2225  2.3240 -0.9058
  800MOL0     H 7983  10.341   4.380   6.538 -0.2100  1.5124  0.0108
  800MOL0     H 7984   8.693   4.798   5.847 -1.0920  1.3730 -0.5786
  800MOL0     H 7985   8.462   4.889   5.812 -1.8152 -0.3400 -0.1808
  800MOL0     H 7986   8.026   4.845   5.845 -1.5411  1.0737  0.5045
  800MOL0     H 7987   7.802   4.878   5.817  2.5475  1.5432  2.4912
  800MOL0     H 7988   7.494   4.889   5.647  0.5330  0.0821  0.9402
  800MOL0     H 7989   7.615   4.762   5.694 -1.1602  0.9769  1.7004
  800MOL0     H 7990   7.600   4.648   5.480  2.4407  1.6744  1.1959
  800MOL0     H 7991   7.517   4.789   5.410 -0.1205  0.5686  0.2038
  800MOL0     H 7992   7.341   4.763   5.580  1.9633  2.5361  0.0837
  800MOL0     H 7993   7.413   4.623   5.649 -1.4148 -1.7470 -1.3466
  800MOL0     H 7994   7.318   4.637   5.359 -2.0533  1.1856  1.3090
  800MOL0     H 7995   7.406   4.501   5.435 -1.1069 -1.2754 -1.9430
  800MOL0     H 7996   6.985   4.487   5.544  0.3815 -0.2141  0.6739
  800MOL0     H 7997   7.864   4.870   5.387  2.2029 -3.0456 -0.1891
  800MOL0     H 7998   8.146   4.706   5.399  0.3803 -0.2609 -0.1214
  800MOL0     H 7999   8.051   4.808   5.287  1.6299  1.4991 -1.4477
  800MOL0     H 8000   8.186   4.877   5.382 -0.7218  0.4052 -2.9403
  801MOL0     O 8001   2.733   8.941   1.786  0.2811  0.1118 -0.1607
  801MOL0     C 8002   2.713   8.876   1.680 -0.0535 -0.0539 -0.2731
  801MOL0     O 8003   2.809   8.805   1.610  0.3456 -0.1562 -0.0532
  801MOL0     C 8004   2.939   8.795   1.653 -0.9402 -0.5041 -0.2732
  801MOL0     C 8005   3.008   8.913   1.709  0.0434  0.5875  0.3891
  801MOL0     C 8006   3.143   8.903   1.755 -0.4999 -0.0231 -0.6674
  801MOL0     C 8007   3.207   8.777   1.750  1.0166 -0.9133  0.6154
  801MOL0     O 8008   3.317   8.741   1.822 -0.3555 -0.0115 -0.7942
  801MOL0     C 8009   3.410   8.846   1.842 -0.6240 -0.3838 -0.7970
  801MOL0     C 8010   3.562   8.810   1.861 -0.2443  0.3691  0.3637
  801MOL0     C 8011   3.606   8.703   1.764  0.5021  0.1624  0.5120
  801MOL0     C 8012   3.748   8.668   1.785 -0.2807 -0.0344  1.1699
  801MOL0     C 8013   3.802   8.598   1.660 -1.0398 -0.1380 -0.2032
  801MOL0     C 8014   3.727   8.467   1.629  0.2817  0.1747  0.1005
  801MOL0     C 8015   3.782   8.398   1.497  0.8149 -0.0283 -0.3889
  801MOL0     C 8016   3.720   8.257   1.455 -0.4924  0.3603 -0.6968
  801MOL0     N 8017   3.575   8.277   1.442  0.4322 -0.0323 -0.4460
  801MOL0     C 8018   3.478   8.261   1.546  0.5260  0.1293 -0.1840
  801MOL0     C 8019   3.357   8.300   1.497  0.2459 -0.1372  0.5969
  801MOL0     C 8020   3.219   8.281   1.571  0.1831 -0.0679  0.3163
  801MOL0     C 8021   3.086   8.306   1.490  0.2019  0.4135  0.5597
  801MOL0     C 8022   2.971   8.311   1.578  1.1925  0.0125 -0.4533
  801MOL0     C 8023   2.841   8.339   1.500  0.0405  0.5415 -0.5982
  801MOL0     O 8024   2.741   8.384   1.596  0.0021  0.6977 -0.1153
  801MOL0     C 8025   2.610   8.396   1.552 -0.3455 -0.3445  0.1648
  801MOL0     C 8026   2.522   8.421   1.653 -0.7473  0.3447  0.5737
  801MOL0     C 8027   2.391   8.451   1.625 -0.3009 -0.0757 -0.0712
  801MOL0     C 8028   2.352   8.455   1.486  0.7840 -0.9974 -0.2219
  801MOL0     C 8029   2.215   8.496   1.443  0.3624  0.0852 -0.2887
  801MOL0     O 8030   2.174   8.483   1.315  0.4111 -0.9230 -0.5914
  801MOL0     C 8031   2.038   8.518   1.297  0.3516 -0.4270 -0.7831
  801MOL0     C 8032   2.004   8.619   1.203  0.9899 -0.0679  0.5037
  801MOL0     C 8033   1.868   8.649   1.167 -0.9475 -0.3141 -0.7417
  801MOL0     C 8034   1.762   8.582   1.230 -0.6051  0.4554  0.4566
  801MOL0     O 8035   1.629   8.604   1.200 -0.3132 -0.3783  0.2129
  801MOL0     C 8036   1.584   8.703   1.102 -0.4080 -0.7114  0.7815
  801MOL0     C 8037   1.428   8.705   1.109  0.4452  0.5217  0.1136
  801MOL0     C 8038   1.359   8.807   1.017  0.3391  0.5878  1.0686
  801MOL0     C 8039   1.211   8.773   0.998 -0.7124 -0.1446  0.4258
  801MOL0     C 8040   1.136   8.901   0.975  0.2768  0.4872 -0.2418
  801MOL0     C 8041   0.983   8.893   0.995 -1.0050 -0.0530 -0.0532
  801MOL0     C 8042   0.908   8.782   0.904  0.1843  0.4212  0.7179
  801MOL0     C 8043   0.757   8.810   0.900 -0.7239 -0.0451 -0.5138
  801MOL0    Cl 8044   0.670   8.694   0.809  0.2782  0.1680  0.0925
  801MOL0     C 8045   1.791   8.482   1.317 -0.5065  0.6510 -0.1204
  801MOL0     C 8046   1.926   8.450   1.350  0.0235  0.2411  0.8435
  801MOL0     O 8047   2.144   8.536   1.535 -0.3842 -0.1201 -0.4684
  801MOL0     C 8048   2.440   8.414   1.385 -0.2955  0.1849 -0.9381
  801MOL0     C 8049   2.570   8.392   1.417 -0.5023 -0.1404  0.6631
  801MOL0     N 8050   3.380   8.343   1.365  0.1582 -0.2864  0.3759
  801MOL0     N 8051   3.506   8.329   1.331 -0.6382 -0.4162 -0.0859
  801MOL0     C 8052   3.133   8.674   1.687  0.7920  0.3499 -0.2658
  801MOL0     C 8053   3.003   8.682   1.639 -0.7955  0.1956  0.2090
  801MOL0     C 8054   2.582   8.890   1.615  0.1291  0.2953 -0.4185
  801MOL0     C 8055   2.547   8.787   1.523  0.1518 -0.1583  0.0752
  801MOL0     C 8056   2.424   8.805   1.448  0.0767 -0.8820  0.1350
  801MOL0     C 8057   2.333   8.906   1.475 -0.6588  0.4046  0.2652
  801MOL0     O 8058   2.219   8.919   1.397 -0.6921 -0.0168  0.6946
  801MOL0     C 8059   2.114   8.852   1.456  0.4447  0.4981 -0.8157
  801MOL0     C 8060   1.985   8.941   1.455  1.1172 -0.8716  0.7003
  801MOL0     C 8061   1.949   8.976   1.306  0.2629  1.2625 -0.6552
  801MOL0     C 8062   1.844   9.091   1.320 -0.8712 -0.5863  0.1112
  801MOL0     C 8063   1.708   9.037   1.331 -0.6251  0.8546  0.0562
  801MOL0     C 8064   1.602   8.977   1.329  0.2146  0.2477 -0.1676
  801MOL0     C 8065   2.359   8.987   1.584 -0.3473 -0.8870 -1.0207
  801MOL0     C 8066   2.481   8.984   1.655 -0.7326  0.1389  0.0262
  801MOL0     C 8067   2.493   9.098   1.753 -0.0445 -0.3395 -0.3577
  801MOL0     H 8068   2.963   9.012   1.711 -1.1955  0.1121 -1.5738
  801MOL0     H 8069   3.188   8.996   1.787  1.4468 -1.0874 -0.1578
  801MOL0     H 8070   3.403   8.918   1.760  1.3609  1.1422  0.2714
  801MOL0     H 8071   3.387   8.904   1.932  1.0427 -0.9053  0.0089
  801MOL0     H 8072   3.578   8.768   1.961  0.5076  0.3243  0.2261
  801MOL0     H 8073   3.625   8.897   1.841  0.0970  0.0503  0.0292
  801MOL0     H 8074   3.581   8.752   1.669  1.7140  0.9800  0.5930
  801MOL0     H 8075   3.544   8.615   1.781  0.6539  0.2770  1.7212
  801MOL0     H 8076   3.807   8.760   1.794 -0.4274  0.2393 -0.4811
  801MOL0     H 8077   3.753   8.602   1.872  0.9263 -0.7368  0.5910
  801MOL0     H 8078   3.820   8.668   1.579  0.3336 -1.4500 -1.0910
  801MOL0     H 8079   3.902   8.560   1.684  0.2816  2.2501 -1.5658
  801MOL0     H 8080   3.733   8.408   1.721 -2.1775 -2.6882 -1.3752
  801MOL0     H 8081   3.622   8.487   1.605  0.4149 -2.6064 -3.8487
  801MOL0     H 8082   3.889   8.378   1.509  1.1935  1.5632 -0.8912
  801MOL0     H 8083   3.783   8.466   1.411  1.7778  2.9337  1.8076
  801MOL0     H 8084   3.766   8.223   1.362  0.7297  1.3651 -0.4994
  801MOL0     H 8085   3.726   8.186   1.538 -1.1229  1.7259  0.5645
  801MOL0     H 8086   3.495   8.225   1.647  0.6391  1.3162  0.2317
  801MOL0     H 8087   3.230   8.183   1.619  1.5464 -0.3085 -0.4307
  801MOL0     H 8088   3.223   8.356   1.651  0.6836 -0.1830  0.4031
  801MOL0     H 8089   3.099   8.405   1.445  0.4980  0.4803  0.7848
  801MOL0     H 8090   3.074   8.232   1.411  1.0241 -1.2895  1.9493
  801MOL0     H 8091   2.987   8.393   1.648 -1.6925  1.4358 -1.2902
  801MOL0     H 8092   2.960   8.217   1.632 -3.8329  0.5031 -0.1365
  801MOL0     H 8093   2.812   8.254   1.438  2.2102 -0.8720  0.1933
  801MOL0     H 8094   2.864   8.424   1.434 -0.6695  0.7289 -0.6110
  801MOL0     H 8095   2.554   8.422   1.756 -2.5658  1.0345  1.1639
  801MOL0     H 8096   2.322   8.471   1.707 -1.1605 -0.5216 -0.6705
  801MOL0     H 8097   2.092   8.670   1.164  0.3593  0.0642 -0.7950
  801MOL0     H 8098   1.838   8.727   1.099 -2.4651 -0.8947 -0.7784
  801MOL0     H 8099   1.613   8.803   1.136  0.3365 -0.1346 -1.4300
  801MOL0     H 8100   1.634   8.683   1.007 -0.1828  0.3948  0.6573
  801MOL0     H 8101   1.388   8.606   1.085 -0.4064  0.7890  0.3981
  801MOL0     H 8102   1.385   8.719   1.209  1.2487 -1.9107  0.8824
  801MOL0     H 8103   1.375   8.908   1.056 -0.4390  1.9238 -1.7556
  801MOL0     H 8104   1.405   8.808   0.917 -0.5969 -1.5093  0.5650
  801MOL0     H 8105   1.166   8.728   1.087 -0.8243 -2.7472 -0.8652
  801MOL0     H 8106   1.198   8.706   0.913  2.5604 -0.2243 -0.1652
  801MOL0     H 8107   1.157   8.944   0.876  3.3584 -0.5388 -0.1589
  801MOL0     H 8108   1.164   8.970   1.055 -1.3816 -0.0248  0.8294
  801MOL0     H 8109   0.968   8.860   1.098  0.9788  0.3171  0.3940
  801MOL0     H 8110   0.941   8.993   0.979 -0.9353  0.0488  0.3837
  801MOL0     H 8111   0.926   8.683   0.949  2.0461 -0.0836 -0.9874
  801MOL0     H 8112   0.951   8.787   0.804  0.0202  2.8289  0.7008
  801MOL0     H 8113   0.721   8.791   1.001  0.0498  0.9898 -0.0251
  801MOL0     H 8114   0.735   8.914   0.873 -3.0563 -0.6947 -1.3167
  801MOL0     H 8115   1.716   8.427   1.373 -0.5301 -0.8978 -1.5977
  801MOL0     H 8116   1.944   8.376   1.429 -1.1884  1.2560  2.1157
  801MOL0     H 8117   2.420   8.409   1.278 -1.2887  1.2768 -0.8330
  801MOL0     H 8118   2.642   8.374   1.339 -1.5413  0.4995 -0.4683
  801MOL0     H 8119   3.180   8.576   1.685 -1.9605 -1.1089  0.3067
  801MOL0     H 8120   2.961   8.606   1.575  2.7033 -1.0987 -0.7757
  801MOL0     H 8121   2.604   8.699   1.499  0.0738  0.0020 -0.7386
  801MOL0     H 8122   2.397   8.722   1.383 -5.8430 -0.6482  1.7812
  801MOL0     H 8123   2.131   8.803   1.552  0.1079  1.6907 -0.1238
  801MOL0     H 8124   2.088   8.775   1.383  2.1076 -1.9940  1.0878
  801MOL0     H 8125   2.009   9.031   1.513  0.0478 -0.9770  1.3263
  801MOL0     H 8126   1.896   8.893   1.495  1.8651 -1.2175  2.0051
  801MOL0     H 8127   1.922   8.888   1.247  0.5940  0.1185  0.8260
  801MOL0     H 8128   2.042   9.007   1.256  0.3969 -0.5603 -1.6044
  801MOL0     H 8129   1.864   9.155   1.407  3.2038 -1.9290  0.3591
  801MOL0     H 8130   1.857   9.149   1.228 -0.4420  0.7919  1.0083
  801MOL0     H 8131   1.506   8.930   1.325 -0.2812  1.2511 -0.3298
  801MOL0     H 8132   2.291   9.069   1.606  1.2944  0.5348 -0.9922
  801MOL0     H 8133   2.419   9.178   1.742  0.3057  0.8960  4.1452
  801MOL0     H 8134   2.476   9.068   1.856 -1.2693  0.7994 -0.2000
  801MOL0     H 8135   2.588   9.150   1.740 -1.9131  3.4222 -0.2421
  802MOL0     O 8136   7.481   8.077  10.472 -0.2436  0.1153  0.6541
  802MOL0     C 8137   7.524   8.043  10.585 -0.1599  0.2916 -0.1808
  802MOL0     O 8138   7.547   8.127  10.689 -0.0506 -0.7594  0.5031
  802MOL0     C 8139   7.518   8.258  10.677 -1.2231  0.7097  0.0824
  802MOL0     C 8140   7.598   8.352  10.607  0.2678 -0.7324 -0.2535
  802MOL0     C 8141   7.534   8.479  10.596 -0.8124  0.5299 -0.3806
  802MOL0     C 8142   7.405   8.504  10.650  1.2485 -0.4623 -0.3762
  802MOL0     O 8143   7.353   8.631  10.620 -0.4444  0.7158 -0.1129
  802MOL0     C 8144   7.225   8.673  10.675 -0.0967  0.2100 -0.7550
  802MOL0     C 8145   7.190   8.818  10.672  0.0784 -0.1545  0.4876
  802MOL0     C 8146   7.132   8.851  10.531  0.2725  0.4686 -0.3179
  802MOL0     C 8147   7.100   8.994  10.517 -0.0678 -0.5548 -0.1455
  802MOL0     C 8148   7.225   9.077  10.481 -0.6661  0.3214  0.3682
  802MOL0     C 8149   7.187   9.226  10.461  0.6498 -0.0880 -0.6805
  802MOL0     C 8150   7.322   9.308  10.448  0.5467  0.3018 -0.0459
  802MOL0     C 8151   7.289   9.457  10.455 -0.7179 -0.3866 -0.2959
  802MOL0     N 8152   7.413   9.532  10.457 -0.2943  0.2145 -0.4965
  802MOL0     C 8153   7.495   9.556  10.562  0.7000 -0.3296 -0.8856
  802MOL0     C 8154   7.604   9.609  10.509 -0.9728 -0.8374  0.2981
  802MOL0     C 8155   7.712   9.663  10.589 -0.5254 -0.1190  0.5185
  802MOL0     C 8156   7.750   9.805  10.567  0.5599  0.0134 -0.3536
  802MOL0     C 8157   7.641   9.904  10.591  0.6012  0.3268 -0.0392
  802MOL0     C 8158   7.695  10.040  10.616 -0.2848 -0.5569 -1.1274
  802MOL0     O 8159   7.780  10.079  10.514  0.1078 -0.3996  0.8032
  802MOL0     C 8160   7.862  10.179  10.527 -0.9692 -0.0191  0.3495
  802MOL0     C 8161   7.900  10.241  10.645  0.5993  0.1713  0.0843
  802MOL0     C 8162   7.993  10.349  10.638  1.2710  0.0308  0.0484
  802MOL0     C 8163   8.049  10.395  10.514  0.0952 -0.5431  0.0036
  802MOL0     C 8164   8.159  10.497  10.513 -0.2419  0.8160 -0.0602
  802MOL0     O 8165   8.219  10.501  10.390 -0.1247 -0.7123  0.6512
  802MOL0     C 8166   8.325  10.596  10.361 -0.1724  0.9622 -0.1811
  802MOL0     C 8167   8.387  10.696  10.436  0.3751 -0.3337  0.3134
  802MOL0     C 8168   8.488  10.771  10.380 -0.1396 -0.1437  0.0718
  802MOL0     C 8169   8.529  10.758  10.250  0.3264 -0.4698 -0.0927
  802MOL0     O 8170   8.611  10.845  10.186  0.0447  0.0674  0.6086
  802MOL0     C 8171   8.717  10.896  10.267  0.2559  0.1466 -0.3520
  802MOL0     C 8172   8.837  10.922  10.173 -0.9203  0.0506 -0.0307
  802MOL0     C 8173   8.958  10.970  10.258 -0.9511  0.1292 -0.3316
  802MOL0     C 8174   9.071  11.010  10.149  0.9808  0.0082  0.2538
  802MOL0     C 8175   9.132  11.147  10.181 -1.0201 -0.8330  0.2863
  802MOL0     C 8176   9.225  11.193  10.075 -0.4984 -0.5091  0.6106
  802MOL0     C 8177   9.292  11.330  10.112 -0.1626  0.8812  0.8963
  802MOL0     C 8178   9.335  11.410   9.994 -0.2055  0.0419  0.1871
  802MOL0    Cl 8179   9.421  11.555  10.052  0.0043  0.2612  0.0092
  802MOL0     C 8180   8.474  10.657  10.176 -0.0238 -0.0142  0.3129
  802MOL0     C 8181   8.374  10.580  10.227  0.7031 -0.4449  0.1667
  802MOL0     O 8182   8.200  10.548  10.617  0.0123  0.9235  0.0117
  802MOL0     C 8183   8.017  10.325  10.399 -0.1860 -0.4836 -0.2496
  802MOL0     C 8184   7.931  10.222  10.401  0.9012 -0.5883 -0.5294
  802MOL0     N 8185   7.586   9.624  10.369 -0.4100 -0.0787  0.1415
  802MOL0     N 8186   7.479   9.552  10.338  0.8629 -0.3148 -0.0242
  802MOL0     C 8187   7.339   8.408  10.719  0.6935 -0.5060  0.6215
  802MOL0     C 8188   7.392   8.284  10.735 -0.1372 -0.3576 -0.3290
  802MOL0     C 8189   7.543   7.895  10.625  0.0274  0.0577 -0.2061
  802MOL0     C 8190   7.545   7.861  10.757 -0.7303 -0.0798  0.1614
  802MOL0     C 8191   7.592   7.737  10.800  0.1174  0.5253  0.5470
  802MOL0     C 8192   7.634   7.633  10.707 -0.4226 -0.3717  0.2382
  802MOL0     O 8193   7.698   7.518  10.749  1.2132  0.7679 -0.1606
  802MOL0     C 8194   7.726   7.505  10.888 -0.4840 -0.4726  0.4709
  802MOL0     C 8195   7.855   7.582  10.911  0.8463 -0.0944 -0.4134
  802MOL0     C 8196   7.975   7.520  10.849 -0.1543  0.2081  0.6963
  802MOL0     C 8197   8.112   7.565  10.909  0.3550  0.7286  0.1467
  802MOL0     C 8198   8.130   7.708  10.909 -0.2381 -0.0351 -0.4806
  802MOL0     C 8199   8.140   7.829  10.915 -0.2340  0.0477  0.8727
  802MOL0     C 8200   7.619   7.661  10.574  0.7068 -0.5902  0.9318
  802MOL0     C 8201   7.574   7.790  10.528  0.2415 -0.3820  0.3427
  802MOL0     C 8202   7.560   7.810  10.377  0.5339 -0.3120  0.2165
  802MOL0     H 8203   7.695   8.335  10.561  0.9950  0.6900  0.6850
  802MOL0     H 8204   7.578   8.566  10.548  0.1174 -0.5308 -1.5179
  802MOL0     H 8205   7.139   8.623  10.631 -1.3543  0.4795  1.2742
  802MOL0     H 8206   7.225   8.651  10.782  0.2084 -3.4346 -1.3985
  802MOL0     H 8207   7.275   8.881  10.699 -0.2301  0.0992  0.8825
  802MOL0     H 8208   7.111   8.843  10.744 -0.1564 -0.0921  0.2072
  802MOL0     H 8209   7.050   8.780  10.514 -0.5499  0.8789  1.6388
  802MOL0     H 8210   7.196   8.823  10.447  0.0381  0.7690 -0.5991
  802MOL0     H 8211   7.028   9.006  10.436 -0.4590 -1.7397  0.0169
  802MOL0     H 8212   7.057   9.024  10.613 -0.3094 -2.0050  0.2236
  802MOL0     H 8213   7.304   9.060  10.554 -2.0652 -2.1990  1.4001
  802MOL0     H 8214   7.265   9.026  10.393 -0.7856 -2.6613  1.9283
  802MOL0     H 8215   7.121   9.244  10.375  1.0934  1.4838 -0.7204
  802MOL0     H 8216   7.129   9.253  10.549  1.3082 -1.4924  0.2116
  802MOL0     H 8217   7.374   9.285  10.355  1.7437  1.2264  0.3689
  802MOL0     H 8218   7.396   9.289  10.527  2.3752  0.8488 -1.5512
  802MOL0     H 8219   7.229   9.488  10.369 -0.6180  3.7087  0.8879
  802MOL0     H 8220   7.239   9.486  10.548  2.7647 -1.2784  2.0255
  802MOL0     H 8221   7.477   9.553  10.669  3.5973 -0.0852 -0.3268
  802MOL0     H 8222   7.684   9.654  10.694 -0.4170  0.9785  0.6567
  802MOL0     H 8223   7.804   9.604  10.574 -2.5048 -3.7248  1.3502
  802MOL0     H 8224   7.835   9.829  10.631 -1.8242  1.0762  2.7228
  802MOL0     H 8225   7.778   9.821  10.463 -0.2543  0.7731 -0.4768
  802MOL0     H 8226   7.570   9.875  10.670 -0.2801  3.7270  0.5880
  802MOL0     H 8227   7.599   9.907  10.490  1.7321 -0.9163 -0.5710
  802MOL0     H 8228   7.750  10.027  10.710  1.1335  0.1108 -1.8430
  802MOL0     H 8229   7.606  10.103  10.624  1.6747  2.0751  2.0385
  802MOL0     H 8230   7.870  10.206  10.743  3.3682 -1.1035  0.5619
  802MOL0     H 8231   8.022  10.407  10.725  0.1183  0.7860 -0.0403
  802MOL0     H 8232   8.340  10.716  10.532 -1.9107 -0.2008 -0.7559
  802MOL0     H 8233   8.535  10.840  10.449 -3.0431  0.1636  1.9243
  802MOL0     H 8234   8.678  10.981  10.324  0.3450  0.3687 -0.6273
  802MOL0     H 8235   8.751  10.827  10.346 -2.3875  0.8376  1.5422
  802MOL0     H 8236   8.864  10.830  10.120  0.0107  1.9461 -3.1105
  802MOL0     H 8237   8.800  10.994  10.100 -1.6072  1.8078  1.9224
  802MOL0     H 8238   8.933  11.056  10.321 -0.4305  1.7516 -2.2399
  802MOL0     H 8239   8.993  10.894  10.328 -0.0670 -0.1341 -1.0391
  802MOL0     H 8240   9.024  11.017  10.051 -0.6769  0.1115  1.0118
  802MOL0     H 8241   9.154  10.939  10.139 -0.3608 -1.5645 -0.2088
  802MOL0     H 8242   9.179  11.149  10.279  2.4266 -0.5527 -1.2253
  802MOL0     H 8243   9.047  11.215  10.186 -2.0946 -2.1134  0.1708
  802MOL0     H 8244   9.289  11.107  10.054  0.9962  0.8180 -0.4958
  802MOL0     H 8245   9.157  11.207   9.990  1.0804  1.0170 -0.4816
  802MOL0     H 8246   9.381  11.308  10.172 -0.0767 -1.4472  0.0303
  802MOL0     H 8247   9.224  11.385  10.177 -1.8581 -0.3695  0.2562
  802MOL0     H 8248   9.410  11.353   9.938 -0.2363 -1.3287  1.4566
  802MOL0     H 8249   9.257  11.431   9.921 -0.6859  1.8343  1.1606
  802MOL0     H 8250   8.499  10.632  10.074 -1.6358 -3.9529  0.7052
  802MOL0     H 8251   8.322  10.500  10.175 -1.3680 -1.9835  4.1903
  802MOL0     H 8252   8.067  10.356  10.308  1.3400 -1.2308  0.3039
  802MOL0     H 8253   7.917  10.175  10.304  0.5215 -0.6679 -0.4358
  802MOL0     H 8254   7.243   8.430  10.766  0.6896  0.2942  0.2538
  802MOL0     H 8255   7.333   8.206  10.783 -1.7439 -0.4886 -2.4194
  802MOL0     H 8256   7.526   7.933  10.836 -0.9879 -0.3783  0.3772
  802MOL0     H 8257   7.599   7.723  10.907 -2.6044  1.4894  0.9285
  802MOL0     H 8258   7.750   7.401  10.914 -0.9774 -1.0769 -1.3264
  802MOL0     H 8259   7.644   7.536  10.953 -0.4537 -0.7522  0.6440
  802MOL0     H 8260   7.865   7.570  11.019  0.0231 -4.3789 -0.6380
  802MOL0     H 8261   7.834   7.685  10.879 -2.9676 -0.0532  1.6489
  802MOL0     H 8262   7.977   7.551  10.744 -2.1343 -0.7245  0.3312
  802MOL0     H 8263   7.967   7.411  10.850 -0.3021  0.1467 -1.8239
  802MOL0     H 8264   8.128   7.529  11.011  2.5194 -0.9472 -0.6984
  802MOL0     H 8265   8.195   7.521  10.853  0.0138 -2.0352  1.6367
  802MOL0     H 8266   8.158   7.934  10.925  2.1908 -0.2848  0.4972
  802MOL0     H 8267   7.632   7.570  10.516 -0.5231 -2.1860  3.0058
  802MOL0     H 8268   7.552   7.711  10.330  0.4961 -0.9347  1.5149
  802MOL0     H 8269   7.467   7.863  10.355  0.1826 -0.5285  1.1393
  802MOL0     H 8270   7.641   7.870  10.334  0.3689  0.7535  1.3543
  803MOL0     O 8271   7.448   2.808   2.181  0.4512  0.5877 -0.2623
  803MOL0     C 8272   7.360   2.894   2.209 -0.6612  0.0744  0.3121
  803MOL0     O 8273   7.378   3.017   2.275 -0.1726 -0.2905 -0.1103
  803MOL0     C 8274   7.504   3.069   2.290 -0.5952  0.0049  0.5035
  803MOL0     C 8275   7.610   3.043   2.200 -0.3682 -0.3128 -0.1587
  803MOL0     C 8276   7.729   3.118   2.213  0.6801 -0.9312  0.2290
  803MOL0     C 8277   7.758   3.202   2.317 -0.5913 -0.4560  0.2684
  803MOL0     O 8278   7.886   3.236   2.329  0.4442  0.1571  0.0057
  803MOL0     C 8279   7.923   3.334   2.434  0.6686  0.1879 -0.8042
  803MOL0     C 8280   8.061   3.388   2.421  0.2311 -0.0849  0.0927
  803MOL0     C 8281   8.074   3.449   2.282 -1.0494  0.7312 -0.6227
  803MOL0     C 8282   8.223   3.455   2.221  0.2639 -0.1226  0.0738
  803MOL0     C 8283   8.321   3.551   2.300 -1.0321 -0.0243  0.6326
  803MOL0     C 8284   8.423   3.600   2.191 -0.7754  0.1976 -0.6767
  803MOL0     C 8285   8.499   3.719   2.237  0.8222  0.0376  0.5760
  803MOL0     C 8286   8.604   3.750   2.133 -0.5584  0.1584  0.8792
  803MOL0     N 8287   8.674   3.870   2.183 -0.1090 -0.1597  0.0737
  803MOL0     C 8288   8.731   3.886   2.306  0.4582 -0.5289  0.0805
  803MOL0     C 8289   8.767   4.019   2.312  0.7297  0.9864  0.2642
  803MOL0     C 8290   8.832   4.078   2.433 -0.3907 -0.1227  0.1228
  803MOL0     C 8291   8.990   4.089   2.421 -0.5397  0.1256  0.3537
  803MOL0     C 8292   9.049   4.140   2.552  0.4835 -1.2590  1.0104
  803MOL0     C 8293   9.198   4.181   2.535 -0.8197  0.3102 -0.2251
  803MOL0     O 8294   9.261   4.215   2.660  0.4356 -0.3408 -0.3911
  803MOL0     C 8295   9.394   4.246   2.665 -0.3539 -0.2410  0.3074
  803MOL0     C 8296   9.464   4.207   2.786  0.4938 -0.7042  0.2851
  803MOL0     C 8297   9.595   4.253   2.807  0.4753 -0.0953 -0.0800
  803MOL0     C 8298   9.662   4.333   2.713  0.4378 -0.3491 -0.9647
  803MOL0     C 8299   9.808   4.363   2.732 -0.0825  0.3470 -0.0217
  803MOL0     O 8300   9.874   4.449   2.643 -0.1455 -0.1410 -0.3908
  803MOL0     C 8301   9.986   4.506   2.696 -0.8180  0.3605 -0.2979
  803MOL0     C 8302   9.989   4.619   2.770  0.4522  0.1858  0.7425
  803MOL0     C 8303  10.109   4.680   2.821  0.1613 -0.1000 -0.8414
  803MOL0     C 8304  10.232   4.616   2.796  0.8281  0.7470 -0.2280
  803MOL0     O 8305  10.346   4.669   2.852  0.7388  0.3399  0.1679
  803MOL0     C 8306  10.469   4.596   2.834  0.1721 -0.0402 -0.6593
  803MOL0     C 8307  10.469   4.475   2.926  0.5980  0.0528  0.7460
  803MOL0     C 8308  10.612   4.460   2.974 -0.3122 -0.1442 -0.0196
  803MOL0     C 8309  10.709   4.432   2.859  0.4709  0.6236 -0.3539
  803MOL0     C 8310  10.862   4.441   2.901  0.0739 -0.6498 -0.8025
  803MOL0     C 8311  10.964   4.486   2.790 -0.0511  0.7434 -0.4014
  803MOL0     C 8312  10.936   4.401   2.664 -0.7976  0.1768  0.6173
  803MOL0     C 8313  11.024   4.458   2.552 -0.6260 -0.1158 -0.2932
  803MOL0    Cl 8314  10.933   4.598   2.486  0.1893 -0.0536 -0.1609
  803MOL0     C 8315  10.226   4.492   2.712  0.2294  0.7364 -0.1490
  803MOL0     C 8316  10.107   4.443   2.665  0.0782  0.2882  0.7741
  803MOL0     O 8317   9.861   4.314   2.833 -0.3855 -0.6925  0.3222
  803MOL0     C 8318   9.588   4.377   2.606  0.8542  0.6224  0.0765
  803MOL0     C 8319   9.455   4.339   2.582  0.0401 -0.6542 -0.0557
  803MOL0     N 8320   8.728   4.081   2.197  0.4120 -0.0644 -0.3484
  803MOL0     N 8321   8.671   3.993   2.113 -1.1305  0.2668  0.3347
  803MOL0     C 8322   7.660   3.211   2.420  0.1901 -0.9988 -0.4841
  803MOL0     C 8323   7.536   3.155   2.401 -0.2026  0.2127 -0.1026
  803MOL0     C 8324   7.217   2.862   2.177 -0.1725  0.5051 -0.4312
  803MOL0     C 8325   7.117   2.893   2.271  0.1355  0.5840 -0.9282
  803MOL0     C 8326   6.984   2.850   2.251 -0.0433  0.8848  0.2162
  803MOL0     C 8327   6.939   2.782   2.139 -0.4439  0.1360 -0.6029
  803MOL0     O 8328   6.804   2.744   2.143 -0.0853 -0.3622 -0.2647
  803MOL0     C 8329   6.750   2.627   2.079 -0.0396 -0.7715 -0.1020
  803MOL0     C 8330   6.618   2.607   2.163  0.8198  0.0033  0.5012
  803MOL0     C 8331   6.658   2.526   2.290 -0.2875  1.0676  0.0426
  803MOL0     C 8332   6.527   2.469   2.356 -0.3438 -0.0448 -0.9055
  803MOL0     C 8333   6.434   2.584   2.387  0.2523 -0.1424 -0.2290
  803MOL0     C 8334   6.350   2.672   2.402  0.4144  0.1455  0.0357
  803MOL0     C 8335   7.042   2.753   2.045  0.6563  0.5267  0.5136
  803MOL0     C 8336   7.177   2.789   2.065  0.3399  0.0478 -0.8924
  803MOL0     C 8337   7.269   2.761   1.951 -0.3831  0.5979 -0.0456
  803MOL0     H 8338   7.608   2.970   2.120 -2.1497  1.1692 -1.5597
  803MOL0     H 8339   7.808   3.105   2.140  0.5845 -1.2926  0.1864
  803MOL0     H 8340   7.862   3.425   2.432  0.2362 -0.1044 -1.2790
  803MOL0     H 8341   7.904   3.284   2.529 -1.2847  2.2440 -0.0306
  803MOL0     H 8342   8.137   3.311   2.433 -2.2980 -2.4114  2.4472
  803MOL0     H 8343   8.078   3.462   2.500  0.6682  0.0168 -0.0924
  803MOL0     H 8344   8.028   3.548   2.272 -1.1153  0.5852 -1.8476
  803MOL0     H 8345   8.028   3.384   2.207  3.8522 -2.4988 -1.2595
  803MOL0     H 8346   8.276   3.359   2.219  4.6911  2.0238 -3.4380
  803MOL0     H 8347   8.210   3.482   2.116 -2.3687  0.0150  0.3609
  803MOL0     H 8348   8.274   3.637   2.350 -1.2237  0.2711 -0.0438
  803MOL0     H 8349   8.375   3.497   2.378  3.7497  2.5498 -0.5175
  803MOL0     H 8350   8.494   3.521   2.166 -0.1541  1.0439 -1.6990
  803MOL0     H 8351   8.372   3.621   2.096  0.6421 -2.8903 -2.2646
  803MOL0     H 8352   8.546   3.691   2.332 -0.5172  0.0288  1.2590
  803MOL0     H 8353   8.428   3.799   2.259 -0.3776 -1.4526  2.4395
  803MOL0     H 8354   8.679   3.673   2.115 -0.1415  1.1581 -2.3992
  803MOL0     H 8355   8.554   3.758   2.036  1.9621 -0.0098 -0.5392
  803MOL0     H 8356   8.736   3.816   2.389  0.0151 -1.6319 -0.7977
  803MOL0     H 8357   8.803   4.182   2.450  2.3793  1.0390 -1.5476
  803MOL0     H 8358   8.810   4.017   2.521  1.5064  0.7383  1.2589
  803MOL0     H 8359   9.031   3.992   2.390  1.4243  0.6199  1.2188
  803MOL0     H 8360   9.007   4.158   2.338  0.3361 -2.5233 -1.8507
  803MOL0     H 8361   9.028   4.063   2.627 -0.4617 -2.3418 -0.3127
  803MOL0     H 8362   9.001   4.232   2.585 -2.0937 -2.4603  0.7935
  803MOL0     H 8363   9.209   4.261   2.461  0.4306  0.1965 -0.1826
  803MOL0     H 8364   9.242   4.090   2.493 -2.3755  0.9606 -3.5763
  803MOL0     H 8365   9.421   4.136   2.856 -1.3893  0.1446  0.0594
  803MOL0     H 8366   9.655   4.208   2.885  0.9902  1.6686  0.5689
  803MOL0     H 8367   9.894   4.670   2.782  0.2057  0.6668 -2.3696
  803MOL0     H 8368  10.104   4.774   2.875  0.4943 -1.2987  1.4068
  803MOL0     H 8369  10.483   4.573   2.728  2.0632  2.5960 -1.0716
  803MOL0     H 8370  10.551   4.665   2.857  1.0973 -0.9035 -1.2543
  803MOL0     H 8371  10.394   4.487   3.004  0.6195  4.7549  0.3329
  803MOL0     H 8372  10.430   4.388   2.872  0.0773  0.0802  1.0746
  803MOL0     H 8373  10.635   4.549   3.034  0.8187  0.5451 -1.4051
  803MOL0     H 8374  10.609   4.381   3.048 -1.8066  1.2012  1.4298
  803MOL0     H 8375  10.699   4.491   2.768  1.5491 -0.5445 -1.2602
  803MOL0     H 8376  10.684   4.330   2.828  0.2010  1.3200 -2.5794
  803MOL0     H 8377  10.899   4.343   2.930 -0.3761 -0.8640 -0.9407
  803MOL0     H 8378  10.876   4.500   2.992  2.3928 -0.1150 -1.4371
  803MOL0     H 8379  10.963   4.595   2.774 -2.3773  0.5050 -2.5403
  803MOL0     H 8380  11.063   4.452   2.821 -0.5534 -0.8875 -0.5217
  803MOL0     H 8381  10.832   4.398   2.629  0.2175 -1.2291 -2.6332
  803MOL0     H 8382  10.960   4.295   2.667 -2.9119 -0.4201 -1.2269
  803MOL0     H 8383  11.128   4.477   2.581  0.0663 -0.7152 -2.2215
  803MOL0     H 8384  11.034   4.377   2.479  2.2304  0.4136 -0.6024
  803MOL0     H 8385  10.303   4.423   2.679 -0.3223 -0.3109  0.6969
  803MOL0     H 8386  10.109   4.362   2.592 -1.4067 -0.2894  1.3294
  803MOL0     H 8387   9.638   4.452   2.545  3.1597 -0.8063  0.1252
  803MOL0     H 8388   9.398   4.395   2.509  0.7466  0.3835  0.1733
  803MOL0     H 8389   7.685   3.263   2.512  0.8197 -3.3205  0.7304
  803MOL0     H 8390   7.447   3.171   2.461 -0.0404 -0.1530  0.2382
  803MOL0     H 8391   7.142   2.933   2.369 -0.9342  0.0931 -0.4456
  803MOL0     H 8392   6.926   2.881   2.338  1.1004 -0.6911  1.5975
  803MOL0     H 8393   6.821   2.546   2.100  3.2081  2.4490  2.5722
  803MOL0     H 8394   6.729   2.635   1.972 -0.6203  2.0996  0.1463
  803MOL0     H 8395   6.546   2.548   2.106 -0.4086  1.2978  0.6647
  803MOL0     H 8396   6.569   2.700   2.191  0.0749  0.5533 -2.3720
  803MOL0     H 8397   6.712   2.590   2.360  3.2688 -1.4510 -0.1096
  803MOL0     H 8398   6.729   2.445   2.271 -0.0948  1.4612 -0.9548
  803MOL0     H 8399   6.486   2.394   2.287  1.4265 -0.1139 -1.9275
  803MOL0     H 8400   6.553   2.422   2.451 -0.2527  1.8525  0.0436
  803MOL0     H 8401   6.264   2.731   2.424 -0.5110 -0.0409 -2.6960
  803MOL0     H 8402   7.015   2.702   1.953  0.3785  3.0300 -0.8582
  803MOL0     H 8403   7.321   2.856   1.937 -0.4000  0.6628  0.3401
  803MOL0     H 8404   7.339   2.679   1.970 -2.1693 -0.7704  1.0025
  803MOL0     H 8405   7.210   2.740   1.861 -0.2825 -0.1803  0.0641
  804MOL0     O 8406   1.734   4.575   5.875  0.6229 -0.1343 -0.0046
  804MOL0     C 8407   1.716   4.623   5.982  0.1197 -1.0503 -0.4568
  804MOL0     O 8408   1.599   4.654   6.045 -0.5150 -0.3085 -0.2018
  804MOL0     C 8409   1.479   4.607   5.996 -0.6850  0.7149 -0.0765
  804MOL0     C 8410   1.459   4.498   5.905  0.2904 -0.0946  0.2361
  804MOL0     C 8411   1.332   4.463   5.873  0.0073  0.2885  0.0020
  804MOL0     C 8412   1.221   4.530   5.915 -0.4685 -0.1369  0.3864
  804MOL0     O 8413   1.106   4.493   5.842 -0.5053 -0.3094  0.3320
  804MOL0     C 8414   0.982   4.553   5.872  1.1288  0.3868  0.0196
  804MOL0     C 8415   0.880   4.450   5.822 -0.3657  0.0971 -0.3322
  804MOL0     C 8416   0.741   4.483   5.877 -0.1190 -0.2734  0.9838
  804MOL0     C 8417   0.729   4.430   6.020 -0.7495 -0.0710  1.1255
  804MOL0     C 8418   0.592   4.470   6.067  0.2868 -0.1949  0.1672
  804MOL0     C 8419   0.585   4.458   6.218  0.1315  0.3502 -0.1275
  804MOL0     C 8420   0.568   4.309   6.264 -1.3218  0.5997 -0.4765
  804MOL0     C 8421   0.532   4.300   6.413  0.1589 -0.6353  0.6156
  804MOL0     N 8422   0.651   4.280   6.501  0.3304 -0.6704 -0.3069
  804MOL0     C 8423   0.691   4.361   6.601  0.1453  0.5079 -0.7879
  804MOL0     C 8424   0.772   4.279   6.672 -0.4349  0.3645 -0.0441
  804MOL0     C 8425   0.851   4.311   6.806  0.6928  0.6858 -0.3289
  804MOL0     C 8426   0.990   4.242   6.823 -1.0933  0.1583 -0.4878
  804MOL0     C 8427   1.083   4.271   6.704 -0.3777  0.0670 -0.2176
  804MOL0     C 8428   1.233   4.235   6.727  1.3176 -0.3300 -0.0828
  804MOL0     O 8429   1.286   4.348   6.802 -0.0976  0.9778 -0.3368
  804MOL0     C 8430   1.418   4.353   6.824 -0.0650 -0.3785  0.5268
  804MOL0     C 8431   1.471   4.473   6.874  0.7404  0.0809 -0.1014
  804MOL0     C 8432   1.605   4.481   6.905  0.0103  0.4107 -0.2347
  804MOL0     C 8433   1.703   4.390   6.865  0.4213 -0.6723 -0.4200
  804MOL0     C 8434   1.843   4.417   6.877  0.1137  1.1076 -0.1157
  804MOL0     O 8435   1.882   4.533   6.927 -0.3226 -0.3193  0.0178
  804MOL0     C 8436   2.018   4.555   6.919  1.1375  1.0551  0.3742
  804MOL0     C 8437   2.091   4.541   6.803 -0.6684 -0.1118  0.5926
  804MOL0     C 8438   2.227   4.573   6.808  0.4640  0.1342  0.4151
  804MOL0     C 8439   2.286   4.639   6.912 -0.2154  0.1745  0.3833
  804MOL0     O 8440   2.409   4.694   6.886 -1.1437 -0.6200  0.6447
  804MOL0     C 8441   2.493   4.695   6.999 -0.1848 -0.4546  0.1065
  804MOL0     C 8442   2.634   4.686   6.949 -0.0574  0.1062 -0.4752
  804MOL0     C 8443   2.685   4.825   6.900  0.3132  1.3910 -0.3967
  804MOL0     C 8444   2.835   4.819   6.892 -0.3445  0.4335 -0.5180
  804MOL0     C 8445   2.885   4.945   6.820  0.0541  0.2760 -0.9747
  804MOL0     C 8446   3.035   4.922   6.781 -0.4875 -0.5353 -0.4662
  804MOL0     C 8447   3.088   5.047   6.714  0.4216  0.1406 -0.2029
  804MOL0     C 8448   3.249   5.035   6.706 -0.4328 -0.0292 -0.3011
  804MOL0    Cl 8449   3.301   5.197   6.653  0.0448  0.0701  0.5945
  804MOL0     C 8450   2.214   4.639   7.037 -0.1860  0.0967 -0.7300
  804MOL0     C 8451   2.075   4.590   7.037 -0.5144 -1.3798  0.4684
  804MOL0     O 8452   1.911   4.311   6.859 -0.1324 -0.0631  0.4833
  804MOL0     C 8453   1.650   4.269   6.814  0.7493  0.1548  0.7962
  804MOL0     C 8454   1.512   4.250   6.803  0.0371  0.0532  0.0136
  804MOL0     N 8455   0.759   4.150   6.621 -0.7449  0.8473 -0.1477
  804MOL0     N 8456   0.689   4.153   6.513 -0.4480  0.2424 -0.1147
  804MOL0     C 8457   1.237   4.630   6.005  0.8890 -0.4161 -1.4894
  804MOL0     C 8458   1.364   4.661   6.050 -0.1355  0.2716  0.3923
  804MOL0     C 8459   1.827   4.653   6.067  0.7242 -0.7597  0.1304
  804MOL0     C 8460   1.827   4.615   6.208 -0.6021  0.1241 -0.0005
  804MOL0     C 8461   1.936   4.651   6.292 -0.1982 -0.1848 -0.3229
  804MOL0     C 8462   2.036   4.730   6.232  0.4017  0.3827 -0.0815
  804MOL0     O 8463   2.147   4.763   6.306  0.3126 -0.2044  0.7474
  804MOL0     C 8464   2.152   4.739   6.448 -0.9123  0.1582  0.6744
  804MOL0     C 8465   2.285   4.794   6.516  0.0833  0.7548  0.2236
  804MOL0     C 8466   2.405   4.757   6.435  0.2087  0.2273  0.3156
  804MOL0     C 8467   2.533   4.802   6.507  0.4482 -0.4150  0.9559
  804MOL0     C 8468   2.654   4.761   6.433  0.0867 -0.3960  0.4589
  804MOL0     C 8469   2.758   4.743   6.374  0.0980  0.1342  0.0886
  804MOL0     C 8470   2.036   4.769   6.101 -0.4001 -0.2136 -0.6074
  804MOL0     C 8471   1.936   4.728   6.016  0.0306 -0.3825  1.0407
  804MOL0     C 8472   1.952   4.777   5.867 -0.6216 -0.1961  0.2522
  804MOL0     H 8473   1.532   4.437   5.853 -1.2710 -1.3921 -0.5379
  804MOL0     H 8474   1.316   4.392   5.793  0.2168 -0.7735  0.8809
  804MOL0     H 8475   0.976   4.575   5.979  1.1798  1.9913 -0.2785
  804MOL0     H 8476   0.969   4.652   5.827 -2.0875  1.6824  3.3016
  804MOL0     H 8477   0.902   4.350   5.862 -0.2539  0.1213 -0.3322
  804MOL0     H 8478   0.879   4.443   5.713 -2.4375 -1.9037 -0.2566
  804MOL0     H 8479   0.668   4.452   5.802 -1.3338  0.7842  1.6581
  804MOL0     H 8480   0.723   4.590   5.891  2.7901  0.3956  0.2842
  804MOL0     H 8481   0.743   4.322   6.013 -0.6145 -0.0645  1.2873
  804MOL0     H 8482   0.803   4.474   6.087 -1.7678 -0.0501  2.2643
  804MOL0     H 8483   0.566   4.576   6.060 -1.5110 -0.3275  3.3109
  804MOL0     H 8484   0.508   4.414   6.027 -0.2234 -0.8051  2.0110
  804MOL0     H 8485   0.677   4.499   6.260 -0.0124  0.5669 -0.0205
  804MOL0     H 8486   0.500   4.519   6.252  0.5397  0.1147  1.3935
  804MOL0     H 8487   0.656   4.251   6.235 -0.7973  1.6248 -0.9787
  804MOL0     H 8488   0.491   4.260   6.204  2.1215 -1.4820 -3.6567
  804MOL0     H 8489   0.467   4.382   6.445  0.2245 -0.5790  0.6069
  804MOL0     H 8490   0.471   4.211   6.431  1.7935 -1.3977  2.8608
  804MOL0     H 8491   0.664   4.465   6.619 -0.3709  0.0176  1.6877
  804MOL0     H 8492   0.863   4.419   6.822  4.0603  0.8108 -2.7114
  804MOL0     H 8493   0.791   4.271   6.888  0.6133 -2.4585 -1.7721
  804MOL0     H 8494   1.025   4.276   6.921 -1.9807  2.3366 -0.8723
  804MOL0     H 8495   0.972   4.134   6.829 -1.6826  0.3384  2.2686
  804MOL0     H 8496   1.084   4.378   6.684 -1.1339 -0.1297 -1.3856
  804MOL0     H 8497   1.044   4.227   6.612 -1.6147  0.7330 -0.0301
  804MOL0     H 8498   1.286   4.220   6.633  1.1751  0.0242 -0.2226
  804MOL0     H 8499   1.238   4.141   6.783  0.2180 -0.3417  0.0102
  804MOL0     H 8500   1.401   4.555   6.884  0.0322 -0.2809 -1.7620
  804MOL0     H 8501   1.629   4.572   6.958 -2.8472  1.2176 -0.1482
  804MOL0     H 8502   2.047   4.511   6.708 -1.1728  0.0341  0.7781
  804MOL0     H 8503   2.280   4.559   6.715  2.7584 -2.7336  1.9954
  804MOL0     H 8504   2.477   4.790   7.052  1.8380  0.4349 -0.7936
  804MOL0     H 8505   2.471   4.615   7.071 -0.1529 -0.8176 -0.2823
  804MOL0     H 8506   2.704   4.661   7.030  1.6708  2.1417 -1.2632
  804MOL0     H 8507   2.650   4.614   6.868 -0.3474  0.4408 -0.8323
  804MOL0     H 8508   2.642   4.851   6.803  1.4580  1.9932 -0.7638
  804MOL0     H 8509   2.660   4.909   6.964  2.9317  2.3408 -0.4811
  804MOL0     H 8510   2.854   4.726   6.838 -3.5304 -0.7600  0.1574
  804MOL0     H 8511   2.888   4.809   6.987 -1.2760 -2.0372 -0.1582
  804MOL0     H 8512   2.876   5.025   6.894 -0.8347 -0.1584 -0.5935
  804MOL0     H 8513   2.820   4.974   6.737 -0.7080  0.1488 -0.4403
  804MOL0     H 8514   3.095   4.907   6.871  1.5832  1.8507 -1.2984
  804MOL0     H 8515   3.051   4.832   6.722  4.4071 -1.1153  1.2940
  804MOL0     H 8516   3.053   5.133   6.772  0.6838 -0.4516  0.8645
  804MOL0     H 8517   3.051   5.059   6.612 -1.7108 -0.4574  0.4379
  804MOL0     H 8518   3.300   5.014   6.801  0.2410 -0.7523 -0.8064
  804MOL0     H 8519   3.276   4.958   6.634  0.1968  0.9475 -1.1262
  804MOL0     H 8520   2.266   4.681   7.123 -0.9465  0.2930 -0.3502
  804MOL0     H 8521   2.013   4.574   7.126 -1.0221 -1.1518  0.1614
  804MOL0     H 8522   1.715   4.191   6.778 -0.5957 -0.4705 -0.3584
  804MOL0     H 8523   1.484   4.150   6.774 -1.2359 -0.0794  1.5463
  804MOL0     H 8524   1.159   4.699   6.035  2.0218  0.2677  0.0381
  804MOL0     H 8525   1.379   4.721   6.139  1.0994  1.3985 -0.5466
  804MOL0     H 8526   1.744   4.563   6.255  1.2300 -2.0081  1.0410
  804MOL0     H 8527   1.934   4.626   6.397 -2.1117 -0.6141 -0.4109
  804MOL0     H 8528   2.138   4.632   6.465  0.2372  0.2366  2.3365
  804MOL0     H 8529   2.063   4.788   6.490 -1.1299  0.3495  0.0031
  804MOL0     H 8530   2.289   4.756   6.618 -0.5971 -0.4707 -0.1753
  804MOL0     H 8531   2.279   4.902   6.527  0.8355  0.8288 -0.0162
  804MOL0     H 8532   2.397   4.808   6.339  2.6995 -0.2030 -0.1751
  804MOL0     H 8533   2.411   4.649   6.426 -1.4047  0.1800 -0.4592
  804MOL0     H 8534   2.535   4.910   6.528 -2.5599 -0.3939  1.6743
  804MOL0     H 8535   2.530   4.750   6.603  1.0869  0.5659  1.5287
  804MOL0     H 8536   2.850   4.712   6.327 -0.4719 -0.2053 -0.8328
  804MOL0     H 8537   2.112   4.838   6.067 -1.2856  1.0509 -0.0900
  804MOL0     H 8538   2.001   4.875   5.872  0.3322 -0.7311  2.0738
  804MOL0     H 8539   2.004   4.717   5.792  2.1792  1.9798  0.2590
  804MOL0     H 8540   1.851   4.792   5.827 -2.6189  0.5123  4.8360
  805MOL0     O 8541   6.248   2.384   3.807 -0.5575  0.0990 -0.4437
  805MOL0     C 8542   6.249   2.271   3.856 -1.1673 -0.9893  0.1229
  805MOL0     O 8543   6.363   2.195   3.845 -1.3111  0.3221 -0.1936
  805MOL0     C 8544   6.471   2.251   3.780 -0.2267  1.1072  0.3633
  805MOL0     C 8545   6.512   2.193   3.667 -0.7904 -0.4091  0.4761
  805MOL0     C 8546   6.633   2.233   3.606 -0.3866 -0.2926  0.8334
  805MOL0     C 8547   6.699   2.348   3.651 -0.4200  0.0559 -0.0683
  805MOL0     O 8548   6.826   2.380   3.603 -0.2930 -0.0694  0.5944
  805MOL0     C 8549   6.916   2.462   3.685 -0.7968  0.8108 -0.1779
  805MOL0     C 8550   7.053   2.455   3.612  0.0291 -0.4194 -0.5396
  805MOL0     C 8551   7.114   2.311   3.622  0.4474  0.7470 -0.4648
  805MOL0     C 8552   7.238   2.286   3.524  0.1485 -0.4623 -0.2384
  805MOL0     C 8553   7.360   2.369   3.566 -0.4372  0.1748  0.2642
  805MOL0     C 8554   7.473   2.360   3.457 -0.0125  0.1687 -0.2600
  805MOL0     C 8555   7.608   2.414   3.513  0.5549  0.0727 -0.1793
  805MOL0     C 8556   7.606   2.563   3.557 -0.4116  0.7604 -0.0713
  805MOL0     N 8557   7.736   2.617   3.614  0.5842  0.7406 -0.1630
  805MOL0     C 8558   7.847   2.642   3.539  0.1759 -0.6412  0.6305
  805MOL0     C 8559   7.932   2.682   3.626  0.1115 -0.2569 -0.5545
  805MOL0     C 8560   8.065   2.742   3.596 -0.4813 -0.0571 -1.0713
  805MOL0     C 8561   8.177   2.648   3.649 -0.1882 -0.2709 -0.2457
  805MOL0     C 8562   8.178   2.609   3.800 -0.6127  0.6759 -0.3544
  805MOL0     C 8563   8.304   2.551   3.852 -0.0236 -0.1842 -0.2969
  805MOL0     O 8564   8.350   2.437   3.769 -0.1638 -0.1610 -0.3717
  805MOL0     C 8565   8.481   2.412   3.781  0.0158 -0.5751  1.0535
  805MOL0     C 8566   8.580   2.506   3.747 -1.1194  0.0539  0.9705
  805MOL0     C 8567   8.710   2.472   3.741  0.1473  0.1172  0.6098
  805MOL0     C 8568   8.754   2.345   3.782 -0.5920  0.2467  0.9600
  805MOL0     C 8569   8.896   2.308   3.808  1.1254  0.1087 -0.1671
  805MOL0     O 8570   8.988   2.403   3.788  0.8833 -0.1525  0.5605
  805MOL0     C 8571   9.121   2.386   3.806 -0.1531 -0.0432 -0.7086
  805MOL0     C 8572   9.191   2.465   3.899  0.2054  0.3768 -0.0552
  805MOL0     C 8573   9.325   2.452   3.925  0.5140 -0.6174 -0.6499
  805MOL0     C 8574   9.400   2.358   3.859  1.0254 -1.2798  0.2599
  805MOL0     O 8575   9.531   2.331   3.891 -0.7815  0.1365 -0.2108
  805MOL0     C 8576   9.619   2.436   3.918  0.0336 -1.2526 -0.4486
  805MOL0     C 8577   9.756   2.398   3.866 -0.1549 -0.1199  0.4762
  805MOL0     C 8578   9.869   2.501   3.912 -0.0219 -0.1893  0.2848
  805MOL0     C 8579   9.903   2.495   4.057 -0.2351  0.3732 -0.6984
  805MOL0     C 8580  10.012   2.602   4.092  0.6130  0.7738  0.3026
  805MOL0     C 8581  10.069   2.589   4.229 -0.5220 -1.0989 -0.7967
  805MOL0     C 8582   9.969   2.596   4.346  0.5367 -0.0543  0.5755
  805MOL0     C 8583  10.027   2.577   4.487  0.0189  0.0724  0.2716
  805MOL0    Cl 8584  10.124   2.430   4.485  0.0206  0.1657  0.4017
  805MOL0     C 8585   9.331   2.277   3.756 -0.0383  0.0382  0.5927
  805MOL0     C 8586   9.195   2.293   3.724 -0.1358  0.2831  0.3461
  805MOL0     O 8587   8.926   2.195   3.843  0.1107 -0.4037  0.2042
  805MOL0     C 8588   8.652   2.247   3.800 -0.8596 -0.4570  0.7484
  805MOL0     C 8589   8.520   2.281   3.814  0.1907 -0.8904  0.2017
  805MOL0     N 8590   7.870   2.673   3.751 -0.3826 -0.2326  0.3494
  805MOL0     N 8591   7.751   2.632   3.748 -0.2726  0.1766  0.1312
  805MOL0     C 8592   6.641   2.416   3.763  0.1100 -0.0500 -0.2070
  805MOL0     C 8593   6.537   2.357   3.827  0.1382 -0.3469  0.5469
  805MOL0     C 8594   6.154   2.233   3.962  0.5196  0.2544 -0.0355
  805MOL0     C 8595   6.114   2.330   4.056 -0.0761  0.2848  0.3371
  805MOL0     C 8596   6.010   2.305   4.141 -0.5669 -0.5226  0.3704
  805MOL0     C 8597   5.936   2.186   4.135 -0.0623 -0.1927  0.6694
  805MOL0     O 8598   5.821   2.168   4.209 -0.6099 -0.2319 -0.2163
  805MOL0     C 8599   5.761   2.265   4.293  0.1621  0.6013  0.4771
  805MOL0     C 8600   5.624   2.204   4.334 -0.5801 -0.1250  0.3233
  805MOL0     C 8601   5.523   2.214   4.215  1.3055  0.6947 -0.2617
  805MOL0     C 8602   5.397   2.132   4.234 -0.2156  0.8865  0.3187
  805MOL0     C 8603   5.318   2.169   4.353 -0.4817  0.0083  0.2393
  805MOL0     C 8604   5.255   2.203   4.454 -0.1438  0.4877  0.5699
  805MOL0     C 8605   5.981   2.085   4.049  0.4224  0.0054 -0.0806
  805MOL0     C 8606   6.085   2.110   3.962 -1.0573 -0.1136  0.3970
  805MOL0     C 8607   6.119   2.015   3.850  0.8392 -0.0803  0.0305
  805MOL0     H 8608   6.458   2.103   3.639  2.6846 -2.6732  0.5072
  805MOL0     H 8609   6.664   2.180   3.516 -0.4526  2.5494 -1.0223
  805MOL0     H 8610   6.875   2.563   3.690 -1.2582  0.8054 -2.4763
  805MOL0     H 8611   6.933   2.419   3.784  0.4952 -2.1212 -1.5565
  805MOL0     H 8612   7.121   2.527   3.658 -1.1902  0.9389 -0.7476
  805MOL0     H 8613   7.033   2.491   3.511 -1.0643 -1.0728 -0.5705
  805MOL0     H 8614   7.036   2.235   3.617  1.0897 -0.1232  1.5606
  805MOL0     H 8615   7.158   2.292   3.720 -3.8061 -1.9530  1.2356
  805MOL0     H 8616   7.249   2.177   3.528 -2.1677 -0.7394  0.0837
  805MOL0     H 8617   7.211   2.306   3.420 -0.9395 -0.0092  0.1242
  805MOL0     H 8618   7.339   2.474   3.587  1.5412  1.0128 -1.5974
  805MOL0     H 8619   7.406   2.314   3.649 -0.9121 -1.7996 -0.7191
  805MOL0     H 8620   7.496   2.256   3.429 -1.0711 -0.0796 -0.2428
  805MOL0     H 8621   7.454   2.414   3.364 -0.7682  1.4878  0.6275
  805MOL0     H 8622   7.692   2.398   3.444 -0.1100  0.2248 -1.0466
  805MOL0     H 8623   7.630   2.356   3.603 -3.5094  0.6768  1.3894
  805MOL0     H 8624   7.583   2.624   3.469 -2.7013 -1.0640 -0.8189
  805MOL0     H 8625   7.531   2.569   3.636  2.1956 -1.8531  2.8457
  805MOL0     H 8626   7.857   2.642   3.431  0.2314  1.4936  0.6005
  805MOL0     H 8627   8.076   2.768   3.490  0.5159  2.5728 -0.4145
  805MOL0     H 8628   8.069   2.836   3.652 -0.2056 -1.4091  1.2840
  805MOL0     H 8629   8.184   2.560   3.584 -0.4764  1.2963 -2.4997
  805MOL0     H 8630   8.272   2.697   3.627  0.2350 -0.7531  0.4425
  805MOL0     H 8631   8.111   2.522   3.804  0.8321 -0.5109 -0.7519
  805MOL0     H 8632   8.130   2.684   3.864 -2.8230 -0.2662 -0.8016
  805MOL0     H 8633   8.283   2.508   3.951 -1.2127 -0.7853 -0.7927
  805MOL0     H 8634   8.385   2.621   3.874 -1.4838  1.6250 -0.4122
  805MOL0     H 8635   8.561   2.605   3.707 -0.5662 -0.8851 -1.8335
  805MOL0     H 8636   8.779   2.553   3.722 -1.1407  2.1199  3.6636
  805MOL0     H 8637   9.129   2.544   3.939 -2.8492 -0.9162 -1.9376
  805MOL0     H 8638   9.373   2.525   3.988 -4.0488  0.6463  1.8160
  805MOL0     H 8639   9.592   2.531   3.872  0.0787 -0.2305  1.5170
  805MOL0     H 8640   9.630   2.453   4.025 -1.8806 -0.0410 -0.3952
  805MOL0     H 8641   9.784   2.299   3.904 -1.8390 -1.0398 -0.5288
  805MOL0     H 8642   9.759   2.405   3.757  3.5614  2.0038  0.5476
  805MOL0     H 8643   9.958   2.485   3.851  0.3944  0.4626  0.7148
  805MOL0     H 8644   9.838   2.603   3.887 -1.2180 -0.6342 -0.1251
  805MOL0     H 8645   9.944   2.397   4.081 -0.9846 -0.8786 -3.9366
  805MOL0     H 8646   9.823   2.528   4.123  0.7313 -0.0954  0.7422
  805MOL0     H 8647   9.960   2.697   4.078 -0.2451  0.1411 -0.9534
  805MOL0     H 8648  10.087   2.598   4.012 -1.2685 -2.5227 -1.4983
  805MOL0     H 8649  10.123   2.495   4.237  0.4490 -0.5511 -0.6965
  805MOL0     H 8650  10.126   2.682   4.241 -3.0977  0.3269  1.6274
  805MOL0     H 8651   9.897   2.515   4.332 -0.9104  1.4785 -1.5191
  805MOL0     H 8652   9.905   2.685   4.342  0.1227 -0.3854 -1.6073
  805MOL0     H 8653  10.090   2.663   4.510 -0.7711  0.5019  0.9028
  805MOL0     H 8654   9.955   2.565   4.569  0.3630  3.9938  1.3621
  805MOL0     H 8655   9.377   2.194   3.703 -2.1104 -2.8320  2.9307
  805MOL0     H 8656   9.143   2.230   3.653 -2.1535  1.5274  0.6274
  805MOL0     H 8657   8.669   2.147   3.840 -0.2601 -0.9027 -0.5807
  805MOL0     H 8658   8.447   2.203   3.834  0.1668 -0.6920  0.9067
  805MOL0     H 8659   6.685   2.508   3.802 -0.6952 -0.3640  1.4985
  805MOL0     H 8660   6.496   2.412   3.911  0.5854  1.3502 -0.2906
  805MOL0     H 8661   6.163   2.427   4.053 -0.3319  0.4046 -1.5873
  805MOL0     H 8662   5.989   2.384   4.212  0.8738 -0.2816  0.5561
  805MOL0     H 8663   5.751   2.365   4.249 -1.8755  0.4437  0.4967
  805MOL0     H 8664   5.822   2.273   4.383  2.2852  1.3540 -0.9506
  805MOL0     H 8665   5.584   2.272   4.410  1.8401  3.0168 -0.9790
  805MOL0     H 8666   5.646   2.101   4.365 -1.7716 -1.3258 -2.4782
  805MOL0     H 8667   5.570   2.174   4.125 -1.0140 -4.0072  0.3519
  805MOL0     H 8668   5.488   2.318   4.210 -0.3932  0.3923  2.6819
  805MOL0     H 8669   5.341   2.138   4.141 -0.7069  0.0902  0.5583
  805MOL0     H 8670   5.422   2.027   4.250  0.2264  1.3663  3.5534
  805MOL0     H 8671   5.205   2.242   4.541 -0.3551 -0.4756  0.8859
  805MOL0     H 8672   5.920   1.996   4.042 -0.4753  0.7416 -2.4556
  805MOL0     H 8673   6.057   1.924   3.841  2.7645 -1.6688  1.8919
  805MOL0     H 8674   6.112   2.067   3.754 -1.9339  1.8903  1.1556
  805MOL0     H 8675   6.220   1.980   3.872  0.6795 -1.2390 -0.9445
  806MOL0     O 8676   2.376  10.848   8.246 -0.0393 -0.0878  0.1681
  806MOL0     C 8677   2.325  10.738   8.252 -0.3226  0.0312 -0.3664
  806MOL0     O 8678   2.393  10.616   8.269 -0.2230 -0.0449 -0.2562
  806MOL0     C 8679   2.529  10.605   8.262  0.3495 -0.1009 -0.3168
  806MOL0     C 8680   2.619  10.699   8.197 -0.3167 -0.2722  0.9781
  806MOL0     C 8681   2.760  10.683   8.209  0.6749  0.5066 -0.2917
  806MOL0     C 8682   2.811  10.569   8.275  0.0607 -0.0974 -1.1590
  806MOL0     O 8683   2.943  10.546   8.268 -0.6571  0.2974  0.9158
  806MOL0     C 8684   3.012  10.512   8.385 -0.4081  0.1863  0.4604
  806MOL0     C 8685   3.158  10.523   8.355  0.2704 -0.5103 -0.1156
  806MOL0     C 8686   3.240  10.465   8.468 -0.1658  0.6022  0.8225
  806MOL0     C 8687   3.387  10.495   8.459 -0.6801  0.9357 -0.3675
  806MOL0     C 8688   3.466  10.432   8.578 -0.6711  0.3285  0.1507
  806MOL0     C 8689   3.609  10.471   8.559  0.5784  0.9483  0.9232
  806MOL0     C 8690   3.708  10.413   8.667 -0.3275  0.0954  0.2115
  806MOL0     C 8691   3.746  10.264   8.661 -0.4486 -0.3502  0.0069
  806MOL0     N 8692   3.849  10.241   8.764  0.0335  0.0666 -0.7755
  806MOL0     C 8693   3.982  10.258   8.741 -0.0988  0.7207  0.9317
  806MOL0     C 8694   4.044  10.248   8.860 -0.7669 -0.3737  0.1649
  806MOL0     C 8695   4.182  10.277   8.903 -0.9855 -0.2259  0.5546
  806MOL0     C 8696   4.221  10.420   8.916 -0.3809 -1.2132 -0.3525
  806MOL0     C 8697   4.237  10.497   8.786 -0.5957  0.3752 -0.2703
  806MOL0     C 8698   4.291  10.636   8.819  0.1421 -0.1684 -1.1534
  806MOL0     O 8699   4.301  10.735   8.704  0.7932  0.1387  0.3139
  806MOL0     C 8700   4.424  10.746   8.641  0.1832 -0.1946 -0.3524
  806MOL0     C 8701   4.482  10.630   8.588 -1.2956  0.1669  0.4174
  806MOL0     C 8702   4.599  10.644   8.507 -0.7097 -0.2884 -0.2135
  806MOL0     C 8703   4.663  10.775   8.482  0.1034  0.2600  0.3793
  806MOL0     C 8704   4.792  10.776   8.407 -0.4102  0.1210 -0.6540
  806MOL0     O 8705   4.849  10.658   8.367  0.5179 -0.5473  0.2214
  806MOL0     C 8706   4.978  10.664   8.322  0.0793  0.0313  0.3168
  806MOL0     C 8707   5.011  10.714   8.192  0.1881  0.1751 -0.2852
  806MOL0     C 8708   5.151  10.716   8.154 -0.5453 -0.8473 -0.3153
  806MOL0     C 8709   5.247  10.657   8.240 -0.7881 -0.2723 -0.0719
  806MOL0     O 8710   5.378  10.661   8.201 -0.2013 -0.0115 -0.4709
  806MOL0     C 8711   5.475  10.596   8.282 -0.3562  0.4191 -0.0400
  806MOL0     C 8712   5.607  10.598   8.207  0.2297 -0.3263 -0.1090
  806MOL0     C 8713   5.719  10.544   8.288  0.2261 -0.4273  0.1048
  806MOL0     C 8714   5.860  10.581   8.239  0.0208 -0.7087  0.1583
  806MOL0     C 8715   5.976  10.506   8.319 -0.3656 -0.3907  0.0153
  806MOL0     C 8716   6.118  10.535   8.257 -0.5242  0.3657  0.5228
  806MOL0     C 8717   6.152  10.680   8.280  0.6255  0.7013  0.5575
  806MOL0     C 8718   6.304  10.706   8.293  0.2160  0.3275 -0.1174
  806MOL0    Cl 8719   6.365  10.639   8.436 -0.6114  0.0486 -0.4148
  806MOL0     C 8720   5.216  10.621   8.368  1.2039 -0.3913 -0.1332
  806MOL0     C 8721   5.076  10.607   8.406  0.5880 -0.5160  0.6433
  806MOL0     O 8722   4.849  10.889   8.404 -0.4481  0.2280 -0.5074
  806MOL0     C 8723   4.601  10.888   8.537 -0.5256 -0.4570 -0.2369
  806MOL0     C 8724   4.487  10.871   8.609  0.5289  1.1934 -0.4671
  806MOL0     N 8725   3.947  10.241   8.953  0.9618  0.4093  0.2041
  806MOL0     N 8726   3.821  10.243   8.901 -0.5764 -0.5317 -0.6965
  806MOL0     C 8727   2.719  10.470   8.337 -0.0728 -1.1064  0.3791
  806MOL0     C 8728   2.574  10.499   8.335 -0.7459  0.0921 -0.1555
  806MOL0     C 8729   2.175  10.736   8.247 -0.5960  0.0155  0.4590
  806MOL0     C 8730   2.120  10.607   8.220 -0.2572 -1.2237  0.2536
  806MOL0     C 8731   1.986  10.596   8.188  0.7465 -0.9169  0.4829
  806MOL0     C 8732   1.900  10.693   8.208  0.2891 -0.0491 -0.2709
  806MOL0     O 8733   1.763  10.679   8.184  0.1346  0.1989 -0.1309
  806MOL0     C 8734   1.667  10.703   8.280  0.3861 -0.0521  0.0187
  806MOL0     C 8735   1.616  10.573   8.351  0.5055  0.0478 -0.0553
  806MOL0     C 8736   1.515  10.495   8.270  0.7000  0.6887 -0.0891
  806MOL0     C 8737   1.451  10.392   8.367  0.5087 -0.1124 -0.8761
  806MOL0     C 8738   1.549  10.287   8.406 -0.9086 -0.5942 -1.2919
  806MOL0     C 8739   1.637  10.204   8.410 -0.3608 -0.2523  0.6903
  806MOL0     C 8740   1.950  10.818   8.252 -0.3172  0.1142 -0.1443
  806MOL0     C 8741   2.088  10.848   8.264 -0.1163  1.2526 -0.2082
  806MOL0     C 8742   2.129  10.986   8.313  0.1448  0.1936 -0.0533
  806MOL0     H 8743   2.581  10.784   8.142 -0.0840 -0.9905 -0.3331
  806MOL0     H 8744   2.816  10.759   8.155 -0.1558  1.1995 -0.1886
  806MOL0     H 8745   2.987  10.588   8.459  1.2690  1.5947 -0.3284
  806MOL0     H 8746   2.987  10.412   8.421 -1.3684 -0.2812 -1.3595
  806MOL0     H 8747   3.182  10.629   8.339 -0.4493 -0.2601  0.4190
  806MOL0     H 8748   3.179  10.471   8.261  0.4303  0.5187 -0.6711
  806MOL0     H 8749   3.228  10.358   8.486  1.7864  0.7008  3.2628
  806MOL0     H 8750   3.202  10.522   8.553 -1.6649 -1.1128  1.3777
  806MOL0     H 8751   3.421  10.460   8.361 -0.8862 -1.2538  0.2979
  806MOL0     H 8752   3.408  10.603   8.456  1.6078  0.5225 -2.4324
  806MOL0     H 8753   3.431  10.475   8.672 -3.6796 -2.3304  0.4005
  806MOL0     H 8754   3.456  10.324   8.579  2.3147 -0.0345  1.0640
  806MOL0     H 8755   3.634  10.432   8.460  0.5501  1.2905  0.7811
  806MOL0     H 8756   3.621  10.578   8.539  0.9995  0.6960 -0.2733
  806MOL0     H 8757   3.660  10.430   8.764 -1.8482 -0.2310 -0.4589
  806MOL0     H 8758   3.802  10.469   8.675 -0.4027 -0.0171  4.9319
  806MOL0     H 8759   3.654  10.207   8.678 -1.5014  1.2484 -0.1711
  806MOL0     H 8760   3.786  10.245   8.560  0.6214  1.6050  0.0247
  806MOL0     H 8761   4.036  10.279   8.649  2.0664  0.2789  2.0171
  806MOL0     H 8762   4.184  10.236   9.005 -2.2238 -1.2677  0.1852
  806MOL0     H 8763   4.258  10.223   8.846  2.4534  0.9344  3.6712
  806MOL0     H 8764   4.140  10.469   8.973  1.7560  1.5759  0.5583
  806MOL0     H 8765   4.314  10.430   8.973 -0.4851 -1.2917 -0.1669
  806MOL0     H 8766   4.144  10.493   8.728 -0.2606 -1.6383 -0.7714
  806MOL0     H 8767   4.306  10.453   8.714  1.5690  2.6746  0.2537
  806MOL0     H 8768   4.385  10.626   8.873 -0.9733 -5.7190  0.3605
  806MOL0     H 8769   4.226  10.691   8.888  2.5424  2.0124 -0.4620
  806MOL0     H 8770   4.436  10.533   8.600  0.5763 -0.6786  1.0638
  806MOL0     H 8771   4.649  10.560   8.460 -0.4370 -0.6757  0.7502
  806MOL0     H 8772   4.926  10.750   8.134 -0.2668  3.3431  2.0632
  806MOL0     H 8773   5.183  10.753   8.057  2.7149 -2.3148  0.0605
  806MOL0     H 8774   5.475  10.649   8.378 -1.0000  1.8666 -0.7967
  806MOL0     H 8775   5.451  10.493   8.309  1.8676  0.6039  3.2493
  806MOL0     H 8776   5.597  10.540   8.115  0.8684 -0.5104 -0.0645
  806MOL0     H 8777   5.621  10.702   8.179 -1.7885 -0.6620 -2.7546
  806MOL0     H 8778   5.707  10.587   8.388  0.9924 -0.0668  0.0463
  806MOL0     H 8779   5.717  10.435   8.297 -1.2494 -0.4859 -0.6450
  806MOL0     H 8780   5.858  10.689   8.255 -4.0844 -0.9377  2.5871
  806MOL0     H 8781   5.854  10.557   8.132 -1.2721  3.0217 -0.7619
  806MOL0     H 8782   5.953  10.399   8.323  2.1326 -0.9251  3.0421
  806MOL0     H 8783   5.969  10.543   8.421  0.0078 -1.6471  0.5193
  806MOL0     H 8784   6.191  10.470   8.305  1.4587  0.1544 -2.5014
  806MOL0     H 8785   6.116  10.513   8.150 -0.4631  2.7440 -0.0271
  806MOL0     H 8786   6.114  10.706   8.379  4.2214  0.3963  2.1822
  806MOL0     H 8787   6.107  10.746   8.205  0.0308 -0.2866  0.0261
  806MOL0     H 8788   6.357  10.672   8.204  0.4666 -1.7079  0.7578
  806MOL0     H 8789   6.329  10.811   8.310 -0.0537  0.3249  0.3143
  806MOL0     H 8790   5.285  10.590   8.446  2.2376 -1.5906 -1.4772
  806MOL0     H 8791   5.048  10.569   8.504  1.2541 -1.2023  0.5779
  806MOL0     H 8792   4.648  10.986   8.528 -1.2481  0.0581  1.1605
  806MOL0     H 8793   4.437  10.955   8.656  1.2926  0.2944  2.0934
  806MOL0     H 8794   2.755  10.378   8.381  0.9042 -0.7981  0.2498
  806MOL0     H 8795   2.499  10.432   8.376 -0.0532 -3.0450 -3.5186
  806MOL0     H 8796   2.168  10.510   8.209 -2.1125 -2.3516  1.6823
  806MOL0     H 8797   1.961  10.501   8.143 -0.2243 -0.3078 -0.3064
  806MOL0     H 8798   1.582  10.762   8.243 -0.7167 -2.3443 -1.3480
  806MOL0     H 8799   1.706  10.754   8.368  0.5010 -1.8486  1.0488
  806MOL0     H 8800   1.562  10.592   8.445 -0.5005 -2.6000 -0.0309
  806MOL0     H 8801   1.706  10.516   8.371  1.6082  0.9596 -2.0718
  806MOL0     H 8802   1.561  10.453   8.180 -2.3039 -0.6779 -1.1230
  806MOL0     H 8803   1.428  10.556   8.247  0.9822  0.9968 -0.3539
  806MOL0     H 8804   1.403  10.449   8.447 -1.3097 -1.3566 -1.0172
  806MOL0     H 8805   1.366  10.334   8.331 -2.6187  1.8467  2.6889
  806MOL0     H 8806   1.723  10.140   8.417  0.5321  0.9474  1.1475
  806MOL0     H 8807   1.877  10.894   8.277  0.5395  0.8566  0.1979
  806MOL0     H 8808   2.041  11.043   8.345 -0.5177 -1.5398  1.4103
  806MOL0     H 8809   2.189  10.962   8.401 -0.3361  0.2450  0.2937
  806MOL0     H 8810   2.176  11.043   8.233 -2.5539  0.0168 -1.8734
  807MOL0     O 8811   3.404   0.128   4.330 -0.6188  0.3842  0.5936
  807MOL0     C 8812   3.306   0.198   4.341 -0.3023  0.4211 -0.2106
  807MOL0     O 8813   3.308   0.327   4.397 -0.5734  0.1543  0.1211
  807MOL0     C 8814   3.431   0.372   4.439  0.1031 -0.1606  0.2783
  807MOL0     C 8815   3.562   0.363   4.372 -0.2819  0.2367  0.5779
  807MOL0     C 8816   3.675   0.430   4.420 -0.1392  0.1328 -0.0416
  807MOL0     C 8817   3.664   0.507   4.531 -0.1257 -0.5481  0.3168
  807MOL0     O 8818   3.786   0.566   4.566  0.1059 -0.4060  0.3702
  807MOL0     C 8819   3.785   0.667   4.663  1.0057  0.9479  0.3898
  807MOL0     C 8820   3.923   0.698   4.708 -0.0381  0.2575 -0.1797
  807MOL0     C 8821   3.923   0.775   4.837  0.0416 -0.0938 -0.2117
  807MOL0     C 8822   4.063   0.797   4.879 -0.3067 -0.7796  0.9353
  807MOL0     C 8823   4.066   0.874   5.014  0.0698 -0.7631  0.2942
  807MOL0     C 8824   4.214   0.896   5.046  0.2825 -0.8639 -0.0811
  807MOL0     C 8825   4.234   0.947   5.192 -0.2778  0.6678  0.3370
  807MOL0     C 8826   4.364   1.006   5.235 -0.9657  0.3711  0.2309
  807MOL0     N 8827   4.485   0.937   5.179  0.6413  0.0025  0.1231
  807MOL0     C 8828   4.527   0.815   5.214 -0.1562 -0.5437 -0.7424
  807MOL0     C 8829   4.645   0.784   5.146  0.7496  0.6506 -0.7738
  807MOL0     C 8830   4.732   0.665   5.175 -0.1895  1.0128 -0.7402
  807MOL0     C 8831   4.851   0.718   5.253 -0.8436 -0.3943 -0.0690
  807MOL0     C 8832   4.966   0.619   5.282  0.2993  0.5695  0.4084
  807MOL0     C 8833   5.075   0.698   5.344  0.2683 -0.0292  0.3799
  807MOL0     O 8834   5.192   0.618   5.330 -0.2847 -0.1755 -0.1484
  807MOL0     C 8835   5.315   0.672   5.362  0.2850 -0.2985  0.0693
  807MOL0     C 8836   5.421   0.589   5.335 -1.1177 -0.2527  0.3152
  807MOL0     C 8837   5.557   0.635   5.363  0.4613  0.5014  0.3375
  807MOL0     C 8838   5.579   0.767   5.407 -0.1069  0.5605 -0.9502
  807MOL0     C 8839   5.711   0.817   5.442 -0.1489  0.3128 -0.2185
  807MOL0     O 8840   5.812   0.726   5.426  0.4571 -0.9046 -0.4040
  807MOL0     C 8841   5.942   0.775   5.448  0.0956  0.2617 -0.3594
  807MOL0     C 8842   5.997   0.740   5.574  0.4010 -0.1248 -0.1912
  807MOL0     C 8843   6.126   0.763   5.605  0.1247 -0.0087  0.0049
  807MOL0     C 8844   6.204   0.822   5.511  0.0931 -0.1945  0.2982
  807MOL0     O 8845   6.338   0.835   5.541 -0.0128 -0.6669 -0.3545
  807MOL0     C 8846   6.433   0.877   5.448 -0.1831 -0.8109 -0.3725
  807MOL0     C 8847   6.576   0.862   5.503 -0.8771  0.5113  0.2805
  807MOL0     C 8848   6.591   0.924   5.649 -0.3453  0.0529  1.1373
  807MOL0     C 8849   6.736   0.942   5.688 -0.1341  0.6521  0.9286
  807MOL0     C 8850   6.749   0.979   5.838  0.8532 -0.8685  0.1176
  807MOL0     C 8851   6.892   1.013   5.879 -0.2171 -0.8910 -0.3294
  807MOL0     C 8852   6.991   0.899   5.851  0.3658 -0.2586  0.4671
  807MOL0     C 8853   7.125   0.922   5.903  0.4825 -0.2891  0.8381
  807MOL0    Cl 8854   7.216   0.764   5.907  0.0166 -0.0651 -0.0113
  807MOL0     C 8855   6.142   0.884   5.404  0.6238  0.0110 -0.2744
  807MOL0     C 8856   6.015   0.858   5.367  0.2515 -0.9128 -0.6758
  807MOL0     O 8857   5.728   0.933   5.477 -0.0200  0.2033  0.4478
  807MOL0     C 8858   5.466   0.836   5.451 -0.4123 -0.6248  0.4066
  807MOL0     C 8859   5.335   0.795   5.429 -0.1734 -0.2139  0.2992
  807MOL0     N 8860   4.670   0.899   5.068  0.3014  0.1197  0.6761
  807MOL0     N 8861   4.569   0.982   5.084 -0.5892  0.3255  0.1270
  807MOL0     C 8862   3.538   0.532   4.593 -0.2539  0.3328 -0.1660
  807MOL0     C 8863   3.427   0.458   4.552 -0.3628 -0.3125  0.4541
  807MOL0     C 8864   3.173   0.151   4.285  0.5539  0.7346 -0.0318
  807MOL0     C 8865   3.169   0.038   4.199  0.6128 -0.2421  1.0167
  807MOL0     C 8866   3.045  -0.012   4.148 -0.0029 -0.0054 -0.1071
  807MOL0     C 8867   2.919   0.041   4.177  0.0841  0.5133 -0.2752
  807MOL0     O 8868   2.808  -0.021   4.121  0.2827  0.4323  0.5393
  807MOL0     C 8869   2.681   0.033   4.170 -0.5399 -0.4757  0.3812
  807MOL0     C 8870   2.565  -0.040   4.098  0.7026  0.5153  0.2380
  807MOL0     C 8871   2.562  -0.007   3.940 -0.0775 -0.3507 -1.0955
  807MOL0     C 8872   2.427  -0.034   3.875  0.3261  0.6534 -0.2542
  807MOL0     C 8873   2.321   0.051   3.930  0.1165 -0.1630 -0.5856
  807MOL0     C 8874   2.232   0.128   3.971  0.1165 -0.0979  1.0739
  807MOL0     C 8875   2.924   0.149   4.266  0.0022 -0.6750 -0.7443
  807MOL0     C 8876   3.044   0.203   4.321  0.2724  0.6198 -0.1636
  807MOL0     C 8877   3.028   0.328   4.413  0.0176  0.3616 -0.7033
  807MOL0     H 8878   3.569   0.319   4.273 -4.4464  0.5400 -0.0358
  807MOL0     H 8879   3.770   0.434   4.367  2.4082 -4.1078  3.5326
  807MOL0     H 8880   3.727   0.751   4.624 -0.6343 -0.0719  0.5610
  807MOL0     H 8881   3.726   0.630   4.747  2.5152  1.9643  1.9493
  807MOL0     H 8882   3.974   0.744   4.623  0.9138 -2.1166 -0.9813
  807MOL0     H 8883   3.981   0.606   4.719 -0.7045 -0.1793 -0.2410
  807MOL0     H 8884   3.870   0.710   4.908 -0.8310 -1.7513 -2.2924
  807MOL0     H 8885   3.882   0.876   4.838 -0.3012 -0.2062  1.8933
  807MOL0     H 8886   4.105   0.698   4.894 -0.3709 -0.9173  0.2229
  807MOL0     H 8887   4.117   0.859   4.807 -1.6561  1.9493  2.0983
  807MOL0     H 8888   4.004   0.965   5.016  0.9712 -0.1446  1.0170
  807MOL0     H 8889   4.025   0.802   5.085 -1.9662 -1.8352 -1.8380
  807MOL0     H 8890   4.275   0.807   5.026 -2.2691 -2.6273 -0.4604
  807MOL0     H 8891   4.266   0.977   4.995  2.6784 -1.8088  0.7260
  807MOL0     H 8892   4.187   0.882   5.266  1.2660  0.4143  1.1457
  807MOL0     H 8893   4.174   1.038   5.192  2.5247  2.6681  1.2007
  807MOL0     H 8894   4.376   1.111   5.207  0.6428  0.8437  2.4131
  807MOL0     H 8895   4.366   1.005   5.344 -0.8603  2.2589  0.2731
  807MOL0     H 8896   4.475   0.760   5.292 -1.0514  2.5131  0.9507
  807MOL0     H 8897   4.689   0.586   5.238  0.9411  0.1609 -0.9980
  807MOL0     H 8898   4.764   0.611   5.085 -1.7462 -0.2377 -0.5985
  807MOL0     H 8899   4.892   0.804   5.200 -1.5238  1.7584  2.6924
  807MOL0     H 8900   4.819   0.761   5.348  2.8385  1.5829  0.4822
  807MOL0     H 8901   4.995   0.578   5.185  1.9140  0.4330  0.9231
  807MOL0     H 8902   4.933   0.537   5.347 -2.3025 -0.0485 -1.5519
  807MOL0     H 8903   5.059   0.716   5.451 -1.3269  0.4285  0.0890
  807MOL0     H 8904   5.093   0.792   5.291  1.9344  0.3058  1.4689
  807MOL0     H 8905   5.389   0.494   5.292 -2.3021 -1.6593  3.9136
  807MOL0     H 8906   5.637   0.564   5.350  0.8966  0.7710  1.3751
  807MOL0     H 8907   5.941   0.690   5.652  0.3618 -1.3435 -0.9732
  807MOL0     H 8908   6.171   0.741   5.701  1.1355 -1.7019 -0.8104
  807MOL0     H 8909   6.424   0.828   5.350  1.8118 -2.2454  0.1031
  807MOL0     H 8910   6.410   0.983   5.438  1.7226 -0.2857  0.3662
  807MOL0     H 8911   6.609   0.758   5.517  2.0312  1.3456  0.2677
  807MOL0     H 8912   6.654   0.907   5.441  0.3192 -0.3682  1.0997
  807MOL0     H 8913   6.544   1.022   5.660 -3.6387 -1.4857  1.9255
  807MOL0     H 8914   6.546   0.854   5.719 -2.0734 -0.3368 -0.2915
  807MOL0     H 8915   6.765   1.023   5.620  0.8008 -0.4867 -0.0578
  807MOL0     H 8916   6.800   0.858   5.663  0.8942  0.8770  2.6155
  807MOL0     H 8917   6.726   0.882   5.883  2.1168 -2.5250 -2.5566
  807MOL0     H 8918   6.673   1.051   5.869  0.6438 -1.3297  0.7239
  807MOL0     H 8919   6.919   1.101   5.820 -1.3082 -0.6532 -0.4975
  807MOL0     H 8920   6.902   1.048   5.982  0.4565 -2.2353  0.0871
  807MOL0     H 8921   6.992   0.887   5.742 -3.4670 -3.4589  0.5406
  807MOL0     H 8922   6.956   0.806   5.896  0.4524 -0.1845  0.6894
  807MOL0     H 8923   7.177   0.994   5.840  3.2310  0.9285  4.1749
  807MOL0     H 8924   7.118   0.959   6.006 -2.6167 -1.5265  1.1832
  807MOL0     H 8925   6.200   0.960   5.352 -2.0955  2.1098 -0.4491
  807MOL0     H 8926   5.976   0.899   5.274 -0.2082  0.9841  0.3322
  807MOL0     H 8927   5.481   0.932   5.498 -0.4676 -1.5527  2.4328
  807MOL0     H 8928   5.254   0.852   5.473  0.5913  2.3950 -1.4653
  807MOL0     H 8929   3.530   0.600   4.677  1.7924  0.4699 -0.0255
  807MOL0     H 8930   3.331   0.487   4.594 -1.0064 -1.4515 -0.1842
  807MOL0     H 8931   3.261  -0.012   4.169  0.7235  0.3653  0.3242
  807MOL0     H 8932   3.064  -0.086   4.071 -1.3210 -1.5876  1.0005
  807MOL0     H 8933   2.690   0.139   4.144  1.6944 -0.7135  0.0471
  807MOL0     H 8934   2.675   0.019   4.278  2.6873  0.3543  0.7678
  807MOL0     H 8935   2.479   0.007   4.147  1.2409  0.8475  0.8894
  807MOL0     H 8936   2.555  -0.147   4.121 -2.3181  0.8376  0.9047
  807MOL0     H 8937   2.640  -0.071   3.897  1.0086  0.3690 -0.2739
  807MOL0     H 8938   2.581   0.100   3.939 -0.6349 -0.1807  1.1011
  807MOL0     H 8939   2.440  -0.019   3.767  4.6891 -0.3571 -0.0440
  807MOL0     H 8940   2.398  -0.138   3.895  3.9087 -0.3308  0.5007
  807MOL0     H 8941   2.159   0.197   4.009 -0.3747  1.5294 -2.4725
  807MOL0     H 8942   2.826   0.183   4.298 -0.3642 -1.3027 -1.1706
  807MOL0     H 8943   3.064   0.413   4.355  0.1998  0.1622 -0.8807
  807MOL0     H 8944   2.925   0.342   4.448  0.9196  0.1344  2.3637
  807MOL0     H 8945   3.087   0.307   4.503  1.1245 -0.0515 -1.4997
  808MOL0     O 8946   8.745   0.569   7.678 -0.0930  0.4546 -0.1883
  808MOL0     C 8947   8.772   0.605   7.561 -0.8455  0.3528 -0.0101
  808MOL0     O 8948   8.682   0.651   7.469  0.0269 -0.1802  0.5864
  808MOL0     C 8949   8.547   0.674   7.489 -0.4798  0.7843  0.1601
  808MOL0     C 8950   8.481   0.675   7.618 -0.2845 -0.4296  0.3592
  808MOL0     C 8951   8.342   0.697   7.630 -0.7058  0.2133 -0.3666
  808MOL0     C 8952   8.264   0.724   7.516 -0.4838  0.0107  0.2518
  808MOL0     O 8953   8.130   0.753   7.537  0.1039 -0.5890  0.4262
  808MOL0     C 8954   8.058   0.805   7.429  0.2493  0.0169  0.0925
  808MOL0     C 8955   7.941   0.880   7.486  1.8412  0.0079 -0.0734
  808MOL0     C 8956   7.839   0.912   7.376 -0.0568  0.5109  0.2654
  808MOL0     C 8957   7.742   0.795   7.363  0.7741 -0.6990  0.1937
  808MOL0     C 8958   7.644   0.766   7.482 -0.4054  0.2102  0.1043
  808MOL0     C 8959   7.530   0.865   7.475 -0.1862  0.1774  0.4773
  808MOL0     C 8960   7.416   0.822   7.567  0.2184  0.1628 -0.4643
  808MOL0     C 8961   7.341   0.694   7.512 -0.4675  0.1313 -0.0587
  808MOL0     N 8962   7.305   0.685   7.374  0.6463 -0.3479  0.2468
  808MOL0     C 8963   7.256   0.785   7.300  0.1236  0.2536  0.5215
  808MOL0     C 8964   7.274   0.744   7.170 -0.5105 -0.6446 -0.1559
  808MOL0     C 8965   7.226   0.836   7.055  1.2741  0.6096 -0.0845
  808MOL0     C 8966   7.341   0.922   7.000 -0.4844  0.3728  0.4084
  808MOL0     C 8967   7.437   0.837   6.920  0.6436 -0.4352  0.3979
  808MOL0     C 8968   7.571   0.909   6.915  0.1439 -0.5588 -0.4669
  808MOL0     O 8969   7.658   0.833   6.823  0.1873  0.5285 -0.0698
  808MOL0     C 8970   7.779   0.885   6.792 -0.2817  0.0608  0.4243
  808MOL0     C 8971   7.840   0.820   6.682 -0.9502  0.2556 -0.0985
  808MOL0     C 8972   7.964   0.868   6.642  0.0117  0.7557 -0.2026
  808MOL0     C 8973   8.024   0.976   6.701 -0.0077  0.2636 -0.1197
  808MOL0     C 8974   8.156   1.030   6.659  0.1584 -0.2906  0.5949
  808MOL0     O 8975   8.171   1.160   6.685  0.4394 -0.2866 -0.2673
  808MOL0     C 8976   8.289   1.213   6.656 -0.3419 -0.0082 -0.2556
  808MOL0     C 8977   8.317   1.250   6.524 -0.6170  0.3003 -1.2887
  808MOL0     C 8978   8.444   1.306   6.495 -0.0397 -0.0475  0.6141
  808MOL0     C 8979   8.542   1.328   6.593  0.2202 -0.1370  0.6971
  808MOL0     O 8980   8.665   1.380   6.581  0.8618  0.2742  0.6654
  808MOL0     C 8981   8.700   1.446   6.457 -0.2021 -0.8188  0.0283
  808MOL0     C 8982   8.843   1.500   6.440 -0.0556 -0.6434  0.3349
  808MOL0     C 8983   8.863   1.583   6.319  0.4069 -0.5054  0.6371
  808MOL0     C 8984   9.004   1.645   6.320  0.0489  0.4055 -0.0478
  808MOL0     C 8985   9.033   1.727   6.201 -0.6483  0.9175 -0.0485
  808MOL0     C 8986   9.182   1.772   6.204  0.4392 -0.1848  0.3805
  808MOL0     C 8987   9.204   1.887   6.112  0.0531  0.1721  0.4062
  808MOL0     C 8988   9.348   1.945   6.123  0.1706  0.3778  0.6288
  808MOL0    Cl 8989   9.365   1.997   6.295 -0.3685  0.5676 -0.1532
  808MOL0     C 8990   8.511   1.286   6.723  0.2763 -0.2457 -0.3231
  808MOL0     C 8991   8.388   1.225   6.762  0.2058 -0.7612 -0.6734
  808MOL0     O 8992   8.235   0.967   6.594 -0.1477 -0.3127 -0.3875
  808MOL0     C 8993   7.951   1.046   6.795 -0.1202 -0.0666 -0.1125
  808MOL0     C 8994   7.834   1.005   6.842 -0.0905 -0.4551 -1.0746
  808MOL0     N 8995   7.329   0.623   7.171  0.0335 -0.4284 -0.4230
  808MOL0     N 8996   7.349   0.585   7.296  0.4829  0.8014 -0.7741
  808MOL0     C 8997   8.328   0.721   7.385 -0.1343  0.1479 -0.2703
  808MOL0     C 8998   8.469   0.686   7.375  0.4150 -1.0148  0.0207
  808MOL0     C 8999   8.919   0.586   7.527  0.5085 -0.2031  0.0729
  808MOL0     C 9000   9.015   0.614   7.630 -1.1045 -0.1885  0.0789
  808MOL0     C 9001   9.151   0.592   7.606  0.2401  0.1143 -0.0946
  808MOL0     C 9002   9.189   0.529   7.492  0.1811  0.9100 -0.7632
  808MOL0     O 9003   9.318   0.486   7.488 -0.5609 -0.2020  0.1183
  808MOL0     C 9004   9.407   0.572   7.409 -0.5467  0.4506 -0.0915
  808MOL0     C 9005   9.552   0.528   7.418  0.2945 -0.2324  0.5207
  808MOL0     C 9006   9.598   0.486   7.562 -0.2473  0.0921 -0.0487
  808MOL0     C 9007   9.564   0.582   7.675  0.4780  0.6299  0.5864
  808MOL0     C 9008   9.614   0.724   7.647  0.3005 -0.0869 -0.6758
  808MOL0     C 9009   9.656   0.830   7.620  0.4804 -0.4183 -0.5639
  808MOL0     C 9010   9.098   0.509   7.388 -0.8225 -1.5155  0.7701
  808MOL0     C 9011   8.956   0.536   7.396 -0.1773  0.5369 -0.4265
  808MOL0     C 9012   8.866   0.493   7.285 -0.4354  0.0378  0.2587
  808MOL0     H 9013   8.539   0.663   7.709 -0.7155  1.1367  0.8893
  808MOL0     H 9014   8.290   0.696   7.726  1.2307 -0.0365  0.7289
  808MOL0     H 9015   8.113   0.875   7.366 -1.1277  1.6687  0.6205
  808MOL0     H 9016   8.033   0.717   7.370  0.3267  1.6852 -2.5730
  808MOL0     H 9017   7.971   0.981   7.514  0.8874  1.1542 -2.7976
  808MOL0     H 9018   7.898   0.820   7.566 -1.6874 -0.6112 -2.2000
  808MOL0     H 9019   7.885   0.920   7.277 -0.1300 -0.3556  0.1589
  808MOL0     H 9020   7.791   1.004   7.412 -0.3455  0.1463  0.8240
  808MOL0     H 9021   7.676   0.813   7.277  0.0991  0.2684  0.8868
  808MOL0     H 9022   7.806   0.710   7.338  0.8577 -0.3736 -0.7592
  808MOL0     H 9023   7.609   0.663   7.469 -0.1278  0.3086 -1.7018
  808MOL0     H 9024   7.692   0.764   7.581  0.3716 -0.2398 -0.2699
  808MOL0     H 9025   7.569   0.958   7.519 -0.7796  0.8179 -0.3183
  808MOL0     H 9026   7.499   0.890   7.373 -2.8392  0.2843  1.2287
  808MOL0     H 9027   7.354   0.911   7.577  0.5098  0.3309 -0.0975
  808MOL0     H 9028   7.447   0.787   7.666 -0.3708 -1.8410 -0.9288
  808MOL0     H 9029   7.403   0.605   7.530  0.0422  0.8069  1.8071
  808MOL0     H 9030   7.250   0.682   7.571 -0.0620 -0.5802  0.4408
  808MOL0     H 9031   7.201   0.873   7.334 -1.1488 -0.0117 -0.7556
  808MOL0     H 9032   7.188   0.766   6.980  0.6515 -1.1501  1.7864
  808MOL0     H 9033   7.144   0.896   7.093  0.3452 -0.8666  0.3226
  808MOL0     H 9034   7.307   1.015   6.953  3.4176  1.0295 -1.5339
  808MOL0     H 9035   7.392   0.962   7.088 -0.0608 -0.1345  0.3986
  808MOL0     H 9036   7.394   0.836   6.819  0.1043  1.0292  0.5921
  808MOL0     H 9037   7.455   0.734   6.952 -1.2047 -1.0527 -0.3752
  808MOL0     H 9038   7.612   0.903   7.016 -0.9101 -0.5490 -0.0227
  808MOL0     H 9039   7.564   1.016   6.896  0.2791 -0.3731  0.4864
  808MOL0     H 9040   7.804   0.731   6.631  2.7322  0.0018 -2.6709
  808MOL0     H 9041   8.011   0.816   6.559 -3.9760 -0.3903 -2.0021
  808MOL0     H 9042   8.250   1.235   6.440 -0.7490  2.7642 -1.6891
  808MOL0     H 9043   8.463   1.315   6.389 -0.3057 -3.2524  0.1941
  808MOL0     H 9044   8.687   1.373   6.377 -0.6129 -1.5770  0.7728
  808MOL0     H 9045   8.622   1.523   6.445 -0.6245 -1.0577  1.0955
  808MOL0     H 9046   8.869   1.568   6.522  1.6549  0.1225 -0.7900
  808MOL0     H 9047   8.918   1.422   6.431  0.6545  0.2669 -2.7142
  808MOL0     H 9048   8.862   1.516   6.233  2.2444  2.6656 -2.1017
  808MOL0     H 9049   8.793   1.665   6.306  3.6502  2.0410 -3.1666
  808MOL0     H 9050   9.078   1.566   6.332 -0.4457 -0.0220  0.2180
  808MOL0     H 9051   9.021   1.710   6.406 -0.5618 -0.5254  0.7918
  808MOL0     H 9052   8.968   1.813   6.185 -0.5731  0.9772 -0.0284
  808MOL0     H 9053   9.013   1.670   6.109  0.9697  1.3952 -0.7240
  808MOL0     H 9054   9.214   1.794   6.306  0.6653  1.4963 -0.0309
  808MOL0     H 9055   9.236   1.686   6.162  1.6868 -0.1633  1.8353
  808MOL0     H 9056   9.134   1.967   6.135  1.9963  1.8356  0.8868
  808MOL0     H 9057   9.180   1.855   6.010 -1.1865 -0.9281  1.0126
  808MOL0     H 9058   9.423   1.869   6.098  0.3992  0.1628  1.9046
  808MOL0     H 9059   9.354   2.026   6.049  0.0577  2.0779  2.3996
  808MOL0     H 9060   8.587   1.308   6.798  2.5241  1.5769 -2.9030
  808MOL0     H 9061   8.371   1.192   6.864  2.4649  1.7166  0.5998
  808MOL0     H 9062   7.984   1.139   6.840 -0.2709  0.2378 -0.6231
  808MOL0     H 9063   7.767   1.060   6.908 -1.1296 -3.8404  0.9430
  808MOL0     H 9064   8.276   0.749   7.294 -0.7454  0.0630  0.0463
  808MOL0     H 9065   8.494   0.683   7.270 -0.5780 -1.4374 -0.2144
  808MOL0     H 9066   8.990   0.652   7.729  2.5960  2.9651  0.0391
  808MOL0     H 9067   9.226   0.630   7.674  1.4122  0.9949 -1.8323
  808MOL0     H 9068   9.396   0.675   7.445 -1.8784  0.2945  0.0186
  808MOL0     H 9069   9.375   0.583   7.305 -0.4217  1.0600 -0.0709
  808MOL0     H 9070   9.622   0.605   7.384  2.2509 -1.1647  2.1706
  808MOL0     H 9071   9.560   0.442   7.350 -2.1408  0.3284 -0.5591
  808MOL0     H 9072   9.706   0.474   7.554 -0.3795 -0.7923 -0.6435
  808MOL0     H 9073   9.558   0.384   7.574  1.0340 -0.2593  1.4859
  808MOL0     H 9074   9.456   0.582   7.696  0.6008  1.5751  1.2838
  808MOL0     H 9075   9.592   0.543   7.774 -2.9745  1.6574  2.1215
  808MOL0     H 9076   9.691   0.928   7.594  3.3058 -1.3764 -0.6762
  808MOL0     H 9077   9.138   0.473   7.294 -0.5360  1.5759 -0.4193
  808MOL0     H 9078   8.821   0.579   7.235  1.0881 -0.5493 -2.3450
  808MOL0     H 9079   8.926   0.463   7.199  0.3031 -1.5524  1.2796
  808MOL0     H 9080   8.796   0.414   7.315  1.2213 -2.0456 -1.0276
  809MOL0     O 9081   6.813   3.963   7.355  0.3451 -0.4640 -0.5773
  809MOL0     C 9082   6.810   3.853   7.303  0.0335 -0.1236 -0.0541
  809MOL0     O 9083   6.917   3.769   7.275 -0.2047  0.4987 -0.5300
  809MOL0     C 9084   7.041   3.831   7.283  0.6476 -0.7508 -0.7906
  809MOL0     C 9085   7.141   3.789   7.374 -0.4074 -0.1232 -0.1129
  809MOL0     C 9086   7.264   3.847   7.384 -1.3058 -0.2187  0.3192
  809MOL0     C 9087   7.291   3.961   7.306  0.8571  0.9024  0.8222
  809MOL0     O 9088   7.405   4.031   7.330  0.2731 -0.6197 -0.3722
  809MOL0     C 9089   7.464   4.125   7.249 -0.1793  0.0920  0.3165
  809MOL0     C 9090   7.588   4.188   7.321 -0.3324  0.3002  0.4737
  809MOL0     C 9091   7.700   4.086   7.307  0.4322  0.8781  0.8410
  809MOL0     C 9092   7.824   4.093   7.389 -0.0021 -0.2146  0.4381
  809MOL0     C 9093   7.926   3.992   7.341  0.3184  0.1890  0.0424
  809MOL0     C 9094   7.883   3.856   7.389  0.0455  0.7025  0.5885
  809MOL0     C 9095   8.002   3.763   7.400 -0.0741  1.7921  0.8250
  809MOL0     C 9096   8.079   3.739   7.272  0.5339  0.7809  0.6272
  809MOL0     N 9097   8.165   3.617   7.272 -0.9848 -0.1100 -0.6137
  809MOL0     C 9098   8.125   3.490   7.249 -0.2033 -0.5908  0.0506
  809MOL0     C 9099   8.231   3.414   7.260 -0.4053  0.0171 -0.5451
  809MOL0     C 9100   8.235   3.268   7.236 -0.1562 -0.2501 -0.3818
  809MOL0     C 9101   8.238   3.233   7.085  0.4161  1.0608 -0.3988
  809MOL0     C 9102   8.210   3.087   7.048  0.4607 -0.8372  0.1143
  809MOL0     C 9103   8.094   3.015   7.123  0.3971 -0.4196  0.2928
  809MOL0     O 9104   7.963   3.082   7.101 -1.1163 -0.2064  0.1930
  809MOL0     C 9105   7.846   3.023   7.107 -0.1250  0.1906  0.0269
  809MOL0     C 9106   7.734   3.101   7.111  0.1326 -0.0074 -1.0642
  809MOL0     C 9107   7.611   3.044   7.109  1.3903 -0.1632  0.5322
  809MOL0     C 9108   7.595   2.901   7.109 -0.8704  0.1612 -0.4184
  809MOL0     C 9109   7.467   2.842   7.113  0.3082  0.5032  0.0173
  809MOL0     O 9110   7.469   2.706   7.133  0.8339  0.4224 -0.2238
  809MOL0     C 9111   7.346   2.646   7.145 -0.5067  0.4652  0.7805
  809MOL0     C 9112   7.317   2.555   7.046 -0.5974  0.2738 -0.8778
  809MOL0     C 9113   7.197   2.479   7.055 -0.0947  0.2870  0.1951
  809MOL0     C 9114   7.096   2.504   7.144 -0.2004  0.2704 -0.1304
  809MOL0     O 9115   6.978   2.439   7.131  0.0325  0.5484  1.0292
  809MOL0     C 9116   6.880   2.452   7.230  0.6702 -0.3475 -0.2864
  809MOL0     C 9117   6.775   2.339   7.201 -0.7747 -1.7645  0.0927
  809MOL0     C 9118   6.831   2.197   7.172  0.2471 -0.5779  0.0186
  809MOL0     C 9119   6.709   2.103   7.162  1.4963  0.1366 -0.1058
  809MOL0     C 9120   6.639   2.126   7.032  0.4166  0.1404 -0.4835
  809MOL0     C 9121   6.535   2.011   6.987  0.3697  0.6447  0.2093
  809MOL0     C 9122   6.409   2.016   7.071 -0.2489  0.7756 -0.8820
  809MOL0     C 9123   6.316   1.897   7.059 -0.1952  0.5912  0.6837
  809MOL0    Cl 9124   6.259   1.887   6.889 -0.3126  0.1259  0.3447
  809MOL0     C 9125   7.120   2.606   7.235  0.2133 -0.7792  0.8943
  809MOL0     C 9126   7.244   2.672   7.239  0.7819  0.7091 -0.8170
  809MOL0     O 9127   7.366   2.913   7.103  0.6061  0.6057  0.1503
  809MOL0     C 9128   7.707   2.823   7.106 -1.1001 -0.0320  0.0164
  809MOL0     C 9129   7.829   2.881   7.090  0.2530 -0.0015 -0.8964
  809MOL0     N 9130   8.332   3.497   7.292  0.2206 -0.1504  0.2160
  809MOL0     N 9131   8.293   3.621   7.298  0.7534  0.1503  0.1620
  809MOL0     C 9132   7.188   4.004   7.212 -0.6550  0.1203  0.0430
  809MOL0     C 9133   7.067   3.940   7.204  0.0497  0.4565  0.0538
  809MOL0     C 9134   6.677   3.814   7.250 -0.2250  0.6684  0.0609
  809MOL0     C 9135   6.672   3.738   7.136  0.3197  0.4990  0.2036
  809MOL0     C 9136   6.554   3.703   7.067  0.8623 -0.9991 -0.1144
  809MOL0     C 9137   6.425   3.737   7.112 -1.0089  0.0341 -0.3256
  809MOL0     O 9138   6.309   3.690   7.054 -0.1111 -0.3154  0.7217
  809MOL0     C 9139   6.317   3.608   6.929 -0.0551  0.1933  0.1126
  809MOL0     C 9140   6.350   3.694   6.802  0.7281  0.5239 -0.3869
  809MOL0     C 9141   6.269   3.819   6.795  0.0971  1.8460  0.0558
  809MOL0     C 9142   6.280   3.888   6.659  0.3437 -0.3117 -0.2121
  809MOL0     C 9143   6.185   4.000   6.653 -0.7944  0.5853  0.0125
  809MOL0     C 9144   6.121   4.098   6.642 -0.7997  0.2136  0.4719
  809MOL0     C 9145   6.427   3.837   7.215  0.5263 -0.0555  0.1379
  809MOL0     C 9146   6.551   3.868   7.293  0.1115  0.8115  0.0863
  809MOL0     C 9147   6.531   3.964   7.410 -0.2136  0.6912 -0.3784
  809MOL0     H 9148   7.121   3.709   7.445  3.4532 -1.3683 -0.1965
  809MOL0     H 9149   7.342   3.807   7.448 -0.6177  0.4153 -0.1087
  809MOL0     H 9150   7.483   4.087   7.148 -1.3023  0.4217 -0.0381
  809MOL0     H 9151   7.401   4.213   7.234 -0.0583 -0.1198 -1.6754
  809MOL0     H 9152   7.561   4.203   7.426 -0.6498 -0.0572  0.4483
  809MOL0     H 9153   7.612   4.285   7.277  2.0505 -0.0665  0.8143
  809MOL0     H 9154   7.730   4.087   7.202  0.2245  1.9968  0.7772
  809MOL0     H 9155   7.664   3.984   7.321  1.4532 -0.4139 -4.1404
  809MOL0     H 9156   7.861   4.195   7.375 -1.0857 -0.1278 -2.3981
  809MOL0     H 9157   7.811   4.077   7.497 -2.5958 -2.6202 -0.1128
  809MOL0     H 9158   7.928   3.983   7.232  1.2704 -0.6624  0.1206
  809MOL0     H 9159   8.025   4.022   7.377  1.2213 -0.8208 -1.4700
  809MOL0     H 9160   7.833   3.861   7.486 -1.4050  1.4268 -0.1630
  809MOL0     H 9161   7.807   3.816   7.321  0.2271  1.0481  0.1797
  809MOL0     H 9162   7.966   3.664   7.426  0.7210  1.9228  2.5765
  809MOL0     H 9163   8.074   3.793   7.477  0.0307  1.6116  0.7982
  809MOL0     H 9164   8.021   3.738   7.180  0.4002  2.1430  0.6861
  809MOL0     H 9165   8.147   3.824   7.257  0.8079  0.3990 -0.3963
  809MOL0     H 9166   8.027   3.450   7.224 -1.0291 -0.3146  2.5612
  809MOL0     H 9167   8.317   3.227   7.295  0.2932 -2.3558 -2.3072
  809MOL0     H 9168   8.142   3.224   7.273  0.1469 -0.5658  0.0138
  809MOL0     H 9169   8.170   3.301   7.031  0.1918  1.0280 -0.1611
  809MOL0     H 9170   8.336   3.266   7.051 -0.4008  1.3453 -2.6823
  809MOL0     H 9171   8.295   3.024   7.076  1.5644 -0.3308 -1.9267
  809MOL0     H 9172   8.194   3.075   6.940 -1.1400 -0.5429  0.2968
  809MOL0     H 9173   8.118   3.029   7.228 -2.3767  1.8561  0.7479
  809MOL0     H 9174   8.094   2.911   7.091 -0.1490 -0.5479  0.7070
  809MOL0     H 9175   7.747   3.208   7.113  0.6525 -0.0760 -0.2088
  809MOL0     H 9176   7.526   3.109   7.094  1.7085  0.2904  0.6918
  809MOL0     H 9177   7.399   2.528   6.980 -0.1653 -0.1156 -0.1880
  809MOL0     H 9178   7.177   2.402   6.981 -1.0071 -1.9849  2.6264
  809MOL0     H 9179   6.929   2.438   7.327 -0.5328  0.1298  0.4013
  809MOL0     H 9180   6.826   2.547   7.227  0.0724 -0.6972 -1.7361
  809MOL0     H 9181   6.707   2.341   7.287  1.4171  1.8755  1.9851
  809MOL0     H 9182   6.715   2.378   7.118 -0.4021 -0.5139  0.4053
  809MOL0     H 9183   6.895   2.198   7.083  0.4362 -1.1823  0.1384
  809MOL0     H 9184   6.895   2.165   7.255 -0.1940 -2.9368 -0.4525
  809MOL0     H 9185   6.636   2.124   7.241  0.5754  0.1228 -0.9246
  809MOL0     H 9186   6.723   1.996   7.175 -3.2364 -0.5747  1.0072
  809MOL0     H 9187   6.714   2.137   6.953  0.0144  1.2420 -0.7163
  809MOL0     H 9188   6.583   2.219   7.038  0.8888  0.5625 -2.1532
  809MOL0     H 9189   6.504   2.034   6.885 -1.8183 -3.3265 -0.2367
  809MOL0     H 9190   6.574   1.909   6.984 -3.1116 -0.8500 -2.4420
  809MOL0     H 9191   6.350   2.108   7.063  0.1304  1.4008  2.1791
  809MOL0     H 9192   6.432   2.026   7.178  0.7935 -0.5919 -0.9558
  809MOL0     H 9193   6.380   1.815   7.093  0.6043  1.3229  0.9787
  809MOL0     H 9194   6.236   1.927   7.127 -1.0892 -3.0289  1.4439
  809MOL0     H 9195   7.045   2.647   7.302 -0.4662 -1.3699  0.5154
  809MOL0     H 9196   7.261   2.757   7.304 -0.4474  2.4157 -2.6025
  809MOL0     H 9197   7.694   2.715   7.105 -0.6163 -0.0945  0.4794
  809MOL0     H 9198   7.911   2.810   7.084  2.7168  2.5789 -0.6675
  809MOL0     H 9199   7.203   4.096   7.156  1.2215  0.1290  0.4862
  809MOL0     H 9200   7.009   3.983   7.123  0.3855 -1.8753 -1.5133
  809MOL0     H 9201   6.758   3.703   7.079 -1.0651 -0.6605 -1.2704
  809MOL0     H 9202   6.564   3.639   6.980 -2.7845 -2.3738  0.3166
  809MOL0     H 9203   6.214   3.572   6.921 -0.0577  0.6670 -2.8163
  809MOL0     H 9204   6.377   3.517   6.925 -0.6827 -0.1765 -3.2157
  809MOL0     H 9205   6.345   3.635   6.710  0.2637  0.2357 -0.1824
  809MOL0     H 9206   6.456   3.718   6.806  0.4094  1.8308  2.3471
  809MOL0     H 9207   6.296   3.884   6.879  0.1728  1.2724  0.4798
  809MOL0     H 9208   6.163   3.796   6.805  0.0642  2.2767  0.7628
  809MOL0     H 9209   6.377   3.936   6.640 -0.6238  1.5851 -0.6546
  809MOL0     H 9210   6.264   3.808   6.585  1.7222 -0.2029 -0.6681
  809MOL0     H 9211   6.068   4.188   6.619  1.1971  1.2006 -0.5074
  809MOL0     H 9212   6.336   3.884   7.250  0.9759  2.7170 -2.0591
  809MOL0     H 9213   6.611   3.947   7.482 -0.9302  0.1191  0.3125
  809MOL0     H 9214   6.554   4.061   7.366 -0.5948 -0.1288 -2.5433
  809MOL0     H 9215   6.430   3.951   7.451  0.2155 -0.9846  0.2537
  810MOL0     O 9216   5.168   9.599   7.546 -0.1140 -0.4893  0.4776
  810MOL0     C 9217   5.136   9.641   7.438 -0.2440 -0.0161  0.9965
  810MOL0     O 9218   5.195   9.749   7.377 -0.0239 -0.0055 -0.1946
  810MOL0     C 9219   5.284   9.818   7.451 -0.1604 -0.6829  0.1330
  810MOL0     C 9220   5.267   9.956   7.494 -0.7698  0.0244  0.2730
  810MOL0     C 9221   5.371  10.022   7.563  0.2338  0.1331 -0.2277
  810MOL0     C 9222   5.494   9.966   7.590  0.8119  0.7568 -0.6136
  810MOL0     O 9223   5.588  10.041   7.651 -0.2001 -0.3595 -0.1149
  810MOL0     C 9224   5.705   9.990   7.711  0.2616 -0.0446  0.6224
  810MOL0     C 9225   5.812   9.987   7.599  0.2283 -0.4375 -0.0469
  810MOL0     C 9226   5.932   9.916   7.653  0.4551  0.1855  0.3797
  810MOL0     C 9227   6.045   9.943   7.559 -0.0662 -0.4876  0.2248
  810MOL0     C 9228   6.170   9.860   7.595  0.1996  0.3193  0.6499
  810MOL0     C 9229   6.304   9.911   7.530 -0.2078 -0.4272 -0.2602
  810MOL0     C 9230   6.431   9.851   7.592 -0.3551 -0.6161  0.3998
  810MOL0     C 9231   6.554   9.907   7.521 -0.7531 -0.1353  0.4514
  810MOL0     N 9232   6.677   9.822   7.519  0.2705 -0.2347 -0.2424
  810MOL0     C 9233   6.783   9.841   7.449 -0.0672  0.0040 -0.6154
  810MOL0     C 9234   6.881   9.767   7.504  0.0788 -0.6646  0.3733
  810MOL0     C 9235   7.017   9.744   7.442  0.1537 -0.0227  0.1557
  810MOL0     C 9236   7.126   9.831   7.495  0.7684 -0.1819 -0.1066
  810MOL0     C 9237   7.243   9.819   7.407 -0.0052  0.1124 -0.4001
  810MOL0     C 9238   7.358   9.899   7.457 -0.2368 -0.0657 -0.7684
  810MOL0     O 9239   7.462   9.885   7.364 -0.1086 -0.4862 -0.5281
  810MOL0     C 9240   7.585   9.934   7.394 -0.9475 -0.3394 -0.3450
  810MOL0     C 9241   7.699   9.888   7.325 -1.0015  0.0276  0.2658
  810MOL0     C 9242   7.832   9.927   7.359  1.5224 -0.1793  0.4190
  810MOL0     C 9243   7.858  10.011   7.462  0.9461 -0.8307 -0.4619
  810MOL0     C 9244   7.997  10.055   7.495 -0.3423  0.2197 -0.3226
  810MOL0     O 9245   8.096  10.016   7.410 -0.1227  0.3422  0.0023
  810MOL0     C 9246   8.225  10.063   7.431  0.6252 -0.3178  0.2096
  810MOL0     C 9247   8.317   9.973   7.394  0.0426  0.3603 -0.7563
  810MOL0     C 9248   8.450  10.011   7.373 -0.7055 -0.1600  0.2718
  810MOL0     C 9249   8.491  10.139   7.401 -0.3316 -0.4499  0.2691
  810MOL0     O 9250   8.623  10.163   7.377  0.8298  0.0556 -0.2165
  810MOL0     C 9251   8.662  10.290   7.333 -0.4684 -0.6019 -0.2195
  810MOL0     C 9252   8.776  10.289   7.234 -0.0903  1.3040  0.4545
  810MOL0     C 9253   8.911  10.221   7.284 -0.4636 -0.0778  0.3809
  810MOL0     C 9254   8.951  10.272   7.424 -0.4121  0.2242 -0.4588
  810MOL0     C 9255   9.083  10.206   7.485  0.4718 -0.5758 -0.5138
  810MOL0     C 9256   9.210  10.228   7.401  0.4604  0.3827  0.4120
  810MOL0     C 9257   9.315  10.148   7.483 -0.6497 -0.0191 -0.4971
  810MOL0     C 9258   9.401  10.044   7.397  0.7910 -0.5158  0.8145
  810MOL0    Cl 9259   9.314   9.911   7.332  0.2897 -0.5274  0.3790
  810MOL0     C 9260   8.396  10.225   7.452  0.0255  0.4346 -0.0112
  810MOL0     C 9261   8.263  10.192   7.470  0.3152 -0.9075  0.6755
  810MOL0     O 9262   8.009  10.127   7.594 -0.2189  0.0774 -1.2351
  810MOL0     C 9263   7.744  10.064   7.533 -0.1145  0.4974  0.0528
  810MOL0     C 9264   7.615  10.026   7.495  0.1669  0.5212 -0.2659
  810MOL0     N 9265   6.834   9.699   7.608  0.2988 -0.2227 -0.2003
  810MOL0     N 9266   6.706   9.717   7.617  0.4569 -0.4855  0.3963
  810MOL0     C 9267   5.511   9.832   7.546 -0.4533  0.2909 -0.5866
  810MOL0     C 9268   5.406   9.758   7.479 -0.1952 -0.7767 -0.2594
  810MOL0     C 9269   5.014   9.580   7.363 -0.7932  0.4602 -0.2497
  810MOL0     C 9270   4.944   9.654   7.264 -0.5539 -1.4308 -0.0546
  810MOL0     C 9271   4.840   9.589   7.197 -0.6180 -0.1086 -0.4156
  810MOL0     C 9272   4.791   9.461   7.228  0.3063 -1.0842  0.5318
  810MOL0     O 9273   4.670   9.412   7.173  0.1131 -0.0958  0.2219
  810MOL0     C 9274   4.570   9.481   7.094  0.5552 -0.9994 -0.1766
  810MOL0     C 9275   4.488   9.560   7.193  0.6341  0.1298 -0.1672
  810MOL0     C 9276   4.381   9.473   7.276  0.1478 -0.0316 -0.4229
  810MOL0     C 9277   4.302   9.565   7.364  0.0555 -0.4141 -0.0673
  810MOL0     C 9278   4.192   9.496   7.436  0.4070  0.4302  1.4927
  810MOL0     C 9279   4.086   9.438   7.469 -0.1730  0.0635  0.4740
  810MOL0     C 9280   4.859   9.396   7.328  0.3811  0.5309 -0.1994
  810MOL0     C 9281   4.975   9.441   7.393 -0.3582 -0.3445 -0.3068
  810MOL0     C 9282   5.052   9.341   7.482  0.1296  0.7682  0.3173
  810MOL0     H 9283   5.172  10.006   7.476 -0.6760 -0.0410 -0.4222
  810MOL0     H 9284   5.359  10.120   7.608  0.1579 -0.5469  1.3109
  810MOL0     H 9285   5.737  10.054   7.794 -0.6683 -0.7826  1.5624
  810MOL0     H 9286   5.689   9.888   7.745  1.3197 -0.6417 -0.6009
  810MOL0     H 9287   5.842  10.088   7.573 -1.6583 -0.0127 -0.7513
  810MOL0     H 9288   5.772   9.944   7.506 -1.3151  1.2132 -0.2134
  810MOL0     H 9289   5.919   9.808   7.669  1.0053  0.4070  2.5863
  810MOL0     H 9290   5.955   9.961   7.749 -1.8455  2.0541  0.1405
  810MOL0     H 9291   6.015   9.929   7.455  3.4666  2.4456 -1.4405
  810MOL0     H 9292   6.065  10.051   7.567 -1.7339 -0.2605  2.3031
  810MOL0     H 9293   6.175   9.860   7.705  1.9177  0.5798  0.5858
  810MOL0     H 9294   6.157   9.753   7.575 -1.6918 -0.2752  4.1622
  810MOL0     H 9295   6.305   9.892   7.422  1.6408 -1.5434 -0.0916
  810MOL0     H 9296   6.308  10.018   7.551  0.9045 -1.1031  3.7276
  810MOL0     H 9297   6.424   9.743   7.585 -2.4388 -0.3954 -3.5287
  810MOL0     H 9298   6.437   9.871   7.700 -1.9595  0.5331  0.3137
  810MOL0     H 9299   6.523   9.927   7.418  1.6027  1.5230 -0.0094
  810MOL0     H 9300   6.581  10.005   7.559  0.1345  0.0569 -0.6277
  810MOL0     H 9301   6.790   9.906   7.362  0.8299 -1.6992 -1.8863
  810MOL0     H 9302   7.037   9.638   7.458  3.1121  0.7649  2.8276
  810MOL0     H 9303   7.009   9.752   7.333  4.2088 -5.0424 -0.9103
  810MOL0     H 9304   7.087   9.930   7.521 -2.1392 -1.0260 -0.8716
  810MOL0     H 9305   7.154   9.790   7.592  1.7415 -0.6846 -0.5830
  810MOL0     H 9306   7.218   9.859   7.308 -3.0204  2.7028  1.2031
  810MOL0     H 9307   7.278   9.716   7.403 -0.1524  0.0921 -2.1513
  810MOL0     H 9308   7.382   9.868   7.559  0.6478 -3.4835 -1.8701
  810MOL0     H 9309   7.339  10.006   7.450  0.1391 -0.0653 -2.1369
  810MOL0     H 9310   7.685   9.809   7.252 -0.7267  0.7383 -0.5701
  810MOL0     H 9311   7.916   9.871   7.322  2.2075 -0.4670  2.2862
  810MOL0     H 9312   8.298   9.871   7.361  1.8196  0.0764 -1.0201
  810MOL0     H 9313   8.512   9.934   7.328  0.1326 -0.0216  1.1688
  810MOL0     H 9314   8.594  10.348   7.269 -1.8098  1.3253  2.7032
  810MOL0     H 9315   8.695  10.352   7.417 -0.7146 -0.3859 -0.2812
  810MOL0     H 9316   8.737  10.230   7.151  2.7060 -2.2900  1.4406
  810MOL0     H 9317   8.812  10.386   7.198  2.0859  0.0570 -1.0562
  810MOL0     H 9318   8.897  10.113   7.300 -2.3620  0.2091  0.8635
  810MOL0     H 9319   8.991  10.237   7.212  0.0720 -0.3339  0.9111
  810MOL0     H 9320   8.878  10.254   7.503 -0.8957 -0.8350 -1.1290
  810MOL0     H 9321   8.969  10.379   7.412  0.9314  0.4184  2.4475
  810MOL0     H 9322   9.065  10.101   7.509 -1.3051 -0.1967  0.0054
  810MOL0     H 9323   9.095  10.259   7.579  1.0501 -1.9680  0.2202
  810MOL0     H 9324   9.200  10.187   7.300 -1.8210 -1.8084  1.4223
  810MOL0     H 9325   9.228  10.336   7.398  3.7960 -0.0836 -0.9180
  810MOL0     H 9326   9.273  10.099   7.571 -0.8565  1.2823  0.1557
  810MOL0     H 9327   9.392  10.214   7.524 -0.6384 -0.1659 -0.2814
  810MOL0     H 9328   9.446  10.098   7.313 -0.3804 -3.2612 -1.7348
  810MOL0     H 9329   9.482  10.003   7.459  0.0376 -0.4515  1.8725
  810MOL0     H 9330   8.423  10.330   7.459  3.9317 -0.3064 -1.5307
  810MOL0     H 9331   8.180  10.259   7.487  0.3750  0.3665 -3.1714
  810MOL0     H 9332   7.753  10.130   7.619  1.0462  0.2894  0.1148
  810MOL0     H 9333   7.530  10.062   7.553  0.1657 -0.0686  0.1033
  810MOL0     H 9334   5.608   9.789   7.563 -1.0935 -0.7348  0.5836
  810MOL0     H 9335   5.418   9.657   7.440  2.8822 -0.0432 -1.4763
  810MOL0     H 9336   4.980   9.753   7.241 -1.8953 -1.1817 -1.2281
  810MOL0     H 9337   4.781   9.654   7.134 -0.7923  1.2365  1.0843
  810MOL0     H 9338   4.493   9.423   7.043  0.9406 -1.5830 -0.1072
  810MOL0     H 9339   4.618   9.561   7.036 -0.1376  0.9187  1.7605
  810MOL0     H 9340   4.431   9.628   7.130 -0.6876  0.9532  1.8102
  810MOL0     H 9341   4.552   9.614   7.264  0.0895  2.7992 -1.5657
  810MOL0     H 9342   4.431   9.390   7.329  1.7096 -0.8150 -2.9445
  810MOL0     H 9343   4.306   9.425   7.212  1.2193 -1.7886 -0.4303
  810MOL0     H 9344   4.369   9.609   7.439 -0.3404 -1.3044  0.8186
  810MOL0     H 9345   4.265   9.654   7.311  0.8425  0.1419  0.2876
  810MOL0     H 9346   3.984   9.409   7.490 -0.9641  1.9917 -0.5082
  810MOL0     H 9347   4.828   9.296   7.354 -0.5591  0.9435  0.3252
  810MOL0     H 9348   5.070   9.254   7.419 -2.7697  0.0756  0.2988
  810MOL0     H 9349   5.146   9.374   7.528  1.0522  0.0505 -0.9936
  810MOL0     H 9350   4.976   9.302   7.551  1.0578 -0.2911  0.7736
  811MOL0     O 9351   4.115   8.595  10.121 -0.0064 -0.7754 -0.6505
  811MOL0     C 9352   4.073   8.694  10.070  0.6572  0.5474 -0.2953
  811MOL0     O 9353   4.127   8.819  10.077 -0.2083  0.9871  0.0187
  811MOL0     C 9354   4.236   8.825  10.149 -0.3221 -0.4284  0.0766
  811MOL0     C 9355   4.227   8.830  10.292  0.0602  0.6286  0.3182
  811MOL0     C 9356   4.342   8.835  10.367  0.5136  0.2849  0.0824
  811MOL0     C 9357   4.473   8.838  10.309  0.4598  0.9547 -0.8324
  811MOL0     O 9358   4.591   8.833  10.381  0.1589  1.1071 -0.2930
  811MOL0     C 9359   4.585   8.851  10.523 -0.8210  0.7135  0.5890
  811MOL0     C 9360   4.733   8.843  10.573 -0.2309 -0.0582  0.5360
  811MOL0     C 9361   4.818   8.959  10.505  0.4444 -0.0172  0.4664
  811MOL0     C 9362   4.948   8.982  10.583 -0.4302  0.7522  0.4022
  811MOL0     C 9363   5.035   9.104  10.537 -0.3168  0.1728  0.4554
  811MOL0     C 9364   5.092   9.097  10.388 -0.2505 -0.5688 -0.4347
  811MOL0     C 9365   5.165   9.232  10.348  0.4208  0.2390 -0.2853
  811MOL0     C 9366   5.270   9.287  10.448  0.0435  0.5272  0.3408
  811MOL0     N 9367   5.384   9.196  10.437 -0.6651 -0.5208  1.2253
  811MOL0     C 9368   5.468   9.179  10.328  1.5829  0.4359  0.3105
  811MOL0     C 9369   5.536   9.062  10.351  0.0052 -0.2646  0.4869
  811MOL0     C 9370   5.646   9.008  10.258 -0.2786 -0.1969 -0.9459
  811MOL0     C 9371   5.616   8.860  10.235 -0.1204  0.5940 -0.1856
  811MOL0     C 9372   5.711   8.783  10.142  0.5695 -0.3477 -0.4150
  811MOL0     C 9373   5.839   8.726  10.214  0.9190  0.9190  0.6029
  811MOL0     O 9374   5.935   8.680  10.119 -0.3514  0.6363  0.0434
  811MOL0     C 9375   6.065   8.679  10.153  0.4441 -0.5056 -0.8896
  811MOL0     C 9376   6.121   8.660  10.280  0.6804 -0.0244  0.9039
  811MOL0     C 9377   6.260   8.642  10.298 -0.8109  0.3263 -0.8985
  811MOL0     C 9378   6.343   8.667  10.193 -0.2852 -0.0323  0.2104
  811MOL0     C 9379   6.488   8.655  10.201 -0.3234 -1.0284 -0.2010
  811MOL0     O 9380   6.531   8.581  10.308  0.0184 -0.7152 -0.6019
  811MOL0     C 9381   6.663   8.550  10.327 -0.1762 -0.0367 -1.7595
  811MOL0     C 9382   6.714   8.579  10.452 -0.6064 -0.4971  0.2876
  811MOL0     C 9383   6.845   8.542  10.486 -0.5598 -0.4681 -0.2244
  811MOL0     C 9384   6.931   8.491  10.381  0.4407 -0.2787 -0.2998
  811MOL0     O 9385   7.064   8.474  10.405 -0.0897  0.6032 -0.0683
  811MOL0     C 9386   7.116   8.341  10.426  0.0136 -1.0995 -0.0843
  811MOL0     C 9387   7.054   8.281  10.552 -0.7369  1.0118 -0.3400
  811MOL0     C 9388   7.096   8.131  10.572 -1.3246  0.1598  0.6292
  811MOL0     C 9389   7.056   8.069  10.700 -0.2305  0.0799 -0.9938
  811MOL0     C 9390   7.115   7.924  10.712 -0.5203  0.3701 -0.0992
  811MOL0     C 9391   7.118   7.854  10.850 -0.1862 -0.2978  0.0058
  811MOL0     C 9392   7.008   7.876  10.956  0.0228 -0.2554 -0.4942
  811MOL0     C 9393   6.869   7.822  10.911 -0.2663  0.2671 -0.1201
  811MOL0    Cl 9394   6.858   7.640  10.898 -0.3438  0.0587 -0.2173
  811MOL0     C 9395   6.876   8.464  10.254 -0.6070 -0.5762 -0.0421
  811MOL0     C 9396   6.741   8.486  10.231 -0.3436  0.5626  0.0477
  811MOL0     O 9397   6.557   8.697  10.117  0.5261  0.1056 -0.1935
  811MOL0     C 9398   6.286   8.697  10.067 -0.0552  0.1343  0.4394
  811MOL0     C 9399   6.153   8.706  10.054 -0.6276  0.1012 -0.1854
  811MOL0     N 9400   5.502   9.017  10.477 -0.3669 -0.1723  0.2002
  811MOL0     N 9401   5.422   9.108  10.524 -0.3004 -0.2543 -0.4033
  811MOL0     C 9402   4.483   8.825  10.169 -0.9193  0.4953  0.4566
  811MOL0     C 9403   4.367   8.821  10.085  0.4111  0.6047 -0.5896
  811MOL0     C 9404   3.957   8.677   9.982  0.8696  0.4486 -0.2992
  811MOL0     C 9405   3.874   8.790   9.966  0.5668 -0.2549  0.1871
  811MOL0     C 9406   3.770   8.781   9.875 -0.8984  0.5236 -0.4764
  811MOL0     C 9407   3.735   8.660   9.808 -0.7890  0.1007 -0.2101
  811MOL0     O 9408   3.626   8.638   9.719  0.3525 -0.5135 -0.2196
  811MOL0     C 9409   3.558   8.754   9.660 -0.0541 -0.1817  0.4391
  811MOL0     C 9410   3.490   8.707   9.532  0.9401  0.2254 -0.1266
  811MOL0     C 9411   3.470   8.824   9.441  0.1989 -0.0434 -0.7620
  811MOL0     C 9412   3.403   8.948   9.503 -0.4981  0.2174 -0.3704
  811MOL0     C 9413   3.266   8.924   9.548  0.2184 -0.5681  0.0356
  811MOL0     C 9414   3.152   8.903   9.574  0.2854 -0.3107 -0.4977
  811MOL0     C 9415   3.818   8.548   9.837  0.2279  0.0096 -0.3536
  811MOL0     C 9416   3.930   8.554   9.917  0.0742 -0.6602 -0.5173
  811MOL0     C 9417   4.029   8.443   9.910  0.9367 -0.6158 -0.5760
  811MOL0     H 9418   4.127   8.836  10.336  0.7559  2.2178  1.8062
  811MOL0     H 9419   4.340   8.826  10.475  1.4202 -0.0010  0.0822
  811MOL0     H 9420   4.542   8.951  10.536 -1.4509  1.0715 -3.1565
  811MOL0     H 9421   4.525   8.775  10.574 -0.2010  0.2414  0.6300
  811MOL0     H 9422   4.768   8.747  10.534 -3.2615 -1.4683  1.0083
  811MOL0     H 9423   4.739   8.838  10.682 -5.0856  1.0797  1.0864
  811MOL0     H 9424   4.763   9.054  10.507 -1.1557 -0.8828 -0.6688
  811MOL0     H 9425   4.849   8.934  10.404 -0.2121  1.6312 -0.1713
  811MOL0     H 9426   4.925   8.999  10.688  0.6192  1.6607  0.5117
  811MOL0     H 9427   5.008   8.890  10.574 -1.0385 -0.1693  4.1380
  811MOL0     H 9428   4.974   9.192  10.559  0.4696  1.0128 -0.6863
  811MOL0     H 9429   5.125   9.116  10.597 -0.4804 -1.2448  1.0256
  811MOL0     H 9430   5.163   9.013  10.388  0.3516 -0.1457  2.1391
  811MOL0     H 9431   5.009   9.068  10.321 -1.2171  0.1963  0.4058
  811MOL0     H 9432   5.097   9.318  10.341 -0.4746 -0.4509 -0.2079
  811MOL0     H 9433   5.213   9.220  10.250  0.2719 -1.2203 -0.2010
  811MOL0     H 9434   5.301   9.388  10.417  1.2078  0.4261  1.1087
  811MOL0     H 9435   5.226   9.294  10.548 -0.2690 -3.6053  0.6546
  811MOL0     H 9436   5.463   9.241  10.239  0.4049  1.6892  1.1977
  811MOL0     H 9437   5.655   9.057  10.160  3.3308 -0.8291 -1.0906
  811MOL0     H 9438   5.746   9.013  10.304 -0.6798 -2.6752  0.3900
  811MOL0     H 9439   5.627   8.824  10.338 -1.1145  0.3720 -0.1449
  811MOL0     H 9440   5.510   8.842  10.215 -0.9662  0.8411  3.3770
  811MOL0     H 9441   5.741   8.838  10.052  1.6578  0.7755  0.6023
  811MOL0     H 9442   5.646   8.698  10.117  3.1244 -2.8135  0.7128
  811MOL0     H 9443   5.805   8.640  10.273  0.2450  0.7673  0.0073
  811MOL0     H 9444   5.887   8.800  10.278  3.8573  0.5460 -0.9767
  811MOL0     H 9445   6.058   8.639  10.365  0.6904 -0.6905  0.7501
  811MOL0     H 9446   6.292   8.610  10.397  2.9247  0.6894 -1.8386
  811MOL0     H 9447   6.645   8.632  10.518  0.9684  0.2786  1.3668
  811MOL0     H 9448   6.877   8.574  10.584 -0.3321 -0.2749 -0.3600
  811MOL0     H 9449   7.098   8.279  10.338 -1.1564 -0.6903 -0.1595
  811MOL0     H 9450   7.222   8.366  10.433 -0.7925  2.7605  0.3479
  811MOL0     H 9451   7.083   8.348  10.633 -2.5817 -0.2488  1.4578
  811MOL0     H 9452   6.945   8.278  10.547 -1.0026 -2.9947  2.7704
  811MOL0     H 9453   7.066   8.062  10.492 -1.0088  0.1419  0.5247
  811MOL0     H 9454   7.205   8.129  10.567 -1.3424  1.5767 -1.3708
  811MOL0     H 9455   6.948   8.061  10.709 -0.3098  2.3197  1.3017
  811MOL0     H 9456   7.091   8.120  10.790 -0.4147 -2.6322  0.7634
  811MOL0     H 9457   7.216   7.914  10.671  0.1740  0.9442  1.4015
  811MOL0     H 9458   7.053   7.856  10.652  1.6333  1.2346 -3.5564
  811MOL0     H 9459   7.131   7.745  10.844  2.3889 -0.1341  1.1474
  811MOL0     H 9460   7.208   7.888  10.903 -0.4298  0.1847  0.1099
  811MOL0     H 9461   7.007   7.984  10.974  1.7945 -0.2559 -0.2424
  811MOL0     H 9462   7.038   7.820  11.045  1.4601  1.9979  0.5049
  811MOL0     H 9463   6.800   7.858  10.988 -0.5072  2.1473 -1.1559
  811MOL0     H 9464   6.837   7.864  10.815  0.7707 -0.9473 -1.0212
  811MOL0     H 9465   6.933   8.420  10.172  0.7279 -0.7050  0.9220
  811MOL0     H 9466   6.695   8.451  10.139 -0.1707  2.1960 -0.6871
  811MOL0     H 9467   6.342   8.730   9.980 -1.7059  0.8206 -0.4045
  811MOL0     H 9468   6.100   8.734   9.963 -2.3032  1.0570  1.0311
  811MOL0     H 9469   4.583   8.829  10.128 -1.3791  0.1743 -0.7439
  811MOL0     H 9470   4.381   8.815   9.978 -0.7231 -0.5678 -0.7036
  811MOL0     H 9471   3.905   8.888  10.000  0.5837  0.1627 -1.0046
  811MOL0     H 9472   3.707   8.865   9.849 -2.6383 -0.3333  0.7662
  811MOL0     H 9473   3.636   8.825   9.632 -1.7972  0.7042 -2.6595
  811MOL0     H 9474   3.498   8.801   9.738 -0.2738  1.6859 -0.8033
  811MOL0     H 9475   3.387   8.675   9.550  1.3834 -1.7753 -0.9314
  811MOL0     H 9476   3.536   8.625   9.477 -3.8836 -2.8635 -0.1849
  811MOL0     H 9477   3.389   8.799   9.373 -0.9086  1.7688 -0.1539
  811MOL0     H 9478   3.554   8.847   9.374 -2.2281 -1.6160 -4.6583
  811MOL0     H 9479   3.473   8.988   9.576  0.6718 -0.1244 -1.2635
  811MOL0     H 9480   3.406   9.028   9.428 -0.2400  0.7812  0.2344
  811MOL0     H 9481   3.049   8.886   9.598  0.6270 -0.8859  0.5862
  811MOL0     H 9482   3.789   8.453   9.791  0.6835 -0.4836  0.3523
  811MOL0     H 9483   4.027   8.391   9.813  4.4953  0.1359 -1.1995
  811MOL0     H 9484   4.132   8.481   9.916  0.7783 -0.1659 -0.6842
  811MOL0     H 9485   4.006   8.374   9.992  0.1418  0.4506  0.1162
  812MOL0     O 9486   8.285   3.869   5.100 -0.3803  0.2536 -0.8265
  812MOL0     C 9487   8.332   3.960   5.168  0.2339 -0.3265  0.1836
  812MOL0     O 9488   8.271   4.078   5.182 -0.5696  0.4037  0.1696
  812MOL0     C 9489   8.154   4.104   5.117  0.3152 -0.7800  0.0254
  812MOL0     C 9490   8.038   4.038   5.163 -0.2399 -0.0536 -0.3755
  812MOL0     C 9491   7.917   4.054   5.093  0.9161  0.0592 -0.2132
  812MOL0     C 9492   7.903   4.153   4.988  0.5681 -0.0648  0.0757
  812MOL0     O 9493   7.778   4.181   4.934  0.1735  0.2616  0.0848
  812MOL0     C 9494   7.665   4.101   4.961 -0.3723  0.1170 -0.1841
  812MOL0     C 9495   7.559   4.147   4.863  0.4062 -0.6332 -0.2745
  812MOL0     C 9496   7.574   4.088   4.723  0.0336  0.2326  0.3383
  812MOL0     C 9497   7.450   4.058   4.647 -0.1639  0.0578 -0.3732
  812MOL0     C 9498   7.500   4.008   4.509  0.1574 -0.6864 -0.9690
  812MOL0     C 9499   7.381   3.990   4.411 -0.2980 -0.2405 -0.2504
  812MOL0     C 9500   7.424   3.928   4.279  0.0905 -0.2300 -0.5360
  812MOL0     C 9501   7.334   3.952   4.159 -0.0782 -0.3175  0.2295
  812MOL0     N 9502   7.405   3.893   4.046  0.6658 -1.0767 -0.1684
  812MOL0     C 9503   7.502   3.964   3.982  0.1472  0.3695 -0.4679
  812MOL0     C 9504   7.559   3.878   3.903  0.4195 -0.2792 -0.3973
  812MOL0     C 9505   7.685   3.903   3.828 -1.0517  0.6866 -0.5469
  812MOL0     C 9506   7.806   3.848   3.917  0.2077  1.0564 -0.9832
  812MOL0     C 9507   7.939   3.888   3.845  0.8602 -0.3506 -0.1647
  812MOL0     C 9508   7.966   4.033   3.855  0.5485 -0.5869 -0.3995
  812MOL0     O 9509   8.087   4.069   3.794 -0.2797 -0.4551 -0.2337
  812MOL0     C 9510   8.204   4.074   3.865 -0.3198  0.4737 -0.0140
  812MOL0     C 9511   8.314   4.119   3.794  0.1409  0.8439 -0.1378
  812MOL0     C 9512   8.445   4.108   3.857  0.2055 -0.2597  0.8173
  812MOL0     C 9513   8.462   4.070   3.989  1.0048 -0.1359  0.0794
  812MOL0     C 9514   8.602   4.068   4.052  0.9833  0.4317  0.6157
  812MOL0     O 9515   8.709   4.133   3.992 -0.2490  0.3852  0.2372
  812MOL0     C 9516   8.822   4.150   4.073  0.1576 -0.0311 -1.1042
  812MOL0     C 9517   8.917   4.050   4.084 -0.3041 -0.5529 -0.1268
  812MOL0     C 9518   9.028   4.076   4.170 -0.1630 -0.2786  0.4900
  812MOL0     C 9519   9.043   4.198   4.244 -0.5537  0.5221  0.0967
  812MOL0     O 9520   9.151   4.224   4.324 -0.2413 -0.4885  0.0341
  812MOL0     C 9521   9.275   4.163   4.296  0.3947  0.4613  0.2665
  812MOL0     C 9522   9.346   4.205   4.165  0.7081  0.7943 -0.3331
  812MOL0     C 9523   9.477   4.133   4.144  0.1690  0.1934 -0.9996
  812MOL0     C 9524   9.478   4.015   4.054 -0.4947  1.0483 -0.0039
  812MOL0     C 9525   9.608   3.938   4.048 -0.7646  0.3795 -0.1989
  812MOL0     C 9526   9.624   3.860   3.920  0.2952  0.6835 -0.0777
  812MOL0     C 9527   9.532   3.739   3.899  0.6868  0.8067 -0.4076
  812MOL0     C 9528   9.556   3.666   3.758  0.5538  0.1686  0.4271
  812MOL0    Cl 9529   9.444   3.540   3.732  0.1096  0.1669  0.1361
  812MOL0     C 9530   8.945   4.294   4.226 -0.1485 -0.1014 -0.2680
  812MOL0     C 9531   8.837   4.269   4.143  0.5686 -0.2985 -0.6505
  812MOL0     O 9532   8.608   3.999   4.153  0.3966  0.1640 -0.0008
  812MOL0     C 9533   8.351   4.015   4.059 -0.3793 -0.5241 -0.1380
  812MOL0     C 9534   8.222   4.013   3.990 -0.0237 -0.6938 -0.3148
  812MOL0     N 9535   7.494   3.757   3.920 -0.4422 -0.0501 -0.9946
  812MOL0     N 9536   7.398   3.767   4.004 -0.4129 -0.6580 -0.1362
  812MOL0     C 9537   8.014   4.228   4.948 -0.1369  0.0727 -0.8921
  812MOL0     C 9538   8.135   4.196   5.013  0.0327 -0.5910  0.5623
  812MOL0     C 9539   8.460   3.941   5.242  0.1799 -0.2342  0.2656
  812MOL0     C 9540   8.522   4.054   5.291 -0.7400  0.8040 -0.0443
  812MOL0     C 9541   8.640   4.055   5.363 -0.0093 -0.0511 -0.0334
  812MOL0     C 9542   8.701   3.941   5.409  0.5390  0.3095 -0.2134
  812MOL0     O 9543   8.823   3.955   5.465 -0.2297  1.0672 -0.2814
  812MOL0     C 9544   8.932   3.883   5.404 -0.4648 -0.5024  0.7222
  812MOL0     C 9545   9.003   3.970   5.308  0.2678 -0.3473  0.4518
  812MOL0     C 9546   9.088   4.068   5.389  0.1099 -1.0214  0.0360
  812MOL0     C 9547   9.237   4.020   5.402  0.4862 -0.3381 -0.0393
  812MOL0     C 9548   9.304   4.102   5.504 -0.5338 -0.4335 -0.4856
  812MOL0     C 9549   9.360   4.174   5.584 -0.2223 -0.4554  1.0693
  812MOL0     C 9550   8.634   3.824   5.377  0.0279 -0.2215  0.3492
  812MOL0     C 9551   8.521   3.818   5.284  0.3810  0.3230  0.1618
  812MOL0     C 9552   8.463   3.685   5.249 -0.1548 -0.5816  0.1946
  812MOL0     H 9553   8.045   3.968   5.246  3.6483  0.6212  0.0537
  812MOL0     H 9554   7.826   4.009   5.132  0.2445  0.4611 -1.2619
  812MOL0     H 9555   7.684   3.994   4.949 -2.0297 -0.1284 -0.8620
  812MOL0     H 9556   7.627   4.127   5.060 -2.3942  1.3284 -1.1952
  812MOL0     H 9557   7.562   4.256   4.857 -3.5335 -0.1613  2.4060
  812MOL0     H 9558   7.457   4.119   4.891 -1.1360  2.3799 -2.3484
  812MOL0     H 9559   7.624   3.991   4.738 -1.8357 -1.1940 -1.9609
  812MOL0     H 9560   7.637   4.161   4.671 -1.6755  0.8418 -0.9531
  812MOL0     H 9561   7.396   3.977   4.697 -0.7752  1.0486  0.6191
  812MOL0     H 9562   7.387   4.147   4.642 -1.3837 -0.8152 -1.1223
  812MOL0     H 9563   7.572   4.080   4.469  1.7141 -1.1190  0.8651
  812MOL0     H 9564   7.555   3.915   4.522 -1.2980 -1.3364  1.1021
  812MOL0     H 9565   7.300   3.930   4.455 -1.7546  0.1328 -2.2785
  812MOL0     H 9566   7.336   4.087   4.389  0.6694  0.2668 -0.0324
  812MOL0     H 9567   7.418   3.820   4.292 -2.5965  0.0525  1.1013
  812MOL0     H 9568   7.525   3.964   4.256  0.4323 -1.1500 -0.4782
  812MOL0     H 9569   7.229   3.921   4.165 -0.3148  0.1669 -1.0089
  812MOL0     H 9570   7.322   4.060   4.143 -2.0658 -0.8984 -3.3208
  812MOL0     H 9571   7.537   4.066   3.994  1.5161 -0.0990 -0.2895
  812MOL0     H 9572   7.688   3.841   3.738  2.7921  1.0236 -0.8162
  812MOL0     H 9573   7.701   4.007   3.799  1.3440  0.0558 -1.7591
  812MOL0     H 9574   7.792   3.897   4.014 -0.9266 -0.5290 -0.3100
  812MOL0     H 9575   7.807   3.741   3.936 -1.0732  1.0257 -1.0380
  812MOL0     H 9576   7.934   3.864   3.738 -1.0344  2.2635 -0.7653
  812MOL0     H 9577   8.027   3.838   3.886  1.6212  0.2351 -1.0218
  812MOL0     H 9578   7.967   4.069   3.958 -2.0620  0.0477 -0.5301
  812MOL0     H 9579   7.880   4.088   3.817  0.9311  0.4893  0.2499
  812MOL0     H 9580   8.304   4.166   3.697  1.5771  0.0169 -0.7094
  812MOL0     H 9581   8.536   4.144   3.809  1.7491 -0.2802  3.5555
  812MOL0     H 9582   8.920   3.963   4.019 -0.9581 -0.9932  0.4242
  812MOL0     H 9583   9.101   3.997   4.165 -0.3829 -0.4527 -0.1820
  812MOL0     H 9584   9.341   4.184   4.381  0.7288 -1.9525  0.6796
  812MOL0     H 9585   9.269   4.054   4.292 -0.9507  0.5235  0.3582
  812MOL0     H 9586   9.278   4.172   4.087  0.4244 -1.6592  0.8583
  812MOL0     H 9587   9.364   4.313   4.161  1.9168  0.8332  2.8877
  812MOL0     H 9588   9.537   4.204   4.088  0.3553 -0.4349 -1.6075
  812MOL0     H 9589   9.527   4.116   4.240  1.5421  3.4046 -1.0154
  812MOL0     H 9590   9.464   4.054   3.953  0.2358 -1.6861 -1.2364
  812MOL0     H 9591   9.396   3.951   4.086 -0.6975  0.7139 -1.1597
  812MOL0     H 9592   9.625   3.877   4.137 -1.7817  2.2349  1.3391
  812MOL0     H 9593   9.685   4.015   4.052 -0.3741  0.0392 -0.8889
  812MOL0     H 9594   9.616   3.919   3.828 -1.1949  0.5472 -0.0646
  812MOL0     H 9595   9.718   3.805   3.926 -0.0898  0.1978  2.7602
  812MOL0     H 9596   9.430   3.776   3.908  0.2505 -0.7863  2.8543
  812MOL0     H 9597   9.557   3.660   3.971  0.6240  0.7555 -0.4422
  812MOL0     H 9598   9.542   3.745   3.683 -0.4551  0.0767  0.4959
  812MOL0     H 9599   9.657   3.625   3.756  1.1739  1.6534  0.5053
  812MOL0     H 9600   8.952   4.391   4.274 -2.1211 -0.3328  0.5807
  812MOL0     H 9601   8.768   4.351   4.126  0.5561 -0.2402 -0.3322
  812MOL0     H 9602   8.372   3.980   4.159  0.8124  1.5304  0.3869
  812MOL0     H 9603   8.142   3.973   4.052 -0.1481  1.1101  0.7389
  812MOL0     H 9604   8.006   4.307   4.874  0.6562 -1.9756 -3.3124
  812MOL0     H 9605   8.213   4.264   4.982 -0.0071 -2.3362 -4.1998
  812MOL0     H 9606   8.484   4.156   5.283 -0.4228  1.2664  3.0598
  812MOL0     H 9607   8.686   4.152   5.382 -0.8578  0.8737 -2.2741
  812MOL0     H 9608   8.911   3.801   5.335  1.3737 -1.2755  1.0168
  812MOL0     H 9609   8.999   3.848   5.483  0.6696 -2.1443 -0.8941
  812MOL0     H 9610   8.927   4.020   5.247 -0.5652 -0.4271  1.3998
  812MOL0     H 9611   9.066   3.914   5.239 -2.0889 -2.5266 -0.1113
  812MOL0     H 9612   9.056   4.079   5.493 -0.8566 -0.7129 -0.2836
  812MOL0     H 9613   9.078   4.169   5.348 -3.8106 -0.2472  2.3325
  812MOL0     H 9614   9.238   3.915   5.433 -0.7446 -0.3752 -0.0841
  812MOL0     H 9615   9.289   4.022   5.306 -1.8244  2.3551 -1.3805
  812MOL0     H 9616   9.414   4.239   5.651  2.8840 -2.6642  0.8991
  812MOL0     H 9617   8.678   3.736   5.423  1.7804 -0.2572 -1.2675
  812MOL0     H 9618   8.470   3.674   5.140  1.5889 -2.6417  0.4463
  812MOL0     H 9619   8.526   3.611   5.300  0.6073 -1.3972 -1.7936
  812MOL0     H 9620   8.363   3.667   5.288  0.9672  0.3831  3.8692
  813MOL0     O 9621   5.350   9.658   9.673  0.3576 -0.5209  0.0616
  813MOL0     C 9622   5.268   9.636   9.585 -0.2928 -0.2527 -0.4335
  813MOL0     O 9623   5.304   9.603   9.463 -0.0270 -0.4509  0.5048
  813MOL0     C 9624   5.435   9.610   9.416 -0.2287 -0.5218 -0.2434
  813MOL0     C 9625   5.468   9.684   9.306 -0.8474  0.6335 -0.3014
  813MOL0     C 9626   5.609   9.696   9.262  0.2683 -0.3405 -0.5596
  813MOL0     C 9627   5.709   9.641   9.343  0.3222  0.5177  0.5200
  813MOL0     O 9628   5.844   9.640   9.326  0.3336  0.1097 -0.4019
  813MOL0     C 9629   5.887   9.650   9.187  0.0756  0.3005  0.4762
  813MOL0     C 9630   6.040   9.625   9.177  0.0688  0.4676 -0.0810
  813MOL0     C 9631   6.131   9.706   9.274  0.0324 -0.1398 -0.5569
  813MOL0     C 9632   6.278   9.682   9.221 -0.5912 -0.1613 -0.1544
  813MOL0     C 9633   6.339   9.542   9.267  0.0602  0.2895 -0.1892
  813MOL0     C 9634   6.497   9.534   9.247  0.3185  0.5361 -0.0742
  813MOL0     C 9635   6.528   9.532   9.098  0.4191 -0.3479 -0.4857
  813MOL0     C 9636   6.683   9.537   9.073  0.4360 -0.3009  0.2894
  813MOL0     N 9637   6.752   9.425   9.143 -0.2892 -0.1505 -0.0112
  813MOL0     C 9638   6.760   9.295   9.105  0.3581  0.4616  0.3347
  813MOL0     C 9639   6.831   9.227   9.195 -0.6834  0.4752 -0.2980
  813MOL0     C 9640   6.880   9.081   9.192 -0.0607  0.7866  0.1252
  813MOL0     C 9641   7.027   9.080   9.145 -0.1845 -0.5301 -0.2088
  813MOL0     C 9642   7.088   8.941   9.161 -0.2182 -0.3446  0.3495
  813MOL0     C 9643   7.226   8.945   9.111 -0.2802 -0.2076 -0.1854
  813MOL0     O 9644   7.324   9.034   9.172  0.0107  0.9995 -0.5562
  813MOL0     C 9645   7.456   9.039   9.134  0.1571 -0.4326  0.1878
  813MOL0     C 9646   7.502   8.991   9.011 -0.1964 -0.5331 -0.6612
  813MOL0     C 9647   7.638   8.995   8.985  0.7254 -0.3989 -0.2098
  813MOL0     C 9648   7.729   9.051   9.080  1.2258 -0.4317  0.3391
  813MOL0     C 9649   7.867   9.065   9.043  0.6786  0.4348 -0.6999
  813MOL0     O 9650   7.909   9.028   8.919 -0.2640 -0.2720 -0.1113
  813MOL0     C 9651   8.044   9.016   8.893  0.0293  0.5362  0.3828
  813MOL0     C 9652   8.151   9.100   8.942  1.3721 -0.0823 -0.6736
  813MOL0     C 9653   8.282   9.093   8.905 -0.0352  0.4231 -0.6600
  813MOL0     C 9654   8.327   8.979   8.834 -0.1639 -0.5231  0.6640
  813MOL0     O 9655   8.455   8.970   8.784  0.1183 -0.0254  0.2686
  813MOL0     C 9656   8.508   8.834   8.785  0.0907  0.6700 -0.2679
  813MOL0     C 9657   8.656   8.824   8.780 -0.2604 -0.3632  0.2389
  813MOL0     C 9658   8.727   8.877   8.904  0.2402  0.1945  0.9480
  813MOL0     C 9659   8.851   8.789   8.933 -0.0812 -0.3120 -0.1653
  813MOL0     C 9660   8.910   8.826   9.071 -0.7100 -0.2104 -0.0684
  813MOL0     C 9661   9.041   8.746   9.098 -0.3896 -0.1899  0.1476
  813MOL0     C 9662   9.147   8.746   8.998 -0.2646 -0.0176  0.7314
  813MOL0     C 9663   9.215   8.877   8.994 -0.1149  0.0904  0.3768
  813MOL0    Cl 9664   9.279   8.925   9.152 -0.0313  0.0918  0.0689
  813MOL0     C 9665   8.225   8.888   8.797  0.1848  0.1208  0.5358
  813MOL0     C 9666   8.087   8.901   8.833  0.6842  0.1527  0.1614
  813MOL0     O 9667   7.942   9.090   9.140  0.6507 -0.3778  0.2110
  813MOL0     C 9668   7.685   9.101   9.203  0.4893  0.1613  0.1093
  813MOL0     C 9669   7.546   9.098   9.229  0.7993  0.6280  0.7003
  813MOL0     N 9670   6.882   9.322   9.281  0.2594 -0.8590 -0.6072
  813MOL0     N 9671   6.832   9.440   9.252  0.0518  0.7309  1.1912
  813MOL0     C 9672   5.670   9.577   9.456  0.2646 -0.0057 -0.0586
  813MOL0     C 9673   5.540   9.554   9.490 -1.0143  0.1625  1.0218
  813MOL0     C 9674   5.125   9.675   9.621 -0.4116  0.0676 -0.3361
  813MOL0     C 9675   5.095   9.712   9.750  0.0332  0.4688 -0.5441
  813MOL0     C 9676   4.969   9.748   9.795  0.5842 -0.6159 -0.5026
  813MOL0     C 9677   4.861   9.743   9.709 -0.3624 -0.1017 -0.1783
  813MOL0     O 9678   4.732   9.783   9.727  0.4734  0.4226  0.1943
  813MOL0     C 9679   4.685   9.831   9.853  0.4376  0.3799 -0.5352
  813MOL0     C 9680   4.540   9.880   9.842  0.0959  0.6869  0.2585
  813MOL0     C 9681   4.499   9.947   9.976  0.0969  0.9609  0.1386
  813MOL0     C 9682   4.412  10.069   9.954 -0.7181  0.2168  0.4872
  813MOL0     C 9683   4.285  10.042   9.880  0.7344  0.0517  0.7192
  813MOL0     C 9684   4.194  10.026   9.800 -0.0254 -0.5993 -0.7910
  813MOL0     C 9685   4.892   9.716   9.574 -0.7900 -0.4981  0.5181
  813MOL0     C 9686   5.014   9.676   9.530 -0.2153  0.6968  0.2606
  813MOL0     C 9687   5.030   9.650   9.384 -0.5068 -0.9984 -0.9733
  813MOL0     H 9688   5.390   9.740   9.255 -0.4791 -0.3448 -2.0132
  813MOL0     H 9689   5.623   9.753   9.171  2.6567  0.9777  0.5503
  813MOL0     H 9690   5.823   9.591   9.120 -3.5702  1.7788  2.3862
  813MOL0     H 9691   5.867   9.754   9.162  1.6664  0.5377  0.1128
  813MOL0     H 9692   6.072   9.641   9.073  0.7657 -0.5310 -0.0310
  813MOL0     H 9693   6.060   9.521   9.204  1.7916  0.4571 -1.2009
  813MOL0     H 9694   6.124   9.682   9.381  0.8165  1.9935  0.0279
  813MOL0     H 9695   6.103   9.811   9.267 -0.7607 -0.2004  1.1119
  813MOL0     H 9696   6.278   9.678   9.112  3.6538  0.9474 -0.3429
  813MOL0     H 9697   6.342   9.763   9.256 -1.4524 -0.0004  1.1484
  813MOL0     H 9698   6.319   9.521   9.373  1.3421 -0.8124 -0.1348
  813MOL0     H 9699   6.295   9.459   9.211 -0.1164  0.3979 -0.2091
  813MOL0     H 9700   6.543   9.620   9.296 -0.5762  0.8186  0.2940
  813MOL0     H 9701   6.543   9.446   9.294 -1.2026 -0.8220 -1.0081
  813MOL0     H 9702   6.489   9.625   9.056 -0.1356  0.7691  2.2871
  813MOL0     H 9703   6.480   9.446   9.050 -3.6067  0.2416  2.0099
  813MOL0     H 9704   6.694   9.512   8.967  0.0953 -0.9994  0.4097
  813MOL0     H 9705   6.728   9.632   9.104  0.6316 -0.6535  1.0848
  813MOL0     H 9706   6.726   9.256   9.010 -2.9700  0.5406  1.3677
  813MOL0     H 9707   6.867   9.038   9.292  0.0051  0.7069  0.0997
  813MOL0     H 9708   6.820   9.030   9.117  1.7252 -2.3191  0.6002
  813MOL0     H 9709   7.027   9.111   9.040 -1.4809  1.7478  0.3990
  813MOL0     H 9710   7.080   9.154   9.206 -1.4918 -0.4244  0.8314
  813MOL0     H 9711   7.030   8.869   9.102 -0.9184  0.8996 -0.5359
  813MOL0     H 9712   7.084   8.904   9.264  1.1617 -1.0792  0.1628
  813MOL0     H 9713   7.226   8.966   9.003  0.9989  2.6693  0.2782
  813MOL0     H 9714   7.265   8.846   9.133  2.5323  1.1546  1.5280
  813MOL0     H 9715   7.439   8.943   8.937 -1.8957 -0.4310  0.6502
  813MOL0     H 9716   7.665   8.956   8.887 -1.2821 -1.7611 -0.2788
  813MOL0     H 9717   8.125   9.200   8.975  0.5811 -0.8554  1.1722
  813MOL0     H 9718   8.353   9.173   8.923 -0.1943  0.8396 -1.8347
  813MOL0     H 9719   8.477   8.783   8.876 -0.5952  1.9516  0.2488
  813MOL0     H 9720   8.465   8.773   8.706  0.2876 -3.1742  2.3282
  813MOL0     H 9721   8.686   8.720   8.763  0.7024 -0.3949  1.8876
  813MOL0     H 9722   8.695   8.881   8.696 -0.1809 -1.1106 -0.2387
  813MOL0     H 9723   8.767   8.977   8.888 -0.1571  0.2565  0.2670
  813MOL0     H 9724   8.658   8.866   8.989  0.7281 -3.5678  1.0255
  813MOL0     H 9725   8.924   8.817   8.857  2.6588 -0.0269  2.3804
  813MOL0     H 9726   8.831   8.682   8.935  2.3680 -0.8105  0.7033
  813MOL0     H 9727   8.836   8.806   9.149  1.7821 -1.9376  2.0236
  813MOL0     H 9728   8.948   8.928   9.086  0.6868 -0.6336 -0.5774
  813MOL0     H 9729   9.079   8.760   9.199  1.1003  0.7297 -0.4930
  813MOL0     H 9730   8.999   8.645   9.103 -0.5173 -0.1566 -0.2038
  813MOL0     H 9731   9.112   8.731   8.896  0.3012 -1.2924  0.7007
  813MOL0     H 9732   9.225   8.674   9.022  0.2888  0.6301  0.8919
  813MOL0     H 9733   9.307   8.873   8.935  1.2795 -0.5264  2.4548
  813MOL0     H 9734   9.144   8.954   8.963  1.1855  0.8858 -0.7433
  813MOL0     H 9735   8.249   8.791   8.755  2.0040  0.4587  0.7353
  813MOL0     H 9736   8.012   8.826   8.809  1.1202 -0.9103  1.9578
  813MOL0     H 9737   7.763   9.143   9.265  0.2007  0.9647 -0.0573
  813MOL0     H 9738   7.494   9.142   9.313  1.0843  0.9038  0.7349
  813MOL0     H 9739   5.744   9.530   9.520  0.9657  3.3890  1.8222
  813MOL0     H 9740   5.520   9.511   9.587 -3.9046  3.2505  2.0173
  813MOL0     H 9741   5.163   9.736   9.832 -0.3906 -1.3587  0.4066
  813MOL0     H 9742   4.950   9.775   9.898 -0.2444  5.1487 -1.8422
  813MOL0     H 9743   4.755   9.909   9.885  2.7168 -1.3456 -1.1075
  813MOL0     H 9744   4.703   9.748   9.922  2.5174  1.2076 -0.0152
  813MOL0     H 9745   4.474   9.795   9.826  0.2485  0.6798 -0.3704
  813MOL0     H 9746   4.534   9.956   9.763 -1.0144 -2.6659 -3.1705
  813MOL0     H 9747   4.590   9.980  10.027 -0.3808 -0.3548  1.9561
  813MOL0     H 9748   4.442   9.878  10.040  1.4525  0.3412  0.7194
  813MOL0     H 9749   4.383  10.119  10.047 -4.2759  1.6201 -1.1942
  813MOL0     H 9750   4.470  10.138   9.892 -2.9190 -0.4164 -2.5295
  813MOL0     H 9751   4.109  10.011   9.736  0.3161 -1.4370 -1.0724
  813MOL0     H 9752   4.808   9.724   9.507 -1.0671  1.3062  1.0037
  813MOL0     H 9753   4.936   9.678   9.336 -2.3052 -0.5076  2.4892
  813MOL0     H 9754   5.110   9.706   9.334 -0.7168  0.2313 -0.0059
  813MOL0     H 9755   5.063   9.546   9.378  1.3136 -0.7373  2.1197
  814MOL0     O 9756   7.618   7.037   3.605 -0.6057 -0.0953 -0.3415
  814MOL0     C 9757   7.601   6.931   3.664  0.7845 -0.1891  0.7155
  814MOL0     O 9758   7.702   6.846   3.699 -0.2353 -0.2765 -0.5431
  814MOL0     C 9759   7.833   6.887   3.675  0.1730 -0.2442 -0.2640
  814MOL0     C 9760   7.914   6.929   3.783 -1.0506 -0.0876 -0.3509
  814MOL0     C 9761   8.050   6.944   3.758  0.7046 -0.4567 -0.7635
  814MOL0     C 9762   8.104   6.930   3.633 -0.8871  0.0225  0.4021
  814MOL0     O 9763   8.236   6.943   3.608 -0.4816  0.2651 -0.0943
  814MOL0     C 9764   8.337   6.950   3.718 -0.1486  0.9160 -0.5849
  814MOL0     C 9765   8.474   6.938   3.658  0.7361 -0.2009  0.7456
  814MOL0     C 9766   8.591   6.928   3.756 -0.1993  0.3485  0.1432
  814MOL0     C 9767   8.721   6.894   3.694  0.2778  0.0792  0.3693
  814MOL0     C 9768   8.843   6.927   3.785  0.1283 -0.6416  0.0065
  814MOL0     C 9769   8.971   6.938   3.706  0.2236  0.2402  0.2527
  814MOL0     C 9770   9.074   7.017   3.784 -1.0530 -0.2858  0.2289
  814MOL0     C 9771   9.170   7.081   3.676  0.0922  0.3340 -0.9352
  814MOL0     N 9772   9.286   7.131   3.746 -0.0713  0.4381  0.7617
  814MOL0     C 9773   9.393   7.067   3.807  0.4118 -0.4102  0.1421
  814MOL0     C 9774   9.469   7.160   3.867  0.6212 -1.0216  0.4253
  814MOL0     C 9775   9.598   7.151   3.934 -0.4981  0.5912 -0.3095
  814MOL0     C 9776   9.709   7.129   3.831  0.2823  0.2828 -0.1652
  814MOL0     C 9777   9.854   7.118   3.894  0.2497  0.4820  0.2956
  814MOL0     C 9778   9.962   7.061   3.812 -0.4149  0.1202  0.4832
  814MOL0     O 9779  10.062   7.010   3.894  0.1626 -0.7271  0.2283
  814MOL0     C 9780  10.186   7.022   3.853  0.4808 -0.1984 -0.3589
  814MOL0     C 9781  10.254   7.144   3.860  0.3359 -0.1452 -0.7401
  814MOL0     C 9782  10.381   7.155   3.829  0.7234 -0.3680  0.6123
  814MOL0     C 9783  10.459   7.040   3.804 -0.3310  1.1419  0.1373
  814MOL0     C 9784  10.597   7.049   3.766 -0.5904  0.2132  0.2864
  814MOL0     O 9785  10.658   6.938   3.711  0.1350  0.3512  0.1046
  814MOL0     C 9786  10.792   6.936   3.681 -0.8183  0.3071 -0.1892
  814MOL0     C 9787  10.831   6.886   3.558 -0.0866  0.1457 -0.8419
  814MOL0     C 9788  10.965   6.889   3.521 -0.8372  0.2263 -0.0107
  814MOL0     C 9789  11.067   6.929   3.608 -0.3130  0.3412 -0.2311
  814MOL0     O 9790  11.191   6.929   3.559 -0.3703  0.6891  0.5942
  814MOL0     C 9791  11.291   6.924   3.662 -0.2526 -0.3796  0.1224
  814MOL0     C 9792  11.427   6.898   3.602  0.5119  0.2960 -0.2904
  814MOL0     C 9793  11.532   6.952   3.703  0.0053  0.1519 -0.0278
  814MOL0     C 9794  11.665   6.959   3.631 -0.0267  0.3876  0.9418
  814MOL0     C 9795  11.779   6.943   3.735  0.5884  0.4283 -0.3196
  814MOL0     C 9796  11.913   6.957   3.659 -0.0938  0.1780 -0.5064
  814MOL0     C 9797  11.967   7.098   3.640 -0.3352  0.2308 -0.1361
  814MOL0     C 9798  12.092   7.109   3.546 -0.4942 -0.6871  0.3048
  814MOL0    Cl 9799  12.227   7.005   3.604 -0.4400 -0.0141  0.1998
  814MOL0     C 9800  11.028   6.977   3.734  0.0076  0.3983  0.1021
  814MOL0     C 9801  10.894   6.986   3.768  0.3198  0.6765  0.4671
  814MOL0     O 9802  10.651   7.157   3.783 -0.0890 -0.5349  0.9706
  814MOL0     C 9803  10.393   6.914   3.818  0.4165  0.7385  0.6440
  814MOL0     C 9804  10.257   6.904   3.843  0.6590 -0.6807 -0.0014
  814MOL0     N 9805   9.392   7.281   3.855 -0.2653 -0.4012  0.0363
  814MOL0     N 9806   9.284   7.256   3.794 -0.2205 -0.6180 -0.5675
  814MOL0     C 9807   8.021   6.912   3.522 -0.1371  0.3778 -0.6209
  814MOL0     C 9808   7.888   6.879   3.548 -0.0635 -0.1191  0.8446
  814MOL0     C 9809   7.459   6.904   3.693 -0.1066  0.9423 -0.4999
  814MOL0     C 9810   7.433   6.774   3.735 -0.2833 -0.2973 -0.5842
  814MOL0     C 9811   7.304   6.725   3.753 -0.3006  0.1030 -1.0361
  814MOL0     C 9812   7.201   6.807   3.738  0.9808  0.4205 -0.2155
  814MOL0     O 9813   7.077   6.761   3.753  0.4087  0.1767 -0.4631
  814MOL0     C 9814   6.984   6.767   3.638  0.4276  0.3246  0.3466
  814MOL0     C 9815   7.032   6.670   3.525  0.2581  0.0342 -0.6355
  814MOL0     C 9816   6.955   6.709   3.401 -0.0736  0.0025  0.3022
  814MOL0     C 9817   6.959   6.602   3.294 -0.2140  0.7866 -0.2975
  814MOL0     C 9818   7.075   6.603   3.203 -0.8628  0.1536  0.8591
  814MOL0     C 9819   7.174   6.604   3.134  0.1627 -0.2857  0.7943
  814MOL0     C 9820   7.222   6.944   3.707 -0.3496  0.5962 -0.7761
  814MOL0     C 9821   7.352   6.993   3.678 -0.3987 -0.1690  0.3141
  814MOL0     C 9822   7.364   7.133   3.627 -0.4241 -0.6253 -0.2701
  814MOL0     H 9823   7.870   6.958   3.877 -1.7031 -0.0332 -0.6688
  814MOL0     H 9824   8.109   6.969   3.845 -1.1352 -1.8668  1.0033
  814MOL0     H 9825   8.329   7.037   3.783 -0.6865  2.3240 -2.4494
  814MOL0     H 9826   8.321   6.860   3.779  2.1387  0.3503 -0.7361
  814MOL0     H 9827   8.500   7.026   3.598  0.9735 -1.0219 -0.4075
  814MOL0     H 9828   8.471   6.856   3.585  0.4971  1.9603 -1.8202
  814MOL0     H 9829   8.573   6.856   3.836  2.1301 -1.0443 -0.4750
  814MOL0     H 9830   8.605   7.025   3.803  0.8551  0.0760  0.4236
  814MOL0     H 9831   8.713   6.787   3.672 -1.1092 -0.0910  1.5369
  814MOL0     H 9832   8.735   6.949   3.601  1.3111  1.3433  1.2275
  814MOL0     H 9833   8.828   7.027   3.826  2.4904  0.2902 -1.2146
  814MOL0     H 9834   8.842   6.856   3.868 -2.8194 -2.7296 -1.6163
  814MOL0     H 9835   9.009   6.842   3.671 -0.6570  0.2920 -0.9163
  814MOL0     H 9836   8.950   6.997   3.616 -0.2734  0.5192  0.5514
  814MOL0     H 9837   9.125   6.947   3.850 -0.2408  1.1225  1.1355
  814MOL0     H 9838   9.041   7.094   3.854  0.1202  0.0526  0.4363
  814MOL0     H 9839   9.195   6.999   3.608 -1.3194 -1.0345  0.1080
  814MOL0     H 9840   9.124   7.165   3.625 -2.1765  2.2446  3.6415
  814MOL0     H 9841   9.408   6.961   3.790 -0.6895 -0.2314 -2.3991
  814MOL0     H 9842   9.630   7.240   3.990  0.2130 -1.6098  3.1276
  814MOL0     H 9843   9.601   7.071   4.008  0.0379  0.8638 -0.0260
  814MOL0     H 9844   9.694   7.030   3.787  0.9812 -0.4144  1.1105
  814MOL0     H 9845   9.695   7.209   3.757  1.5608  0.7440  0.0753
  814MOL0     H 9846   9.845   7.059   3.986 -0.9573  1.3870  0.7869
  814MOL0     H 9847   9.890   7.214   3.931  0.4527  0.1962  0.8502
  814MOL0     H 9848   9.988   7.150   3.754  0.7400  0.5389  1.6080
  814MOL0     H 9849   9.926   6.982   3.744 -0.5159 -1.7150  2.5602
  814MOL0     H 9850  10.193   7.232   3.876  0.1071 -0.2307 -1.1279
  814MOL0     H 9851  10.422   7.255   3.829  0.0474 -0.0535 -1.3428
  814MOL0     H 9852  10.745   6.843   3.507 -2.3076  2.3161  0.7982
  814MOL0     H 9853  10.995   6.849   3.425  0.3205 -2.4340  1.3386
  814MOL0     H 9854  11.282   7.023   3.708 -1.3559 -0.2432 -0.3415
  814MOL0     H 9855  11.276   6.852   3.742 -0.4425 -0.0067  0.4267
  814MOL0     H 9856  11.445   6.791   3.584 -0.1240 -0.3494  2.4661
  814MOL0     H 9857  11.427   6.948   3.505  0.2686  0.2001 -0.3394
  814MOL0     H 9858  11.505   7.055   3.731  0.3587  0.8644 -2.1347
  814MOL0     H 9859  11.524   6.889   3.792  1.9931  0.9289  0.7583
  814MOL0     H 9860  11.661   7.052   3.573 -2.0097 -0.0105  0.3673
  814MOL0     H 9861  11.679   6.879   3.557 -2.1466  2.6440 -2.1915
  814MOL0     H 9862  11.776   6.841   3.775  2.7366  0.6327  0.4764
  814MOL0     H 9863  11.768   7.009   3.821 -1.9261  0.1060 -0.2920
  814MOL0     H 9864  11.987   6.902   3.718 -0.2469  0.4308 -0.0785
  814MOL0     H 9865  11.909   6.900   3.565 -0.8197 -0.9815  0.1979
  814MOL0     H 9866  11.999   7.133   3.738 -0.3308  1.6103 -0.6048
  814MOL0     H 9867  11.880   7.157   3.611 -2.2861 -2.3390  0.1275
  814MOL0     H 9868  12.065   7.075   3.446 -0.0246 -0.5420  0.1241
  814MOL0     H 9869  12.125   7.213   3.537 -1.4956 -0.5580 -2.8244
  814MOL0     H 9870  11.095   7.032   3.799 -1.4251 -0.7419  2.7178
  814MOL0     H 9871  10.862   7.026   3.864  1.8521 -0.3102  1.4331
  814MOL0     H 9872  10.446   6.821   3.806  0.8257  1.2492 -2.5297
  814MOL0     H 9873  10.208   6.808   3.851  2.9206 -1.9902 -0.9163
  814MOL0     H 9874   8.079   6.904   3.431 -0.7361  0.5087 -1.0116
  814MOL0     H 9875   7.832   6.865   3.456 -1.0411  0.7088  1.3011
  814MOL0     H 9876   7.515   6.709   3.763  0.5556  1.7360  2.1585
  814MOL0     H 9877   7.290   6.620   3.773 -2.7367  0.3060 -1.3763
  814MOL0     H 9878   6.997   6.870   3.602  0.2232  1.0523  2.2049
  814MOL0     H 9879   6.877   6.762   3.663  0.3087  2.1191  0.3462
  814MOL0     H 9880   7.011   6.571   3.565  2.3578 -0.4612 -0.6225
  814MOL0     H 9881   7.140   6.671   3.510  0.2006 -1.6873 -1.3931
  814MOL0     H 9882   6.984   6.810   3.368 -1.9592 -0.1657 -2.1499
  814MOL0     H 9883   6.848   6.716   3.420 -0.7548 -1.3005 -2.5610
  814MOL0     H 9884   6.947   6.506   3.344 -0.1822  0.2318 -1.3170
  814MOL0     H 9885   6.867   6.605   3.234 -1.5001  2.1076  1.6227
  814MOL0     H 9886   7.264   6.591   3.077 -0.7631  1.2532 -1.1488
  814MOL0     H 9887   7.138   7.012   3.703 -0.8096  0.1719  1.0197
  814MOL0     H 9888   7.268   7.184   3.636 -1.4086 -2.7062  2.4025
  814MOL0     H 9889   7.435   7.201   3.674 -0.6948 -2.5232  3.1850
  814MOL0     H 9890   7.398   7.122   3.523  0.4998  0.6922 -0.1269
  815MOL0     O 9891   7.082   8.060   7.736  0.0074 -0.0834  0.0336
  815MOL0     C 9892   7.028   8.155   7.791  0.7243 -0.2044 -0.3511
  815MOL0     O 9893   7.057   8.287   7.771 -0.4855 -0.2413  0.0210
  815MOL0     C 9894   7.193   8.304   7.726  0.6573 -0.4514  0.0935
  815MOL0     C 9895   7.299   8.313   7.814  0.3622  0.3016  0.1787
  815MOL0     C 9896   7.432   8.320   7.768  0.0909  0.1510 -0.2000
  815MOL0     C 9897   7.454   8.330   7.636 -0.9451  1.0108  0.7356
  815MOL0     O 9898   7.584   8.335   7.584 -0.0222 -0.5877 -0.8375
  815MOL0     C 9899   7.677   8.245   7.646 -1.0509  0.1691 -0.4140
  815MOL0     C 9900   7.800   8.230   7.546  0.0202  0.0805  0.4344
  815MOL0     C 9901   7.746   8.175   7.409  1.0936 -0.3146 -0.4842
  815MOL0     C 9902   7.853   8.161   7.303 -0.1131 -0.4112 -0.0738
  815MOL0     C 9903   7.793   8.091   7.176  0.3419 -0.2031  0.1806
  815MOL0     C 9904   7.902   8.053   7.074  0.6373  0.8180  0.4678
  815MOL0     C 9905   8.010   8.159   7.045 -0.1839 -0.0917  0.4210
  815MOL0     C 9906   8.111   8.107   6.945 -0.3867  0.2336  0.1614
  815MOL0     N 9907   8.233   8.193   6.936 -0.1886 -0.3021  0.5547
  815MOL0     C 9908   8.218   8.330   6.911  0.2431 -0.2305  0.1660
  815MOL0     C 9909   8.338   8.380   6.920 -0.5014  0.9900 -1.0109
  815MOL0     C 9910   8.367   8.520   6.898  0.0804 -0.6350  0.2708
  815MOL0     C 9911   8.516   8.559   6.901  0.5411  0.2683  0.0065
  815MOL0     C 9912   8.588   8.484   6.791  0.0387  0.2855  0.2495
  815MOL0     C 9913   8.710   8.563   6.740 -0.5522  0.1564  0.3076
  815MOL0     O 9914   8.783   8.476   6.652  0.0216 -0.0385 -0.8366
  815MOL0     C 9915   8.907   8.524   6.604  0.5777 -0.4780  0.3041
  815MOL0     C 9916   8.998   8.434   6.564 -0.3950  0.6146  0.0560
  815MOL0     C 9917   9.131   8.468   6.531 -0.2920  0.7350 -0.4415
  815MOL0     C 9918   9.169   8.607   6.543  0.1701  0.4462  0.4026
  815MOL0     C 9919   9.305   8.657   6.514 -0.1994 -1.0631  0.3581
  815MOL0     O 9920   9.317   8.787   6.489  0.3737 -0.2617  0.5828
  815MOL0     C 9921   9.443   8.854   6.493  0.0689 -0.3407 -0.0090
  815MOL0     C 9922   9.448   8.974   6.563 -0.5123  0.2784  0.1706
  815MOL0     C 9923   9.566   9.047   6.553  0.0437  0.0639 -0.3350
  815MOL0     C 9924   9.681   9.009   6.497 -0.1319  0.7416 -0.2055
  815MOL0     O 9925   9.788   9.101   6.487 -0.4334  0.2912  0.5729
  815MOL0     C 9926   9.918   9.059   6.440  0.4068  0.8251  0.4547
  815MOL0     C 9927   9.983   8.985   6.555 -0.1632  0.0358 -0.9527
  815MOL0     C 9928  10.122   8.930   6.518 -0.1988  0.1946 -0.6557
  815MOL0     C 9929  10.232   9.036   6.509  0.8572 -0.5756 -0.1773
  815MOL0     C 9930  10.306   9.028   6.376 -0.0026  0.6890  1.4385
  815MOL0     C 9931  10.401   9.149   6.360  0.4638  0.1719 -0.7087
  815MOL0     C 9932  10.447   9.148   6.217 -0.5718 -0.4311  0.0009
  815MOL0     C 9933  10.477   9.289   6.163 -0.3919 -1.2142 -0.2529
  815MOL0    Cl 9934  10.616   9.373   6.235  0.0428  0.0220 -0.0378
  815MOL0     C 9935   9.680   8.873   6.444 -0.2073  0.2401  0.6734
  815MOL0     C 9936   9.562   8.798   6.443 -0.0346  0.2266 -0.2884
  815MOL0     O 9937   9.395   8.575   6.533 -0.4954 -0.3641 -0.4321
  815MOL0     C 9938   9.075   8.701   6.585  0.4842 -0.0050 -0.6596
  815MOL0     C 9939   8.945   8.662   6.620  0.0151 -0.7063  0.4185
  815MOL0     N 9940   8.432   8.276   6.947  0.3154  0.0620  0.2791
  815MOL0     N 9941   8.364   8.163   6.957  0.2124 -0.2545 -0.1044
  815MOL0     C 9942   7.350   8.323   7.542 -0.4842 -0.1656  0.2098
  815MOL0     C 9943   7.219   8.322   7.585  0.1796 -0.1962 -0.5661
  815MOL0     C 9944   6.905   8.126   7.866 -0.8126  0.0044  0.2672
  815MOL0     C 9945   6.829   8.239   7.894  0.2593 -0.6396 -0.0102
  815MOL0     C 9946   6.707   8.218   7.967  0.4252  0.2050  1.8706
  815MOL0     C 9947   6.672   8.092   8.028  0.0005  0.1898 -0.0470
  815MOL0     O 9948   6.548   8.095   8.105 -0.5380 -0.4545  0.0370
  815MOL0     C 9949   6.497   7.968   8.132 -0.2863 -0.9302 -0.3313
  815MOL0     C 9950   6.352   7.990   8.179 -0.6238  0.4664 -1.1588
  815MOL0     C 9951   6.249   8.050   8.082  1.0352  0.0347  0.5583
  815MOL0     C 9952   6.139   8.134   8.154 -0.2130 -0.6010  0.5304
  815MOL0     C 9953   6.038   8.042   8.196  0.1816  0.5411 -0.4862
  815MOL0     C 9954   5.961   7.959   8.244  0.1851  0.2690  0.0451
  815MOL0     C 9955   6.762   7.983   8.016  0.2129  0.6439  0.5886
  815MOL0     C 9956   6.877   7.998   7.936  0.1943  0.3648 -0.0663
  815MOL0     C 9957   6.971   7.883   7.929 -0.2050  0.2757 -0.7087
  815MOL0     H 9958   7.280   8.331   7.919  0.2104  3.3293 -0.2690
  815MOL0     H 9959   7.510   8.312   7.843  0.8014 -2.5554 -1.0992
  815MOL0     H 9960   7.718   8.285   7.739 -1.3300 -0.0846 -0.1814
  815MOL0     H 9961   7.634   8.146   7.663 -1.8927  0.6299  0.1627
  815MOL0     H 9962   7.873   8.163   7.593 -1.7158 -0.8262  1.9176
  815MOL0     H 9963   7.840   8.330   7.527 -1.9733  0.9753  0.6949
  815MOL0     H 9964   7.677   8.247   7.364  0.5311 -0.2632  0.4576
  815MOL0     H 9965   7.689   8.085   7.431  0.2810  0.6990  1.7487
  815MOL0     H 9966   7.905   8.256   7.284 -2.0441  1.0099  1.3266
  815MOL0     H 9967   7.924   8.091   7.348  2.3571  0.9794 -1.5819
  815MOL0     H 9968   7.745   8.001   7.214  0.5666 -0.5027 -0.2451
  815MOL0     H 9969   7.722   8.159   7.126 -0.5709  1.8129  3.8607
  815MOL0     H 9970   7.956   7.965   7.110 -0.4777  0.4225  1.2493
  815MOL0     H 9971   7.853   8.025   6.980  3.0826 -1.2297 -0.3153
  815MOL0     H 9972   8.057   8.189   7.139 -1.7907  2.7112  0.4421
  815MOL0     H 9973   7.970   8.248   6.996 -0.8338 -1.2018 -1.1372
  815MOL0     H 9974   8.126   8.000   6.958  1.0192  0.3974  0.0728
  815MOL0     H 9975   8.056   8.119   6.851 -2.7516 -1.1594  1.2839
  815MOL0     H 9976   8.130   8.383   6.874 -0.7808 -2.0688 -0.1198
  815MOL0     H 9977   8.311   8.564   6.815 -1.7998  1.3187  2.4375
  815MOL0     H 9978   8.327   8.574   6.984 -0.1776 -0.0917 -0.1824
  815MOL0     H 9979   8.508   8.667   6.884 -2.3770  0.3201  1.2517
  815MOL0     H 9980   8.557   8.535   7.000 -0.9941  0.4813  0.7238
  815MOL0     H 9981   8.518   8.479   6.707  1.2936 -2.7380 -0.7292
  815MOL0     H 9982   8.621   8.383   6.813 -0.2325 -0.6743 -3.1382
  815MOL0     H 9983   8.778   8.607   6.813  3.2792 -3.3175 -0.7764
  815MOL0     H 9984   8.672   8.643   6.676 -2.2684 -1.4509 -0.8276
  815MOL0     H 9985   8.969   8.330   6.553  0.2728  0.2255  1.6148
  815MOL0     H 9986   9.202   8.389   6.507  1.5356  1.5366  1.8906
  815MOL0     H 9987   9.359   9.022   6.602  0.4096  0.5263  2.0984
  815MOL0     H 9988   9.553   9.149   6.587  0.2932 -0.9134  3.0318
  815MOL0     H 9989   9.919   8.984   6.360  0.1888 -1.5557  2.5551
  815MOL0     H 9990   9.975   9.149   6.413  0.5299  0.5182 -0.3355
  815MOL0     H 9991   9.994   9.055   6.638 -1.8502 -2.1069  1.1957
  815MOL0     H 9992   9.921   8.901   6.590 -1.7743  1.1265 -1.0520
  815MOL0     H 9993  10.155   8.865   6.599 -1.2093 -0.8951 -1.0900
  815MOL0     H 9994  10.115   8.866   6.430 -3.7840 -0.6809  0.1188
  815MOL0     H 9995  10.294   9.027   6.598  1.0406  1.5541 -0.0477
  815MOL0     H 9996  10.186   9.135   6.519  1.5563 -0.4043  1.7221
  815MOL0     H 9997  10.227   9.040   6.301  0.5346 -1.7663  0.3618
  815MOL0     H 9998  10.348   8.929   6.355  1.2820  1.9904 -3.2538
  815MOL0     H 9999  10.350   9.241   6.391  1.6638  0.1981  1.3608
  815MOL0     H10000  10.483   9.139   6.432 -0.7533  0.5239  0.7870
  815MOL0     H10001  10.374   9.115   6.142  1.0911 -1.7015 -1.1314
  815MOL0     H10002  10.535   9.088   6.195  0.4161  1.1581 -0.5828
  815MOL0     H10003  10.496   9.279   6.055  0.8769  0.4791 -0.2399
  815MOL0     H10004  10.397   9.361   6.180 -0.7841 -2.1607  2.3451
  815MOL0     H10005   9.749   8.815   6.383 -1.2059 -0.4153  0.1264
  815MOL0     H10006   9.554   8.704   6.390  0.7101 -1.5343  2.4937
  815MOL0     H10007   9.111   8.803   6.596 -0.1782  0.1281  0.3658
  815MOL0     H10008   8.887   8.743   6.663 -1.8677 -0.8375 -1.6970
  815MOL0     H10009   7.373   8.328   7.436  0.8191  1.3022  0.5239
  815MOL0     H10010   7.140   8.306   7.512  1.0724  0.8290 -1.8118
  815MOL0     H10011   6.864   8.336   7.860  0.7091 -1.8903 -3.5937
  815MOL0     H10012   6.647   8.305   7.989 -0.8418  0.4182 -1.7703
  815MOL0     H10013   6.552   7.925   8.216  1.5990  1.9349  0.0276
  815MOL0     H10014   6.510   7.910   8.040  0.5301  0.9789 -1.4641
  815MOL0     H10015   6.364   8.060   8.263  1.2115 -0.0520 -0.9520
  815MOL0     H10016   6.306   7.896   8.211 -1.5014  0.1355 -3.2708
  815MOL0     H10017   6.207   7.971   8.019  0.5419  0.6460  0.0933
  815MOL0     H10018   6.300   8.110   8.005  0.1952 -0.3517 -0.3212
  815MOL0     H10019   6.182   8.187   8.239  4.3648  0.0727 -1.8474
  815MOL0     H10020   6.102   8.207   8.081 -1.3283  1.2181  2.7943
  815MOL0     H10021   5.881   7.898   8.281  1.2275 -1.5270 -0.5639
  815MOL0     H10022   6.740   7.879   8.040  0.6683  0.3231 -0.3464
  815MOL0     H10023   7.077   7.905   7.947  0.0910  0.1252 -2.1935
  815MOL0     H10024   6.953   7.803   8.002  1.0821 -2.0733 -2.8133
  815MOL0     H10025   6.966   7.834   7.832  1.8947 -1.8914  0.1758
  816MOL0     O10026   9.410   2.058   0.358  0.0591  0.5859  0.1607
  816MOL0     C10027   9.367   2.074   0.474  0.3582 -0.3311  0.6100
  816MOL0     O10028   9.440   2.051   0.590  0.3606 -0.4195 -0.2545
  816MOL0     C10029   9.574   2.066   0.595  0.0403  0.2053  0.8918
  816MOL0     C10030   9.653   1.957   0.621  0.5557 -0.0262  0.7441
  816MOL0     C10031   9.783   1.980   0.615  0.1454 -0.0980  0.0355
  816MOL0     C10032   9.847   2.101   0.587  0.2041  0.1928  0.5809
  816MOL0     O10033   9.986   2.095   0.591 -0.4687 -0.0422  0.1297
  816MOL0     C10034  10.055   2.212   0.557  0.1018  0.2057 -0.1615
  816MOL0     C10035  10.203   2.192   0.526  0.7327 -0.2385  0.5494
  816MOL0     C10036  10.273   2.126   0.642  0.3523  0.3924 -0.2207
  816MOL0     C10037  10.415   2.079   0.596  0.3290 -0.1029 -0.7692
  816MOL0     C10038  10.516   2.019   0.693  0.1504 -0.2000 -0.5429
  816MOL0     C10039  10.630   1.955   0.618  0.0799  0.2201 -0.3701
  816MOL0     C10040  10.721   1.857   0.690  0.1948 -0.4056  0.4832
  816MOL0     C10041  10.810   1.917   0.797  0.3914 -0.3860  1.1830
  816MOL0     N10042  10.900   2.014   0.734 -0.4962 -0.9445 -0.2950
  816MOL0     C10043  10.961   1.999   0.611 -0.5829  0.1280  0.0170
  816MOL0     C10044  11.023   2.119   0.599 -1.0273 -0.7801 -0.2061
  816MOL0     C10045  11.084   2.166   0.467  0.1408 -0.4723 -0.3318
  816MOL0     C10046  11.225   2.210   0.493  0.2123 -0.6404  0.5991
  816MOL0     C10047  11.301   2.222   0.356  0.5890  0.2703 -0.2661
  816MOL0     C10048  11.432   2.309   0.373  0.0707  1.0019 -0.2562
  816MOL0     O10049  11.514   2.239   0.472 -0.1641 -0.6031  0.1326
  816MOL0     C10050  11.617   2.326   0.517 -0.3879  1.0026 -1.2883
  816MOL0     C10051  11.661   2.292   0.647 -0.3813 -0.1989  0.1617
  816MOL0     C10052  11.774   2.355   0.710  0.5801  0.8570  0.0014
  816MOL0     C10053  11.840   2.460   0.642  0.6981 -0.3798  0.8292
  816MOL0     C10054  11.956   2.535   0.690 -0.3095  0.2662  0.1274
  816MOL0     O10055  12.028   2.475   0.788  0.2686  0.3901  0.1782
  816MOL0     C10056  12.152   2.516   0.822 -0.6692  0.8598 -0.4518
  816MOL0     C10057  12.271   2.497   0.746  0.5205 -0.3554  0.5717
  816MOL0     C10058  12.392   2.544   0.795 -0.3384 -0.5409  0.0232
  816MOL0     C10059  12.405   2.605   0.922  0.2381 -0.9065 -0.3442
  816MOL0     O10060  12.535   2.618   0.975  0.6063 -0.4785  0.5162
  816MOL0     C10061  12.550   2.717   1.075  0.6942 -0.1536  0.6996
  816MOL0     C10062  12.685   2.779   1.075 -0.7684 -0.3510  1.1432
  816MOL0     C10063  12.740   2.798   0.928 -0.3840 -0.1419 -0.7885
  816MOL0     C10064  12.870   2.879   0.950 -0.0498  0.0822  0.2851
  816MOL0     C10065  12.916   2.948   0.820  0.0811 -0.3845  0.0359
  816MOL0     C10066  13.037   3.045   0.849  0.3925 -0.6692 -0.4114
  816MOL0     C10067  13.004   3.154   0.953 -0.2979 -0.2364 -0.3359
  816MOL0     C10068  13.128   3.259   0.952 -0.3953  0.5620  0.5231
  816MOL0    Cl10069  13.282   3.164   0.930  0.4833 -0.3652 -0.0826
  816MOL0     C10070  12.292   2.610   1.005  0.0396 -0.2043  0.1995
  816MOL0     C10071  12.166   2.570   0.953 -0.5818 -0.6392  0.1341
  816MOL0     O10072  11.998   2.634   0.629  0.4082 -0.7692 -0.2489
  816MOL0     C10073  11.802   2.491   0.507  0.7540  0.4090 -0.8066
  816MOL0     C10074  11.694   2.422   0.446  0.4106 -0.3244 -0.3451
  816MOL0     N10075  10.992   2.198   0.700  0.3179 -0.0469 -0.3133
  816MOL0     N10076  10.919   2.136   0.789 -0.2638  0.4508  0.1433
  816MOL0     C10077   9.766   2.210   0.565 -0.0056 -0.5165  0.0951
  816MOL0     C10078   9.628   2.200   0.560  0.3039  0.0616 -0.1009
  816MOL0     C10079   9.216   2.085   0.491 -0.3410 -0.6993  0.0545
  816MOL0     C10080   9.122   2.037   0.392  0.3300  0.3982  0.2440
  816MOL0     C10081   8.985   2.044   0.414  0.2290 -1.0058  1.1748
  816MOL0     C10082   8.928   2.128   0.505  0.0678 -0.2922  1.2104
  816MOL0     O10083   8.799   2.182   0.516 -0.0608  0.9943 -0.2285
  816MOL0     C10084   8.702   2.130   0.434  1.0102 -0.3936 -0.0875
  816MOL0     C10085   8.679   2.230   0.321  0.6922 -0.3025  0.4660
  816MOL0     C10086   8.564   2.177   0.227 -1.0820 -0.1816 -0.9217
  816MOL0     C10087   8.504   2.286   0.141  0.3626 -0.0861  0.1178
  816MOL0     C10088   8.593   2.347   0.039  0.2297  0.0497  0.4106
  816MOL0     C10089   8.661   2.411  -0.042  0.0970 -0.6160  0.1181
  816MOL0     C10090   9.013   2.187   0.588 -0.2705 -0.3798 -0.2381
  816MOL0     C10091   9.149   2.162   0.594 -0.2436 -0.0907 -0.3349
  816MOL0     C10092   9.237   2.243   0.695 -0.1299  0.4741 -0.2645
  816MOL0     H10093   9.615   1.855   0.629 -0.1648  0.2711  1.3256
  816MOL0     H10094   9.855   1.901   0.631  0.7153  0.7121  1.6323
  816MOL0     H10095  10.024   2.253   0.460  0.3314 -0.9866 -0.7629
  816MOL0     H10096  10.031   2.284   0.636 -2.5753 -2.3110  1.5281
  816MOL0     H10097  10.241   2.294   0.519 -0.0466  0.1139  1.2589
  816MOL0     H10098  10.221   2.136   0.434  1.6206 -0.7607  1.0217
  816MOL0     H10099  10.216   2.044   0.688  1.9392  0.0200  1.2002
  816MOL0     H10100  10.279   2.190   0.731 -0.6282 -2.6198  2.2107
  816MOL0     H10101  10.405   2.024   0.502  1.6990  1.0704 -1.6489
  816MOL0     H10102  10.451   2.178   0.567 -0.8007  0.0632 -1.6486
  816MOL0     H10103  10.552   2.086   0.772 -0.2479 -0.5574 -0.0529
  816MOL0     H10104  10.457   1.940   0.741  0.5138  1.3156  2.6760
  816MOL0     H10105  10.583   1.899   0.536 -0.7727  0.2162  0.1126
  816MOL0     H10106  10.689   2.034   0.570 -1.1898  0.1332 -2.1874
  816MOL0     H10107  10.788   1.809   0.619  3.3432  1.1355  2.2093
  816MOL0     H10108  10.657   1.781   0.736 -0.2228  0.6175  1.6708
  816MOL0     H10109  10.750   1.971   0.872  0.7680  1.7136  0.0540
  816MOL0     H10110  10.863   1.830   0.837 -0.3887 -2.3266 -1.6674
  816MOL0     H10111  10.949   1.917   0.541 -0.4635  1.4291 -1.5944
  816MOL0     H10112  11.082   2.078   0.403 -0.8763 -1.6508  1.2516
  816MOL0     H10113  11.018   2.241   0.422 -1.0019 -0.8812  0.5963
  816MOL0     H10114  11.227   2.307   0.544 -1.2777 -0.8413  1.1025
  816MOL0     H10115  11.276   2.135   0.552  0.6891 -0.9430 -0.1825
  816MOL0     H10116  11.228   2.275   0.294 -1.6399  0.3480  2.2826
  816MOL0     H10117  11.336   2.126   0.318  2.7828  1.4718 -1.5359
  816MOL0     H10118  11.397   2.407   0.407  0.4044  1.3804 -0.9605
  816MOL0     H10119  11.484   2.323   0.277 -1.6493  1.8356 -1.1154
  816MOL0     H10120  11.601   2.219   0.700 -2.6957 -1.0939 -3.3572
  816MOL0     H10121  11.793   2.323   0.812 -0.2011 -1.6425 -0.5858
  816MOL0     H10122  12.267   2.453   0.647 -1.3231 -0.5245  0.6961
  816MOL0     H10123  12.473   2.552   0.724  0.4980 -0.8749  0.9134
  816MOL0     H10124  12.477   2.798   1.063 -0.8091 -1.5781 -0.0444
  816MOL0     H10125  12.542   2.666   1.172  3.9863 -1.1568  0.5703
  816MOL0     H10126  12.678   2.878   1.122 -0.0704 -0.6536  1.9033
  816MOL0     H10127  12.762   2.725   1.130  0.6773  1.0544  0.5617
  816MOL0     H10128  12.747   2.699   0.881 -1.6463 -0.8898  0.5437
  816MOL0     H10129  12.665   2.849   0.867 -0.3886 -1.3125 -1.7941
  816MOL0     H10130  12.946   2.813   0.994 -0.1273  0.1330  0.4947
  816MOL0     H10131  12.843   2.963   1.013 -0.7561 -0.2117  0.3808
  816MOL0     H10132  12.835   3.007   0.775  0.8378  1.5906  1.1587
  816MOL0     H10133  12.952   2.881   0.741 -1.1604  0.1975 -1.0735
  816MOL0     H10134  13.112   2.974   0.884  0.1282 -1.2578 -1.0074
  816MOL0     H10135  13.052   3.094   0.752 -0.3936  2.9732  1.1541
  816MOL0     H10136  13.000   3.115   1.055  3.7850  3.5036  1.6113
  816MOL0     H10137  12.914   3.207   0.919  1.1645  0.6349 -3.0723
  816MOL0     H10138  13.128   3.329   0.867 -0.1069  0.4885  0.4618
  816MOL0     H10139  13.120   3.312   1.047 -0.8644  0.2558  0.6584
  816MOL0     H10140  12.313   2.631   1.109  1.3223 -0.0089 -0.0852
  816MOL0     H10141  12.088   2.569   1.028 -0.0802 -1.7162  0.6687
  816MOL0     H10142  11.863   2.546   0.437  0.6126 -0.5223 -1.6977
  816MOL0     H10143  11.663   2.451   0.346 -2.2001  2.6584  1.1069
  816MOL0     H10144   9.802   2.311   0.549 -0.8076 -0.1345  0.6120
  816MOL0     H10145   9.562   2.283   0.537 -2.4170 -1.8282  0.4314
  816MOL0     H10146   9.150   1.974   0.308  2.2700  1.1002  0.3304
  816MOL0     H10147   8.920   1.994   0.342  1.0966 -0.8279  0.2532
  816MOL0     H10148   8.614   2.129   0.499  0.3347 -0.1437 -0.9743
  816MOL0     H10149   8.721   2.028   0.397  1.6447  0.7970 -3.3477
  816MOL0     H10150   8.768   2.232   0.258  0.1675 -2.0576 -0.4020
  816MOL0     H10151   8.645   2.325   0.363  1.8234  0.7335 -0.8930
  816MOL0     H10152   8.484   2.142   0.293 -0.9442  2.6072  0.9377
  816MOL0     H10153   8.607   2.101   0.162 -0.6506  0.5624 -1.5193
  816MOL0     H10154   8.416   2.252   0.085 -1.1773  2.5471  0.7638
  816MOL0     H10155   8.463   2.363   0.207 -0.0442 -0.2661  0.0776
  816MOL0     H10156   8.717   2.471  -0.111 -2.9998 -0.1458 -2.2461
  816MOL0     H10157   8.971   2.257   0.660  2.0692  1.3081 -0.4088
  816MOL0     H10158   9.170   2.305   0.756 -1.9824  0.1788 -1.8822
  816MOL0     H10159   9.291   2.172   0.759  2.1103 -0.1953 -2.7555
  816MOL0     H10160   9.307   2.306   0.640  0.8111  0.7873  1.2267
  817MOL0     O10161   1.407   1.396   3.494  0.0417 -0.1315 -0.0163
  817MOL0     C10162   1.444   1.281   3.523 -0.1327 -0.0115  0.5162
  817MOL0     O10163   1.543   1.220   3.462 -1.2774 -0.3717  1.1991
  817MOL0     C10164   1.639   1.292   3.397 -0.3715 -0.4502  0.3265
  817MOL0     C10165   1.708   1.209   3.305  0.2493 -0.1854  0.1667
  817MOL0     C10166   1.806   1.265   3.217  0.8495 -0.2250 -0.3810
  817MOL0     C10167   1.848   1.402   3.227  0.5617 -0.4244 -0.1937
  817MOL0     O10168   1.935   1.452   3.127 -0.1685  0.6996  0.3285
  817MOL0     C10169   1.937   1.601   3.114  0.4162  0.6725  0.7436
  817MOL0     C10170   2.034   1.642   2.998 -0.6271 -0.0532  0.4254
  817MOL0     C10171   2.182   1.654   3.046  0.5360  0.3797  0.8722
  817MOL0     C10172   2.275   1.660   2.916  0.2743 -0.4404  0.3287
  817MOL0     C10173   2.423   1.678   2.943 -0.1184  0.0575 -0.1856
  817MOL0     C10174   2.509   1.658   2.825 -0.1624 -0.4072  0.3992
  817MOL0     C10175   2.654   1.693   2.854 -0.2444  0.3495 -0.8390
  817MOL0     C10176   2.751   1.644   2.743  0.1738  0.3822  0.3920
  817MOL0     N10177   2.884   1.680   2.759 -0.0830  0.0455 -0.2685
  817MOL0     C10178   2.936   1.805   2.761  0.0841 -0.0585 -0.6491
  817MOL0     C10179   3.061   1.797   2.816 -1.1969  0.3620 -0.2029
  817MOL0     C10180   3.161   1.906   2.845 -0.5857 -0.4540 -0.2990
  817MOL0     C10181   3.309   1.864   2.814  0.3069  0.2905 -0.4076
  817MOL0     C10182   3.405   1.972   2.857  0.2324  0.4173  0.5559
  817MOL0     C10183   3.545   1.919   2.812  0.9891 -0.2170 -0.0341
  817MOL0     O10184   3.620   2.035   2.835 -0.3831 -0.4098  0.1449
  817MOL0     C10185   3.754   2.033   2.797 -0.6748 -0.0274 -0.0973
  817MOL0     C10186   3.829   2.153   2.814  0.9486  0.4820 -0.0274
  817MOL0     C10187   3.965   2.160   2.790 -0.6798 -0.0736  0.5497
  817MOL0     C10188   4.031   2.046   2.743 -0.4040 -0.0537 -0.5528
  817MOL0     C10189   4.181   2.046   2.715  0.2902 -0.1642 -0.0519
  817MOL0     O10190   4.236   1.929   2.677 -0.7558 -0.0064  0.0512
  817MOL0     C10191   4.369   1.922   2.645 -0.5836 -0.1990  0.4011
  817MOL0     C10192   4.436   1.810   2.696  0.1966  0.1663 -0.4807
  817MOL0     C10193   4.573   1.792   2.679 -0.9451 -0.1409  0.5685
  817MOL0     C10194   4.645   1.868   2.580 -0.2976  0.0928  0.7100
  817MOL0     O10195   4.774   1.832   2.554  0.7294 -0.0335  0.5114
  817MOL0     C10196   4.868   1.931   2.504 -0.4715  0.1640 -0.8898
  817MOL0     C10197   4.988   1.848   2.454  0.6270  0.1250  1.0747
  817MOL0     C10198   5.071   1.790   2.561 -0.0142  0.1642  0.7185
  817MOL0     C10199   5.212   1.741   2.507 -1.1382  0.8875  1.1124
  817MOL0     C10200   5.313   1.685   2.607 -0.0168  0.4866  0.5070
  817MOL0     C10201   5.454   1.649   2.539  0.0322 -0.0842 -0.4310
  817MOL0     C10202   5.519   1.781   2.494  0.3916  0.6989  0.0944
  817MOL0     C10203   5.659   1.754   2.445  0.6010 -1.2861  0.9406
  817MOL0    Cl10204   5.747   1.915   2.438  0.4199  0.0700  0.2606
  817MOL0     C10205   4.582   1.981   2.526  0.2791  0.6683 -0.8036
  817MOL0     C10206   4.449   1.999   2.562 -0.3471 -0.2312 -0.1068
  817MOL0     O10207   4.242   2.157   2.717  0.0142  0.3541  0.5234
  817MOL0     C10208   3.959   1.925   2.726  0.0310 -0.5912 -0.3217
  817MOL0     C10209   3.823   1.915   2.753 -0.3181  0.0528 -0.2992
  817MOL0     N10210   3.080   1.672   2.865  0.1935  0.2593  0.4297
  817MOL0     N10211   2.972   1.603   2.823 -0.7121 -1.1616 -0.3147
  817MOL0     C10212   1.794   1.476   3.336  0.3575  0.4605  0.2654
  817MOL0     C10213   1.695   1.424   3.412  1.2461  0.3636  0.2141
  817MOL0     C10214   1.363   1.205   3.625  0.2796  1.0958 -0.8674
  817MOL0     C10215   1.261   1.271   3.693  1.1980 -0.0520 -0.8249
  817MOL0     C10216   1.177   1.213   3.784  0.8179 -0.0538  0.1617
  817MOL0     C10217   1.201   1.078   3.819  0.5544  0.7492  0.5980
  817MOL0     O10218   1.117   1.013   3.904 -0.0259  0.1196  0.1874
  817MOL0     C10219   0.988   1.063   3.926 -0.0850 -1.2033  0.2642
  817MOL0     C10220   0.889   0.955   3.980 -0.2409 -0.5521  0.4314
  817MOL0     C10221   0.815   0.874   3.868  0.0929 -0.1731 -0.1969
  817MOL0     C10222   0.761   0.736   3.920 -0.0306  0.4013 -0.7225
  817MOL0     C10223   0.680   0.660   3.824 -0.8181 -0.0276  0.0985
  817MOL0     C10224   0.624   0.595   3.744  0.0023 -0.1486 -1.3294
  817MOL0     C10225   1.305   1.006   3.757  0.1356 -0.0742 -0.1220
  817MOL0     C10226   1.380   1.067   3.658 -0.0463  0.1813 -0.2409
  817MOL0     C10227   1.481   0.981   3.592 -0.3043 -0.2182 -0.0545
  817MOL0     H10228   1.675   1.105   3.302 -0.1855 -0.0706  0.7563
  817MOL0     H10229   1.855   1.191   3.155 -1.2887 -1.6617 -0.4652
  817MOL0     H10230   1.836   1.638   3.094  0.5040  1.1519  1.1647
  817MOL0     H10231   1.963   1.650   3.208 -0.6284  0.2833  1.2514
  817MOL0     H10232   2.000   1.741   2.967 -1.6943  0.0445  1.8230
  817MOL0     H10233   2.021   1.567   2.920 -1.8890  2.5986 -2.0875
  817MOL0     H10234   2.206   1.562   3.099  0.9520  1.7079  3.1169
  817MOL0     H10235   2.197   1.744   3.106 -0.2402  2.0023 -1.2224
  817MOL0     H10236   2.282   1.562   2.867  0.6220 -1.0395  1.5398
  817MOL0     H10237   2.227   1.733   2.851  0.5091 -1.3198 -0.8742
  817MOL0     H10238   2.444   1.779   2.979  0.7363 -0.9918  2.5636
  817MOL0     H10239   2.461   1.615   3.025  1.5967  1.0386 -0.1803
  817MOL0     H10240   2.507   1.553   2.792  0.7626 -0.4681  0.5201
  817MOL0     H10241   2.474   1.728   2.748  2.6012  0.2015 -0.4034
  817MOL0     H10242   2.684   1.646   2.948  0.8758  0.5816 -1.0647
  817MOL0     H10243   2.667   1.800   2.872  1.6291 -0.2372  1.9747
  817MOL0     H10244   2.737   1.536   2.736  0.0224  0.3287  1.3203
  817MOL0     H10245   2.725   1.687   2.646  1.2002 -1.7767 -0.9036
  817MOL0     H10246   2.901   1.901   2.725  1.2457  0.6516  0.0589
  817MOL0     H10247   3.149   1.998   2.787  3.0285 -0.0160 -0.6096
  817MOL0     H10248   3.154   1.933   2.951 -0.7319  1.9505 -0.8664
  817MOL0     H10249   3.344   1.767   2.850 -1.2272 -0.3624 -0.5986
  817MOL0     H10250   3.315   1.862   2.705 -0.1025 -2.5617 -0.4525
  817MOL0     H10251   3.407   1.971   2.966  0.3939 -0.7143  0.5575
  817MOL0     H10252   3.385   2.072   2.817  0.7088  1.0323  1.7898
  817MOL0     H10253   3.544   1.886   2.708 -1.1179 -1.9727  0.4503
  817MOL0     H10254   3.580   1.833   2.870  1.7560 -0.4601 -0.8405
  817MOL0     H10255   3.783   2.245   2.849  0.6939 -0.4704  2.3044
  817MOL0     H10256   4.018   2.254   2.805  0.8384 -0.6913 -0.7404
  817MOL0     H10257   4.389   1.740   2.764  1.4991  0.4560  0.7691
  817MOL0     H10258   4.623   1.704   2.718 -1.9499 -0.7801  0.4377
  817MOL0     H10259   4.818   1.987   2.425 -0.5807 -1.7946 -2.2783
  817MOL0     H10260   4.900   1.996   2.587 -0.6927 -0.5654 -0.2166
  817MOL0     H10261   4.959   1.767   2.388  0.8210 -0.2321  1.4255
  817MOL0     H10262   5.043   1.913   2.384  0.2428  1.3143  1.8435
  817MOL0     H10263   5.092   1.857   2.644 -0.4760  0.1762  0.8286
  817MOL0     H10264   5.014   1.708   2.605 -0.4744  0.2516  0.3000
  817MOL0     H10265   5.251   1.827   2.452 -1.2318  1.6961  2.2935
  817MOL0     H10266   5.195   1.668   2.427 -1.0719 -1.7361  3.3363
  817MOL0     H10267   5.272   1.597   2.657 -2.0841  0.5615 -0.9265
  817MOL0     H10268   5.332   1.763   2.682  1.3072  0.2656  0.4207
  817MOL0     H10269   5.519   1.597   2.610 -0.3223  0.7902  0.5693
  817MOL0     H10270   5.430   1.591   2.450 -1.0580  1.4989 -1.2302
  817MOL0     H10271   5.519   1.842   2.585  1.3160  0.6719  0.1226
  817MOL0     H10272   5.462   1.817   2.408 -1.4356 -2.3951 -0.1380
  817MOL0     H10273   5.717   1.705   2.523  0.5605  1.3272  2.7390
  817MOL0     H10274   5.672   1.710   2.346  1.9859 -0.6127  0.8034
  817MOL0     H10275   4.629   2.054   2.461 -1.5697  1.1881 -1.6063
  817MOL0     H10276   4.404   2.089   2.524  0.1899  0.5919  1.1430
  817MOL0     H10277   4.015   1.841   2.686  0.3913 -0.7326  0.4556
  817MOL0     H10278   3.770   1.824   2.729  2.5463 -1.6192 -0.7243
  817MOL0     H10279   1.828   1.576   3.359 -0.6859  0.6722  0.9403
  817MOL0     H10280   1.648   1.503   3.470  1.7086  2.7230 -2.3550
  817MOL0     H10281   1.243   1.374   3.666  1.1231 -0.8408 -4.1798
  817MOL0     H10282   1.101   1.276   3.828 -0.3399  0.4254 -2.3703
  817MOL0     H10283   0.956   1.111   3.833  4.3645  2.0233  0.0709
  817MOL0     H10284   0.992   1.143   4.000  0.4998 -1.5192  0.5770
  817MOL0     H10285   0.818   1.004   4.047 -1.3324 -0.4495 -0.7716
  817MOL0     H10286   0.944   0.883   4.042  1.1634 -0.5756 -0.7766
  817MOL0     H10287   0.872   0.842   3.781 -0.2559 -0.6678 -0.2443
  817MOL0     H10288   0.732   0.939   3.838 -1.3053 -0.4156  2.7201
  817MOL0     H10289   0.832   0.670   3.970  1.7670  0.6973 -2.7463
  817MOL0     H10290   0.692   0.748   4.004 -0.7057 -0.4148 -1.1484
  817MOL0     H10291   0.571   0.542   3.667 -3.8023  2.3137 -0.6928
  817MOL0     H10292   1.317   0.899   3.776 -1.2559 -0.6763 -2.2663
  817MOL0     H10293   1.577   1.027   3.615 -1.0586 -0.5493  4.9438
  817MOL0     H10294   1.491   0.879   3.631  0.0421 -0.5314 -0.9371
  817MOL0     H10295   1.468   0.968   3.484  3.4817  0.8420 -0.7875
  818MOL0     O10296   9.182   4.165   7.684 -0.3863  0.6621 -0.2951
  818MOL0     C10297   9.154   4.088   7.774  0.5578  1.3368 -0.9811
  818MOL0     O10298   9.222   4.063   7.885 -0.5674  0.1819  0.1790
  818MOL0     C10299   9.355   4.091   7.872  0.5550 -0.2354 -0.5201
  818MOL0     C10300   9.437   4.013   7.789  0.2652 -0.3021 -0.3402
  818MOL0     C10301   9.571   4.051   7.774 -0.0060  0.2342 -0.3165
  818MOL0     C10302   9.621   4.169   7.842  1.0524  0.0978  0.0800
  818MOL0     O10303   9.747   4.218   7.845  0.6914 -0.6010  0.4316
  818MOL0     C10304   9.841   4.157   7.763 -0.1422 -0.1336  0.2313
  818MOL0     C10305   9.973   4.225   7.798 -0.2589  0.0631  0.6667
  818MOL0     C10306   9.980   4.369   7.738 -0.0743  0.4190 -0.3217
  818MOL0     C10307  10.109   4.430   7.785  0.3054 -0.6317  0.1017
  818MOL0     C10308  10.116   4.572   7.718 -0.4911  0.5765  0.4271
  818MOL0     C10309  10.210   4.676   7.794  0.0735  0.0945  0.0199
  818MOL0     C10310  10.352   4.634   7.762 -0.5277 -0.3716  0.0058
  818MOL0     C10311  10.452   4.745   7.799 -0.0561 -0.2810 -0.1503
  818MOL0     N10312  10.583   4.698   7.757 -0.0721 -0.1212  0.5310
  818MOL0     C10313  10.670   4.619   7.835 -0.0294 -0.0489 -0.0606
  818MOL0     C10314  10.775   4.594   7.746 -0.0695  0.2361 -0.0272
  818MOL0     C10315  10.920   4.536   7.785  1.1663 -0.0785 -0.0640
  818MOL0     C10316  11.033   4.641   7.794 -0.0756 -0.3808 -0.5478
  818MOL0     C10317  11.010   4.738   7.910  0.1041  0.1184  0.2647
  818MOL0     C10318  10.991   4.666   8.040 -0.3546  0.3778  0.3440
  818MOL0     O10319  11.087   4.565   8.074  0.3591 -0.8357  0.2105
  818MOL0     C10320  11.214   4.595   8.120 -1.1636 -0.2136  0.5285
  818MOL0     C10321  11.292   4.489   8.162  0.1885  0.6836 -0.2134
  818MOL0     C10322  11.423   4.499   8.201 -1.4074 -1.1502  0.1013
  818MOL0     C10323  11.488   4.624   8.193  0.6233 -0.0530  0.5650
  818MOL0     C10324  11.636   4.634   8.224 -0.0907  0.0931 -0.8731
  818MOL0     O10325  11.697   4.515   8.261  0.3945 -0.0679  0.0862
  818MOL0     C10326  11.832   4.507   8.277 -0.3364 -0.1921  0.6730
  818MOL0     C10327  11.921   4.569   8.188  0.4594 -0.5170 -0.3778
  818MOL0     C10328  12.058   4.565   8.200 -0.3028  0.5833  0.1954
  818MOL0     C10329  12.110   4.494   8.297  0.1761 -0.2130  0.1257
  818MOL0     O10330  12.252   4.511   8.309 -0.2301  0.6872 -0.1619
  818MOL0     C10331  12.321   4.409   8.389  0.3229 -0.4216 -0.3054
  818MOL0     C10332  12.471   4.448   8.371 -0.1186  0.1525 -0.9258
  818MOL0     C10333  12.549   4.327   8.436  0.4104 -0.1952 -0.7598
  818MOL0     C10334  12.701   4.339   8.398  0.0737  0.1675  0.1303
  818MOL0     C10335  12.783   4.213   8.431  0.0866 -0.0033  0.0142
  818MOL0     C10336  12.931   4.225   8.384 -0.0051 -0.1775 -0.4255
  818MOL0     C10337  12.991   4.086   8.385  0.1228 -0.3077 -0.0609
  818MOL0     C10338  13.145   4.105   8.362  0.0367  1.1793  0.0739
  818MOL0    Cl10339  13.225   3.954   8.409  0.2565  0.1076  0.0212
  818MOL0     C10340  12.034   4.421   8.385 -0.4385  0.7792  0.0246
  818MOL0     C10341  11.894   4.427   8.374  0.2449  0.2678 -0.7705
  818MOL0     O10342  11.689   4.744   8.231  0.2757  0.1260 -0.2364
  818MOL0     C10343  11.408   4.734   8.156  0.3364  0.9293  0.1461
  818MOL0     C10344  11.272   4.728   8.120  1.0158  0.3101  0.4251
  818MOL0     N10345  10.757   4.662   7.628  0.0926  0.5243 -0.5626
  818MOL0     N10346  10.642   4.723   7.635  0.2040 -0.1431 -0.7200
  818MOL0     C10347   9.534   4.244   7.912 -0.3254  0.0570 -0.6391
  818MOL0     C10348   9.405   4.203   7.935 -0.3206 -0.5246 -0.8200
  818MOL0     C10349   9.027   4.016   7.754 -0.3429  0.1354  0.6570
  818MOL0     C10350   8.907   4.084   7.762 -0.6864 -0.2575 -0.4911
  818MOL0     C10351   8.780   4.024   7.743  0.4072  0.8757  0.7635
  818MOL0     C10352   8.772   3.887   7.712 -0.0083  0.4159  0.1655
  818MOL0     O10353   8.650   3.837   7.692  0.0336 -0.2777  0.4546
  818MOL0     C10354   8.636   3.704   7.653 -0.0154 -0.7207 -0.4541
  818MOL0     C10355   8.499   3.665   7.597 -0.4806  0.3470 -0.1284
  818MOL0     C10356   8.394   3.649   7.717 -0.1317 -0.5255  0.8455
  818MOL0     C10357   8.270   3.732   7.676 -0.3746 -0.2424  0.2223
  818MOL0     C10358   8.150   3.668   7.724  0.7001  0.0517  0.1241
  818MOL0     C10359   8.042   3.623   7.763  0.0251  0.5360  0.0188
  818MOL0     C10360   8.898   3.813   7.701 -0.1483 -0.2001 -0.7111
  818MOL0     C10361   9.020   3.876   7.732  0.2987  0.0827 -0.0435
  818MOL0     C10362   9.143   3.791   7.750 -0.4556 -0.3517  0.5443
  818MOL0     H10363   9.395   3.924   7.745  3.5045 -3.7216  2.7774
  818MOL0     H10364   9.636   3.983   7.721 -1.3565 -1.1627 -0.2777
  818MOL0     H10365   9.847   4.049   7.782  2.5391  0.1549  1.6165
  818MOL0     H10366   9.820   4.168   7.656 -1.4622  0.7505  0.5598
  818MOL0     H10367  10.058   4.163   7.767  0.8518  0.2983  3.0141
  818MOL0     H10368   9.993   4.228   7.906 -0.7806  1.6926  0.7405
  818MOL0     H10369   9.899   4.431   7.780 -0.5816 -1.4788  1.7101
  818MOL0     H10370   9.968   4.363   7.630  0.8785  2.6228 -0.6145
  818MOL0     H10371  10.116   4.424   7.894 -0.0129 -1.7553  0.0735
  818MOL0     H10372  10.193   4.372   7.747  0.6105 -0.1231 -0.0065
  818MOL0     H10373  10.152   4.550   7.618  0.6683  2.3119  0.4334
  818MOL0     H10374  10.020   4.623   7.725 -2.2103 -2.4746  0.9691
  818MOL0     H10375  10.186   4.775   7.755 -0.0020 -1.1399 -3.4460
  818MOL0     H10376  10.182   4.671   7.899 -1.2963  2.8621 -0.1303
  818MOL0     H10377  10.360   4.628   7.653 -0.4805  0.0571 -0.0161
  818MOL0     H10378  10.366   4.541   7.819 -1.6849  0.2132  1.3165
  818MOL0     H10379  10.431   4.842   7.753 -1.6577  0.3509  1.7986
  818MOL0     H10380  10.447   4.772   7.905  2.4717  2.0766 -0.5264
  818MOL0     H10381  10.658   4.593   7.939 -1.7083 -0.9627 -0.4483
  818MOL0     H10382  10.912   4.474   7.874 -1.6425 -1.2950 -1.0441
  818MOL0     H10383  10.937   4.472   7.698 -0.4435 -0.1009 -0.3842
  818MOL0     H10384  11.132   4.596   7.788  1.3473  2.1339  1.8464
  818MOL0     H10385  11.041   4.690   7.697  0.6992 -1.8727 -1.2632
  818MOL0     H10386  10.924   4.802   7.885  0.6145  0.1790 -1.4567
  818MOL0     H10387  11.094   4.808   7.910  1.3002 -1.2472 -1.1763
  818MOL0     H10388  10.896   4.611   8.045  1.3773 -3.0847 -1.1861
  818MOL0     H10389  10.993   4.743   8.118  0.2122  1.0531 -0.3256
  818MOL0     H10390  11.249   4.392   8.187  3.9050 -0.7602  1.3314
  818MOL0     H10391  11.482   4.408   8.211 -1.8292 -1.7036 -1.9178
  818MOL0     H10392  11.882   4.635   8.112  0.5022 -0.3771 -0.2799
  818MOL0     H10393  12.120   4.627   8.135 -1.4230  1.4038 -0.1100
  818MOL0     H10394  12.296   4.417   8.495  4.6304  0.7518  0.8535
  818MOL0     H10395  12.301   4.308   8.353 -2.1883 -0.4960  1.0715
  818MOL0     H10396  12.502   4.469   8.269  2.6289 -0.4629 -0.2811
  818MOL0     H10397  12.489   4.537   8.432  0.1261 -1.2055  1.0749
  818MOL0     H10398  12.531   4.324   8.544  0.9066 -3.5567 -0.6495
  818MOL0     H10399  12.508   4.233   8.399 -1.0081 -0.2087  0.7320
  818MOL0     H10400  12.740   4.427   8.452  0.0084 -1.8375  3.7764
  818MOL0     H10401  12.720   4.356   8.292 -0.5056  1.0457  0.1543
  818MOL0     H10402  12.732   4.128   8.384 -0.4550  1.3771 -1.9860
  818MOL0     H10403  12.767   4.184   8.536  1.3212 -2.1961 -0.3338
  818MOL0     H10404  12.927   4.271   8.284  1.3284  2.5435  0.6798
  818MOL0     H10405  12.987   4.286   8.455  0.1562  0.4718 -1.0903
  818MOL0     H10406  12.943   4.016   8.316  1.2557 -0.0444 -1.1451
  818MOL0     H10407  12.977   4.045   8.485 -0.1334 -2.5969 -0.9803
  818MOL0     H10408  13.165   4.136   8.259  1.6001  0.3567  0.0955
  818MOL0     H10409  13.185   4.175   8.436  1.1226 -1.4338  2.1290
  818MOL0     H10410  12.073   4.363   8.468 -2.7669 -0.1577  0.5472
  818MOL0     H10411  11.836   4.370   8.446  0.7500 -0.3632 -0.8498
  818MOL0     H10412  11.445   4.835   8.172  2.3070  0.1305  0.9735
  818MOL0     H10413  11.220   4.821   8.099  0.3839 -0.4573 -1.6596
  818MOL0     H10414   9.580   4.334   7.952  0.8331 -0.2741 -1.1935
  818MOL0     H10415   9.333   4.263   7.991 -0.2344 -1.4513  0.3217
  818MOL0     H10416   8.910   4.193   7.766 -1.3939 -0.2651  0.6230
  818MOL0     H10417   8.690   4.083   7.749 -2.1526 -2.7345  1.6455
  818MOL0     H10418   8.650   3.638   7.739 -4.5241 -1.8211 -0.2652
  818MOL0     H10419   8.706   3.694   7.570 -0.8234  1.4664 -1.4809
  818MOL0     H10420   8.501   3.563   7.557 -0.4253 -1.2657  3.5629
  818MOL0     H10421   8.463   3.736   7.522 -1.0543 -0.0132 -0.2027
  818MOL0     H10422   8.445   3.687   7.806  1.3694  2.7686 -1.2079
  818MOL0     H10423   8.359   3.546   7.728 -2.2736  0.2323  1.6174
  818MOL0     H10424   8.277   3.833   7.718 -0.1678 -0.1421 -0.0484
  818MOL0     H10425   8.263   3.751   7.568 -0.3986 -2.3891 -0.1834
  818MOL0     H10426   7.953   3.583   7.808  0.5901  0.7905  1.4116
  818MOL0     H10427   8.909   3.709   7.675  1.8658 -0.3901  0.6793
  818MOL0     H10428   9.186   3.809   7.849  1.9930 -0.3440 -0.4398
  818MOL0     H10429   9.102   3.690   7.756 -1.1995 -0.2026 -1.2793
  818MOL0     H10430   9.217   3.808   7.671 -0.9163  0.0852  0.2047
  819MOL0     O10431   8.719   1.613   5.400 -0.4465  0.0684 -0.4862
  819MOL0     C10432   8.630   1.601   5.312  0.4238  0.2904  0.1504
  819MOL0     O10433   8.643   1.630   5.179  0.4483 -0.0964  0.3761
  819MOL0     C10434   8.754   1.640   5.107 -0.9823 -0.7705  0.6640
  819MOL0     C10435   8.886   1.633   5.165 -0.1022  0.4819  0.1287
  819MOL0     C10436   8.999   1.652   5.085 -0.3710 -0.0365 -0.1847
  819MOL0     C10437   8.990   1.656   4.948  0.1126  0.6605  0.5339
  819MOL0     O10438   9.108   1.654   4.874  0.3250  0.0548  0.1327
  819MOL0     C10439   9.124   1.680   4.731  0.1030 -0.2267 -0.8700
  819MOL0     C10440   9.133   1.838   4.712  0.8985 -0.2341 -0.5844
  819MOL0     C10441   9.251   1.897   4.790 -0.0787 -0.8162 -0.4319
  819MOL0     C10442   9.266   2.047   4.777 -0.0604  0.3461 -0.1476
  819MOL0     C10443   9.357   2.112   4.885 -0.0129  0.6722  0.1863
  819MOL0     C10444   9.505   2.065   4.875  0.2276  0.9601  0.2422
  819MOL0     C10445   9.590   2.122   4.996  0.6098  0.7203  0.6122
  819MOL0     C10446   9.735   2.068   4.996  0.1692  1.2289  0.6871
  819MOL0     N10447   9.782   2.031   5.129  0.4259 -0.0015 -0.9718
  819MOL0     C10448   9.823   1.906   5.180  0.2663 -0.6715 -0.0192
  819MOL0     C10449   9.872   1.925   5.304  0.0929 -0.3703 -0.0553
  819MOL0     C10450   9.909   1.808   5.399  0.3026 -0.1756 -0.1858
  819MOL0     C10451   9.829   1.813   5.535 -0.2740 -0.0451 -0.2268
  819MOL0     C10452   9.889   1.725   5.655  0.2323 -0.3646  0.0215
  819MOL0     C10453   9.871   1.572   5.632  0.2464  0.3772 -0.3321
  819MOL0     O10454   9.929   1.485   5.727  0.3561 -0.6086 -1.1304
  819MOL0     C10455  10.063   1.468   5.719 -0.6092 -0.2623  0.1170
  819MOL0     C10456  10.153   1.553   5.643  0.0970  0.9254 -0.1450
  819MOL0     C10457  10.288   1.515   5.647 -0.3786 -0.4219 -0.2674
  819MOL0     C10458  10.339   1.406   5.720 -0.2107 -0.7483  0.1188
  819MOL0     C10459  10.487   1.369   5.711  0.5006 -0.5663  0.7516
  819MOL0     O10460  10.557   1.448   5.632  0.3962  0.1167  0.0182
  819MOL0     C10461  10.696   1.451   5.630  0.5600  0.3976  0.4108
  819MOL0     C10462  10.792   1.421   5.733  0.2172 -0.0465 -0.1551
  819MOL0     C10463  10.929   1.449   5.711 -0.2268 -0.2606  0.2322
  819MOL0     C10464  10.986   1.513   5.599 -0.8871 -0.4986  0.2931
  819MOL0     O10465  11.114   1.556   5.565  0.2319 -0.3185  0.3663
  819MOL0     C10466  11.209   1.547   5.671  0.2329  0.1273  0.9261
  819MOL0     C10467  11.350   1.572   5.613  0.9031  0.0605  0.1442
  819MOL0     C10468  11.450   1.570   5.726 -1.2592  0.1804 -0.0845
  819MOL0     C10469  11.602   1.561   5.672  0.3573  0.0502 -0.3784
  819MOL0     C10470  11.686   1.577   5.801  1.0612 -0.0839  0.2385
  819MOL0     C10471  11.829   1.540   5.780  0.0879 -0.6977  0.0282
  819MOL0     C10472  11.908   1.557   5.910 -0.6407 -0.9900  0.1365
  819MOL0     C10473  12.050   1.505   5.903 -0.0164  0.7845  0.6749
  819MOL0    Cl10474  12.138   1.576   6.040 -0.1890 -0.2317  0.4171
  819MOL0     C10475  10.896   1.537   5.491 -0.1265 -0.1675 -0.5439
  819MOL0     C10476  10.756   1.508   5.512  0.0739  0.1465 -0.0250
  819MOL0     O10477  10.535   1.271   5.774 -0.0183 -0.8503  0.4184
  819MOL0     C10478  10.249   1.318   5.781  0.4108 -0.1307 -0.2372
  819MOL0     C10479  10.113   1.350   5.784 -0.1516 -0.2085  0.0609
  819MOL0     N10480   9.882   2.061   5.326  0.3479 -0.9734 -0.1913
  819MOL0     N10481   9.823   2.121   5.225 -0.1688  0.1855  0.7266
  819MOL0     C10482   8.863   1.653   4.884 -0.6513  0.6154  0.3119
  819MOL0     C10483   8.750   1.650   4.970  0.2515  0.1681  0.7773
  819MOL0     C10484   8.507   1.533   5.353  0.1253  0.3336  0.5488
  819MOL0     C10485   8.419   1.487   5.253 -0.9915  0.4225  0.6812
  819MOL0     C10486   8.302   1.415   5.281  0.7521 -0.1299 -1.1688
  819MOL0     C10487   8.258   1.397   5.409  0.4353 -0.2356  0.5838
  819MOL0     O10488   8.155   1.312   5.447  0.0033 -0.6745  0.2509
  819MOL0     C10489   8.062   1.283   5.348  0.7636  0.7856 -0.3429
  819MOL0     C10490   7.932   1.226   5.413 -0.4237  0.3376  0.5419
  819MOL0     C10491   7.941   1.083   5.467  0.1436  0.0380  0.8321
  819MOL0     C10492   7.899   0.976   5.361 -0.0772 -0.4837 -0.4483
  819MOL0     C10493   7.901   0.833   5.406 -0.1130  0.2489 -0.0786
  819MOL0     C10494   7.911   0.712   5.451  0.6259 -0.3030  0.1493
  819MOL0     C10495   8.325   1.463   5.510 -0.1921  0.0761  0.7493
  819MOL0     C10496   8.444   1.525   5.486 -0.9840 -0.5434  0.2604
  819MOL0     C10497   8.522   1.583   5.608 -0.3739 -0.0590 -0.4158
  819MOL0     H10498   8.905   1.611   5.269  2.8369  0.2480 -0.3933
  819MOL0     H10499   9.099   1.654   5.128  0.6756 -0.7392 -2.4557
  819MOL0     H10500   9.220   1.637   4.702 -0.3890 -1.0379 -1.3371
  819MOL0     H10501   9.048   1.639   4.664 -1.0833  2.7820 -1.5269
  819MOL0     H10502   9.030   1.863   4.739 -0.1118 -2.2493 -2.2089
  819MOL0     H10503   9.149   1.858   4.606  0.9593 -0.6994 -0.6680
  819MOL0     H10504   9.340   1.846   4.752 -0.5191 -2.7928  1.0217
  819MOL0     H10505   9.238   1.881   4.898 -2.3479  0.3014 -0.4766
  819MOL0     H10506   9.314   2.072   4.682 -0.2219 -0.4599 -0.4470
  819MOL0     H10507   9.171   2.099   4.788  0.0495  0.7208 -0.9579
  819MOL0     H10508   9.344   2.220   4.872  1.9857  1.2008  1.9741
  819MOL0     H10509   9.318   2.096   4.986  0.3229 -2.7890 -0.1176
  819MOL0     H10510   9.505   1.955   4.869 -1.5584  0.9348  0.1891
  819MOL0     H10511   9.551   2.094   4.780 -0.2947  1.3455  0.1040
  819MOL0     H10512   9.534   2.092   5.085  0.7916  0.1578  0.5429
  819MOL0     H10513   9.593   2.230   4.978 -0.6653  0.2961 -2.7624
  819MOL0     H10514   9.735   1.986   4.924  0.0690 -0.2732  2.3456
  819MOL0     H10515   9.813   2.136   4.959  2.4465 -1.8159 -0.5649
  819MOL0     H10516   9.820   1.812   5.128 -1.3536 -1.4542  1.3964
  819MOL0     H10517   9.896   1.711   5.351  1.0745  0.0434 -0.8622
  819MOL0     H10518  10.016   1.815   5.423  0.2613 -1.0368  0.2942
  819MOL0     H10519   9.841   1.915   5.573  0.5588 -0.0171 -0.5435
  819MOL0     H10520   9.724   1.801   5.507 -0.5088  2.3344 -0.5952
  819MOL0     H10521   9.843   1.753   5.751  0.8778 -0.4233  0.3548
  819MOL0     H10522   9.993   1.760   5.665  1.0423 -2.9251  1.4489
  819MOL0     H10523   9.904   1.544   5.532 -0.2102  1.7418 -0.8960
  819MOL0     H10524   9.764   1.552   5.638  0.2289  0.6412  0.3755
  819MOL0     H10525  10.138   1.635   5.574 -0.2739 -0.1269 -1.3587
  819MOL0     H10526  10.345   1.582   5.584 -1.7625  1.7967  0.7122
  819MOL0     H10527  10.752   1.385   5.827  0.3945  2.3416  0.8803
  819MOL0     H10528  11.003   1.430   5.788 -0.2241 -2.8035 -0.3029
  819MOL0     H10529  11.192   1.619   5.751 -0.6323  0.8883  0.0790
  819MOL0     H10530  11.207   1.447   5.715  1.0678  0.1051  0.9323
  819MOL0     H10531  11.371   1.498   5.535  0.8271  0.2281 -0.0378
  819MOL0     H10532  11.349   1.670   5.564 -0.8360 -0.9512 -2.0663
  819MOL0     H10533  11.433   1.663   5.781  2.9855  0.7213  0.5977
  819MOL0     H10534  11.429   1.480   5.785  2.1717 -0.6412  0.0860
  819MOL0     H10535  11.615   1.648   5.607 -0.5340 -0.3680 -1.1247
  819MOL0     H10536  11.623   1.476   5.607  0.3902  0.9542 -1.5858
  819MOL0     H10537  11.641   1.508   5.873  0.0387 -1.0532 -1.2585
  819MOL0     H10538  11.680   1.682   5.829  1.0391  1.0638 -3.5420
  819MOL0     H10539  11.837   1.440   5.736  2.4983 -0.6071  0.1051
  819MOL0     H10540  11.879   1.606   5.708 -2.3949 -0.1086 -1.2751
  819MOL0     H10541  11.859   1.496   5.986  2.3432 -3.6507  0.1426
  819MOL0     H10542  11.897   1.664   5.930  0.8678 -0.1249 -2.9541
  819MOL0     H10543  12.055   1.395   5.902  2.0369  0.8425  0.5991
  819MOL0     H10544  12.097   1.540   5.811 -0.5814 -1.1795 -0.4126
  819MOL0     H10545  10.934   1.573   5.396 -0.2310 -2.2018 -1.4061
  819MOL0     H10546  10.698   1.519   5.422  0.1653 -1.5959 -0.3243
  819MOL0     H10547  10.276   1.219   5.814  2.0062  0.8508  1.6105
  819MOL0     H10548  10.043   1.286   5.837 -1.0039  0.4025 -0.3090
  819MOL0     H10549   8.862   1.664   4.776 -0.0939 -1.0262  0.1132
  819MOL0     H10550   8.655   1.659   4.918  0.9250  1.1175 -0.3562
  819MOL0     H10551   8.433   1.502   5.146  3.9423  0.3164  1.1018
  819MOL0     H10552   8.237   1.388   5.198 -0.3333  1.6233 -0.9362
  819MOL0     H10553   8.111   1.209   5.284  0.5858 -0.5800  1.0285
  819MOL0     H10554   8.031   1.367   5.285 -3.4499 -0.1695  0.1946
  819MOL0     H10555   7.842   1.238   5.351 -1.1266  2.7199  1.8872
  819MOL0     H10556   7.923   1.299   5.495  0.5847 -1.1818  2.0612
  819MOL0     H10557   7.872   1.068   5.551 -2.3167 -0.0535 -1.1072
  819MOL0     H10558   8.045   1.056   5.488 -0.1136 -1.9700 -0.1868
  819MOL0     H10559   7.798   0.987   5.322  0.1672  1.9957 -0.5002
  819MOL0     H10560   7.964   0.978   5.272  0.0974  0.9080 -0.2974
  819MOL0     H10561   7.925   0.616   5.496 -0.8985 -0.4466  0.3936
  819MOL0     H10562   8.304   1.439   5.614 -1.0595 -2.5428  0.0427
  819MOL0     H10563   8.600   1.514   5.640  0.3108  1.8207  2.2591
  819MOL0     H10564   8.566   1.680   5.583  0.3590  0.0712  1.2981
  819MOL0     H10565   8.452   1.595   5.691  0.3810  1.7130  0.0099
  820MOL0     O10566   0.516   0.639   8.434  0.7514 -0.3905  0.0528
  820MOL0     C10567   0.460   0.721   8.364  0.4197 -0.1723 -1.0391
  820MOL0     O10568   0.511   0.847   8.335  1.0034 -0.3683 -0.4065
  820MOL0     C10569   0.629   0.892   8.381 -0.3807 -0.3054  0.8276
  820MOL0     C10570   0.725   0.921   8.286 -0.6241 -0.4655  0.0703
  820MOL0     C10571   0.842   0.989   8.321  0.0961  0.3845 -0.1586
  820MOL0     C10572   0.869   1.020   8.455  0.0676  0.5887  0.9729
  820MOL0     O10573   0.979   1.086   8.500  0.1295 -0.3966 -0.2503
  820MOL0     C10574   1.035   1.175   8.403 -0.4928 -0.7659  0.0846
  820MOL0     C10575   1.129   1.272   8.474 -0.0835  0.2275 -0.3596
  820MOL0     C10576   1.272   1.201   8.503 -0.0212 -0.0536 -0.4253
  820MOL0     C10577   1.357   1.307   8.579  0.2064  0.5337 -0.4007
  820MOL0     C10578   1.513   1.276   8.589 -0.0185  0.4142  0.3141
  820MOL0     C10579   1.593   1.405   8.615 -0.1825  0.1109 -0.2468
  820MOL0     C10580   1.737   1.362   8.658  0.1512 -0.1230 -0.1505
  820MOL0     C10581   1.817   1.346   8.527  0.2117 -0.5474  0.3101
  820MOL0     N10582   1.962   1.376   8.552  0.2264 -0.3286  0.1304
  820MOL0     C10583   2.062   1.286   8.563 -1.6865  0.1193 -0.0530
  820MOL0     C10584   2.175   1.357   8.545  0.2665  0.7239  0.1115
  820MOL0     C10585   2.314   1.309   8.524  0.5236  0.3251 -0.8012
  820MOL0     C10586   2.398   1.413   8.446  0.1317 -0.3769 -0.2199
  820MOL0     C10587   2.519   1.360   8.377 -0.7232 -0.1161  0.2760
  820MOL0     C10588   2.616   1.282   8.467 -0.2588 -0.3064  0.4154
  820MOL0     O10589   2.725   1.232   8.382 -0.4424  0.0610 -0.5637
  820MOL0     C10590   2.854   1.234   8.440  0.5666 -1.3606  0.1521
  820MOL0     C10591   2.962   1.258   8.357  0.4075 -0.1793  0.1591
  820MOL0     C10592   3.092   1.258   8.394 -0.1830 -0.3199 -0.4195
  820MOL0     C10593   3.116   1.236   8.538 -0.2733 -0.1935 -0.7975
  820MOL0     C10594   3.255   1.249   8.589  0.2633  0.0321 -0.4243
  820MOL0     O10595   3.349   1.251   8.494 -0.3695  0.9446  1.0307
  820MOL0     C10596   3.479   1.258   8.544 -0.2606 -0.3113  0.1208
  820MOL0     C10597   3.557   1.147   8.550 -0.6513  0.1793 -0.1601
  820MOL0     C10598   3.678   1.144   8.619  0.5610 -0.1147 -0.1411
  820MOL0     C10599   3.728   1.269   8.676  0.0413  0.8819 -0.4133
  820MOL0     O10600   3.848   1.289   8.732  0.3675 -1.0616  0.3866
  820MOL0     C10601   3.932   1.175   8.759  0.2833 -0.0530  0.1553
  820MOL0     C10602   4.041   1.223   8.848 -0.5732  0.2475 -0.2664
  820MOL0     C10603   4.127   1.336   8.795  0.0283  0.4909  0.6386
  820MOL0     C10604   4.229   1.404   8.894  0.6293  0.2374  0.5340
  820MOL0     C10605   4.313   1.516   8.833 -0.6307  0.7913  0.6465
  820MOL0     C10606   4.404   1.586   8.932  0.6716 -0.2666  0.0539
  820MOL0     C10607   4.519   1.652   8.855  0.2872 -0.1004 -0.0605
  820MOL0     C10608   4.571   1.752   8.956 -0.8382  0.0725  0.0950
  820MOL0    Cl10609   4.686   1.861   8.885 -0.1449 -0.1285  0.3401
  820MOL0     C10610   3.646   1.380   8.674  0.3733  0.4700  0.9071
  820MOL0     C10611   3.527   1.370   8.603  0.7034 -0.0043 -0.5967
  820MOL0     O10612   3.276   1.243   8.715 -0.5012 -0.0833  1.2242
  820MOL0     C10613   3.001   1.234   8.625 -0.9628 -0.1607  0.1603
  820MOL0     C10614   2.875   1.224   8.574 -0.2901  0.1720  0.0548
  820MOL0     N10615   2.137   1.487   8.527  0.3434 -0.3535  0.9076
  820MOL0     N10616   2.013   1.500   8.544  0.1446  0.0769  0.2580
  820MOL0     C10617   0.781   0.977   8.551  0.0102  0.6785  0.2083
  820MOL0     C10618   0.655   0.920   8.516 -0.0619  0.1726 -0.7997
  820MOL0     C10619   0.324   0.689   8.318  0.0706  0.3239 -0.5922
  820MOL0     C10620   0.281   0.555   8.335  1.0852  0.1664 -0.6204
  820MOL0     C10621   0.154   0.511   8.294 -0.3016 -0.3999 -0.3561
  820MOL0     C10622   0.070   0.592   8.213 -0.0036  0.9189  0.1889
  820MOL0     O10623  -0.052   0.533   8.174 -0.1753  0.5781  0.0398
  820MOL0     C10624  -0.139   0.604   8.081 -0.7506  0.0015 -0.7340
  820MOL0     C10625  -0.267   0.526   8.070 -0.0008  0.0132  0.1268
  820MOL0     C10626  -0.374   0.605   7.987  0.1826  0.3576 -0.8606
  820MOL0     C10627  -0.477   0.512   7.926 -0.2221  0.1676  0.1175
  820MOL0     C10628  -0.577   0.593   7.842  0.6629  0.6953  0.1474
  820MOL0     C10629  -0.650   0.662   7.766  0.6472 -0.2409 -0.0578
  820MOL0     C10630   0.122   0.720   8.181  0.6438 -0.2241 -0.1475
  820MOL0     C10631   0.241   0.775   8.238 -0.1020 -0.0650 -1.0702
  820MOL0     C10632   0.275   0.920   8.212 -1.2050 -0.1204  0.4975
  820MOL0     H10633   0.707   0.894   8.182  0.0222  1.6712 -0.6418
  820MOL0     H10634   0.920   1.021   8.253  2.9376  2.3252  3.6220
  820MOL0     H10635   1.088   1.118   8.326 -1.3522 -2.2659  0.5577
  820MOL0     H10636   0.963   1.237   8.349 -0.2747  1.4973  2.2171
  820MOL0     H10637   1.091   1.309   8.569  0.9245 -2.1102  1.0582
  820MOL0     H10638   1.135   1.368   8.421 -1.3104  0.7172  0.3453
  820MOL0     H10639   1.320   1.152   8.417 -0.3224  1.4505 -1.4952
  820MOL0     H10640   1.247   1.127   8.579 -2.3449  1.8015  0.7318
  820MOL0     H10641   1.342   1.402   8.525  0.1193  1.5662  1.3760
  820MOL0     H10642   1.326   1.327   8.682 -0.0672  0.2082 -0.4190
  820MOL0     H10643   1.528   1.199   8.665  2.7137 -0.6084 -1.1108
  820MOL0     H10644   1.536   1.238   8.489 -4.0496  1.9167 -1.3747
  820MOL0     H10645   1.585   1.483   8.539 -1.8670 -0.2932 -0.5289
  820MOL0     H10646   1.551   1.452   8.705  3.0436  1.9660  0.4423
  820MOL0     H10647   1.737   1.263   8.705  1.0326  0.2285  0.6229
  820MOL0     H10648   1.784   1.446   8.711  1.7216 -1.0323 -0.0367
  820MOL0     H10649   1.812   1.247   8.480 -0.4302 -0.0393 -0.7256
  820MOL0     H10650   1.769   1.413   8.455 -1.1809  0.2289  1.8958
  820MOL0     H10651   2.060   1.178   8.572 -1.5509 -0.0539 -1.7305
  820MOL0     H10652   2.360   1.289   8.621  1.5514  0.1742 -1.3141
  820MOL0     H10653   2.310   1.210   8.477 -0.8925 -1.9273  3.4800
  820MOL0     H10654   2.336   1.447   8.362 -0.7034 -3.5363 -1.0358
  820MOL0     H10655   2.425   1.498   8.508  0.0215  0.7665 -1.6808
  820MOL0     H10656   2.578   1.439   8.330 -2.5375  0.0087 -1.9600
  820MOL0     H10657   2.494   1.294   8.294 -1.0477 -1.4551  1.3892
  820MOL0     H10658   2.571   1.200   8.523  2.0522 -1.2959  0.8883
  820MOL0     H10659   2.649   1.349   8.547 -1.1806  0.5801  0.0950
  820MOL0     H10660   2.942   1.268   8.250 -2.3767 -0.4132  0.5943
  820MOL0     H10661   3.175   1.271   8.325 -0.4609  0.4326 -0.6149
  820MOL0     H10662   3.529   1.050   8.509 -1.4560  0.2289  0.2361
  820MOL0     H10663   3.735   1.052   8.618  0.5191 -0.1476  0.2753
  820MOL0     H10664   3.871   1.103   8.815  0.2017 -0.7756 -0.8356
  820MOL0     H10665   3.969   1.126   8.668 -1.8717 -0.1055 -0.7638
  820MOL0     H10666   3.995   1.259   8.941 -5.3828 -0.3547 -2.1264
  820MOL0     H10667   4.110   1.140   8.867 -0.7585  0.5234  1.8702
  820MOL0     H10668   4.179   1.309   8.703  0.1325  0.7434  0.6234
  820MOL0     H10669   4.066   1.423   8.770  3.2096  2.4297 -1.1377
  820MOL0     H10670   4.297   1.328   8.935  1.2459  0.1462 -0.6096
  820MOL0     H10671   4.170   1.442   8.978  2.8891  3.5030  0.8234
  820MOL0     H10672   4.252   1.598   8.794  0.2325  0.3254 -1.8767
  820MOL0     H10673   4.381   1.478   8.756  1.1750  0.2945  2.4118
  820MOL0     H10674   4.347   1.662   8.987  0.4366 -0.3120 -0.1261
  820MOL0     H10675   4.443   1.507   8.998  0.3544 -2.1644 -1.8983
  820MOL0     H10676   4.486   1.706   8.765  0.7095 -0.8549 -0.6858
  820MOL0     H10677   4.597   1.582   8.822 -0.0927 -0.9904  0.9045
  820MOL0     H10678   4.487   1.813   8.991 -0.1924  0.9157  0.2048
  820MOL0     H10679   4.614   1.701   9.042 -0.8830  1.3705  0.9159
  820MOL0     H10680   3.678   1.472   8.722  1.3422  3.6714 -4.9282
  820MOL0     H10681   3.477   1.466   8.596  5.1438  2.6947  0.2634
  820MOL0     H10682   3.020   1.229   8.732  2.4201 -0.9983 -0.3540
  820MOL0     H10683   2.797   1.210   8.648 -0.6411 -0.0831 -0.3554
  820MOL0     H10684   0.799   0.997   8.656  1.7633  3.3363 -0.5167
  820MOL0     H10685   0.579   0.897   8.590 -0.6363  1.9880 -0.7740
  820MOL0     H10686   0.340   0.484   8.393  1.9881  1.7496  0.4824
  820MOL0     H10687   0.131   0.408   8.322  1.7212 -0.1850  2.5084
  820MOL0     H10688  -0.102   0.612   7.979  1.3937  3.0710  0.1580
  820MOL0     H10689  -0.158   0.698   8.134 -2.3949 -1.1543  0.8636
  820MOL0     H10690  -0.308   0.503   8.170  1.3134 -1.8233  0.2812
  820MOL0     H10691  -0.240   0.429   8.027  0.2655  0.8997 -1.7781
  820MOL0     H10692  -0.330   0.657   7.902 -0.2828  1.0577 -0.6827
  820MOL0     H10693  -0.415   0.684   8.051 -1.2884 -0.1988 -1.0569
  820MOL0     H10694  -0.425   0.434   7.870  3.3181  2.1867  0.3321
  820MOL0     H10695  -0.530   0.458   8.006  0.1184 -0.9317 -0.3821
  820MOL0     H10696  -0.709   0.725   7.704  0.8289  0.7358  0.7405
  820MOL0     H10697   0.064   0.793   8.126  1.6258  2.4230  2.1136
  820MOL0     H10698   0.355   0.933   8.140 -3.3337 -2.1547 -2.4769
  820MOL0     H10699   0.183   0.959   8.167 -1.7725 -1.6973  0.1907
  820MOL0     H10700   0.312   0.959   8.307  0.6556 -1.3957  0.3424
  821MOL0     O10701   1.927   9.196   8.709 -0.7850  0.1714 -0.1798
  821MOL0     C10702   2.038   9.144   8.680  0.6784 -0.7436 -0.6162
  821MOL0     O10703   2.074   9.110   8.554  0.2009  0.5317 -0.3984
  821MOL0     C10704   1.980   9.106   8.458 -0.7502 -0.2296  0.0597
  821MOL0     C10705   1.938   9.221   8.389  0.1557  0.9689 -0.3732
  821MOL0     C10706   1.832   9.213   8.305  0.5367 -0.2581  0.7445
  821MOL0     C10707   1.776   9.086   8.273  0.4137 -1.0981  0.1828
  821MOL0     O10708   1.676   9.083   8.183  0.5458 -0.2303 -0.3727
  821MOL0     C10709   1.634   8.965   8.114  0.2661 -0.7037 -0.0674
  821MOL0     C10710   1.520   9.009   8.018 -1.0316  0.6674  0.4017
  821MOL0     C10711   1.389   9.045   8.086  0.4414  0.1882  0.4867
  821MOL0     C10712   1.327   9.174   8.012  0.2146 -0.2257  0.0931
  821MOL0     C10713   1.397   9.306   8.039  0.1440  0.2245  0.1046
  821MOL0     C10714   1.333   9.377   8.159 -0.0797  0.6579 -0.3286
  821MOL0     C10715   1.395   9.515   8.182 -0.1099 -0.0605  0.4934
  821MOL0     C10716   1.537   9.489   8.238  0.5515  0.1810 -0.1295
  821MOL0     N10717   1.614   9.609   8.259 -0.0467 -0.8744 -0.4609
  821MOL0     C10718   1.682   9.678   8.159  0.0838 -0.4317  0.1031
  821MOL0     C10719   1.721   9.790   8.217 -0.4203  0.0731  0.2054
  821MOL0     C10720   1.805   9.886   8.135 -1.2685 -0.1235  0.0434
  821MOL0     C10721   1.947   9.819   8.122 -0.1872 -0.3131  0.1944
  821MOL0     C10722   2.035   9.899   8.019 -1.0184 -0.1103 -0.6641
  821MOL0     C10723   2.156   9.805   7.976  0.1761 -0.2402  0.1452
  821MOL0     O10724   2.239   9.773   8.089  0.5309 -0.1776 -0.4831
  821MOL0     C10725   2.340   9.685   8.067 -0.0028 -0.2248  0.1328
  821MOL0     C10726   2.423   9.661   8.173  0.1940 -0.2700  0.3137
  821MOL0     C10727   2.530   9.572   8.160  1.0196  0.5394 -0.6522
  821MOL0     C10728   2.553   9.507   8.038 -1.9577  0.2006 -1.0379
  821MOL0     C10729   2.680   9.417   8.006 -0.2908 -0.7470  0.9782
  821MOL0     O10730   2.759   9.390   8.112 -0.5431 -0.2022 -0.4120
  821MOL0     C10731   2.884   9.337   8.077  0.5662  0.0058  0.0668
  821MOL0     C10732   2.975   9.409   7.997 -0.0366 -0.8260 -0.9124
  821MOL0     C10733   3.106   9.354   7.961  0.8118  0.4491  0.4888
  821MOL0     C10734   3.143   9.226   8.006 -0.3479 -0.7144 -0.2877
  821MOL0     O10735   3.260   9.162   7.973 -0.6463  0.0538 -0.2535
  821MOL0     C10736   3.373   9.253   7.932  0.0679 -0.1228  0.0546
  821MOL0     C10737   3.497   9.165   7.909 -0.3947 -0.0822  0.3653
  821MOL0     C10738   3.591   9.155   8.035  0.4919 -0.3324  0.2517
  821MOL0     C10739   3.526   9.067   8.138  0.5956  1.1765 -0.0768
  821MOL0     C10740   3.609   9.021   8.259  0.0069  0.6558  0.3979
  821MOL0     C10741   3.694   8.905   8.231 -1.1316  0.1255  0.2943
  821MOL0     C10742   3.765   8.860   8.358 -0.1928 -0.5983 -0.6851
  821MOL0     C10743   3.840   8.735   8.329 -0.5042 -0.4728  0.0660
  821MOL0    Cl10744   3.940   8.706   8.488  0.2322  0.0936  0.4322
  821MOL0     C10745   3.044   9.154   8.079 -0.3638 -0.0507  0.3602
  821MOL0     C10746   2.926   9.211   8.122  0.5778  0.0450 -0.2634
  821MOL0     O10747   2.690   9.369   7.896 -0.0595 -0.4503  0.2880
  821MOL0     C10748   2.466   9.528   7.934  0.6914 -0.0793 -0.2614
  821MOL0     C10749   2.356   9.610   7.953 -0.9561  0.6104  0.2898
  821MOL0     N10750   1.695   9.786   8.350  0.1227 -0.2143 -0.2140
  821MOL0     N10751   1.625   9.679   8.378 -0.4980 -0.3014  0.2720
  821MOL0     C10752   1.828   8.975   8.329 -0.8466  0.1499 -0.2905
  821MOL0     C10753   1.921   8.986   8.431 -0.1753 -1.0225  0.3768
  821MOL0     C10754   2.137   9.118   8.789  0.4795  0.0675  0.4958
  821MOL0     C10755   2.272   9.107   8.746 -0.8461  1.2694 -0.8020
  821MOL0     C10756   2.369   9.070   8.843  1.0025  0.0226  0.0888
  821MOL0     C10757   2.335   9.060   8.972 -0.0856  0.7380 -0.4623
  821MOL0     O10758   2.442   9.022   9.048  0.3599 -0.2608  0.7804
  821MOL0     C10759   2.420   8.934   9.163 -0.4106  0.5765  0.4452
  821MOL0     C10760   2.550   8.876   9.204 -1.2870  0.2324 -0.1401
  821MOL0     C10761   2.595   8.761   9.111  0.5661 -1.0795  0.4835
  821MOL0     C10762   2.702   8.670   9.169  0.2449  0.1784 -0.5132
  821MOL0     C10763   2.812   8.728   9.239 -0.0262  0.6387  0.3921
  821MOL0     C10764   2.913   8.767   9.292  0.2038 -0.4094 -0.1153
  821MOL0     C10765   2.211   9.083   9.012 -0.7485  0.3846  0.4182
  821MOL0     C10766   2.107   9.105   8.924 -0.1186  0.1119 -0.8314
  821MOL0     C10767   1.972   9.121   8.993  0.3182 -0.5085 -0.3829
  821MOL0     H10768   1.983   9.315   8.418  1.7262  0.1951 -0.2056
  821MOL0     H10769   1.783   9.296   8.254 -1.3313 -1.2579  0.8421
  821MOL0     H10770   1.716   8.921   8.056  0.3771 -0.8281  0.1817
  821MOL0     H10771   1.597   8.886   8.179  0.0954  0.2949  1.0991
  821MOL0     H10772   1.483   8.935   7.946 -1.7864  2.0050 -0.6303
  821MOL0     H10773   1.561   9.092   7.961  0.6120  0.0427  0.6344
  821MOL0     H10774   1.405   9.069   8.192  0.1537  0.5768  0.4437
  821MOL0     H10775   1.323   8.957   8.090  0.5837  0.0648  0.0954
  821MOL0     H10776   1.331   9.157   7.904  1.8334  1.0411 -0.0741
  821MOL0     H10777   1.219   9.175   8.029 -0.2064 -5.0467 -0.6485
  821MOL0     H10778   1.505   9.290   8.050 -0.2830 -2.0602  1.4329
  821MOL0     H10779   1.390   9.370   7.951  1.0864 -0.7140 -0.6789
  821MOL0     H10780   1.227   9.399   8.144 -0.3350 -1.2900 -1.8747
  821MOL0     H10781   1.343   9.323   8.254 -2.7802 -0.7337 -0.7170
  821MOL0     H10782   1.343   9.559   8.267  2.0346  0.1483  1.7688
  821MOL0     H10783   1.390   9.580   8.094  1.8247 -0.1157  0.2894
  821MOL0     H10784   1.526   9.436   8.333  3.1393 -0.5008 -0.1173
  821MOL0     H10785   1.597   9.434   8.165  0.8475  1.8838 -1.2202
  821MOL0     H10786   1.696   9.648   8.056  0.2391  0.6041 -0.1833
  821MOL0     H10787   1.763   9.888   8.034  0.9738 -2.9179 -1.0643
  821MOL0     H10788   1.821   9.986   8.178  1.7947 -1.0024  1.2204
  821MOL0     H10789   1.989   9.808   8.222 -1.8243  1.9546  1.2163
  821MOL0     H10790   1.931   9.717   8.084  0.1299  0.2578 -1.5444
  821MOL0     H10791   2.078   9.991   8.060  1.4712 -0.3614 -2.4526
  821MOL0     H10792   1.976   9.916   7.928  0.5460 -2.8985 -2.3596
  821MOL0     H10793   2.206   9.856   7.893 -1.2012  2.5239  0.9139
  821MOL0     H10794   2.114   9.710   7.941  0.4481 -0.0066 -0.8497
  821MOL0     H10795   2.413   9.719   8.265  0.0318  0.2637 -0.0332
  821MOL0     H10796   2.599   9.565   8.244 -1.6172  0.1183  1.6561
  821MOL0     H10797   2.944   9.502   7.952 -0.5392  0.3431  1.6553
  821MOL0     H10798   3.159   9.408   7.883  0.4107  1.6914  1.0406
  821MOL0     H10799   3.350   9.305   7.839  2.4011 -3.3186 -2.5368
  821MOL0     H10800   3.395   9.320   8.016  1.6845 -1.4688  0.7853
  821MOL0     H10801   3.459   9.068   7.874 -1.2850  0.4768 -0.2608
  821MOL0     H10802   3.563   9.202   7.829 -0.4674  0.8492  0.7235
  821MOL0     H10803   3.681   9.100   8.005  0.6780 -0.3362  0.8109
  821MOL0     H10804   3.616   9.253   8.076 -1.5309  0.3215  0.0643
  821MOL0     H10805   3.458   8.988   8.102  0.8799  2.0475 -2.7153
  821MOL0     H10806   3.459   9.136   8.190 -0.0089 -0.5401  1.5158
  821MOL0     H10807   3.533   9.003   8.336 -1.9932  1.8351 -1.2090
  821MOL0     H10808   3.670   9.103   8.299  2.0742 -0.7243  0.2631
  821MOL0     H10809   3.640   8.821   8.189 -0.5302 -1.2498  2.1143
  821MOL0     H10810   3.770   8.941   8.161  0.1550  0.0650  1.6073
  821MOL0     H10811   3.689   8.836   8.433  1.3218  1.8445  1.8166
  821MOL0     H10812   3.834   8.939   8.391  0.4877 -1.3967 -0.1687
  821MOL0     H10813   3.766   8.655   8.315 -0.4717 -0.4499 -0.2414
  821MOL0     H10814   3.914   8.736   8.248  0.1359  1.0325  0.6324
  821MOL0     H10815   3.057   9.048   8.097 -1.1302  0.0831  1.8362
  821MOL0     H10816   2.861   9.141   8.173  1.6428 -0.0324  1.0492
  821MOL0     H10817   2.476   9.489   7.834  2.6194  3.0424 -1.4157
  821MOL0     H10818   2.293   9.620   7.865  0.0620 -0.9355 -0.6652
  821MOL0     H10819   1.788   8.876   8.309 -0.1873 -0.0552 -0.5892
  821MOL0     H10820   1.965   8.905   8.488  0.1493 -1.6388 -0.7201
  821MOL0     H10821   2.308   9.126   8.645 -2.6905  1.0374 -1.5382
  821MOL0     H10822   2.467   9.039   8.809  1.5165  1.0789  0.5421
  821MOL0     H10823   2.351   8.853   9.137  0.1816 -0.3153  1.5317
  821MOL0     H10824   2.370   8.983   9.247 -1.3502  0.4560 -0.0344
  821MOL0     H10825   2.547   8.833   9.304  3.3107 -0.9514 -0.2614
  821MOL0     H10826   2.619   8.961   9.204 -1.7564  0.6138 -0.1555
  821MOL0     H10827   2.635   8.809   9.020  2.1047 -1.2772  1.0253
  821MOL0     H10828   2.502   8.710   9.084 -0.7801  1.1961  0.5441
  821MOL0     H10829   2.647   8.608   9.240  2.1990  1.6571  2.5309
  821MOL0     H10830   2.745   8.604   9.094 -1.1166  1.9049 -2.9476
  821MOL0     H10831   2.989   8.818   9.348 -3.4672  1.7965  3.3112
  821MOL0     H10832   2.185   9.077   9.117  0.9808 -1.9647  0.7993
  821MOL0     H10833   1.972   9.072   9.091 -0.3197  1.4180  0.6426
  821MOL0     H10834   1.951   9.226   9.016  0.2395 -0.4204 -0.8526
  821MOL0     H10835   1.882   9.086   8.942  0.1943  2.2008 -2.2575
  822MOL0     O10836   0.660   4.617  10.039 -0.2915 -0.1193  0.0589
  822MOL0     C10837   0.568   4.549  10.081 -0.4154  0.1652 -0.2722
  822MOL0     O10838   0.581   4.461  10.184  0.2722 -0.6153 -0.0557
  822MOL0     C10839   0.673   4.482  10.275  0.0409  0.3648  0.4247
  822MOL0     C10840   0.814   4.473  10.235  0.1171 -0.1980  0.1191
  822MOL0     C10841   0.915   4.492  10.335 -0.4692  0.7518 -0.1093
  822MOL0     C10842   0.882   4.495  10.474  0.4146  0.0542 -0.6804
  822MOL0     O10843   0.984   4.525  10.560 -0.1160  0.0766 -0.5614
  822MOL0     C10844   0.956   4.572  10.697 -0.2171  0.9166  0.1307
  822MOL0     C10845   1.091   4.589  10.771  0.5174  0.2512 -0.4398
  822MOL0     C10846   1.139   4.728  10.769  0.4064  1.0125  0.0616
  822MOL0     C10847   1.281   4.749  10.830 -0.5753  0.3935  0.6685
  822MOL0     C10848   1.331   4.893  10.836  0.7806  0.0609 -0.1285
  822MOL0     C10849   1.236   4.983  10.915  0.4260 -0.6181 -0.5747
  822MOL0     C10850   1.308   5.113  10.947  0.2831  0.4268  0.3430
  822MOL0     C10851   1.222   5.227  10.981 -0.0502 -1.0289 -0.1970
  822MOL0     N10852   1.296   5.345  11.027  0.4912 -0.5773 -0.2882
  822MOL0     C10853   1.358   5.417  10.931  0.9363 -0.4599 -0.7501
  822MOL0     C10854   1.392   5.523  10.994 -0.6742 -0.5711 -0.2445
  822MOL0     C10855   1.480   5.636  10.935 -0.5083  0.1086  0.4557
  822MOL0     C10856   1.617   5.567  10.907 -0.4528 -0.1524 -0.6907
  822MOL0     C10857   1.677   5.510  11.042 -0.1919  0.2692 -0.3193
  822MOL0     C10858   1.832   5.506  11.031 -0.6237 -0.3398  0.0059
  822MOL0     O10859   1.875   5.410  11.135 -0.2334 -0.3945  0.1613
  822MOL0     C10860   2.010   5.404  11.162 -0.4164  0.5404 -0.3491
  822MOL0     C10861   2.112   5.481  11.104  0.2499 -0.6489 -0.0005
  822MOL0     C10862   2.247   5.461  11.140 -0.4594  0.4236  0.5397
  822MOL0     C10863   2.279   5.357  11.228  0.5733  0.3281 -0.1728
  822MOL0     C10864   2.419   5.330  11.251  0.4111  0.0727 -0.1226
  822MOL0     O10865   2.511   5.394  11.178  0.3233  0.3322 -0.1791
  822MOL0     C10866   2.649   5.387  11.193  0.2027 -0.3090  0.3073
  822MOL0     C10867   2.732   5.404  11.077  0.0603 -0.9850 -0.1129
  822MOL0     C10868   2.872   5.393  11.088 -0.3389  0.3152  0.1353
  822MOL0     C10869   2.934   5.363  11.208 -0.1147  0.1628 -0.8730
  822MOL0     O10870   3.068   5.360  11.233 -0.2159 -0.8321  0.0505
  822MOL0     C10871   3.150   5.335  11.117  0.0813  0.2127  0.6609
  822MOL0     C10872   3.141   5.190  11.060 -0.1439  0.4918  0.0472
  822MOL0     C10873   3.201   5.080  11.151 -0.3208  0.0583  0.9142
  822MOL0     C10874   3.352   5.070  11.122  0.1181  0.6545 -0.1185
  822MOL0     C10875   3.408   4.962  11.208  0.5206  0.0897  0.3155
  822MOL0     C10876   3.558   4.929  11.180  0.0401  0.0676 -0.3861
  822MOL0     C10877   3.649   5.039  11.239  0.8757  0.4904  0.0811
  822MOL0     C10878   3.737   4.993  11.356 -0.2280 -0.2053 -0.3567
  822MOL0    Cl10879   3.839   5.125  11.415 -0.4310 -0.3689  0.2397
  822MOL0     C10880   2.846   5.351  11.318 -0.4387 -0.2887 -0.4194
  822MOL0     C10881   2.709   5.367  11.312  0.5830 -0.5754  0.6118
  822MOL0     O10882   2.446   5.252  11.340  0.2128  0.5797 -0.2790
  822MOL0     C10883   2.174   5.283  11.285  0.5029  0.0364  0.6311
  822MOL0     C10884   2.042   5.312  11.265 -0.2574 -0.8277 -0.0975
  822MOL0     N10885   1.356   5.518  11.131  0.8322  1.0079 -0.0680
  822MOL0     N10886   1.303   5.407  11.152  0.3148  0.7414  0.2914
  822MOL0     C10887   0.743   4.479  10.507  0.2733 -0.5541 -0.5417
  822MOL0     C10888   0.635   4.471  10.408 -0.2991 -0.9776 -0.1117
  822MOL0     C10889   0.429   4.542  10.017 -0.9894  0.2090  0.1932
  822MOL0     C10890   0.346   4.433  10.047  1.0347 -0.2616 -0.3382
  822MOL0     C10891   0.220   4.421   9.981  0.5382 -0.9577  0.1242
  822MOL0     C10892   0.180   4.506   9.884  0.1799 -0.5299 -0.1496
  822MOL0     O10893   0.069   4.499   9.803  0.0517  0.4174  0.8052
  822MOL0     C10894  -0.025   4.396   9.820  0.2205  0.0643  0.1232
  822MOL0     C10895  -0.151   4.421   9.737 -1.1239 -0.1841 -0.2525
  822MOL0     C10896  -0.202   4.567   9.726  0.0104 -0.3188 -0.2559
  822MOL0     C10897  -0.343   4.555   9.663  0.6666  0.1809 -0.1095
  822MOL0     C10898  -0.448   4.524   9.760 -0.2471 -0.8632 -0.5336
  822MOL0     C10899  -0.535   4.510   9.839 -0.3424  0.5964  1.1915
  822MOL0     C10900   0.265   4.617   9.864 -0.3279 -0.2549  0.9216
  822MOL0     C10901   0.388   4.635   9.926  0.7940 -0.3140 -0.3084
  822MOL0     C10902   0.465   4.766   9.890  0.4917  0.5590  0.4461
  822MOL0     H10903   0.838   4.457  10.130 -1.9561 -1.8691 -0.1724
  822MOL0     H10904   1.016   4.478  10.297 -0.8208 -2.2579 -0.2077
  822MOL0     H10905   0.884   4.655  10.701 -3.3295 -1.6318  1.0823
  822MOL0     H10906   0.915   4.486  10.751 -1.8828  0.5268 -1.6471
  822MOL0     H10907   1.161   4.512  10.736  0.7276  0.0186  0.4747
  822MOL0     H10908   1.072   4.574  10.877  0.5420 -0.3013 -0.5065
  822MOL0     H10909   1.058   4.792  10.804 -2.0833 -0.4526 -2.5561
  822MOL0     H10910   1.143   4.773  10.669  1.5725  0.2701 -0.2503
  822MOL0     H10911   1.286   4.699  10.927  2.2070 -0.7308  0.0331
  822MOL0     H10912   1.347   4.694  10.762 -1.7762  1.0288 -1.0600
  822MOL0     H10913   1.430   4.886  10.882  0.5854  0.4456  0.3632
  822MOL0     H10914   1.332   4.937  10.735 -1.1001  2.2072  0.7002
  822MOL0     H10915   1.147   5.009  10.856 -0.4856  1.1230  1.4123
  822MOL0     H10916   1.208   4.927  11.005 -1.4902 -1.9597 -1.9157
  822MOL0     H10917   1.376   5.131  10.863 -0.5855  0.2103 -0.4250
  822MOL0     H10918   1.374   5.086  11.030  3.3027  0.6354 -1.8380
  822MOL0     H10919   1.157   5.246  10.894 -3.4828 -1.1942  2.1149
  822MOL0     H10920   1.159   5.200  11.066 -3.3821 -2.1769 -2.7623
  822MOL0     H10921   1.361   5.391  10.826 -1.2735 -0.2720 -0.9055
  822MOL0     H10922   1.426   5.674  10.847 -0.9074  0.0686  0.6822
  822MOL0     H10923   1.502   5.720  11.002  2.2234 -0.3611  0.2459
  822MOL0     H10924   1.617   5.482  10.838 -0.0888  0.9293 -2.0554
  822MOL0     H10925   1.674   5.652  10.870 -2.2028  0.4545 -2.1297
  822MOL0     H10926   1.633   5.412  11.059 -1.5834  0.7482 -0.9902
  822MOL0     H10927   1.652   5.585  11.118  0.0437  2.0176 -1.8716
  822MOL0     H10928   1.864   5.609  11.044 -0.8566 -0.5731  3.1321
  822MOL0     H10929   1.867   5.475  10.932 -1.3390  0.1748 -0.4217
  822MOL0     H10930   2.086   5.561  11.035  4.0342  2.1408  1.5014
  822MOL0     H10931   2.333   5.506  11.092 -2.8359  2.6944 -1.9779
  822MOL0     H10932   2.681   5.422  10.983  1.0719  0.1428 -0.4689
  822MOL0     H10933   2.923   5.434  11.002 -2.0462  2.6742  0.1330
  822MOL0     H10934   3.119   5.398  11.033 -0.3679 -0.7532  0.0897
  822MOL0     H10935   3.251   5.366  11.146 -0.0667 -0.6919  2.2445
  822MOL0     H10936   3.034   5.169  11.055 -0.3960 -0.0187  4.0454
  822MOL0     H10937   3.176   5.172  10.958 -0.1280 -2.6146  0.4946
  822MOL0     H10938   3.190   5.116  11.254  0.7556 -0.0216  1.0676
  822MOL0     H10939   3.148   4.986  11.138  0.9468 -0.6864  0.9812
  822MOL0     H10940   3.408   5.162  11.145  0.1348  0.2012  1.7857
  822MOL0     H10941   3.373   5.045  11.018  1.4641 -2.0108  0.6964
  822MOL0     H10942   3.349   4.871  11.193 -0.1754  0.4725  0.6408
  822MOL0     H10943   3.386   4.998  11.310  0.7579 -2.8462  1.4918
  822MOL0     H10944   3.581   4.832  11.227  0.4792 -0.0233 -0.7893
  822MOL0     H10945   3.578   4.918  11.074  0.9483 -0.0882 -0.2058
  822MOL0     H10946   3.574   5.108  11.279  0.8723  1.3488 -1.3379
  822MOL0     H10947   3.717   5.076  11.161  0.3965 -1.0786 -1.1470
  822MOL0     H10948   3.675   4.950  11.435 -2.3771  1.7527 -0.8687
  822MOL0     H10949   3.799   4.914  11.313  0.7689  0.2966  0.1345
  822MOL0     H10950   2.901   5.324  11.408  0.7570  0.6302 -0.8406
  822MOL0     H10951   2.650   5.367  11.402 -2.0519  5.4397 -0.6172
  822MOL0     H10952   2.199   5.201  11.350 -1.7725 -0.6347  0.7701
  822MOL0     H10953   1.961   5.268  11.322 -0.6404 -0.0036  0.0113
  822MOL0     H10954   0.724   4.470  10.614  0.9504  1.3773 -0.2183
  822MOL0     H10955   0.533   4.443  10.430 -0.7979  0.4470 -0.5077
  822MOL0     H10956   0.366   4.361  10.126 -1.6385 -0.4040  0.2936
  822MOL0     H10957   0.156   4.342  10.018 -0.0543 -1.5669 -2.0769
  822MOL0     H10958  -0.052   4.394   9.926  0.7480 -0.8625  0.2559
  822MOL0     H10959   0.027   4.303   9.796 -1.1741 -0.7041 -0.0379
  822MOL0     H10960  -0.229   4.349   9.764 -0.4080 -0.2791  1.7117
  822MOL0     H10961  -0.122   4.392   9.635 -0.3530  1.0306 -0.3970
  822MOL0     H10962  -0.136   4.623   9.660  1.6449  1.0146  2.3456
  822MOL0     H10963  -0.213   4.604   9.828  0.3117 -0.3433 -0.2151
  822MOL0     H10964  -0.360   4.650   9.610  4.0064  0.1490 -1.4378
  822MOL0     H10965  -0.339   4.492   9.574  3.5924  2.6953 -1.9254
  822MOL0     H10966  -0.615   4.489   9.907 -0.7878 -2.6186 -0.1805
  822MOL0     H10967   0.235   4.693   9.792  0.9067  0.9910  1.6600
  822MOL0     H10968   0.506   4.812   9.980  3.4466 -1.9732  0.5589
  822MOL0     H10969   0.552   4.739   9.830  1.4196  0.6312  1.7200
  822MOL0     H10970   0.400   4.829   9.829 -0.0500 -1.8362 -1.6200
  823MOL0     O10971   1.517   9.293   9.956 -0.5534  0.3981  0.4883
  823MOL0     C10972   1.523   9.206   9.869  0.3790  0.5239 -0.3747
  823MOL0     O10973   1.626   9.182   9.781  0.8913 -0.0846 -0.2440
  823MOL0     C10974   1.743   9.252   9.798 -0.8598 -0.4181 -0.6946
  823MOL0     C10975   1.756   9.387   9.770 -0.2430  0.2345  0.6838
  823MOL0     C10976   1.879   9.457   9.778 -0.7325 -0.9116  0.0726
  823MOL0     C10977   1.997   9.396   9.827  0.3978  0.2452  0.8062
  823MOL0     O10978   2.121   9.455   9.820  0.1175  0.5745 -0.1351
  823MOL0     C10979   2.139   9.507   9.696  1.0318 -0.8562 -0.8559
  823MOL0     C10980   2.290   9.526   9.660  1.2116  0.6577 -0.4301
  823MOL0     C10981   2.308   9.576   9.524 -0.0344 -1.2061  0.4345
  823MOL0     C10982   2.463   9.575   9.510 -0.4806  0.5825  0.6971
  823MOL0     C10983   2.498   9.601   9.363 -0.2750  0.4850  0.3196
  823MOL0     C10984   2.653   9.599   9.354 -0.7046 -0.0295  0.2073
  823MOL0     C10985   2.700   9.611   9.204  0.0545  0.4729 -0.9040
  823MOL0     C10986   2.860   9.607   9.205  0.0685 -0.3731 -0.4822
  823MOL0     N10987   2.922   9.728   9.260 -0.3099 -0.0234 -0.7071
  823MOL0     C10988   2.893   9.854   9.204 -0.7603  0.4558 -0.9077
  823MOL0     C10989   2.971   9.936   9.265 -0.7586 -1.3378  0.6921
  823MOL0     C10990   2.992  10.083   9.229  0.2152 -0.2166 -0.7763
  823MOL0     C10991   2.895  10.174   9.306 -0.1241 -0.5407 -0.5976
  823MOL0     C10992   2.919  10.323   9.284  0.1218  0.5043  0.7281
  823MOL0     C10993   3.048  10.375   9.343 -0.1985 -0.4055  1.2423
  823MOL0     O10994   3.168  10.345   9.263 -0.4932 -0.4337 -0.6215
  823MOL0     C10995   3.294  10.378   9.312 -0.5285  0.0057 -0.1204
  823MOL0     C10996   3.311  10.439   9.439 -0.1690 -0.0326  1.3260
  823MOL0     C10997   3.442  10.469   9.482 -0.3925 -0.4545  0.2365
  823MOL0     C10998   3.563  10.438   9.404  0.0009  0.0312 -0.2288
  823MOL0     C10999   3.703  10.447   9.453 -0.3496 -0.2697 -0.5062
  823MOL0     O11000   3.802  10.391   9.370  0.1547 -0.6676  0.2693
  823MOL0     C11001   3.937  10.369   9.400  0.5801  0.5658 -0.5138
  823MOL0     C11002   4.025  10.371   9.293 -0.3172  0.4588 -0.1921
  823MOL0     C11003   4.162  10.347   9.312 -0.1209  1.0408 -0.0648
  823MOL0     C11004   4.209  10.292   9.431  0.2452  0.1534 -0.4969
  823MOL0     O11005   4.344  10.263   9.438 -0.2609  0.2383  0.6584
  823MOL0     C11006   4.406  10.240   9.567  0.1684 -0.1200 -0.4856
  823MOL0     C11007   4.552  10.219   9.533 -0.2296 -1.0300 -0.3662
  823MOL0     C11008   4.637  10.242   9.662  0.3952 -0.2390 -0.0086
  823MOL0     C11009   4.791  10.238   9.635 -0.3624 -0.2800  0.1396
  823MOL0     C11010   4.880  10.275   9.754  0.3182  0.2817  0.1205
  823MOL0     C11011   5.007  10.202   9.770 -0.4790  0.6024 -0.0047
  823MOL0     C11012   5.089  10.284   9.875 -0.0971  0.4541 -0.4374
  823MOL0     C11013   5.230  10.216   9.884  0.5112 -0.4638  0.4425
  823MOL0    Cl11014   5.307  10.222   9.718  0.1592  0.1812 -0.8310
  823MOL0     C11015   4.121  10.284   9.539 -0.4220 -0.3249 -0.3056
  823MOL0     C11016   3.982  10.332   9.524  0.1561  0.2930 -0.7671
  823MOL0     O11017   3.729  10.498   9.570 -0.2950 -0.0277 -0.2584
  823MOL0     C11018   3.535  10.393   9.276  0.2219  0.2239  0.2391
  823MOL0     C11019   3.410  10.361   9.231  0.2187  0.7370  0.4220
  823MOL0     N11020   3.036   9.873   9.373 -0.7023 -0.2234 -0.0137
  823MOL0     N11021   3.011   9.746   9.370  0.2186 -0.5640 -0.4289
  823MOL0     C11022   1.976   9.260   9.866  0.4266  0.6365  0.5920
  823MOL0     C11023   1.848   9.190   9.859  0.4945 -0.0682  0.1346
  823MOL0     C11024   1.412   9.122   9.868  0.9038 -0.2659  0.0985
  823MOL0     C11025   1.416   8.991   9.818 -0.1246 -0.0323 -1.1626
  823MOL0     C11026   1.308   8.903   9.799  0.5587 -0.5118 -0.2750
  823MOL0     C11027   1.180   8.944   9.827 -0.4518 -0.6243  0.5816
  823MOL0     O11028   1.070   8.862   9.804  0.0245 -0.7964  0.4060
  823MOL0     C11029   1.077   8.736   9.745  0.8383 -0.0814  0.1439
  823MOL0     C11030   1.129   8.723   9.598  0.5506 -0.2446  0.0199
  823MOL0     C11031   1.020   8.764   9.499 -0.3585  0.2426 -0.1309
  823MOL0     C11032   1.065   8.789   9.354 -0.2201 -0.1795  0.2123
  823MOL0     C11033   1.182   8.884   9.332 -0.8526  0.7450  0.1471
  823MOL0     C11034   1.281   8.953   9.317 -0.6551 -0.9841 -0.3957
  823MOL0     C11035   1.167   9.073   9.883 -0.0714 -0.3540  0.7036
  823MOL0     C11036   1.276   9.156   9.911 -0.4272 -0.2151  0.1150
  823MOL0     C11037   1.233   9.280   9.996 -0.0852  0.7536  0.3734
  823MOL0     H11038   1.669   9.428   9.719  0.0184 -2.3818 -2.1236
  823MOL0     H11039   1.882   9.560   9.745  0.0736 -0.4635  1.4659
  823MOL0     H11040   2.106   9.434   9.622  0.9018 -2.0909  0.3833
  823MOL0     H11041   2.084   9.601   9.681 -1.0270 -1.7340  0.7367
  823MOL0     H11042   2.334   9.426   9.666 -1.2416 -0.4849  0.1391
  823MOL0     H11043   2.342   9.600   9.721  1.0921  1.0755 -0.8367
  823MOL0     H11044   2.254   9.671   9.519 -0.7007 -1.3828  3.0772
  823MOL0     H11045   2.262   9.510   9.450 -1.0710  0.7372 -0.7520
  823MOL0     H11046   2.507   9.656   9.569 -2.0755  1.6125  0.5075
  823MOL0     H11047   2.504   9.481   9.548 -2.2965 -0.6621 -0.2852
  823MOL0     H11048   2.459   9.526   9.294  1.9648 -0.6473  0.1931
  823MOL0     H11049   2.471   9.697   9.317 -1.7786 -0.1130 -0.1083
  823MOL0     H11050   2.695   9.681   9.413 -0.0102  0.1256 -0.4813
  823MOL0     H11051   2.692   9.505   9.393  0.1366 -0.2461 -1.0919
  823MOL0     H11052   2.660   9.695   9.148 -1.1320  2.4884  2.6172
  823MOL0     H11053   2.672   9.522   9.148 -3.3848  0.5342  0.4544
  823MOL0     H11054   2.898   9.517   9.255  0.2554  1.1370  2.2328
  823MOL0     H11055   2.889   9.595   9.100  1.9043  1.0128 -0.1945
  823MOL0     H11056   2.830   9.877   9.118 -0.9780  2.5934 -0.2279
  823MOL0     H11057   3.094  10.113   9.254  0.3766 -0.8159 -0.6842
  823MOL0     H11058   2.967  10.093   9.123 -2.6025 -3.7478 -0.6226
  823MOL0     H11059   2.803  10.137   9.258 -0.1743 -1.6554  0.3287
  823MOL0     H11060   2.893  10.142   9.410 -1.7126 -0.8326 -0.6918
  823MOL0     H11061   2.841  10.380   9.335 -1.9127 -1.9900  0.5907
  823MOL0     H11062   2.909  10.345   9.177 -1.1519 -0.4353  0.6395
  823MOL0     H11063   3.060  10.340   9.446  2.4476  0.2956  1.2252
  823MOL0     H11064   3.041  10.484   9.345  2.1415 -0.2294  1.7858
  823MOL0     H11065   3.223  10.452   9.501 -1.3140  0.9548 -0.4416
  823MOL0     H11066   3.470  10.511   9.578 -0.5835 -1.0346  0.5517
  823MOL0     H11067   3.983  10.387   9.194  2.1652 -0.6041 -1.5141
  823MOL0     H11068   4.226  10.354   9.225  1.1574 -1.5130  0.5578
  823MOL0     H11069   4.388  10.333   9.622 -0.0598 -0.4867  0.0748
  823MOL0     H11070   4.376  10.146   9.615  2.1010 -1.2360 -1.3569
  823MOL0     H11071   4.573  10.121   9.488 -0.3330 -1.1037 -0.2551
  823MOL0     H11072   4.598  10.291   9.464  2.1290  1.0065  2.9976
  823MOL0     H11073   4.616  10.337   9.712 -2.3205 -0.9909  0.4324
  823MOL0     H11074   4.618  10.167   9.740  0.2164  0.7177  0.8912
  823MOL0     H11075   4.812  10.301   9.548 -2.7128 -1.1241 -1.1150
  823MOL0     H11076   4.805  10.134   9.605 -2.8947 -0.1913 -1.6990
  823MOL0     H11077   4.820  10.260   9.845  0.9600  0.6367  0.6098
  823MOL0     H11078   4.890  10.384   9.753  0.6500  0.3119  2.0341
  823MOL0     H11079   4.981  10.104   9.812 -0.3635  0.7623  0.4471
  823MOL0     H11080   5.056  10.181   9.675 -1.1920  0.5920 -0.3726
  823MOL0     H11081   5.039  10.291   9.972  0.6665  1.5941 -0.1013
  823MOL0     H11082   5.117  10.384   9.839 -3.1121  1.1854 -0.9914
  823MOL0     H11083   5.285  10.257   9.969  0.7254 -0.1111  0.1342
  823MOL0     H11084   5.206  10.111   9.905  0.9099 -1.0853 -1.9836
  823MOL0     H11085   4.149  10.245   9.636 -0.4962 -0.0318 -0.1644
  823MOL0     H11086   3.912  10.321   9.606 -2.0813 -0.1008 -2.6455
  823MOL0     H11087   3.620  10.373   9.211 -0.5104 -0.8618 -0.4144
  823MOL0     H11088   3.398  10.329   9.129  0.9714 -2.8254  1.3227
  823MOL0     H11089   2.057   9.201   9.908  2.7308  2.6093 -0.8350
  823MOL0     H11090   1.838   9.088   9.894 -0.4713 -0.5120 -1.3391
  823MOL0     H11091   1.511   8.939   9.807  1.0387  1.4296  1.3383
  823MOL0     H11092   1.332   8.799   9.784  0.9257 -0.4065 -0.4220
  823MOL0     H11093   0.971   8.707   9.744  0.6331  0.6630 -0.5172
  823MOL0     H11094   1.136   8.673   9.812 -0.3842 -1.8152 -0.3358
  823MOL0     H11095   1.148   8.617   9.585 -0.4361 -0.5925  1.2451
  823MOL0     H11096   1.220   8.780   9.576 -0.5701  0.8176 -2.3040
  823MOL0     H11097   0.961   8.848   9.537 -1.5043 -0.8092  0.4674
  823MOL0     H11098   0.963   8.670   9.497  2.0176 -1.3670  1.9616
  823MOL0     H11099   1.099   8.690   9.321 -0.8771 -1.2680  2.5880
  823MOL0     H11100   0.979   8.835   9.305  1.8832  4.1229  0.1210
  823MOL0     H11101   1.367   9.012   9.292 -0.1793 -0.9285  1.2331
  823MOL0     H11102   1.067   9.110   9.904  0.4093  0.4419  1.6014
  823MOL0     H11103   1.304   9.283  10.080 -0.0503 -3.0116  0.6405
  823MOL0     H11104   1.237   9.372   9.936  0.2538 -0.4937 -1.6052
  823MOL0     H11105   1.133   9.268  10.037 -0.4861  0.0094 -0.7817
  824MOL0     O11106   3.010   7.440   0.631  0.1622  0.1158 -0.2511
  824MOL0     C11107   2.906   7.405   0.585  0.5742 -0.5967 -0.8368
  824MOL0     O11108   2.894   7.328   0.474 -0.3041 -0.7409 -0.6863
  824MOL0     C11109   3.014   7.291   0.409 -0.0734  0.6447  0.5347
  824MOL0     C11110   3.040   7.339   0.278  0.6421 -0.4541  0.7707
  824MOL0     C11111   3.158   7.316   0.205 -0.2434 -0.4880 -0.7024
  824MOL0     C11112   3.256   7.237   0.258  0.3149 -0.1725 -0.3849
  824MOL0     O11113   3.371   7.208   0.178 -0.6941  0.3078 -0.3764
  824MOL0     C11114   3.439   7.084   0.190  0.1561 -0.9151  0.0000
  824MOL0     C11115   3.500   7.060   0.047 -0.7245  0.4480 -0.0034
  824MOL0     C11116   3.639   7.130   0.043  0.5912 -0.0951  0.3809
  824MOL0     C11117   3.693   7.130  -0.096 -0.5505  0.1546 -0.2494
  824MOL0     C11118   3.836   7.198  -0.101  0.6410 -0.4876 -0.4674
  824MOL0     C11119   3.883   7.173  -0.236  0.3645 -0.4353  0.2956
  824MOL0     C11120   4.022   7.234  -0.254  0.4978  0.6339  0.7720
  824MOL0     C11121   4.135   7.166  -0.179  1.3609  0.5695 -0.1781
  824MOL0     N11122   4.271   7.192  -0.234 -0.0831  0.0844 -0.0035
  824MOL0     C11123   4.343   7.312  -0.219 -0.2161 -0.5410 -0.5119
  824MOL0     C11124   4.463   7.290  -0.281  0.0726  0.3464  0.5209
  824MOL0     C11125   4.578   7.374  -0.309 -0.2943 -0.7685  0.8973
  824MOL0     C11126   4.680   7.374  -0.203 -0.4633  0.1159 -0.5183
  824MOL0     C11127   4.754   7.239  -0.200 -0.2387 -0.5122 -0.9991
  824MOL0     C11128   4.865   7.232  -0.094 -0.5317  0.3123  0.1114
  824MOL0     O11129   4.803   7.239   0.034 -0.9605  0.3388  0.6329
  824MOL0     C11130   4.880   7.194   0.143  0.7420 -0.3514  0.0851
  824MOL0     C11131   4.827   7.195   0.273  0.8108  0.3809  0.1666
  824MOL0     C11132   4.901   7.150   0.384 -0.0243  0.3041 -0.8012
  824MOL0     C11133   5.034   7.110   0.365 -0.0451 -0.6801 -0.2928
  824MOL0     C11134   5.121   7.098   0.482  0.1434  0.2274 -0.1856
  824MOL0     O11135   5.248   7.058   0.454 -1.0947 -0.6750  0.0995
  824MOL0     C11136   5.345   7.032   0.551  0.2714  0.4539  0.2384
  824MOL0     C11137   5.477   7.078   0.531  0.2107  0.3091  0.3565
  824MOL0     C11138   5.580   7.060   0.628  0.0610 -0.5338  1.9614
  824MOL0     C11139   5.550   6.995   0.742 -1.1970 -0.4742 -0.4633
  824MOL0     O11140   5.647   6.985   0.842  0.6844  0.6813 -0.4734
  824MOL0     C11141   5.783   6.984   0.800 -0.3289 -0.4787  0.2435
  824MOL0     C11142   5.867   6.958   0.920  0.6386 -0.0332  0.3111
  824MOL0     C11143   6.016   6.954   0.882 -0.0024  0.5501  0.1801
  824MOL0     C11144   6.110   6.913   0.995 -0.8140  0.1551  0.9262
  824MOL0     C11145   6.141   7.033   1.088 -0.2994 -0.0530 -0.7402
  824MOL0     C11146   6.259   6.983   1.181  0.0060 -0.2067 -0.3609
  824MOL0     C11147   6.293   7.100   1.275 -0.4156 -0.1366 -0.6517
  824MOL0     C11148   6.363   7.050   1.403 -0.3201 -0.0234  0.7243
  824MOL0    Cl11149   6.250   6.954   1.500 -0.1576 -0.0685 -0.1150
  824MOL0     C11150   5.423   6.939   0.765  0.7414 -1.1311 -0.5382
  824MOL0     C11151   5.322   6.956   0.671 -0.2718  0.8981 -0.4101
  824MOL0     O11152   5.071   7.106   0.591  0.3052 -0.0209 -1.1102
  824MOL0     C11153   5.088   7.111   0.241 -0.1045  0.2374 -0.0598
  824MOL0     C11154   5.017   7.153   0.127 -0.0382  0.6570 -0.8586
  824MOL0     N11155   4.457   7.167  -0.347 -0.5659 -0.2568  0.3840
  824MOL0     N11156   4.341   7.109  -0.315 -0.5893  0.6558 -0.2139
  824MOL0     C11157   3.233   7.185   0.394  0.2696  0.1518  0.8886
  824MOL0     C11158   3.115   7.207   0.464  0.2815  0.2323  0.2207
  824MOL0     C11159   2.780   7.453   0.647 -0.0479 -0.5175  0.4241
  824MOL0     C11160   2.653   7.423   0.581 -0.1291 -1.3535  0.0825
  824MOL0     C11161   2.533   7.458   0.653 -0.4647  0.2447  0.6116
  824MOL0     C11162   2.535   7.539   0.772 -0.4950  0.7899  0.4986
  824MOL0     O11163   2.413   7.563   0.824 -0.3003 -0.9279  0.5233
  824MOL0     C11164   2.405   7.660   0.931  0.1385 -0.0384  0.7366
  824MOL0     C11165   2.255   7.697   0.944 -0.2527 -0.5732 -0.5990
  824MOL0     C11166   2.237   7.778   1.079 -0.2593 -0.4814 -0.0807
  824MOL0     C11167   2.291   7.923   1.059 -0.1203  0.0683 -0.3423
  824MOL0     C11168   2.310   7.977   1.185 -0.2980 -0.1147 -0.2480
  824MOL0     C11169   2.314   8.038   1.292  0.4761  0.7161  0.6229
  824MOL0     C11170   2.661   7.568   0.825 -0.6124 -1.1217 -0.3466
  824MOL0     C11171   2.781   7.531   0.769  0.2782  0.4423  0.0635
  824MOL0     C11172   2.903   7.568   0.856 -0.1327 -0.0207 -0.2729
  824MOL0     H11173   2.963   7.406   0.241 -2.1529 -1.7481  3.7817
  824MOL0     H11174   3.176   7.358   0.107  1.4345  0.7080  0.0677
  824MOL0     H11175   3.523   7.097   0.259  0.0446  2.3316 -0.3245
  824MOL0     H11176   3.370   7.004   0.221 -0.2456 -0.3537  0.5804
  824MOL0     H11177   3.425   7.094  -0.025 -0.6272 -1.0329 -0.8444
  824MOL0     H11178   3.521   6.953   0.040 -2.9911  0.0754 -2.3131
  824MOL0     H11179   3.703   7.087   0.120  1.0989 -0.0660 -0.0202
  824MOL0     H11180   3.626   7.238   0.058  0.7945  0.2108 -1.3962
  824MOL0     H11181   3.699   7.024  -0.124  2.7923 -0.1587  1.1194
  824MOL0     H11182   3.621   7.176  -0.164  1.4528  0.4035 -2.3506
  824MOL0     H11183   3.830   7.308  -0.097 -1.3115 -0.5706 -0.3949
  824MOL0     H11184   3.910   7.164  -0.028  2.4513  1.2452 -1.3803
  824MOL0     H11185   3.877   7.066  -0.258 -0.1241  0.0061 -1.9983
  824MOL0     H11186   3.812   7.225  -0.301  0.9754 -0.0173 -0.0475
  824MOL0     H11187   4.011   7.340  -0.230 -0.4395  1.1640 -1.6969
  824MOL0     H11188   4.039   7.235  -0.362 -0.5184 -2.0774  0.5133
  824MOL0     H11189   4.135   7.185  -0.071  1.5732 -0.6740  0.0473
  824MOL0     H11190   4.120   7.059  -0.195 -1.1671  0.9772 -1.0871
  824MOL0     H11191   4.313   7.399  -0.162  1.7213  0.7091 -1.2963
  824MOL0     H11192   4.624   7.357  -0.407 -2.8162  0.8045 -0.6600
  824MOL0     H11193   4.542   7.477  -0.311  1.3439 -0.1715 -0.1138
  824MOL0     H11194   4.753   7.454  -0.217  0.9739 -0.6010  2.1484
  824MOL0     H11195   4.638   7.397  -0.105 -2.5011 -2.3582 -0.7179
  824MOL0     H11196   4.800   7.227  -0.299 -0.4411 -0.2825 -1.1242
  824MOL0     H11197   4.680   7.160  -0.184 -0.3484 -0.2601 -0.2370
  824MOL0     H11198   4.931   7.316  -0.114 -1.0544  0.2824 -2.0058
  824MOL0     H11199   4.924   7.142  -0.112  0.6786  1.0969  0.0376
  824MOL0     H11200   4.723   7.224   0.285  0.5824  0.4832 -1.7651
  824MOL0     H11201   4.865   7.153   0.486  0.3775 -0.1016 -0.6433
  824MOL0     H11202   5.497   7.142   0.445 -1.4975  2.7490  1.6284
  824MOL0     H11203   5.673   7.112   0.608 -0.8697  0.9124  1.1903
  824MOL0     H11204   5.803   6.912   0.720 -0.5638  0.9012 -1.0783
  824MOL0     H11205   5.812   7.083   0.765  1.4680 -1.5634 -1.6123
  824MOL0     H11206   5.843   7.030   0.998 -1.2270  0.5593 -0.7466
  824MOL0     H11207   5.833   6.860   0.953 -1.9752  0.5337 -0.4679
  824MOL0     H11208   6.021   6.878   0.804 -1.8936 -0.5142  1.0294
  824MOL0     H11209   6.051   7.051   0.846 -3.1043  1.6912 -0.0253
  824MOL0     H11210   6.207   6.885   0.952 -1.7221  1.1482 -1.9914
  824MOL0     H11211   6.066   6.826   1.046 -1.2476  0.1797  0.5991
  824MOL0     H11212   6.052   7.056   1.148 -0.5801 -3.3165  0.3026
  824MOL0     H11213   6.170   7.129   1.044  1.5464  0.1565  0.7889
  824MOL0     H11214   6.220   6.899   1.240 -0.3726  1.1021  1.3309
  824MOL0     H11215   6.346   6.960   1.119 -0.2759 -3.3483  0.2097
  824MOL0     H11216   6.203   7.153   1.307  0.0643 -0.2289  0.9264
  824MOL0     H11217   6.358   7.163   1.214 -1.8929  1.1369 -0.9725
  824MOL0     H11218   6.450   6.987   1.383 -1.0635 -1.0232  0.5909
  824MOL0     H11219   6.379   7.140   1.462 -0.2407  0.8538 -0.5776
  824MOL0     H11220   5.401   6.867   0.843 -0.0686 -0.8664 -0.5103
  824MOL0     H11221   5.227   6.907   0.690  0.5436 -0.1511  1.2608
  824MOL0     H11222   5.191   7.083   0.221  0.1647  0.3838  1.1014
  824MOL0     H11223   5.069   7.133   0.033 -1.4184 -1.2386 -1.2953
  824MOL0     H11224   3.295   7.103   0.430  0.0310  0.0208  1.0034
  824MOL0     H11225   3.099   7.149   0.554  0.7230 -1.4444 -0.7442
  824MOL0     H11226   2.641   7.370   0.487 -4.1440 -0.8803  0.1470
  824MOL0     H11227   2.442   7.435   0.599  0.1258  1.6761 -1.0915
  824MOL0     H11228   2.469   7.741   0.895  1.0515 -2.1046 -2.8574
  824MOL0     H11229   2.446   7.619   1.023 -0.9298  0.1009  1.2919
  824MOL0     H11230   2.200   7.603   0.942 -1.3341 -0.0530  1.4721
  824MOL0     H11231   2.220   7.762   0.864 -1.9772 -0.7479 -0.0360
  824MOL0     H11232   2.288   7.721   1.158  0.6598 -0.4984 -0.6700
  824MOL0     H11233   2.129   7.778   1.096 -0.1390  1.6736  0.9436
  824MOL0     H11234   2.392   7.926   1.018  1.1047  0.5805  2.4964
  824MOL0     H11235   2.221   7.979   0.996 -0.9776 -2.7218 -2.0784
  824MOL0     H11236   2.314   8.096   1.382 -2.6600 -0.1168  1.2663
  824MOL0     H11237   2.664   7.636   0.909 -2.2633 -2.2146  0.6738
  824MOL0     H11238   2.931   7.670   0.831  0.2766 -0.0141  0.1832
  824MOL0     H11239   2.877   7.574   0.963  4.1271 -1.7179  1.0834
  824MOL0     H11240   2.983   7.493   0.861 -1.7278 -1.8644 -0.9005
  825MOL0     O11241   1.442   3.637  10.813  0.6183  0.2713 -0.1659
  825MOL0     C11242   1.420   3.535  10.749  0.5314 -1.2571  0.4261
  825MOL0     O11243   1.497   3.423  10.736  0.0815  0.2854 -0.4273
  825MOL0     C11244   1.618   3.423  10.801  0.2884 -1.0469  0.9578
  825MOL0     C11245   1.726   3.471  10.729 -0.2303  0.5120 -0.7038
  825MOL0     C11246   1.850   3.481  10.794  0.3142 -0.2690  0.6035
  825MOL0     C11247   1.872   3.444  10.924 -0.0981 -0.8075 -0.0432
  825MOL0     O11248   2.000   3.433  10.977 -0.5559 -0.0688  0.5804
  825MOL0     C11249   2.092   3.542  10.947 -0.3679 -0.1682  0.0378
  825MOL0     C11250   2.203   3.555  11.051 -0.1303  0.3220  0.1400
  825MOL0     C11251   2.271   3.694  11.052  0.2216  0.7933 -0.7439
  825MOL0     C11252   2.271   3.773  10.918 -0.0183 -0.3275  0.2423
  825MOL0     C11253   2.368   3.895  10.928  0.5527  0.3902 -0.5842
  825MOL0     C11254   2.328   4.006  11.027  0.4773  0.6332 -0.4409
  825MOL0     C11255   2.381   4.149  10.985 -0.7952  0.2098 -0.1457
  825MOL0     C11256   2.349   4.209  10.844  0.4225 -0.2771 -0.7590
  825MOL0     N11257   2.212   4.252  10.859  0.1786 -0.3851 -0.1550
  825MOL0     C11258   2.094   4.176  10.853 -0.4119 -0.5995 -0.2405
  825MOL0     C11259   1.994   4.260  10.882  0.1831 -0.2431 -0.6782
  825MOL0     C11260   1.847   4.229  10.908 -0.3117 -0.5236  0.4109
  825MOL0     C11261   1.768   4.280  10.781 -0.0252 -0.1632 -0.2664
  825MOL0     C11262   1.619   4.320  10.803  0.7594  0.1730  0.1116
  825MOL0     C11263   1.585   4.453  10.864  0.1601 -0.3584 -0.0865
  825MOL0     O11264   1.600   4.443  11.007  0.5372 -0.1631 -0.4649
  825MOL0     C11265   1.697   4.520  11.075  0.8640  0.0648  0.1197
  825MOL0     C11266   1.682   4.524  11.215  0.2174 -0.5963  1.0027
  825MOL0     C11267   1.779   4.588  11.292 -0.2272  0.0613 -0.4296
  825MOL0     C11268   1.896   4.644  11.236 -1.2644  0.1542  0.7285
  825MOL0     C11269   1.993   4.713  11.324 -0.8770 -0.1922 -1.0613
  825MOL0     O11270   2.079   4.787  11.258  0.0255 -0.0354  0.2753
  825MOL0     C11271   2.209   4.812  11.311  0.1276  0.8393  0.6763
  825MOL0     C11272   2.276   4.714  11.380 -0.2801 -1.2480 -0.1387
  825MOL0     C11273   2.410   4.727  11.412 -1.3201  0.1861  0.0339
  825MOL0     C11274   2.479   4.842  11.374  0.2488 -0.7798  0.0551
  825MOL0     O11275   2.613   4.846  11.403  1.1388  0.0144 -0.7922
  825MOL0     C11276   2.690   4.953  11.354 -0.5003 -0.5794 -0.0378
  825MOL0     C11277   2.834   4.948  11.410 -0.2720  0.0975 -0.3559
  825MOL0     C11278   2.834   4.957  11.569  0.4297 -0.0182 -0.2744
  825MOL0     C11279   2.978   4.961  11.620 -0.2423  0.2189 -0.0185
  825MOL0     C11280   3.041   5.102  11.641  1.2919  0.3578 -0.2522
  825MOL0     C11281   3.115   5.154  11.512  0.2626  0.3959 -0.9687
  825MOL0     C11282   3.172   5.290  11.541 -0.2937  0.2372 -0.9077
  825MOL0     C11283   3.303   5.274  11.619  0.5415  0.0671  0.1530
  825MOL0    Cl11284   3.421   5.163  11.539 -0.1981  0.4212  0.2761
  825MOL0     C11285   2.411   4.944  11.312  0.4255  0.1121  0.2178
  825MOL0     C11286   2.278   4.925  11.276 -0.1709 -0.6712 -0.4246
  825MOL0     O11287   1.973   4.725  11.445 -0.5156 -0.1926  0.5817
  825MOL0     C11288   1.911   4.635  11.093  0.5689 -0.2708  0.1954
  825MOL0     C11289   1.810   4.576  11.014 -0.5556 -0.2526  0.5472
  825MOL0     N11290   2.054   4.382  10.901  0.0212  0.0048 -0.7438
  825MOL0     N11291   2.182   4.375  10.893  0.4569 -0.7313  0.1431
  825MOL0     C11292   1.760   3.405  10.996 -0.3974 -0.2584 -0.2551
  825MOL0     C11293   1.630   3.398  10.937  0.5331  0.1200 -0.4456
  825MOL0     C11294   1.302   3.551  10.659 -0.3709 -0.2627 -0.1182
  825MOL0     C11295   1.312   3.621  10.533 -0.8983 -0.1731 -0.1021
  825MOL0     C11296   1.198   3.683  10.476 -0.7570 -0.2474 -0.4062
  825MOL0     C11297   1.075   3.639  10.520  0.4534  0.4676 -0.2836
  825MOL0     O11298   0.957   3.669  10.455  0.0801 -0.3757 -0.4789
  825MOL0     C11299   0.954   3.677  10.313 -0.2722 -1.0127 -0.2186
  825MOL0     C11300   0.891   3.560  10.245  0.0145 -0.0507  0.4098
  825MOL0     C11301   0.758   3.511  10.318 -0.6369 -0.3576  0.4779
  825MOL0     C11302   0.649   3.625  10.325 -0.0142  0.7019 -0.6447
  825MOL0     C11303   0.606   3.673  10.193  0.0437 -0.6687 -0.3085
  825MOL0     C11304   0.571   3.723  10.087  0.4654 -0.0362 -1.4030
  825MOL0     C11305   1.057   3.568  10.637 -0.1036  0.8786 -0.0709
  825MOL0     C11306   1.171   3.527  10.702  0.1907  0.0149  0.4846
  825MOL0     C11307   1.152   3.465  10.840  0.3654  0.1109  0.3040
  825MOL0     H11308   1.718   3.505  10.627  0.4411  2.2872 -0.1991
  825MOL0     H11309   1.932   3.514  10.731 -1.4629  0.4989 -1.4197
  825MOL0     H11310   2.133   3.539  10.846 -0.8828  2.2779 -0.3048
  825MOL0     H11311   2.034   3.634  10.960 -1.2191 -0.8165  0.9725
  825MOL0     H11312   2.277   3.481  11.020  0.0547  0.8698 -0.7869
  825MOL0     H11313   2.157   3.527  11.146 -3.3274  0.6996 -1.1755
  825MOL0     H11314   2.366   3.683  11.105 -0.9113  0.6305  1.3876
  825MOL0     H11315   2.219   3.753  11.127  1.0553 -2.2259  2.5024
  825MOL0     H11316   2.303   3.704  10.840  0.6803  0.4671 -0.1940
  825MOL0     H11317   2.172   3.816  10.899 -1.8437 -2.5876  3.5416
  825MOL0     H11318   2.468   3.857  10.952 -0.5364 -3.1028 -1.0099
  825MOL0     H11319   2.375   3.931  10.825 -0.3028 -1.5866 -1.3927
  825MOL0     H11320   2.220   4.013  11.041  0.3225  3.3273 -2.0835
  825MOL0     H11321   2.363   3.974  11.125 -1.2458 -0.7051 -0.2190
  825MOL0     H11322   2.491   4.144  10.989 -0.8862 -2.5828  0.7686
  825MOL0     H11323   2.358   4.218  11.067  1.7212  2.9165 -1.5265
  825MOL0     H11324   2.421   4.290  10.836  0.3551  0.2029  2.4714
  825MOL0     H11325   2.355   4.138  10.761  0.8922  1.7612 -2.5506
  825MOL0     H11326   2.089   4.069  10.834  0.8500 -0.4323 -1.6951
  825MOL0     H11327   1.834   4.122  10.924  2.7546 -1.5851 -2.7399
  825MOL0     H11328   1.808   4.288  10.992  2.4547  1.5745  0.3664
  825MOL0     H11329   1.824   4.364  10.739  0.0432 -0.3790 -0.6156
  825MOL0     H11330   1.762   4.201  10.704 -2.2365 -2.2727  1.8775
  825MOL0     H11331   1.567   4.244  10.862 -1.1206  0.9118 -0.4980
  825MOL0     H11332   1.566   4.322  10.707 -0.6650 -0.4451  0.8545
  825MOL0     H11333   1.483   4.478  10.837  0.5205  0.3193 -0.8558
  825MOL0     H11334   1.645   4.534  10.822  1.0699 -1.4393 -0.9641
  825MOL0     H11335   1.603   4.467  11.262  0.3107 -1.8280 -0.2556
  825MOL0     H11336   1.763   4.584  11.399 -4.1409 -0.6687 -0.8960
  825MOL0     H11337   2.232   4.622  11.418 -0.9371 -0.0730  2.1119
  825MOL0     H11338   2.460   4.652  11.474 -3.4387  0.9224  2.8381
  825MOL0     H11339   2.691   4.952  11.245  3.1987 -0.9445 -0.1190
  825MOL0     H11340   2.641   5.045  11.389 -1.5527 -1.0428 -0.2686
  825MOL0     H11341   2.895   4.862  11.381  0.4794  0.9488 -1.3758
  825MOL0     H11342   2.879   5.040  11.372 -1.6164  1.4096  1.0840
  825MOL0     H11343   2.777   5.045  11.601 -0.5568 -0.0409 -1.8619
  825MOL0     H11344   2.785   4.869  11.612  1.2566 -0.3238  0.0645
  825MOL0     H11345   3.047   4.891  11.572  0.6425 -1.5104  3.3926
  825MOL0     H11346   2.967   4.927  11.724 -0.4166 -1.1589 -0.4692
  825MOL0     H11347   3.113   5.105  11.723  0.3539  0.2391  0.5929
  825MOL0     H11348   2.955   5.164  11.666  0.9530 -0.9833  2.1984
  825MOL0     H11349   3.189   5.083  11.476  1.7910  1.1706  0.5077
  825MOL0     H11350   3.044   5.174  11.431 -1.9257 -1.1228  0.4207
  825MOL0     H11351   3.100   5.352  11.595  0.6400  1.7803 -1.3382
  825MOL0     H11352   3.196   5.337  11.445 -0.2549 -0.6994 -1.3579
  825MOL0     H11353   3.333   5.377  11.636  2.1601 -0.0692 -1.5504
  825MOL0     H11354   3.284   5.234  11.719  1.6250  1.1776  0.8255
  825MOL0     H11355   2.443   5.038  11.269  0.7839  0.1403  0.5421
  825MOL0     H11356   2.223   5.002  11.222 -5.7905 -2.4785  2.0340
  825MOL0     H11357   1.997   4.679  11.043  0.1085  1.1340  0.5957
  825MOL0     H11358   1.834   4.572  10.908  0.1078 -3.1132  0.7223
  825MOL0     H11359   1.783   3.390  11.101 -1.5149 -0.7079 -0.0498
  825MOL0     H11360   1.542   3.376  10.997  2.7948 -2.1391  2.3354
  825MOL0     H11361   1.415   3.646  10.506 -0.5956 -1.0811  0.1720
  825MOL0     H11362   1.206   3.760  10.400  0.1541  2.3188  2.1231
  825MOL0     H11363   1.052   3.703  10.272  0.0418 -1.6530  0.1166
  825MOL0     H11364   0.898   3.769  10.292  1.2039 -0.5963 -2.7192
  825MOL0     H11365   0.957   3.473  10.248 -2.1894 -1.7847  2.0412
  825MOL0     H11366   0.867   3.585  10.141 -2.1746 -1.1807  0.5756
  825MOL0     H11367   0.782   3.488  10.422 -1.7326  0.4606  0.9308
  825MOL0     H11368   0.718   3.430  10.256  2.4507  0.3075 -2.7034
  825MOL0     H11369   0.571   3.576  10.386  1.2907 -2.1071 -1.0894
  825MOL0     H11370   0.690   3.701  10.392  0.7419  1.0366 -1.4739
  825MOL0     H11371   0.530   3.775  10.002 -1.0948  0.2084 -0.5504
  825MOL0     H11372   0.960   3.535  10.672 -0.0704  0.0293 -0.7393
  825MOL0     H11373   1.206   3.369  10.840  0.6523  0.2538 -0.8075
  825MOL0     H11374   1.202   3.523  10.918 -0.0580  1.6140 -0.5063
  825MOL0     H11375   1.049   3.439  10.864  0.7583 -2.4885 -0.4202
  826MOL0     O11376  10.431   7.593   0.214  0.8079 -0.4243  0.2240
  826MOL0     C11377  10.464   7.478   0.223 -0.5582 -0.5035 -0.2534
  826MOL0     O11378  10.592   7.435   0.209  0.0934 -0.2873  0.0149
  826MOL0     C11379  10.686   7.523   0.190 -0.2024  0.1346  0.0371
  826MOL0     C11380  10.736   7.618   0.285  1.2666  1.3645  1.1739
  826MOL0     C11381  10.834   7.707   0.251  0.1003 -1.5375 -0.0652
  826MOL0     C11382  10.884   7.709   0.123  0.2091  0.8519 -0.1926
  826MOL0     O11383  10.980   7.800   0.083  0.0400 -0.7170 -0.0087
  826MOL0     C11384  11.071   7.843   0.184  0.2544 -1.0551  0.2762
  826MOL0     C11385  11.197   7.887   0.100  0.1905 -0.1200  0.0358
  826MOL0     C11386  11.299   7.959   0.189 -1.0349 -0.0382 -0.0284
  826MOL0     C11387  11.384   8.053   0.099  0.5544 -0.1138 -0.0830
  826MOL0     C11388  11.486   8.126   0.179 -1.3787  0.0694 -0.1252
  826MOL0     C11389  11.584   8.207   0.083  0.0891  0.3477  0.3288
  826MOL0     C11390  11.693   8.272   0.174 -0.4506  0.1153  0.6360
  826MOL0     C11391  11.803   8.337   0.098  0.4909  0.8681 -0.3167
  826MOL0     N11392  11.889   8.423   0.176  0.1342 -1.2538  0.0963
  826MOL0     C11393  11.944   8.388   0.297  0.1956  0.1171  0.7923
  826MOL0     C11394  11.995   8.506   0.341  0.1548  0.2551  0.0352
  826MOL0     C11395  12.073   8.528   0.461 -0.1779 -0.5417  0.1760
  826MOL0     C11396  12.219   8.573   0.438  0.4225 -0.7591  0.2967
  826MOL0     C11397  12.299   8.567   0.565 -0.8348 -0.0588  0.7268
  826MOL0     C11398  12.450   8.548   0.542  0.1879 -0.4037  0.0064
  826MOL0     O11399  12.525   8.544   0.664 -0.1371  0.3937  0.1893
  826MOL0     C11400  12.659   8.514   0.679 -0.6212  0.1475 -0.4265
  826MOL0     C11401  12.719   8.478   0.802 -0.3546 -0.1788 -0.5008
  826MOL0     C11402  12.853   8.455   0.802 -0.5675  0.1178 -0.1026
  826MOL0     C11403  12.937   8.460   0.687 -0.6062 -0.1270 -0.0534
  826MOL0     C11404  13.083   8.439   0.696 -0.3152  0.7687  1.0032
  826MOL0     O11405  13.130   8.420   0.826  0.4768 -0.7042  0.3171
  826MOL0     C11406  13.261   8.412   0.862 -0.3648  0.2271  0.4414
  826MOL0     C11407  13.289   8.353   0.983  0.3851 -0.1716 -0.4009
  826MOL0     C11408  13.423   8.315   1.018 -0.0941  0.2096  0.0587
  826MOL0     C11409  13.531   8.333   0.932 -0.0263  0.4502 -0.0190
  826MOL0     O11410  13.663   8.299   0.978 -0.3751  0.5972  0.3709
  826MOL0     C11411  13.787   8.322   0.897  0.1456 -0.3839 -0.1438
  826MOL0     C11412  13.920   8.314   0.987  0.1220 -0.0344  0.1898
  826MOL0     C11413  14.047   8.382   0.931 -0.2518  0.3033  0.4096
  826MOL0     C11414  14.169   8.352   1.020 -0.0181  0.2470  0.2057
  826MOL0     C11415  14.288   8.426   0.958 -0.3200 -0.1636 -0.2572
  826MOL0     C11416  14.426   8.392   1.012  0.1975  0.7816 -0.0213
  826MOL0     C11417  14.520   8.492   0.953 -0.9573  0.2421  0.0869
  826MOL0     C11418  14.671   8.471   0.997  0.0636 -0.3211 -0.3390
  826MOL0    Cl11419  14.779   8.585   0.915  0.1809 -0.0933 -0.1000
  826MOL0     C11420  13.506   8.397   0.805  0.1053 -0.5486  0.6898
  826MOL0     C11421  13.376   8.431   0.769 -0.9673 -0.0440 -0.9585
  826MOL0     O11422  13.151   8.445   0.595 -0.7424 -0.3826  0.3133
  826MOL0     C11423  12.874   8.484   0.565 -1.0294  1.0078 -0.3386
  826MOL0     C11424  12.739   8.507   0.567 -1.1565  0.6277 -0.3255
  826MOL0     N11425  11.981   8.604   0.247  0.0801 -0.1652  0.0962
  826MOL0     N11426  11.902   8.561   0.155 -0.2196 -0.7373  0.5769
  826MOL0     C11427  10.839   7.619   0.027 -0.3772  0.0057  0.1525
  826MOL0     C11428  10.742   7.523   0.061 -0.4631  0.2216  0.3397
  826MOL0     C11429  10.369   7.376   0.270  1.0367  0.3741 -0.9715
  826MOL0     C11430  10.426   7.255   0.318  0.0115  0.4179  0.0532
  826MOL0     C11431  10.343   7.146   0.356 -0.2080 -0.6909  0.3644
  826MOL0     C11432  10.205   7.159   0.368  0.1471 -0.2579 -1.4244
  826MOL0     O11433  10.117   7.056   0.392  0.0714  0.5889 -0.7133
  826MOL0     C11434  10.161   6.935   0.450  0.1706 -0.8174 -0.0323
  826MOL0     C11435  10.041   6.850   0.493  0.2826 -0.9072  0.1810
  826MOL0     C11436   9.984   6.908   0.620  0.4317  0.6918  0.2755
  826MOL0     C11437   9.845   6.838   0.667 -0.8637  0.1456 -0.1964
  826MOL0     C11438   9.741   6.860   0.564 -0.7129  0.6325  0.1061
  826MOL0     C11439   9.666   6.880   0.476  0.6981 -0.0602 -0.2180
  826MOL0     C11440  10.157   7.279   0.322 -0.6998 -0.1541 -0.9879
  826MOL0     C11441  10.227   7.392   0.273  0.6737 -0.6969  0.5996
  826MOL0     C11442  10.159   7.510   0.213 -0.0624 -0.7218  0.7032
  826MOL0     H11443  10.691   7.616   0.383  1.3492 -2.1788  1.2871
  826MOL0     H11444  10.878   7.786   0.311 -0.7634 -0.5354 -0.7220
  826MOL0     H11445  11.036   7.932   0.238  0.8834  0.4642 -1.6780
  826MOL0     H11446  11.114   7.768   0.250  2.6365 -0.1591 -0.1397
  826MOL0     H11447  11.146   7.958   0.034  0.5158  1.1017  1.0476
  826MOL0     H11448  11.244   7.803   0.048  0.4698 -0.1810  0.3814
  826MOL0     H11449  11.369   7.885   0.231 -1.1284 -0.1266 -0.0264
  826MOL0     H11450  11.250   8.002   0.276 -1.2259 -0.4341  0.0618
  826MOL0     H11451  11.437   8.013   0.013  1.5163  3.4458 -1.3439
  826MOL0     H11452  11.310   8.125   0.061 -0.2618 -1.4423 -1.0778
  826MOL0     H11453  11.445   8.189   0.259  2.3922  2.5364  0.1157
  826MOL0     H11454  11.557   8.061   0.232  2.0795  2.9810 -0.7981
  826MOL0     H11455  11.629   8.141   0.008 -2.3128  0.3192 -1.1855
  826MOL0     H11456  11.529   8.278   0.020  0.3024 -1.6012 -2.2267
  826MOL0     H11457  11.735   8.192   0.236  1.6977 -0.9621 -2.0229
  826MOL0     H11458  11.647   8.346   0.241 -1.0779  0.4446 -0.1474
  826MOL0     H11459  11.869   8.256   0.068  0.0205  0.5515 -0.5026
  826MOL0     H11460  11.757   8.398   0.019  0.4732  1.9076  0.4783
  826MOL0     H11461  11.935   8.293   0.348 -0.0849 -0.4475 -0.2766
  826MOL0     H11462  12.021   8.606   0.518 -0.6693 -0.2685 -0.6198
  826MOL0     H11463  12.066   8.432   0.512 -1.7850 -0.0383  0.9772
  826MOL0     H11464  12.255   8.503   0.362  3.4277  0.6103  0.3202
  826MOL0     H11465  12.222   8.675   0.399  3.8266  0.9476  4.2640
  826MOL0     H11466  12.269   8.477   0.619 -1.0458 -2.2406 -2.6896
  826MOL0     H11467  12.264   8.647   0.631 -3.2274  3.5151 -4.1533
  826MOL0     H11468  12.490   8.630   0.483 -1.6048  0.7921  0.3797
  826MOL0     H11469  12.462   8.457   0.481  1.0968 -0.9317  0.9515
  826MOL0     H11470  12.669   8.491   0.897 -0.4362 -1.4963 -0.3422
  826MOL0     H11471  12.896   8.445   0.901  0.9140  0.1690 -0.7083
  826MOL0     H11472  13.205   8.331   1.047 -1.3712  0.6356 -2.3266
  826MOL0     H11473  13.440   8.267   1.114  2.0484  1.7195  0.5312
  826MOL0     H11474  13.787   8.240   0.825  0.2531 -0.7270  0.2462
  826MOL0     H11475  13.785   8.401   0.821 -0.8696  1.7347  1.9676
  826MOL0     H11476  13.889   8.353   1.084  3.4152 -0.7209  1.6514
  826MOL0     H11477  13.942   8.207   1.001  1.5724  0.2727  0.4010
  826MOL0     H11478  14.054   8.348   0.828 -2.8961  0.5504  0.0740
  826MOL0     H11479  14.035   8.490   0.921 -2.1884  0.0086 -0.9984
  826MOL0     H11480  14.186   8.244   1.027 -1.9919 -0.2108 -1.1409
  826MOL0     H11481  14.153   8.395   1.120  0.0300 -0.6277  0.5936
  826MOL0     H11482  14.262   8.532   0.967 -4.3705 -1.0981  0.9102
  826MOL0     H11483  14.297   8.399   0.853 -0.6188 -0.8690 -0.1048
  826MOL0     H11484  14.431   8.411   1.120  0.7310  0.0801  0.0849
  826MOL0     H11485  14.456   8.289   0.992 -0.8270  0.4161  0.2941
  826MOL0     H11486  14.497   8.593   0.988 -1.8597 -0.7228  2.4717
  826MOL0     H11487  14.516   8.486   0.844  2.2939 -0.9093 -0.0864
  826MOL0     H11488  14.684   8.480   1.105 -0.2171 -2.8868 -0.0191
  826MOL0     H11489  14.698   8.368   0.971  0.2397  0.0918 -1.8460
  826MOL0     H11490  13.584   8.401   0.729  0.8883 -2.1658  1.3453
  826MOL0     H11491  13.363   8.476   0.671 -1.3996 -1.1139 -1.4089
  826MOL0     H11492  12.922   8.477   0.468 -1.0162  1.4550 -0.3665
  826MOL0     H11493  12.693   8.517   0.469  1.2839 -1.6972 -1.8318
  826MOL0     H11494  10.893   7.638  -0.065  0.0783 -1.8471  0.0012
  826MOL0     H11495  10.712   7.462  -0.025  0.0318  0.2395  0.1550
  826MOL0     H11496  10.532   7.231   0.316  0.0381  0.1199  2.3764
  826MOL0     H11497  10.393   7.051   0.372 -1.5567 -1.5360 -0.2878
  826MOL0     H11498  10.214   6.959   0.543  0.2189  1.3738 -0.5759
  826MOL0     H11499  10.230   6.891   0.378  1.0094  0.6198 -0.1415
  826MOL0     H11500  10.063   6.744   0.510  2.9490 -0.4057  0.1869
  826MOL0     H11501   9.972   6.868   0.410  2.8993 -3.4952 -2.8115
  826MOL0     H11502   9.967   7.016   0.611 -0.0819  0.6676  0.8738
  826MOL0     H11503  10.060   6.892   0.696  1.4772  0.0816 -0.8713
  826MOL0     H11504   9.857   6.731   0.684 -2.6351 -0.0141  0.2024
  826MOL0     H11505   9.819   6.882   0.763 -1.3155 -2.6584  1.0374
  826MOL0     H11506   9.588   6.900   0.406 -1.0177 -1.4941  1.1865
  826MOL0     H11507  10.050   7.286   0.343 -0.4651 -0.1603  0.3312
  826MOL0     H11508  10.166   7.598   0.278  1.3161  0.2304 -0.6666
  826MOL0     H11509  10.206   7.530   0.116 -1.2306 -0.7400  0.1158
  826MOL0     H11510  10.055   7.484   0.193  0.4774 -2.0089 -0.6340
  827MOL0     O11511   3.702   6.809   7.230 -0.0292  0.2209 -0.5390
  827MOL0     C11512   3.720   6.690   7.205  0.4750 -0.3644 -0.7140
  827MOL0     O11513   3.837   6.609   7.213  0.2252 -0.2071  0.0739
  827MOL0     C11514   3.965   6.667   7.238 -0.4960  0.3941 -0.1558
  827MOL0     C11515   3.999   6.798   7.231  0.7020 -0.9739  0.5520
  827MOL0     C11516   4.133   6.827   7.264 -0.8634  0.1035  0.4058
  827MOL0     C11517   4.225   6.724   7.304 -0.7132  0.1870 -0.5717
  827MOL0     O11518   4.345   6.779   7.339  0.6175 -0.1568 -0.1829
  827MOL0     C11519   4.443   6.705   7.412  0.3949 -0.0320  0.1710
  827MOL0     C11520   4.556   6.799   7.446 -0.6999 -0.6130 -0.5602
  827MOL0     C11521   4.687   6.739   7.497 -0.6385 -0.2894  0.8601
  827MOL0     C11522   4.686   6.632   7.607  0.4183 -0.5428 -0.3763
  827MOL0     C11523   4.828   6.582   7.643  0.2711  0.0185  0.4005
  827MOL0     C11524   4.831   6.470   7.743  0.1806 -0.1022  0.3609
  827MOL0     C11525   4.790   6.338   7.680 -0.4321 -0.0031  0.6947
  827MOL0     C11526   4.776   6.226   7.775 -0.0633  0.2854 -0.5875
  827MOL0     N11527   4.786   6.092   7.706  0.3683  0.3163  0.0338
  827MOL0     C11528   4.895   6.003   7.719  1.0050 -0.3258 -0.1080
  827MOL0     C11529   4.851   5.893   7.654 -0.2972 -0.0516 -0.3780
  827MOL0     C11530   4.930   5.763   7.634 -0.2649 -0.1036  0.0266
  827MOL0     C11531   5.037   5.728   7.737 -0.3253  0.4647 -0.4205
  827MOL0     C11532   4.995   5.756   7.881  0.3156 -0.2524  0.2756
  827MOL0     C11533   5.108   5.709   7.981 -0.1218 -0.1261 -0.2283
  827MOL0     O11534   5.070   5.722   8.118 -0.1573  0.0264  0.0548
  827MOL0     C11535   5.160   5.773   8.207 -0.3030 -0.1318  0.2223
  827MOL0     C11536   5.290   5.834   8.180  0.3923 -0.3969 -0.3666
  827MOL0     C11537   5.371   5.872   8.281 -0.1404  0.0468  0.4187
  827MOL0     C11538   5.337   5.861   8.416 -0.7063  0.4441  0.2055
  827MOL0     C11539   5.431   5.887   8.521 -0.4433  0.4254  0.1249
  827MOL0     O11540   5.394   5.849   8.649  0.2627  0.5169 -0.1546
  827MOL0     C11541   5.479   5.898   8.752 -0.2540 -0.2498  0.1898
  827MOL0     C11542   5.613   5.869   8.774 -0.1951 -0.2952  0.2177
  827MOL0     C11543   5.687   5.940   8.870  0.3097  0.6242 -0.6803
  827MOL0     C11544   5.626   6.042   8.947 -0.2860  0.3904  0.7678
  827MOL0     O11545   5.708   6.099   9.044 -0.3015  0.0520 -0.4376
  827MOL0     C11546   5.646   6.173   9.157  0.0537 -0.3757  0.7046
  827MOL0     C11547   5.747   6.210   9.263 -0.1597 -0.3417  0.2514
  827MOL0     C11548   5.830   6.330   9.213 -0.4016 -0.3969  0.4473
  827MOL0     C11549   5.935   6.356   9.324  0.4144 -0.3503  0.5503
  827MOL0     C11550   6.031   6.482   9.310 -0.4517 -0.3430 -0.0181
  827MOL0     C11551   6.128   6.498   9.435 -0.5321  0.0548  0.1348
  827MOL0     C11552   6.195   6.631   9.441 -0.2015 -0.5063 -0.2990
  827MOL0     C11553   6.303   6.648   9.339  0.1809 -0.4235 -0.5060
  827MOL0    Cl11554   6.363   6.817   9.358  0.1488 -0.4846 -0.2881
  827MOL0     C11555   5.495   6.066   8.931 -0.0974  0.8136  0.4717
  827MOL0     C11556   5.416   5.984   8.842 -0.1670 -0.6759 -0.0969
  827MOL0     O11557   5.535   5.946   8.493  0.8130 -0.1808  0.0437
  827MOL0     C11558   5.206   5.806   8.446  0.5985 -0.2566  0.0405
  827MOL0     C11559   5.125   5.761   8.343 -0.3514  0.1544 -0.0534
  827MOL0     N11560   4.728   5.905   7.608 -0.4858 -0.4263  0.0799
  827MOL0     N11561   4.687   6.029   7.639 -0.1968  0.6896  0.7760
  827MOL0     C11562   4.190   6.594   7.314  0.4081  0.0985  0.1119
  827MOL0     C11563   4.059   6.567   7.272 -0.9495 -0.7910 -0.6323
  827MOL0     C11564   3.596   6.617   7.159  0.3645 -0.6613 -1.3740
  827MOL0     C11565   3.576   6.487   7.193  0.6017 -0.1640  0.5873
  827MOL0     C11566   3.451   6.420   7.183 -0.1557  0.2348  0.2084
  827MOL0     C11567   3.342   6.489   7.127  0.4401  0.3522 -0.7691
  827MOL0     O11568   3.228   6.409   7.109 -0.5995  0.3706  0.3969
  827MOL0     C11569   3.103   6.450   7.159 -0.2183  0.0497 -0.2884
  827MOL0     C11570   3.001   6.352   7.098 -0.2842 -0.3139 -0.2081
  827MOL0     C11571   3.003   6.212   7.155  0.2573 -0.3900  0.2824
  827MOL0     C11572   2.943   6.114   7.063  0.1563 -0.3176 -0.4521
  827MOL0     C11573   2.799   6.135   7.060 -0.2088 -0.0298 -0.1731
  827MOL0     C11574   2.677   6.151   7.046  0.1708  0.2057 -0.4382
  827MOL0     C11575   3.363   6.629   7.093 -0.4123  0.0807  0.5197
  827MOL0     C11576   3.490   6.694   7.102  0.4126  0.0264  1.0855
  827MOL0     C11577   3.489   6.846   7.052  0.1144  0.1219  0.8165
  827MOL0     H11578   3.936   6.878   7.195  0.9569 -0.5894  0.9466
  827MOL0     H11579   4.171   6.929   7.264  1.6468 -0.7360  1.8782
  827MOL0     H11580   4.407   6.647   7.498  1.6958  0.3001  0.9870
  827MOL0     H11581   4.480   6.634   7.338  1.1277 -1.2025  1.6170
  827MOL0     H11582   4.522   6.864   7.528  1.1189 -1.3581  0.8569
  827MOL0     H11583   4.577   6.868   7.364  1.1306  1.7603  1.7418
  827MOL0     H11584   4.757   6.817   7.530  0.3214 -0.7082 -0.1361
  827MOL0     H11585   4.732   6.699   7.406  1.2401  1.3178  1.0136
  827MOL0     H11586   4.643   6.682   7.694  1.6285  0.4483 -0.3176
  827MOL0     H11587   4.625   6.554   7.559  0.0965  0.2082 -1.2129
  827MOL0     H11588   4.888   6.554   7.555 -1.8185 -1.4846 -0.6191
  827MOL0     H11589   4.878   6.666   7.692 -2.6096  1.6662  0.7230
  827MOL0     H11590   4.934   6.460   7.780 -0.0539 -0.8678  0.8302
  827MOL0     H11591   4.770   6.494   7.831  0.6054 -3.1986  1.6479
  827MOL0     H11592   4.862   6.317   7.600 -1.1590  0.8838 -0.2239
  827MOL0     H11593   4.691   6.358   7.639 -1.2834  0.5440  2.8911
  827MOL0     H11594   4.860   6.231   7.846  0.9516  2.7806 -1.8657
  827MOL0     H11595   4.684   6.238   7.832  1.0337  0.5734  1.2121
  827MOL0     H11596   4.992   6.034   7.757 -0.1077  2.4008  0.7747
  827MOL0     H11597   4.857   5.683   7.641 -0.3941 -0.0130 -0.2878
  827MOL0     H11598   4.977   5.773   7.536 -1.2768 -1.0216 -0.5701
  827MOL0     H11599   5.047   5.619   7.729  0.0848  0.3117  1.6749
  827MOL0     H11600   5.132   5.781   7.728  0.5667 -0.9827  0.0370
  827MOL0     H11601   4.903   5.706   7.913 -0.2293  2.3350  3.3417
  827MOL0     H11602   4.971   5.859   7.908 -0.5469 -0.7097  1.3402
  827MOL0     H11603   5.194   5.774   7.963 -0.0294 -0.6099 -1.7089
  827MOL0     H11604   5.148   5.607   7.971  1.0772  0.2080  0.8441
  827MOL0     H11605   5.337   5.840   8.082  0.9949 -1.8856 -0.2025
  827MOL0     H11606   5.464   5.924   8.257 -1.9456  3.5306  0.3847
  827MOL0     H11607   5.659   5.799   8.705 -0.5161  0.3558 -0.6779
  827MOL0     H11608   5.791   5.917   8.890  0.3461  2.4527  1.6523
  827MOL0     H11609   5.604   6.261   9.108 -0.8944 -0.6666  0.9706
  827MOL0     H11610   5.566   6.115   9.203  1.6515 -1.1286  2.7326
  827MOL0     H11611   5.684   6.239   9.347 -0.5419 -2.9011  0.9484
  827MOL0     H11612   5.821   6.134   9.291  2.1805  1.3221 -1.1348
  827MOL0     H11613   5.881   6.296   9.123 -1.8096  0.9874 -0.9533
  827MOL0     H11614   5.778   6.422   9.184  4.1247  2.1600 -0.4927
  827MOL0     H11615   5.991   6.265   9.348  1.7862 -0.1505 -1.6659
  827MOL0     H11616   5.877   6.379   9.414  0.8715  1.3003  0.4466
  827MOL0     H11617   5.970   6.572   9.325 -0.7053 -0.5846  0.4427
  827MOL0     H11618   6.082   6.481   9.213 -1.5696 -0.1569 -0.6250
  827MOL0     H11619   6.070   6.477   9.526 -0.3018 -0.1489  0.2350
  827MOL0     H11620   6.205   6.421   9.435 -0.1339  0.4309  1.2149
  827MOL0     H11621   6.246   6.630   9.537  2.1371 -1.0209 -1.4624
  827MOL0     H11622   6.124   6.713   9.428  0.3507 -0.1741 -1.4070
  827MOL0     H11623   6.387   6.577   9.342  0.9297  0.4594  0.3821
  827MOL0     H11624   6.247   6.641   9.246 -1.1346  0.9292  0.1499
  827MOL0     H11625   5.444   6.142   8.990 -0.3403  1.7941 -0.9540
  827MOL0     H11626   5.312   6.018   8.841  0.2664  1.5859  4.5069
  827MOL0     H11627   5.169   5.792   8.547  0.8668  2.4884  0.5708
  827MOL0     H11628   5.028   5.715   8.360 -0.4804  0.2049 -0.6402
  827MOL0     H11629   4.254   6.511   7.339 -1.9975 -1.1546  2.5603
  827MOL0     H11630   4.019   6.469   7.296 -0.4671 -1.0313 -0.8047
  827MOL0     H11631   3.664   6.432   7.224 -0.9970 -3.8115 -0.8688
  827MOL0     H11632   3.447   6.313   7.202  3.4040 -0.6153 -2.5509
  827MOL0     H11633   3.084   6.554   7.131  2.3818  1.6366  3.1238
  827MOL0     H11634   3.111   6.460   7.268  0.6395  1.8816 -0.4782
  827MOL0     H11635   3.023   6.354   6.990 -2.1960  0.3496 -0.6068
  827MOL0     H11636   2.902   6.397   7.105  0.8321  2.0101  2.9793
  827MOL0     H11637   2.952   6.224   7.251  0.5649 -2.8437  0.8283
  827MOL0     H11638   3.105   6.177   7.176  0.3381  0.1786  0.8441
  827MOL0     H11639   2.993   6.119   6.966  0.1267  0.8848 -0.4205
  827MOL0     H11640   2.964   6.016   7.107  0.7919  0.2629  0.5839
  827MOL0     H11641   2.574   6.171   7.022 -0.6532 -1.8726  1.0664
  827MOL0     H11642   3.282   6.690   7.053 -1.1652 -0.4654  1.1825
  827MOL0     H11643   3.457   6.912   7.133  0.3546 -0.4580  1.3896
  827MOL0     H11644   3.590   6.870   7.018 -0.8690  0.6921 -1.9437
  827MOL0     H11645   3.422   6.868   6.969  0.2887 -1.1806  0.3124
  828MOL0     O11646   8.997   7.726  10.397  0.1224  0.2152  0.1497
  828MOL0     C11647   8.932   7.791  10.477  0.1746 -0.5614 -0.2807
  828MOL0     O11648   8.991   7.863  10.574 -0.4226 -1.0869 -0.6932
  828MOL0     C11649   9.131   7.852  10.587 -0.3428  0.1281 -1.1623
  828MOL0     C11650   9.200   7.740  10.638 -1.0519  0.2504 -0.0076
  828MOL0     C11651   9.340   7.748  10.651  0.8435  0.5367  0.2625
  828MOL0     C11652   9.413   7.861  10.623  0.7722 -0.4111  0.8677
  828MOL0     O11653   9.551   7.851  10.648  0.4088 -0.4921 -0.3405
  828MOL0     C11654   9.639   7.962  10.613 -0.2949 -0.5125  0.0693
  828MOL0     C11655   9.773   7.934  10.680 -0.2449 -0.2559 -0.2914
  828MOL0     C11656   9.766   7.937  10.834  0.3244 -0.1994 -0.9297
  828MOL0     C11657   9.902   7.957  10.895  0.0167  0.5844 -0.5761
  828MOL0     C11658   9.910   7.955  11.045  0.8669 -0.1696 -0.4280
  828MOL0     C11659   9.877   7.812  11.101  0.0210 -0.3576 -0.1176
  828MOL0     C11660   9.893   7.815  11.253 -0.3318  0.3790 -0.3045
  828MOL0     C11661   9.849   7.677  11.320 -1.1388  0.9524  0.1234
  828MOL0     N11662   9.717   7.620  11.280 -0.1880 -0.6342 -0.2936
  828MOL0     C11663   9.598   7.682  11.298 -0.1542  0.1571 -0.4774
  828MOL0     C11664   9.510   7.597  11.237 -0.7937  0.2183 -0.9702
  828MOL0     C11665   9.369   7.618  11.235  0.5758 -0.3852  0.3856
  828MOL0     C11666   9.323   7.646  11.085 -0.1394  0.4284  0.2857
  828MOL0     C11667   9.166   7.671  11.072  0.7152  0.1267 -0.5623
  828MOL0     C11668   9.079   7.704  11.204 -0.1964 -0.2375  0.2953
  828MOL0     O11669   9.036   7.581  11.274  0.7892 -0.6843  0.0159
  828MOL0     C11670   8.937   7.593  11.363  0.0611 -0.6165 -0.4377
  828MOL0     C11671   8.886   7.476  11.393  0.0958 -0.3233 -0.0087
  828MOL0     C11672   8.780   7.463  11.482 -0.0288 -0.6977 -0.9824
  828MOL0     C11673   8.732   7.585  11.540 -0.0201 -0.4560  0.2848
  828MOL0     C11674   8.612   7.579  11.620  0.1786  0.2017 -0.6568
  828MOL0     O11675   8.559   7.452  11.615 -0.5197  0.7015 -0.1296
  828MOL0     C11676   8.463   7.408  11.702  0.6065  0.4521 -0.0309
  828MOL0     C11677   8.332   7.368  11.651  0.1814 -0.9977  0.0838
  828MOL0     C11678   8.239   7.306  11.743 -0.0597 -0.7060  0.5368
  828MOL0     C11679   8.262   7.297  11.879 -0.0458  0.8847 -0.5094
  828MOL0     O11680   8.173   7.234  11.966 -0.1087  0.0804  0.6285
  828MOL0     C11681   8.038   7.269  11.956  0.5303 -0.0214  0.5439
  828MOL0     C11682   7.977   7.213  12.086  0.0270 -0.3922  0.5072
  828MOL0     C11683   7.827   7.230  12.085  0.6276 -0.1781  0.7695
  828MOL0     C11684   7.768   7.151  12.204 -0.8582 -0.2858 -0.2039
  828MOL0     C11685   7.618   7.139  12.199  0.3352 -0.5430  0.1882
  828MOL0     C11686   7.565   7.048  12.313 -0.2981 -0.1869  0.0749
  828MOL0     C11687   7.418   7.054  12.322 -0.1799 -0.5220  0.1158
  828MOL0     C11688   7.361   6.966  12.431  0.5635 -0.5939 -0.3119
  828MOL0    Cl11689   7.358   6.798  12.357  0.3447  0.1312 -0.0864
  828MOL0     C11690   8.386   7.340  11.929 -0.1606 -0.0136 -0.0934
  828MOL0     C11691   8.488   7.396  11.846  0.3494 -0.6342  0.5375
  828MOL0     O11692   8.562   7.677  11.674  0.1273  0.1880  0.9794
  828MOL0     C11693   8.786   7.708  11.510 -0.2092 -0.5141  0.4783
  828MOL0     C11694   8.891   7.711  11.420  0.0799  0.4108 -0.2322
  828MOL0     N11695   9.578   7.487  11.195  0.1296 -0.0505  0.6762
  828MOL0     N11696   9.704   7.494  11.231  0.4980 -0.0811  0.3811
  828MOL0     C11697   9.345   7.977  10.571  0.4332  0.7453  0.5329
  828MOL0     C11698   9.205   7.967  10.556 -0.0301  0.3285 -0.1922
  828MOL0     C11699   8.783   7.791  10.483  0.1623  0.1565 -0.1417
  828MOL0     C11700   8.720   7.889  10.576  0.3030  0.7425 -0.0974
  828MOL0     C11701   8.584   7.890  10.591  0.9889 -0.5631  0.0589
  828MOL0     C11702   8.498   7.804  10.518  0.4525 -0.5968 -1.1280
  828MOL0     O11703   8.369   7.809  10.535 -0.3117 -0.3880 -0.5278
  828MOL0     C11704   8.310   7.912  10.455 -0.1072  0.2007 -0.6502
  828MOL0     C11705   8.175   7.862  10.408 -0.5660 -1.2784  0.1033
  828MOL0     C11706   8.087   7.809  10.522 -0.4378 -0.1977 -0.2867
  828MOL0     C11707   7.933   7.811  10.488  0.4211 -0.0056  1.3048
  828MOL0     C11708   7.885   7.949  10.453 -0.2402 -0.1782 -0.5704
  828MOL0     C11709   7.847   8.063  10.439 -0.2352  0.1147 -0.2408
  828MOL0     C11710   8.554   7.714  10.423 -1.0164  0.8905 -0.1686
  828MOL0     C11711   8.699   7.704  10.409  0.1029 -0.7330  0.8639
  828MOL0     C11712   8.752   7.605  10.304 -0.0573 -0.3058 -0.3284
  828MOL0     H11713   9.149   7.645  10.649 -1.7410  0.5513 -0.5238
  828MOL0     H11714   9.389   7.657  10.683 -3.4263 -1.2599  2.4578
  828MOL0     H11715   9.654   7.967  10.505 -0.7182  1.6468  0.0663
  828MOL0     H11716   9.601   8.054  10.660  1.1400 -0.5093  1.3312
  828MOL0     H11717   9.851   8.007  10.657  1.2173 -1.5829  0.2554
  828MOL0     H11718   9.806   7.841  10.633  1.9736 -0.3206  1.2538
  828MOL0     H11719   9.712   7.846  10.864 -0.1279  1.0638  2.4779
  828MOL0     H11720   9.698   8.014  10.870 -2.1500 -2.9286  0.7165
  828MOL0     H11721   9.967   7.871  10.876 -1.4010 -0.9395  1.1344
  828MOL0     H11722   9.940   8.054  10.860  1.0191  0.8316  1.0545
  828MOL0     H11723  10.010   7.983  11.080 -0.1753  1.2963  1.5236
  828MOL0     H11724   9.841   8.025  11.093 -1.8795 -2.4223 -0.7875
  828MOL0     H11725   9.775   7.785  11.072  0.0886 -1.0583  0.2779
  828MOL0     H11726   9.943   7.741  11.050 -0.9420 -0.9521 -0.5521
  828MOL0     H11727   9.824   7.890  11.293  0.1048  0.6164  0.0093
  828MOL0     H11728   9.998   7.836  11.275 -0.4396  2.6752 -1.6265
  828MOL0     H11729   9.928   7.609  11.287 -0.6499  1.6735 -0.2107
  828MOL0     H11730   9.842   7.679  11.429  2.8796 -1.2188  0.6213
  828MOL0     H11731   9.568   7.779  11.337  0.5402  0.9210 -1.7978
  828MOL0     H11732   9.327   7.530  11.284  1.4607  0.1238  2.1361
  828MOL0     H11733   9.339   7.703  11.297 -0.2206  0.2145 -0.7740
  828MOL0     H11734   9.378   7.730  11.042  2.4895 -1.0205  0.6023
  828MOL0     H11735   9.343   7.560  11.021 -0.0441  0.9745 -0.4232
  828MOL0     H11736   9.121   7.581  11.027  0.0763  0.1077  0.1073
  828MOL0     H11737   9.144   7.750  10.999 -0.9731  0.5542  0.3566
  828MOL0     H11738   8.988   7.759  11.177  0.5059  0.9423  0.2424
  828MOL0     H11739   9.135   7.780  11.259 -1.7902  1.9780 -0.9817
  828MOL0     H11740   8.918   7.395  11.328 -0.7994  0.3970 -1.3775
  828MOL0     H11741   8.743   7.363  11.504  0.5799 -0.0588  4.3488
  828MOL0     H11742   8.317   7.382  11.544  0.2778 -0.7424  0.1047
  828MOL0     H11743   8.140   7.269  11.718  0.0871 -1.4024  0.9428
  828MOL0     H11744   8.024   7.378  11.959  1.6221  0.1236  0.8181
  828MOL0     H11745   7.990   7.233  11.864  0.0993  3.7851 -0.9381
  828MOL0     H11746   8.001   7.106  12.083  1.2440 -0.1793  1.8853
  828MOL0     H11747   7.993   7.269  12.179 -1.1698  2.2299 -0.7934
  828MOL0     H11748   7.794   7.333  12.068 -2.8706 -1.3099 -0.2667
  828MOL0     H11749   7.785   7.184  11.995 -0.5919  2.5239 -0.1698
  828MOL0     H11750   7.786   7.205  12.297 -0.9709 -0.5537 -0.0236
  828MOL0     H11751   7.825   7.058  12.215 -0.0966  0.2167  0.1769
  828MOL0     H11752   7.597   7.088  12.105  0.6435 -0.0224 -0.1642
  828MOL0     H11753   7.571   7.237  12.191 -0.7452 -1.0704 -0.1077
  828MOL0     H11754   7.608   6.949  12.297  4.5196  1.8770 -1.7845
  828MOL0     H11755   7.606   7.092  12.404 -0.8192 -0.7646  0.6022
  828MOL0     H11756   7.371   7.032  12.226  1.1501  0.3290 -0.7560
  828MOL0     H11757   7.390   7.156  12.347 -0.8679 -0.9893  1.3205
  828MOL0     H11758   7.428   6.973  12.518  0.5159 -0.5030 -0.2823
  828MOL0     H11759   7.259   6.992  12.459  0.3615 -0.5985 -1.0304
  828MOL0     H11760   8.410   7.337  12.035  0.3067  4.0559  0.0775
  828MOL0     H11761   8.574   7.421  11.908 -2.4722 -1.1311  5.1770
  828MOL0     H11762   8.744   7.799  11.553 -0.4465  1.0852 -2.8060
  828MOL0     H11763   8.945   7.805  11.410  3.3818 -1.3842 -0.6826
  828MOL0     H11764   9.399   8.064  10.536 -0.1573  0.0018 -2.5244
  828MOL0     H11765   9.150   8.052  10.517  0.6774  0.2961 -1.2899
  828MOL0     H11766   8.784   7.956  10.632 -0.3359  1.0754  0.2535
  828MOL0     H11767   8.549   7.962  10.665  1.9467  0.6589 -0.6232
  828MOL0     H11768   8.373   7.953  10.376  0.9276  1.9491  0.9982
  828MOL0     H11769   8.295   8.003  10.514 -1.1726  1.1766 -2.3372
  828MOL0     H11770   8.196   7.779  10.340 -0.7508 -0.2328 -1.2862
  828MOL0     H11771   8.118   7.946  10.367  0.7027 -0.8349 -0.8127
  828MOL0     H11772   8.106   7.864  10.615 -1.4636  0.0813 -0.2297
  828MOL0     H11773   8.117   7.706  10.541  3.3565  0.9799  1.0826
  828MOL0     H11774   7.920   7.735  10.410 -0.1913  0.3783  1.0302
  828MOL0     H11775   7.874   7.782  10.575 -2.1464  1.3920  0.1519
  828MOL0     H11776   7.827   8.165  10.415 -0.9804  0.0868  0.2358
  828MOL0     H11777   8.487   7.654  10.363  0.7515 -0.6034 -0.7609
  828MOL0     H11778   8.677   7.544  10.254 -1.5028 -0.5287  1.9941
  828MOL0     H11779   8.797   7.667  10.226 -1.7248  0.2039 -0.9179
  828MOL0     H11780   8.819   7.537  10.357 -0.2304 -1.3940 -1.4779
  829MOL0     O11781   7.630   7.399  11.201  0.0181  0.0727 -0.8562
  829MOL0     C11782   7.643   7.375  11.324  0.4308 -0.3096  0.3369
  829MOL0     O11783   7.756   7.336  11.386  0.0126  0.7176 -0.7484
  829MOL0     C11784   7.865   7.307  11.309  0.2204  0.3486 -0.3371
  829MOL0     C11785   7.980   7.365  11.357 -0.8911 -0.4746 -0.4094
  829MOL0     C11786   8.100   7.362  11.287 -0.3652  0.1542  0.8041
  829MOL0     C11787   8.112   7.299  11.157 -0.1641  0.5692  0.2253
  829MOL0     O11788   8.235   7.302  11.095 -0.6408 -0.1255  0.2902
  829MOL0     C11789   8.253   7.246  10.961 -0.1942  0.4138  0.8105
  829MOL0     C11790   8.398   7.270  10.907 -0.1822  0.1031  0.2645
  829MOL0     C11791   8.515   7.244  11.012  1.0816 -0.5516 -0.5426
  829MOL0     C11792   8.652   7.269  10.959 -1.1655 -0.1771 -0.0835
  829MOL0     C11793   8.761   7.231  11.059 -0.0295  0.9564 -1.5894
  829MOL0     C11794   8.896   7.252  11.009 -0.7874  0.0591 -0.5971
  829MOL0     C11795   9.000   7.187  11.106  0.4502  0.6069  1.0473
  829MOL0     C11796   9.148   7.220  11.065  0.7181  0.3147  0.7269
  829MOL0     N11797   9.250   7.131  11.128  0.4939  0.4178 -0.1189
  829MOL0     C11798   9.378   7.166  11.148 -0.5320  0.0987  0.1747
  829MOL0     C11799   9.433   7.051  11.197  0.1581  0.2143 -0.5895
  829MOL0     C11800   9.573   7.049  11.251 -0.7573 -0.3215 -0.4789
  829MOL0     C11801   9.590   7.113  11.388 -0.2008  0.2607 -0.4315
  829MOL0     C11802   9.736   7.154  11.421  0.0646  0.1697 -0.5562
  829MOL0     C11803   9.821   7.037  11.450 -0.7091 -0.1615  0.8446
  829MOL0     O11804   9.875   6.976  11.325  0.9026  0.5605 -0.2898
  829MOL0     C11805   9.978   7.052  11.274 -0.2782 -0.8603 -0.4057
  829MOL0     C11806   9.974   7.136  11.164  0.5063 -0.1162 -0.1585
  829MOL0     C11807  10.085   7.214  11.128  0.1623  1.3776  0.7772
  829MOL0     C11808  10.206   7.207  11.202  0.3010  0.0156 -1.4892
  829MOL0     C11809  10.323   7.279  11.169 -0.5537 -1.3429 -0.1712
  829MOL0     O11810  10.301   7.405  11.105 -0.1902  0.5659  0.6307
  829MOL0     C11811  10.408   7.479  11.068  0.7981 -0.0115 -0.8478
  829MOL0     C11812  10.521   7.426  11.001 -0.1258  0.5121  0.5069
  829MOL0     C11813  10.630   7.511  10.955 -0.5833  0.3549 -0.0417
  829MOL0     C11814  10.630   7.648  10.983 -0.9900 -0.0887 -0.0988
  829MOL0     O11815  10.754   7.715  10.958 -0.2047  0.0508  0.6369
  829MOL0     C11816  10.782   7.849  11.006 -0.4224  0.6043 -0.6012
  829MOL0     C11817  10.913   7.898  10.967 -0.4211 -0.6159 -0.2870
  829MOL0     C11818  10.924   8.051  10.988  0.0273 -0.5347  0.0190
  829MOL0     C11819  11.078   8.084  10.993  0.8258 -0.0277  0.4604
  829MOL0     C11820  11.088   8.234  10.993  0.4571  0.6276  0.4844
  829MOL0     C11821  11.229   8.287  11.019  0.1905 -1.1574 -0.9177
  829MOL0     C11822  11.340   8.205  10.951  0.4639 -0.2895  0.7094
  829MOL0     C11823  11.453   8.307  10.918 -0.2078  0.8627  0.1521
  829MOL0    Cl11824  11.515   8.385  11.058 -0.2945 -0.3693  0.5540
  829MOL0     C11825  10.519   7.700  11.050 -0.9532 -0.0913  0.5928
  829MOL0     C11826  10.409   7.620  11.089 -0.4121  0.1189  0.4699
  829MOL0     O11827  10.432   7.225  11.187  0.1886  0.6661  0.2987
  829MOL0     C11828  10.208   7.113  11.308 -0.6059 -1.1721  0.3478
  829MOL0     C11829  10.099   7.041  11.336 -0.4433 -0.3491  0.2885
  829MOL0     N11830   9.349   6.942  11.181  0.5713  0.0285  0.4068
  829MOL0     N11831   9.237   6.990  11.143 -0.0151  0.1058  0.1967
  829MOL0     C11832   7.993   7.235  11.118  0.0542 -0.0061  0.0100
  829MOL0     C11833   7.871   7.236  11.186  1.0990  0.2329 -0.2166
  829MOL0     C11834   7.520   7.374  11.407  0.5281  0.4662 -0.2944
  829MOL0     C11835   7.504   7.458  11.523 -0.0434 -0.3180 -0.3032
  829MOL0     C11836   7.401   7.444  11.609 -0.9370  0.5709 -0.6462
  829MOL0     C11837   7.289   7.374  11.568 -0.1934  0.2027  0.1038
  829MOL0     O11838   7.178   7.387  11.652  0.3856  0.1157  0.1637
  829MOL0     C11839   7.070   7.463  11.593  0.3402  0.3381 -0.1038
  829MOL0     C11840   7.099   7.602  11.574 -0.7869 -0.0882 -0.3105
  829MOL0     C11841   6.984   7.662  11.496  0.4399  0.5217 -0.2024
  829MOL0     C11842   7.013   7.809  11.454 -0.0748 -0.2795 -0.7880
  829MOL0     C11843   6.917   7.849  11.353 -1.2596 -0.5149 -0.1567
  829MOL0     C11844   6.852   7.895  11.263  0.4293 -0.2712 -0.7730
  829MOL0     C11845   7.292   7.291  11.460  0.1209 -0.1208  0.5389
  829MOL0     C11846   7.415   7.280  11.380  0.2402 -0.4045 -0.1181
  829MOL0     C11847   7.427   7.180  11.277 -0.1767  0.7730 -0.4336
  829MOL0     H11848   7.974   7.427  11.445 -0.3473  0.6301 -1.1254
  829MOL0     H11849   8.186   7.414  11.327  0.0936  2.6970 -2.9600
  829MOL0     H11850   8.231   7.139  10.968  0.5851  0.2227  0.5578
  829MOL0     H11851   8.186   7.293  10.889 -0.6311 -2.9867 -1.2181
  829MOL0     H11852   8.415   7.373  10.877 -2.3855  0.5506  0.4141
  829MOL0     H11853   8.409   7.207  10.818 -0.9636  3.4888 -2.4061
  829MOL0     H11854   8.504   7.143  11.053 -0.3587  0.6025  2.1438
  829MOL0     H11855   8.504   7.311  11.098 -1.2731 -0.7682 -0.6122
  829MOL0     H11856   8.668   7.205  10.871 -0.2731 -1.1005  0.7266
  829MOL0     H11857   8.656   7.375  10.931 -0.7604  0.1114  1.0207
  829MOL0     H11858   8.762   7.289  11.152  3.0040 -1.9907  0.4547
  829MOL0     H11859   8.744   7.128  11.093  1.6862  1.3759  0.7402
  829MOL0     H11860   8.895   7.204  10.910  1.2658 -1.2800 -0.0435
  829MOL0     H11861   8.926   7.355  10.987  1.8764 -0.3195  0.8571
  829MOL0     H11862   8.979   7.080  11.106 -0.1296  0.7080  1.8977
  829MOL0     H11863   8.980   7.215  11.210 -1.0087 -3.5261  2.0657
  829MOL0     H11864   9.161   7.199  10.958 -0.8190 -1.8248  0.8857
  829MOL0     H11865   9.170   7.324  11.091 -1.5286  0.5127  2.1397
  829MOL0     H11866   9.427   7.262  11.135  0.8805 -0.7056 -0.8152
  829MOL0     H11867   9.622   6.952  11.246  0.1434  0.1218 -0.5036
  829MOL0     H11868   9.639   7.110  11.188  2.3548 -1.2182  1.6909
  829MOL0     H11869   9.539   7.210  11.383  2.5634  1.7774 -1.3864
  829MOL0     H11870   9.552   7.049  11.468 -0.8191  0.3080 -0.6785
  829MOL0     H11871   9.724   7.214  11.511 -1.7849  0.7164 -1.1226
  829MOL0     H11872   9.777   7.228  11.351 -0.8057  0.7154 -0.4967
  829MOL0     H11873   9.764   6.955  11.493 -0.6330 -0.9838 -0.5501
  829MOL0     H11874   9.899   7.071  11.519  0.8004 -0.1514 -0.7899
  829MOL0     H11875   9.882   7.130  11.106 -0.2196 -1.6672  1.0549
  829MOL0     H11876  10.066   7.278  11.042 -0.9025 -1.4714 -1.2608
  829MOL0     H11877  10.524   7.322  10.971 -0.6071  0.2648  1.2656
  829MOL0     H11878  10.720   7.477  10.904 -0.9667  0.7426 -1.0136
  829MOL0     H11879  10.701   7.918  10.981  0.1157  1.4120 -0.1760
  829MOL0     H11880  10.774   7.844  11.115 -0.0374 -1.3394 -0.6351
  829MOL0     H11881  10.989   7.834  11.013  2.3014  0.0017 -3.4672
  829MOL0     H11882  10.908   7.881  10.859 -0.3267 -0.1277 -0.3707
  829MOL0     H11883  10.869   8.111  10.915  1.5656  1.0587  0.0843
  829MOL0     H11884  10.883   8.079  11.085  1.6052 -1.0360  0.8670
  829MOL0     H11885  11.121   8.047  10.900 -1.9210  0.4937 -1.1417
  829MOL0     H11886  11.126   8.039  11.080  2.1855  0.1138 -0.1786
  829MOL0     H11887  11.022   8.276  11.070 -0.6673 -0.7313  0.2940
  829MOL0     H11888  11.059   8.276  10.896 -0.7425 -1.5231 -0.1570
  829MOL0     H11889  11.236   8.387  10.975 -0.8852 -0.9855 -0.7237
  829MOL0     H11890  11.250   8.287  11.127 -3.2056 -1.6520 -0.1258
  829MOL0     H11891  11.317   8.159  10.855 -0.5618 -0.7828  1.1779
  829MOL0     H11892  11.389   8.136  11.021  3.1547  0.7181 -0.0439
  829MOL0     H11893  11.534   8.260  10.860  0.0813  1.0645  0.3878
  829MOL0     H11894  11.409   8.385  10.856 -0.2831  3.8188  3.5804
  829MOL0     H11895  10.520   7.808  11.066 -1.6830 -0.0183  0.1514
  829MOL0     H11896  10.327   7.668  11.142 -2.6844 -2.1815 -0.7624
  829MOL0     H11897  10.296   7.109  11.371 -0.1925  0.4549 -0.0794
  829MOL0     H11898  10.110   6.970  11.417 -2.7583  1.2627  2.1224
  829MOL0     H11899   8.009   7.165  11.036  0.8708  1.1357 -0.8462
  829MOL0     H11900   7.784   7.186  11.146  0.0137  0.2574  1.9967
  829MOL0     H11901   7.587   7.524  11.545 -1.1777  0.7957  0.7538
  829MOL0     H11902   7.393   7.525  11.681  0.3372 -0.8304  1.1721
  829MOL0     H11903   6.975   7.455  11.646 -0.4307 -0.9707 -1.5768
  829MOL0     H11904   7.041   7.416  11.498 -0.8057  0.0477  0.3694
  829MOL0     H11905   7.188   7.627  11.517 -0.4769 -1.3191 -0.3903
  829MOL0     H11906   7.104   7.640  11.676  1.2613 -2.6770  0.6596
  829MOL0     H11907   6.900   7.665  11.565 -1.5793  1.5394 -2.5569
  829MOL0     H11908   6.958   7.607  11.405 -0.3617  0.1807  0.2254
  829MOL0     H11909   7.017   7.874  11.542  1.0857 -1.5688  0.1410
  829MOL0     H11910   7.114   7.825  11.416  0.7230  1.5632  1.8464
  829MOL0     H11911   6.781   7.927  11.189  0.9458  2.2124 -0.2735
  829MOL0     H11912   7.207   7.229  11.433  0.2826 -0.3293  0.5037
  829MOL0     H11913   7.449   7.217  11.176 -0.2456 -2.9301 -1.9924
  829MOL0     H11914   7.511   7.112  11.298  0.0795  1.2637  0.1737
  829MOL0     H11915   7.332   7.127  11.264  0.3820 -0.3311 -0.1753
  830MOL0     O11916   0.518   7.622  10.417 -0.3731 -0.4027 -0.3259
  830MOL0     C11917   0.532   7.603  10.539 -0.2426 -0.1069  0.3594
  830MOL0     O11918   0.433   7.543  10.613 -0.3924 -0.6645  0.4841
  830MOL0     C11919   0.311   7.510  10.551 -0.3437  0.3984 -1.0609
  830MOL0     C11920   0.306   7.376  10.513 -0.5731  0.3401  0.7345
  830MOL0     C11921   0.184   7.323  10.458  1.0557  0.2778  0.1658
  830MOL0     C11922   0.070   7.410  10.440 -0.2896  0.0917  0.9837
  830MOL0     O11923  -0.044   7.344  10.387  0.0222  0.1915  0.1080
  830MOL0     C11924  -0.144   7.427  10.340  0.5829  0.1421  0.0016
  830MOL0     C11925  -0.260   7.336  10.297 -0.4438  0.8833  0.5224
  830MOL0     C11926  -0.380   7.400  10.235 -0.2594 -0.8432  0.4906
  830MOL0     C11927  -0.489   7.292  10.204 -0.3637 -0.3175 -0.1055
  830MOL0     C11928  -0.619   7.361  10.168 -0.2682 -0.4869  0.7366
  830MOL0     C11929  -0.740   7.269  10.158 -0.3213  0.7794 -0.8410
  830MOL0     C11930  -0.723   7.163  10.049  0.7105  0.2658  0.6602
  830MOL0     C11931  -0.732   7.225   9.910  0.0184 -0.6627  0.6321
  830MOL0     N11932  -0.702   7.129   9.812  0.5060  0.4772  0.6761
  830MOL0     C11933  -0.795   7.056   9.740 -0.1059 -0.6140  0.1680
  830MOL0     C11934  -0.723   6.988   9.650 -0.1533 -0.2804  0.0892
  830MOL0     C11935  -0.765   6.890   9.536  0.1393 -0.2524 -0.2530
  830MOL0     C11936  -0.665   6.785   9.488 -0.5307 -0.0435 -0.1456
  830MOL0     C11937  -0.660   6.681   9.597  0.1829 -0.1471 -0.1132
  830MOL0     C11938  -0.549   6.576   9.568 -0.2157 -0.1077 -0.5284
  830MOL0     O11939  -0.526   6.526   9.441 -0.4327  0.6238  0.3792
  830MOL0     C11940  -0.415   6.442   9.436  0.4379  0.3693 -0.5795
  830MOL0     C11941  -0.293   6.493   9.405 -0.5594  0.5731  0.1620
  830MOL0     C11942  -0.182   6.411   9.381  1.0461  0.0654 -0.2498
  830MOL0     C11943  -0.207   6.274   9.389 -0.1989  0.3375  0.0788
  830MOL0     C11944  -0.098   6.185   9.372  0.4878 -0.7283  0.1444
  830MOL0     O11945  -0.096   6.073   9.442  0.6635 -0.1488  0.3973
  830MOL0     C11946   0.011   5.991   9.463  0.7533  0.5595  0.1516
  830MOL0     C11947   0.110   5.974   9.374 -0.5700 -0.2629  0.0399
  830MOL0     C11948   0.221   5.889   9.403  0.2306 -0.3523 -0.5162
  830MOL0     C11949   0.235   5.826   9.525 -0.0372 -0.7230 -0.9913
  830MOL0     O11950   0.348   5.749   9.548  0.5004 -0.3007  0.9823
  830MOL0     C11951   0.388   5.749   9.678 -0.9774 -0.3324 -0.5844
  830MOL0     C11952   0.536   5.716   9.686 -0.3111  0.3374  0.2430
  830MOL0     C11953   0.602   5.743   9.822 -0.4438  0.5119  0.0438
  830MOL0     C11954   0.747   5.710   9.818 -0.6694  0.3745  0.4412
  830MOL0     C11955   0.821   5.760   9.944  0.1229  0.0238  0.1449
  830MOL0     C11956   0.961   5.702   9.962 -0.4029 -0.2331  0.5839
  830MOL0     C11957   1.065   5.786   9.891 -0.6095  0.4113 -0.4369
  830MOL0     C11958   1.203   5.780   9.959  0.0403 -0.4869  0.0695
  830MOL0    Cl11959   1.290   5.623   9.934  0.2962 -0.0058  0.2608
  830MOL0     C11960   0.136   5.851   9.620 -0.7201  0.4778 -0.2869
  830MOL0     C11961   0.027   5.929   9.584  0.7995 -0.0556 -0.1901
  830MOL0     O11962  -0.005   6.222   9.300 -0.2886  0.0166 -0.0275
  830MOL0     C11963  -0.339   6.216   9.400 -0.6039  0.3716  0.1660
  830MOL0     C11964  -0.442   6.307   9.420 -0.2953  0.4999 -0.4587
  830MOL0     N11965  -0.587   7.028   9.646  0.3392  0.5244  0.3056
  830MOL0     N11966  -0.581   7.111   9.743  0.4944  0.0009 -0.4504
  830MOL0     C11967   0.088   7.547  10.463 -0.1429  0.5164 -0.2488
  830MOL0     C11968   0.201   7.598  10.517  0.0934 -0.0785  0.4005
  830MOL0     C11969   0.658   7.640  10.604 -0.4516  0.4012 -0.9791
  830MOL0     C11970   0.761   7.687  10.530 -0.3914  0.2517  0.4280
  830MOL0     C11971   0.876   7.732  10.585  0.0539 -0.4855 -0.2071
  830MOL0     C11972   0.900   7.725  10.722  0.5050 -0.4319 -0.3621
  830MOL0     O11973   1.028   7.758  10.769  0.3844  0.4803  0.0819
  830MOL0     C11974   1.064   7.769  10.907  0.7060 -0.7408  0.4644
  830MOL0     C11975   1.126   7.645  10.965 -1.5179  1.2547  0.8738
  830MOL0     C11976   1.265   7.609  10.907 -0.4692  0.4837  0.2372
  830MOL0     C11977   1.324   7.474  10.952  0.0454 -0.3330 -0.5614
  830MOL0     C11978   1.244   7.359  10.907 -0.3042 -0.7134  0.4611
  830MOL0     C11979   1.189   7.252  10.855 -0.6723 -0.7384 -0.9736
  830MOL0     C11980   0.795   7.678  10.806 -0.0136  0.3924  0.7565
  830MOL0     C11981   0.674   7.635  10.751 -0.9504  0.9111  0.4442
  830MOL0     C11982   0.582   7.550  10.848 -0.5663  0.0622 -0.2216
  830MOL0     H11983   0.390   7.312  10.537  0.3884  0.5599 -1.7594
  830MOL0     H11984   0.166   7.219  10.435 -1.4281  0.3630  1.3848
  830MOL0     H11985  -0.178   7.495  10.419  1.4408 -0.3529  0.8161
  830MOL0     H11986  -0.114   7.487  10.254 -1.3409  1.3061  0.0882
  830MOL0     H11987  -0.290   7.277  10.384  0.7815 -0.6691 -0.0586
  830MOL0     H11988  -0.224   7.252  10.236 -1.2506  0.6982  0.2911
  830MOL0     H11989  -0.351   7.458  10.147 -1.6344  0.4070  0.8102
  830MOL0     H11990  -0.417   7.469  10.311 -1.9167  0.3297 -1.2844
  830MOL0     H11991  -0.447   7.222  10.132  1.8932  1.2533 -0.4151
  830MOL0     H11992  -0.498   7.241  10.301  3.1946 -0.7064  0.1393
  830MOL0     H11993  -0.637   7.428  10.252 -1.1994  1.6814 -1.0836
  830MOL0     H11994  -0.608   7.427  10.081 -2.1441  0.8227  1.4264
  830MOL0     H11995  -0.748   7.211  10.251 -0.8039 -1.1133 -2.0010
  830MOL0     H11996  -0.825   7.337  10.154  0.0824  1.4411  0.7367
  830MOL0     H11997  -0.789   7.077  10.064 -0.0696  0.7735  0.1866
  830MOL0     H11998  -0.621   7.123  10.054  0.4334 -0.7390 -1.0208
  830MOL0     H11999  -0.830   7.273   9.900 -0.8328 -2.0477  1.9713
  830MOL0     H12000  -0.654   7.299   9.891  0.5006 -1.7096 -2.0294
  830MOL0     H12001  -0.903   7.059   9.747 -0.1076 -2.1783  1.4808
  830MOL0     H12002  -0.858   6.840   9.562 -1.6062  1.3966 -2.8419
  830MOL0     H12003  -0.775   6.938   9.438 -0.1106 -4.4839 -2.5161
  830MOL0     H12004  -0.691   6.743   9.390  1.8385  1.3762 -1.4741
  830MOL0     H12005  -0.571   6.836   9.468  0.1240 -0.9910  0.3885
  830MOL0     H12006  -0.757   6.632   9.605 -0.3383  0.9043  0.2582
  830MOL0     H12007  -0.627   6.726   9.691  0.6332 -2.6858  1.0051
  830MOL0     H12008  -0.558   6.494   9.640 -0.5018 -0.8440 -1.3885
  830MOL0     H12009  -0.451   6.619   9.590 -0.1426  0.9877 -2.6943
  830MOL0     H12010  -0.299   6.601   9.413  1.2567  0.9709 -2.5552
  830MOL0     H12011  -0.082   6.450   9.361  1.3971  0.7118  2.3752
  830MOL0     H12012   0.126   6.034   9.285  1.6365 -0.3864  0.2839
  830MOL0     H12013   0.293   5.867   9.325 -1.3400 -1.0643 -1.8300
  830MOL0     H12014   0.376   5.843   9.733  2.8417  0.9823 -1.6704
  830MOL0     H12015   0.332   5.672   9.732 -2.2643  1.1908  0.3454
  830MOL0     H12016   0.550   5.612   9.655 -2.3857  0.3091 -0.7686
  830MOL0     H12017   0.591   5.773   9.611  1.3467  0.9749  1.8799
  830MOL0     H12018   0.582   5.847   9.848 -2.6970 -0.1065  1.0062
  830MOL0     H12019   0.559   5.676   9.897 -1.2571  1.0435  0.0571
  830MOL0     H12020   0.788   5.751   9.725 -0.7369 -1.7930 -0.6177
  830MOL0     H12021   0.775   5.604   9.809  0.2659  0.5815  0.7745
  830MOL0     H12022   0.770   5.716  10.030  0.4969 -1.8489 -0.5363
  830MOL0     H12023   0.811   5.869   9.944  2.1162  0.2407  1.1454
  830MOL0     H12024   0.990   5.689  10.067  1.4766  1.8233  0.3968
  830MOL0     H12025   0.979   5.610   9.906  1.0274  1.3091 -1.6566
  830MOL0     H12026   1.032   5.890   9.885  0.9920  0.8747 -2.9024
  830MOL0     H12027   1.076   5.758   9.786  0.7536  1.7483 -0.6819
  830MOL0     H12028   1.268   5.856   9.914  2.1265 -2.1124  0.1879
  830MOL0     H12029   1.185   5.798  10.065 -2.2364 -0.7652 -0.2188
  830MOL0     H12030   0.150   5.809   9.719  3.5308 -1.1929 -1.4062
  830MOL0     H12031  -0.058   5.947   9.650  1.0241  0.1456  0.0491
  830MOL0     H12032  -0.358   6.110   9.385 -3.3483  0.0007  4.4934
  830MOL0     H12033  -0.548   6.283   9.423 -0.8821  2.8995  0.5491
  830MOL0     H12034   0.004   7.615  10.448 -1.1695 -1.0109 -1.8874
  830MOL0     H12035   0.200   7.705  10.538 -0.3856 -0.3762  2.0722
  830MOL0     H12036   0.758   7.683  10.421 -1.6220 -0.5669  0.4708
  830MOL0     H12037   0.960   7.764  10.524 -1.0630  1.2638 -0.9087
  830MOL0     H12038   0.972   7.791  10.960 -1.0620 -1.5367 -2.0586
  830MOL0     H12039   1.135   7.851  10.920 -0.4002 -0.0286  2.3363
  830MOL0     H12040   1.060   7.560  10.946  0.7109 -0.4179  0.2075
  830MOL0     H12041   1.137   7.661  11.073 -0.7879  0.2838  0.9543
  830MOL0     H12042   1.329   7.697  10.923 -0.2516  0.6653 -1.4623
  830MOL0     H12043   1.250   7.590  10.800 -0.9004 -1.7596  0.6533
  830MOL0     H12044   1.423   7.461  10.907  0.2513 -0.8096  0.0135
  830MOL0     H12045   1.351   7.471  11.058 -0.0260  0.1412 -0.5280
  830MOL0     H12046   1.140   7.161  10.824  2.0879 -2.6529 -0.0819
  830MOL0     H12047   0.824   7.654  10.908  2.2157 -0.9533 -0.1295
  830MOL0     H12048   0.478   7.581  10.854 -0.9245 -1.1111 -0.2950
  830MOL0     H12049   0.593   7.445  10.822 -0.9872  0.0562 -0.3833
  830MOL0     H12050   0.622   7.550  10.950  1.8652  1.2395 -1.0843
  831MOL0     O12051   1.261   8.218   7.323 -0.0653  0.4958 -0.5329
  831MOL0     C12052   1.184   8.273   7.402 -0.5171 -0.7657  0.6096
  831MOL0     O12053   1.227   8.336   7.514  0.2228  0.2425  0.4012
  831MOL0     C12054   1.354   8.303   7.547  0.8979 -0.5437  0.0397
  831MOL0     C12055   1.384   8.199   7.635 -0.0929 -0.9502 -0.1551
  831MOL0     C12056   1.516   8.162   7.666  0.1863 -0.0508  1.0179
  831MOL0     C12057   1.619   8.229   7.601 -0.2256 -0.6524  0.2505
  831MOL0     O12058   1.746   8.195   7.623 -0.4116  0.9358 -0.2557
  831MOL0     C12059   1.854   8.234   7.531 -0.5806  0.0883 -0.0776
  831MOL0     C12060   1.970   8.133   7.565  0.1509  0.2595  0.4575
  831MOL0     C12061   2.083   8.156   7.457 -0.6134  0.5388  0.6720
  831MOL0     C12062   2.201   8.065   7.496  0.0105  0.1793 -0.1674
  831MOL0     C12063   2.330   8.100   7.417  0.1616  0.2466  0.7647
  831MOL0     C12064   2.452   8.009   7.432 -0.4087 -0.5449 -0.6143
  831MOL0     C12065   2.523   8.027   7.570  0.0488  0.3144  0.5090
  831MOL0     C12066   2.641   7.935   7.586 -0.4101  0.3365  0.5197
  831MOL0     N12067   2.766   7.997   7.530 -0.2467  0.3654 -0.2154
  831MOL0     C12068   2.857   8.087   7.596  0.3707  1.1091 -0.2376
  831MOL0     C12069   2.950   8.103   7.507  0.0337  0.4453  0.4531
  831MOL0     C12070   3.081   8.176   7.510 -0.5229  0.6208 -0.0133
  831MOL0     C12071   3.190   8.096   7.578 -0.5276  0.0388  1.1070
  831MOL0     C12072   3.323   8.159   7.544 -0.2403 -0.8180 -0.4518
  831MOL0     C12073   3.433   8.084   7.628 -1.4703 -0.2801 -0.1105
  831MOL0     O12074   3.547   8.167   7.646  0.4004 -0.1099 -0.7175
  831MOL0     C12075   3.655   8.115   7.712 -0.5123 -0.8920 -0.1445
  831MOL0     C12076   3.656   7.994   7.774 -0.2896 -0.5090  0.3300
  831MOL0     C12077   3.773   7.961   7.860  0.3850  0.2344 -0.0749
  831MOL0     C12078   3.876   8.047   7.871  0.8018 -0.9246  0.1100
  831MOL0     C12079   4.004   8.005   7.942  0.3817  0.2452  0.7251
  831MOL0     O12080   4.097   8.104   7.950 -0.5766 -0.0603 -0.1736
  831MOL0     C12081   4.228   8.077   7.992 -0.0392 -0.6332  0.1592
  831MOL0     C12082   4.278   7.991   8.094 -0.3731 -0.0343  0.3818
  831MOL0     C12083   4.416   7.986   8.134 -0.2549 -0.7314  0.1047
  831MOL0     C12084   4.513   8.066   8.073  0.9264  0.3445  0.0408
  831MOL0     O12085   4.638   8.039   8.102  0.1401  0.1601  0.4231
  831MOL0     C12086   4.728   7.998   7.994 -0.6957  0.0219 -0.1026
  831MOL0     C12087   4.846   8.094   7.996  0.6718 -0.2402 -1.2247
  831MOL0     C12088   4.942   8.057   8.105  0.0599 -0.2677  0.0119
  831MOL0     C12089   5.036   7.951   8.060 -1.2929 -1.0664  0.5436
  831MOL0     C12090   5.170   7.952   8.138 -0.3556  0.0016 -0.4741
  831MOL0     C12091   5.268   8.059   8.085 -1.2755 -0.5922  0.2540
  831MOL0     C12092   5.406   8.036   8.156  0.5387 -0.1923 -0.0917
  831MOL0     C12093   5.515   8.125   8.106  0.0238 -0.4229  0.1186
  831MOL0    Cl12094   5.656   8.113   8.217 -0.3118 -0.4953  0.4038
  831MOL0     C12095   4.465   8.155   7.967  0.4067 -0.1917  0.3557
  831MOL0     C12096   4.328   8.158   7.931  0.5208 -0.8317 -0.2174
  831MOL0     O12097   4.019   7.891   7.985  0.0175  0.9198  0.7250
  831MOL0     C12098   3.870   8.168   7.802  0.5853 -0.5540  0.1920
  831MOL0     C12099   3.758   8.208   7.735 -0.2082  0.8127 -0.2319
  831MOL0     N12100   2.928   8.030   7.395 -0.2708 -0.2245 -0.0666
  831MOL0     N12101   2.824   7.957   7.416  0.3099  0.1762 -0.0998
  831MOL0     C12102   1.583   8.333   7.516 -0.3822 -0.0719  0.4968
  831MOL0     C12103   1.450   8.374   7.488 -0.6621  0.1596 -0.1538
  831MOL0     C12104   1.036   8.284   7.376 -0.4314 -0.5818 -0.6852
  831MOL0     C12105   0.970   8.365   7.465  0.3540 -0.4072  0.1039
  831MOL0     C12106   0.835   8.387   7.466 -0.1251 -0.3134  0.2155
  831MOL0     C12107   0.754   8.330   7.368 -1.0201  0.1507  0.3352
  831MOL0     O12108   0.619   8.336   7.356  0.0440 -0.6527  0.1829
  831MOL0     C12109   0.541   8.425   7.437  0.4383  0.2621 -0.0746
  831MOL0     C12110   0.546   8.565   7.392 -0.6263  0.1132  0.0167
  831MOL0     C12111   0.492   8.602   7.256  0.8539 -0.7329 -0.0449
  831MOL0     C12112   0.353   8.541   7.222  0.2743  0.1979  0.9149
  831MOL0     C12113   0.301   8.621   7.106  0.4242  0.6614  0.6468
  831MOL0     C12114   0.251   8.687   7.013 -0.2184 -0.1931 -0.0189
  831MOL0     C12115   0.826   8.263   7.271  0.0092 -0.0308 -0.0689
  831MOL0     C12116   0.961   8.235   7.275 -0.0401 -0.1341 -0.2524
  831MOL0     C12117   1.017   8.161   7.162 -0.3995  0.5915 -0.9124
  831MOL0     H12118   1.313   8.134   7.684 -1.6717 -0.4214 -1.6276
  831MOL0     H12119   1.548   8.081   7.732  4.5227  1.9153  1.7073
  831MOL0     H12120   1.821   8.219   7.427  0.7917 -1.3035 -0.3415
  831MOL0     H12121   1.901   8.331   7.552  4.0460 -1.8957 -0.0074
  831MOL0     H12122   1.927   8.032   7.563 -0.4190  0.4473  1.8838
  831MOL0     H12123   2.009   8.158   7.664  2.1288 -0.7900 -0.0088
  831MOL0     H12124   2.115   8.260   7.450 -0.2719  0.3413 -1.1070
  831MOL0     H12125   2.045   8.128   7.358 -0.6613  1.7234  0.3336
  831MOL0     H12126   2.226   8.083   7.601  1.1105 -0.4789 -0.2999
  831MOL0     H12127   2.164   7.962   7.487 -1.2962  0.4551  1.6133
  831MOL0     H12128   2.300   8.104   7.312 -0.1465 -0.5830  0.8187
  831MOL0     H12129   2.360   8.202   7.445  4.1206 -0.5735  0.1092
  831MOL0     H12130   2.415   7.909   7.408  0.1845 -1.0011  0.2851
  831MOL0     H12131   2.533   8.021   7.359  0.5233 -2.0285  0.1292
  831MOL0     H12132   2.450   8.009   7.649  0.9080  0.7862  1.4347
  831MOL0     H12133   2.555   8.131   7.581  2.0512 -0.4259  2.3630
  831MOL0     H12134   2.655   7.896   7.688  1.8920 -2.0500 -0.5789
  831MOL0     H12135   2.625   7.844   7.527  1.1776  0.9660 -0.9583
  831MOL0     H12136   2.855   8.144   7.688  1.5202 -1.0142  1.1718
  831MOL0     H12137   3.115   8.176   7.406 -1.8878  0.1362 -0.4827
  831MOL0     H12138   3.077   8.271   7.563  1.0397  0.4241  0.5000
  831MOL0     H12139   3.175   8.098   7.686  1.5377 -0.9988  1.4701
  831MOL0     H12140   3.184   7.992   7.543  2.0803 -0.4095  1.7892
  831MOL0     H12141   3.323   8.264   7.572 -1.2968 -1.2301  1.2838
  831MOL0     H12142   3.336   8.143   7.437 -1.8041  0.4500 -0.8678
  831MOL0     H12143   3.476   7.998   7.576  4.7103  2.8360 -1.1281
  831MOL0     H12144   3.392   8.058   7.726 -2.0644 -2.3022 -0.8544
  831MOL0     H12145   3.574   7.923   7.765 -0.7697  0.3026 -2.9623
  831MOL0     H12146   3.789   7.862   7.903 -0.9598 -1.3354 -2.9079
  831MOL0     H12147   4.207   7.930   8.148 -3.2071  2.1907 -0.5998
  831MOL0     H12148   4.436   7.913   8.212 -2.1377 -0.8926  0.4727
  831MOL0     H12149   4.767   7.896   8.009  1.8531  0.9508  0.1417
  831MOL0     H12150   4.669   8.003   7.902  2.4278 -1.4110 -2.4062
  831MOL0     H12151   4.897   8.095   7.900  1.3096 -1.5450 -0.9202
  831MOL0     H12152   4.811   8.196   8.015  1.1915 -0.0115 -1.4843
  831MOL0     H12153   5.003   8.139   8.146  0.8185 -2.3263  3.4209
  831MOL0     H12154   4.894   8.013   8.193 -0.4177 -0.5225 -0.3697
  831MOL0     H12155   5.063   7.963   7.955 -1.3361 -2.0432  0.4057
  831MOL0     H12156   4.997   7.848   8.068 -1.2872 -0.9535  3.1795
  831MOL0     H12157   5.216   7.856   8.112 -1.1112 -0.4338 -0.2217
  831MOL0     H12158   5.158   7.953   8.247 -0.1132  2.2601 -0.4063
  831MOL0     H12159   5.283   8.046   7.977  1.7240  0.3282  0.4684
  831MOL0     H12160   5.239   8.162   8.106 -0.0625  0.0598 -1.0568
  831MOL0     H12161   5.434   7.931   8.143 -1.2081 -0.6209 -0.5519
  831MOL0     H12162   5.392   8.058   8.262 -0.3060 -0.0734 -0.2247
  831MOL0     H12163   5.551   8.089   8.009  0.4836  0.7211 -0.1507
  831MOL0     H12164   5.485   8.230   8.106 -0.9670 -0.6943  0.1349
  831MOL0     H12165   4.529   8.237   7.936  0.4667  0.1350  1.3095
  831MOL0     H12166   4.292   8.226   7.856  1.3586  2.6242  2.2638
  831MOL0     H12167   3.948   8.243   7.794 -0.2714  0.2382 -1.0637
  831MOL0     H12168   3.748   8.307   7.693 -1.3406  0.5642 -0.5979
  831MOL0     H12169   1.656   8.382   7.452  0.4582 -0.7591  0.9109
  831MOL0     H12170   1.435   8.448   7.410  0.0926  1.0803  0.5561
  831MOL0     H12171   1.021   8.415   7.547 -0.0070  1.0277 -0.5243
  831MOL0     H12172   0.789   8.433   7.553 -1.8145  0.4852 -1.0488
  831MOL0     H12173   0.571   8.407   7.541 -3.8821 -4.5857  0.7035
  831MOL0     H12174   0.436   8.395   7.442  0.1633  1.3728  2.1546
  831MOL0     H12175   0.650   8.596   7.405 -0.5093  0.0447 -0.7351
  831MOL0     H12176   0.488   8.619   7.467 -2.2872  1.4762 -2.1439
  831MOL0     H12177   0.573   8.597   7.182  2.5596  1.6042  1.5451
  831MOL0     H12178   0.482   8.710   7.262  3.5493 -0.4317  0.3660
  831MOL0     H12179   0.363   8.435   7.196 -0.6514  0.3302 -0.0154
  831MOL0     H12180   0.285   8.556   7.306 -1.7246 -3.2707  0.0897
  831MOL0     H12181   0.212   8.736   6.926 -1.1410 -1.0095 -0.0912
  831MOL0     H12182   0.760   8.227   7.193 -1.8637 -0.0442  1.4391
  831MOL0     H12183   1.060   8.076   7.215  0.5599  1.5181 -0.1449
  831MOL0     H12184   0.933   8.132   7.099 -1.0564 -0.6701  0.4865
  831MOL0     H12185   1.094   8.219   7.110 -0.8036 -1.1113 -3.5662
  832MOL0     O12186   9.046   6.126   2.648  0.7079  0.3839  1.0427
  832MOL0     C12187   9.015   6.245   2.639 -0.5058 -0.2285  0.4327
  832MOL0     O12188   9.098   6.345   2.620 -0.1240 -0.3110  0.5459
  832MOL0     C12189   9.232   6.314   2.589 -0.0795 -0.1555  0.7450
  832MOL0     C12190   9.319   6.240   2.679 -0.2725 -0.8305 -0.8594
  832MOL0     C12191   9.455   6.207   2.641  0.2991  0.6982 -1.6105
  832MOL0     C12192   9.509   6.246   2.518 -0.2868  0.5323 -0.2820
  832MOL0     O12193   9.634   6.217   2.478 -0.1411 -0.6407 -0.4227
  832MOL0     C12194   9.697   6.266   2.356 -0.3161  0.2435 -0.5201
  832MOL0     C12195   9.815   6.176   2.344 -0.7976  0.3963  0.3297
  832MOL0     C12196   9.912   6.221   2.234 -0.5676  0.2162  0.6588
  832MOL0     C12197  10.025   6.120   2.210 -0.3124 -0.2676 -0.1751
  832MOL0     C12198  10.111   6.166   2.092  0.3386 -0.0415  0.5746
  832MOL0     C12199  10.049   6.150   1.959 -0.5959  0.3656 -0.6860
  832MOL0     C12200  10.039   6.013   1.894  0.6035  0.7243  0.1359
  832MOL0     C12201   9.913   6.006   1.801 -0.8593 -0.4950  0.1798
  832MOL0     N12202   9.790   6.046   1.863  0.1328  0.5823  0.0315
  832MOL0     C12203   9.744   5.984   1.977 -0.6022  0.1689 -0.0358
  832MOL0     C12204   9.644   6.059   2.024 -0.1094  0.1416  0.0385
  832MOL0     C12205   9.554   6.031   2.132  0.1650  0.2996 -0.8596
  832MOL0     C12206   9.463   5.913   2.103  0.4309 -0.3742  0.1401
  832MOL0     C12207   9.390   5.854   2.216  1.2989  0.0104 -0.0086
  832MOL0     C12208   9.312   5.719   2.185  0.3401 -0.7280 -0.8673
  832MOL0     O12209   9.221   5.748   2.072 -0.5242  0.0213 -0.2178
  832MOL0     C12210   9.099   5.694   2.073  0.8159  0.6368 -0.0162
  832MOL0     C12211   9.003   5.749   1.984  0.0808  0.0819  0.6814
  832MOL0     C12212   8.871   5.699   1.970 -0.0234 -0.8483 -0.3225
  832MOL0     C12213   8.828   5.603   2.060  0.7093  0.7291 -0.2357
  832MOL0     C12214   8.676   5.561   2.048 -0.1056 -0.3497  0.1805
  832MOL0     O12215   8.593   5.640   1.976 -0.6325  0.1217  0.0884
  832MOL0     C12216   8.459   5.610   1.939  0.1062  0.1492 -0.0770
  832MOL0     C12217   8.411   5.672   1.823  0.4677 -0.3539 -0.2817
  832MOL0     C12218   8.274   5.652   1.792  0.1927  0.1751  0.7510
  832MOL0     C12219   8.185   5.569   1.864  0.5542  0.2661  0.2705
  832MOL0     O12220   8.056   5.552   1.822  0.4282  0.5444 -0.6704
  832MOL0     C12221   7.991   5.672   1.784  0.3848  0.4289 -0.2204
  832MOL0     C12222   7.837   5.674   1.801 -0.4641 -0.1957  0.8067
  832MOL0     C12223   7.773   5.610   1.930 -0.0650 -0.4799  0.2019
  832MOL0     C12224   7.618   5.607   1.921 -0.1284  0.0867 -0.1615
  832MOL0     C12225   7.545   5.560   2.044  0.4373  0.0914 -0.2220
  832MOL0     C12226   7.557   5.407   2.068  0.4999 -0.1460  0.2907
  832MOL0     C12227   7.449   5.360   2.154 -0.4301  0.6468  0.3989
  832MOL0     C12228   7.433   5.207   2.162 -0.5007 -0.2781  0.7951
  832MOL0    Cl12229   7.584   5.147   2.247  0.4519 -0.3469  0.1783
  832MOL0     C12230   8.233   5.510   1.978 -0.1754 -0.0685  0.4826
  832MOL0     C12231   8.368   5.534   2.020  0.0996 -0.0742 -0.7071
  832MOL0     O12232   8.643   5.453   2.092 -0.2975  0.2816  0.2758
  832MOL0     C12233   8.916   5.538   2.147 -0.0843  0.0555  0.5077
  832MOL0     C12234   9.051   5.582   2.148 -0.6029  0.5688  0.2672
  832MOL0     N12235   9.629   6.169   1.942  0.2611  0.0062 -0.3021
  832MOL0     N12236   9.721   6.165   1.839  0.1851 -0.2411 -0.0041
  832MOL0     C12237   9.424   6.320   2.432  0.0922  1.2783  1.1558
  832MOL0     C12238   9.295   6.354   2.466 -1.0360 -0.3416 -1.3306
  832MOL0     C12239   8.873   6.286   2.658  0.6001  0.4193 -0.6285
  832MOL0     C12240   8.851   6.425   2.673  0.1044  0.5054 -0.6272
  832MOL0     C12241   8.727   6.478   2.701  0.0118 -0.1005 -0.6534
  832MOL0     C12242   8.620   6.396   2.712  0.2713 -0.7066  0.4805
  832MOL0     O12243   8.496   6.438   2.766  0.9795 -0.3941 -0.5404
  832MOL0     C12244   8.504   6.526   2.878  0.0232  0.1658  0.2901
  832MOL0     C12245   8.400   6.482   2.984 -0.3233 -0.3439  0.2831
  832MOL0     C12246   8.264   6.531   2.961 -0.6186  0.9140 -0.4705
  832MOL0     C12247   8.159   6.491   3.064  0.2310 -0.2898 -0.0151
  832MOL0     C12248   8.167   6.554   3.192 -0.5844 -0.7450  0.6992
  832MOL0     C12249   8.170   6.608   3.301  0.9603 -0.5032  0.1646
  832MOL0     C12250   8.639   6.253   2.694  0.6717  0.4133  0.1360
  832MOL0     C12251   8.767   6.199   2.681 -0.4599  0.2566  0.0283
  832MOL0     C12252   8.782   6.047   2.667 -0.3170  0.0477  0.3460
  832MOL0     H12253   9.292   6.211   2.780  1.3802  0.6326  0.0807
  832MOL0     H12254   9.515   6.146   2.707 -0.4590  1.3518 -0.2895
  832MOL0     H12255   9.636   6.254   2.266  1.0342  2.6267 -1.8862
  832MOL0     H12256   9.739   6.367   2.364  1.3089 -0.5206  1.6534
  832MOL0     H12257   9.775   6.076   2.325 -0.7130 -0.3044  3.3661
  832MOL0     H12258   9.858   6.166   2.444 -0.6313  0.4113  0.2602
  832MOL0     H12259   9.953   6.317   2.268  2.0648 -0.5235 -0.1509
  832MOL0     H12260   9.861   6.235   2.138  0.8753 -1.2752 -0.3735
  832MOL0     H12261  10.082   6.109   2.302  1.7257 -0.0106 -1.3641
  832MOL0     H12262   9.967   6.029   2.192 -0.4243 -0.6336  1.8171
  832MOL0     H12263  10.141   6.271   2.096  1.7837 -0.4802  2.2988
  832MOL0     H12264  10.200   6.102   2.093 -0.1381 -0.8466 -1.5949
  832MOL0     H12265   9.953   6.203   1.958 -0.6972  0.3617  1.9033
  832MOL0     H12266  10.110   6.206   1.888  1.3602 -0.6939  0.1076
  832MOL0     H12267  10.022   5.924   1.955  0.3368 -1.4233 -2.8461
  832MOL0     H12268  10.132   5.992   1.840  1.2458  1.2403  1.0098
  832MOL0     H12269   9.936   6.069   1.714  2.2956 -0.1027  1.1671
  832MOL0     H12270   9.903   5.901   1.771 -0.1116 -0.2001 -1.1768
  832MOL0     H12271   9.772   5.886   2.015  1.6648 -0.0007 -1.8943
  832MOL0     H12272   9.617   5.998   2.215 -0.7487  0.8169  0.0641
  832MOL0     H12273   9.489   6.109   2.173 -1.6639 -2.2067  1.3555
  832MOL0     H12274   9.399   5.953   2.023  0.2843 -0.6030  0.1409
  832MOL0     H12275   9.525   5.840   2.050 -1.4581 -2.1731  0.2447
  832MOL0     H12276   9.323   5.931   2.257  1.1126  1.9632 -3.5541
  832MOL0     H12277   9.468   5.825   2.286  2.5202 -2.4576 -2.2312
  832MOL0     H12278   9.263   5.689   2.278  1.8479 -1.4570 -0.2737
  832MOL0     H12279   9.380   5.635   2.169  2.8862  0.1759  3.5010
  832MOL0     H12280   9.038   5.830   1.920  0.4234 -0.6165 -0.0334
  832MOL0     H12281   8.801   5.748   1.904 -0.0497  1.6272  1.3991
  832MOL0     H12282   8.469   5.733   1.755 -0.9401 -0.0686 -1.2800
  832MOL0     H12283   8.235   5.683   1.695  0.3338 -2.0920 -0.1000
  832MOL0     H12284   8.024   5.744   1.860 -0.6413 -1.0763  1.7525
  832MOL0     H12285   8.020   5.711   1.686  0.1670  0.3690 -0.3065
  832MOL0     H12286   7.797   5.775   1.789 -0.2097 -0.2359 -0.5928
  832MOL0     H12287   7.806   5.610   1.718  0.6412  0.4690 -0.1553
  832MOL0     H12288   7.810   5.508   1.937  2.0761  0.3146  1.9265
  832MOL0     H12289   7.805   5.666   2.019  2.6109 -0.9625 -0.3851
  832MOL0     H12290   7.574   5.548   1.841 -0.8962 -1.6096  1.4354
  832MOL0     H12291   7.591   5.711   1.902 -1.5557 -0.5764 -2.0169
  832MOL0     H12292   7.439   5.586   2.044  0.8559  1.9229  0.0371
  832MOL0     H12293   7.579   5.626   2.125 -1.4657  1.5148 -0.5007
  832MOL0     H12294   7.544   5.355   1.972  1.5043 -2.3288  1.2784
  832MOL0     H12295   7.656   5.379   2.106  1.0148 -1.3823 -1.7701
  832MOL0     H12296   7.353   5.398   2.119 -1.8848 -1.5195  1.7545
  832MOL0     H12297   7.470   5.395   2.256  0.7654  0.2243  0.3238
  832MOL0     H12298   7.346   5.199   2.227 -1.4426 -1.0982 -0.5153
  832MOL0     H12299   7.432   5.151   2.068  1.6461  0.2869  0.3756
  832MOL0     H12300   8.170   5.442   2.035 -0.1442  1.4562  2.4288
  832MOL0     H12301   8.388   5.487   2.116 -0.4126  1.8059  0.3677
  832MOL0     H12302   8.877   5.453   2.201  0.1340 -1.8875 -2.1999
  832MOL0     H12303   9.128   5.515   2.185 -0.6532 -0.0907 -0.7871
  832MOL0     H12304   9.447   6.348   2.330  0.0459  3.2044  1.6340
  832MOL0     H12305   9.241   6.413   2.393 -1.7457 -2.6992 -2.8189
  832MOL0     H12306   8.923   6.505   2.684 -0.9197  1.1317  2.6566
  832MOL0     H12307   8.713   6.583   2.725 -0.4614 -0.6481  1.7227
  832MOL0     H12308   8.492   6.631   2.851  0.5724 -0.6836 -3.8238
  832MOL0     H12309   8.597   6.516   2.935 -0.9008  1.1105  2.0664
  832MOL0     H12310   8.431   6.521   3.082  0.8976  0.2134 -0.2983
  832MOL0     H12311   8.397   6.373   2.980 -4.1369 -0.3138 -1.1913
  832MOL0     H12312   8.236   6.493   2.863 -2.4825 -1.2914  0.8066
  832MOL0     H12313   8.270   6.639   2.951 -0.6599  0.9248 -0.3837
  832MOL0     H12314   8.058   6.501   3.024  0.7092 -0.9323 -1.4948
  832MOL0     H12315   8.174   6.384   3.080  4.1132 -0.3583 -2.5220
  832MOL0     H12316   8.183   6.637   3.403  0.4860 -1.2054  0.4319
  832MOL0     H12317   8.554   6.188   2.713 -0.2139  1.3061 -0.5964
  832MOL0     H12318   8.832   6.016   2.759 -0.9978 -0.0539  0.6922
  832MOL0     H12319   8.681   6.004   2.670 -0.8485  1.1183 -1.0415
  832MOL0     H12320   8.831   6.024   2.572 -1.4182  0.5175 -0.3681
  833MOL0     O12321   1.412   1.049   1.084  0.0913 -0.0201  0.5346
  833MOL0     C12322   1.400   0.941   1.017 -0.9313 -1.3424  0.4430
  833MOL0     O12323   1.497   0.880   0.954 -0.8934 -0.5177  0.8087
  833MOL0     C12324   1.623   0.923   0.971 -0.9714 -0.2097  0.2789
  833MOL0     C12325   1.688   1.014   0.880 -1.4512 -0.1920 -0.7039
  833MOL0     C12326   1.823   1.054   0.901  0.2356  0.2639 -0.0046
  833MOL0     C12327   1.887   1.006   1.018 -0.1995 -0.1636  0.3325
  833MOL0     O12328   2.004   1.057   1.074  0.0404  0.0079 -0.0564
  833MOL0     C12329   2.073   1.149   0.988  0.1240  0.3032  0.5954
  833MOL0     C12330   2.221   1.167   1.040  0.6317 -0.3585 -0.2101
  833MOL0     C12331   2.224   1.192   1.195  0.2385  0.1707 -0.6901
  833MOL0     C12332   2.202   1.339   1.237 -0.9697 -0.9831 -0.2766
  833MOL0     C12333   2.210   1.366   1.389  0.1698  0.5070  0.5589
  833MOL0     C12334   2.177   1.503   1.438  0.4131 -0.1278 -0.3429
  833MOL0     C12335   2.154   1.506   1.590  0.5669 -0.2023  0.1690
  833MOL0     C12336   2.096   1.646   1.628  0.1859  0.6650 -0.0747
  833MOL0     N12337   2.157   1.758   1.555  0.5343  0.4255 -0.0150
  833MOL0     C12338   2.086   1.836   1.466 -0.5381  0.4728 -0.4311
  833MOL0     C12339   2.177   1.921   1.411 -0.4510  0.8623 -0.0660
  833MOL0     C12340   2.146   2.036   1.318  0.9166  0.8032 -0.1181
  833MOL0     C12341   2.174   2.182   1.368  0.5806  0.2140 -0.2642
  833MOL0     C12342   2.114   2.289   1.274  1.0761  0.0268 -0.1659
  833MOL0     C12343   1.963   2.317   1.273 -0.1716  0.0383  0.2570
  833MOL0     O12344   1.897   2.226   1.192  0.0172  0.1115 -0.7443
  833MOL0     C12345   1.762   2.223   1.200 -0.2378  0.2960 -1.5584
  833MOL0     C12346   1.702   2.110   1.136  0.1733 -0.3145 -0.0223
  833MOL0     C12347   1.557   2.097   1.132  0.0193 -0.0284  0.6357
  833MOL0     C12348   1.474   2.206   1.179 -0.1517  0.4917  1.1952
  833MOL0     C12349   1.327   2.192   1.166 -0.1640 -0.6463  0.3774
  833MOL0     O12350   1.271   2.088   1.092  0.0751  0.5284  0.3867
  833MOL0     C12351   1.139   2.083   1.054 -0.4730 -0.4283  0.6726
  833MOL0     C12352   1.081   1.956   1.053  0.1524  1.0424 -0.0641
  833MOL0     C12353   0.950   1.938   1.016  1.0825 -0.1303  0.1772
  833MOL0     C12354   0.873   2.044   0.968  0.2114 -0.1597  0.4072
  833MOL0     O12355   0.744   2.039   0.928 -0.3025  0.2791  0.2423
  833MOL0     C12356   0.703   1.923   0.855 -0.1482 -0.4621  0.3243
  833MOL0     C12357   0.562   1.949   0.811 -0.6876  0.5601 -0.8299
  833MOL0     C12358   0.487   1.854   0.717 -0.9285 -0.7519 -0.7864
  833MOL0     C12359   0.357   1.918   0.674  0.4404  0.4044  0.4942
  833MOL0     C12360   0.294   1.834   0.562 -0.2177  0.1397  1.0963
  833MOL0     C12361   0.158   1.877   0.519 -0.1823  0.8499  0.2010
  833MOL0     C12362   0.090   1.781   0.417  0.6429  0.2337 -0.5320
  833MOL0     C12363   0.045   1.648   0.489  0.7309 -0.1297 -0.0492
  833MOL0    Cl12364  -0.008   1.528   0.369 -0.2393  0.4047  0.2204
  833MOL0     C12365   0.932   2.174   0.976  1.9764 -0.5750  0.3533
  833MOL0     C12366   1.062   2.194   1.019  0.2842  0.2024  0.2509
  833MOL0     O12367   1.261   2.287   1.209  0.0491 -0.2953  0.4066
  833MOL0     C12368   1.532   2.315   1.238  0.2371  0.2554 -0.1740
  833MOL0     C12369   1.668   2.326   1.244 -0.1738 -0.5169 -0.0609
  833MOL0     N12370   2.302   1.892   1.457  0.2904 -0.4539 -0.1711
  833MOL0     N12371   2.286   1.797   1.544 -0.3318 -0.2975 -0.0028
  833MOL0     C12372   1.824   0.908   1.088 -0.2624  0.8893 -0.4921
  833MOL0     C12373   1.694   0.866   1.067  0.6115  0.4419 -0.3623
  833MOL0     C12374   1.260   0.894   0.999  0.8333 -0.1813 -0.3064
  833MOL0     C12375   1.223   0.849   0.868 -0.3956  0.2241 -0.2194
  833MOL0     C12376   1.091   0.806   0.840  0.1250 -0.3613  0.3093
  833MOL0     C12377   0.999   0.793   0.943  0.6704 -0.3898  0.5455
  833MOL0     O12378   0.866   0.754   0.915 -0.7136 -0.2375 -0.1520
  833MOL0     C12379   0.828   0.629   0.969  0.0363  0.1593 -0.6938
  833MOL0     C12380   0.741   0.573   0.860  0.1275 -0.2623 -0.7429
  833MOL0     C12381   0.611   0.643   0.851  0.0247 -0.0431  0.1923
  833MOL0     C12382   0.523   0.626   0.978  0.4315  0.0771 -0.6370
  833MOL0     C12383   0.487   0.484   0.999  0.1283  0.6686  0.4426
  833MOL0     C12384   0.464   0.367   1.019 -0.3757 -0.8738  0.1548
  833MOL0     C12385   1.034   0.835   1.072 -0.1243  0.0551  0.6182
  833MOL0     C12386   1.161   0.889   1.104 -0.0864  0.3380 -0.2043
  833MOL0     C12387   1.171   0.923   1.244 -0.4475 -0.3155  0.2695
  833MOL0     H12388   1.631   1.064   0.803 -1.3028  1.3113  0.1199
  833MOL0     H12389   1.864   1.136   0.842 -2.6221  1.1287 -0.9628
  833MOL0     H12390   2.076   1.124   0.882  0.1564  1.4075  0.3291
  833MOL0     H12391   2.031   1.249   1.004  1.0646  0.6110  1.2326
  833MOL0     H12392   2.276   1.245   0.987  3.2494 -2.2254 -0.4293
  833MOL0     H12393   2.282   1.078   1.025  1.9800  0.6350 -0.7471
  833MOL0     H12394   2.321   1.149   1.222 -0.4207 -0.8363  0.1911
  833MOL0     H12395   2.148   1.134   1.249 -0.5241  1.4934 -0.2989
  833MOL0     H12396   2.268   1.405   1.180 -2.5330  0.7315 -0.1756
  833MOL0     H12397   2.107   1.373   1.196  0.7921  1.1814 -2.8977
  833MOL0     H12398   2.141   1.294   1.433  0.2164  0.3048  0.3070
  833MOL0     H12399   2.314   1.358   1.421  0.3846  1.8022  0.2607
  833MOL0     H12400   2.253   1.576   1.411 -1.5058  2.9194  1.8674
  833MOL0     H12401   2.084   1.534   1.389 -1.1949 -0.8521  2.0586
  833MOL0     H12402   2.255   1.502   1.630 -0.0274 -0.9905  1.6699
  833MOL0     H12403   2.100   1.418   1.626  2.6038 -1.8030 -0.5414
  833MOL0     H12404   1.989   1.651   1.606  0.2128  1.9995  0.0366
  833MOL0     H12405   2.110   1.664   1.735 -1.1575 -1.8559  0.6168
  833MOL0     H12406   1.985   1.820   1.429  0.6762 -2.6436 -2.8775
  833MOL0     H12407   2.186   2.019   1.217 -0.7034 -2.0922 -0.3551
  833MOL0     H12408   2.038   2.028   1.306  1.1212 -0.9505 -1.0781
  833MOL0     H12409   2.121   2.199   1.463 -0.5716  1.3829 -1.0848
  833MOL0     H12410   2.280   2.194   1.390 -0.2038  3.2541  2.6355
  833MOL0     H12411   2.146   2.267   1.171  0.2778  0.3002 -0.4870
  833MOL0     H12412   2.159   2.382   1.309  1.2978 -1.0702  2.6627
  833MOL0     H12413   1.944   2.416   1.230  2.0339 -0.8279 -3.0701
  833MOL0     H12414   1.925   2.317   1.375 -0.8711  4.2833  0.1840
  833MOL0     H12415   1.752   2.031   1.081 -2.3106 -2.1741  0.2196
  833MOL0     H12416   1.519   2.021   1.065 -0.1855  0.8262 -0.2449
  833MOL0     H12417   1.135   1.869   1.087 -2.1377 -2.3518 -4.2094
  833MOL0     H12418   0.898   1.843   1.025  0.6708  0.0502 -0.1978
  833MOL0     H12419   0.764   1.914   0.764 -0.0671 -0.9669  0.4245
  833MOL0     H12420   0.714   1.829   0.910  1.7509 -0.4432  0.0150
  833MOL0     H12421   0.503   1.967   0.902 -0.1339  2.5088 -0.8002
  833MOL0     H12422   0.551   2.048   0.767 -2.5796 -0.4364 -2.7499
  833MOL0     H12423   0.545   1.849   0.624  0.0092  2.1502 -0.4664
  833MOL0     H12424   0.478   1.758   0.768 -1.8971  0.9884  2.5963
  833MOL0     H12425   0.366   2.017   0.629 -2.1743  0.2838 -0.4881
  833MOL0     H12426   0.290   1.917   0.761  0.0611 -2.6091  0.2753
  833MOL0     H12427   0.282   1.730   0.595 -0.8317 -0.3619 -0.5770
  833MOL0     H12428   0.362   1.829   0.477  0.2011  0.0538  1.4351
  833MOL0     H12429   0.094   1.882   0.608  0.8594  0.5954  0.9857
  833MOL0     H12430   0.163   1.975   0.471 -3.4253  0.3986 -1.3137
  833MOL0     H12431   0.167   1.757   0.343  0.8377  1.1669 -0.6424
  833MOL0     H12432   0.007   1.839   0.375  1.5873  0.5585 -2.0212
  833MOL0     H12433   0.130   1.611   0.546  1.2082  2.4897  1.0928
  833MOL0     H12434  -0.036   1.680   0.555  1.2983  1.0427  0.1070
  833MOL0     H12435   0.872   2.260   0.948 -0.2618 -1.4496  2.1764
  833MOL0     H12436   1.097   2.296   1.016 -0.9912  0.6808  0.8574
  833MOL0     H12437   1.465   2.390   1.279  0.2976 -0.4792  1.3340
  833MOL0     H12438   1.709   2.419   1.283 -0.4574  0.5840 -2.2179
  833MOL0     H12439   1.881   0.880   1.176  2.0351 -0.0360 -2.1576
  833MOL0     H12440   1.644   0.799   1.136  1.0312 -0.3238 -0.7884
  833MOL0     H12441   1.302   0.853   0.793  1.7014  0.5852  1.9004
  833MOL0     H12442   1.075   0.762   0.742  0.1475  0.7595 -0.2120
  833MOL0     H12443   0.781   0.657   1.064  2.7371  1.8143  0.2569
  833MOL0     H12444   0.912   0.564   0.995  0.8200  0.6257 -2.0087
  833MOL0     H12445   0.715   0.468   0.875 -3.1240  0.6228  0.7450
  833MOL0     H12446   0.791   0.579   0.763 -0.3302 -0.3446 -0.9890
  833MOL0     H12447   0.545   0.604   0.773 -1.4680 -0.1504  1.4574
  833MOL0     H12448   0.626   0.749   0.828  1.8330 -0.0228  1.3188
  833MOL0     H12449   0.566   0.671   1.068  2.1865  0.4106 -1.5908
  833MOL0     H12450   0.440   0.697   0.970  0.6167  0.3389 -0.2840
  833MOL0     H12451   0.448   0.264   1.041  1.3534 -1.5437 -1.4790
  833MOL0     H12452   0.962   0.816   1.151  0.9306 -2.0070  1.1541
  833MOL0     H12453   1.277   0.941   1.267 -0.0486  1.5603 -2.5142
  833MOL0     H12454   1.114   1.014   1.265  3.6986  3.2638 -2.2856
  833MOL0     H12455   1.147   0.842   1.313 -0.8873  0.8643  1.5358
  834MOL0     O12456   4.069   1.788  11.261  0.2296  0.2180  0.1608
  834MOL0     C12457   4.019   1.723  11.169 -0.2078 -0.7603  0.4475
  834MOL0     O12458   4.075   1.717  11.038 -0.4258  0.4783  0.4930
  834MOL0     C12459   4.211   1.752  11.035 -0.2580  0.1132  1.0998
  834MOL0     C12460   4.257   1.849  10.944  0.3356 -0.4703 -0.0234
  834MOL0     C12461   4.387   1.868  10.918 -0.6822 -0.6373  0.0063
  834MOL0     C12462   4.493   1.792  10.974 -0.4239 -0.6383  0.4353
  834MOL0     O12463   4.621   1.805  10.928  0.3925 -0.7014  1.2041
  834MOL0     C12464   4.728   1.774  11.013  0.1474  0.1707  0.0833
  834MOL0     C12465   4.862   1.841  10.972  0.4408 -0.1367  0.0780
  834MOL0     C12466   4.897   1.814  10.824 -0.0195  0.1707  0.0990
  834MOL0     C12467   5.043   1.854  10.807  0.1823  0.3692  0.2830
  834MOL0     C12468   5.086   1.854  10.661 -0.1018  0.3883  0.1172
  834MOL0     C12469   5.178   1.973  10.643  0.2557  0.4605  0.5310
  834MOL0     C12470   5.271   1.945  10.524 -0.0477 -0.0977  0.2412
  834MOL0     C12471   5.370   2.069  10.502  0.6101 -0.4219 -0.6110
  834MOL0     N12472   5.501   2.055  10.568 -0.4757 -0.0152  0.4960
  834MOL0     C12473   5.555   2.130  10.671  0.5619  0.2226 -0.2564
  834MOL0     C12474   5.680   2.073  10.689 -0.3189 -0.0302 -0.0597
  834MOL0     C12475   5.776   2.096  10.812  0.0084  0.2091 -0.8259
  834MOL0     C12476   5.881   2.208  10.780 -0.2025  0.0124 -0.1602
  834MOL0     C12477   5.999   2.142  10.704  0.9716 -0.3731  0.0265
  834MOL0     C12478   6.094   2.257  10.664 -0.0198 -0.4222  0.5752
  834MOL0     O12479   6.185   2.300  10.764  0.4637  0.1894 -0.0784
  834MOL0     C12480   6.313   2.243  10.761 -0.4834 -0.5105 -0.3295
  834MOL0     C12481   6.355   2.130  10.691  0.9532  0.3237 -0.0907
  834MOL0     C12482   6.487   2.082  10.698  0.1344  0.1403  0.2669
  834MOL0     C12483   6.580   2.151  10.766  0.4334 -0.3444  0.0041
  834MOL0     C12484   6.714   2.100  10.793 -0.8862  0.5620  0.0065
  834MOL0     O12485   6.786   2.150  10.894 -0.6251 -0.4220  0.3017
  834MOL0     C12486   6.921   2.120  10.892  0.3041  0.0263  0.4156
  834MOL0     C12487   7.006   2.156  10.783 -0.6198  0.0458  0.7886
  834MOL0     C12488   7.142   2.123  10.793  0.4022  0.1162 -0.1295
  834MOL0     C12489   7.197   2.043  10.902 -0.8320 -1.2051  0.7722
  834MOL0     O12490   7.336   2.016  10.889  0.1820 -0.3785  0.4595
  834MOL0     C12491   7.401   1.957  11.003  0.3229  0.8499  0.5576
  834MOL0     C12492   7.555   1.966  10.990  0.2362  0.2159  0.0282
  834MOL0     C12493   7.611   2.091  10.920 -0.5060 -0.3663 -0.3971
  834MOL0     C12494   7.757   2.076  10.863  0.4658  0.3470 -0.0159
  834MOL0     C12495   7.816   2.209  10.824  0.1096 -0.1180 -0.4854
  834MOL0     C12496   7.967   2.188  10.794 -1.2090  0.0241  0.1111
  834MOL0     C12497   8.057   2.189  10.916 -0.2242  0.5231 -0.8529
  834MOL0     C12498   8.205   2.189  10.868  0.6374  0.3397  0.4345
  834MOL0    Cl12499   8.330   2.176  10.986 -0.2059  0.3019 -0.2197
  834MOL0     C12500   7.111   1.994  10.997  1.1238 -0.4057 -0.4820
  834MOL0     C12501   6.976   2.033  10.992  0.4698  0.2544  0.1272
  834MOL0     O12502   6.752   2.007  10.723  0.1614  0.2725  0.4150
  834MOL0     C12503   6.539   2.267  10.841  0.0402 -0.2496  0.1874
  834MOL0     C12504   6.410   2.320  10.832  0.0261  0.4132  0.4002
  834MOL0     N12505   5.698   1.966  10.604  0.9299 -0.5574  0.1452
  834MOL0     N12506   5.586   1.956  10.529  0.0267 -0.2313  0.9307
  834MOL0     C12507   4.443   1.700  11.073 -0.6671  0.4034  0.1996
  834MOL0     C12508   4.306   1.676  11.101  0.1581 -0.1734 -0.3661
  834MOL0     C12509   3.876   1.684  11.185  0.6034 -0.3092  0.4196
  834MOL0     C12510   3.812   1.635  11.070  0.1782  0.4354  0.3594
  834MOL0     C12511   3.671   1.605  11.070 -0.3355  0.1349 -0.7884
  834MOL0     C12512   3.595   1.625  11.186 -0.1410  0.4515 -0.0604
  834MOL0     O12513   3.464   1.585  11.198  0.0285  0.8028  0.1653
  834MOL0     C12514   3.370   1.663  11.128 -0.5483 -0.3316 -0.1497
  834MOL0     C12515   3.307   1.773  11.209  0.1926 -0.7086  0.1776
  834MOL0     C12516   3.218   1.709  11.319 -0.3060  0.4652 -0.2993
  834MOL0     C12517   3.110   1.620  11.267 -0.3321 -0.2795  0.4993
  834MOL0     C12518   3.030   1.674  11.155  0.0299  0.2552  0.5504
  834MOL0     C12519   2.960   1.709  11.054  0.0640 -0.1631 -1.0764
  834MOL0     C12520   3.664   1.666  11.300 -0.0951  0.0707 -0.4852
  834MOL0     C12521   3.798   1.695  11.302  0.2696 -0.0750  0.9870
  834MOL0     C12522   3.850   1.744  11.435 -0.2897  0.4264 -0.0218
  834MOL0     H12523   4.189   1.910  10.885  2.1969  2.4491  0.6728
  834MOL0     H12524   4.410   1.941  10.841 -0.0950 -2.5674 -1.7320
  834MOL0     H12525   4.705   1.808  11.114  0.8328  0.8095  0.0366
  834MOL0     H12526   4.736   1.665  11.017 -0.2982  0.1338  0.0154
  834MOL0     H12527   4.938   1.810  11.044  0.3432  1.1797  0.7779
  834MOL0     H12528   4.840   1.946  10.994 -4.4265 -0.7068 -0.8635
  834MOL0     H12529   4.836   1.881  10.762 -0.1226  0.7008  0.7670
  834MOL0     H12530   4.881   1.710  10.792 -0.7486 -0.2509  1.7159
  834MOL0     H12531   5.054   1.955  10.846 -1.2103  0.9988 -0.8684
  834MOL0     H12532   5.100   1.783  10.868 -0.1374  0.3711  0.5929
  834MOL0     H12533   5.145   1.764  10.640  3.6896  2.3523  1.3987
  834MOL0     H12534   4.997   1.862  10.599 -1.3465 -2.0477  1.4272
  834MOL0     H12535   5.103   2.052  10.633 -0.4564  0.1145  2.5824
  834MOL0     H12536   5.239   1.994  10.732 -0.8224 -0.0532  1.4208
  834MOL0     H12537   5.209   1.923  10.437  3.3253 -0.7294 -2.1891
  834MOL0     H12538   5.328   1.853  10.537  1.2328  0.9472  2.5537
  834MOL0     H12539   5.377   2.077  10.393 -2.3843 -3.8885 -1.2499
  834MOL0     H12540   5.312   2.154  10.542 -0.3182 -1.0190 -0.6498
  834MOL0     H12541   5.517   2.214  10.727 -2.0800 -2.7507  2.8740
  834MOL0     H12542   5.714   2.138  10.891  2.5470 -1.8812  2.5935
  834MOL0     H12543   5.813   2.002  10.855 -0.6281  0.7037  0.8838
  834MOL0     H12544   5.837   2.286  10.718 -1.6016  0.6980  1.6020
  834MOL0     H12545   5.921   2.255  10.870 -0.4677  0.7903 -0.4473
  834MOL0     H12546   5.973   2.090  10.611  2.6886 -0.3012 -0.5304
  834MOL0     H12547   6.047   2.071  10.771  0.3693 -0.4094  0.4271
  834MOL0     H12548   6.039   2.342  10.624  2.5924  0.3273 -1.7530
  834MOL0     H12549   6.148   2.220  10.577 -0.1204 -2.1074  1.1949
  834MOL0     H12550   6.285   2.072  10.632 -0.0896  0.3574  1.0591
  834MOL0     H12551   6.502   1.991  10.640  1.2404  0.0003  0.7479
  834MOL0     H12552   6.973   2.209  10.694  1.2692 -0.2047 -0.1305
  834MOL0     H12553   7.214   2.160  10.722  0.8811  0.5625  0.5731
  834MOL0     H12554   7.363   2.011  11.090  1.9951  0.1073  1.7856
  834MOL0     H12555   7.375   1.851  11.015  0.8386  0.3103 -2.2760
  834MOL0     H12556   7.603   1.951  11.087  1.3403 -0.3829 -0.5832
  834MOL0     H12557   7.588   1.878  10.932  1.3634 -2.5154  4.3568
  834MOL0     H12558   7.554   2.131  10.836  2.3785  1.3106 -1.7086
  834MOL0     H12559   7.629   2.162  11.002  1.0336 -0.0727 -0.9430
  834MOL0     H12560   7.759   2.011  10.776 -1.9095  0.4743 -0.2312
  834MOL0     H12561   7.815   2.043  10.950 -1.5170 -0.1856  1.1598
  834MOL0     H12562   7.803   2.288  10.898  0.0237 -3.6704  3.7031
  834MOL0     H12563   7.767   2.239  10.731  0.7855  3.0698  0.0668
  834MOL0     H12564   7.965   2.092  10.741 -2.3579 -0.3260  0.7510
  834MOL0     H12565   7.994   2.265  10.721  4.5038 -1.7138 -0.0572
  834MOL0     H12566   8.051   2.096  10.973 -1.6776  0.2637 -1.3759
  834MOL0     H12567   8.037   2.276  10.979 -1.5240 -1.1883  1.2418
  834MOL0     H12568   8.205   2.099  10.806  0.5099 -0.0088  0.9265
  834MOL0     H12569   8.220   2.276  10.804  0.1082  1.9754  2.3980
  834MOL0     H12570   7.141   1.939  11.086  2.2674  0.6619 -0.1914
  834MOL0     H12571   6.919   2.010  11.082  0.5527  2.4367  0.8037
  834MOL0     H12572   6.604   2.323  10.908  0.2580 -0.6755  0.3342
  834MOL0     H12573   6.378   2.402  10.896  0.0096 -0.1107  1.0793
  834MOL0     H12574   4.519   1.638  11.118 -0.1072  1.8427  1.3252
  834MOL0     H12575   4.275   1.590  11.160 -2.2248  1.5192  1.0340
  834MOL0     H12576   3.852   1.617  10.971 -2.4733  1.8022 -1.0455
  834MOL0     H12577   3.638   1.574  10.971  1.6010 -0.3611 -1.3028
  834MOL0     H12578   3.281   1.612  11.090 -1.4995  1.0152  0.2001
  834MOL0     H12579   3.416   1.705  11.037 -2.1486  0.2242 -0.7295
  834MOL0     H12580   3.244   1.835  11.146  2.7373  1.9690  0.0871
  834MOL0     H12581   3.397   1.824  11.245  0.6975  0.0865 -2.0683
  834MOL0     H12582   3.176   1.798  11.367 -1.0199  0.4004 -0.7904
  834MOL0     H12583   3.276   1.661  11.398 -2.3894 -0.8960  0.4892
  834MOL0     H12584   3.159   1.527  11.238  0.7025  1.2835 -3.3280
  834MOL0     H12585   3.044   1.592  11.350  1.3279 -1.2479  1.5612
  834MOL0     H12586   2.916   1.755  10.968 -0.8490 -0.4818 -0.7888
  834MOL0     H12587   3.601   1.669  11.388 -0.0892 -0.6121 -0.4499
  834MOL0     H12588   3.773   1.727  11.511  0.4609 -1.7851  0.3239
  834MOL0     H12589   3.922   1.668  11.467 -0.3255  1.4127  2.7026
  834MOL0     H12590   3.893   1.844  11.442 -0.9959  0.6767  1.0910
  835MOL0     O12591   7.928   0.532  10.716 -0.4747 -0.2874 -0.3400
  835MOL0     C12592   7.883   0.635  10.751  0.8065 -0.4606 -0.0228
  835MOL0     O12593   7.943   0.756  10.762 -0.6586  0.3453 -0.2220
  835MOL0     C12594   8.068   0.762  10.708 -0.0691 -0.3929 -0.2328
  835MOL0     C12595   8.181   0.701  10.766 -0.4116  0.6454 -0.2654
  835MOL0     C12596   8.306   0.744  10.724  0.0624 -0.0054 -0.3812
  835MOL0     C12597   8.324   0.835  10.622 -0.3191  0.3319 -0.6431
  835MOL0     O12598   8.445   0.872  10.568 -0.4515 -0.2495 -0.6652
  835MOL0     C12599   8.553   0.870  10.667  0.2035 -0.6388  0.8970
  835MOL0     C12600   8.656   0.972  10.627  0.0437  0.3881  0.5136
  835MOL0     C12601   8.764   0.897  10.544 -0.1596  0.1451 -0.4084
  835MOL0     C12602   8.843   1.001  10.453  0.4953  0.1935 -0.7609
  835MOL0     C12603   8.941   0.928  10.361  0.1965 -0.7486  0.1778
  835MOL0     C12604   9.020   1.033  10.275  0.3211 -0.3174  0.6109
  835MOL0     C12605   9.115   0.949  10.185 -0.5146 -0.3729 -0.3690
  835MOL0     C12606   9.186   1.025  10.073 -0.2357  0.2900 -0.0109
  835MOL0     N12607   9.311   0.948  10.038 -0.0227 -0.2634  0.3925
  835MOL0     C12608   9.310   0.818   9.986  0.5854 -1.3189  0.2021
  835MOL0     C12609   9.436   0.769   9.988  0.5446 -0.3075 -0.0448
  835MOL0     C12610   9.482   0.633   9.947 -0.4292  0.5134  0.9589
  835MOL0     C12611   9.526   0.666   9.799 -0.5266 -0.0760 -0.6861
  835MOL0     C12612   9.581   0.536   9.734 -0.0743 -0.3298 -0.0255
  835MOL0     C12613   9.727   0.507   9.769  0.5091 -1.0962 -0.0772
  835MOL0     O12614   9.812   0.606   9.702  0.0168  0.2749 -0.4625
  835MOL0     C12615   9.950   0.584   9.725 -0.1526  0.2601  0.5816
  835MOL0     C12616  10.032   0.656   9.635 -0.9238  0.2558 -0.4671
  835MOL0     C12617  10.169   0.639   9.639  0.2410  0.0583 -0.4032
  835MOL0     C12618  10.232   0.562   9.734 -0.5951 -0.5800 -0.4256
  835MOL0     C12619  10.384   0.552   9.740 -0.0249 -0.6944 -0.3537
  835MOL0     O12620  10.462   0.603   9.641 -0.6734  0.5574 -0.2729
  835MOL0     C12621  10.600   0.562   9.652 -0.0323 -0.6058  0.7298
  835MOL0     C12622  10.705   0.649   9.629  0.4953 -0.1013 -0.1422
  835MOL0     C12623  10.848   0.615   9.633 -0.3348 -0.0866  0.5437
  835MOL0     C12624  10.881   0.486   9.643  0.7129  0.7419 -0.1526
  835MOL0     O12625  11.017   0.454   9.645  0.3859 -0.8740  0.0049
  835MOL0     C12626  11.061   0.334   9.707 -0.0280  0.4693 -0.4957
  835MOL0     C12627  11.211   0.325   9.719  0.5425  0.0509 -0.0118
  835MOL0     C12628  11.274   0.445   9.797  0.5965  0.1787 -0.2531
  835MOL0     C12629  11.427   0.464   9.778  0.0459 -0.1325 -0.2162
  835MOL0     C12630  11.471   0.605   9.806 -0.4607  0.3313 -0.1235
  835MOL0     C12631  11.623   0.614   9.793 -0.9070 -0.1287 -0.3928
  835MOL0     C12632  11.656   0.760   9.829 -0.1719 -1.2816 -0.7401
  835MOL0     C12633  11.798   0.801   9.816  0.2537  0.0718  0.7532
  835MOL0    Cl12634  11.883   0.706   9.691 -0.1502  0.6488 -0.0030
  835MOL0     C12635  10.778   0.387   9.660 -0.3506  0.5493  0.0501
  835MOL0     C12636  10.639   0.432   9.673  0.0287  0.2131  0.8271
  835MOL0     O12637  10.424   0.503   9.849 -0.3502  0.6616 -0.1918
  835MOL0     C12638  10.153   0.485   9.820 -0.1145  1.0532  0.9269
  835MOL0     C12639  10.009   0.490   9.807  0.2326 -0.0432 -0.1218
  835MOL0     N12640   9.516   0.869  10.040 -0.1819  0.0988  0.4897
  835MOL0     N12641   9.440   0.977  10.073  0.9188  0.1827 -0.3523
  835MOL0     C12642   8.216   0.894  10.562  1.0145  0.7096 -0.2301
  835MOL0     C12643   8.087   0.853  10.607  0.6924  0.1180  0.1966
  835MOL0     C12644   7.735   0.641  10.783  0.2659 -0.2189  0.1557
  835MOL0     C12645   7.672   0.763  10.793 -0.0067 -0.9670 -0.9254
  835MOL0     C12646   7.546   0.778  10.848 -1.3514 -0.1874  0.5428
  835MOL0     C12647   7.476   0.669  10.882  0.1154  0.0020  0.3804
  835MOL0     O12648   7.353   0.687  10.927 -0.4083  0.0152 -0.3609
  835MOL0     C12649   7.275   0.573  10.988  0.2656 -0.8963  0.5642
  835MOL0     C12650   7.345   0.538  11.124 -0.0679 -0.5528  0.4444
  835MOL0     C12651   7.283   0.420  11.194  0.4244  0.6606  0.2263
  835MOL0     C12652   7.363   0.362  11.314 -0.1731 -0.8484  0.4783
  835MOL0     C12653   7.346   0.440  11.438 -0.6843 -0.1631 -0.5312
  835MOL0     C12654   7.330   0.493  11.546  0.1353  0.9029 -0.5472
  835MOL0     C12655   7.534   0.544  10.870  0.2599  0.4130  0.1679
  835MOL0     C12656   7.661   0.525  10.819 -0.2980  0.6465  0.2019
  835MOL0     C12657   7.719   0.388  10.822  0.2635 -0.2199 -0.4158
  835MOL0     H12658   8.160   0.636  10.851 -1.5951  1.1166 -0.1697
  835MOL0     H12659   8.392   0.694  10.767 -0.5632  0.1339  1.0952
  835MOL0     H12660   8.530   0.900  10.770  1.3373  0.5784  0.8083
  835MOL0     H12661   8.600   0.771  10.661 -0.2900 -0.8240 -0.0774
  835MOL0     H12662   8.705   1.017  10.713  2.0441  1.3384 -1.0311
  835MOL0     H12663   8.606   1.051  10.569  1.1758  1.0439  0.4068
  835MOL0     H12664   8.719   0.821  10.481 -1.8883 -0.2230  1.1710
  835MOL0     H12665   8.830   0.844  10.613  1.0812 -0.1802 -1.8000
  835MOL0     H12666   8.779   1.069  10.396 -0.1147  1.1835  1.0020
  835MOL0     H12667   8.895   1.067  10.523 -0.6632 -1.6756  2.0753
  835MOL0     H12668   8.997   0.860  10.426  0.2178 -0.3880  0.5385
  835MOL0     H12669   8.880   0.866  10.293  0.1676  0.9611 -1.4495
  835MOL0     H12670   8.961   1.100  10.213  2.9944  1.9313  0.3010
  835MOL0     H12671   9.080   1.100  10.338  1.4927 -0.7148 -0.0364
  835MOL0     H12672   9.069   0.858  10.146  1.3083 -1.3975 -0.2408
  835MOL0     H12673   9.201   0.911  10.240  0.0576  0.7834 -0.4230
  835MOL0     H12674   9.124   1.022   9.982  0.1454 -1.2049 -0.2415
  835MOL0     H12675   9.221   1.127  10.092  0.4962  0.4892 -2.1197
  835MOL0     H12676   9.224   0.766   9.944  1.1751  0.0515 -2.9806
  835MOL0     H12677   9.572   0.602  10.000  0.7003 -0.5899 -1.4135
  835MOL0     H12678   9.404   0.556   9.940  1.2075 -1.2126  1.0813
  835MOL0     H12679   9.444   0.716   9.747  0.4553  1.6902 -0.5825
  835MOL0     H12680   9.600   0.745   9.811 -1.0304  0.2067  0.7339
  835MOL0     H12681   9.582   0.543   9.624  0.7796  1.5592  0.0599
  835MOL0     H12682   9.521   0.451   9.766 -4.8527  2.2913 -0.9864
  835MOL0     H12683   9.737   0.403   9.738 -0.9221 -1.8905  1.8812
  835MOL0     H12684   9.742   0.517   9.877  1.0895 -1.6983 -0.0950
  835MOL0     H12685   9.987   0.706   9.550 -0.8689  0.9723 -0.0842
  835MOL0     H12686  10.223   0.693   9.562 -1.8523  0.6822 -1.5136
  835MOL0     H12687  10.691   0.756   9.613  2.3364  0.0265 -1.1906
  835MOL0     H12688  10.923   0.692   9.617 -1.5880  0.8251 -1.4158
  835MOL0     H12689  11.019   0.336   9.808 -1.4753  1.6048 -1.0889
  835MOL0     H12690  11.022   0.249   9.651 -1.5113  2.6888 -3.0496
  835MOL0     H12691  11.237   0.230   9.766 -1.0871 -1.7759 -2.5298
  835MOL0     H12692  11.257   0.325   9.620  1.7842  0.1331  0.5423
  835MOL0     H12693  11.219   0.535   9.770 -1.6098 -1.2874 -0.9521
  835MOL0     H12694  11.257   0.429   9.904 -1.5169  2.0771 -0.2387
  835MOL0     H12695  11.440   0.432   9.674 -1.5538 -2.2845  0.1613
  835MOL0     H12696  11.483   0.390   9.837 -0.3974  1.0188  1.7542
  835MOL0     H12697  11.438   0.644   9.903  1.5969 -1.5900  1.4440
  835MOL0     H12698  11.436   0.673   9.727  0.5431  2.8890  1.4825
  835MOL0     H12699  11.681   0.550   9.861 -1.4064 -2.2304 -1.8341
  835MOL0     H12700  11.659   0.602   9.690 -1.9265 -0.6773 -0.6935
  835MOL0     H12701  11.612   0.793   9.924 -2.1126 -2.4827 -1.1763
  835MOL0     H12702  11.603   0.816   9.752 -0.7261 -0.2245  0.3694
  835MOL0     H12703  11.807   0.907   9.790 -1.3136  0.6160  2.2226
  835MOL0     H12704  11.845   0.789   9.914  2.4747  1.0037 -0.1240
  835MOL0     H12705  10.804   0.282   9.652  0.6346  0.9106 -2.0566
  835MOL0     H12706  10.565   0.355   9.692  0.5928 -0.1384  1.6358
  835MOL0     H12707  10.188   0.422   9.900 -3.2286 -1.4443  0.5538
  835MOL0     H12708   9.947   0.429   9.872  1.3863  0.2817  1.3280
  835MOL0     H12709   8.236   0.964  10.481  0.9780 -0.1383 -0.9841
  835MOL0     H12710   7.996   0.899  10.569  0.3273 -0.5340  0.2686
  835MOL0     H12711   7.729   0.853  10.770  1.2687 -0.6424  2.7564
  835MOL0     H12712   7.495   0.872  10.862 -2.1212 -0.7155  1.4455
  835MOL0     H12713   7.259   0.495  10.913 -2.5304 -0.7831  0.9315
  835MOL0     H12714   7.172   0.599  11.013  0.5450 -0.9059  1.7699
  835MOL0     H12715   7.335   0.625  11.189  2.6864  0.1087  0.1165
  835MOL0     H12716   7.453   0.522  11.127 -0.2678 -2.2810 -0.3349
  835MOL0     H12717   7.261   0.338  11.125 -0.0576  0.5134  0.5531
  835MOL0     H12718   7.184   0.454  11.225 -1.3251  1.1952 -4.9681
  835MOL0     H12719   7.335   0.259  11.337 -0.6715 -0.5442  1.2523
  835MOL0     H12720   7.471   0.369  11.294 -0.5509  1.6090 -1.1496
  835MOL0     H12721   7.320   0.522  11.649 -2.2284  0.7696 -0.6702
  835MOL0     H12722   7.478   0.459  10.907 -1.4867  1.6461  0.5343
  835MOL0     H12723   7.736   0.368  10.716  0.2141  0.2937 -0.5253
  835MOL0     H12724   7.807   0.381  10.886 -1.0275  0.4191  1.4989
  835MOL0     H12725   7.643   0.319  10.859  1.8790 -1.7882  0.1249
  836MOL0     O12726   1.150   9.340  10.771 -0.3837  0.0201  0.3447
  836MOL0     C12727   1.112   9.436  10.833 -0.0055  0.3816 -0.5004
  836MOL0     O12728   1.168   9.472  10.942  0.0782  0.0237 -0.3718
  836MOL0     C12729   1.277   9.415  11.002 -1.0809 -0.6853  0.1828
  836MOL0     C12730   1.328   9.283  10.988  0.6320 -0.0965  0.2380
  836MOL0     C12731   1.443   9.246  11.051  0.0254  0.6585  0.4778
  836MOL0     C12732   1.525   9.335  11.127  1.0608  1.1176  0.4971
  836MOL0     O12733   1.652   9.314  11.166 -0.4767 -0.1739 -0.6126
  836MOL0     C12734   1.707   9.194  11.106  0.0301  0.3943  0.1122
  836MOL0     C12735   1.861   9.162  11.120 -0.5070 -0.3044  0.3426
  836MOL0     C12736   1.902   9.134  11.265 -0.1712 -0.0476 -0.4213
  836MOL0     C12737   2.047   9.092  11.266  0.7663  0.1939  0.4899
  836MOL0     C12738   2.099   9.080  11.411 -0.0268  0.0766  0.0145
  836MOL0     C12739   2.233   9.001  11.396  0.0691  0.2961 -0.5046
  836MOL0     C12740   2.338   9.063  11.302  0.4295 -1.3778 -0.0284
  836MOL0     C12741   2.349   9.218  11.332  0.3394 -0.0361  0.4541
  836MOL0     N12742   2.465   9.260  11.253  0.6508 -0.2808  0.7109
  836MOL0     C12743   2.588   9.269  11.302  0.2147 -0.2143 -1.2698
  836MOL0     C12744   2.654   9.342  11.202  0.8185 -0.1201  0.4705
  836MOL0     C12745   2.802   9.380  11.199 -0.4299  0.2105  0.4992
  836MOL0     C12746   2.844   9.470  11.321  0.2863 -0.7029  0.5321
  836MOL0     C12747   2.974   9.545  11.293 -0.0994  0.5780 -0.0774
  836MOL0     C12748   3.035   9.616  11.413  0.7836 -0.2793 -0.4289
  836MOL0     O12749   3.045   9.538  11.530 -1.4087 -0.0228  0.3594
  836MOL0     C12750   3.168   9.517  11.589 -0.0212  0.6070  0.1143
  836MOL0     C12751   3.228   9.626  11.626 -0.5002 -0.7905  0.0346
  836MOL0     C12752   3.352   9.613  11.699  0.3661 -0.4741  0.4137
  836MOL0     C12753   3.401   9.493  11.740  0.1217 -0.0800 -0.2128
  836MOL0     C12754   3.518   9.492  11.832  0.1124  0.5926 -0.6804
  836MOL0     O12755   3.538   9.611  11.901 -0.5409  0.4620 -0.8058
  836MOL0     C12756   3.649   9.630  11.974  0.3133  0.0548 -0.8621
  836MOL0     C12757   3.694   9.761  11.984  0.8033  0.3513 -0.6451
  836MOL0     C12758   3.817   9.801  12.040 -0.8665 -0.0309 -0.0902
  836MOL0     C12759   3.900   9.708  12.095 -0.6976 -0.2062  0.3850
  836MOL0     O12760   4.028   9.746  12.133  0.2545  0.8901  0.3579
  836MOL0     C12761   4.117   9.645  12.192 -0.5026 -0.7203  0.0556
  836MOL0     C12762   4.233   9.721  12.241 -0.1799 -1.0561  0.3806
  836MOL0     C12763   4.325   9.628  12.323 -0.5420 -0.1214 -0.1831
  836MOL0     C12764   4.429   9.563  12.233 -0.2093  0.1410  0.0175
  836MOL0     C12765   4.534   9.482  12.309 -0.2960  0.3314  0.5157
  836MOL0     C12766   4.657   9.433  12.219  0.1101  0.5433  0.2117
  836MOL0     C12767   4.621   9.326  12.107 -0.5609  0.5060 -0.6546
  836MOL0     C12768   4.740   9.230  12.074 -0.2014  0.3270 -0.2381
  836MOL0    Cl12769   4.757   9.124  12.220  0.1351 -0.5688  0.2966
  836MOL0     C12770   3.856   9.575  12.097 -0.0151  0.4491  0.4420
  836MOL0     C12771   3.728   9.543  12.038 -0.4736 -0.3285  0.6408
  836MOL0     O12772   3.579   9.389  11.842 -0.2924  1.2781 -0.3326
  836MOL0     C12773   3.333   9.374  11.693  0.1449 -0.1267  0.0370
  836MOL0     C12774   3.222   9.393  11.612  0.2753 -0.1771 -0.6994
  836MOL0     N12775   2.564   9.366  11.100 -0.1527 -0.4077 -0.4035
  836MOL0     N12776   2.448   9.320  11.130 -0.1239 -0.4115  0.1912
  836MOL0     C12777   1.467   9.458  11.147 -0.0791 -0.2073  0.0241
  836MOL0     C12778   1.347   9.501  11.090 -0.1979 -0.5342 -0.0042
  836MOL0     C12779   0.984   9.503  10.787  0.0669  1.0480  0.0634
  836MOL0     C12780   0.975   9.515  10.652  0.3706 -0.3925  1.1572
  836MOL0     C12781   0.871   9.578  10.590 -0.6712  0.3400  0.2891
  836MOL0     C12782   0.773   9.632  10.669 -0.3921 -0.3399  0.3955
  836MOL0     O12783   0.681   9.724  10.617  0.2242 -0.0897  0.5193
  836MOL0     C12784   0.685   9.769  10.487  0.0220  0.0089  0.5719
  836MOL0     C12785   0.541   9.802  10.436  0.3999 -1.0044  0.0373
  836MOL0     C12786   0.550   9.828  10.286  0.2202  0.2548  0.8872
  836MOL0     C12787   0.438   9.924  10.237  0.1148 -0.4103  0.2333
  836MOL0     C12788   0.302   9.871  10.241  0.1259 -0.1498 -0.7375
  836MOL0     C12789   0.188   9.844  10.246  0.0386  0.1787 -0.4937
  836MOL0     C12790   0.775   9.617  10.810 -0.5298 -1.0229  0.1142
  836MOL0     C12791   0.885   9.553  10.874  0.4757 -0.1825  0.0506
  836MOL0     C12792   0.879   9.542  11.028  0.1817  1.2878  0.1440
  836MOL0     H12793   1.273   9.206  10.934  1.1376  0.4699 -1.1220
  836MOL0     H12794   1.468   9.140  11.051  0.6828  0.7514 -2.3477
  836MOL0     H12795   1.653   9.107  11.145 -0.1097  0.1122 -0.7000
  836MOL0     H12796   1.692   9.207  10.999  2.7529  1.4681 -0.2274
  836MOL0     H12797   1.914   9.252  11.088 -1.8649  0.4433  0.1491
  836MOL0     H12798   1.886   9.082  11.050  2.2434  0.3564  0.4622
  836MOL0     H12799   1.840   9.053  11.306  0.6958  0.3779  1.8856
  836MOL0     H12800   1.885   9.221  11.330 -0.5499 -0.5736  0.2023
  836MOL0     H12801   2.062   8.999  11.210  0.3669 -0.1844  1.0062
  836MOL0     H12802   2.112   9.167  11.218 -0.9936  0.0525 -2.3743
  836MOL0     H12803   2.116   9.179  11.453 -0.1281 -0.2378  0.8082
  836MOL0     H12804   2.043   9.020  11.484  2.2544 -1.7905  0.3446
  836MOL0     H12805   2.292   8.978  11.486  0.6395 -1.3010 -1.2389
  836MOL0     H12806   2.223   8.908  11.339 -1.5736  0.3689 -0.3774
  836MOL0     H12807   2.315   9.050  11.196  4.7615 -0.3649 -1.2768
  836MOL0     H12808   2.437   9.021  11.322  0.8050  0.3179  2.0904
  836MOL0     H12809   2.265   9.279  11.296  1.6956  0.5636 -1.9173
  836MOL0     H12810   2.359   9.243  11.438  2.4527  1.7342 -0.0912
  836MOL0     H12811   2.623   9.231  11.397  0.3772 -0.0505 -1.2662
  836MOL0     H12812   2.860   9.287  11.197 -1.7642 -0.7509 -3.3225
  836MOL0     H12813   2.818   9.429  11.102  0.6672 -1.6667 -0.3349
  836MOL0     H12814   2.768   9.547  11.341  0.2692  0.1512 -2.4167
  836MOL0     H12815   2.854   9.413  11.414 -0.7457  0.3370  1.3210
  836MOL0     H12816   2.964   9.609  11.205  0.9733 -0.2555 -0.8408
  836MOL0     H12817   3.038   9.465  11.255 -1.6785  0.5918 -3.1294
  836MOL0     H12818   2.966   9.694  11.447 -1.6698 -2.7339  0.6525
  836MOL0     H12819   3.129   9.664  11.386  0.6211 -0.7635 -1.9582
  836MOL0     H12820   3.179   9.722  11.617  0.0193 -0.3451  1.5913
  836MOL0     H12821   3.408   9.702  11.726 -0.9170  1.4517 -2.6650
  836MOL0     H12822   3.632   9.831  11.929  0.6691  0.1823 -0.7118
  836MOL0     H12823   3.838   9.908  12.044  3.5690 -0.7513  0.9851
  836MOL0     H12824   4.071   9.583  12.269 -4.1289 -0.9711 -2.0860
  836MOL0     H12825   4.138   9.583  12.105 -0.8113  1.0686 -1.3623
  836MOL0     H12826   4.287   9.768  12.158 -2.6876 -0.9614 -1.3188
  836MOL0     H12827   4.200   9.795  12.314  0.5920 -0.5532  0.2395
  836MOL0     H12828   4.381   9.689  12.394 -1.0622  1.1015 -0.7950
  836MOL0     H12829   4.265   9.555  12.378  0.7325  0.5943  2.3073
  836MOL0     H12830   4.476   9.635  12.165  1.0657 -1.8141 -1.2934
  836MOL0     H12831   4.382   9.487  12.170 -2.0062 -0.3588  1.8813
  836MOL0     H12832   4.494   9.394  12.360  0.5959 -0.5843 -0.3201
  836MOL0     H12833   4.573   9.547  12.388  0.1451  1.1350 -0.3417
  836MOL0     H12834   4.720   9.511  12.176 -0.0126  1.0367  0.9155
  836MOL0     H12835   4.729   9.382  12.284  1.2898  2.0160  0.1069
  836MOL0     H12836   4.585   9.370  12.014 -1.6466  0.5097 -0.2469
  836MOL0     H12837   4.539   9.263  12.144 -1.7196  1.5075 -1.4246
  836MOL0     H12838   4.701   9.177  11.987 -0.1251  0.5561 -0.4121
  836MOL0     H12839   4.839   9.271  12.057  0.5319 -1.2213  0.1498
  836MOL0     H12840   3.917   9.488  12.122 -1.5951 -0.5829  0.8847
  836MOL0     H12841   3.695   9.440  12.042 -2.1930  0.2142  2.4291
  836MOL0     H12842   3.358   9.277  11.736 -1.7612 -1.0917 -0.8794
  836MOL0     H12843   3.158   9.313  11.576  0.9611  0.0672 -2.5748
  836MOL0     H12844   1.524   9.527  11.209  4.2439 -4.0748  0.9165
  836MOL0     H12845   1.312   9.603  11.095  2.2259  0.3670  0.0349
  836MOL0     H12846   1.061   9.477  10.598 -0.1248 -2.9931  2.0371
  836MOL0     H12847   0.877   9.588  10.482  1.6035  2.3360  0.5337
  836MOL0     H12848   0.722   9.694  10.417 -0.8004 -0.2849  0.4448
  836MOL0     H12849   0.750   9.855  10.471 -0.4726 -0.2831 -4.3577
  836MOL0     H12850   0.508   9.890  10.492 -0.8217  0.2189 -2.4501
  836MOL0     H12851   0.477   9.716  10.460  2.2111 -2.8517 -1.3583
  836MOL0     H12852   0.529   9.739  10.226  1.5574 -0.7855  1.9042
  836MOL0     H12853   0.651   9.849  10.248 -0.3147  1.4390  0.0376
  836MOL0     H12854   0.442  10.018  10.293 -1.5449  0.1636 -0.5355
  836MOL0     H12855   0.452   9.957  10.133 -2.3702 -0.6317 -0.2380
  836MOL0     H12856   0.089   9.804  10.252  0.2053 -0.1213  0.5372
  836MOL0     H12857   0.690   9.663  10.860 -1.2242  1.6762 -3.1986
  836MOL0     H12858   0.865   9.437  11.053 -0.8847  1.4952  0.4781
  836MOL0     H12859   0.962   9.593  11.077  0.2615 -0.8016  2.3459
  836MOL0     H12860   0.786   9.581  11.071 -1.9232 -2.8517 -0.1922
  837MOL0     O12861   7.825   5.605  10.635  0.2104 -0.0387  0.0706
  837MOL0     C12862   7.796   5.724  10.632  0.8819 -0.4034  0.3356
  837MOL0     O12863   7.865   5.820  10.568  0.6862  0.1551  0.3772
  837MOL0     C12864   7.987   5.782  10.519 -0.3840  0.9431  0.5767
  837MOL0     C12865   8.017   5.780  10.384  0.1530  0.1321 -0.0495
  837MOL0     C12866   8.144   5.745  10.337 -0.3493 -0.5921  0.0489
  837MOL0     C12867   8.238   5.699  10.424 -0.5071  0.5632 -0.9558
  837MOL0     O12868   8.342   5.631  10.371  0.6222 -0.3059  0.2892
  837MOL0     C12869   8.468   5.694  10.394  0.1404 -0.9885 -0.4582
  837MOL0     C12870   8.573   5.600  10.468  0.8709 -1.0147 -0.9231
  837MOL0     C12871   8.710   5.660  10.473 -0.7122 -1.2092 -0.0806
  837MOL0     C12872   8.808   5.568  10.534  0.0158  0.0331  0.6755
  837MOL0     C12873   8.937   5.586  10.453 -0.6047  0.3763  0.0701
  837MOL0     C12874   9.037   5.482  10.505  0.2497  0.1021 -0.1187
  837MOL0     C12875   9.092   5.507  10.651 -0.0019  0.6729  0.0420
  837MOL0     C12876   9.200   5.414  10.699  0.9623  0.2283 -0.1020
  837MOL0     N12877   9.121   5.291  10.735 -0.4702  0.3030  0.3682
  837MOL0     C12878   9.119   5.173  10.666  0.4147 -0.4909 -0.2512
  837MOL0     C12879   9.055   5.088  10.761  0.2497  1.1620 -0.4216
  837MOL0     C12880   9.025   4.945  10.733  0.2016  0.5957 -0.8831
  837MOL0     C12881   9.149   4.858  10.732  0.2736  0.4413 -0.4744
  837MOL0     C12882   9.115   4.713  10.702  0.0848 -0.7570  0.9781
  837MOL0     C12883   9.222   4.613  10.732 -0.9444 -0.4712 -0.0162
  837MOL0     O12884   9.340   4.628  10.653  0.1384  0.1246  0.3166
  837MOL0     C12885   9.444   4.546  10.689  0.2242  0.9804 -0.1888
  837MOL0     C12886   9.555   4.608  10.751 -0.5062 -0.0765 -0.8513
  837MOL0     C12887   9.663   4.529  10.796  0.3650 -0.7130 -0.6255
  837MOL0     C12888   9.680   4.395  10.763  0.2256 -0.6916 -0.5462
  837MOL0     C12889   9.794   4.325  10.817 -0.4912 -0.6781  0.4388
  837MOL0     O12890   9.899   4.403  10.847  0.4378  0.0009 -0.5842
  837MOL0     C12891  10.011   4.338  10.872 -0.3713 -0.2637 -0.0217
  837MOL0     C12892  10.107   4.345  10.770 -0.0594 -0.3793  0.0806
  837MOL0     C12893  10.239   4.301  10.798  0.3121 -1.1185 -0.2576
  837MOL0     C12894  10.270   4.262  10.926  0.1634 -0.0012 -0.8747
  837MOL0     O12895  10.393   4.214  10.964 -0.5904  1.0922  0.6643
  837MOL0     C12896  10.385   4.067  10.984 -0.1815 -0.2579  0.5791
  837MOL0     C12897  10.517   4.008  10.964  0.2506  0.4200  0.0178
  837MOL0     C12898  10.511   3.861  10.996 -0.8878  0.3719 -0.2004
  837MOL0     C12899  10.639   3.783  11.032  0.3476 -0.3321  0.4171
  837MOL0     C12900  10.607   3.635  11.062  0.0134  0.3258 -0.2751
  837MOL0     C12901  10.746   3.565  11.099  0.3226 -0.2164  0.8444
  837MOL0     C12902  10.739   3.415  11.129 -0.0023  0.1009  0.1593
  837MOL0     C12903  10.676   3.337  11.016  0.4771 -0.1596 -0.6021
  837MOL0    Cl12904  10.802   3.335  10.894 -0.0270  0.2960  0.1713
  837MOL0     C12905  10.178   4.269  11.036 -0.4434 -0.3541 -0.4128
  837MOL0     C12906  10.049   4.308  11.009  0.2601  0.2183 -0.4670
  837MOL0     O12907   9.795   4.206  10.807 -0.0344  0.3306  0.6187
  837MOL0     C12908   9.572   4.334  10.702 -1.0861  0.0406 -0.3011
  837MOL0     C12909   9.455   4.407  10.670 -0.7299  1.2653  1.1225
  837MOL0     N12910   9.032   5.159  10.883  0.3285  0.8266  0.2937
  837MOL0     N12911   9.072   5.274  10.856 -0.2040  0.4774  0.1422
  837MOL0     C12912   8.219   5.700  10.561 -0.3193  0.1799 -0.2965
  837MOL0     C12913   8.095   5.747  10.612 -0.6505 -0.1372  0.5893
  837MOL0     C12914   7.676   5.770  10.713 -0.1013  0.2937  0.1149
  837MOL0     C12915   7.645   5.915  10.708  0.1622 -0.0909 -0.0857
  837MOL0     C12916   7.531   5.958  10.774  0.7044  0.0420 -0.0541
  837MOL0     C12917   7.443   5.876  10.838  0.0493  0.6938 -0.3382
  837MOL0     O12918   7.321   5.927  10.878  0.5171 -0.2267 -0.9172
  837MOL0     C12919   7.268   5.876  10.997  0.6403  0.7345  0.8100
  837MOL0     C12920   7.169   5.967  11.060  0.7771 -0.5003  0.2999
  837MOL0     C12921   7.042   5.968  10.977 -0.2528  0.6177  0.2396
  837MOL0     C12922   6.915   6.033  11.038 -0.2521  0.1511  0.4057
  837MOL0     C12923   6.802   6.065  10.948 -0.5023  0.3148 -0.3370
  837MOL0     C12924   6.706   6.097  10.879  0.5282 -0.6747  0.0423
  837MOL0     C12925   7.473   5.741  10.852  0.2330  0.2657 -0.3731
  837MOL0     C12926   7.580   5.684  10.789 -0.2947  0.5992  0.5602
  837MOL0     C12927   7.619   5.539  10.832  0.8240 -0.5243 -0.1807
  837MOL0     H12928   7.951   5.807  10.303  0.7880 -0.6065 -0.8403
  837MOL0     H12929   8.154   5.754  10.229  0.2846  3.5345  0.2622
  837MOL0     H12930   8.517   5.726  10.302  2.0191 -0.1952  0.7534
  837MOL0     H12931   8.452   5.780  10.459  0.9740 -0.7564 -0.5432
  837MOL0     H12932   8.576   5.503  10.417  0.5345 -2.3533  1.4662
  837MOL0     H12933   8.532   5.592  10.569  3.6063  5.2295  1.2313
  837MOL0     H12934   8.708   5.755  10.527 -2.7173 -0.2708 -1.6568
  837MOL0     H12935   8.727   5.678  10.366  0.5263  1.2528  0.4533
  837MOL0     H12936   8.829   5.600  10.637  1.4832  3.1871 -0.4679
  837MOL0     H12937   8.775   5.464  10.530 -0.1054  0.0961  0.0294
  837MOL0     H12938   8.925   5.555  10.349  0.4996  0.0692  0.0216
  837MOL0     H12939   8.981   5.686  10.456  0.8510 -0.2522  2.0436
  837MOL0     H12940   8.997   5.381  10.508 -0.6269  0.4641  1.1520
  837MOL0     H12941   9.128   5.488  10.443  0.1607 -0.0342 -0.2626
  837MOL0     H12942   9.011   5.520  10.723 -1.5700  1.3723 -1.7424
  837MOL0     H12943   9.150   5.600  10.650  3.8146 -1.4707  0.8570
  837MOL0     H12944   9.283   5.401  10.629 -0.1473  0.3125 -1.4819
  837MOL0     H12945   9.241   5.451  10.793  0.7030  0.5977 -0.1272
  837MOL0     H12946   9.155   5.144  10.568 -0.0464 -1.4687 -0.1401
  837MOL0     H12947   8.965   4.904  10.815  0.6658  0.9118 -0.3807
  837MOL0     H12948   8.976   4.931  10.636  3.6259 -0.9020 -2.5575
  837MOL0     H12949   9.225   4.893  10.662  1.3114 -0.7403  0.0267
  837MOL0     H12950   9.211   4.857  10.821 -0.7861 -1.6891  0.3250
  837MOL0     H12951   9.086   4.700  10.597  0.5915 -2.3219  0.9954
  837MOL0     H12952   9.019   4.689  10.749 -1.5406  1.5018 -0.9928
  837MOL0     H12953   9.186   4.511  10.723 -1.8983 -0.3952  2.3109
  837MOL0     H12954   9.255   4.618  10.836  1.1872 -3.2955 -0.4683
  837MOL0     H12955   9.576   4.710  10.781  0.9438 -0.1353 -1.5787
  837MOL0     H12956   9.750   4.571  10.845  0.7117 -1.1024 -0.9003
  837MOL0     H12957  10.083   4.382  10.671  3.6753  1.0892 -0.4718
  837MOL0     H12958  10.324   4.292  10.730  1.4256 -1.1190  1.0882
  837MOL0     H12959  10.347   4.039  11.083 -0.7618 -0.3636  0.3303
  837MOL0     H12960  10.321   4.027  10.904  0.6882 -1.6147  0.5279
  837MOL0     H12961  10.554   4.024  10.863 -1.4670  1.9772 -0.4103
  837MOL0     H12962  10.581   4.053  11.040 -0.8296  1.1820  0.4926
  837MOL0     H12963  10.446   3.848  11.082  0.9110  1.4668  1.4065
  837MOL0     H12964  10.460   3.811  10.913 -0.8250  0.1718 -0.1198
  837MOL0     H12965  10.684   3.834  11.117 -1.8046 -1.4575  2.3448
  837MOL0     H12966  10.704   3.787  10.944 -0.7854  0.9942 -0.3989
  837MOL0     H12967  10.545   3.594  10.982 -1.6734 -0.0852  1.1882
  837MOL0     H12968  10.543   3.632  11.151 -0.0471  3.1090 -0.1427
  837MOL0     H12969  10.814   3.577  11.014  0.1531  1.1623  0.8869
  837MOL0     H12970  10.782   3.609  11.192  2.6776 -2.2810  1.0278
  837MOL0     H12971  10.660   3.406  11.204 -0.8491  1.7758 -0.4816
  837MOL0     H12972  10.836   3.379  11.166 -0.4729 -0.3429  0.9943
  837MOL0     H12973  10.651   3.235  11.048 -1.5883  0.6143  0.4548
  837MOL0     H12974  10.597   3.388  10.961  0.9095 -0.3367 -1.4032
  837MOL0     H12975  10.200   4.241  11.139 -4.9380  1.4165  1.2797
  837MOL0     H12976   9.985   4.312  11.096  1.0920 -2.3267  0.3519
  837MOL0     H12977   9.562   4.226  10.694 -1.0737  0.0903 -1.0522
  837MOL0     H12978   9.371   4.354  10.626  0.8202 -2.0035  1.7432
  837MOL0     H12979   8.289   5.666  10.637 -1.6668  0.0110  0.9091
  837MOL0     H12980   8.089   5.756  10.720 -2.6246 -2.0791  0.7212
  837MOL0     H12981   7.710   5.979  10.648 -1.2033 -1.0144 -2.6921
  837MOL0     H12982   7.501   6.062  10.765 -0.5870 -0.3608 -0.6525
  837MOL0     H12983   7.346   5.854  11.070 -0.5835 -0.8192  1.7102
  837MOL0     H12984   7.228   5.778  10.971  2.9434 -0.3444  1.1197
  837MOL0     H12985   7.210   6.066  11.078  2.0946 -0.3673 -2.7455
  837MOL0     H12986   7.144   5.914  11.152 -1.8589 -2.5898 -1.4635
  837MOL0     H12987   7.016   5.865  10.950  0.1956  0.4408  0.4636
  837MOL0     H12988   7.063   6.013  10.879 -0.7108  0.2658 -0.0215
  837MOL0     H12989   6.871   5.978  11.121 -1.1260 -2.0812 -1.4525
  837MOL0     H12990   6.949   6.132  11.072 -1.3130  1.9351 -3.1577
  837MOL0     H12991   6.625   6.141  10.825  0.5286  1.0884  1.3624
  837MOL0     H12992   7.417   5.678  10.921 -0.9821  1.0537 -0.6207
  837MOL0     H12993   7.537   5.495  10.890  0.0744  1.0809  0.0120
  837MOL0     H12994   7.636   5.483  10.740  0.8204  1.2044 -1.2684
  837MOL0     H12995   7.716   5.537  10.883 -0.1345  2.1218  1.9578
  838MOL0     O12996   8.758   8.625   3.639  0.2140 -0.1150 -0.3324
  838MOL0     C12997   8.715   8.601   3.757 -0.0126 -0.0710 -0.4237
  838MOL0     O12998   8.751   8.681   3.868 -0.5509 -0.9288 -0.6883
  838MOL0     C12999   8.850   8.777   3.855  0.0702  0.5117  0.2400
  838MOL0     C13000   8.818   8.911   3.835  0.0215  0.0222 -0.5860
  838MOL0     C13001   8.911   9.010   3.809 -1.0123 -0.6293  0.7875
  838MOL0     C13002   9.045   8.974   3.794  0.0030 -0.0754  0.1104
  838MOL0     O13003   9.145   9.065   3.767  0.2192 -0.1931  0.1104
  838MOL0     C13004   9.210   9.040   3.641  0.4326  0.8322 -0.1431
  838MOL0     C13005   9.351   9.057   3.657 -0.2352  0.6345  0.3961
  838MOL0     C13006   9.425   9.057   3.519  0.2758 -0.7319 -0.2585
  838MOL0     C13007   9.575   9.068   3.527  0.2112  0.4692 -0.0781
  838MOL0     C13008   9.631   9.136   3.397  0.2861  0.1004  0.2824
  838MOL0     C13009   9.777   9.143   3.384 -0.4952 -0.5791  0.8743
  838MOL0     C13010   9.811   9.232   3.267  0.4944  0.7961 -0.1723
  838MOL0     C13011   9.950   9.217   3.213  1.1644  0.6691 -0.5129
  838MOL0     N13012   9.966   9.321   3.107 -0.3148 -1.2659  0.3105
  838MOL0     C13013  10.051   9.298   3.005 -0.7988 -0.2806 -0.8668
  838MOL0     C13014  10.059   9.419   2.941 -0.6337  0.6610  0.2877
  838MOL0     C13015  10.137   9.468   2.820  0.0412  0.4381 -0.0189
  838MOL0     C13016  10.284   9.491   2.851  0.2311  0.0177 -0.2658
  838MOL0     C13017  10.368   9.487   2.727  0.1543  0.1792 -0.0103
  838MOL0     C13018  10.514   9.505   2.774  0.3306  0.0257 -0.3957
  838MOL0     O13019  10.598   9.487   2.656  1.6554  0.3026  0.2723
  838MOL0     C13020  10.729   9.478   2.668  0.2642  0.1409 -0.4311
  838MOL0     C13021  10.798   9.528   2.778 -0.5653  0.2158 -0.8146
  838MOL0     C13022  10.939   9.531   2.784  0.1348 -0.3738 -0.3125
  838MOL0     C13023  11.017   9.489   2.672  0.2968  0.5760  0.2241
  838MOL0     C13024  11.158   9.500   2.659  0.2267  1.0225  0.3432
  838MOL0     O13025  11.216   9.494   2.532 -0.1066 -0.1458  0.5931
  838MOL0     C13026  11.349   9.505   2.533 -0.4588  0.6534  0.3459
  838MOL0     C13027  11.428   9.614   2.582 -0.0353  0.0990  0.0390
  838MOL0     C13028  11.565   9.608   2.594 -1.1976  1.2188 -0.8789
  838MOL0     C13029  11.639   9.501   2.551 -0.6170  0.3761 -0.0793
  838MOL0     O13030  11.774   9.475   2.558 -0.4258  0.3210  0.5591
  838MOL0     C13031  11.838   9.533   2.668 -0.0679 -0.3756 -0.5096
  838MOL0     C13032  11.936   9.441   2.742 -0.7540  0.3264  0.7078
  838MOL0     C13033  12.066   9.420   2.671 -0.3698  0.1374  0.1945
  838MOL0     C13034  12.167   9.535   2.702 -0.0988  0.0332  0.5099
  838MOL0     C13035  12.301   9.544   2.625  1.1052  0.7296  0.0631
  838MOL0     C13036  12.379   9.412   2.641 -0.7361  0.2524 -0.2439
  838MOL0     C13037  12.514   9.406   2.556  0.9415  0.0488 -0.1163
  838MOL0     C13038  12.487   9.370   2.410  0.2745 -0.3204 -0.1450
  838MOL0    Cl13039  12.643   9.391   2.314 -0.1171 -0.5544  0.2789
  838MOL0     C13040  11.573   9.398   2.488  0.3766 -0.5655 -0.1122
  838MOL0     C13041  11.429   9.397   2.483  0.1128 -0.9248 -0.0892
  838MOL0     O13042  11.220   9.505   2.767  0.7420  0.2508  0.3382
  838MOL0     C13043  10.947   9.434   2.562  0.6882 -0.5608  0.6255
  838MOL0     C13044  10.805   9.430   2.562  0.2317  0.2294  0.1456
  838MOL0     N13045   9.966   9.506   2.998  0.3484  0.5086  0.0179
  838MOL0     N13046   9.923   9.452   3.109  0.9248 -0.1466  0.6952
  838MOL0     C13047   9.081   8.841   3.829  1.0365 -1.0570 -0.1312
  838MOL0     C13048   8.984   8.748   3.860  0.1364  0.0538 -0.6361
  838MOL0     C13049   8.616   8.489   3.769  0.1490 -0.4734  0.0513
  838MOL0     C13050   8.494   8.517   3.838 -0.9725  0.4144  0.5598
  838MOL0     C13051   8.408   8.414   3.854 -0.2123 -0.3462  0.0643
  838MOL0     C13052   8.424   8.287   3.803 -0.5815 -0.6112  0.1055
  838MOL0     O13053   8.339   8.181   3.814 -0.6627 -0.2398  0.4579
  838MOL0     C13054   8.215   8.186   3.894 -0.0926 -0.1302  0.3536
  838MOL0     C13055   8.264   8.170   4.045 -0.0467  1.0370  0.7503
  838MOL0     C13056   8.289   8.020   4.080 -0.2383 -0.0125  0.2871
  838MOL0     C13057   8.183   7.909   4.052 -0.0936 -0.2909 -0.2537
  838MOL0     C13058   8.058   7.959   4.098 -0.3173  0.4534 -0.2443
  838MOL0     C13059   7.952   8.014   4.126 -0.3076  0.0216  1.0832
  838MOL0     C13060   8.540   8.266   3.727 -0.1921  0.1714 -0.3457
  838MOL0     C13061   8.641   8.365   3.715 -0.6352 -0.4121 -0.1053
  838MOL0     C13062   8.760   8.325   3.634 -0.0461  0.3891  0.4072
  838MOL0     H13063   8.715   8.946   3.839 -0.1965 -0.6330 -0.2694
  838MOL0     H13064   8.883   9.115   3.800  1.1125 -0.0621  0.2265
  838MOL0     H13065   9.196   8.939   3.601  1.0184  0.8095 -0.2870
  838MOL0     H13066   9.167   9.105   3.564  0.9917 -1.8500 -2.9053
  838MOL0     H13067   9.385   8.975   3.721  0.1846 -0.7622 -1.5345
  838MOL0     H13068   9.381   9.153   3.702  3.2553  0.4730 -1.1822
  838MOL0     H13069   9.372   9.130   3.458 -2.1991 -1.7653  0.5387
  838MOL0     H13070   9.400   8.963   3.471 -1.2911 -0.6881  0.3999
  838MOL0     H13071   9.605   9.114   3.622 -0.1774 -1.2543  0.9273
  838MOL0     H13072   9.613   8.966   3.534 -1.2776 -0.0235  1.5845
  838MOL0     H13073   9.595   9.071   3.317  1.4566 -0.3365  0.0883
  838MOL0     H13074   9.588   9.236   3.394  1.0735  0.6614  3.5118
  838MOL0     H13075   9.821   9.180   3.477  0.6394 -0.4078  0.2880
  838MOL0     H13076   9.808   9.039   3.370 -0.1656 -0.6366  1.9809
  838MOL0     H13077   9.800   9.333   3.306 -2.1543 -0.4610  2.7779
  838MOL0     H13078   9.734   9.214   3.191 -0.1551  0.3054  0.5849
  838MOL0     H13079  10.029   9.228   3.287  1.5202  1.1126 -0.9528
  838MOL0     H13080   9.958   9.115   3.174  0.6997  0.4859 -0.1374
  838MOL0     H13081  10.116   9.213   2.986 -0.8616 -0.2868 -1.0516
  838MOL0     H13082  10.124   9.394   2.741  0.8783 -0.0765  0.3101
  838MOL0     H13083  10.096   9.558   2.774 -2.1857 -0.3838  0.2372
  838MOL0     H13084  10.294   9.587   2.903 -0.9439 -0.8629  1.6727
  838MOL0     H13085  10.314   9.412   2.921  0.4273  0.5765  0.2947
  838MOL0     H13086  10.325   9.576   2.680 -0.2942  0.0117  0.0799
  838MOL0     H13087  10.351   9.401   2.662 -1.1519 -1.1473  1.9753
  838MOL0     H13088  10.534   9.421   2.841 -0.8061 -1.0516 -1.3556
  838MOL0     H13089  10.525   9.601   2.826 -1.5245  0.5979 -0.9692
  838MOL0     H13090  10.745   9.574   2.861  1.2921  0.4265  0.3197
  838MOL0     H13091  10.987   9.562   2.876  0.0329  1.5210 -0.8491
  838MOL0     H13092  11.372   9.695   2.627 -2.3574 -1.0321 -0.6405
  838MOL0     H13093  11.622   9.687   2.642 -1.9930 -0.5453  3.3476
  838MOL0     H13094  11.888   9.621   2.625  0.2779  0.6561  1.8738
  838MOL0     H13095  11.761   9.551   2.743  0.7182 -0.4180  0.3111
  838MOL0     H13096  11.972   9.487   2.835  2.4866 -1.3522  0.4441
  838MOL0     H13097  11.886   9.346   2.759  0.4173 -0.9186 -2.2200
  838MOL0     H13098  12.113   9.333   2.717  0.5139 -0.5519 -1.8991
  838MOL0     H13099  12.051   9.410   2.563  2.1825 -1.2690 -0.0969
  838MOL0     H13100  12.185   9.523   2.809 -1.7941 -1.6492  0.6547
  838MOL0     H13101  12.123   9.634   2.686 -1.7155 -0.7261  0.0431
  838MOL0     H13102  12.354   9.631   2.664  1.0762 -0.2923  2.6023
  838MOL0     H13103  12.272   9.548   2.520 -1.5468  1.4329  0.7387
  838MOL0     H13104  12.407   9.408   2.747 -1.7076 -1.2563 -0.0174
  838MOL0     H13105  12.320   9.324   2.615 -0.4881  0.3145 -1.0363
  838MOL0     H13106  12.581   9.330   2.596 -1.2489 -0.7536  2.2902
  838MOL0     H13107  12.555   9.508   2.552 -0.5825  0.6953 -0.1097
  838MOL0     H13108  12.456   9.265   2.412  2.4176 -1.0714 -1.6369
  838MOL0     H13109  12.401   9.429   2.378  0.0157 -0.0345  1.0431
  838MOL0     H13110  11.627   9.311   2.450  0.6084 -0.5445  0.1621
  838MOL0     H13111  11.378   9.308   2.448  0.5758 -1.5652  0.8013
  838MOL0     H13112  11.001   9.406   2.472 -0.3239 -1.0411  0.1497
  838MOL0     H13113  10.756   9.385   2.476  1.2846 -0.3020 -0.1960
  838MOL0     H13114   9.187   8.825   3.849  1.2986 -1.0189 -1.4148
  838MOL0     H13115   9.005   8.646   3.892 -1.1954  0.4564  1.7626
  838MOL0     H13116   8.476   8.612   3.888  4.1481  1.2771  1.3318
  838MOL0     H13117   8.319   8.442   3.910 -0.6185  1.0445 -1.1970
  838MOL0     H13118   8.140   8.116   3.855 -0.2461 -0.0527  0.5051
  838MOL0     H13119   8.178   8.289   3.893  1.9080  0.7047  2.8409
  838MOL0     H13120   8.190   8.217   4.110 -3.3329 -1.9348 -0.5345
  838MOL0     H13121   8.360   8.219   4.063  1.0597 -0.8925  0.3871
  838MOL0     H13122   8.297   8.016   4.189 -1.7655 -0.1825  0.4136
  838MOL0     H13123   8.383   7.987   4.037  0.4801 -1.1982  2.5975
  838MOL0     H13124   8.162   7.886   3.948 -2.1824 -0.8283  0.2513
  838MOL0     H13125   8.204   7.813   4.099 -0.8031 -0.5385 -0.4335
  838MOL0     H13126   7.857   8.047   4.163 -1.0770 -0.1617 -0.6232
  838MOL0     H13127   8.543   8.175   3.667 -2.6331  0.7718 -1.4966
  838MOL0     H13128   8.760   8.216   3.625 -2.1106  0.3865 -0.1720
  838MOL0     H13129   8.759   8.377   3.537  0.8824  3.1470  1.7714
  838MOL0     H13130   8.855   8.355   3.678  0.5804  1.0251 -1.2864
  839MOL0     O13131   8.147   6.972   6.841 -0.0955 -0.0005 -0.3155
  839MOL0     C13132   8.123   6.963   6.727 -1.0026  0.5993  0.2786
  839MOL0     O13133   8.212   6.999   6.629  0.5265 -0.3566 -0.0762
  839MOL0     C13134   8.342   7.009   6.670 -0.7511 -0.9263  0.4557
  839MOL0     C13135   8.424   6.896   6.654 -0.2597 -1.3013 -0.1464
  839MOL0     C13136   8.556   6.903   6.710  0.4186 -0.0532 -0.1271
  839MOL0     C13137   8.608   7.022   6.775 -0.1588  0.7979 -0.5880
  839MOL0     O13138   8.733   7.036   6.831  0.5898 -0.4176 -0.4668
  839MOL0     C13139   8.822   6.921   6.811 -0.0778 -0.1148  0.1862
  839MOL0     C13140   8.898   6.922   6.682 -0.1216 -0.8871  0.2274
  839MOL0     C13141   8.994   7.046   6.674  0.3118 -0.2246  0.5942
  839MOL0     C13142   9.116   7.029   6.582 -0.1024  0.2170 -0.5441
  839MOL0     C13143   9.199   7.154   6.551  0.4213 -0.0511 -0.3810
  839MOL0     C13144   9.330   7.121   6.493  0.1152  1.3314 -0.4980
  839MOL0     C13145   9.309   7.095   6.337  0.4807  0.4094  0.6554
  839MOL0     C13146   9.442   7.065   6.261  0.4084  0.0152 -0.6901
  839MOL0     N13147   9.516   7.184   6.232  0.1730  0.3209 -0.2535
  839MOL0     C13148   9.575   7.270   6.320  0.0844  0.3208  0.3406
  839MOL0     C13149   9.599   7.386   6.254  0.0622 -0.4804  0.1507
  839MOL0     C13150   9.680   7.503   6.311  0.6397 -0.3623 -0.2475
  839MOL0     C13151   9.645   7.637   6.263  0.5696  0.0902 -0.1217
  839MOL0     C13152   9.754   7.735   6.293  0.1938  0.1210  0.3256
  839MOL0     C13153   9.883   7.723   6.205  0.0352 -0.8548  0.0160
  839MOL0     O13154   9.995   7.756   6.285 -0.3235 -0.3138 -0.3934
  839MOL0     C13155  10.098   7.807   6.214  0.2023  0.2067 -0.6582
  839MOL0     C13156  10.106   7.941   6.171  0.2247 -0.9910 -0.1367
  839MOL0     C13157  10.228   7.990   6.107  0.4584  0.5503  0.2690
  839MOL0     C13158  10.331   7.892   6.081  0.2635  0.4800  0.0897
  839MOL0     C13159  10.448   7.934   6.008  0.4664 -0.4999  0.5234
  839MOL0     O13160  10.527   7.833   5.975 -0.4416 -0.7098 -0.4072
  839MOL0     C13161  10.661   7.861   5.945 -0.1507  0.1957  1.2614
  839MOL0     C13162  10.751   7.906   6.041 -0.5588  0.3426 -0.1795
  839MOL0     C13163  10.881   7.938   5.996 -0.1084  0.1428 -1.0075
  839MOL0     C13164  10.920   7.937   5.865  0.4648  0.5399  0.1224
  839MOL0     O13165  11.057   7.963   5.826 -0.7039 -0.1368 -0.6630
  839MOL0     C13166  11.145   8.028   5.918  0.6189  0.3767  0.6901
  839MOL0     C13167  11.272   8.043   5.836  1.5255  0.1475  0.4862
  839MOL0     C13168  11.396   8.072   5.927  0.0784 -0.2140 -0.4610
  839MOL0     C13169  11.521   8.098   5.846  0.9314 -0.6115  0.2815
  839MOL0     C13170  11.648   8.102   5.938  0.0639 -0.0919 -0.1167
  839MOL0     C13171  11.770   8.165   5.881  0.2590  0.3910 -0.0499
  839MOL0     C13172  11.822   8.085   5.764  0.4065  0.2678  0.0211
  839MOL0     C13173  11.886   8.164   5.654  0.1739 -0.0394 -0.5560
  839MOL0    Cl13174  12.043   8.225   5.736  0.3400  0.2410 -0.0910
  839MOL0     C13175  10.824   7.903   5.768  0.7572 -0.9295 -0.8285
  839MOL0     C13176  10.695   7.864   5.805  0.4683 -0.0404 -0.9552
  839MOL0     O13177  10.470   8.051   5.983  0.0610  0.5090 -0.1774
  839MOL0     C13178  10.309   7.759   6.120  0.0860  1.3221 -0.0080
  839MOL0     C13179  10.194   7.716   6.180  0.5662  0.7503 -1.1895
  839MOL0     N13180   9.555   7.375   6.122 -0.2254 -0.2090 -0.3679
  839MOL0     N13181   9.511   7.253   6.113  0.1596 -0.0340  0.9759
  839MOL0     C13182   8.525   7.130   6.779 -0.7002 -0.4708  0.2151
  839MOL0     C13183   8.397   7.128   6.725  0.0264  0.1763 -0.1676
  839MOL0     C13184   8.001   6.889   6.689  0.4930  0.0248 -0.2749
  839MOL0     C13185   7.983   6.859   6.552  0.1030 -0.3233  0.0034
  839MOL0     C13186   7.880   6.776   6.507  0.4711 -0.1883 -0.6667
  839MOL0     C13187   7.790   6.719   6.603 -0.4651 -0.0259  1.0273
  839MOL0     O13188   7.682   6.644   6.568 -0.5950  0.3085 -0.0240
  839MOL0     C13189   7.665   6.578   6.443 -1.2899  0.6089 -0.2509
  839MOL0     C13190   7.785   6.476   6.416  1.2578  0.2757 -0.1391
  839MOL0     C13191   7.800   6.461   6.263 -0.3488  0.2247 -0.3905
  839MOL0     C13192   7.930   6.383   6.232 -0.2337  0.0863 -0.2590
  839MOL0     C13193   8.053   6.451   6.273 -0.6725 -0.0181  0.9349
  839MOL0     C13194   8.143   6.527   6.288 -0.2765 -0.2131  0.1208
  839MOL0     C13195   7.795   6.765   6.730 -0.1712  0.0870 -0.3060
  839MOL0     C13196   7.898   6.849   6.779  0.6453  0.3374  0.8817
  839MOL0     C13197   7.881   6.900   6.916 -0.2344  0.5639 -0.0168
  839MOL0     H13198   8.375   6.805   6.620 -1.8211 -0.0113 -1.5375
  839MOL0     H13199   8.608   6.808   6.701 -1.0929 -1.0098  0.9568
  839MOL0     H13200   8.904   6.931   6.884 -0.3152 -1.7989  0.7214
  839MOL0     H13201   8.773   6.826   6.835  1.9490 -0.8701  1.6157
  839MOL0     H13202   8.819   6.920   6.607  1.4656 -3.8860 -1.5592
  839MOL0     H13203   8.948   6.825   6.670 -0.1279 -0.7144 -1.5701
  839MOL0     H13204   9.027   7.074   6.775  0.5545  2.3613 -0.1363
  839MOL0     H13205   8.935   7.131   6.638  1.6937  0.2739 -0.6322
  839MOL0     H13206   9.170   6.948   6.632 -0.7787 -0.5709 -1.0807
  839MOL0     H13207   9.080   6.987   6.488  0.8799  0.7812 -1.1911
  839MOL0     H13208   9.144   7.232   6.498  3.4002 -0.1265 -3.9855
  839MOL0     H13209   9.224   7.194   6.650  1.4606 -0.6997 -0.3552
  839MOL0     H13210   9.406   7.198   6.505  0.7555  0.5710  0.5071
  839MOL0     H13211   9.353   7.024   6.539 -4.2982  0.4536  0.3604
  839MOL0     H13212   9.274   7.191   6.297 -1.5401 -0.9465 -1.0317
  839MOL0     H13213   9.235   7.018   6.314 -0.7046  2.4933 -3.6181
  839MOL0     H13214   9.500   6.999   6.327 -0.3467 -1.0668 -1.0827
  839MOL0     H13215   9.417   7.010   6.170 -0.7099  1.0692 -1.0387
  839MOL0     H13216   9.597   7.245   6.423 -2.3901  1.9202  1.3495
  839MOL0     H13217   9.675   7.497   6.420  2.6538  3.8085  0.2761
  839MOL0     H13218   9.782   7.482   6.277  0.2858 -1.3818 -0.7145
  839MOL0     H13219   9.631   7.637   6.154 -0.2497  3.4506 -0.1010
  839MOL0     H13220   9.549   7.669   6.303 -0.5430 -3.3138  0.3264
  839MOL0     H13221   9.782   7.711   6.396 -1.1362  1.0698  0.9367
  839MOL0     H13222   9.716   7.837   6.279 -1.3817 -0.4213  0.4708
  839MOL0     H13223   9.877   7.784   6.114  3.5097 -1.0818 -0.5180
  839MOL0     H13224   9.897   7.630   6.148 -0.0869  0.7453 -2.8147
  839MOL0     H13225  10.039   8.024   6.191  3.7815  2.1686 -0.1991
  839MOL0     H13226  10.228   8.096   6.082 -0.7272  0.4322 -0.2810
  839MOL0     H13227  10.727   7.905   6.147  0.8630  3.8875  0.2934
  839MOL0     H13228  10.950   7.964   6.076  0.1880 -3.8314  0.2275
  839MOL0     H13229  11.115   8.132   5.938  0.7977  0.9730 -1.8118
  839MOL0     H13230  11.155   7.972   6.011 -0.4154  0.8847  1.1192
  839MOL0     H13231  11.293   7.956   5.773  0.8190 -0.6119  1.2673
  839MOL0     H13232  11.275   8.125   5.764 -0.7099 -0.3085 -0.2007
  839MOL0     H13233  11.377   8.166   5.979 -2.4596 -0.5374 -0.6919
  839MOL0     H13234  11.409   7.989   5.997 -0.8636 -0.2428 -0.3065
  839MOL0     H13235  11.511   8.191   5.789 -0.4981 -1.3984 -0.8038
  839MOL0     H13236  11.532   8.023   5.767 -4.6493  2.1490 -3.7547
  839MOL0     H13237  11.658   8.001   5.980 -0.5336  0.4946  1.5597
  839MOL0     H13238  11.632   8.160   6.030  0.8633 -0.5580  0.3220
  839MOL0     H13239  11.741   8.265   5.847  0.9323  1.0087  1.1401
  839MOL0     H13240  11.849   8.174   5.955  1.3285 -0.0629 -1.1016
  839MOL0     H13241  11.746   8.027   5.711  0.6141 -0.8138  0.8509
  839MOL0     H13242  11.880   8.000   5.804 -1.2511 -1.7473 -1.6294
  839MOL0     H13243  11.897   8.101   5.566  1.6571 -3.1730  1.6658
  839MOL0     H13244  11.814   8.241   5.626 -1.6466 -1.7027 -0.6610
  839MOL0     H13245  10.852   7.905   5.663 -2.4833 -0.7350 -1.7806
  839MOL0     H13246  10.616   7.838   5.736  0.6218  4.0446 -2.9727
  839MOL0     H13247  10.382   7.680   6.110 -1.0805 -0.0378  1.6151
  839MOL0     H13248  10.186   7.610   6.200 -1.8076  0.7216 -1.9816
  839MOL0     H13249   8.564   7.222   6.822  2.3045 -2.6551  2.5592
  839MOL0     H13250   8.342   7.222   6.728 -0.6142 -0.2138  0.8492
  839MOL0     H13251   8.052   6.891   6.475 -1.6177  2.2771 -0.5887
  839MOL0     H13252   7.869   6.773   6.399  1.9199  1.4233 -0.9139
  839MOL0     H13253   7.662   6.661   6.372 -0.8504 -0.9244 -2.1506
  839MOL0     H13254   7.571   6.522   6.444 -1.1935  0.3948 -1.3559
  839MOL0     H13255   7.749   6.384   6.462 -2.7419  2.5678  1.8655
  839MOL0     H13256   7.883   6.494   6.460  0.8986 -0.7996  1.1708
  839MOL0     H13257   7.803   6.564   6.226 -0.7976  1.1965  2.0233
  839MOL0     H13258   7.717   6.396   6.234 -1.1411  1.6962 -1.6034
  839MOL0     H13259   7.922   6.285   6.281  0.6128  0.8872  1.6034
  839MOL0     H13260   7.940   6.345   6.130 -1.1844 -1.8471  0.3103
  839MOL0     H13261   8.221   6.596   6.311 -2.6881  2.4904  0.7640
  839MOL0     H13262   7.717   6.741   6.801  1.0569  0.8554  1.3728
  839MOL0     H13263   7.950   6.846   6.982 -0.9271  0.0028  0.2611
  839MOL0     H13264   7.900   7.007   6.929  0.5437  0.3086  1.1066
  839MOL0     H13265   7.777   6.882   6.945 -0.6198  3.7981  0.9464
  840MOL0     O13266   1.905   3.454   2.718  0.2935 -0.1988  0.3519
  840MOL0     C13267   1.807   3.398   2.755  0.2073  0.5059  0.0463
  840MOL0     O13268   1.788   3.353   2.884 -0.1797 -0.4079 -0.2616
  840MOL0     C13269   1.879   3.357   2.980 -0.5535 -0.1902  0.0187
  840MOL0     C13270   1.843   3.405   3.106  0.8215  0.7897 -0.4139
  840MOL0     C13271   1.936   3.415   3.209 -0.4839  0.3948  0.7079
  840MOL0     C13272   2.067   3.375   3.186  0.5290 -0.6096 -0.9630
  840MOL0     O13273   2.165   3.384   3.286  0.5076  0.5556  0.2759
  840MOL0     C13274   2.211   3.516   3.313  0.4132  0.3838 -0.5627
  840MOL0     C13275   2.359   3.520   3.304  0.5840 -0.8237  0.2808
  840MOL0     C13276   2.411   3.511   3.155  0.7671  0.2413 -0.1742
  840MOL0     C13277   2.569   3.536   3.155  0.5639  0.1848  0.2284
  840MOL0     C13278   2.622   3.531   3.015 -0.1182 -0.6251  0.8626
  840MOL0     C13279   2.771   3.555   3.004 -0.4362 -0.7294  0.1404
  840MOL0     C13280   2.858   3.427   3.029  0.8574 -0.5509  0.0971
  840MOL0     C13281   2.887   3.368   3.169  0.2985  0.0517 -0.3623
  840MOL0     N13282   2.965   3.244   3.151 -0.2369  0.8832  0.1905
  840MOL0     C13283   2.918   3.115   3.111  0.4385  0.0619 -0.7615
  840MOL0     C13284   3.027   3.037   3.124 -0.3878  0.4745 -0.6181
  840MOL0     C13285   3.057   2.888   3.099 -0.2355  0.7302 -0.2823
  840MOL0     C13286   3.139   2.824   3.210  0.1750 -0.9118 -0.6031
  840MOL0     C13287   3.131   2.667   3.206  0.9933 -0.7468  0.0773
  840MOL0     C13288   3.239   2.603   3.289 -0.9109  0.1856 -1.0481
  840MOL0     O13289   3.360   2.668   3.258 -0.6206 -0.8374 -0.9965
  840MOL0     C13290   3.465   2.654   3.352  0.0273  0.3432 -0.2506
  840MOL0     C13291   3.545   2.766   3.380  0.2605  0.0160  0.1113
  840MOL0     C13292   3.652   2.770   3.472 -0.5200 -0.5080 -0.4844
  840MOL0     C13293   3.681   2.655   3.545  0.5723  1.2610  0.7724
  840MOL0     C13294   3.786   2.653   3.644 -0.6453 -0.2709  0.3688
  840MOL0     O13295   3.818   2.538   3.697  0.5377  0.8198 -0.3259
  840MOL0     C13296   3.927   2.530   3.776  0.3555 -0.6151 -0.0959
  840MOL0     C13297   3.922   2.487   3.910  0.4182 -0.0634 -1.0818
  840MOL0     C13298   4.038   2.472   3.992 -0.0184  0.2208 -0.3929
  840MOL0     C13299   4.164   2.490   3.925 -0.4988 -0.0352  0.4333
  840MOL0     O13300   4.283   2.480   3.981 -0.7931  0.2786 -0.4570
  840MOL0     C13301   4.369   2.382   3.928 -0.0529  0.0560  0.8181
  840MOL0     C13302   4.503   2.404   4.004  0.2573 -0.0593  0.7193
  840MOL0     C13303   4.605   2.300   3.952 -0.0308  0.0999 -0.5426
  840MOL0     C13304   4.724   2.273   4.050  0.8727 -0.7436 -0.3114
  840MOL0     C13305   4.783   2.402   4.095  0.2908  0.2418 -0.2143
  840MOL0     C13306   4.906   2.394   4.183  0.7152  0.1530  0.4742
  840MOL0     C13307   4.954   2.536   4.219  0.6165  0.1747 -0.0874
  840MOL0     C13308   5.071   2.525   4.318  0.3362 -0.1122  0.7296
  840MOL0    Cl13309   5.016   2.462   4.479  0.1430 -0.3284 -0.4571
  840MOL0     C13310   4.165   2.545   3.790 -1.0404  0.1049 -0.2386
  840MOL0     C13311   4.053   2.550   3.721  0.6994 -0.6744  0.1805
  840MOL0     O13312   3.833   2.766   3.669  0.0832  0.0697  0.2861
  840MOL0     C13313   3.599   2.545   3.518 -0.0741 -0.3390 -0.4559
  840MOL0     C13314   3.493   2.538   3.430  0.4812  1.2481 -0.4744
  840MOL0     N13315   3.128   3.124   3.150 -1.0628 -1.1064 -0.2850
  840MOL0     N13316   3.096   3.242   3.163  0.1751 -0.4869  0.3009
  840MOL0     C13317   2.107   3.321   3.063  0.0196 -0.0533  0.9648
  840MOL0     C13318   2.011   3.301   2.966  0.2127 -0.0796  0.3227
  840MOL0     C13319   1.700   3.359   2.655 -0.0478 -0.2800  1.1271
  840MOL0     C13320   1.561   3.350   2.693 -0.1229 -0.2152 -0.0383
  840MOL0     C13321   1.464   3.312   2.606  0.2434  0.1482 -0.0713
  840MOL0     C13322   1.500   3.266   2.478  0.2455  1.1755 -0.1036
  840MOL0     O13323   1.419   3.241   2.369 -0.5083  1.2574 -0.1407
  840MOL0     C13324   1.280   3.246   2.394  0.1579 -0.6886  0.4729
  840MOL0     C13325   1.202   3.233   2.268 -0.0307 -0.6180  0.4860
  840MOL0     C13326   1.048   3.237   2.303  0.1328  0.5940  0.5493
  840MOL0     C13327   0.960   3.228   2.176  0.1672  0.1280 -0.4301
  840MOL0     C13328   0.819   3.257   2.209  0.0556  0.2443  0.1570
  840MOL0     C13329   0.703   3.269   2.231 -0.4277 -0.3772  0.3902
  840MOL0     C13330   1.633   3.247   2.446 -0.5194  0.1433  0.3003
  840MOL0     C13331   1.732   3.299   2.536  0.0536  0.2765  0.1951
  840MOL0     C13332   1.879   3.263   2.494  0.4257  0.3867 -0.1682
  840MOL0     H13333   1.738   3.431   3.118  1.1349  1.5442  0.8638
  840MOL0     H13334   1.910   3.465   3.301 -0.2779  3.3029 -0.7160
  840MOL0     H13335   2.174   3.590   3.241  1.7365 -0.1507 -1.8423
  840MOL0     H13336   2.182   3.545   3.415  0.4802  2.2167 -1.0362
  840MOL0     H13337   2.389   3.431   3.359 -0.7986 -1.4137  0.1293
  840MOL0     H13338   2.399   3.614   3.344 -1.3918  1.3895 -2.5338
  840MOL0     H13339   2.364   3.584   3.087 -0.9908 -1.5069 -0.9393
  840MOL0     H13340   2.374   3.419   3.108 -0.4470  0.1298  0.9241
  840MOL0     H13341   2.586   3.630   3.208 -1.7993 -0.4211  2.2775
  840MOL0     H13342   2.610   3.450   3.210  0.1510 -0.5576 -0.6009
  840MOL0     H13343   2.595   3.434   2.974 -1.4751 -0.2147  0.7565
  840MOL0     H13344   2.572   3.609   2.957 -0.0831 -1.6270 -0.5634
  840MOL0     H13345   2.789   3.603   2.908  1.0714 -0.4819  0.5198
  840MOL0     H13346   2.811   3.631   3.072  0.4094  1.9343 -3.0583
  840MOL0     H13347   2.953   3.453   2.982  0.5685 -1.0420 -0.7675
  840MOL0     H13348   2.812   3.349   2.968 -3.2098  1.3104  0.4927
  840MOL0     H13349   2.938   3.449   3.223  0.7265  0.7455 -1.7249
  840MOL0     H13350   2.801   3.342   3.230  1.0261  0.5635  0.9344
  840MOL0     H13351   2.820   3.086   3.074  0.4425 -2.0745  0.7410
  840MOL0     H13352   2.965   2.834   3.073  1.0004 -2.2882  1.1145
  840MOL0     H13353   3.120   2.895   3.010  0.9773 -0.5692  0.4345
  840MOL0     H13354   3.238   2.866   3.229 -0.5551 -0.2604  2.0883
  840MOL0     H13355   3.086   2.855   3.301  2.0835  1.5832 -0.2135
  840MOL0     H13356   3.144   2.627   3.105  2.5652 -0.2626  0.0567
  840MOL0     H13357   3.032   2.636   3.241 -0.8028  1.9508 -2.2493
  840MOL0     H13358   3.252   2.497   3.263 -0.0772  0.6874 -2.8304
  840MOL0     H13359   3.208   2.617   3.393 -1.0206 -0.7624 -0.9435
  840MOL0     H13360   3.514   2.851   3.320 -1.9944  0.4332  1.7064
  840MOL0     H13361   3.717   2.857   3.476 -2.0715  0.6640  0.2749
  840MOL0     H13362   3.823   2.471   3.951 -0.4911  1.4985 -2.5494
  840MOL0     H13363   4.032   2.437   4.095  0.8364  2.1841  0.3645
  840MOL0     H13364   4.334   2.280   3.945 -0.8591  0.0355 -0.7670
  840MOL0     H13365   4.384   2.391   3.820  2.0542  4.6350  1.2656
  840MOL0     H13366   4.542   2.505   3.985  2.6773 -0.0590  4.5964
  840MOL0     H13367   4.491   2.383   4.110 -1.6221 -0.5763  0.4329
  840MOL0     H13368   4.562   2.201   3.935  0.1376 -0.1066  0.1837
  840MOL0     H13369   4.644   2.328   3.854 -0.2141  0.2092 -0.5861
  840MOL0     H13370   4.801   2.212   4.003  0.4216  0.0712 -2.2361
  840MOL0     H13371   4.681   2.217   4.133 -0.7464  0.0688 -0.5609
  840MOL0     H13372   4.705   2.468   4.134 -0.9501 -1.1834 -0.1997
  840MOL0     H13373   4.822   2.443   4.001 -0.7957 -1.7410 -1.5925
  840MOL0     H13374   4.870   2.344   4.274 -0.7835 -0.6639 -0.5335
  840MOL0     H13375   4.988   2.341   4.132  0.1255  0.2719 -0.6185
  840MOL0     H13376   4.875   2.592   4.269  1.8530  0.7455  1.2933
  840MOL0     H13377   4.977   2.591   4.127 -0.8318  2.4170  0.8122
  840MOL0     H13378   5.141   2.456   4.270 -0.0496  0.0838 -0.1424
  840MOL0     H13379   5.113   2.626   4.305  0.9112 -0.5052 -0.6175
  840MOL0     H13380   4.257   2.569   3.737 -0.3724 -0.1359  0.7713
  840MOL0     H13381   4.061   2.570   3.615  1.8864  0.6074  0.4715
  840MOL0     H13382   3.618   2.455   3.576  2.0619  1.2292  1.4385
  840MOL0     H13383   3.426   2.453   3.417  0.5515  0.8997  1.1571
  840MOL0     H13384   2.198   3.265   3.045  0.2166  0.2008  1.1626
  840MOL0     H13385   2.042   3.248   2.877 -2.7569  3.3808 -3.1484
  840MOL0     H13386   1.531   3.373   2.795 -1.2685  0.3916 -0.4965
  840MOL0     H13387   1.362   3.322   2.643 -0.3019  2.0248 -1.9149
  840MOL0     H13388   1.256   3.343   2.438  1.6101 -0.3034  0.4913
  840MOL0     H13389   1.266   3.161   2.461  0.8530 -1.0410  0.1919
  840MOL0     H13390   1.234   3.143   2.215  4.1530  1.1268 -0.3981
  840MOL0     H13391   1.232   3.317   2.205 -2.1567 -1.0649 -1.2237
  840MOL0     H13392   1.032   3.334   2.352 -1.9821  0.2018  0.7469
  840MOL0     H13393   1.022   3.157   2.374 -0.4864  0.2556 -0.0475
  840MOL0     H13394   0.980   3.298   2.094 -3.1372 -1.1644 -2.5183
  840MOL0     H13395   0.965   3.126   2.137  1.9657  0.7444 -1.9740
  840MOL0     H13396   0.598   3.282   2.253  0.2704  1.7312  3.0073
  840MOL0     H13397   1.653   3.196   2.352 -0.0452  1.3290 -0.2821
  840MOL0     H13398   1.946   3.348   2.472  1.5976 -0.5561 -0.3704
  840MOL0     H13399   1.928   3.198   2.568 -0.6442 -2.0396 -1.4783
  840MOL0     H13400   1.869   3.205   2.402  2.1720  2.4368 -1.7781
  841MOL0     O13401   4.008   0.241   0.648  0.1294  0.4521  0.2228
  841MOL0     C13402   3.940   0.153   0.705 -0.0242 -0.0780 -0.3840
  841MOL0     O13403   3.984   0.029   0.748 -0.7865 -0.3615  0.3828
  841MOL0     C13404   4.119   0.009   0.714  0.3350  0.5964 -0.9245
  841MOL0     C13405   4.161  -0.063   0.597  0.0748 -0.2367 -0.0991
  841MOL0     C13406   4.297  -0.101   0.574  1.3146  0.8106  0.7124
  841MOL0     C13407   4.387  -0.092   0.679  0.1188 -0.5506 -0.1293
  841MOL0     O13408   4.516  -0.139   0.678  0.2954  0.0463 -0.0264
  841MOL0     C13409   4.550  -0.232   0.569 -0.0718  0.3478 -0.5604
  841MOL0     C13410   4.695  -0.276   0.587 -0.1008 -0.1411  0.0616
  841MOL0     C13411   4.798  -0.168   0.599  0.1494  0.3948  0.0123
  841MOL0     C13412   4.924  -0.251   0.636  0.0245 -0.1457  0.2318
  841MOL0     C13413   5.052  -0.166   0.647  0.8702  0.3954  0.7404
  841MOL0     C13414   5.174  -0.253   0.681 -0.3112 -0.4932  0.9742
  841MOL0     C13415   5.198  -0.258   0.824  0.1297 -0.3707 -1.3653
  841MOL0     C13416   5.343  -0.299   0.867  0.0706  0.5683  0.3866
  841MOL0     N13417   5.371  -0.441   0.812  0.2153  0.0460 -0.5043
  841MOL0     C13418   5.416  -0.470   0.683  0.9249  0.0725  0.0501
  841MOL0     C13419   5.441  -0.601   0.686  0.0266  0.4356 -0.5557
  841MOL0     C13420   5.506  -0.684   0.581 -0.0928  0.5477  0.5932
  841MOL0     C13421   5.659  -0.660   0.584 -0.6151  0.3559  0.2084
  841MOL0     C13422   5.720  -0.753   0.695  0.7067  0.1757 -0.2728
  841MOL0     C13423   5.869  -0.752   0.704  0.3867 -0.4449 -0.5350
  841MOL0     O13424   5.921  -0.622   0.707 -0.1672  0.0419 -0.4347
  841MOL0     C13425   6.049  -0.591   0.690 -0.6531  0.0150 -0.6850
  841MOL0     C13426   6.078  -0.464   0.737 -0.0711 -0.0827  0.0017
  841MOL0     C13427   6.210  -0.412   0.744 -0.1979  0.1918 -1.3652
  841MOL0     C13428   6.317  -0.487   0.691  0.5187  1.0206  0.1637
  841MOL0     C13429   6.457  -0.425   0.680  0.5832  0.1648  0.0694
  841MOL0     O13430   6.477  -0.294   0.719  0.1415  0.1515 -0.4392
  841MOL0     C13431   6.599  -0.242   0.704  0.0473  0.4312  0.0185
  841MOL0     C13432   6.626  -0.155   0.600  0.5756 -0.6723  0.4672
  841MOL0     C13433   6.751  -0.095   0.576 -0.0668  0.6356 -0.4863
  841MOL0     C13434   6.859  -0.129   0.655  0.0071 -0.0814 -0.3578
  841MOL0     O13435   6.977  -0.069   0.639  0.2163  0.4848  0.0395
  841MOL0     C13436   7.104  -0.139   0.657  0.3424 -0.5716 -0.4921
  841MOL0     C13437   7.219  -0.035   0.670  0.1257  0.1267  0.3036
  841MOL0     C13438   7.354  -0.106   0.665 -0.4483 -0.0809 -0.6068
  841MOL0     C13439   7.470  -0.006   0.666 -0.0446  0.6386 -0.3584
  841MOL0     C13440   7.606  -0.081   0.693 -0.0784  0.4559 -0.3647
  841MOL0     C13441   7.735  -0.002   0.713  0.6586  0.1403 -0.0325
  841MOL0     C13442   7.712   0.113   0.818  0.9890 -0.3655  0.0504
  841MOL0     C13443   7.679   0.056   0.959 -0.0816  0.1200  0.5942
  841MOL0    Cl13444   7.688   0.180   1.084  0.2119  0.0598 -0.1695
  841MOL0     C13445   6.832  -0.215   0.760  0.2504 -0.7061 -0.0808
  841MOL0     C13446   6.708  -0.270   0.787  1.1049 -0.0879 -0.3231
  841MOL0     O13447   6.546  -0.496   0.620 -0.2918  0.3402 -0.5651
  841MOL0     C13448   6.286  -0.612   0.638 -0.3335 -0.1852  0.3856
  841MOL0     C13449   6.157  -0.667   0.641  0.1785  0.6426 -0.0051
  841MOL0     N13450   5.417  -0.652   0.814 -0.2688 -0.0648 -0.7210
  841MOL0     N13451   5.362  -0.557   0.888 -0.0357  0.3523  0.3327
  841MOL0     C13452   4.351  -0.014   0.790 -0.1619  0.1648 -0.4752
  841MOL0     C13453   4.223   0.035   0.810 -0.4946  0.4569 -0.2333
  841MOL0     C13454   3.804   0.201   0.754  0.3921  0.6588  0.4655
  841MOL0     C13455   3.692   0.200   0.661 -0.2575  0.4822 -0.4648
  841MOL0     C13456   3.563   0.235   0.704 -0.0916 -0.4137 -0.2829
  841MOL0     C13457   3.541   0.289   0.832 -0.6239  0.2787 -0.3305
  841MOL0     O13458   3.421   0.332   0.880 -0.4652  0.0038 -0.7584
  841MOL0     C13459   3.306   0.315   0.803  0.8952  0.7703  0.1421
  841MOL0     C13460   3.179   0.380   0.872  0.2020 -0.2496  0.1120
  841MOL0     C13461   3.152   0.333   1.021 -0.3306 -0.2128  0.0385
  841MOL0     C13462   3.246   0.394   1.121 -0.3018  0.5969 -0.6960
  841MOL0     C13463   3.215   0.338   1.257 -0.1033  0.0881 -0.2087
  841MOL0     C13464   3.170   0.304   1.369  0.0566  0.0503  0.6574
  841MOL0     C13465   3.649   0.289   0.916 -0.2421 -0.6737 -0.5676
  841MOL0     C13466   3.778   0.247   0.884 -0.6682  0.3957  0.3314
  841MOL0     C13467   3.880   0.231   0.991 -0.1773 -0.5477 -0.4214
  841MOL0     H13468   4.081  -0.113   0.542  0.3584  2.2096 -3.0028
  841MOL0     H13469   4.325  -0.146   0.479  0.3995  1.9919 -0.1320
  841MOL0     H13470   4.497  -0.327   0.583  0.8162 -0.0586  0.1920
  841MOL0     H13471   4.531  -0.184   0.473  1.4433  3.2611  0.4704
  841MOL0     H13472   4.715  -0.350   0.508  1.8443  0.7752 -0.3614
  841MOL0     H13473   4.697  -0.341   0.675  1.0093 -0.4532 -0.1762
  841MOL0     H13474   4.774  -0.112   0.690 -2.2702 -2.8799  1.5736
  841MOL0     H13475   4.807  -0.104   0.510  0.1134  1.2099  0.5763
  841MOL0     H13476   4.900  -0.291   0.735  1.5986  2.3493  1.7394
  841MOL0     H13477   4.930  -0.319   0.551 -0.9667 -0.4745  0.4216
  841MOL0     H13478   5.066  -0.109   0.555  2.1430  1.5292  1.5805
  841MOL0     H13479   5.043  -0.074   0.707  2.9362  0.3527  1.2152
  841MOL0     H13480   5.159  -0.349   0.632 -2.3227  0.8314 -1.2104
  841MOL0     H13481   5.262  -0.206   0.635 -1.6746 -1.2580 -2.8087
  841MOL0     H13482   5.126  -0.329   0.865 -0.0604  1.5972  2.1225
  841MOL0     H13483   5.176  -0.164   0.875  0.1084 -0.5697 -1.0075
  841MOL0     H13484   5.417  -0.233   0.820  1.3662 -0.9919  0.1364
  841MOL0     H13485   5.367  -0.288   0.973  2.7159 -0.1624 -0.0562
  841MOL0     H13486   5.429  -0.402   0.599  0.2288  0.7813  0.4938
  841MOL0     H13487   5.472  -0.788   0.587 -2.7342  1.4222  2.4333
  841MOL0     H13488   5.476  -0.652   0.481  0.3271  1.9811  0.9119
  841MOL0     H13489   5.704  -0.687   0.488 -0.8190  1.3021 -0.1589
  841MOL0     H13490   5.685  -0.555   0.601  4.7034 -0.3851 -1.3665
  841MOL0     H13491   5.672  -0.852   0.690 -2.5865  1.6466 -0.5424
  841MOL0     H13492   5.688  -0.707   0.789 -0.7889 -2.6265  0.7298
  841MOL0     H13493   5.901  -0.817   0.621 -1.3120  1.0389 -2.4434
  841MOL0     H13494   5.895  -0.803   0.797  2.3163 -0.2166 -0.8985
  841MOL0     H13495   5.993  -0.405   0.768 -0.4669 -0.3297 -0.6057
  841MOL0     H13496   6.230  -0.317   0.792  0.7647 -0.0822 -1.1897
  841MOL0     H13497   6.554  -0.132   0.523  1.8410  0.6705 -0.3629
  841MOL0     H13498   6.760  -0.020   0.498 -2.8546  0.6047 -0.9210
  841MOL0     H13499   7.105  -0.198   0.750  0.5253  0.3814  0.1213
  841MOL0     H13500   7.113  -0.216   0.579 -0.7737  0.3189 -1.5385
  841MOL0     H13501   7.216   0.030   0.582  1.3201 -1.6804 -1.1647
  841MOL0     H13502   7.203   0.026   0.759 -1.0988  3.2296 -1.8724
  841MOL0     H13503   7.370  -0.170   0.752  1.1308  0.3967 -0.5206
  841MOL0     H13504   7.370  -0.158   0.570  1.2619  1.3541 -1.1637
  841MOL0     H13505   7.446   0.068   0.743 -1.2008  0.3197 -0.3956
  841MOL0     H13506   7.473   0.039   0.567 -1.5476 -0.3591 -0.8926
  841MOL0     H13507   7.631  -0.154   0.615  2.9612 -1.9426  2.5102
  841MOL0     H13508   7.591  -0.144   0.781  0.8965  1.2530  0.4044
  841MOL0     H13509   7.811  -0.064   0.761 -0.3121 -0.7726  0.3561
  841MOL0     H13510   7.770   0.040   0.618  1.7599 -2.6154 -0.9444
  841MOL0     H13511   7.626   0.173   0.789  0.1086 -1.9694 -0.8102
  841MOL0     H13512   7.800   0.176   0.835  0.9121  0.1105 -1.2037
  841MOL0     H13513   7.579   0.012   0.947  0.1102 -0.0811 -0.3883
  841MOL0     H13514   7.737  -0.035   0.976 -0.4841 -0.3690 -0.5066
  841MOL0     H13515   6.915  -0.233   0.828  1.0302 -3.1439 -1.5403
  841MOL0     H13516   6.683  -0.334   0.871 -1.2575  0.4179 -0.5517
  841MOL0     H13517   6.363  -0.682   0.606 -0.6547  0.5197 -2.0993
  841MOL0     H13518   6.133  -0.767   0.610 -2.0260  1.6172 -1.6768
  841MOL0     H13519   4.430   0.003   0.862 -0.1592  1.6178 -0.8005
  841MOL0     H13520   4.186   0.088   0.897  0.6971  2.3384 -0.8240
  841MOL0     H13521   3.706   0.170   0.558 -0.5443 -0.3675 -0.2645
  841MOL0     H13522   3.488   0.227   0.627 -0.4502 -1.4343  0.1624
  841MOL0     H13523   3.291   0.206   0.803  1.7381  0.6478  0.6809
  841MOL0     H13524   3.316   0.342   0.697 -1.3005 -1.0669 -0.6189
  841MOL0     H13525   3.092   0.369   0.808 -1.3249  0.0612  2.0262
  841MOL0     H13526   3.200   0.487   0.863 -0.0067 -0.3775 -2.4235
  841MOL0     H13527   3.153   0.223   1.023  2.5953 -0.2698  0.1775
  841MOL0     H13528   3.052   0.368   1.047  0.5036  2.5697 -0.1796
  841MOL0     H13529   3.349   0.363   1.102 -0.3620 -1.4009  1.7586
  841MOL0     H13530   3.241   0.503   1.124  0.9781  0.6489  0.1588
  841MOL0     H13531   3.134   0.279   1.467  1.4342  0.3339  1.2482
  841MOL0     H13532   3.633   0.326   1.017 -3.3506  0.3781 -1.3404
  841MOL0     H13533   3.983   0.233   0.954  0.0497 -1.0784  0.1622
  841MOL0     H13534   3.865   0.293   1.080 -1.1259 -1.4253  0.0556
  841MOL0     H13535   3.863   0.133   1.037  1.4450 -1.6174 -1.9917
  842MOL0     O13536   3.047   6.691   2.519 -0.6962 -0.3616 -0.4646
  842MOL0     C13537   3.021   6.593   2.447  0.2445 -0.2942  0.9948
  842MOL0     O13538   3.091   6.474   2.446 -0.1764  0.3428 -0.1196
  842MOL0     C13539   3.222   6.463   2.483  0.4034 -0.3302  0.1934
  842MOL0     C13540   3.311   6.573   2.485 -0.2582  1.0200 -0.4571
  842MOL0     C13541   3.446   6.553   2.515 -0.2365 -0.2523 -0.6465
  842MOL0     C13542   3.485   6.433   2.573 -0.5208  0.9440 -0.1920
  842MOL0     O13543   3.616   6.429   2.594 -0.4891  0.5497 -0.2602
  842MOL0     C13544   3.692   6.307   2.612 -0.3958  0.0408  0.2471
  842MOL0     C13545   3.697   6.203   2.490 -0.0789  0.0389 -1.2398
  842MOL0     C13546   3.797   6.093   2.519  0.3332  0.0771  0.1270
  842MOL0     C13547   3.937   6.151   2.508  0.0816 -0.4101  0.1899
  842MOL0     C13548   4.047   6.054   2.524 -0.5334 -0.2180  0.8236
  842MOL0     C13549   4.181   6.123   2.492 -0.5133  0.9349 -0.0693
  842MOL0     C13550   4.295   6.024   2.501  1.0053 -0.1579  0.3490
  842MOL0     C13551   4.426   6.085   2.467 -0.1329 -0.6782  0.0155
  842MOL0     N13552   4.463   6.071   2.328  0.9306  0.8480 -0.1586
  842MOL0     C13553   4.499   5.946   2.270 -0.0021 -0.7029 -1.0135
  842MOL0     C13554   4.505   5.970   2.142 -0.2968 -0.3499 -0.1831
  842MOL0     C13555   4.538   5.882   2.021  0.0917  1.1871 -0.5207
  842MOL0     C13556   4.683   5.886   2.004  0.9729 -0.0905  0.0338
  842MOL0     C13557   4.762   5.818   2.115 -0.5798  0.4209  0.0740
  842MOL0     C13558   4.910   5.811   2.089 -0.4102  0.1174  0.7877
  842MOL0     O13559   4.981   5.752   2.192 -0.4186  0.0818  0.7103
  842MOL0     C13560   5.113   5.714   2.196 -0.1549  0.3944 -0.0642
  842MOL0     C13561   5.143   5.632   2.308 -0.5699 -0.0297  0.4148
  842MOL0     C13562   5.268   5.565   2.319  0.3357 -0.5964 -0.5598
  842MOL0     C13563   5.369   5.588   2.231  0.3702 -0.6066  0.0829
  842MOL0     C13564   5.507   5.528   2.255  1.2741 -0.3548  0.9771
  842MOL0     O13565   5.602   5.583   2.171 -0.1648  0.0875 -0.4475
  842MOL0     C13566   5.730   5.543   2.200  0.5107  0.2267 -0.1695
  842MOL0     C13567   5.796   5.563   2.320  0.3618  0.1045  0.6148
  842MOL0     C13568   5.921   5.513   2.332  0.1206  0.3618 -0.2777
  842MOL0     C13569   5.987   5.443   2.232  0.2496 -0.0670 -0.0969
  842MOL0     O13570   6.107   5.387   2.260  0.3548  0.2576  0.2578
  842MOL0     C13571   6.179   5.340   2.152 -0.5395  0.7546  1.2200
  842MOL0     C13572   6.319   5.290   2.193 -0.1602 -0.0154  1.3716
  842MOL0     C13573   6.400   5.403   2.260  0.9282 -0.5358 -0.2325
  842MOL0     C13574   6.532   5.364   2.337 -1.0460  0.9892  0.4552
  842MOL0     C13575   6.646   5.322   2.242 -0.3769 -0.7316 -0.3321
  842MOL0     C13576   6.693   5.448   2.168 -0.3538  0.1798  0.9000
  842MOL0     C13577   6.820   5.429   2.085  0.1192 -0.0708 -0.0584
  842MOL0     C13578   6.946   5.378   2.153  0.4004 -0.2938 -0.3996
  842MOL0    Cl13579   7.085   5.359   2.036  0.7836  0.6382 -0.3032
  842MOL0     C13580   5.923   5.435   2.108 -0.0316  0.8599  0.1475
  842MOL0     C13581   5.796   5.482   2.093  0.3387  0.4388 -0.8354
  842MOL0     O13582   5.525   5.467   2.356  0.3096  0.4021 -0.4502
  842MOL0     C13583   5.349   5.685   2.128 -0.5986 -0.3544  0.2882
  842MOL0     C13584   5.220   5.739   2.106 -0.3224 -0.4393 -0.2111
  842MOL0     N13585   4.464   6.099   2.112 -0.3352  0.5745 -0.3073
  842MOL0     N13586   4.429   6.154   2.228 -0.1805 -0.5956  0.0508
  842MOL0     C13587   3.399   6.325   2.575  0.5833 -0.0861 -0.2824
  842MOL0     C13588   3.271   6.338   2.527 -0.1087 -0.0632 -0.2559
  842MOL0     C13589   2.890   6.596   2.366  0.0623 -0.0419  0.3109
  842MOL0     C13590   2.895   6.532   2.239  0.4996  0.7627 -0.2437
  842MOL0     C13591   2.779   6.529   2.160  0.1517 -0.3413  0.2119
  842MOL0     C13592   2.654   6.575   2.206  0.2428 -0.0893 -0.1065
  842MOL0     O13593   2.553   6.565   2.114 -0.0396  0.4867 -0.4538
  842MOL0     C13594   2.475   6.683   2.117  0.2173 -0.7432  0.0137
  842MOL0     C13595   2.351   6.670   2.024 -0.0294 -0.7096  0.0689
  842MOL0     C13596   2.324   6.800   1.957 -0.3678  0.0213 -0.1015
  842MOL0     C13597   2.224   6.785   1.847  0.0134  0.0505 -0.3048
  842MOL0     C13598   2.088   6.754   1.893  0.1451  0.6870  0.6437
  842MOL0     C13599   1.969   6.727   1.919  0.0443  0.1547  0.3866
  842MOL0     C13600   2.652   6.632   2.337  0.5026 -0.1602  1.4385
  842MOL0     C13601   2.767   6.639   2.413  0.0816 -0.2878 -0.9611
  842MOL0     C13602   2.750   6.698   2.557 -0.2392 -0.2250  0.1144
  842MOL0     H13603   3.279   6.664   2.434 -3.1625  0.8549  0.8382
  842MOL0     H13604   3.518   6.631   2.492 -0.8035  0.2950 -0.6020
  842MOL0     H13605   3.797   6.336   2.619  0.0448 -0.8183 -2.0479
  842MOL0     H13606   3.660   6.257   2.704 -1.2601  1.2604  0.6428
  842MOL0     H13607   3.714   6.245   2.390  0.0182  2.9643 -0.0978
  842MOL0     H13608   3.599   6.153   2.484 -0.7995  1.1094  0.7311
  842MOL0     H13609   3.796   6.020   2.437 -2.4808 -0.4730  0.5269
  842MOL0     H13610   3.784   6.039   2.614 -0.8499  1.9978  1.1062
  842MOL0     H13611   3.942   6.205   2.413  0.0917  0.8591  0.8917
  842MOL0     H13612   3.952   6.229   2.584 -1.5738  0.4275 -0.2902
  842MOL0     H13613   4.037   6.002   2.619 -0.0690 -0.8037  0.5557
  842MOL0     H13614   4.040   5.978   2.446 -2.8727  2.4626 -1.8535
  842MOL0     H13615   4.193   6.161   2.390  3.5359 -1.1708 -0.5958
  842MOL0     H13616   4.206   6.203   2.563 -1.3349 -2.1452  4.0401
  842MOL0     H13617   4.275   5.929   2.450 -2.1249 -0.5243  2.0199
  842MOL0     H13618   4.299   5.996   2.606 -0.6359  0.9110  0.7419
  842MOL0     H13619   4.414   6.189   2.499  0.9997 -0.1852 -1.0877
  842MOL0     H13620   4.502   6.033   2.527 -0.9891 -3.7830 -1.3793
  842MOL0     H13621   4.526   5.853   2.318  3.7724  0.4734 -0.5156
  842MOL0     H13622   4.500   5.780   2.031 -0.2622  1.1662 -1.8677
  842MOL0     H13623   4.490   5.929   1.935  0.4233  2.2862 -0.1187
  842MOL0     H13624   4.709   5.839   1.909 -0.6885 -0.1626 -0.4069
  842MOL0     H13625   4.710   5.992   1.997 -1.1454  0.3940 -1.9513
  842MOL0     H13626   4.722   5.719   2.136  0.8282 -0.1863  0.0586
  842MOL0     H13627   4.752   5.875   2.208  1.9222 -0.1928  0.8069
  842MOL0     H13628   4.950   5.912   2.083  0.6629 -0.2105  1.9530
  842MOL0     H13629   4.924   5.760   1.993 -1.4775  0.1362  0.6087
  842MOL0     H13630   5.066   5.606   2.380 -1.7286  0.8812 -0.4638
  842MOL0     H13631   5.271   5.492   2.400 -0.1526 -0.1708 -0.1417
  842MOL0     H13632   5.747   5.604   2.408  1.9939  1.8609  0.7812
  842MOL0     H13633   5.972   5.506   2.428  1.7264 -2.3770 -1.2257
  842MOL0     H13634   6.133   5.263   2.089 -0.9242  1.4828  0.6119
  842MOL0     H13635   6.195   5.424   2.085  2.1263  0.5586  1.4820
  842MOL0     H13636   6.321   5.213   2.270  0.9005 -1.2192  0.1921
  842MOL0     H13637   6.369   5.250   2.104 -0.4463  1.7319  0.3777
  842MOL0     H13638   6.415   5.477   2.181 -1.0665 -0.0152 -0.1767
  842MOL0     H13639   6.334   5.457   2.329  0.3842  0.5535 -1.5602
  842MOL0     H13640   6.512   5.280   2.403 -1.7706  0.2675 -0.6515
  842MOL0     H13641   6.569   5.445   2.401 -1.1183  0.2896  1.3883
  842MOL0     H13642   6.610   5.252   2.165  0.4774 -0.6046 -0.8531
  842MOL0     H13643   6.726   5.278   2.303  1.7489  2.7781 -0.3545
  842MOL0     H13644   6.617   5.478   2.096  1.5358  1.4241 -0.6571
  842MOL0     H13645   6.714   5.525   2.243  3.1423  1.0448 -0.7545
  842MOL0     H13646   6.843   5.527   2.041  0.7777  0.7830  2.0410
  842MOL0     H13647   6.813   5.357   2.004  1.2946 -2.5495  1.8865
  842MOL0     H13648   6.958   5.451   2.234 -2.3716 -0.1368 -0.0427
  842MOL0     H13649   6.936   5.282   2.206  2.2015  1.7222  4.1663
  842MOL0     H13650   5.969   5.386   2.023 -4.1739 -2.6060 -0.4029
  842MOL0     H13651   5.749   5.464   1.996  1.9990 -0.5951 -1.4846
  842MOL0     H13652   5.428   5.733   2.072 -0.7751  1.0563  1.1892
  842MOL0     H13653   5.199   5.817   2.033  0.8032 -1.0002 -1.1863
  842MOL0     H13654   3.428   6.225   2.604  0.2579  0.0262  0.4585
  842MOL0     H13655   3.189   6.268   2.512 -2.3549  1.9207  1.7315
  842MOL0     H13656   2.988   6.511   2.186  1.3333  2.8487  0.3004
  842MOL0     H13657   2.786   6.479   2.064 -1.1777 -1.7799  0.8253
  842MOL0     H13658   2.530   6.776   2.097 -1.8971  0.6713  0.4434
  842MOL0     H13659   2.429   6.702   2.214 -0.2503  2.5519 -0.7366
  842MOL0     H13660   2.265   6.621   2.071  0.5671  0.5255  2.6196
  842MOL0     H13661   2.377   6.604   1.940 -2.5843 -1.1382 -0.4658
  842MOL0     H13662   2.410   6.847   1.909 -2.4995  1.9829 -2.3153
  842MOL0     H13663   2.289   6.870   2.033 -0.0001 -1.1238  1.1610
  842MOL0     H13664   2.216   6.881   1.797  0.2563  1.0394  1.4676
  842MOL0     H13665   2.264   6.705   1.783  3.3736 -0.1798  1.8357
  842MOL0     H13666   1.864   6.711   1.933  0.2068 -1.5173 -0.0218
  842MOL0     H13667   2.558   6.664   2.381 -1.8440 -1.7451 -1.9435
  842MOL0     H13668   2.775   6.616   2.624  1.3492  0.1318  0.0066
  842MOL0     H13669   2.815   6.784   2.575 -2.9257  2.1571 -0.7097
  842MOL0     H13670   2.650   6.735   2.583 -0.6600  0.2578 -2.0191
  843MOL0     O13671   3.466   3.089   4.642 -0.4195  0.1305 -0.1097
  843MOL0     C13672   3.450   2.973   4.683 -0.1641 -0.1838  0.2061
  843MOL0     O13673   3.554   2.879   4.703  1.1542  0.3725  0.0936
  843MOL0     C13674   3.680   2.917   4.690 -0.5444 -0.6179  0.3726
  843MOL0     C13675   3.737   3.042   4.730 -0.7043 -0.1344  0.9500
  843MOL0     C13676   3.878   3.062   4.728  0.4919  0.4685  0.1376
  843MOL0     C13677   3.960   2.953   4.688 -1.1947 -1.2620 -0.0839
  843MOL0     O13678   4.091   2.991   4.690  0.0008 -0.2612 -0.4258
  843MOL0     C13679   4.184   2.885   4.674  0.2299 -0.4262  0.1585
  843MOL0     C13680   4.326   2.939   4.681  0.2227 -0.0157 -0.4521
  843MOL0     C13681   4.369   2.994   4.813 -0.1109 -0.4862  0.0055
  843MOL0     C13682   4.513   3.039   4.805 -0.2845 -0.5041 -0.0266
  843MOL0     C13683   4.550   3.110   4.942  0.4454 -0.3988 -0.4212
  843MOL0     C13684   4.700   3.140   4.955  0.8514 -1.0338  0.5695
  843MOL0     C13685   4.740   3.201   5.090  0.1007 -0.9461 -0.7139
  843MOL0     C13686   4.895   3.193   5.101  0.1257  0.3652  0.3020
  843MOL0     N13687   4.951   3.269   5.215 -0.6695 -0.4017  0.0831
  843MOL0     C13688   5.042   3.372   5.211  1.3135  0.6066 -0.3845
  843MOL0     C13689   5.042   3.420   5.335  0.4974 -0.3067 -0.2540
  843MOL0     C13690   5.124   3.535   5.387  0.3317 -0.2632 -0.2119
  843MOL0     C13691   5.214   3.485   5.493 -0.9661  0.2184 -0.6467
  843MOL0     C13692   5.331   3.570   5.542 -0.2767  0.1446 -0.5114
  843MOL0     C13693   5.459   3.590   5.459  0.4035 -0.0619 -0.5277
  843MOL0     O13694   5.511   3.728   5.462  0.1272  0.0758  0.5992
  843MOL0     C13695   5.627   3.768   5.400  0.0701 -0.1432 -0.4967
  843MOL0     C13696   5.716   3.685   5.341 -0.2043  0.0151 -1.5979
  843MOL0     C13697   5.846   3.734   5.308  0.0487  0.4546  0.2538
  843MOL0     C13698   5.877   3.869   5.314  0.1406  0.2042  0.5039
  843MOL0     C13699   6.001   3.917   5.275  0.4701  0.4106  0.1901
  843MOL0     O13700   6.036   4.039   5.322 -0.2217  0.2688  0.0390
  843MOL0     C13701   6.151   4.090   5.274  0.7938 -0.3254 -0.2353
  843MOL0     C13702   6.148   4.159   5.153  0.6895 -0.1055  0.9921
  843MOL0     C13703   6.267   4.202   5.085  0.0647  0.2505 -0.2138
  843MOL0     C13704   6.389   4.195   5.153  0.6659  0.1854  0.1387
  843MOL0     O13705   6.506   4.252   5.121  0.3538  0.2387  0.9586
  843MOL0     C13706   6.519   4.310   4.987  0.3730  1.1300 -0.4256
  843MOL0     C13707   6.662   4.307   4.951 -0.1857 -1.0854  0.5633
  843MOL0     C13708   6.677   4.335   4.799  0.8113 -0.8816 -0.8950
  843MOL0     C13709   6.820   4.370   4.763  0.4977  0.3331  0.6377
  843MOL0     C13710   6.855   4.396   4.614  0.9128  0.9981  0.0709
  843MOL0     C13711   6.862   4.273   4.533 -0.0143  0.3394  0.0203
  843MOL0     C13712   7.008   4.206   4.541  0.3960  0.3862 -0.2055
  843MOL0     C13713   7.004   4.072   4.463 -0.1153 -1.5552 -0.5363
  843MOL0    Cl13714   6.992   4.103   4.295  0.0412 -0.5425 -0.1460
  843MOL0     C13715   6.393   4.136   5.276 -0.3662  0.0777  0.1195
  843MOL0     C13716   6.277   4.082   5.339  0.8745 -1.1353 -0.2107
  843MOL0     O13717   6.057   3.851   5.188  0.2091  1.2628 -0.3870
  843MOL0     C13718   5.776   3.959   5.354  0.1706  0.6279 -0.8777
  843MOL0     C13719   5.650   3.905   5.402  0.1107 -1.0343  0.3589
  843MOL0     N13720   4.959   3.349   5.423  0.5320 -0.2198  0.8086
  843MOL0     N13721   4.904   3.268   5.348 -1.1324 -0.2454  1.4369
  843MOL0     C13722   3.910   2.832   4.646  0.2307  0.1187 -0.0256
  843MOL0     C13723   3.769   2.817   4.649  0.4716 -0.0392 -0.1998
  843MOL0     C13724   3.312   2.927   4.705  0.3446  0.0649 -0.4584
  843MOL0     C13725   3.278   2.813   4.785 -0.3386  0.1284  0.2725
  843MOL0     C13726   3.150   2.771   4.814  0.3969 -0.1839  0.1686
  843MOL0     C13727   3.042   2.846   4.761 -0.0185 -0.2134 -0.4091
  843MOL0     O13728   2.908   2.820   4.792 -0.3896 -0.2924 -0.7909
  843MOL0     C13729   2.865   2.694   4.833 -0.0602  0.4388  0.0830
  843MOL0     C13730   2.714   2.700   4.821  0.3636  0.0096  0.0066
  843MOL0     C13731   2.676   2.700   4.668  0.1251  0.9321 -0.8134
  843MOL0     C13732   2.527   2.673   4.639  1.1197  0.1482  0.0180
  843MOL0     C13733   2.434   2.769   4.701 -0.1589 -0.2846 -0.1531
  843MOL0     C13734   2.369   2.865   4.731  0.2393 -0.5026 -0.2595
  843MOL0     C13735   3.073   2.957   4.680 -0.2749  0.2491 -0.1498
  843MOL0     C13736   3.206   2.997   4.651  0.4192 -0.0914 -0.0048
  843MOL0     C13737   3.220   3.086   4.532 -0.4053 -0.6029 -0.3200
  843MOL0     H13738   3.676   3.128   4.757 -0.2481  0.6905 -0.5391
  843MOL0     H13739   3.924   3.157   4.753  3.4071 -0.7753 -0.1060
  843MOL0     H13740   4.169   2.798   4.739  0.9913  0.2516  1.2955
  843MOL0     H13741   4.166   2.848   4.573 -2.2125  1.7947 -0.3180
  843MOL0     H13742   4.335   3.016   4.604 -0.5444  0.4469 -0.1006
  843MOL0     H13743   4.386   2.854   4.646 -1.5615 -1.1644 -0.8592
  843MOL0     H13744   4.358   2.916   4.889  0.4779 -2.8871 -2.2362
  843MOL0     H13745   4.311   3.083   4.837  0.5502 -0.4960  1.8315
  843MOL0     H13746   4.578   2.955   4.780 -0.9003 -1.6380  1.9333
  843MOL0     H13747   4.517   3.117   4.729 -2.2141  1.1911  1.4818
  843MOL0     H13748   4.488   3.200   4.948  2.2129  0.8439 -0.2245
  843MOL0     H13749   4.534   3.045   5.029  2.0753 -1.9176 -1.1998
  843MOL0     H13750   4.754   3.045   4.949  0.8235 -1.0208  0.0622
  843MOL0     H13751   4.733   3.213   4.880  0.0009  0.1293  1.2999
  843MOL0     H13752   4.692   3.146   5.172  1.1432 -0.2654  0.3999
  843MOL0     H13753   4.697   3.301   5.090 -3.0945 -2.1772  0.2158
  843MOL0     H13754   4.931   3.092   5.122  0.5045  0.6608  1.1479
  843MOL0     H13755   4.943   3.219   5.006 -1.3999  0.7907 -0.3770
  843MOL0     H13756   5.092   3.412   5.123  2.2782  0.2325 -0.0172
  843MOL0     H13757   5.186   3.581   5.308  0.0641 -1.1214 -0.9338
  843MOL0     H13758   5.060   3.613   5.428 -0.3528 -0.8783 -0.0973
  843MOL0     H13759   5.166   3.461   5.588  1.8594 -2.6027  0.2514
  843MOL0     H13760   5.250   3.390   5.454 -0.7561  0.7627 -1.8338
  843MOL0     H13761   5.368   3.532   5.638  2.8839  3.2204 -0.3327
  843MOL0     H13762   5.284   3.663   5.574 -0.5007 -0.4102  0.8173
  843MOL0     H13763   5.437   3.550   5.359 -2.6092 -1.9253  0.7495
  843MOL0     H13764   5.533   3.522   5.500  0.5564 -0.8206 -1.9980
  843MOL0     H13765   5.701   3.580   5.319  0.6114 -0.6268  0.6174
  843MOL0     H13766   5.917   3.665   5.266 -1.4525 -1.7339  1.1449
  843MOL0     H13767   6.054   4.178   5.101  2.9565  2.0053 -2.7996
  843MOL0     H13768   6.259   4.255   4.991  4.6537 -1.0115 -1.5460
  843MOL0     H13769   6.464   4.251   4.913  1.9218  0.8009 -1.3488
  843MOL0     H13770   6.487   4.414   4.995  1.2720  1.4678 -1.0333
  843MOL0     H13771   6.719   4.382   5.007  0.8702 -1.3755 -0.0827
  843MOL0     H13772   6.711   4.211   4.969  1.2319 -0.6067 -0.4870
  843MOL0     H13773   6.637   4.245   4.752  0.1317 -0.6372 -0.8011
  843MOL0     H13774   6.614   4.408   4.748  1.2491 -1.3578 -2.1563
  843MOL0     H13775   6.886   4.285   4.780  1.1250  0.4914 -0.8301
  843MOL0     H13776   6.861   4.454   4.820  2.1906  0.8655 -1.2430
  843MOL0     H13777   6.950   4.450   4.604  1.1399  0.6524  0.3412
  843MOL0     H13778   6.784   4.472   4.581 -0.2017  1.6346  3.4973
  843MOL0     H13779   6.780   4.206   4.560 -0.8426  1.4799  0.4084
  843MOL0     H13780   6.842   4.299   4.429  1.0154  0.8248 -0.0681
  843MOL0     H13781   7.033   4.175   4.643 -2.0937 -2.2347 -0.2441
  843MOL0     H13782   7.089   4.269   4.502 -1.6304  3.0265 -0.4074
  843MOL0     H13783   7.099   4.022   4.487  0.3857 -0.0627  0.7173
  843MOL0     H13784   6.921   4.010   4.498 -1.2214  0.8284  1.3141
  843MOL0     H13785   6.491   4.135   5.322 -1.0525  0.4617  1.6548
  843MOL0     H13786   6.287   4.030   5.434  0.7241  0.5255  0.7505
  843MOL0     H13787   5.784   4.065   5.373 -1.1878  0.7991 -1.1840
  843MOL0     H13788   5.576   3.973   5.442 -0.2060  0.2453 -2.1607
  843MOL0     H13789   3.965   2.749   4.603 -2.1708 -1.9949  0.7798
  843MOL0     H13790   3.737   2.718   4.618  2.7560 -2.0948  3.2707
  843MOL0     H13791   3.362   2.762   4.831 -1.3444 -1.1824  0.7233
  843MOL0     H13792   3.133   2.691   4.885 -2.2985  1.8566  2.0349
  843MOL0     H13793   2.892   2.683   4.938  4.0254 -0.2709 -0.8452
  843MOL0     H13794   2.909   2.605   4.786 -0.3508  0.0529  0.5401
  843MOL0     H13795   2.656   2.779   4.869  1.1381  0.2707  0.5330
  843MOL0     H13796   2.669   2.609   4.861  0.9831 -0.0178  0.6581
  843MOL0     H13797   2.732   2.624   4.613 -1.3756  0.8535 -2.2942
  843MOL0     H13798   2.697   2.802   4.637  0.5494  1.6497  1.6268
  843MOL0     H13799   2.508   2.663   4.531 -2.0291  0.8558  0.4306
  843MOL0     H13800   2.477   2.585   4.679 -2.0553  3.0103  2.9462
  843MOL0     H13801   2.325   2.956   4.765  1.9788  0.0581  0.6453
  843MOL0     H13802   2.987   3.006   4.635  0.3526  0.7637 -0.8181
  843MOL0     H13803   3.264   3.186   4.533 -0.3842 -0.5987 -1.0487
  843MOL0     H13804   3.282   3.036   4.457 -1.2035 -1.8120 -0.2107
  843MOL0     H13805   3.122   3.096   4.483  0.1645  2.1178 -1.0257
  844MOL0     O13806   0.568   0.946   5.773  0.3117  0.0433 -0.0997
  844MOL0     C13807   0.483   1.001   5.705 -0.0808 -0.5095  1.5564
  844MOL0     O13808   0.503   1.042   5.579  0.2551  0.0032 -0.0818
  844MOL0     C13809   0.627   1.021   5.531 -0.7308  0.2393  0.1731
  844MOL0     C13810   0.725   1.121   5.535  0.7157  0.1226  0.3566
  844MOL0     C13811   0.855   1.091   5.479 -0.1213  0.0901 -0.9291
  844MOL0     C13812   0.892   0.961   5.419 -0.4051  0.4981 -0.2856
  844MOL0     O13813   1.009   0.913   5.367  0.3631  0.3630  0.0712
  844MOL0     C13814   1.139   0.987   5.403  1.1062  0.2431  0.2902
  844MOL0     C13815   1.257   0.965   5.310  0.0183 -0.4111  0.3444
  844MOL0     C13816   1.246   1.028   5.168  0.2288  0.2827  0.2085
  844MOL0     C13817   1.247   1.184   5.178  0.4456 -0.5521  0.7080
  844MOL0     C13818   1.384   1.253   5.176 -0.1511  0.1311  0.1116
  844MOL0     C13819   1.370   1.395   5.230  0.0718  0.0406 -0.3291
  844MOL0     C13820   1.376   1.407   5.385 -0.6854 -0.5304 -0.4301
  844MOL0     C13821   1.398   1.560   5.429  1.0817  0.5285 -0.0237
  844MOL0     N13822   1.536   1.600   5.451 -0.2436  0.3689  0.3307
  844MOL0     C13823   1.636   1.591   5.361 -0.4161  0.5512  0.0134
  844MOL0     C13824   1.741   1.645   5.431 -0.7073  0.6774  0.3309
  844MOL0     C13825   1.873   1.643   5.363 -1.2513  0.2263 -0.1903
  844MOL0     C13826   1.940   1.773   5.368  0.2205  0.1335 -0.9396
  844MOL0     C13827   2.086   1.759   5.324 -0.8101 -0.0392 -0.1630
  844MOL0     C13828   2.178   1.816   5.429  0.4295 -0.4382 -0.2256
  844MOL0     O13829   2.303   1.815   5.365 -0.5318 -0.0590  0.5035
  844MOL0     C13830   2.406   1.886   5.421 -0.1535 -0.0403 -0.5600
  844MOL0     C13831   2.536   1.889   5.359 -0.0692 -0.4472 -0.6034
  844MOL0     C13832   2.651   1.947   5.427 -0.1258  0.1486  0.5999
  844MOL0     C13833   2.637   2.022   5.542  0.5741 -0.2826 -0.0999
  844MOL0     C13834   2.747   2.079   5.614 -0.8624 -0.3861 -0.3801
  844MOL0     O13835   2.728   2.140   5.737 -0.4654  0.1329 -0.7103
  844MOL0     C13836   2.844   2.186   5.794 -0.7901 -0.4489  0.0456
  844MOL0     C13837   2.913   2.299   5.756  0.9500 -0.0500  0.0356
  844MOL0     C13838   3.025   2.340   5.823  0.1397 -0.0555 -0.7208
  844MOL0     C13839   3.083   2.253   5.911 -0.0152  0.3554  0.1455
  844MOL0     O13840   3.191   2.287   5.977 -0.2560 -0.0738 -0.7510
  844MOL0     C13841   3.301   2.353   5.901 -0.2363  0.0200 -0.1890
  844MOL0     C13842   3.429   2.322   5.967 -0.5428 -0.4595  0.0099
  844MOL0     C13843   3.543   2.378   5.885 -0.3340  0.1611  0.2581
  844MOL0     C13844   3.685   2.363   5.952  0.5139  0.0506  0.3997
  844MOL0     C13845   3.796   2.385   5.845 -0.0826 -0.3712  0.1853
  844MOL0     C13846   3.929   2.405   5.907 -0.1020 -0.1167 -0.1416
  844MOL0     C13847   3.977   2.278   5.977 -0.1497  0.4217 -0.3354
  844MOL0     C13848   4.111   2.296   6.041 -0.1559 -0.1610 -0.7272
  844MOL0    Cl13849   4.244   2.331   5.915  0.3343  0.1785 -0.1141
  844MOL0     C13850   3.023   2.133   5.944  0.3511 -0.3311  0.6528
  844MOL0     C13851   2.905   2.096   5.888 -0.4218  0.2752  0.2523
  844MOL0     O13852   2.855   2.081   5.550 -0.2863 -0.5015 -0.1236
  844MOL0     C13853   2.510   2.007   5.602 -0.1184  0.2879  0.9053
  844MOL0     C13854   2.398   1.944   5.554  0.7854  0.6463  0.4148
  844MOL0     N13855   1.700   1.675   5.561 -0.3587 -0.1131  0.4578
  844MOL0     N13856   1.577   1.658   5.565  0.4262  0.6762 -0.3499
  844MOL0     C13857   0.781   0.872   5.411  0.3944  0.4157 -0.6159
  844MOL0     C13858   0.657   0.900   5.462 -0.2531  0.1426 -0.0235
  844MOL0     C13859   0.342   1.036   5.759  0.1950  0.3829 -0.4400
  844MOL0     C13860   0.308   0.963   5.877 -0.7725 -0.3206  0.3687
  844MOL0     C13861   0.178   0.976   5.929 -0.3208  0.4938  0.5503
  844MOL0     C13862   0.079   1.063   5.869 -0.3116  0.3189  0.2855
  844MOL0     O13863  -0.044   1.068   5.926  0.5204 -0.0788  0.1889
  844MOL0     C13864  -0.132   1.174   5.885  0.9031 -0.1717 -0.2949
  844MOL0     C13865  -0.258   1.176   5.978 -0.6649  0.1724  0.0772
  844MOL0     C13866  -0.373   1.090   5.911  0.4842 -0.4991 -0.6015
  844MOL0     C13867  -0.416   0.973   5.994 -0.6604  0.7275 -0.7550
  844MOL0     C13868  -0.470   1.017   6.122  0.1287  1.0490 -0.2973
  844MOL0     C13869  -0.507   1.044   6.232 -0.6711 -0.2712 -0.9374
  844MOL0     C13870   0.118   1.135   5.758  1.2159 -0.4442  0.0665
  844MOL0     C13871   0.240   1.113   5.690 -0.3149 -0.6535  0.3702
  844MOL0     C13872   0.255   1.178   5.552  0.0285  0.4188  0.5585
  844MOL0     H13873   0.701   1.225   5.556  1.6058  0.0575  1.8602
  844MOL0     H13874   0.929   1.170   5.486  1.2186 -1.1770  0.1266
  844MOL0     H13875   1.116   1.094   5.403  0.8491  0.2040 -1.0074
  844MOL0     H13876   1.166   0.945   5.501 -2.8592 -3.3340  0.1459
  844MOL0     H13877   1.266   0.857   5.294  0.3352 -0.4340  0.6749
  844MOL0     H13878   1.345   1.003   5.362 -1.4094 -0.1146  2.6975
  844MOL0     H13879   1.158   0.985   5.120  1.5035 -1.4647 -0.7116
  844MOL0     H13880   1.320   0.985   5.099 -1.7319 -1.2338 -1.0421
  844MOL0     H13881   1.187   1.215   5.092  0.9501 -1.1131  0.1470
  844MOL0     H13882   1.199   1.223   5.268  1.0785 -1.5238  1.4804
  844MOL0     H13883   1.450   1.197   5.243  0.5857 -1.7909 -2.0974
  844MOL0     H13884   1.436   1.260   5.080  1.0791 -2.1924  0.5365
  844MOL0     H13885   1.453   1.447   5.183 -1.1349 -1.5583 -4.6426
  844MOL0     H13886   1.280   1.440   5.187 -1.4988 -2.4079  0.1309
  844MOL0     H13887   1.462   1.359   5.432  0.0699  2.6774  1.8185
  844MOL0     H13888   1.283   1.365   5.425 -0.6965 -0.6324 -0.5619
  844MOL0     H13889   1.349   1.635   5.366 -1.2902  1.3359  2.5317
  844MOL0     H13890   1.345   1.579   5.524  0.2089 -2.1958  0.0978
  844MOL0     H13891   1.628   1.549   5.261 -1.2512  0.0490  0.2863
  844MOL0     H13892   1.936   1.574   5.420  1.8615  0.3938 -3.1499
  844MOL0     H13893   1.868   1.611   5.258  2.0713 -0.9348 -0.0899
  844MOL0     H13894   1.894   1.843   5.298 -0.6049 -1.0842 -1.6542
  844MOL0     H13895   1.927   1.826   5.463  1.4946  0.4337 -0.9155
  844MOL0     H13896   2.106   1.816   5.233 -0.4318  0.7926  0.4294
  844MOL0     H13897   2.114   1.656   5.299  0.5281  0.2346  0.1129
  844MOL0     H13898   2.174   1.756   5.520 -1.2979 -0.6381 -0.3987
  844MOL0     H13899   2.143   1.917   5.451  0.0706 -0.2167 -1.6896
  844MOL0     H13900   2.545   1.842   5.261  0.4305 -3.1102  0.6289
  844MOL0     H13901   2.747   1.937   5.379 -1.8882 -0.6430 -3.1388
  844MOL0     H13902   2.873   2.360   5.675  1.7359 -0.4436 -0.6712
  844MOL0     H13903   3.079   2.430   5.793  0.5568 -0.2433 -0.5439
  844MOL0     H13904   3.302   2.299   5.806 -3.6490  1.0167 -0.9293
  844MOL0     H13905   3.288   2.461   5.894  0.3304  0.0695 -0.5402
  844MOL0     H13906   3.438   2.375   6.063 -1.8386 -1.1900  0.5531
  844MOL0     H13907   3.441   2.214   5.977  0.1924 -0.4892 -1.0488
  844MOL0     H13908   3.546   2.316   5.795 -0.4179  1.1657 -0.4550
  844MOL0     H13909   3.530   2.482   5.853  1.2071  0.0260 -0.9334
  844MOL0     H13910   3.693   2.262   5.992 -1.6775  0.2575  1.5488
  844MOL0     H13911   3.685   2.434   6.035  1.4181 -2.6231  2.8319
  844MOL0     H13912   3.776   2.477   5.788 -2.2008  0.2146  1.7801
  844MOL0     H13913   3.803   2.293   5.786  1.2588 -0.8983  1.1170
  844MOL0     H13914   4.002   2.440   5.834 -1.1441  1.0704 -0.6449
  844MOL0     H13915   3.910   2.479   5.986 -0.8094 -1.3663  0.9063
  844MOL0     H13916   3.986   2.194   5.907 -0.2690 -0.4368  0.6491
  844MOL0     H13917   3.910   2.247   6.058 -0.2765  1.4472 -0.0400
  844MOL0     H13918   4.101   2.387   6.102 -2.0303 -0.6242 -0.2744
  844MOL0     H13919   4.148   2.208   6.094  0.7964  0.8756  0.3971
  844MOL0     H13920   3.079   2.083   6.022 -0.2579  0.1330  1.4013
  844MOL0     H13921   2.861   2.005   5.927 -0.3036  0.9338  2.0447
  844MOL0     H13922   2.493   2.049   5.701 -3.0264  1.1903  0.0967
  844MOL0     H13923   2.312   1.934   5.620 -0.6499 -0.6657 -1.5481
  844MOL0     H13924   0.788   0.780   5.354 -1.6180  1.5701 -2.9347
  844MOL0     H13925   0.574   0.829   5.455  0.1807 -0.9904  3.8821
  844MOL0     H13926   0.374   0.894   5.929 -0.7555 -0.8633 -0.3660
  844MOL0     H13927   0.141   0.912   6.008  0.4281  0.5641  0.9620
  844MOL0     H13928  -0.163   1.143   5.785  2.2572 -1.5984 -0.3118
  844MOL0     H13929  -0.068   1.262   5.877 -1.5821  1.5828 -2.3707
  844MOL0     H13930  -0.289   1.281   5.980  0.8415  0.6484  2.1507
  844MOL0     H13931  -0.233   1.148   6.081 -1.5105 -2.0742 -0.2740
  844MOL0     H13932  -0.342   1.059   5.811 -0.1939  1.0235 -1.3301
  844MOL0     H13933  -0.460   1.156   5.898  0.8758  0.1431 -0.0557
  844MOL0     H13934  -0.501   0.922   5.948  0.2087  1.8369 -3.7802
  844MOL0     H13935  -0.329   0.907   6.006  2.5007  4.7973  1.6487
  844MOL0     H13936  -0.540   1.080   6.328  0.1693  0.0378 -0.7533
  844MOL0     H13937   0.055   1.205   5.704  1.5855 -1.6327 -2.0375
  844MOL0     H13938   0.346   1.238   5.549  1.2218 -1.2816  1.4381
  844MOL0     H13939   0.258   1.096   5.480 -0.9095 -1.2486  2.3032
  844MOL0     H13940   0.167   1.242   5.536 -0.2630 -0.0265  0.3670
  845MOL0     O13941   6.113   4.103   2.060  0.3928  0.3918 -0.8748
  845MOL0     C13942   6.052   4.162   1.972  0.6921 -0.1900 -0.7075
  845MOL0     O13943   6.118   4.223   1.872  0.2510  0.1889  0.6654
  845MOL0     C13944   6.255   4.205   1.862  0.2901 -0.2833 -0.6380
  845MOL0     C13945   6.333   4.291   1.928 -0.6107 -0.8394  0.2654
  845MOL0     C13946   6.469   4.264   1.946 -0.4674 -0.1474 -0.9641
  845MOL0     C13947   6.522   4.144   1.900  0.3574  0.2097  0.2596
  845MOL0     O13948   6.655   4.116   1.890  0.0299 -0.1347  0.5225
  845MOL0     C13949   6.759   4.193   1.964 -0.3051 -0.1737  0.7128
  845MOL0     C13950   6.892   4.116   1.981 -0.5734  0.7507 -0.9553
  845MOL0     C13951   7.001   4.202   2.024 -0.4424 -0.1139 -0.2472
  845MOL0     C13952   7.123   4.124   2.061  0.2676  0.5249  0.1694
  845MOL0     C13953   7.222   4.194   2.163 -0.3655  0.5066  1.0601
  845MOL0     C13954   7.324   4.091   2.204 -0.8477  0.6200  0.3172
  845MOL0     C13955   7.458   4.174   2.242 -0.3867  0.4478 -0.4785
  845MOL0     C13956   7.561   4.084   2.294  0.7788  0.1552  0.0240
  845MOL0     N13957   7.683   4.164   2.328 -1.2244  0.6751  0.0589
  845MOL0     C13958   7.746   4.163   2.445 -0.3264 -0.1742  0.0944
  845MOL0     C13959   7.860   4.230   2.429 -0.6062 -0.4406  0.9006
  845MOL0     C13960   7.957   4.237   2.544  0.0297 -0.0350 -0.4362
  845MOL0     C13961   7.903   4.328   2.653  0.2906  0.4602  0.4264
  845MOL0     C13962   7.991   4.324   2.779 -0.3060  0.1013 -0.4390
  845MOL0     C13963   8.134   4.380   2.786  0.4423 -0.4014  0.3147
  845MOL0     O13964   8.170   4.375   2.923 -0.3794  0.4222 -0.5951
  845MOL0     C13965   8.293   4.430   2.965  0.3134  0.3678 -0.3552
  845MOL0     C13966   8.392   4.476   2.878  0.3403 -0.2806 -0.9585
  845MOL0     C13967   8.506   4.539   2.929 -0.1030 -0.7799 -0.4641
  845MOL0     C13968   8.526   4.538   3.069  0.0804  0.1647  0.1421
  845MOL0     C13969   8.654   4.599   3.125 -0.2852  0.2428  0.3164
  845MOL0     O13970   8.691   4.559   3.255 -0.3652 -0.7117 -0.0410
  845MOL0     C13971   8.823   4.585   3.299  0.4546 -0.2262  0.3691
  845MOL0     C13972   8.847   4.664   3.412 -0.2209 -0.1040  0.0124
  845MOL0     C13973   8.976   4.708   3.455  0.3329 -0.5510 -0.3092
  845MOL0     C13974   9.085   4.660   3.381 -0.2124 -0.0004 -0.0022
  845MOL0     O13975   9.207   4.690   3.439 -0.2351  0.8341  0.2241
  845MOL0     C13976   9.328   4.661   3.372 -0.6428 -0.0298  0.9201
  845MOL0     C13977   9.441   4.761   3.411 -0.1788  0.0569 -0.3750
  845MOL0     C13978   9.466   4.768   3.563 -0.3036 -0.3370 -1.0425
  845MOL0     C13979   9.606   4.824   3.598 -0.4215  0.3102  0.0789
  845MOL0     C13980   9.703   4.716   3.600 -0.1169 -0.0326  0.3107
  845MOL0     C13981   9.852   4.764   3.596  0.1148 -0.3846  0.3547
  845MOL0     C13982   9.957   4.659   3.642 -0.2546  0.1297  0.1870
  845MOL0     C13983   9.963   4.532   3.551 -0.6652  0.7775 -0.2939
  845MOL0    Cl13984  10.082   4.405   3.616  0.3334  0.1787 -0.1646
  845MOL0     C13985   9.062   4.584   3.261  0.3989  0.5203  0.0385
  845MOL0     C13986   8.935   4.551   3.221 -0.1647  0.1631 -0.4508
  845MOL0     O13987   8.722   4.670   3.053 -0.5992 -0.2478 -0.5106
  845MOL0     C13988   8.437   4.475   3.155 -0.5425  0.2122  0.3070
  845MOL0     C13989   8.314   4.426   3.101 -0.4368  0.4094  0.7056
  845MOL0     N13990   7.870   4.262   2.299 -0.3776  0.5875 -0.4000
  845MOL0     N13991   7.760   4.234   2.239 -0.8883  0.7200 -0.3881
  845MOL0     C13992   6.440   4.055   1.827  0.4257 -0.2719  0.1767
  845MOL0     C13993   6.311   4.094   1.807 -0.2474  0.4002  0.0882
  845MOL0     C13994   5.907   4.181   1.986  0.2704  0.6745 -0.3633
  845MOL0     C13995   5.840   4.249   1.882  1.0233  0.3984 -0.1774
  845MOL0     C13996   5.701   4.270   1.882  0.0674  0.4198  0.0849
  845MOL0     C13997   5.624   4.206   1.972  0.9104 -0.5106  0.0842
  845MOL0     O13998   5.488   4.233   1.983  0.7936 -0.1187  0.6579
  845MOL0     C13999   5.413   4.294   1.873  0.3386  0.7688  0.1591
  845MOL0     C14000   5.400   4.442   1.887 -0.3546 -0.9639 -0.1427
  845MOL0     C14001   5.283   4.473   1.985  0.2568 -0.6273 -0.0284
  845MOL0     C14002   5.278   4.616   2.040 -0.0761 -0.4740 -0.2041
  845MOL0     C14003   5.174   4.644   2.137  0.2523  0.5596  0.3169
  845MOL0     C14004   5.077   4.654   2.209  0.2503 -0.3935  0.0142
  845MOL0     C14005   5.679   4.128   2.080 -0.3054 -0.9017 -0.0959
  845MOL0     C14006   5.823   4.118   2.087 -0.7238  0.3516 -0.2052
  845MOL0     C14007   5.876   4.053   2.217  0.0919 -0.5298  0.0270
  845MOL0     H14008   6.296   4.380   1.979  0.9979  0.0773 -0.1059
  845MOL0     H14009   6.535   4.337   1.993  0.7296 -0.8788 -1.4536
  845MOL0     H14010   6.780   4.287   1.914 -2.2033  0.3097  0.7500
  845MOL0     H14011   6.720   4.232   2.058 -2.4849  0.6772 -0.4644
  845MOL0     H14012   6.918   4.050   1.898 -0.2056 -0.9615  0.4422
  845MOL0     H14013   6.867   4.059   2.071 -1.9599  4.6806  1.3975
  845MOL0     H14014   6.957   4.260   2.105 -2.6312 -0.2708 -1.2491
  845MOL0     H14015   7.031   4.264   1.938 -2.0647  1.3356  0.1769
  845MOL0     H14016   7.096   4.022   2.090  0.7189  0.0083 -1.1825
  845MOL0     H14017   7.176   4.110   1.967  1.4522  4.0752  0.1318
  845MOL0     H14018   7.265   4.278   2.107  1.8614 -2.7607 -2.6531
  845MOL0     H14019   7.171   4.228   2.253  2.4469 -0.5085  3.1738
  845MOL0     H14020   7.273   4.049   2.291 -0.6912  0.0397  0.1391
  845MOL0     H14021   7.341   4.009   2.132  0.1303  1.3033 -0.2598
  845MOL0     H14022   7.436   4.257   2.309  1.4816 -1.8662  3.3010
  845MOL0     H14023   7.494   4.220   2.149  0.0786  0.1189 -0.4613
  845MOL0     H14024   7.500   4.037   2.372 -2.0873 -1.8311 -3.1458
  845MOL0     H14025   7.580   4.011   2.215 -0.2914  0.9230 -0.9821
  845MOL0     H14026   7.695   4.122   2.531 -1.2960 -0.6517 -0.6895
  845MOL0     H14027   7.978   4.134   2.576  0.6637  0.6868  1.6444
  845MOL0     H14028   8.052   4.266   2.498  0.1827 -0.9766 -0.7259
  845MOL0     H14029   7.910   4.427   2.607  4.7877  0.0144 -0.3310
  845MOL0     H14030   7.800   4.294   2.670  0.3347  0.4103  0.5890
  845MOL0     H14031   7.991   4.223   2.823  1.3396  0.6349  0.8912
  845MOL0     H14032   7.944   4.384   2.858  3.2574  0.9459  1.2678
  845MOL0     H14033   8.133   4.480   2.740  0.4509 -0.5095  0.0773
  845MOL0     H14034   8.191   4.310   2.724 -0.4855 -1.9975  1.1873
  845MOL0     H14035   8.383   4.484   2.770 -0.1659  1.7822 -0.7995
  845MOL0     H14036   8.565   4.592   2.855 -0.2909 -0.0274 -0.0880
  845MOL0     H14037   8.758   4.704   3.461 -1.4057 -1.2204 -1.1461
  845MOL0     H14038   8.998   4.784   3.529  0.6823  1.3260 -2.2387
  845MOL0     H14039   9.366   4.561   3.396 -0.2469 -0.2477 -0.5311
  845MOL0     H14040   9.315   4.668   3.263 -1.7267  0.8510  1.0877
  845MOL0     H14041   9.530   4.723   3.360  1.1704  1.6851  0.6733
  845MOL0     H14042   9.421   4.866   3.387 -1.5457  1.1347  4.4329
  845MOL0     H14043   9.393   4.829   3.617  2.3134 -2.0182  5.3673
  845MOL0     H14044   9.455   4.673   3.617  1.0538  0.3806  0.6078
  845MOL0     H14045   9.607   4.878   3.693  0.9237  0.9146 -0.2506
  845MOL0     H14046   9.628   4.901   3.524 -4.8572 -0.4230 -2.3019
  845MOL0     H14047   9.690   4.666   3.504  1.5289  1.5833 -0.8134
  845MOL0     H14048   9.690   4.645   3.683  3.6548  0.3227  1.3851
  845MOL0     H14049   9.872   4.789   3.491 -1.3962 -5.5089 -1.4770
  845MOL0     H14050   9.868   4.850   3.661  0.5115 -0.2769  0.1214
  845MOL0     H14051   9.923   4.628   3.740  0.9208  0.1166  0.6079
  845MOL0     H14052  10.053   4.709   3.658 -0.5221  0.7946 -0.1925
  845MOL0     H14053   9.864   4.487   3.560 -0.4503 -0.0931 -1.9486
  845MOL0     H14054   9.989   4.560   3.449  1.3946 -0.0375 -0.0405
  845MOL0     H14055   9.140   4.541   3.199  0.0979 -0.4539  0.3163
  845MOL0     H14056   8.910   4.505   3.126 -4.0402  0.8424  0.0981
  845MOL0     H14057   8.452   4.466   3.262  0.1282  2.7438  0.4933
  845MOL0     H14058   8.238   4.400   3.175  1.0897  2.5263  3.2235
  845MOL0     H14059   6.491   3.970   1.783  0.3989  0.4024 -1.2071
  845MOL0     H14060   6.246   4.028   1.751 -1.7230 -0.3683  2.5373
  845MOL0     H14061   5.897   4.288   1.798 -0.7993 -2.3655 -2.9264
  845MOL0     H14062   5.659   4.334   1.805 -1.1774 -1.8636 -1.2333
  845MOL0     H14063   5.313   4.250   1.875  1.6101 -2.7249 -2.3842
  845MOL0     H14064   5.453   4.257   1.778 -0.6808 -0.7456  0.2842
  845MOL0     H14065   5.372   4.488   1.792 -0.8268  1.5238  1.1298
  845MOL0     H14066   5.497   4.485   1.912 -1.4854  1.8901 -0.3292
  845MOL0     H14067   5.293   4.406   2.071 -0.0788  0.0594  0.5532
  845MOL0     H14068   5.188   4.458   1.933 -0.3583 -1.0131  1.1911
  845MOL0     H14069   5.372   4.644   2.089  0.1535  1.1312 -1.5070
  845MOL0     H14070   5.254   4.684   1.958 -2.4163 -0.3745  0.4947
  845MOL0     H14071   5.007   4.659   2.290 -1.4926  1.2142 -1.4879
  845MOL0     H14072   5.612   4.079   2.150 -0.2253 -0.6316  0.1719
  845MOL0     H14073   5.943   4.123   2.265 -1.4803 -0.3865  2.1498
  845MOL0     H14074   5.794   4.042   2.289 -1.0791  1.3344 -0.9408
  845MOL0     H14075   5.931   3.959   2.211  0.1172 -0.5281  0.2483
  846MOL0     O14076   6.760   6.415   8.307 -0.9177 -1.1799 -0.0662
  846MOL0     C14077   6.819   6.517   8.344  0.1260 -0.4603  0.5558
  846MOL0     O14078   6.812   6.640   8.289 -0.0582  0.4761 -0.6593
  846MOL0     C14079   6.710   6.672   8.202 -0.0590  0.2383 -0.3373
  846MOL0     C14080   6.731   6.779   8.114  0.0337  0.2401  0.6476
  846MOL0     C14081   6.630   6.823   8.023  0.4570 -0.0355 -0.5745
  846MOL0     C14082   6.498   6.769   8.019  0.6139 -0.6092  0.3743
  846MOL0     O14083   6.408   6.807   7.932  0.1558  0.3237 -0.1262
  846MOL0     C14084   6.412   6.735   7.811  0.0903  0.5016  0.2401
  846MOL0     C14085   6.365   6.837   7.706 -0.4822  0.3779 -0.0685
  846MOL0     C14086   6.268   6.771   7.610  0.7774  0.1847  1.0045
  846MOL0     C14087   6.234   6.865   7.493 -0.3556  0.3405 -0.5289
  846MOL0     C14088   6.178   6.998   7.549  0.1855 -0.1711  0.9262
  846MOL0     C14089   6.053   6.977   7.634 -0.4008 -1.0806  0.4846
  846MOL0     C14090   6.022   7.118   7.712  0.0692  0.2307  0.2180
  846MOL0     C14091   5.879   7.112   7.773  0.3577 -0.1840  0.7987
  846MOL0     N14092   5.827   7.245   7.803 -0.1428  0.1464 -0.0172
  846MOL0     C14093   5.874   7.316   7.905 -0.0153 -0.2324  0.1457
  846MOL0     C14094   5.806   7.441   7.891  0.8587  0.7304 -0.6532
  846MOL0     C14095   5.817   7.559   7.976  0.7894 -0.3839  0.4178
  846MOL0     C14096   5.943   7.577   8.042 -0.9149 -0.9489  1.0498
  846MOL0     C14097   6.054   7.617   7.932 -0.2224  0.3147 -0.0775
  846MOL0     C14098   6.187   7.637   7.993  0.4582  1.6343  0.2644
  846MOL0     O14099   6.231   7.530   8.090 -0.0971 -0.1307  0.7537
  846MOL0     C14100   6.356   7.547   8.146 -0.2417 -0.6338 -0.4005
  846MOL0     C14101   6.463   7.608   8.073  0.4925  0.0518  0.0617
  846MOL0     C14102   6.580   7.633   8.125  0.3020  0.2278  0.1207
  846MOL0     C14103   6.612   7.607   8.259 -0.5937  0.2197 -0.1027
  846MOL0     C14104   6.759   7.630   8.306 -0.1687  0.2027  0.0447
  846MOL0     O14105   6.776   7.620   8.441 -0.4191 -0.6665  0.7714
  846MOL0     C14106   6.910   7.595   8.487  0.8571  1.1248  0.0996
  846MOL0     C14107   6.968   7.692   8.574 -0.0516  0.1145 -0.4112
  846MOL0     C14108   7.101   7.674   8.618  0.0164  0.1784  0.9862
  846MOL0     C14109   7.173   7.560   8.583  0.1299  0.2705  0.6304
  846MOL0     O14110   7.293   7.534   8.626 -0.7245 -0.0406 -0.3728
  846MOL0     C14111   7.369   7.646   8.669 -0.3858 -0.3754 -0.2276
  846MOL0     C14112   7.516   7.615   8.698  0.4830  0.0729  0.7306
  846MOL0     C14113   7.592   7.550   8.581 -0.5102 -0.1421  0.0079
  846MOL0     C14114   7.739   7.518   8.613 -0.2070  0.6214 -1.6050
  846MOL0     C14115   7.817   7.492   8.488 -0.9272 -0.1553  1.2835
  846MOL0     C14116   7.957   7.431   8.520 -0.6737 -0.3435  0.4978
  846MOL0     C14117   8.061   7.435   8.400  0.1528  0.2319 -0.3029
  846MOL0     C14118   8.022   7.341   8.291  1.1530 -0.4306 -0.6799
  846MOL0    Cl14119   8.057   7.181   8.357  0.0853  0.2675  0.2554
  846MOL0     C14120   7.117   7.461   8.504  0.5394 -0.2346  0.1948
  846MOL0     C14121   6.983   7.478   8.456 -0.3766  0.1633 -0.4699
  846MOL0     O14122   6.847   7.634   8.224  0.3051 -0.5500  0.4074
  846MOL0     C14123   6.516   7.540   8.331 -0.2463  0.4837  0.1722
  846MOL0     C14124   6.387   7.504   8.276  0.3412 -0.7639 -0.3841
  846MOL0     N14125   5.723   7.432   7.782 -0.1933 -0.1282  0.1315
  846MOL0     N14126   5.746   7.318   7.720  0.9267 -0.1165 -0.6148
  846MOL0     C14127   6.479   6.668   8.109 -0.2895  0.3042 -0.4347
  846MOL0     C14128   6.585   6.622   8.199  0.4513  0.0532  0.1434
  846MOL0     C14129   6.935   6.490   8.435  0.2308  0.3648 -0.4002
  846MOL0     C14130   7.021   6.600   8.462 -0.2628  0.0589  0.4715
  846MOL0     C14131   7.149   6.588   8.523 -0.0720 -0.3650 -0.1432
  846MOL0     C14132   7.190   6.463   8.572  0.5587 -0.4679  0.6289
  846MOL0     O14133   7.309   6.434   8.634 -0.0953 -0.2356 -0.2657
  846MOL0     C14134   7.404   6.544   8.634  0.2640  0.1411 -0.6533
  846MOL0     C14135   7.522   6.485   8.705  0.1138 -0.1142  0.3079
  846MOL0     C14136   7.640   6.585   8.683 -0.3120 -1.2810  0.1773
  846MOL0     C14137   7.746   6.591   8.795  0.7360 -0.3362 -0.2976
  846MOL0     C14138   7.806   6.459   8.787  0.2110  0.4377  1.1249
  846MOL0     C14139   7.869   6.359   8.773  0.1980  0.8503  0.5424
  846MOL0     C14140   7.097   6.358   8.565  0.1331  0.1486  0.5102
  846MOL0     C14141   6.971   6.377   8.503 -0.6591  0.4062 -1.6497
  846MOL0     C14142   6.877   6.257   8.501 -1.1525  0.2255 -0.1339
  846MOL0     H14143   6.831   6.822   8.121 -0.3047  1.5181 -1.4653
  846MOL0     H14144   6.660   6.902   7.955 -3.0115  0.3872 -1.7995
  846MOL0     H14145   6.515   6.710   7.787  0.3161  3.0255 -1.8445
  846MOL0     H14146   6.346   6.648   7.822  0.3290  0.2582 -0.2253
  846MOL0     H14147   6.451   6.867   7.646  0.2365  0.9024  1.2004
  846MOL0     H14148   6.317   6.920   7.759 -1.2114  0.3447 -0.6454
  846MOL0     H14149   6.173   6.728   7.645 -1.0093  0.4290 -2.9923
  846MOL0     H14150   6.321   6.692   7.557  0.1063 -0.1834  0.8677
  846MOL0     H14151   6.322   6.885   7.431 -0.2080  1.6296  0.0772
  846MOL0     H14152   6.159   6.818   7.428  1.0574 -0.7667 -1.4392
  846MOL0     H14153   6.252   7.061   7.600  0.3276  1.7244 -1.4279
  846MOL0     H14154   6.154   7.055   7.459 -2.6001  2.0803  2.9308
  846MOL0     H14155   5.968   6.938   7.577 -0.3060 -0.3359 -0.1881
  846MOL0     H14156   6.066   6.901   7.712 -1.6913 -1.6633  0.1677
  846MOL0     H14157   6.032   7.202   7.642  1.4245 -0.3668 -0.3335
  846MOL0     H14158   6.098   7.121   7.790  1.7852  0.6219 -1.3809
  846MOL0     H14159   5.824   7.057   7.697  1.3442 -1.3764  0.9166
  846MOL0     H14160   5.874   7.046   7.860 -4.2618 -2.1179 -0.6338
  846MOL0     H14161   5.936   7.289   7.990 -0.9858 -2.2995  0.2666
  846MOL0     H14162   5.798   7.643   7.909 -0.9406 -1.1593 -0.1142
  846MOL0     H14163   5.727   7.568   8.037 -0.4631  0.9879 -1.5034
  846MOL0     H14164   5.935   7.658   8.115  0.7967  0.2034  0.0269
  846MOL0     H14165   5.976   7.487   8.093  0.8609  0.6203  2.8464
  846MOL0     H14166   6.031   7.708   7.875 -0.1359  0.1539 -0.3707
  846MOL0     H14167   6.057   7.541   7.854 -0.0228  0.8705 -0.6178
  846MOL0     H14168   6.186   7.734   8.044 -1.6006  1.3181  0.8908
  846MOL0     H14169   6.255   7.627   7.908 -0.5688 -0.7278 -0.3782
  846MOL0     H14170   6.449   7.637   7.969  0.5816 -1.1799 -0.3063
  846MOL0     H14171   6.656   7.674   8.059  0.1505  1.4677  0.6803
  846MOL0     H14172   6.897   7.773   8.585 -1.7478 -1.3386 -0.2931
  846MOL0     H14173   7.130   7.748   8.692 -3.0360  0.5632  1.9358
  846MOL0     H14174   7.361   7.724   8.593 -1.4672 -0.7391 -0.5084
  846MOL0     H14175   7.338   7.674   8.770  1.3091 -1.8399  0.7616
  846MOL0     H14176   7.563   7.714   8.710 -1.0787  1.0135 -0.4850
  846MOL0     H14177   7.530   7.551   8.785  0.1746 -0.1123  0.6432
  846MOL0     H14178   7.541   7.453   8.571  0.4781 -0.4007 -4.3297
  846MOL0     H14179   7.585   7.613   8.492 -0.4815  1.2617  0.9673
  846MOL0     H14180   7.744   7.434   8.683  1.7320  1.7651 -0.2607
  846MOL0     H14181   7.795   7.596   8.665 -0.7945 -1.3276  2.2911
  846MOL0     H14182   7.827   7.586   8.433  0.0493 -1.3683 -0.7231
  846MOL0     H14183   7.772   7.425   8.415  2.4089  0.6717 -1.7952
  846MOL0     H14184   7.991   7.493   8.603 -2.2580 -0.6709  1.4308
  846MOL0     H14185   7.939   7.329   8.555 -1.9397  0.0343  1.0020
  846MOL0     H14186   8.163   7.416   8.432 -0.2262 -0.8473  0.3268
  846MOL0     H14187   8.064   7.541   8.372  1.0722  0.1490 -0.5419
  846MOL0     H14188   7.918   7.356   8.259  1.4639  3.9570 -0.3299
  846MOL0     H14189   8.083   7.364   8.203  2.8538  0.4078  0.6600
  846MOL0     H14190   7.177   7.371   8.498  1.0290 -0.0308  1.7526
  846MOL0     H14191   6.944   7.399   8.392 -0.9014  0.6548 -0.7614
  846MOL0     H14192   6.540   7.525   8.436  2.4884 -2.7805 -0.7457
  846MOL0     H14193   6.318   7.447   8.339  1.8752 -0.4483  1.7009
  846MOL0     H14194   6.385   6.613   8.112  0.0951 -0.7375 -3.7488
  846MOL0     H14195   6.557   6.537   8.261  1.4515 -0.8166 -0.5539
  846MOL0     H14196   6.993   6.696   8.419 -3.5229 -1.4561 -1.1688
  846MOL0     H14197   7.206   6.680   8.528  1.5918 -1.3186 -0.7922
  846MOL0     H14198   7.363   6.624   8.695 -0.8031 -0.6301 -0.3212
  846MOL0     H14199   7.421   6.575   8.530 -1.2771  0.5544 -0.7976
  846MOL0     H14200   7.550   6.396   8.649 -0.5453 -0.0835 -0.0840
  846MOL0     H14201   7.503   6.458   8.809  0.9397 -0.1039  0.4707
  846MOL0     H14202   7.589   6.682   8.677 -0.5350 -1.3481  0.8968
  846MOL0     H14203   7.687   6.552   8.590  0.2809  0.0205 -0.0159
  846MOL0     H14204   7.820   6.670   8.777  1.7175 -1.7248 -2.7220
  846MOL0     H14205   7.695   6.599   8.892 -0.5979  0.4048 -1.0298
  846MOL0     H14206   7.933   6.278   8.747  1.7600  1.9798  0.7175
  846MOL0     H14207   7.130   6.262   8.603  0.0607 -0.1904 -0.2615
  846MOL0     H14208   6.774   6.283   8.524 -1.8019  0.6032 -3.0392
  846MOL0     H14209   6.887   6.205   8.405  2.2375 -1.2293  0.8409
  846MOL0     H14210   6.905   6.195   8.586  0.7885  2.9277  1.3622
  847MOL0     O14211   3.051   1.981   9.153 -0.1643  0.3723 -0.0462
  847MOL0     C14212   3.003   1.919   9.243 -1.1396  0.4978 -0.3010
  847MOL0     O14213   3.077   1.831   9.322  0.1700  0.0472  0.2989
  847MOL0     C14214   3.202   1.792   9.292 -0.3854  0.0429  0.0630
  847MOL0     C14215   3.288   1.879   9.223  0.3346 -0.4941 -0.1579
  847MOL0     C14216   3.419   1.846   9.206  0.8479 -0.2449  1.1725
  847MOL0     C14217   3.468   1.720   9.253  0.3128 -0.5596 -0.5253
  847MOL0     O14218   3.598   1.688   9.235 -0.1994 -0.5702 -0.3297
  847MOL0     C14219   3.662   1.720   9.107  0.0806  0.1962 -0.0660
  847MOL0     C14220   3.807   1.668   9.109 -0.1256  0.1042 -0.2269
  847MOL0     C14221   3.902   1.704   8.985  0.1899  0.4319  0.7098
  847MOL0     C14222   3.855   1.661   8.852  0.1702  0.2242 -0.3606
  847MOL0     C14223   3.952   1.692   8.742  0.7654 -0.3911  0.2052
  847MOL0     C14224   3.879   1.651   8.610 -0.7459 -0.5668  0.0195
  847MOL0     C14225   3.975   1.658   8.493  0.0511  0.0599 -0.6302
  847MOL0     C14226   3.900   1.723   8.372 -0.4535 -0.1209 -0.4574
  847MOL0     N14227   3.992   1.731   8.260  0.0572  0.4591 -0.5815
  847MOL0     C14228   4.014   1.628   8.166 -0.4328 -0.1299  0.1926
  847MOL0     C14229   4.112   1.677   8.087  0.5470  0.2254 -0.1736
  847MOL0     C14230   4.193   1.603   7.976  0.4079 -0.6412 -0.3179
  847MOL0     C14231   4.236   1.462   8.039  0.1617  0.0433  0.5769
  847MOL0     C14232   4.327   1.397   7.931  0.0339 -0.0995  0.3627
  847MOL0     C14233   4.389   1.259   7.972 -0.4956 -0.7277 -0.1228
  847MOL0     O14234   4.496   1.280   8.072 -0.3510 -0.0844 -0.2325
  847MOL0     C14235   4.596   1.183   8.075 -0.4257  0.5882 -0.4930
  847MOL0     C14236   4.709   1.208   8.154  0.4015  0.6287 -0.5636
  847MOL0     C14237   4.809   1.110   8.164 -0.5144  1.2668  0.5432
  847MOL0     C14238   4.799   0.984   8.089 -1.0077 -0.3115  0.7341
  847MOL0     C14239   4.888   0.868   8.103 -0.5857  0.2221 -0.1441
  847MOL0     O14240   5.005   0.898   8.177 -0.2854  0.4531 -0.6187
  847MOL0     C14241   5.095   0.803   8.219  0.3805 -0.3574 -0.7794
  847MOL0     C14242   5.228   0.844   8.208  0.4222 -0.0603  0.5543
  847MOL0     C14243   5.326   0.761   8.260 -0.2634 -0.6643  1.7728
  847MOL0     C14244   5.291   0.647   8.324 -0.8461 -0.7027 -0.1845
  847MOL0     O14245   5.383   0.559   8.377 -0.0736 -0.2512 -0.1844
  847MOL0     C14246   5.493   0.622   8.430  0.2139  0.4048  0.8542
  847MOL0     C14247   5.572   0.514   8.516 -0.1259 -0.3219  0.2605
  847MOL0     C14248   5.672   0.583   8.613  0.3255  0.6576  1.0439
  847MOL0     C14249   5.739   0.475   8.695 -0.0195 -0.4566 -0.0577
  847MOL0     C14250   5.830   0.533   8.798 -0.4304  0.4754  0.1093
  847MOL0     C14251   5.952   0.616   8.755  0.5359 -0.2879  0.5819
  847MOL0     C14252   6.035   0.555   8.644  1.1167  0.1787 -0.6758
  847MOL0     C14253   6.156   0.640   8.606 -0.1252  0.6336 -0.5038
  847MOL0    Cl14254   6.274   0.656   8.742 -0.0617 -0.8767 -0.2100
  847MOL0     C14255   5.165   0.608   8.324  1.4282 -0.9728  0.0486
  847MOL0     C14256   5.057   0.687   8.278 -0.6244  0.3065 -0.2237
  847MOL0     O14257   4.853   0.760   8.060  0.0410  0.2103 -0.4206
  847MOL0     C14258   4.679   0.966   8.017 -0.4218  0.1156 -0.3053
  847MOL0     C14259   4.577   1.056   8.023  0.5246  0.7157  0.2053
  847MOL0     N14260   4.144   1.808   8.130 -0.2706  0.0120  0.6140
  847MOL0     N14261   4.070   1.838   8.226 -0.6030 -0.0150 -0.1112
  847MOL0     C14262   3.382   1.630   9.314 -0.8206  1.1638  0.4920
  847MOL0     C14263   3.249   1.664   9.343  0.9373  0.3955  0.0418
  847MOL0     C14264   2.863   1.936   9.249 -0.6900 -0.2421 -0.0621
  847MOL0     C14265   2.807   2.067   9.262 -0.4300  0.0286 -0.1633
  847MOL0     C14266   2.677   2.088   9.286  0.0926  0.6844  0.2371
  847MOL0     C14267   2.590   1.976   9.307 -0.1237  0.1833  0.3110
  847MOL0     O14268   2.460   2.014   9.345  0.2196  0.5420 -0.5197
  847MOL0     C14269   2.361   1.919   9.399 -0.3590  0.1859 -0.5635
  847MOL0     C14270   2.243   2.009   9.438 -0.1042 -0.7007 -0.3484
  847MOL0     C14271   2.173   2.079   9.320 -0.2621  0.3955 -0.0974
  847MOL0     C14272   2.038   2.140   9.357 -0.0972  0.1812  0.5342
  847MOL0     C14273   1.956   2.165   9.242  0.2187  0.5980  0.3035
  847MOL0     C14274   1.901   2.193   9.132 -0.1485  0.2944 -0.6719
  847MOL0     C14275   2.640   1.847   9.304  0.2467  0.3189 -0.6786
  847MOL0     C14276   2.781   1.820   9.286 -0.2619 -0.4161  0.0682
  847MOL0     C14277   2.835   1.680   9.290 -0.5491 -0.1147 -0.0687
  847MOL0     H14278   3.271   1.979   9.185  0.1642  0.0639  1.3177
  847MOL0     H14279   3.486   1.909   9.149 -1.6481 -0.2062 -2.0586
  847MOL0     H14280   3.609   1.676   9.023  3.2719  0.9510 -2.6653
  847MOL0     H14281   3.667   1.826   9.080 -1.6113 -0.0220 -1.3872
  847MOL0     H14282   3.813   1.559   9.120 -2.3109  0.0282  0.7698
  847MOL0     H14283   3.854   1.702   9.202  1.2534 -1.5096 -0.2875
  847MOL0     H14284   3.997   1.650   8.991 -0.3761 -0.7297 -0.3267
  847MOL0     H14285   3.929   1.810   8.992 -0.3089  0.5701  0.6336
  847MOL0     H14286   3.846   1.552   8.853 -0.8671  0.2627 -1.9024
  847MOL0     H14287   3.758   1.703   8.824 -0.7519 -1.2930  0.3940
  847MOL0     H14288   3.974   1.799   8.742 -1.1596  0.0778 -1.6795
  847MOL0     H14289   4.048   1.643   8.756  0.8670  0.4965  3.4898
  847MOL0     H14290   3.841   1.549   8.612 -0.3262 -0.8189 -2.2447
  847MOL0     H14291   3.792   1.717   8.600  0.9993  1.6887 -1.1718
  847MOL0     H14292   4.008   1.556   8.474  0.0314 -0.3339  1.2700
  847MOL0     H14293   4.061   1.721   8.516  1.2171 -1.0180 -1.8782
  847MOL0     H14294   3.818   1.655   8.347  1.1218 -2.2362 -0.1490
  847MOL0     H14295   3.871   1.822   8.409 -2.3459 -2.1039  4.0215
  847MOL0     H14296   3.987   1.523   8.166  3.0634 -1.1366  0.3928
  847MOL0     H14297   4.128   1.589   7.889 -1.6041  2.8706  0.4311
  847MOL0     H14298   4.279   1.664   7.949 -0.2300  1.4334  1.9576
  847MOL0     H14299   4.298   1.481   8.127  1.1710  0.7069 -0.2508
  847MOL0     H14300   4.153   1.396   8.066  2.0701 -2.0297  1.7168
  847MOL0     H14301   4.398   1.479   7.919  0.8337 -0.7271  0.6940
  847MOL0     H14302   4.268   1.384   7.840 -1.1670  0.2411  1.0789
  847MOL0     H14303   4.445   1.221   7.886  0.2718 -3.0129  1.3032
  847MOL0     H14304   4.306   1.196   8.002 -0.6517 -0.8443 -0.7759
  847MOL0     H14305   4.720   1.296   8.216 -2.9952  0.4028  0.5761
  847MOL0     H14306   4.892   1.118   8.234 -0.2956 -1.8568  0.8073
  847MOL0     H14307   5.250   0.937   8.156  1.2047 -1.4524 -1.7655
  847MOL0     H14308   5.429   0.795   8.247 -0.8195  0.6423  0.4371
  847MOL0     H14309   5.557   0.648   8.345 -0.9979 -0.9176 -0.5123
  847MOL0     H14310   5.474   0.714   8.486  2.5314  1.5935 -0.1647
  847MOL0     H14311   5.493   0.456   8.565 -0.1502 -0.9560 -0.5038
  847MOL0     H14312   5.620   0.450   8.443  0.5946 -1.4621  1.6853
  847MOL0     H14313   5.746   0.631   8.548  0.9198  0.0332  1.2483
  847MOL0     H14314   5.635   0.661   8.681  0.7679  1.4915  0.3488
  847MOL0     H14315   5.790   0.407   8.626  0.5334  1.2164 -1.3755
  847MOL0     H14316   5.658   0.418   8.741 -2.6900  0.1656 -3.5279
  847MOL0     H14317   5.864   0.460   8.872 -0.1253  1.1874  0.6809
  847MOL0     H14318   5.764   0.599   8.855 -0.9085  0.0103  0.1071
  847MOL0     H14319   5.914   0.708   8.711  3.0894 -0.3233 -1.9459
  847MOL0     H14320   6.014   0.640   8.842 -0.4432  0.2609  1.1484
  847MOL0     H14321   5.975   0.535   8.555 -1.6076 -5.4806  1.9563
  847MOL0     H14322   6.065   0.455   8.678 -1.8353 -0.5541  0.0545
  847MOL0     H14323   6.201   0.593   8.518  0.2359  0.5150 -0.2563
  847MOL0     H14324   6.125   0.740   8.574  0.9171  0.9717 -0.4686
  847MOL0     H14325   5.140   0.507   8.354  2.7882 -0.8031  1.8767
  847MOL0     H14326   4.954   0.652   8.280 -1.4828  2.6655 -0.1472
  847MOL0     H14327   4.663   0.882   7.950  4.9070  0.3462 -2.3676
  847MOL0     H14328   4.495   1.023   7.961  2.2306 -2.0300 -0.7923
  847MOL0     H14329   3.416   1.528   9.324  2.0259  2.2026  2.8263
  847MOL0     H14330   3.186   1.588   9.388  2.5297 -0.6686  0.5853
  847MOL0     H14331   2.865   2.158   9.248  0.4685 -0.7858 -2.2267
  847MOL0     H14332   2.624   2.182   9.299 -0.3795  0.5649 -0.7369
  847MOL0     H14333   2.391   1.862   9.487 -1.3313 -1.8377 -1.4683
  847MOL0     H14334   2.318   1.854   9.322  0.2405  0.9116 -1.5458
  847MOL0     H14335   2.266   2.089   9.509 -1.5651 -0.0958 -0.5151
  847MOL0     H14336   2.169   1.945   9.487 -0.7435 -0.3494 -0.8307
  847MOL0     H14337   2.167   2.011   9.235  1.1877  1.1599 -0.8498
  847MOL0     H14338   2.245   2.153   9.283 -0.7287  0.2043 -1.4395
  847MOL0     H14339   1.987   2.071   9.425 -0.6427  0.4359  0.3918
  847MOL0     H14340   2.048   2.236   9.410 -0.2428 -0.0835  1.0491
  847MOL0     H14341   1.849   2.211   9.040 -0.8539  0.2635 -0.2814
  847MOL0     H14342   2.567   1.766   9.300 -0.1395  0.7103 -2.6364
  847MOL0     H14343   2.886   1.670   9.193  1.5204 -2.8863  1.1481
  847MOL0     H14344   2.900   1.647   9.371 -0.4464 -2.4888 -1.0310
  847MOL0     H14345   2.749   1.612   9.298  0.6421 -1.4080  3.9489
  848MOL0     O14346   5.808   7.964   9.422  0.5826 -0.4448 -0.7410
  848MOL0     C14347   5.772   7.937   9.309  0.5159  0.1611 -0.2850
  848MOL0     O14348   5.850   7.919   9.196 -0.4749  0.0149 -0.1032
  848MOL0     C14349   5.986   7.912   9.207  0.6077  0.5680 -0.0039
  848MOL0     C14350   6.045   7.884   9.079  0.2107 -0.8070 -0.1053
  848MOL0     C14351   6.180   7.857   9.066  0.6438  0.6181 -0.2412
  848MOL0     C14352   6.263   7.843   9.170  0.0690 -0.6104 -0.2459
  848MOL0     O14353   6.394   7.826   9.136 -1.3481  0.0399 -0.4889
  848MOL0     C14354   6.493   7.824   9.242 -0.4734  0.2106 -0.1252
  848MOL0     C14355   6.525   7.670   9.264 -0.3642 -0.7875  0.1805
  848MOL0     C14356   6.653   7.651   9.348  0.2506  0.4282 -0.2312
  848MOL0     C14357   6.654   7.723   9.479  0.0933 -0.0309  0.3938
  848MOL0     C14358   6.750   7.673   9.585 -0.0313 -0.2391 -0.2251
  848MOL0     C14359   6.894   7.668   9.541 -0.8486 -0.0499  0.0183
  848MOL0     C14360   6.996   7.629   9.653 -0.2849 -0.1633  0.3098
  848MOL0     C14361   7.120   7.564   9.588  0.6006  0.8625 -0.3429
  848MOL0     N14362   7.235   7.544   9.667  1.0847 -0.5999 -0.0989
  848MOL0     C14363   7.318   7.433   9.672 -0.4028  0.8574 -0.0025
  848MOL0     C14364   7.440   7.488   9.712 -0.0613 -0.6261 -0.8681
  848MOL0     C14365   7.575   7.422   9.712 -0.4814  0.2272 -0.3562
  848MOL0     C14366   7.683   7.495   9.632 -0.3078  0.4915 -0.2481
  848MOL0     C14367   7.629   7.503   9.484  0.2079  0.2924  1.5976
  848MOL0     C14368   7.748   7.554   9.409 -0.5687  0.1539  0.3900
  848MOL0     O14369   7.707   7.616   9.284  0.4731 -0.3681 -0.3006
  848MOL0     C14370   7.799   7.619   9.181  0.2645  0.1816 -0.1140
  848MOL0     C14371   7.936   7.573   9.181  0.2257 -0.1138 -0.5976
  848MOL0     C14372   8.021   7.593   9.070 -0.5959 -0.2474 -0.3733
  848MOL0     C14373   7.984   7.660   8.961 -0.4493 -0.5892  0.3348
  848MOL0     C14374   8.064   7.667   8.838  0.0645  0.8360  0.4635
  848MOL0     O14375   8.182   7.597   8.846 -0.1111  0.9838 -0.3702
  848MOL0     C14376   8.278   7.597   8.750  0.4732 -0.4515  0.0864
  848MOL0     C14377   8.332   7.469   8.721 -0.3146 -0.4742  0.3995
  848MOL0     C14378   8.417   7.458   8.619  0.3975 -0.0829  0.2849
  848MOL0     C14379   8.459   7.566   8.543  1.7501 -0.1570  0.4130
  848MOL0     O14380   8.543   7.565   8.439  0.4679  0.6897 -0.3853
  848MOL0     C14381   8.601   7.440   8.410 -0.0091 -0.7218  1.2206
  848MOL0     C14382   8.679   7.439   8.277 -0.5494  0.8523  0.3569
  848MOL0     C14383   8.680   7.295   8.218  0.2896  0.0602 -0.1478
  848MOL0     C14384   8.708   7.299   8.078 -0.0319  0.0549  0.2811
  848MOL0     C14385   8.852   7.342   8.036  0.6412 -0.6367  1.1212
  848MOL0     C14386   8.963   7.280   8.118 -0.4168 -0.4805  0.6951
  848MOL0     C14387   9.099   7.330   8.074 -0.7001 -0.3467 -0.9074
  848MOL0     C14388   9.213   7.321   8.188 -0.5058  0.2095  0.5552
  848MOL0    Cl14389   9.251   7.156   8.231 -0.0110  0.6803  0.0006
  848MOL0     C14390   8.405   7.693   8.575  0.5222 -0.0812  0.1002
  848MOL0     C14391   8.316   7.709   8.676  0.3516  0.3874  0.5515
  848MOL0     O14392   8.026   7.737   8.745 -0.0244  0.5061 -0.1706
  848MOL0     C14393   7.858   7.719   8.971  0.4954 -0.2863 -0.3857
  848MOL0     C14394   7.762   7.699   9.078  0.1459 -0.3508  1.3251
  848MOL0     N14395   7.423   7.625   9.754  0.1792  0.8288 -0.3526
  848MOL0     N14396   7.301   7.651   9.718 -0.2535  0.6669  1.0203
  848MOL0     C14397   6.209   7.875   9.300 -0.7384  0.3013 -0.3413
  848MOL0     C14398   6.072   7.904   9.318  0.2700  0.8506 -0.3164
  848MOL0     C14399   5.624   7.930   9.288 -1.1880 -0.8093  0.0583
  848MOL0     C14400   5.548   7.967   9.404  0.1263  0.3571  0.4769
  848MOL0     C14401   5.409   7.961   9.399  0.0001 -1.4274  0.8376
  848MOL0     C14402   5.341   7.915   9.287 -0.0180 -0.5884 -0.7383
  848MOL0     O14403   5.200   7.885   9.277 -0.5501 -0.2734 -0.4488
  848MOL0     C14404   5.122   7.895   9.393  0.6816 -0.1516  0.6058
  848MOL0     C14405   4.975   7.866   9.362  0.2401 -0.3878 -0.9085
  848MOL0     C14406   4.893   7.860   9.492  1.2192 -0.4694 -0.0240
  848MOL0     C14407   4.782   7.756   9.465 -0.0580  0.6213  0.3700
  848MOL0     C14408   4.664   7.772   9.546 -0.0503 -0.5264  0.2821
  848MOL0     C14409   4.551   7.772   9.592 -0.2945 -0.5715  0.2073
  848MOL0     C14410   5.421   7.897   9.174  0.0012  0.0273  0.4126
  848MOL0     C14411   5.560   7.902   9.168 -0.1709  0.1288  0.0987
  848MOL0     C14412   5.617   7.864   9.041 -0.1122 -0.6037 -0.5131
  848MOL0     H14413   5.989   7.898   8.987 -1.3054 -3.7676  0.2529
  848MOL0     H14414   6.209   7.836   8.963  1.1341 -0.4636  0.1075
  848MOL0     H14415   6.585   7.874   9.211 -0.6489  2.5936  2.6935
  848MOL0     H14416   6.460   7.884   9.328 -2.2050 -0.9289  0.0684
  848MOL0     H14417   6.540   7.623   9.167  1.3257 -1.8240  0.9050
  848MOL0     H14418   6.442   7.615   9.309 -1.2887 -0.3940 -1.0074
  848MOL0     H14419   6.742   7.672   9.289 -1.6107 -0.8205 -3.7301
  848MOL0     H14420   6.661   7.545   9.374 -1.1859  0.6988  1.5575
  848MOL0     H14421   6.664   7.832   9.476 -0.3577  0.1661  3.3960
  848MOL0     H14422   6.555   7.714   9.524 -0.3807 -0.6617 -0.7279
  848MOL0     H14423   6.745   7.746   9.666  1.8902 -0.6941  0.3460
  848MOL0     H14424   6.722   7.575   9.624 -2.9611  1.0477  1.1730
  848MOL0     H14425   6.901   7.584   9.471 -0.3073  0.6164 -0.7469
  848MOL0     H14426   6.935   7.751   9.482 -0.3894  1.8130  2.7491
  848MOL0     H14427   6.954   7.564   9.730  3.5518 -1.5973  1.4461
  848MOL0     H14428   7.028   7.719   9.707 -0.3011 -0.7234  1.2767
  848MOL0     H14429   7.091   7.470   9.540 -0.7117  0.4984  1.1063
  848MOL0     H14430   7.148   7.629   9.504 -0.6204  0.7020 -0.9032
  848MOL0     H14431   7.289   7.337   9.630  1.7111 -0.6654  1.8096
  848MOL0     H14432   7.613   7.426   9.814  0.4918  1.6920 -0.7460
  848MOL0     H14433   7.555   7.319   9.680 -1.9360 -0.1999  1.7422
  848MOL0     H14434   7.695   7.594   9.677  1.0408  0.0908  0.3259
  848MOL0     H14435   7.777   7.439   9.637 -0.3074  0.0726 -3.0158
  848MOL0     H14436   7.544   7.571   9.479  0.6986  0.9523  2.1147
  848MOL0     H14437   7.600   7.401   9.454  3.7481 -0.0829 -1.2211
  848MOL0     H14438   7.811   7.465   9.403  0.6648  0.9423  1.2355
  848MOL0     H14439   7.801   7.633   9.464 -2.9365  0.3685  2.5016
  848MOL0     H14440   7.977   7.521   9.267 -0.0422 -0.4005 -0.6407
  848MOL0     H14441   8.120   7.549   9.073  0.5867  2.2771  0.8059
  848MOL0     H14442   8.307   7.377   8.771  1.3637  0.2812  2.8096
  848MOL0     H14443   8.445   7.357   8.593  0.0319 -0.6229  1.9279
  848MOL0     H14444   8.674   7.405   8.484 -0.3389 -4.1052  0.1236
  848MOL0     H14445   8.526   7.361   8.414 -0.7813 -0.0518  0.4266
  848MOL0     H14446   8.620   7.508   8.216 -0.2146  0.8453  0.0221
  848MOL0     H14447   8.777   7.485   8.286 -1.7803  3.4631  1.4625
  848MOL0     H14448   8.755   7.227   8.261  2.4182  0.7116 -2.6095
  848MOL0     H14449   8.584   7.245   8.234 -0.2011  1.0896  0.1863
  848MOL0     H14450   8.625   7.355   8.035 -0.2088 -1.8687 -2.0704
  848MOL0     H14451   8.683   7.200   8.040 -3.0666  1.3757 -1.5112
  848MOL0     H14452   8.862   7.450   8.047 -3.2017 -0.3765  4.3175
  848MOL0     H14453   8.865   7.322   7.929 -0.0815  0.1788  0.8700
  848MOL0     H14454   8.951   7.305   8.224  1.4078  1.9539  0.4115
  848MOL0     H14455   8.964   7.173   8.096  4.1440 -0.6496  0.7372
  848MOL0     H14456   9.100   7.432   8.036 -4.2052 -0.5899 -1.9997
  848MOL0     H14457   9.148   7.269   7.998  4.6796  0.4281  1.4181
  848MOL0     H14458   9.311   7.364   8.168  0.1609 -1.4840 -0.0266
  848MOL0     H14459   9.167   7.377   8.270 -0.6184  1.4544 -0.3406
  848MOL0     H14460   8.439   7.776   8.515 -0.7603  1.8036  1.8201
  848MOL0     H14461   8.276   7.806   8.705 -0.4060 -0.3581  2.1756
  848MOL0     H14462   7.823   7.781   8.889 -2.0433  0.1365  0.9234
  848MOL0     H14463   7.666   7.750   9.073 -0.1098 -0.8770  0.6642
  848MOL0     H14464   6.275   7.876   9.386 -0.0374 -2.6046 -0.7273
  848MOL0     H14465   6.041   7.901   9.422  0.1144 -0.7108 -0.3771
  848MOL0     H14466   5.589   7.994   9.501 -0.3246  1.7518  0.3059
  848MOL0     H14467   5.368   8.015   9.484  1.4820  2.3961 -0.6709
  848MOL0     H14468   5.125   8.000   9.424 -1.0604  0.5675 -1.3633
  848MOL0     H14469   5.162   7.841   9.479  0.1267  2.1207  2.4090
  848MOL0     H14470   4.961   7.769   9.314 -2.6707 -0.4065 -0.2166
  848MOL0     H14471   4.937   7.945   9.297 -3.0269 -0.4952  0.7064
  848MOL0     H14472   4.852   7.958   9.521  4.0204  1.0008 -0.6829
  848MOL0     H14473   4.948   7.827   9.581  3.1244  1.1887 -0.5235
  848MOL0     H14474   4.762   7.757   9.357  0.7791 -0.8180  0.1626
  848MOL0     H14475   4.820   7.654   9.481 -0.1874  0.5976  0.5171
  848MOL0     H14476   4.449   7.774   9.624 -0.3164 -1.7021  0.2372
  848MOL0     H14477   5.358   7.877   9.088 -0.6331  1.3302  0.5590
  848MOL0     H14478   5.664   7.951   8.995 -2.3570  0.9760  0.0510
  848MOL0     H14479   5.678   7.775   9.061 -3.0103 -2.2583  1.9244
  848MOL0     H14480   5.542   7.823   8.972  0.2703 -0.7914 -0.8267
  849MOL0     O14481   3.418   1.726   8.613  0.3681 -0.4982 -0.6226
  849MOL0     C14482   3.310   1.710   8.553  0.8217  0.8827 -0.4335
  849MOL0     O14483   3.299   1.696   8.417 -0.5649 -0.2836 -0.1564
  849MOL0     C14484   3.420   1.674   8.350 -0.2389  0.0019  0.2834
  849MOL0     C14485   3.456   1.545   8.317  0.1023  0.2519 -0.0639
  849MOL0     C14486   3.551   1.521   8.216 -0.0009 -0.1134  0.0671
  849MOL0     C14487   3.613   1.631   8.156 -0.7270 -0.3266 -0.2757
  849MOL0     O14488   3.697   1.590   8.049  0.4771 -0.0615  0.7531
  849MOL0     C14489   3.736   1.687   7.955 -0.4024 -0.0403 -0.1061
  849MOL0     C14490   3.815   1.598   7.850  0.2845 -0.4703  0.4198
  849MOL0     C14491   3.877   1.679   7.734 -0.0442  0.2150  0.5620
  849MOL0     C14492   3.937   1.579   7.629  0.7229 -0.0347  0.4269
  849MOL0     C14493   3.981   1.665   7.508  0.1670 -0.5684 -0.1936
  849MOL0     C14494   3.990   1.581   7.391 -0.2490 -0.8233  1.0097
  849MOL0     C14495   3.855   1.565   7.314 -0.2894  0.2889  1.0714
  849MOL0     C14496   3.866   1.461   7.195 -0.5346  0.0427  0.3563
  849MOL0     N14497   3.733   1.448   7.133 -0.5865 -0.0614 -0.3858
  849MOL0     C14498   3.691   1.520   7.021  0.7614 -1.0939 -0.0629
  849MOL0     C14499   3.582   1.455   6.976 -0.2602 -0.4378 -0.5580
  849MOL0     C14500   3.489   1.484   6.857 -0.8823 -0.1563  0.2796
  849MOL0     C14501   3.390   1.377   6.823 -0.4583 -0.3810 -0.3001
  849MOL0     C14502   3.271   1.425   6.735  0.7473  0.9797 -0.2851
  849MOL0     C14503   3.168   1.494   6.819 -0.2257 -0.8407  0.0689
  849MOL0     O14504   3.107   1.405   6.913  0.2349  0.4446  0.1635
  849MOL0     C14505   3.013   1.310   6.860  0.1273  0.0974  0.0683
  849MOL0     C14506   2.987   1.202   6.943 -0.1668  0.3724  0.4604
  849MOL0     C14507   2.889   1.109   6.914 -0.0244  0.7442 -0.6603
  849MOL0     C14508   2.813   1.118   6.801 -0.2058 -0.5529 -0.0778
  849MOL0     C14509   2.709   1.024   6.769 -0.3747 -0.5129 -0.1659
  849MOL0     O14510   2.616   1.065   6.679  0.0234  0.1001 -0.2340
  849MOL0     C14511   2.491   1.001   6.666  0.1357 -0.3000 -0.2080
  849MOL0     C14512   2.429   0.962   6.788 -0.1996 -0.9020  0.0930
  849MOL0     C14513   2.304   0.898   6.782 -0.0541  0.2523 -0.5030
  849MOL0     C14514   2.240   0.864   6.661 -0.0812 -0.0119 -0.4024
  849MOL0     O14515   2.127   0.792   6.645  0.4910 -0.6393 -0.2215
  849MOL0     C14516   2.018   0.822   6.736 -0.7402  0.0765  0.2964
  849MOL0     C14517   1.889   0.800   6.659  0.1972  0.0513  1.0918
  849MOL0     C14518   1.770   0.846   6.736  0.2872  0.4317  0.0556
  849MOL0     C14519   1.644   0.833   6.655  0.0538  0.3350  0.3502
  849MOL0     C14520   1.530   0.919   6.709  0.9973  0.6471  0.3498
  849MOL0     C14521   1.496   0.883   6.851  0.0661 -0.3056 -0.9376
  849MOL0     C14522   1.366   0.937   6.894  1.8846 -0.4594 -0.2064
  849MOL0     C14523   1.326   0.908   7.036  1.0547  0.2109 -0.7295
  849MOL0    Cl14524   1.173   0.989   7.058 -0.2887 -0.7360 -0.0908
  849MOL0     C14525   2.304   0.911   6.540 -1.4420 -0.0299  0.0844
  849MOL0     C14526   2.431   0.975   6.543 -0.6013 -0.4921  0.4794
  849MOL0     O14527   2.707   0.912   6.826  0.1529  0.3868 -0.6912
  849MOL0     C14528   2.845   1.221   6.710  0.6456  0.9673  0.1107
  849MOL0     C14529   2.933   1.322   6.742  0.4523  0.0418 -0.2209
  849MOL0     N14530   3.544   1.365   7.078  0.4099  0.3087 -0.1968
  849MOL0     N14531   3.640   1.361   7.162 -0.0891 -1.0367 -1.0169
  849MOL0     C14532   3.575   1.760   8.194 -0.1115 -0.7826  0.6853
  849MOL0     C14533   3.480   1.784   8.285  0.2002  0.0853  0.1113
  849MOL0     C14534   3.169   1.724   8.615  0.1208  0.3190 -0.1969
  849MOL0     C14535   3.044   1.725   8.532  0.0982 -0.1057  0.4787
  849MOL0     C14536   2.919   1.732   8.593 -0.7761  0.8758  0.3620
  849MOL0     C14537   2.905   1.729   8.725  0.7485  0.1027 -0.4029
  849MOL0     O14538   2.781   1.723   8.781  0.0181  0.7380  0.1346
  849MOL0     C14539   2.741   1.804   8.890  0.4937 -1.0991 -0.6476
  849MOL0     C14540   2.738   1.955   8.846  0.2332 -0.0599 -0.6256
  849MOL0     C14541   2.626   1.986   8.747  0.8820  0.6434 -0.2822
  849MOL0     C14542   2.482   1.954   8.808  0.3959  1.5273  0.0049
  849MOL0     C14543   2.452   2.046   8.925  0.3850  0.1853  0.0379
  849MOL0     C14544   2.425   2.101   9.030  0.5131 -0.3226 -0.2513
  849MOL0     C14545   3.020   1.744   8.804 -0.5451 -0.9201 -0.5972
  849MOL0     C14546   3.148   1.732   8.756  0.3358  0.1267  0.3903
  849MOL0     C14547   3.256   1.708   8.857 -0.1947  0.6862 -0.6039
  849MOL0     H14548   3.390   1.473   8.365 -0.4694  0.0229 -1.1588
  849MOL0     H14549   3.573   1.420   8.180  0.4500  0.5379 -1.5826
  849MOL0     H14550   3.650   1.736   7.909  1.2767  1.7614 -1.5013
  849MOL0     H14551   3.793   1.772   7.993 -0.2107  0.5239 -1.5781
  849MOL0     H14552   3.745   1.519   7.821  0.3343 -0.6833  0.8783
  849MOL0     H14553   3.896   1.551   7.906 -0.1808 -0.6457  0.9458
  849MOL0     H14554   3.954   1.749   7.767 -0.3303  0.3792  0.8954
  849MOL0     H14555   3.801   1.749   7.698 -0.3202 -0.4752 -0.2178
  849MOL0     H14556   4.021   1.520   7.669 -0.2265 -0.2815  2.1394
  849MOL0     H14557   3.855   1.514   7.600  1.3368  0.0817 -1.7571
  849MOL0     H14558   3.916   1.749   7.482 -0.2729 -1.6944 -3.1547
  849MOL0     H14559   4.078   1.716   7.517  0.2075 -0.0058 -2.8993
  849MOL0     H14560   4.047   1.640   7.318 -0.1315 -2.0934  0.0486
  849MOL0     H14561   4.039   1.484   7.402 -0.1034 -0.6159  2.3017
  849MOL0     H14562   3.821   1.665   7.288  1.1167  0.2923 -1.0375
  849MOL0     H14563   3.791   1.519   7.389 -2.1452  1.4004  0.2189
  849MOL0     H14564   3.937   1.498   7.121 -0.6402 -0.0827  0.1916
  849MOL0     H14565   3.907   1.366   7.229  2.6096  0.1035 -2.7810
  849MOL0     H14566   3.735   1.609   6.977 -0.5568  0.7585  2.1757
  849MOL0     H14567   3.433   1.576   6.878 -0.1950  0.1230  0.9081
  849MOL0     H14568   3.551   1.520   6.774  0.3644  1.9947  2.0492
  849MOL0     H14569   3.452   1.309   6.764  1.4934  2.0729 -1.2741
  849MOL0     H14570   3.350   1.333   6.915  1.6213  1.4322  1.5918
  849MOL0     H14571   3.221   1.340   6.686  2.9020  0.5791 -1.9775
  849MOL0     H14572   3.312   1.482   6.651 -0.0019  0.3419 -1.1127
  849MOL0     H14573   3.099   1.548   6.754  1.1221 -0.9922 -1.5682
  849MOL0     H14574   3.203   1.568   6.892  1.4390 -0.3790 -1.1507
  849MOL0     H14575   3.054   1.210   7.028  1.1610  0.8404 -0.5945
  849MOL0     H14576   2.874   1.030   6.988  2.2383  0.8668  0.0034
  849MOL0     H14577   2.475   0.989   6.883 -0.6637 -2.1288  0.6927
  849MOL0     H14578   2.268   0.854   6.874  2.0008  2.3607  1.4415
  849MOL0     H14579   2.017   0.749   6.818  0.9249 -1.0779 -0.6498
  849MOL0     H14580   2.027   0.921   6.781 -2.5765 -0.7347  2.6835
  849MOL0     H14581   1.891   0.865   6.571 -3.1772 -0.8205  0.2497
  849MOL0     H14582   1.876   0.693   6.639 -3.0084  0.5704 -0.1137
  849MOL0     H14583   1.756   0.777   6.820  1.0591 -1.0479 -0.9904
  849MOL0     H14584   1.787   0.947   6.774  2.9423 -1.1098  3.4720
  849MOL0     H14585   1.613   0.729   6.648  0.6144  0.2789 -2.2716
  849MOL0     H14586   1.664   0.873   6.555  0.5446  0.9615  0.6871
  849MOL0     H14587   1.439   0.893   6.653 -0.8369  1.7276  2.6269
  849MOL0     H14588   1.549   1.026   6.696 -0.1361  0.6609 -1.4937
  849MOL0     H14589   1.499   0.774   6.860  1.7651 -0.1725  0.9299
  849MOL0     H14590   1.572   0.906   6.926 -0.7824 -3.1449  0.9186
  849MOL0     H14591   1.285   0.904   6.828 -0.3843 -1.3738  2.7767
  849MOL0     H14592   1.373   1.046   6.889  1.4427 -0.3131  1.6189
  849MOL0     H14593   1.313   0.800   7.047 -1.1233  0.5041  0.1071
  849MOL0     H14594   1.408   0.945   7.098 -0.2390  2.2718 -0.1373
  849MOL0     H14595   2.251   0.886   6.448 -0.6667  0.0768 -0.4033
  849MOL0     H14596   2.484   1.009   6.454 -3.0597  4.4952  0.5491
  849MOL0     H14597   2.792   1.229   6.615  1.7002 -0.3480 -0.6155
  849MOL0     H14598   2.943   1.401   6.668 -1.1145 -0.0056 -0.5247
  849MOL0     H14599   3.630   1.841   8.148 -1.0270 -1.7769 -2.4135
  849MOL0     H14600   3.453   1.886   8.312  0.7562  1.0720 -2.7212
  849MOL0     H14601   3.052   1.694   8.428 -3.6652  1.4885 -0.4350
  849MOL0     H14602   2.829   1.739   8.532  0.9708  2.1960 -2.2463
  849MOL0     H14603   2.819   1.795   8.967 -0.7056 -1.0117  0.6216
  849MOL0     H14604   2.646   1.763   8.926  1.0221 -2.6529 -0.9441
  849MOL0     H14605   2.831   1.980   8.796  0.3771  1.2020  0.2328
  849MOL0     H14606   2.722   2.021   8.932 -1.6547 -1.7942  0.4676
  849MOL0     H14607   2.640   1.925   8.657 -0.9845 -2.1126  1.1228
  849MOL0     H14608   2.635   2.092   8.724 -1.0764  1.0956  0.7960
  849MOL0     H14609   2.412   1.964   8.724  0.0966 -0.3630 -0.0093
  849MOL0     H14610   2.470   1.852   8.846 -1.7046  2.5849  2.5210
  849MOL0     H14611   2.405   2.140   9.127  2.8914 -1.2687  0.7044
  849MOL0     H14612   3.022   1.738   8.913  0.5766 -1.5523 -0.6342
  849MOL0     H14613   3.220   1.696   8.960  0.0219  0.5715 -0.5431
  849MOL0     H14614   3.307   1.617   8.827 -2.0550  0.1868 -2.4767
  849MOL0     H14615   3.335   1.784   8.852 -1.5163  2.2895  1.2929
  850MOL0     O14616   6.311   2.635   1.451  0.5823 -1.0020 -0.4116
  850MOL0     C14617   6.223   2.543   1.459 -0.9571  0.8587 -0.1665
  850MOL0     O14618   6.249   2.408   1.429  0.1625  0.5293 -0.1073
  850MOL0     C14619   6.367   2.389   1.370  0.1459 -0.3410 -1.0181
  850MOL0     C14620   6.406   2.460   1.253 -0.0963  0.0180  0.0402
  850MOL0     C14621   6.519   2.429   1.179 -0.8625  0.5700  0.3013
  850MOL0     C14622   6.611   2.335   1.230 -0.7502 -0.2863 -0.3628
  850MOL0     O14623   6.723   2.301   1.159  0.1378 -0.4169 -0.0043
  850MOL0     C14624   6.852   2.308   1.229 -0.3398  0.0086  1.2962
  850MOL0     C14625   6.961   2.295   1.124  0.1092  0.1191 -0.7270
  850MOL0     C14626   7.100   2.315   1.192  0.0910 -0.3413  1.0390
  850MOL0     C14627   7.220   2.322   1.088  0.4266  0.0106 -0.0437
  850MOL0     C14628   7.344   2.357   1.174  0.7782 -1.7880  0.4166
  850MOL0     C14629   7.476   2.392   1.095  0.6656  0.1472 -0.1159
  850MOL0     C14630   7.588   2.447   1.181 -0.6667 -0.5298  0.4380
  850MOL0     C14631   7.644   2.360   1.293 -0.2256 -0.1798  0.3307
  850MOL0     N14632   7.779   2.408   1.339  0.6025  0.2074 -0.1985
  850MOL0     C14633   7.790   2.541   1.366 -0.1192 -0.4392 -0.0295
  850MOL0     C14634   7.917   2.547   1.421  0.4956 -0.2523 -0.3031
  850MOL0     C14635   7.976   2.677   1.464  0.0612 -0.5218 -0.0740
  850MOL0     C14636   8.122   2.688   1.470  0.1332 -0.4949  0.3615
  850MOL0     C14637   8.157   2.816   1.554  0.4716  0.3786  0.2083
  850MOL0     C14638   8.314   2.820   1.564  0.4870  0.3188  0.6660
  850MOL0     O14639   8.353   2.937   1.633  0.5154 -0.1055 -0.5535
  850MOL0     C14640   8.467   2.951   1.697  0.3017 -0.4982  0.0424
  850MOL0     C14641   8.509   3.077   1.758  1.4032 -0.3912  0.7185
  850MOL0     C14642   8.631   3.090   1.819 -0.4551  0.6836 -0.0404
  850MOL0     C14643   8.723   2.987   1.841 -0.1402 -0.4430  0.0335
  850MOL0     C14644   8.834   3.013   1.926 -0.7345 -0.0573 -0.0428
  850MOL0     O14645   8.941   2.929   1.917  0.0373 -0.5852 -0.0681
  850MOL0     C14646   9.045   2.926   1.998  0.1781 -0.3078  0.2695
  850MOL0     C14647   9.036   2.941   2.138 -0.4139 -0.2474  0.0277
  850MOL0     C14648   9.155   2.947   2.218  0.3345 -0.4400  0.6121
  850MOL0     C14649   9.279   2.961   2.152 -0.0815  0.0217  0.0460
  850MOL0     O14650   9.401   2.951   2.220  0.5147 -0.3032  0.1823
  850MOL0     C14651   9.401   3.004   2.350  0.1615 -0.0394  0.4154
  850MOL0     C14652   9.546   3.011   2.402 -0.0760 -0.2283  0.3747
  850MOL0     C14653   9.643   3.062   2.294 -0.5427  0.4721 -0.4745
  850MOL0     C14654   9.755   3.152   2.370  0.3188  0.1155  0.1672
  850MOL0     C14655   9.853   3.204   2.267 -0.1356 -0.0712 -0.0646
  850MOL0     C14656   9.984   3.255   2.326 -0.1251  0.2431 -0.1163
  850MOL0     C14657  10.095   3.287   2.219 -0.0641 -0.5649 -0.1031
  850MOL0     C14658  10.228   3.295   2.287 -0.1633 -0.7098  0.2806
  850MOL0    Cl14659  10.342   3.350   2.171 -0.1919  0.2245 -0.0274
  850MOL0     C14660   9.280   2.952   2.008 -0.4420  0.0017 -0.4439
  850MOL0     C14661   9.164   2.918   1.941  0.9508 -0.2444  0.0814
  850MOL0     O14662   8.828   3.103   2.012 -0.6251 -0.3147  0.0102
  850MOL0     C14663   8.680   2.860   1.788  0.4981  0.7762 -0.7388
  850MOL0     C14664   8.559   2.846   1.712 -0.1314 -0.7010 -0.0390
  850MOL0     N14665   7.980   2.424   1.408 -0.8316 -0.0494  0.0818
  850MOL0     N14666   7.891   2.341   1.363 -0.4649  0.0650  0.5216
  850MOL0     C14667   6.582   2.272   1.357 -0.1159 -0.8387 -0.7245
  850MOL0     C14668   6.464   2.303   1.427 -0.1268 -0.3601 -0.2938
  850MOL0     C14669   6.090   2.578   1.512  0.7260 -0.0774  0.0151
  850MOL0     C14670   5.976   2.504   1.471 -0.8838 -0.1736  0.0400
  850MOL0     C14671   5.847   2.531   1.525  0.6359 -1.0418  0.3673
  850MOL0     C14672   5.826   2.649   1.606  0.1572  0.5358 -0.0828
  850MOL0     O14673   5.701   2.670   1.654  0.1979  1.1228 -0.3728
  850MOL0     C14674   5.679   2.785   1.739  0.2197 -0.4038 -0.3821
  850MOL0     C14675   5.525   2.816   1.721 -0.0908 -0.3950  0.4892
  850MOL0     C14676   5.415   2.705   1.741 -0.2146 -0.4947 -0.4986
  850MOL0     C14677   5.436   2.635   1.872 -0.8817  0.0897 -0.8944
  850MOL0     C14678   5.331   2.534   1.899 -0.0902 -0.0120  0.2181
  850MOL0     C14679   5.241   2.466   1.930 -0.6828  0.7301 -0.1068
  850MOL0     C14680   5.938   2.711   1.648  0.6170 -0.6894 -0.2971
  850MOL0     C14681   6.067   2.681   1.607 -0.3634  0.2226  0.1256
  850MOL0     C14682   6.177   2.756   1.685 -0.3875  0.1851 -0.3696
  850MOL0     H14683   6.336   2.532   1.211  1.3286  0.8374 -1.0172
  850MOL0     H14684   6.547   2.477   1.085  3.8566  0.9870  1.6743
  850MOL0     H14685   6.865   2.407   1.272 -0.7342  0.3493  0.6420
  850MOL0     H14686   6.847   2.225   1.300 -0.0568  0.7671  2.2265
  850MOL0     H14687   6.942   2.372   1.049 -2.5869  0.6065  0.3487
  850MOL0     H14688   6.971   2.195   1.081  0.7910  0.2012 -0.7760
  850MOL0     H14689   7.114   2.241   1.272 -0.1145 -0.5795  0.8573
  850MOL0     H14690   7.094   2.411   1.243 -1.1442 -0.9838  2.1846
  850MOL0     H14691   7.237   2.235   1.025 -3.1887 -0.5745 -0.4090
  850MOL0     H14692   7.192   2.398   1.014  2.6194 -1.0281 -2.0877
  850MOL0     H14693   7.321   2.448   1.231 -1.8124 -1.1390 -1.4888
  850MOL0     H14694   7.374   2.267   1.228  1.8471 -1.4236  0.4514
  850MOL0     H14695   7.506   2.304   1.038 -2.3053 -2.1961  1.6375
  850MOL0     H14696   7.463   2.484   1.037  1.3892  1.6608  2.0016
  850MOL0     H14697   7.552   2.536   1.234  0.6581 -1.5465  3.2420
  850MOL0     H14698   7.666   2.471   1.108  1.4931  0.7730  3.0099
  850MOL0     H14699   7.575   2.363   1.378  0.2981 -0.3045  0.7694
  850MOL0     H14700   7.646   2.259   1.251  1.6280 -0.2349  0.4429
  850MOL0     H14701   7.714   2.619   1.372  0.7663  0.4209  0.4279
  850MOL0     H14702   7.944   2.758   1.398 -2.9552 -0.9047  0.7821
  850MOL0     H14703   7.932   2.709   1.559 -1.2601  1.4943 -1.2728
  850MOL0     H14704   8.162   2.595   1.511  1.1529  0.6004  2.0068
  850MOL0     H14705   8.166   2.710   1.373  2.5282 -1.1089  1.2375
  850MOL0     H14706   8.113   2.809   1.654 -1.4687  1.8199 -0.4760
  850MOL0     H14707   8.132   2.911   1.506  3.2726  1.1990  0.1926
  850MOL0     H14708   8.369   2.823   1.469  0.0435  3.3218  0.4152
  850MOL0     H14709   8.345   2.728   1.614  3.1698  0.7205 -0.1113
  850MOL0     H14710   8.451   3.169   1.757  0.2434 -1.0976  0.6996
  850MOL0     H14711   8.652   3.187   1.862  1.7144  0.4918 -0.5238
  850MOL0     H14712   8.946   2.958   2.195  0.1777  4.0129  0.0393
  850MOL0     H14713   9.134   2.958   2.324  1.8096  0.8400  0.8109
  850MOL0     H14714   9.374   3.110   2.350  1.9316  0.4962 -2.2818
  850MOL0     H14715   9.340   2.946   2.419  0.8718 -0.7876  0.4289
  850MOL0     H14716   9.555   3.075   2.491 -1.1929  0.2983  0.1208
  850MOL0     H14717   9.574   2.912   2.439  1.0512 -0.2468 -0.4619
  850MOL0     H14718   9.703   2.981   2.252  1.5702  0.8032  1.6806
  850MOL0     H14719   9.592   3.117   2.214  0.3539  1.7732 -0.2009
  850MOL0     H14720   9.808   3.086   2.439  1.2211  1.1359  0.4833
  850MOL0     H14721   9.720   3.236   2.431  5.1409  0.8915  2.3078
  850MOL0     H14722   9.800   3.284   2.215  3.1885  1.2542 -1.7091
  850MOL0     H14723   9.881   3.123   2.199 -0.1673  0.2671 -0.4839
  850MOL0     H14724   9.956   3.346   2.379 -3.0074 -0.2707 -0.6153
  850MOL0     H14725  10.024   3.171   2.384 -0.2694  0.5603  0.4445
  850MOL0     H14726  10.067   3.377   2.162  2.6901  0.2822 -0.2960
  850MOL0     H14727  10.107   3.208   2.145  0.5670 -1.0670  0.5171
  850MOL0     H14728  10.238   3.362   2.373  1.9559  0.9140 -1.1144
  850MOL0     H14729  10.266   3.199   2.326 -0.7665  0.1300  3.1809
  850MOL0     H14730   9.381   2.954   1.968  0.6088 -0.2352  1.9638
  850MOL0     H14731   9.167   2.906   1.833 -3.4343 -0.9342 -0.1399
  850MOL0     H14732   8.729   2.765   1.806 -1.9545 -0.3795  0.3243
  850MOL0     H14733   8.533   2.752   1.664 -0.1144 -0.6759 -0.0968
  850MOL0     H14734   6.623   2.183   1.403 -2.7414 -1.6686  0.1909
  850MOL0     H14735   6.448   2.253   1.522 -2.7308  0.6921 -0.0773
  850MOL0     H14736   5.999   2.426   1.398  1.0490 -0.8458  1.2697
  850MOL0     H14737   5.759   2.486   1.479 -1.6937  2.7881  0.6709
  850MOL0     H14738   5.742   2.868   1.708 -0.1806 -0.3078 -0.9462
  850MOL0     H14739   5.691   2.769   1.847 -3.7351  0.1588  0.2856
  850MOL0     H14740   5.518   2.854   1.619  1.9782  3.6049  1.6378
  850MOL0     H14741   5.494   2.903   1.780  0.9620 -0.3784  1.0463
  850MOL0     H14742   5.421   2.629   1.663  1.2507 -0.1765 -0.7257
  850MOL0     H14743   5.318   2.756   1.733 -1.4571 -2.7260 -0.3264
  850MOL0     H14744   5.528   2.576   1.873 -0.7118  0.3318  0.6744
  850MOL0     H14745   5.437   2.709   1.952  1.3633 -0.7986 -0.0235
  850MOL0     H14746   5.166   2.390   1.932  0.5602 -0.5774 -1.1004
  850MOL0     H14747   5.932   2.796   1.716 -1.4855 -0.6828 -0.4197
  850MOL0     H14748   6.159   2.755   1.793 -0.2861  0.4689 -0.3507
  850MOL0     H14749   6.278   2.715   1.670  0.2841  1.8209 -0.5572
  850MOL0     H14750   6.174   2.861   1.656 -0.8392  0.5996  1.0726
  851MOL0     O14751   3.278   4.797   5.656  0.0853 -0.5303  0.0007
  851MOL0     C14752   3.287   4.918   5.691 -0.3329  0.0200 -1.5065
  851MOL0     O14753   3.215   4.984   5.796  0.9456 -0.0419  0.7546
  851MOL0     C14754   3.113   4.910   5.845  0.1637 -0.4646  0.2104
  851MOL0     C14755   3.084   4.929   5.978 -0.0478  0.3247 -0.2940
  851MOL0     C14756   2.978   4.862   6.042  0.2329  0.1130  0.1926
  851MOL0     C14757   2.909   4.758   5.986 -0.2585 -0.3113  0.3280
  851MOL0     O14758   2.806   4.705   6.062 -0.4069  1.0545  0.3521
  851MOL0     C14759   2.713   4.608   6.008 -0.3966  0.5869 -0.4238
  851MOL0     C14760   2.600   4.603   6.110  0.8759 -0.3759 -0.1898
  851MOL0     C14761   2.483   4.516   6.056  0.3849 -0.0124  0.3573
  851MOL0     C14762   2.338   4.554   6.105 -0.5584 -0.4239 -0.0159
  851MOL0     C14763   2.232   4.446   6.081 -0.6524 -0.5920 -0.9091
  851MOL0     C14764   2.202   4.443   5.932 -0.1333 -0.8565 -0.2261
  851MOL0     C14765   2.094   4.345   5.892  1.1806 -0.0237 -0.4143
  851MOL0     C14766   2.054   4.340   5.746 -0.2207  0.8937  0.3425
  851MOL0     N14767   2.172   4.304   5.663  0.6599  0.1978 -0.2270
  851MOL0     C14768   2.207   4.182   5.617 -0.1178  0.6471  0.2373
  851MOL0     C14769   2.304   4.199   5.528 -0.5198 -0.6285  0.1337
  851MOL0     C14770   2.388   4.097   5.448  0.3619  0.1867 -1.1172
  851MOL0     C14771   2.523   4.165   5.399 -0.2205  0.4162  0.3373
  851MOL0     C14772   2.636   4.061   5.376  0.7837  1.1380  0.6148
  851MOL0     C14773   2.760   4.134   5.330  0.1009 -0.1322  0.2618
  851MOL0     O14774   2.869   4.045   5.319 -0.0086  0.3109  0.3534
  851MOL0     C14775   2.993   4.099   5.290  0.1274  0.0020 -0.0029
  851MOL0     C14776   3.092   4.000   5.305 -0.2049 -0.5377  0.7891
  851MOL0     C14777   3.222   4.033   5.280  0.7098 -0.6375  0.7819
  851MOL0     C14778   3.257   4.171   5.253  0.2216 -1.0866 -0.6557
  851MOL0     C14779   3.399   4.209   5.229  0.0527  0.0711 -0.3734
  851MOL0     O14780   3.428   4.329   5.172 -0.0579 -1.0601 -0.0339
  851MOL0     C14781   3.561   4.369   5.151  0.1049 -0.0848  0.8462
  851MOL0     C14782   3.584   4.450   5.039 -0.7596 -0.9198  0.4492
  851MOL0     C14783   3.714   4.499   4.999  0.6154 -0.6302 -0.4092
  851MOL0     C14784   3.823   4.457   5.074 -0.1211 -0.7805  0.4565
  851MOL0     O14785   3.949   4.466   5.023  0.2924  0.3009  0.1461
  851MOL0     C14786   3.972   4.509   4.887 -0.6492 -0.2660 -0.6191
  851MOL0     C14787   4.121   4.497   4.849 -0.1440  0.1886 -0.2666
  851MOL0     C14788   4.223   4.561   4.941  0.1914  0.1424 -0.6481
  851MOL0     C14789   4.359   4.561   4.879 -0.7727  0.1255  0.3667
  851MOL0     C14790   4.467   4.611   4.977 -0.8910  0.1849 -0.1235
  851MOL0     C14791   4.602   4.586   4.922  1.1353  0.0834  0.7784
  851MOL0     C14792   4.712   4.626   5.025 -0.8162  0.0133 -0.0278
  851MOL0     C14793   4.842   4.560   4.986  0.1996  0.0056 -0.3203
  851MOL0    Cl14794   4.904   4.631   4.829 -0.1413 -0.0690 -0.2645
  851MOL0     C14795   3.798   4.383   5.192  1.2342  0.3286 -0.5531
  851MOL0     C14796   3.672   4.325   5.225  0.1693 -0.2593  0.6357
  851MOL0     O14797   3.479   4.118   5.263 -0.2225 -0.4900 -0.1087
  851MOL0     C14798   3.160   4.273   5.240  0.0463  0.0349 -0.0340
  851MOL0     C14799   3.023   4.229   5.255 -0.8676  0.7564 -0.3250
  851MOL0     N14800   2.327   4.335   5.523  1.3679 -0.0991 -0.0981
  851MOL0     N14801   2.245   4.398   5.602  0.2715 -0.3500  0.4881
  851MOL0     C14802   2.933   4.733   5.856  0.0523 -0.0541  0.4311
  851MOL0     C14803   3.032   4.812   5.781  0.4843  0.6379  0.5997
  851MOL0     C14804   3.399   4.996   5.638  0.0606 -0.4001  0.1291
  851MOL0     C14805   3.508   4.916   5.600  0.0478  0.3083  0.3807
  851MOL0     C14806   3.626   4.979   5.560  0.2999  0.2477  0.3855
  851MOL0     C14807   3.638   5.119   5.543 -0.6975  0.6269  0.4620
  851MOL0     O14808   3.744   5.188   5.492  0.4304 -0.3591 -0.2528
  851MOL0     C14809   3.860   5.107   5.475 -0.4011 -0.0983  0.2766
  851MOL0     C14810   3.985   5.191   5.429 -0.4646  0.1822 -0.0412
  851MOL0     C14811   4.111   5.094   5.406  0.2337  0.3432 -0.4102
  851MOL0     C14812   4.246   5.166   5.384 -0.2819 -0.1465  0.4088
  851MOL0     C14813   4.228   5.265   5.274  0.5768 -0.7180  0.3645
  851MOL0     C14814   4.204   5.346   5.189 -0.6827 -0.7696 -0.2745
  851MOL0     C14815   3.524   5.188   5.572  0.1802  0.0035  0.0525
  851MOL0     C14816   3.412   5.133   5.616  0.5971  0.5960 -0.6442
  851MOL0     C14817   3.291   5.218   5.643  0.3093 -1.3042  0.4566
  851MOL0     H14818   3.147   5.002   6.028  1.0317 -1.3306  0.8859
  851MOL0     H14819   2.970   4.889   6.147  2.0182 -0.0332  0.4010
  851MOL0     H14820   2.674   4.638   5.910  0.4158 -1.8128 -1.5697
  851MOL0     H14821   2.755   4.508   5.991 -0.8419  0.1456  0.9370
  851MOL0     H14822   2.564   4.703   6.134  1.4164 -0.5966  1.6579
  851MOL0     H14823   2.635   4.554   6.201  0.2560  0.2071  0.3758
  851MOL0     H14824   2.507   4.418   6.099  0.4482 -0.2331 -0.1774
  851MOL0     H14825   2.481   4.508   5.947 -2.5779 -0.4693  0.3657
  851MOL0     H14826   2.353   4.585   6.209  0.6808  3.5819 -1.1853
  851MOL0     H14827   2.314   4.651   6.060  1.2047  0.5256  0.9786
  851MOL0     H14828   2.267   4.349   6.116 -1.5632 -0.3703  0.7141
  851MOL0     H14829   2.144   4.466   6.143  1.0801  0.9196  1.2177
  851MOL0     H14830   2.169   4.542   5.896  4.4846  0.1124 -2.5981
  851MOL0     H14831   2.289   4.416   5.872  0.0238 -1.1426  0.1343
  851MOL0     H14832   2.000   4.378   5.938  0.9089 -1.3982  0.0518
  851MOL0     H14833   2.120   4.244   5.924 -0.1471 -0.2241  0.0967
  851MOL0     H14834   1.980   4.260   5.737  1.3591 -0.5915 -0.0998
  851MOL0     H14835   2.008   4.436   5.722  0.1930  1.6554  2.3837
  851MOL0     H14836   2.160   4.091   5.653 -2.9083  1.5674 -0.7836
  851MOL0     H14837   2.407   4.010   5.511 -1.3766 -0.5742 -1.6114
  851MOL0     H14838   2.326   4.072   5.362 -2.1374 -2.0594  1.1676
  851MOL0     H14839   2.488   4.219   5.310 -0.3308  0.5686  0.4724
  851MOL0     H14840   2.559   4.235   5.475  2.1811 -0.4523  0.0839
  851MOL0     H14841   2.605   3.998   5.292 -1.8542  2.5350  0.4356
  851MOL0     H14842   2.653   4.002   5.467  1.8470 -0.7564 -0.7372
  851MOL0     H14843   2.774   4.225   5.389 -2.4538  0.4963  0.0252
  851MOL0     H14844   2.732   4.162   5.228  0.2239 -3.2176 -0.7353
  851MOL0     H14845   3.080   3.895   5.327 -0.2888 -0.6191  0.3554
  851MOL0     H14846   3.310   3.969   5.284  0.5204 -0.8757  1.1696
  851MOL0     H14847   3.506   4.490   4.974 -1.1525  0.2363  1.6011
  851MOL0     H14848   3.726   4.562   4.912 -2.9777 -1.1346 -1.4387
  851MOL0     H14849   3.907   4.451   4.821 -4.3738  0.5584  1.9919
  851MOL0     H14850   3.942   4.614   4.877  0.7814  0.0986 -1.3710
  851MOL0     H14851   4.149   4.392   4.836 -0.7294 -0.7016  4.0985
  851MOL0     H14852   4.119   4.549   4.753 -3.3006 -0.3841 -0.6266
  851MOL0     H14853   4.192   4.665   4.939 -1.2647 -0.2650 -0.6629
  851MOL0     H14854   4.211   4.517   5.040  1.1226 -2.0955 -1.4583
  851MOL0     H14855   4.369   4.604   4.779  1.0755  0.0152  0.4704
  851MOL0     H14856   4.387   4.456   4.870  2.7497  1.0068 -0.7123
  851MOL0     H14857   4.465   4.554   5.070  0.2795 -1.5637 -1.1096
  851MOL0     H14858   4.454   4.715   5.005  0.8164  0.2163  0.6347
  851MOL0     H14859   4.603   4.478   4.906 -4.4726  0.1769 -2.7014
  851MOL0     H14860   4.615   4.636   4.825 -0.1860  1.6360  1.3667
  851MOL0     H14861   4.676   4.596   5.124  1.3739  1.5842  1.3441
  851MOL0     H14862   4.722   4.734   5.034 -0.9727 -0.0045  0.3818
  851MOL0     H14863   4.920   4.570   5.062  0.9530 -0.1829 -1.0536
  851MOL0     H14864   4.834   4.454   4.962  4.1271 -0.0999 -1.7592
  851MOL0     H14865   3.885   4.365   5.255  0.1095  2.6064  1.8215
  851MOL0     H14866   3.656   4.276   5.321 -4.9417  3.3415  2.0140
  851MOL0     H14867   3.189   4.375   5.216 -0.7720  0.9540  2.5645
  851MOL0     H14868   2.947   4.302   5.228 -0.9833  0.7267 -0.0833
  851MOL0     H14869   2.883   4.654   5.801 -1.5847  1.4639 -0.3392
  851MOL0     H14870   3.040   4.785   5.676 -3.1187  0.9234  0.1067
  851MOL0     H14871   3.507   4.808   5.612 -0.8304  0.1660 -0.7864
  851MOL0     H14872   3.706   4.909   5.535  0.6354  1.3301 -1.8622
  851MOL0     H14873   3.830   5.033   5.400  0.0813 -0.3758  0.3543
  851MOL0     H14874   3.885   5.059   5.570  0.2313  1.6272  1.0230
  851MOL0     H14875   4.009   5.257   5.513 -1.9041  3.4653 -2.0047
  851MOL0     H14876   3.961   5.242   5.335 -1.1290 -0.6982 -0.3557
  851MOL0     H14877   4.091   5.020   5.328  0.2485  1.8720 -1.9344
  851MOL0     H14878   4.128   5.033   5.494 -0.0038  0.6667 -0.1385
  851MOL0     H14879   4.268   5.213   5.480 -2.9035 -2.1528  2.1267
  851MOL0     H14880   4.307   5.081   5.352 -0.0581  1.4694 -4.2743
  851MOL0     H14881   4.177   5.417   5.112 -3.1046 -0.0873  1.0856
  851MOL0     H14882   3.521   5.294   5.551 -0.2409  0.0891  0.5142
  851MOL0     H14883   3.274   5.239   5.749  0.5112  2.0418 -0.0626
  851MOL0     H14884   3.299   5.314   5.592 -0.8094 -2.2818 -1.6941
  851MOL0     H14885   3.209   5.171   5.588  1.0901  0.2537 -2.2037
  852MOL0     O14886   6.692   4.308   2.305 -0.3494  0.4818 -0.2167
  852MOL0     C14887   6.646   4.405   2.353  0.8948 -1.0737 -0.2337
  852MOL0     O14888   6.700   4.484   2.449 -0.6632  0.3754 -0.6206
  852MOL0     C14889   6.830   4.461   2.489  0.5218  0.0169  0.8095
  852MOL0     C14890   6.871   4.389   2.603 -0.3094 -0.3814  0.1522
  852MOL0     C14891   7.015   4.367   2.634  0.1908  1.3712 -0.5510
  852MOL0     C14892   7.111   4.435   2.551  0.4702 -0.1073  0.5758
  852MOL0     O14893   7.248   4.447   2.582  0.1845  0.5984  0.4460
  852MOL0     C14894   7.309   4.333   2.650 -0.6312 -0.2685 -0.0701
  852MOL0     C14895   7.458   4.338   2.623  0.8435  0.3285  0.0108
  852MOL0     C14896   7.522   4.471   2.673 -1.3973 -0.0589  0.0972
  852MOL0     C14897   7.565   4.464   2.824 -0.3615 -0.8229 -0.2388
  852MOL0     C14898   7.663   4.583   2.853 -0.6681 -0.6425  0.0313
  852MOL0     C14899   7.744   4.581   2.984  0.6083 -0.1598 -1.0423
  852MOL0     C14900   7.858   4.672   2.997  0.4326  0.1539  0.9255
  852MOL0     C14901   7.963   4.614   3.088 -0.2095  0.7240 -0.3683
  852MOL0     N14902   8.071   4.708   3.112  0.3296  0.0282 -0.3921
  852MOL0     C14903   8.178   4.729   3.020 -1.0684 -0.3954 -0.2194
  852MOL0     C14904   8.237   4.846   3.072  0.0812 -0.1351  0.4061
  852MOL0     C14905   8.359   4.920   3.016  0.2620  0.0441  0.3864
  852MOL0     C14906   8.464   4.951   3.127  0.3180  0.1707  0.2195
  852MOL0     C14907   8.594   4.989   3.062 -0.6417 -0.2075 -0.3977
  852MOL0     C14908   8.705   4.999   3.160  1.0092  0.1996  1.1226
  852MOL0     O14909   8.810   5.064   3.081  0.1409 -0.2551 -0.5405
  852MOL0     C14910   8.927   5.082   3.146 -0.4576 -0.6167  0.7849
  852MOL0     C14911   9.022   5.165   3.082  0.2848  0.1216  0.3999
  852MOL0     C14912   9.147   5.190   3.129  0.6521 -0.2341 -0.1779
  852MOL0     C14913   9.181   5.142   3.265  0.7636 -0.1195  0.0527
  852MOL0     C14914   9.304   5.182   3.326 -0.2931 -0.2324  0.1085
  852MOL0     O14915   9.392   5.251   3.236  0.8881  0.0115 -0.0391
  852MOL0     C14916   9.521   5.276   3.250 -0.7872  0.4438 -1.0490
  852MOL0     C14917   9.567   5.396   3.191 -0.4048  0.0031 -0.3528
  852MOL0     C14918   9.703   5.436   3.184  0.7470  0.3464 -0.3397
  852MOL0     C14919   9.795   5.367   3.258 -0.8969 -0.1839  0.1840
  852MOL0     O14920   9.926   5.407   3.261  0.2444  1.0961 -0.3134
  852MOL0     C14921  10.027   5.330   3.340  0.5381  0.0651 -0.2854
  852MOL0     C14922  10.162   5.395   3.306 -0.1032 -0.6687 -0.3483
  852MOL0     C14923  10.277   5.319   3.375  0.1135 -0.0675  0.5307
  852MOL0     C14924  10.406   5.399   3.357 -0.2565 -0.4346  0.2335
  852MOL0     C14925  10.509   5.326   3.448  1.0782  1.1140  0.1488
  852MOL0     C14926  10.635   5.406   3.465  0.5623  0.1325 -0.3060
  852MOL0     C14927  10.737   5.319   3.542 -0.0530  0.0548 -0.3895
  852MOL0     C14928  10.860   5.408   3.557  0.0161 -0.0934 -0.6007
  852MOL0    Cl14929  10.823   5.534   3.688  0.0345  0.2769  0.1963
  852MOL0     C14930   9.750   5.249   3.329  0.4339  0.0299  0.1086
  852MOL0     C14931   9.621   5.200   3.313 -0.7963  0.5040 -0.1002
  852MOL0     O14932   9.342   5.136   3.423  0.7249  0.0118 -0.8109
  852MOL0     C14933   9.092   5.049   3.326 -0.4994 -0.7189 -0.2416
  852MOL0     C14934   8.964   5.035   3.271 -0.0164 -0.3362  0.2186
  852MOL0     N14935   8.177   4.879   3.194 -0.4352 -0.1858 -0.4428
  852MOL0     N14936   8.088   4.796   3.219  0.1744  0.2941 -0.3839
  852MOL0     C14937   7.061   4.491   2.432  0.8476 -0.1277  0.1906
  852MOL0     C14938   6.926   4.511   2.404 -0.6323  0.2463  0.5713
  852MOL0     C14939   6.505   4.434   2.327 -0.7455 -0.0952  0.3776
  852MOL0     C14940   6.465   4.565   2.331  0.8328  0.2075 -0.4789
  852MOL0     C14941   6.337   4.605   2.306 -0.0835 -0.3018  0.8665
  852MOL0     C14942   6.236   4.509   2.291 -0.5805  0.0113  0.6497
  852MOL0     O14943   6.108   4.552   2.285 -0.9900  0.3747  0.5285
  852MOL0     C14944   6.060   4.565   2.146 -0.3465  0.4038 -0.0353
  852MOL0     C14945   5.913   4.605   2.139  0.4447  0.1195  0.3638
  852MOL0     C14946   5.868   4.644   1.998  0.9627 -0.2080 -0.1444
  852MOL0     C14947   5.718   4.688   2.003 -0.7924 -0.3807  0.1219
  852MOL0     C14948   5.676   4.713   1.865 -0.4619 -0.4501  0.0577
  852MOL0     C14949   5.684   4.721   1.743 -0.4670  0.3875 -0.4934
  852MOL0     C14950   6.271   4.377   2.271  0.7312  0.5736  0.0312
  852MOL0     C14951   6.406   4.334   2.295  0.0168 -0.6148 -0.2627
  852MOL0     C14952   6.437   4.184   2.292 -0.2834  0.0907 -0.3307
  852MOL0     H14953   6.792   4.346   2.664 -0.6538  1.6191  1.2294
  852MOL0     H14954   7.037   4.311   2.724  3.4669 -0.7328 -2.4764
  852MOL0     H14955   7.293   4.342   2.758 -0.7350  0.3596 -0.1331
  852MOL0     H14956   7.272   4.236   2.617  0.5555  0.3161 -3.5545
  852MOL0     H14957   7.493   4.343   2.519  2.9478  3.1071  0.7643
  852MOL0     H14958   7.493   4.248   2.674 -3.7680 -1.4757  0.4824
  852MOL0     H14959   7.452   4.554   2.664  0.8001  2.0674  1.2883
  852MOL0     H14960   7.617   4.486   2.621  0.1859 -1.3222  2.4230
  852MOL0     H14961   7.481   4.485   2.891 -2.2444 -0.5756 -2.5476
  852MOL0     H14962   7.609   4.367   2.848 -2.5238 -1.1582  3.2180
  852MOL0     H14963   7.737   4.587   2.771  2.0712 -0.3675  2.3562
  852MOL0     H14964   7.605   4.675   2.847  0.7351  0.3285  0.7250
  852MOL0     H14965   7.679   4.602   3.070  1.2957  2.8793 -1.1753
  852MOL0     H14966   7.792   4.483   2.990  2.7604  0.8110 -1.4866
  852MOL0     H14967   7.825   4.768   3.038  1.2282 -0.0399  2.0470
  852MOL0     H14968   7.903   4.691   2.899 -0.4109  0.7655  0.6477
  852MOL0     H14969   7.913   4.579   3.179 -1.6795 -1.8684 -2.0720
  852MOL0     H14970   8.014   4.525   3.051 -1.3875 -0.0838 -0.0943
  852MOL0     H14971   8.192   4.665   2.934 -0.2354  1.3092 -1.4153
  852MOL0     H14972   8.407   4.857   2.941  0.9050 -1.1570  1.7537
  852MOL0     H14973   8.336   5.016   2.968  0.6132  0.7850  1.6564
  852MOL0     H14974   8.431   5.035   3.188  1.8948  0.7589  0.3047
  852MOL0     H14975   8.484   4.868   3.196  3.6472 -0.3972 -1.2376
  852MOL0     H14976   8.589   5.077   2.996 -1.0790 -1.2584 -1.8214
  852MOL0     H14977   8.629   4.913   2.991  0.6442  0.8507 -0.9414
  852MOL0     H14978   8.726   4.898   3.197 -3.5796 -1.7480 -0.7881
  852MOL0     H14979   8.675   5.068   3.240  1.0932  1.7537 -0.1299
  852MOL0     H14980   9.009   5.201   2.980  3.7140 -0.6386 -0.4374
  852MOL0     H14981   9.210   5.256   3.069  1.3440  0.0589  0.8406
  852MOL0     H14982   9.489   5.457   3.146 -0.7393  2.2860  2.9975
  852MOL0     H14983   9.724   5.514   3.112 -2.0932  0.7557 -0.8482
  852MOL0     H14984  10.011   5.322   3.448 -2.6444 -1.2271 -0.7530
  852MOL0     H14985  10.031   5.225   3.310 -1.0663  0.8262 -3.5492
  852MOL0     H14986  10.175   5.388   3.197  1.1677 -0.4990 -0.2257
  852MOL0     H14987  10.165   5.502   3.329 -1.2267 -0.9636  1.3633
  852MOL0     H14988  10.260   5.310   3.483 -0.0037 -0.6723  0.4626
  852MOL0     H14989  10.290   5.224   3.323 -5.3718 -0.4040 -0.7387
  852MOL0     H14990  10.397   5.505   3.384  2.5960  0.0349 -0.3737
  852MOL0     H14991  10.441   5.395   3.254 -1.1726  1.4307 -0.1877
  852MOL0     H14992  10.529   5.224   3.413 -1.2514  0.3589  0.8892
  852MOL0     H14993  10.470   5.313   3.549  2.0419  1.5860  0.5916
  852MOL0     H14994  10.669   5.436   3.365  1.8237 -1.3230 -0.3467
  852MOL0     H14995  10.623   5.495   3.527  4.5956  0.1940  0.6286
  852MOL0     H14996  10.776   5.235   3.483 -0.8175 -0.6539  0.1106
  852MOL0     H14997  10.708   5.282   3.640 -3.0519 -0.8907 -1.5286
  852MOL0     H14998  10.938   5.342   3.596 -0.3341 -0.5440 -0.6526
  852MOL0     H14999  10.894   5.466   3.471  0.0261  0.7759 -0.0330
  852MOL0     H15000   9.819   5.191   3.389 -0.8426 -1.2281  0.4218
  852MOL0     H15001   9.602   5.106   3.364 -0.1189  0.9584  1.0159
  852MOL0     H15002   9.121   4.996   3.416 -1.5478  0.3353  0.7575
  852MOL0     H15003   8.891   4.982   3.332 -2.9953  1.1162 -1.8368
  852MOL0     H15004   7.135   4.545   2.375  1.0505 -0.1567  0.4272
  852MOL0     H15005   6.900   4.567   2.314 -0.6701  2.0054  1.6381
  852MOL0     H15006   6.531   4.647   2.357  2.4283 -1.1148 -0.2449
  852MOL0     H15007   6.319   4.712   2.314  0.1921 -0.2936  1.4174
  852MOL0     H15008   6.083   4.472   2.093  0.5406  0.4563  0.2517
  852MOL0     H15009   6.122   4.644   2.103  0.1048 -0.0817 -0.2840
  852MOL0     H15010   5.891   4.681   2.215  0.6271 -0.9543  1.5312
  852MOL0     H15011   5.859   4.512   2.160  1.4629 -0.7228 -0.6292
  852MOL0     H15012   5.884   4.555   1.936  1.3387 -1.4540  1.6749
  852MOL0     H15013   5.931   4.729   1.969  1.8376 -2.0388 -4.4869
  852MOL0     H15014   5.648   4.620   2.051 -1.3141  1.6250  2.3723
  852MOL0     H15015   5.719   4.777   2.066  0.6221 -2.3770  3.1075
  852MOL0     H15016   5.702   4.738   1.639 -1.8673  1.0476 -0.6470
  852MOL0     H15017   6.189   4.308   2.253  1.5585  0.0052 -1.7703
  852MOL0     H15018   6.483   4.154   2.197 -0.5086  1.8521 -1.0404
  852MOL0     H15019   6.510   4.165   2.370 -2.2091  1.9925  2.1190
  852MOL0     H15020   6.350   4.123   2.317 -0.8420  1.0634  0.1565
  853MOL0     O15021   2.652   5.964   7.885  0.3688  0.6372 -0.0557
  853MOL0     C15022   2.647   5.929   7.999 -0.2254  0.0193  0.1294
  853MOL0     O15023   2.751   5.888   8.074 -0.5639  0.5006  0.0052
  853MOL0     C15024   2.877   5.869   8.026 -0.4672  0.4393  0.4192
  853MOL0     C15025   2.969   5.801   8.117 -1.2321  0.3749  0.2256
  853MOL0     C15026   3.100   5.776   8.068  0.4154  0.6281 -0.4461
  853MOL0     C15027   3.151   5.818   7.950  0.0201 -0.2532  0.8587
  853MOL0     O15028   3.280   5.785   7.919  0.2438 -1.0030 -0.4571
  853MOL0     C15029   3.343   5.847   7.806  0.0078 -0.1239 -0.5533
  853MOL0     C15030   3.495   5.800   7.813  0.2024  0.0276 -0.0590
  853MOL0     C15031   3.563   5.798   7.672 -0.7882 -0.3324  0.2248
  853MOL0     C15032   3.609   5.941   7.622  0.3140 -0.1730 -1.0917
  853MOL0     C15033   3.709   6.016   7.710  0.0002  0.1150  0.0281
  853MOL0     C15034   3.822   5.929   7.770 -0.5662  0.4905 -0.0532
  853MOL0     C15035   3.947   6.009   7.815  0.0660 -0.3361 -0.4477
  853MOL0     C15036   3.937   6.073   7.948  1.0198 -0.6809  0.7527
  853MOL0     N15037   4.014   6.009   8.050 -0.5935  0.0742 -0.1729
  853MOL0     C15038   3.961   5.903   8.120  0.2909  0.2347  0.5324
  853MOL0     C15039   4.067   5.851   8.186  0.3265 -0.1651 -0.5191
  853MOL0     C15040   4.070   5.728   8.278  0.0869 -0.4057 -0.6428
  853MOL0     C15041   4.212   5.684   8.326  0.0180 -0.3162 -1.1549
  853MOL0     C15042   4.270   5.780   8.435  0.3990 -0.3693 -0.2665
  853MOL0     C15043   4.415   5.778   8.431 -0.2904 -0.5079 -0.0417
  853MOL0     O15044   4.457   5.909   8.482 -0.3127  0.4239 -0.0073
  853MOL0     C15045   4.584   5.928   8.523 -0.0830  0.0253  0.7907
  853MOL0     C15046   4.608   6.059   8.562 -0.5452  0.5636  0.1380
  853MOL0     C15047   4.739   6.091   8.617 -0.4561  0.0335 -0.2592
  853MOL0     C15048   4.839   5.994   8.622 -0.0186 -0.9170 -0.2243
  853MOL0     C15049   4.977   6.038   8.650 -0.2157 -0.5619  0.3970
  853MOL0     O15050   4.994   6.172   8.613  0.0295  0.5695 -0.0684
  853MOL0     C15051   5.111   6.225   8.649 -0.3453  0.0425 -0.8398
  853MOL0     C15052   5.235   6.198   8.580  0.2972 -0.6567 -0.3929
  853MOL0     C15053   5.350   6.263   8.622 -0.4217  0.4239 -0.1378
  853MOL0     C15054   5.349   6.350   8.733  0.6213  0.1109 -0.2069
  853MOL0     O15055   5.458   6.411   8.792  0.4673 -0.0378 -0.9259
  853MOL0     C15056   5.593   6.375   8.747  0.1752  0.1707  0.1100
  853MOL0     C15057   5.695   6.459   8.822  0.3842 -0.4854  0.6513
  853MOL0     C15058   5.835   6.418   8.798 -0.2992  0.0460 -0.6045
  853MOL0     C15059   5.929   6.525   8.876 -0.1124  0.6904  0.5633
  853MOL0     C15060   6.078   6.483   8.875  0.5124 -0.9592 -0.4863
  853MOL0     C15061   6.157   6.613   8.872 -0.8379 -0.2885 -0.8109
  853MOL0     C15062   6.303   6.596   8.933  0.3891 -0.2577  0.1765
  853MOL0     C15063   6.379   6.728   8.914 -0.4279  0.7588  0.1305
  853MOL0    Cl15064   6.529   6.712   9.016 -0.0680  0.3716 -0.1443
  853MOL0     C15065   5.224   6.389   8.787  0.0409 -0.0178 -0.7390
  853MOL0     C15066   5.109   6.321   8.747  0.0748 -0.4678 -1.0777
  853MOL0     O15067   5.057   5.958   8.697 -0.2973  0.3521  0.3613
  853MOL0     C15068   4.813   5.867   8.579 -0.1546  0.6519  0.3085
  853MOL0     C15069   4.688   5.838   8.519 -0.5017  0.1827  0.0586
  853MOL0     N15070   4.183   5.925   8.156  0.6765  0.9404  0.1562
  853MOL0     N15071   4.147   6.010   8.072  0.4101  0.2786 -0.3804
  853MOL0     C15072   3.061   5.895   7.864  0.3147  1.8496 -0.0544
  853MOL0     C15073   2.930   5.920   7.905  0.4266 -0.0879 -0.2768
  853MOL0     C15074   2.504   5.921   8.057  0.8027 -0.1155 -0.5619
  853MOL0     C15075   2.389   5.917   7.968 -0.7280 -0.0599  0.1357
  853MOL0     C15076   2.259   5.930   8.016  0.4498 -0.0493  0.2039
  853MOL0     C15077   2.232   5.948   8.150 -0.4785 -0.0508 -0.9571
  853MOL0     O15078   2.103   5.957   8.185 -1.2402 -0.1712 -1.2196
  853MOL0     C15079   2.053   5.952   8.320 -0.6421  0.2631  0.6310
  853MOL0     C15080   1.903   5.917   8.314 -0.5702  0.3154 -0.0628
  853MOL0     C15081   1.822   5.976   8.426  1.1971  0.2834 -1.0873
  853MOL0     C15082   1.698   5.885   8.436  0.6100  0.0086  0.0220
  853MOL0     C15083   1.604   5.937   8.541 -0.0792 -0.0135 -0.2366
  853MOL0     C15084   1.555   5.979   8.648  0.3320 -0.3884  0.4785
  853MOL0     C15085   2.337   5.952   8.239 -0.6320  0.6249  0.4699
  853MOL0     C15086   2.470   5.925   8.196  0.0352 -0.2294  0.6084
  853MOL0     C15087   2.575   5.912   8.306  0.3686  0.2746  0.2484
  853MOL0     H15088   2.944   5.775   8.220 -0.3857 -1.7579 -0.0519
  853MOL0     H15089   3.163   5.722   8.138 -0.3731  2.4298  1.7567
  853MOL0     H15090   3.297   5.811   7.714 -0.0272  0.8909 -0.9482
  853MOL0     H15091   3.338   5.956   7.813 -0.2913 -0.2503  2.0701
  853MOL0     H15092   3.509   5.699   7.853  0.3732 -0.7564 -2.0037
  853MOL0     H15093   3.544   5.868   7.884 -2.0947 -1.3521  3.1117
  853MOL0     H15094   3.490   5.765   7.597 -1.5984  1.5865  0.0997
  853MOL0     H15095   3.643   5.724   7.675 -0.5233 -0.1268 -1.2604
  853MOL0     H15096   3.655   5.929   7.524  2.1810  0.1339 -0.2932
  853MOL0     H15097   3.515   5.993   7.599 -0.5681 -1.2345 -0.0263
  853MOL0     H15098   3.756   6.100   7.658 -2.1582 -0.3527 -2.9105
  853MOL0     H15099   3.655   6.061   7.794 -0.3312  1.8600 -1.0781
  853MOL0     H15100   3.788   5.859   7.847  0.7915 -0.9694 -0.7361
  853MOL0     H15101   3.849   5.868   7.683 -1.4442  1.3821 -0.9820
  853MOL0     H15102   3.969   6.084   7.739 -1.0738 -2.2088 -2.7235
  853MOL0     H15103   4.039   5.951   7.814  0.9546  1.0319 -0.7228
  853MOL0     H15104   3.960   6.180   7.938 -0.4945 -0.5000 -1.7321
  853MOL0     H15105   3.833   6.064   7.979  1.3104  0.1958  2.0365
  853MOL0     H15106   3.854   5.882   8.117 -0.0263  1.8096 -1.0655
  853MOL0     H15107   4.010   5.766   8.361 -0.1670  1.2403 -1.5381
  853MOL0     H15108   4.014   5.651   8.224  1.1857 -1.8408  0.1826
  853MOL0     H15109   4.209   5.581   8.362 -1.0514  0.5213  1.3759
  853MOL0     H15110   4.275   5.685   8.236  0.9439  2.8340 -0.6025
  853MOL0     H15111   4.225   5.761   8.533 -0.3873 -1.8318 -0.8716
  853MOL0     H15112   4.228   5.880   8.417  3.3577  1.1357  0.5728
  853MOL0     H15113   4.432   5.752   8.326  1.4283 -0.2097  0.1347
  853MOL0     H15114   4.458   5.708   8.502  2.6263  0.0130 -1.1717
  853MOL0     H15115   4.529   6.133   8.562 -1.2363 -0.1270 -1.9922
  853MOL0     H15116   4.761   6.191   8.654  0.8638 -1.6798  4.2414
  853MOL0     H15117   5.248   6.128   8.498  1.3971 -2.7554  1.4703
  853MOL0     H15118   5.442   6.229   8.576  0.7992  0.4632  2.1005
  853MOL0     H15119   5.610   6.269   8.765  1.3758  0.4678  0.8353
  853MOL0     H15120   5.594   6.406   8.642  0.8547 -1.0840 -0.2769
  853MOL0     H15121   5.685   6.566   8.801  2.1092 -0.6431 -1.4126
  853MOL0     H15122   5.663   6.448   8.926 -0.4901 -1.6943  0.2805
  853MOL0     H15123   5.857   6.323   8.849 -0.8851  0.4671  0.4715
  853MOL0     H15124   5.859   6.410   8.692 -0.4728  1.1490 -0.7328
  853MOL0     H15125   5.902   6.540   8.981  1.0494 -0.1398  1.0019
  853MOL0     H15126   5.913   6.620   8.824 -1.9154 -1.3030 -2.8549
  853MOL0     H15127   6.107   6.424   8.788  5.3899 -2.1345  1.5981
  853MOL0     H15128   6.099   6.426   8.966  2.0341  1.5960  0.8761
  853MOL0     H15129   6.180   6.641   8.769  0.8347 -0.3762 -0.4952
  853MOL0     H15130   6.098   6.695   8.914 -0.7293 -1.1499  1.1425
  853MOL0     H15131   6.351   6.514   8.879 -3.2721 -1.7293 -1.1703
  853MOL0     H15132   6.295   6.580   9.040  1.8213  2.7065  0.8416
  853MOL0     H15133   6.408   6.745   8.810  0.9417  1.7922  0.6503
  853MOL0     H15134   6.311   6.809   8.940 -3.3664 -1.4909  0.0565
  853MOL0     H15135   5.215   6.458   8.870  1.3742  0.5566 -1.0420
  853MOL0     H15136   5.021   6.349   8.803  2.1903 -2.6060  3.8517
  853MOL0     H15137   4.891   5.794   8.568 -1.1252 -0.7703  2.2352
  853MOL0     H15138   4.675   5.736   8.483  0.2999 -0.0289  0.3249
  853MOL0     H15139   3.100   5.932   7.769 -1.3229  2.7049 -0.4241
  853MOL0     H15140   2.866   5.993   7.858 -1.9631 -1.5073  0.5815
  853MOL0     H15141   2.400   5.919   7.860 -2.6644  0.7107 -0.0970
  853MOL0     H15142   2.167   5.912   7.962 -0.2278 -0.2223  1.3675
  853MOL0     H15143   2.062   6.049   8.369  2.1513  0.5285 -0.2776
  853MOL0     H15144   2.111   5.880   8.378  1.7773  1.6333  0.0475
  853MOL0     H15145   1.900   5.808   8.313  1.3467  0.2029 -2.0328
  853MOL0     H15146   1.864   5.937   8.214 -0.0295 -1.1259 -0.5800
  853MOL0     H15147   1.769   6.070   8.403 -2.7378 -1.0991  1.3129
  853MOL0     H15148   1.871   5.987   8.524 -1.6778 -1.5174  0.6879
  853MOL0     H15149   1.638   5.886   8.345 -1.5011 -4.1434  1.1035
  853MOL0     H15150   1.717   5.779   8.457  0.8104  0.2501  1.1784
  853MOL0     H15151   1.499   6.010   8.734  1.0538  0.7945  0.5389
  853MOL0     H15152   2.311   5.963   8.343 -2.8640  1.6796 -0.1431
  853MOL0     H15153   2.634   6.005   8.306 -0.5435  1.1186 -4.2368
  853MOL0     H15154   2.523   5.900   8.401 -0.1865  2.4087  0.2582
  853MOL0     H15155   2.644   5.831   8.279 -2.0881 -1.4650 -1.2707
  854MOL0     O15156   8.464   4.262   9.376 -0.4122 -0.5559 -0.0450
  854MOL0     C15157   8.441   4.324   9.270  0.2976  1.1808 -0.0425
  854MOL0     O15158   8.519   4.312   9.161 -0.5457 -0.2810  0.4253
  854MOL0     C15159   8.643   4.255   9.172 -0.7659  0.3759  0.3608
  854MOL0     C15160   8.681   4.156   9.081  0.9846 -0.4746 -0.1076
  854MOL0     C15161   8.804   4.086   9.098  0.6638 -0.5745 -0.7182
  854MOL0     C15162   8.889   4.117   9.203  0.1229 -0.0741  0.2868
  854MOL0     O15163   9.015   4.072   9.216 -0.4087 -0.0248 -0.1421
  854MOL0     C15164   9.042   3.943   9.167  0.3355 -0.3278  0.2515
  854MOL0     C15165   9.174   3.889   9.222 -0.2871 -0.1270 -1.1409
  854MOL0     C15166   9.292   3.979   9.195  0.0521  0.1530  0.2038
  854MOL0     C15167   9.327   3.981   9.046  0.5753  0.1829  0.0946
  854MOL0     C15168   9.463   4.041   9.011 -0.5653  0.2110  0.0529
  854MOL0     C15169   9.478   4.061   8.857 -0.7682 -0.3145  0.5778
  854MOL0     C15170   9.599   4.150   8.841 -0.2575 -0.1719  0.4181
  854MOL0     C15171   9.574   4.310   8.855 -0.0522  0.8437  0.4623
  854MOL0     N15172   9.689   4.382   8.798 -0.5242 -0.3821 -0.7002
  854MOL0     C15173   9.688   4.506   8.745 -0.3287  0.0983  0.1331
  854MOL0     C15174   9.810   4.521   8.684  0.2234 -0.0682  0.3131
  854MOL0     C15175   9.855   4.631   8.594 -0.3198  1.0244 -0.3122
  854MOL0     C15176   9.988   4.692   8.646 -1.3888 -0.5207 -0.0696
  854MOL0     C15177  10.048   4.781   8.539  0.8203 -0.2480  0.0632
  854MOL0     C15178  10.157   4.877   8.576 -0.6747 -0.0223 -0.0308
  854MOL0     O15179  10.268   4.793   8.615 -0.0209 -0.2874 -0.3357
  854MOL0     C15180  10.392   4.856   8.624 -0.5998 -0.6065  0.1670
  854MOL0     C15181  10.402   4.999   8.649 -0.5336 -0.3015 -0.2931
  854MOL0     C15182  10.530   5.058   8.656 -0.2509  0.6855 -0.0710
  854MOL0     C15183  10.648   4.978   8.640  0.4713  0.7262  0.6598
  854MOL0     C15184  10.785   5.044   8.655  0.4286  0.3752 -0.0006
  854MOL0     O15185  10.781   5.176   8.656 -0.3705  0.0004 -0.2664
  854MOL0     C15186  10.896   5.241   8.661 -0.2238 -0.0043 -0.1072
  854MOL0     C15187  10.926   5.319   8.775  0.3508 -0.4630  1.4895
  854MOL0     C15188  11.033   5.405   8.768  0.0998 -0.5579 -0.3753
  854MOL0     C15189  11.124   5.401   8.662  0.1635  0.4853 -0.5016
  854MOL0     O15190  11.222   5.495   8.671  0.1177 -0.3069 -0.1934
  854MOL0     C15191  11.256   5.557   8.543  0.8460  0.7208 -1.5289
  854MOL0     C15192  11.354   5.673   8.563  0.3093  0.6318 -0.2335
  854MOL0     C15193  11.379   5.761   8.441  0.1025 -0.4122  0.1454
  854MOL0     C15194  11.525   5.791   8.416 -0.1792  0.2185  0.5277
  854MOL0     C15195  11.611   5.860   8.522 -0.1401 -0.1770 -0.5804
  854MOL0     C15196  11.755   5.876   8.489  0.7050  1.0262  0.5902
  854MOL0     C15197  11.766   5.975   8.377 -0.5927 -0.0840 -0.0335
  854MOL0     C15198  11.913   6.011   8.342  0.4295 -0.2994  0.0665
  854MOL0    Cl15199  11.905   6.165   8.259 -0.4701 -0.3681 -0.2890
  854MOL0     C15200  11.104   5.316   8.551  0.2552  0.0758 -1.1253
  854MOL0     C15201  10.994   5.227   8.552 -0.6127 -0.4235  0.3706
  854MOL0     O15202  10.882   4.973   8.637 -0.1224 -0.0225  0.2422
  854MOL0     C15203  10.632   4.838   8.599 -0.4001 -0.7971 -0.5942
  854MOL0     C15204  10.508   4.781   8.599 -0.4558 -1.0715 -0.4058
  854MOL0     N15205   9.886   4.409   8.711  0.4413 -0.1011 -0.6197
  854MOL0     N15206   9.817   4.333   8.785 -0.8647 -0.0556  0.0227
  854MOL0     C15207   8.856   4.220   9.297 -0.4740  0.4949  0.4271
  854MOL0     C15208   8.731   4.286   9.273  0.5870  0.2638  0.2469
  854MOL0     C15209   8.322   4.414   9.255 -0.4331 -0.0716 -0.2604
  854MOL0     C15210   8.248   4.442   9.376 -0.6309 -0.4881  0.8585
  854MOL0     C15211   8.145   4.534   9.367 -0.0412 -0.6147 -0.8363
  854MOL0     C15212   8.109   4.597   9.251 -0.3498  0.0179  0.6138
  854MOL0     O15213   8.014   4.698   9.261  0.3123  0.0429 -0.2326
  854MOL0     C15214   7.950   4.748   9.143  0.1824  0.5337 -0.0116
  854MOL0     C15215   7.827   4.822   9.182 -0.3042 -0.3120  0.3738
  854MOL0     C15216   7.741   4.872   9.062 -0.8727 -0.3669 -0.3715
  854MOL0     C15217   7.603   4.913   9.106 -0.9638 -0.2206 -0.2516
  854MOL0     C15218   7.542   4.976   8.991 -0.1181  0.6841  0.9122
  854MOL0     C15219   7.499   5.039   8.902 -0.3648  0.0394 -0.3726
  854MOL0     C15220   8.176   4.564   9.132  0.0742 -0.1621  0.7118
  854MOL0     C15221   8.282   4.472   9.132 -0.0884  0.0370  0.8139
  854MOL0     C15222   8.351   4.462   9.000  0.0307  0.3422  0.0104
  854MOL0     H15223   8.630   4.138   8.987  0.2857 -1.6507  0.4858
  854MOL0     H15224   8.842   4.023   9.018  2.9474 -1.2016  0.7728
  854MOL0     H15225   8.960   3.877   9.195 -1.1193  1.0623 -0.5334
  854MOL0     H15226   9.059   3.949   9.059 -0.6171  3.1622  0.1605
  854MOL0     H15227   9.199   3.791   9.181 -0.3866  0.0298 -1.5892
  854MOL0     H15228   9.171   3.888   9.331 -1.0583 -1.1294 -1.1557
  854MOL0     H15229   9.377   3.937   9.248  0.5150 -0.5844 -1.0679
  854MOL0     H15230   9.261   4.080   9.224  1.2349  0.5998 -0.0278
  854MOL0     H15231   9.322   3.880   9.005 -0.0104 -0.7959  2.4607
  854MOL0     H15232   9.247   4.035   8.994 -1.4454 -2.4203  0.2773
  854MOL0     H15233   9.465   4.138   9.061 -2.0804 -0.3375  1.2517
  854MOL0     H15234   9.537   3.968   9.046 -0.2164  0.1837 -0.7017
  854MOL0     H15235   9.502   3.963   8.817 -0.0454  0.4304 -0.8830
  854MOL0     H15236   9.384   4.097   8.813 -0.7277 -0.4008  0.4204
  854MOL0     H15237   9.642   4.123   8.744 -0.5980 -0.3088  0.3035
  854MOL0     H15238   9.673   4.122   8.916 -0.2103  3.1630  1.7785
  854MOL0     H15239   9.479   4.338   8.809 -1.1033 -1.5031  1.0606
  854MOL0     H15240   9.564   4.335   8.961 -4.9754 -1.8188  0.9302
  854MOL0     H15241   9.599   4.566   8.730 -2.1656 -2.7291 -1.0291
  854MOL0     H15242   9.863   4.582   8.497  0.3007 -2.5997  1.3594
  854MOL0     H15243   9.788   4.717   8.589  0.5771  1.6928 -1.1958
  854MOL0     H15244   9.969   4.760   8.730  0.0585  1.0417 -0.9486
  854MOL0     H15245  10.063   4.618   8.672 -0.8434 -0.6130 -1.7951
  854MOL0     H15246   9.968   4.832   8.485 -0.3595 -3.1617 -1.1444
  854MOL0     H15247  10.100   4.713   8.471  1.0160 -1.4678  1.3908
  854MOL0     H15248  10.122   4.934   8.662 -1.5732 -1.3311  0.5069
  854MOL0     H15249  10.171   4.943   8.490  3.2125 -0.4940  0.0756
  854MOL0     H15250  10.313   5.057   8.675  0.8029  1.4585  0.5660
  854MOL0     H15251  10.541   5.166   8.653  0.3764  0.6755  1.2441
  854MOL0     H15252  10.860   5.326   8.861 -0.1719  2.4480  0.9797
  854MOL0     H15253  11.050   5.475   8.849 -1.3077 -0.7689  0.1406
  854MOL0     H15254  11.296   5.492   8.465 -0.8004  1.2079 -2.8525
  854MOL0     H15255  11.164   5.598   8.500 -0.2296 -0.2793 -0.2744
  854MOL0     H15256  11.318   5.732   8.648 -0.9994  0.3564 -0.5758
  854MOL0     H15257  11.456   5.642   8.590  0.3891  0.3024 -0.9071
  854MOL0     H15258  11.320   5.726   8.355  0.7971 -0.0877 -0.4739
  854MOL0     H15259  11.341   5.859   8.470 -1.7969 -0.8166 -0.7540
  854MOL0     H15260  11.532   5.846   8.321  1.3643  2.6006  1.9171
  854MOL0     H15261  11.580   5.698   8.398  1.4532  1.0732  0.9705
  854MOL0     H15262  11.597   5.804   8.615 -0.7503  0.6317 -0.1636
  854MOL0     H15263  11.568   5.960   8.533  1.4470  0.4068  0.8533
  854MOL0     H15264  11.810   5.912   8.576 -0.7667 -0.7613  2.3610
  854MOL0     H15265  11.791   5.779   8.451 -3.0438 -1.5767  2.9487
  854MOL0     H15266  11.700   6.057   8.409 -1.1261 -0.7304  0.5504
  854MOL0     H15267  11.735   5.928   8.284  1.2882 -2.5554  0.4910
  854MOL0     H15268  11.978   6.015   8.430  0.2956  0.7886  0.1245
  854MOL0     H15269  11.954   5.940   8.269  0.1973  0.2060 -0.5627
  854MOL0     H15270  11.175   5.310   8.469 -1.9081 -4.2737 -3.0118
  854MOL0     H15271  10.971   5.163   8.467 -1.0112 -1.0353  0.9309
  854MOL0     H15272  10.715   4.771   8.577 -1.5755 -3.0147  1.3276
  854MOL0     H15273  10.503   4.673   8.591  0.9336 -1.0777 -1.8279
  854MOL0     H15274   8.924   4.248   9.377  1.9335 -0.3257 -1.2116
  854MOL0     H15275   8.706   4.365   9.343 -0.8175  1.3485 -1.3974
  854MOL0     H15276   8.275   4.404   9.474  0.3556 -1.3790  0.2663
  854MOL0     H15277   8.100   4.574   9.456 -0.3478  0.4268 -1.4439
  854MOL0     H15278   7.935   4.664   9.074 -1.9421  1.0963 -0.3127
  854MOL0     H15279   8.015   4.813   9.085  1.0842  0.5115  0.9382
  854MOL0     H15280   7.873   4.903   9.239 -0.7578  0.0379  0.2465
  854MOL0     H15281   7.768   4.755   9.246 -0.4996 -0.1601  0.3554
  854MOL0     H15282   7.729   4.798   8.982 -0.7961  1.0077 -1.6940
  854MOL0     H15283   7.809   4.946   9.019  1.6067 -0.5764  2.7777
  854MOL0     H15284   7.546   4.822   9.128  2.0428 -2.5512 -1.3466
  854MOL0     H15285   7.604   4.990   9.184 -2.5116  0.5723 -0.9662
  854MOL0     H15286   7.458   5.101   8.826 -0.0331  0.0671 -0.5312
  854MOL0     H15287   8.162   4.624   9.043  1.5536  1.0771  1.2676
  854MOL0     H15288   8.458   4.484   9.003  0.7788 -2.8097  1.4150
  854MOL0     H15289   8.349   4.358   8.965  0.4528 -0.4738  2.2251
  854MOL0     H15290   8.305   4.531   8.929 -1.1651 -2.2748 -1.9454
  855MOL0     O15291   9.688   8.114   8.643 -0.2280  1.2270  0.0561
  855MOL0     C15292   9.788   8.037   8.619 -0.2596  0.0141 -0.3067
  855MOL0     O15293   9.883   8.062   8.517  0.2091  0.2308  0.7418
  855MOL0     C15294   9.865   8.177   8.451 -0.0222  0.4115 -0.9198
  855MOL0     C15295   9.872   8.303   8.510 -0.0779 -0.2914 -0.3385
  855MOL0     C15296   9.871   8.410   8.424 -0.1665  0.8190 -0.5358
  855MOL0     C15297   9.858   8.400   8.281  0.0483  0.2018 -0.4888
  855MOL0     O15298   9.835   8.513   8.205 -0.1971  1.0727  0.3930
  855MOL0     C15299   9.931   8.615   8.223  0.2087  0.5761  0.5338
  855MOL0     C15300  10.027   8.602   8.105 -0.0421  0.0037  0.1543
  855MOL0     C15301  10.146   8.694   8.116 -0.1743  0.8137  0.1010
  855MOL0     C15302  10.263   8.643   8.033  0.0657  0.5493  0.3115
  855MOL0     C15303  10.382   8.734   8.012 -0.3469  0.3642 -0.5409
  855MOL0     C15304  10.525   8.659   7.999  0.8568 -0.0138  0.2715
  855MOL0     C15305  10.574   8.621   7.855  0.2127  0.9601  0.2310
  855MOL0     C15306  10.681   8.516   7.873 -0.0405 -0.1870 -0.5070
  855MOL0     N15307  10.797   8.584   7.934  0.4254  0.0866  0.2183
  855MOL0     C15308  10.902   8.637   7.862 -0.3416  0.4570  0.3731
  855MOL0     C15309  10.992   8.678   7.949 -0.5219  0.1290 -0.7944
  855MOL0     C15310  11.123   8.762   7.930 -0.0109 -0.3184  0.4300
  855MOL0     C15311  11.240   8.673   7.920 -0.9059  0.3410 -0.1895
  855MOL0     C15312  11.363   8.745   7.851 -0.6395  0.0576 -0.3988
  855MOL0     C15313  11.493   8.696   7.918 -0.7988  0.3867  0.1251
  855MOL0     O15314  11.596   8.742   7.838  0.4494 -0.0867 -0.6097
  855MOL0     C15315  11.720   8.694   7.861 -0.4669  0.1348 -0.5301
  855MOL0     C15316  11.820   8.738   7.771  0.0369  0.8311 -0.6451
  855MOL0     C15317  11.946   8.692   7.774 -1.0058  0.1769  0.1760
  855MOL0     C15318  11.980   8.596   7.872  0.1460  0.1445  0.4942
  855MOL0     C15319  12.119   8.548   7.873  0.0268 -0.2109  0.0990
  855MOL0     O15320  12.169   8.509   7.994  0.1719  0.1899  0.5766
  855MOL0     C15321  12.294   8.452   8.007 -0.0088 -1.0460  0.5200
  855MOL0     C15322  12.358   8.462   8.134  0.3675  0.6250 -0.5292
  855MOL0     C15323  12.469   8.386   8.159 -0.2217  0.5294 -0.0359
  855MOL0     C15324  12.527   8.308   8.055 -0.5503 -0.6844 -0.7083
  855MOL0     O15325  12.619   8.216   8.079 -0.0921  0.8926 -0.0068
  855MOL0     C15326  12.694   8.210   8.199 -0.0030 -0.2860 -0.7588
  855MOL0     C15327  12.803   8.112   8.179  0.6455 -0.4200 -0.2945
  855MOL0     C15328  12.884   8.100   8.312 -0.5553 -0.3532  0.0770
  855MOL0     C15329  12.987   7.992   8.297 -0.6617  0.3499 -0.0087
  855MOL0     C15330  13.089   8.022   8.400  0.2860  0.1043 -0.2344
  855MOL0     C15331  13.192   7.903   8.401 -0.8528  0.0670  0.0622
  855MOL0     C15332  13.319   7.937   8.487 -0.0510  0.0234  0.6370
  855MOL0     C15333  13.428   7.833   8.459 -0.0166  0.1597 -0.0341
  855MOL0    Cl15334  13.577   7.884   8.524  0.4248  0.0311 -0.5981
  855MOL0     C15335  12.470   8.292   7.933 -0.0151 -0.5178 -0.5541
  855MOL0     C15336  12.347   8.368   7.908 -0.1524 -0.2896 -0.1708
  855MOL0     O15337  12.181   8.551   7.761 -0.0222  0.5797 -0.1836
  855MOL0     C15338  11.889   8.562   7.972  1.1510  0.2132 -0.4209
  855MOL0     C15339  11.754   8.615   7.972 -0.4043  0.1222  0.4145
  855MOL0     N15340  10.940   8.653   8.080  1.0880  0.7856 -0.4884
  855MOL0     N15341  10.816   8.624   8.058 -0.7168  0.2176 -0.2728
  855MOL0     C15342   9.864   8.277   8.222 -0.7514  0.6566  0.2465
  855MOL0     C15343   9.865   8.163   8.308 -1.0771 -0.3999  0.3748
  855MOL0     C15344   9.802   7.905   8.681 -0.0617  0.2317 -0.2567
  855MOL0     C15345   9.693   7.861   8.760 -0.1333  0.0187  0.8759
  855MOL0     C15346   9.688   7.737   8.819 -0.1240 -0.1427  0.0154
  855MOL0     C15347   9.794   7.639   8.803  0.7803 -0.1162  0.3382
  855MOL0     O15348   9.791   7.508   8.859 -0.3309 -0.1623  0.1865
  855MOL0     C15349   9.666   7.466   8.920 -0.1783  1.1676  0.3254
  855MOL0     C15350   9.692   7.334   8.988 -0.9991 -0.1693 -0.3280
  855MOL0     C15351   9.564   7.255   9.029  0.9133 -0.2930  0.3320
  855MOL0     C15352   9.595   7.151   9.133  0.3507 -0.2942  0.1689
  855MOL0     C15353   9.698   7.047   9.095  0.3656 -0.6423 -0.4686
  855MOL0     C15354   9.780   6.964   9.044  0.9096  0.1943 -0.7075
  855MOL0     C15355   9.899   7.677   8.729 -0.4472  0.6238 -0.6579
  855MOL0     C15356   9.908   7.806   8.670 -0.1169  0.0549 -0.3631
  855MOL0     C15357  10.037   7.830   8.599 -0.1599  0.3799  0.0960
  855MOL0     H15358   9.878   8.319   8.617  0.5297 -1.6687 -0.1560
  855MOL0     H15359   9.880   8.512   8.461  0.9410  0.9242 -1.0783
  855MOL0     H15360   9.877   8.710   8.221  1.2850  1.3237 -3.5982
  855MOL0     H15361   9.984   8.604   8.318 -0.6338  0.2198  0.9740
  855MOL0     H15362   9.981   8.617   8.007 -0.1923  0.0050  0.2250
  855MOL0     H15363  10.063   8.499   8.106 -1.0753 -0.3775 -0.0178
  855MOL0     H15364  10.177   8.707   8.220 -0.9314  1.2148  0.2846
  855MOL0     H15365  10.110   8.793   8.085 -0.1891  0.1170 -2.2413
  855MOL0     H15366  10.296   8.550   8.081  1.7674  1.1370  0.3657
  855MOL0     H15367  10.213   8.613   7.941 -0.0691 -1.6329  1.0287
  855MOL0     H15368  10.348   8.798   7.930  0.3804  1.8098  0.2439
  855MOL0     H15369  10.392   8.786   8.108  2.3207 -2.3239  0.8431
  855MOL0     H15370  10.589   8.732   8.050 -1.2480  1.4810  0.9225
  855MOL0     H15371  10.523   8.576   8.070  2.2668  1.5943  2.3233
  855MOL0     H15372  10.609   8.705   7.794  1.7922  2.1474  2.6347
  855MOL0     H15373  10.496   8.570   7.797  0.5946  0.5522  0.0671
  855MOL0     H15374  10.652   8.437   7.942 -0.1513  0.8063  0.6203
  855MOL0     H15375  10.709   8.478   7.774  0.9744  1.9985 -1.1320
  855MOL0     H15376  10.913   8.656   7.756 -2.1449 -1.7014 -0.2865
  855MOL0     H15377  11.114   8.817   7.836  2.7454  0.1570  0.3510
  855MOL0     H15378  11.138   8.824   8.019  0.0107  0.1510  0.1026
  855MOL0     H15379  11.271   8.639   8.020 -1.6712 -2.3422 -0.7690
  855MOL0     H15380  11.217   8.579   7.869  1.5185 -0.6959  0.4493
  855MOL0     H15381  11.364   8.853   7.863 -2.5303  0.1528 -0.8530
  855MOL0     H15382  11.358   8.715   7.746  0.6234  0.1911 -0.5216
  855MOL0     H15383  11.496   8.587   7.917  0.5531  0.3925 -0.7723
  855MOL0     H15384  11.491   8.724   8.023 -2.8837  0.6597  0.0365
  855MOL0     H15385  11.796   8.802   7.687  2.4427 -0.3053 -2.3228
  855MOL0     H15386  12.008   8.730   7.694 -1.3340 -1.2413 -0.7781
  855MOL0     H15387  12.312   8.525   8.210 -1.5508  1.5057 -2.3218
  855MOL0     H15388  12.508   8.394   8.260 -0.8701  2.3009  0.1141
  855MOL0     H15389  12.742   8.308   8.210  3.0036 -1.0683 -4.8201
  855MOL0     H15390  12.622   8.184   8.278 -2.6968  0.7977 -2.6835
  855MOL0     H15391  12.761   8.014   8.154  0.6015 -0.6922  0.7776
  855MOL0     H15392  12.875   8.138   8.101  1.8223 -0.3213  0.7839
  855MOL0     H15393  12.928   8.200   8.324 -0.4233 -0.6925  3.1586
  855MOL0     H15394  12.827   8.088   8.404  2.4198 -0.3462  2.0629
  855MOL0     H15395  13.024   7.975   8.195  0.7774 -2.2431  0.8549
  855MOL0     H15396  12.944   7.894   8.321  0.1836  0.3618  1.6923
  855MOL0     H15397  13.056   8.054   8.500  0.8980  1.3318 -0.4017
  855MOL0     H15398  13.133   8.112   8.356 -1.6194 -1.0082 -4.9494
  855MOL0     H15399  13.153   7.803   8.423  0.9097 -0.8790 -0.8270
  855MOL0     H15400  13.223   7.911   8.296  0.5419 -1.7219  0.2775
  855MOL0     H15401  13.300   7.915   8.593  1.9514 -0.7877  0.8767
  855MOL0     H15402  13.356   8.038   8.466  0.5173 -0.4722 -0.8531
  855MOL0     H15403  13.404   7.732   8.492 -1.4546  0.1614 -1.0068
  855MOL0     H15404  13.445   7.822   8.351  4.3912  1.9528  0.2353
  855MOL0     H15405  12.505   8.226   7.854  0.6051 -0.4576 -0.3342
  855MOL0     H15406  12.303   8.355   7.810  1.8807  1.2342 -1.3722
  855MOL0     H15407  11.927   8.497   8.051  1.1181 -1.6984 -1.9067
  855MOL0     H15408  11.675   8.583   8.039 -1.7211  0.7367 -0.7877
  855MOL0     H15409   9.865   8.266   8.114 -1.4890 -1.6616  0.4220
  855MOL0     H15410   9.871   8.064   8.265 -0.8732  0.0171 -0.5844
  855MOL0     H15411   9.608   7.929   8.769 -0.6557 -0.4013 -0.6602
  855MOL0     H15412   9.590   7.715   8.859 -0.1774 -0.3747 -0.2413
  855MOL0     H15413   9.587   7.455   8.845  0.9902 -0.8100 -0.6734
  855MOL0     H15414   9.627   7.533   8.998 -0.3669 -0.5541  1.7603
  855MOL0     H15415   9.757   7.355   9.074 -2.4079  1.3288  0.4397
  855MOL0     H15416   9.749   7.271   8.920 -0.7816  0.4979 -0.7737
  855MOL0     H15417   9.514   7.213   8.941  0.7573  1.3764 -0.4108
  855MOL0     H15418   9.494   7.330   9.066 -1.2434 -1.7299 -0.6362
  855MOL0     H15419   9.627   7.202   9.224  0.0160  0.3454 -0.0689
  855MOL0     H15420   9.501   7.101   9.158 -0.8378  2.0413  0.6287
  855MOL0     H15421   9.850   6.897   8.996  0.2269  0.8913 -2.8141
  855MOL0     H15422   9.984   7.609   8.732 -0.4797  0.3817 -3.0750
  855MOL0     H15423  10.117   7.762   8.630 -0.0963 -0.2727 -1.4007
  855MOL0     H15424  10.012   7.814   8.494  0.6731 -0.9229  0.0777
  855MOL0     H15425  10.077   7.930   8.619 -0.4639 -0.0017  2.9832
  856MOL0     O15426   6.883   3.943   0.848  0.1261 -0.2304 -0.0250
  856MOL0     C15427   6.838   4.059   0.854 -0.1732 -0.5082 -0.0961
  856MOL0     O15428   6.912   4.174   0.836 -0.9077  0.3479 -0.2555
  856MOL0     C15429   7.048   4.160   0.810  0.2459 -0.3542 -0.1328
  856MOL0     C15430   7.136   4.106   0.902 -0.2206 -0.1831 -0.0254
  856MOL0     C15431   7.270   4.103   0.870 -0.2208  0.3229  0.1505
  856MOL0     C15432   7.317   4.162   0.757 -0.0920  0.0185  0.2038
  856MOL0     O15433   7.450   4.176   0.721  1.2518  0.5162 -0.9708
  856MOL0     C15434   7.548   4.143   0.829  0.4627  0.4287  0.5747
  856MOL0     C15435   7.685   4.195   0.771 -0.0815 -0.0513 -1.1694
  856MOL0     C15436   7.720   4.349   0.798 -0.2061 -0.0164 -1.2041
  856MOL0     C15437   7.837   4.395   0.717  0.4522 -0.6623  0.2588
  856MOL0     C15438   7.877   4.526   0.758  0.7799 -0.1011  0.6272
  856MOL0     C15439   8.002   4.581   0.691 -0.0709 -0.5907  0.1220
  856MOL0     C15440   8.133   4.506   0.708 -0.5612 -0.2739  0.9239
  856MOL0     C15441   8.179   4.519   0.849 -0.5700 -0.9108 -0.0768
  856MOL0     N15442   8.223   4.653   0.893 -1.1823 -0.2580  0.6248
  856MOL0     C15443   8.336   4.718   0.856  0.6481  0.1914  0.3699
  856MOL0     C15444   8.326   4.847   0.906  0.7563 -0.1599  0.7962
  856MOL0     C15445   8.432   4.951   0.908 -0.6343 -0.2677  0.6426
  856MOL0     C15446   8.581   4.913   0.950  0.7059 -0.0020  0.2000
  856MOL0     C15447   8.648   5.029   1.022 -0.8115 -0.5005 -0.1580
  856MOL0     C15448   8.787   4.990   1.068 -0.1556  0.3546 -0.1948
  856MOL0     O15449   8.864   4.951   0.941  0.6832 -0.5270  0.3099
  856MOL0     C15450   9.000   4.917   0.949 -0.0629  0.3870  0.3803
  856MOL0     C15451   9.071   4.900   0.828 -1.0447  0.6994  0.4496
  856MOL0     C15452   9.210   4.876   0.823  0.3888  0.1733 -0.4940
  856MOL0     C15453   9.279   4.851   0.944  0.5518  0.1024  0.2526
  856MOL0     C15454   9.423   4.810   0.946 -0.3531 -0.6301 -0.6111
  856MOL0     O15455   9.465   4.744   1.059  0.2088 -0.4075 -0.1125
  856MOL0     C15456   9.593   4.706   1.082  0.0446 -0.1417 -0.6504
  856MOL0     C15457   9.598   4.615   1.190  0.0136 -0.5457 -0.5990
  856MOL0     C15458   9.727   4.571   1.237  0.0866 -0.6569 -0.4154
  856MOL0     C15459   9.844   4.612   1.175 -0.4562 -0.3909  0.2697
  856MOL0     O15460   9.965   4.587   1.229  0.4217  0.2487  0.3063
  856MOL0     C15461   9.998   4.457   1.278  0.3953  0.0841  0.1187
  856MOL0     C15462  10.155   4.444   1.293  0.1301 -0.1529 -0.5318
  856MOL0     C15463  10.196   4.306   1.364 -0.4484  0.7720  0.8850
  856MOL0     C15464  10.350   4.295   1.379 -0.0610 -0.3826  0.6210
  856MOL0     C15465  10.420   4.387   1.476 -0.7753 -0.4448 -0.8020
  856MOL0     C15466  10.568   4.367   1.484  0.4121  0.3297  0.8930
  856MOL0     C15467  10.630   4.475   1.569 -0.1633  0.1649  0.0211
  856MOL0     C15468  10.780   4.474   1.555  0.4784  0.3656  0.2420
  856MOL0    Cl15469  10.847   4.601   1.667  0.3074  0.0599  0.6752
  856MOL0     C15470   9.838   4.702   1.070 -0.4364  0.4845  1.3052
  856MOL0     C15471   9.714   4.744   1.018  0.5842  0.8994  0.4453
  856MOL0     O15472   9.495   4.823   0.841 -0.5997 -0.0716  0.1200
  856MOL0     C15473   9.209   4.864   1.063 -0.4822  0.1345 -0.5959
  856MOL0     C15474   9.073   4.898   1.070 -0.0716 -0.0323  0.4474
  856MOL0     N15475   8.201   4.859   0.974 -0.3946  0.1496  0.1994
  856MOL0     N15476   8.145   4.742   0.960 -0.0371 -0.4066 -0.2078
  856MOL0     C15477   7.234   4.211   0.657 -0.3460  0.2006 -1.1230
  856MOL0     C15478   7.095   4.213   0.687 -0.0907  0.6728  0.1002
  856MOL0     C15479   6.694   4.081   0.848 -0.1731  0.3930 -1.5184
  856MOL0     C15480   6.627   3.985   0.932 -0.4072  0.2412  1.1543
  856MOL0     C15481   6.492   3.994   0.954 -0.7477 -0.8256 -0.3710
  856MOL0     C15482   6.416   4.080   0.886  0.1215 -0.0943 -0.2587
  856MOL0     O15483   6.284   4.080   0.912  0.7122  0.9053 -0.1879
  856MOL0     C15484   6.215   3.978   0.835  0.2905  0.3676 -0.2435
  856MOL0     C15485   6.090   3.946   0.913 -0.4504 -0.2905  0.2349
  856MOL0     C15486   5.997   3.850   0.844 -0.4677  0.2906  0.0662
  856MOL0     C15487   5.946   3.914   0.715  0.1231  0.6743 -0.3573
  856MOL0     C15488   5.838   4.003   0.746  0.1544 -1.1325  0.7308
  856MOL0     C15489   5.748   4.091   0.771  0.5123 -0.7901 -0.5529
  856MOL0     C15490   6.475   4.169   0.792  0.4387  0.8803 -0.1900
  856MOL0     C15491   6.613   4.176   0.773  0.3621  0.5813  0.2948
  856MOL0     C15492   6.657   4.264   0.664 -0.2506 -0.0492 -0.1925
  856MOL0     H15493   7.098   4.062   0.994  3.0652 -0.5416  1.3134
  856MOL0     H15494   7.330   4.039   0.935  0.5264 -2.1126 -2.7165
  856MOL0     H15495   7.519   4.183   0.927 -0.5398 -2.3109  1.4841
  856MOL0     H15496   7.546   4.034   0.838 -0.0716  0.4675  0.9994
  856MOL0     H15497   7.681   4.180   0.663 -0.2902  0.5846 -1.2578
  856MOL0     H15498   7.759   4.130   0.818 -1.4921  0.9089  2.8381
  856MOL0     H15499   7.744   4.362   0.904  0.2184 -0.5417 -1.2299
  856MOL0     H15500   7.637   4.416   0.774  0.2669  1.4332  0.9901
  856MOL0     H15501   7.917   4.326   0.749  1.2500  0.9172  1.8516
  856MOL0     H15502   7.809   4.395   0.612 -1.0189  1.8695  0.5883
  856MOL0     H15503   7.792   4.592   0.738  0.1832 -0.9534  0.3232
  856MOL0     H15504   7.889   4.530   0.867  1.3625 -3.3533  0.7587
  856MOL0     H15505   7.992   4.583   0.582  1.0019  0.1684  0.0258
  856MOL0     H15506   8.009   4.684   0.724 -3.0614 -0.6392  1.1559
  856MOL0     H15507   8.207   4.544   0.636  1.7264  0.1999  3.3918
  856MOL0     H15508   8.114   4.400   0.688 -1.9594 -0.1084  1.2758
  856MOL0     H15509   8.092   4.491   0.909 -2.0786  0.9252 -1.2713
  856MOL0     H15510   8.261   4.447   0.858 -1.4620 -1.8311  0.9384
  856MOL0     H15511   8.424   4.673   0.811  0.8832  0.6364  0.3793
  856MOL0     H15512   8.432   5.008   0.814  0.1369 -2.4209 -0.7440
  856MOL0     H15513   8.405   5.024   0.984 -0.7737  0.0048  0.3351
  856MOL0     H15514   8.563   4.829   1.017 -4.0485 -0.7327 -1.5822
  856MOL0     H15515   8.636   4.880   0.861 -2.8538 -0.5019 -2.0181
  856MOL0     H15516   8.594   5.064   1.110 -1.1671  0.9301 -0.9321
  856MOL0     H15517   8.645   5.114   0.954 -4.0119  0.4704  1.0466
  856MOL0     H15518   8.780   4.909   1.142 -0.2086 -0.6200 -1.2354
  856MOL0     H15519   8.836   5.072   1.121 -0.3359  0.8820 -0.8401
  856MOL0     H15520   9.038   4.924   0.728  0.8520 -0.3480 -0.4849
  856MOL0     H15521   9.265   4.871   0.730  1.6366 -1.3031  0.2935
  856MOL0     H15522   9.518   4.588   1.258  1.4665  1.1924  1.9753
  856MOL0     H15523   9.730   4.504   1.322  0.1243 -0.2565 -0.0965
  856MOL0     H15524   9.958   4.447   1.379  2.5091  0.4126  1.0492
  856MOL0     H15525   9.976   4.367   1.220  1.1536 -2.4660  3.4522
  856MOL0     H15526  10.208   4.450   1.197  0.2680 -0.5423 -0.4793
  856MOL0     H15527  10.192   4.525   1.357  2.0552 -2.1062  0.9530
  856MOL0     H15528  10.143   4.308   1.459 -1.0150 -1.3494  0.6802
  856MOL0     H15529  10.159   4.214   1.316  2.1538 -2.2709  4.1293
  856MOL0     H15530  10.395   4.310   1.280 -0.1091  2.7975  0.9904
  856MOL0     H15531  10.371   4.192   1.410  0.3008 -0.2640  0.7716
  856MOL0     H15532  10.375   4.366   1.574 -1.3786  1.0491 -0.7277
  856MOL0     H15533  10.403   4.490   1.445  1.8215 -0.7534 -3.6000
  856MOL0     H15534  10.582   4.272   1.536 -2.1422  0.3735  1.7860
  856MOL0     H15535  10.608   4.367   1.382 -2.4598  2.2671 -0.3491
  856MOL0     H15536  10.605   4.454   1.673  2.6024  0.7183  0.8800
  856MOL0     H15537  10.600   4.577   1.542  0.0218  0.6026  1.4126
  856MOL0     H15538  10.817   4.377   1.590 -2.9688 -0.5136  1.8395
  856MOL0     H15539  10.823   4.481   1.455  0.6229 -0.9153  0.1917
  856MOL0     H15540   9.938   4.717   1.031 -1.1946  1.6758 -0.3647
  856MOL0     H15541   9.706   4.808   0.931 -1.1033  1.5008  0.9926
  856MOL0     H15542   9.264   4.854   1.156 -2.6572  1.9920  0.9905
  856MOL0     H15543   9.025   4.921   1.164  0.1208  2.2585  0.0470
  856MOL0     H15544   7.283   4.245   0.566  1.7904 -0.9821 -0.4808
  856MOL0     H15545   7.028   4.261   0.616  0.2608  2.1227  0.7156
  856MOL0     H15546   6.679   3.915   0.996 -1.1343 -0.8263  0.5938
  856MOL0     H15547   6.440   3.934   1.029 -0.2501 -0.6718  0.0964
  856MOL0     H15548   6.275   3.890   0.811  1.5008  1.6696 -2.2172
  856MOL0     H15549   6.194   4.022   0.737 -1.8308 -0.0295 -0.0181
  856MOL0     H15550   6.032   4.037   0.928 -1.6026 -0.6756 -1.5382
  856MOL0     H15551   6.110   3.901   1.011 -0.8515  0.4129  0.6449
  856MOL0     H15552   5.915   3.824   0.910 -0.8673  0.5389 -0.3242
  856MOL0     H15553   6.046   3.758   0.813 -1.2027  0.2290 -0.9630
  856MOL0     H15554   6.014   3.967   0.648  0.5990 -1.3042 -1.5347
  856MOL0     H15555   5.913   3.830   0.653  4.0053 -1.2611 -0.0932
  856MOL0     H15556   5.680   4.172   0.786  0.3974 -0.4085 -2.8291
  856MOL0     H15557   6.405   4.234   0.739 -1.5753 -1.1430 -0.1791
  856MOL0     H15558   6.671   4.367   0.697 -1.3122  0.5389 -1.4663
  856MOL0     H15559   6.756   4.232   0.630 -0.5330 -1.2031  0.0463
  856MOL0     H15560   6.590   4.254   0.578  0.6584 -2.9690 -0.6617
  857MOL0     O15561   1.810   0.898   9.268  0.4440  0.6380 -0.3208
  857MOL0     C15562   1.822   0.796   9.344 -0.0451 -0.3580 -0.4941
  857MOL0     O15563   1.722   0.726   9.398  0.4626 -0.1945  0.3640
  857MOL0     C15564   1.600   0.781   9.372  0.1791  0.0584 -0.1535
  857MOL0     C15565   1.569   0.907   9.429  0.2045  0.1709  0.6980
  857MOL0     C15566   1.447   0.965   9.388  0.8080  0.6244  0.4417
  857MOL0     C15567   1.349   0.901   9.302 -0.1410  0.4132  0.3609
  857MOL0     O15568   1.228   0.952   9.255  0.0256  0.9717  0.0028
  857MOL0     C15569   1.174   1.060   9.333  0.2036 -0.0790  0.3040
  857MOL0     C15570   1.100   1.018   9.451  0.3845 -0.6047  0.1414
  857MOL0     C15571   1.019   1.135   9.513 -0.1388  0.3070  0.0990
  857MOL0     C15572   1.102   1.252   9.577 -0.4466 -0.2388 -0.4136
  857MOL0     C15573   1.025   1.328   9.688  0.7577 -0.9673  0.3972
  857MOL0     C15574   1.110   1.432   9.766  0.0058 -0.5752 -0.4182
  857MOL0     C15575   1.056   1.470   9.909 -0.4400 -0.1350  0.8329
  857MOL0     C15576   1.085   1.359  10.006 -0.2911  0.2332  0.0648
  857MOL0     N15577   1.225   1.311   9.991 -1.0293 -0.5446 -0.7641
  857MOL0     C15578   1.341   1.387  10.011  0.4658 -0.9905 -0.2623
  857MOL0     C15579   1.446   1.294   9.995 -0.6024 -0.1489 -0.8901
  857MOL0     C15580   1.596   1.320  10.006 -0.4247 -0.3262 -0.3550
  857MOL0     C15581   1.648   1.352   9.861 -0.4613  0.3534 -0.4081
  857MOL0     C15582   1.799   1.391   9.849 -0.0261 -0.1328  0.4298
  857MOL0     C15583   1.897   1.286   9.899  0.4158  0.0429  0.7623
  857MOL0     O15584   2.005   1.283   9.809 -0.0563  0.3893 -0.2111
  857MOL0     C15585   2.111   1.196   9.847  0.9623  0.0113  0.9723
  857MOL0     C15586   2.242   1.245   9.848 -0.3503 -0.2739 -0.3669
  857MOL0     C15587   2.345   1.157   9.866 -0.2811  0.5307  0.1765
  857MOL0     C15588   2.329   1.020   9.889  0.0240  0.1233  0.1403
  857MOL0     C15589   2.442   0.929   9.912 -0.4748 -0.0299 -0.8910
  857MOL0     O15590   2.566   0.984   9.938  0.1779  0.4264 -0.2110
  857MOL0     C15591   2.679   0.915   9.909  0.6035 -0.1475  0.0458
  857MOL0     C15592   2.735   0.812   9.984  0.1851  0.9799 -0.7775
  857MOL0     C15593   2.850   0.746   9.943  1.0069  0.0857 -0.2817
  857MOL0     C15594   2.926   0.802   9.838 -1.0172 -0.0382 -0.4745
  857MOL0     O15595   3.051   0.751   9.826 -0.3414  0.3101 -0.0514
  857MOL0     C15596   3.122   0.768   9.700  0.1574  0.1295 -0.6767
  857MOL0     C15597   3.170   0.629   9.657 -0.5369  0.0893 -0.8248
  857MOL0     C15598   3.289   0.577   9.746  0.6192 -0.3685  0.5140
  857MOL0     C15599   3.259   0.488   9.869 -0.4353  0.1862 -0.4236
  857MOL0     C15600   3.389   0.467   9.960  0.0989  0.0049 -0.0938
  857MOL0     C15601   3.359   0.400  10.100 -0.7602  0.3197  0.1846
  857MOL0     C15602   3.494   0.340  10.152  0.3204  0.0490  0.3424
  857MOL0     C15603   3.487   0.283  10.286 -0.3398 -0.5165  0.6475
  857MOL0    Cl15604   3.396   0.404  10.393 -0.6073  0.0467  0.1481
  857MOL0     C15605   2.868   0.908   9.762  0.3036 -0.3534 -0.3843
  857MOL0     C15606   2.743   0.967   9.796  0.1698  0.3552  0.7626
  857MOL0     O15607   2.420   0.806   9.899 -0.1549  0.0089 -0.3971
  857MOL0     C15608   2.198   0.969   9.882 -0.3793  0.1517  0.2019
  857MOL0     C15609   2.094   1.060   9.860  0.4851 -0.3603  0.2523
  857MOL0     N15610   1.398   1.169   9.985 -0.4963 -0.1975 -0.2796
  857MOL0     N15611   1.269   1.180   9.973  0.2513 -0.1779 -0.2931
  857MOL0     C15612   1.385   0.779   9.260 -0.5899  0.1482  1.5588
  857MOL0     C15613   1.508   0.713   9.292  0.8408  0.0780 -0.4856
  857MOL0     C15614   1.963   0.740   9.361 -0.1307  0.1561  0.0547
  857MOL0     C15615   2.068   0.764   9.269  0.8790  0.2328  0.2231
  857MOL0     C15616   2.197   0.730   9.296  0.1594  0.1864  0.5619
  857MOL0     C15617   2.242   0.682   9.417  0.3349 -0.6743 -0.9001
  857MOL0     O15618   2.374   0.668   9.441  0.3192  0.2024  0.1357
  857MOL0     C15619   2.421   0.694   9.571 -0.2775 -0.2182  0.7829
  857MOL0     C15620   2.574   0.723   9.567  0.0004  0.2463 -0.3018
  857MOL0     C15621   2.641   0.629   9.471 -0.2628 -0.0566  0.9270
  857MOL0     C15622   2.796   0.619   9.485  0.3266 -0.1170 -0.4150
  857MOL0     C15623   2.848   0.527   9.383 -0.0353 -0.4025  0.0147
  857MOL0     C15624   2.905   0.433   9.329 -0.2101 -0.3612  0.8275
  857MOL0     C15625   2.144   0.658   9.509  0.9652 -0.3228  0.6909
  857MOL0     C15626   2.005   0.688   9.485  0.3101 -0.1302 -0.0366
  857MOL0     C15627   1.916   0.667   9.601  0.4638  1.0894 -0.5843
  857MOL0     H15628   1.636   0.966   9.491  2.0371 -0.6338 -0.4555
  857MOL0     H15629   1.430   1.068   9.417  1.1354 -0.2205  4.1328
  857MOL0     H15630   1.243   1.141   9.359  0.9403 -0.6101  0.0425
  857MOL0     H15631   1.103   1.116   9.271  1.2269  1.3291  0.3561
  857MOL0     H15632   1.161   0.985   9.535 -0.1761 -0.8377  0.4650
  857MOL0     H15633   1.030   0.938   9.424  0.0069 -0.0216 -0.6378
  857MOL0     H15634   0.945   1.095   9.583 -1.0289  1.8059  0.0578
  857MOL0     H15635   0.965   1.177   9.427  0.4223  3.2249  1.0612
  857MOL0     H15636   1.188   1.204   9.624 -1.3380 -0.6734  0.8072
  857MOL0     H15637   1.123   1.314   9.489  1.4444 -1.0084 -0.5593
  857MOL0     H15638   0.936   1.370   9.638  0.1936 -1.2927  1.1156
  857MOL0     H15639   0.984   1.259   9.762  0.0252 -0.2762  0.6616
  857MOL0     H15640   1.212   1.393   9.772  0.3018  0.1314 -0.7552
  857MOL0     H15641   1.122   1.518   9.700 -0.1384  0.9223  1.4334
  857MOL0     H15642   0.949   1.491   9.911 -0.1506  1.9645 -1.0346
  857MOL0     H15643   1.105   1.566   9.930 -4.1066  2.2411 -0.4289
  857MOL0     H15644   1.076   1.407  10.104 -1.2477  1.0214 -0.3946
  857MOL0     H15645   1.021   1.271  10.009 -1.3225  0.9568 -0.3349
  857MOL0     H15646   1.348   1.494  10.023 -0.1554 -1.0954  1.2121
  857MOL0     H15647   1.614   1.409  10.068 -0.4223 -0.3735 -0.2865
  857MOL0     H15648   1.661   1.247  10.055 -0.8864 -1.2233 -1.0625
  857MOL0     H15649   1.631   1.263   9.800 -1.4215  1.1577 -1.3569
  857MOL0     H15650   1.582   1.426   9.814 -3.2348 -1.3042  0.6314
  857MOL0     H15651   1.814   1.492   9.887  2.9398 -0.3839  0.1271
  857MOL0     H15652   1.818   1.396   9.741 -1.5204 -0.7047  0.1097
  857MOL0     H15653   1.844   1.190   9.907 -1.0098  0.7415  0.0541
  857MOL0     H15654   1.911   1.319  10.003 -1.0983 -1.3578  1.4627
  857MOL0     H15655   2.259   1.352   9.843 -0.3123 -0.3297 -1.9714
  857MOL0     H15656   2.451   1.180   9.856 -0.3561  0.4322 -1.0109
  857MOL0     H15657   2.690   0.756  10.066  0.4269  1.0596 -0.5875
  857MOL0     H15658   2.890   0.662   9.999  0.7293  0.4731  0.5116
  857MOL0     H15659   3.063   0.815   9.620 -0.6531 -1.2568 -0.9176
  857MOL0     H15660   3.207   0.836   9.709  0.3922 -0.2769  0.2720
  857MOL0     H15661   3.090   0.555   9.654 -1.1932  0.8036 -1.3802
  857MOL0     H15662   3.215   0.636   9.558 -3.2214  0.5834 -2.1000
  857MOL0     H15663   3.350   0.515   9.680 -0.3724 -0.4520 -0.3643
  857MOL0     H15664   3.356   0.662   9.761 -1.3278  1.6231 -1.3711
  857MOL0     H15665   3.210   0.392   9.845 -1.5473  0.0568  2.0443
  857MOL0     H15666   3.180   0.540   9.924 -1.8201 -0.6636 -1.5119
  857MOL0     H15667   3.426   0.570   9.971 -2.3168  0.9100  0.1065
  857MOL0     H15668   3.463   0.409   9.903  1.6667  0.8352  1.0076
  857MOL0     H15669   3.313   0.474  10.166 -1.2562  0.5999 -0.4744
  857MOL0     H15670   3.283   0.323  10.083  1.3164 -1.6155 -0.8823
  857MOL0     H15671   3.559   0.428  10.153  2.2088 -1.3072  1.2491
  857MOL0     H15672   3.520   0.266  10.075 -1.4706 -0.4254  0.1428
  857MOL0     H15673   3.439   0.185  10.278 -1.2893  0.0980 -4.2041
  857MOL0     H15674   3.590   0.275  10.320  0.1365  1.3582 -0.2279
  857MOL0     H15675   2.913   0.963   9.680  1.0410  1.2005  1.0131
  857MOL0     H15676   2.711   1.049   9.732  0.5563  0.3901  0.6098
  857MOL0     H15677   2.173   0.864   9.890 -0.4533  0.1175 -0.3824
  857MOL0     H15678   1.993   1.020   9.866  0.1187  0.6152  1.0322
  857MOL0     H15679   1.318   0.731   9.189 -1.3623  0.6939  1.9016
  857MOL0     H15680   1.533   0.613   9.259 -1.9365 -0.7566 -0.3312
  857MOL0     H15681   2.043   0.806   9.173 -1.6235  2.4173  1.7004
  857MOL0     H15682   2.272   0.746   9.219  0.9271  1.3155  1.5088
  857MOL0     H15683   2.399   0.606   9.631 -1.9859 -1.1448 -1.0817
  857MOL0     H15684   2.377   0.784   9.614 -1.3048  0.1014 -0.8188
  857MOL0     H15685   2.621   0.705   9.664  1.3772  1.7080 -0.6534
  857MOL0     H15686   2.599   0.822   9.528  2.4163  0.0633  0.6372
  857MOL0     H15687   2.618   0.659   9.368 -1.6869 -2.0054  0.6396
  857MOL0     H15688   2.596   0.530   9.479  0.1384 -0.2699  0.6140
  857MOL0     H15689   2.837   0.720   9.477 -0.0862  0.1728  0.8940
  857MOL0     H15690   2.817   0.589   9.588 -1.3777  3.5014  1.1651
  857MOL0     H15691   2.956   0.347   9.290 -1.7007 -1.8697  2.0264
  857MOL0     H15692   2.184   0.629   9.606  1.3996 -0.7265  0.3923
  857MOL0     H15693   1.854   0.755   9.621 -1.8703 -0.6309  0.1954
  857MOL0     H15694   1.853   0.579   9.588  2.4112 -0.2308 -1.5506
  857MOL0     H15695   1.974   0.661   9.693 -0.3833  2.3967  0.0734
  858MOL0     O15696   2.119   4.206   3.963  0.5276  0.5563 -0.2812
  858MOL0     C15697   2.066   4.267   4.054 -0.2320 -0.4556 -0.0737
  858MOL0     O15698   2.131   4.351   4.134  0.1455  0.2414  0.2225
  858MOL0     C15699   2.233   4.431   4.102 -1.4280 -0.4393 -0.0686
  858MOL0     C15700   2.322   4.455   4.205 -0.1440  0.5493 -0.3739
  858MOL0     C15701   2.433   4.532   4.176 -0.7817 -1.1458 -0.0733
  858MOL0     C15702   2.456   4.589   4.045  0.3778  0.1297  0.6011
  858MOL0     O15703   2.572   4.659   4.024  0.0602 -0.0381  0.4216
  858MOL0     C15704   2.564   4.787   3.966  0.2683 -1.0859  0.0580
  858MOL0     C15705   2.707   4.836   3.942  0.7588 -0.7710 -0.1308
  858MOL0     C15706   2.780   4.864   4.071 -0.0236 -0.3568 -0.3267
  858MOL0     C15707   2.771   5.019   4.103  0.3618  1.0298  0.2286
  858MOL0     C15708   2.847   5.057   4.225 -0.1575 -0.0592 -0.1059
  858MOL0     C15709   2.791   5.022   4.359 -0.1041  0.3004  0.9583
  858MOL0     C15710   2.820   4.877   4.407  0.2234  0.4668 -0.4267
  858MOL0     C15711   2.853   4.864   4.557  0.2687 -0.6034  0.3665
  858MOL0     N15712   2.976   4.938   4.590 -0.3190 -1.2096  0.2845
  858MOL0     C15713   3.104   4.884   4.575 -0.5117  0.4618 -0.1369
  858MOL0     C15714   3.185   4.987   4.599  0.5935  0.3972  0.1242
  858MOL0     C15715   3.332   4.977   4.600  0.1237 -0.6796 -0.0912
  858MOL0     C15716   3.397   5.055   4.712 -0.4573  0.1037 -0.5015
  858MOL0     C15717   3.544   5.040   4.717 -0.2888  0.5315 -0.5675
  858MOL0     C15718   3.620   5.062   4.579 -0.0197  0.6128 -0.6146
  858MOL0     O15719   3.759   5.058   4.623 -0.1857  0.4440  0.1092
  858MOL0     C15720   3.859   5.107   4.540 -0.2041  0.7765  0.5041
  858MOL0     C15721   3.992   5.116   4.592  0.5718 -0.0469 -0.1536
  858MOL0     C15722   4.102   5.139   4.508  0.4283 -0.4499  0.2683
  858MOL0     C15723   4.081   5.162   4.366 -0.5290  0.3439 -0.0705
  858MOL0     C15724   4.198   5.192   4.283 -0.1074  0.6178  0.1494
  858MOL0     O15725   4.317   5.216   4.347  0.4143  0.3208 -0.5580
  858MOL0     C15726   4.431   5.266   4.288 -0.5871  0.6769  0.0326
  858MOL0     C15727   4.436   5.363   4.188 -0.3930  1.2430 -0.9835
  858MOL0     C15728   4.552   5.429   4.155  0.6301  0.5962 -0.1634
  858MOL0     C15729   4.672   5.391   4.216 -0.0753 -1.2983 -0.4623
  858MOL0     O15730   4.785   5.448   4.165 -0.6281 -0.3490 -0.0542
  858MOL0     C15731   4.906   5.432   4.244  0.6394  0.0139 -0.8580
  858MOL0     C15732   5.029   5.486   4.180  1.0388 -0.0934  0.6040
  858MOL0     C15733   5.071   5.425   4.047 -0.5835  0.2716 -0.4494
  858MOL0     C15734   5.199   5.484   3.989  0.0089 -0.3906  0.4024
  858MOL0     C15735   5.196   5.632   3.959  0.1608  0.3083 -0.2400
  858MOL0     C15736   5.299   5.667   3.851 -0.8306 -0.2383  0.1749
  858MOL0     C15737   5.290   5.828   3.820  0.0429  0.4535  0.7257
  858MOL0     C15738   5.341   5.853   3.677  0.1092  0.4221 -0.1072
  858MOL0    Cl15739   5.511   5.795   3.677  0.1411 -0.0860  0.3595
  858MOL0     C15740   4.667   5.286   4.316 -0.1820  0.2928  0.7379
  858MOL0     C15741   4.547   5.228   4.351  0.5964  0.1226 -0.0127
  858MOL0     O15742   4.173   5.219   4.170 -0.2372  0.2611  1.2350
  858MOL0     C15743   3.948   5.163   4.315 -0.9220  0.0670 -0.3515
  858MOL0     C15744   3.843   5.125   4.398  0.1802  0.0080 -0.4493
  858MOL0     N15745   3.113   5.096   4.646 -0.5085  0.4290 -0.3747
  858MOL0     N15746   2.988   5.066   4.634  0.1896 -0.4729  0.8356
  858MOL0     C15747   2.368   4.559   3.947  0.1084 -0.6466 -0.0574
  858MOL0     C15748   2.255   4.482   3.977 -0.8909 -0.1460  0.1483
  858MOL0     C15749   1.931   4.218   4.097 -0.5015 -0.4029  0.6459
  858MOL0     C15750   1.893   4.247   4.231 -0.4726 -0.2553  0.8505
  858MOL0     C15751   1.772   4.203   4.277  0.3199  0.0307  0.3226
  858MOL0     C15752   1.685   4.124   4.201 -0.4889 -0.6748 -0.7797
  858MOL0     O15753   1.573   4.081   4.266  0.5487  0.2980  0.1510
  858MOL0     C15754   1.598   4.005   4.385  0.0268 -0.2378  0.1434
  858MOL0     C15755   1.518   4.069   4.494 -0.1705 -0.7787 -0.3937
  858MOL0     C15756   1.374   4.042   4.471 -1.2161 -0.0877 -0.6700
  858MOL0     C15757   1.301   4.130   4.569  0.7575  0.0698 -0.8685
  858MOL0     C15758   1.160   4.115   4.557 -0.4766  0.3222  0.2677
  858MOL0     C15759   1.038   4.102   4.540  0.2791  0.0904  0.3185
  858MOL0     C15760   1.720   4.099   4.068 -0.2182  0.7540  0.5875
  858MOL0     C15761   1.837   4.157   4.009 -0.3652  0.2373  0.5861
  858MOL0     C15762   1.858   4.127   3.864 -0.2889 -0.8970 -0.6435
  858MOL0     H15763   2.305   4.408   4.301 -1.6939  0.7630 -0.5224
  858MOL0     H15764   2.502   4.547   4.259  1.0339  2.3151 -1.9730
  858MOL0     H15765   2.519   4.790   3.866  1.9614 -0.9860 -0.7382
  858MOL0     H15766   2.508   4.861   4.024 -0.3619  0.3636 -2.2598
  858MOL0     H15767   2.705   4.924   3.876  1.4221 -0.8476 -0.2691
  858MOL0     H15768   2.756   4.759   3.882 -1.0239 -2.1121  0.0659
  858MOL0     H15769   2.887   4.839   4.066  0.2588  0.2621  1.7320
  858MOL0     H15770   2.735   4.808   4.153  0.0999  1.4773  1.0710
  858MOL0     H15771   2.831   5.065   4.024  2.6482 -0.6505  0.8721
  858MOL0     H15772   2.667   5.052   4.111 -0.4854 -1.8922  3.6742
  858MOL0     H15773   2.947   5.013   4.214  0.1435 -0.0928  2.2209
  858MOL0     H15774   2.863   5.164   4.213  4.8909 -0.4587  0.8915
  858MOL0     H15775   2.833   5.097   4.427  1.4692  0.6467 -0.3621
  858MOL0     H15776   2.685   5.043   4.343  0.4974  2.3243 -0.6498
  858MOL0     H15777   2.908   4.844   4.350  0.1474  0.2318 -0.4106
  858MOL0     H15778   2.732   4.814   4.392  0.2234 -0.2216  1.9927
  858MOL0     H15779   2.773   4.897   4.625  3.1849  1.2886  3.1774
  858MOL0     H15780   2.866   4.758   4.580 -0.8168 -0.3661  2.3665
  858MOL0     H15781   3.143   4.783   4.571 -0.5836  0.4521 -0.6351
  858MOL0     H15782   3.372   4.876   4.588  0.6631 -0.6136  0.9457
  858MOL0     H15783   3.358   5.033   4.509 -0.6439 -1.0782 -0.5554
  858MOL0     H15784   3.365   5.158   4.698 -0.7444  0.1684  0.5589
  858MOL0     H15785   3.361   5.019   4.809  2.1337  1.8850  1.2529
  858MOL0     H15786   3.578   4.945   4.760 -0.3803  1.0262  0.6371
  858MOL0     H15787   3.578   5.123   4.780 -1.2767 -0.7861  1.7973
  858MOL0     H15788   3.598   5.150   4.519  0.9165 -1.0219 -3.5401
  858MOL0     H15789   3.610   4.978   4.509  2.5862  0.2288 -0.6363
  858MOL0     H15790   3.998   5.104   4.700  0.3678 -0.5247 -0.1898
  858MOL0     H15791   4.200   5.125   4.554  0.2167 -0.6961  0.6581
  858MOL0     H15792   4.347   5.395   4.135 -2.7789 -0.0925  1.9679
  858MOL0     H15793   4.560   5.501   4.075 -0.0338 -0.2619 -1.0211
  858MOL0     H15794   4.894   5.473   4.344  0.6335  0.4796 -1.0454
  858MOL0     H15795   4.922   5.326   4.263 -1.9662 -0.4315 -0.7841
  858MOL0     H15796   5.029   5.594   4.166  0.6102 -0.3432 -1.7945
  858MOL0     H15797   5.115   5.468   4.246  1.2794 -1.0965  0.0307
  858MOL0     H15798   5.081   5.317   4.060 -2.4632  0.1677  0.6219
  858MOL0     H15799   4.998   5.449   3.970 -0.5588 -2.1832 -1.3240
  858MOL0     H15800   5.222   5.420   3.903  0.3375 -0.7898  0.7798
  858MOL0     H15801   5.281   5.463   4.058  0.9391 -3.9097 -1.4811
  858MOL0     H15802   5.209   5.700   4.044  2.2748  1.7861 -1.6524
  858MOL0     H15803   5.095   5.658   3.924 -0.7088 -0.5034  1.5331
  858MOL0     H15804   5.398   5.642   3.890 -0.1095  1.8649 -0.1833
  858MOL0     H15805   5.276   5.604   3.765 -0.7163 -0.4519  0.2981
  858MOL0     H15806   5.350   5.881   3.895 -0.6093 -0.7481  2.1594
  858MOL0     H15807   5.186   5.863   3.826  0.6081  2.8989 -1.6953
  858MOL0     H15808   5.284   5.800   3.601 -0.0680  0.0071  0.3075
  858MOL0     H15809   5.336   5.959   3.648 -0.7289 -0.0266 -1.7059
  858MOL0     H15810   4.750   5.240   4.369  2.4895  2.0706 -1.5836
  858MOL0     H15811   4.534   5.160   4.435 -0.4408  0.4127  0.0761
  858MOL0     H15812   3.930   5.159   4.208 -0.0930 -0.5429 -0.4806
  858MOL0     H15813   3.744   5.123   4.355 -0.9660 -0.5894  2.0208
  858MOL0     H15814   2.397   4.586   3.846 -2.0405  2.1349 -0.0384
  858MOL0     H15815   2.187   4.455   3.897 -0.2124  0.7516 -0.7679
  858MOL0     H15816   1.964   4.296   4.297  0.1949  2.8226 -1.8643
  858MOL0     H15817   1.747   4.233   4.379 -0.4523  2.3884 -0.4895
  858MOL0     H15818   1.706   4.005   4.400  0.3787  1.5852 -1.8796
  858MOL0     H15819   1.566   3.903   4.363 -0.4758  0.1367 -0.9573
  858MOL0     H15820   1.539   4.176   4.492  1.2925 -0.9943  1.2917
  858MOL0     H15821   1.549   4.016   4.585  0.5492 -0.0781 -0.2201
  858MOL0     H15822   1.354   3.938   4.495 -2.7604 -0.2741 -2.4868
  858MOL0     H15823   1.344   4.067   4.368  1.7064  1.1851 -1.3288
  858MOL0     H15824   1.326   4.103   4.672  3.8949  3.0081 -0.6740
  858MOL0     H15825   1.326   4.236   4.555  2.7891 -0.5882 -3.0526
  858MOL0     H15826   0.937   4.067   4.554  0.1573  0.9591  1.8771
  858MOL0     H15827   1.655   4.031   4.014  1.0622  0.3133 -0.4580
  858MOL0     H15828   1.890   4.210   3.801 -0.6317 -1.4220 -1.5248
  858MOL0     H15829   1.934   4.048   3.858  0.5998 -0.2193  0.9508
  858MOL0     H15830   1.763   4.096   3.821 -0.9531 -2.0482  1.4977
  859MOL0     O15831   6.264   5.640  10.422 -0.2280 -0.4960 -0.1304
  859MOL0     C15832   6.216   5.531  10.377 -0.4787 -0.2318  0.0740
  859MOL0     O15833   6.298   5.437  10.318  0.1827 -0.5009  0.2142
  859MOL0     C15834   6.433   5.454  10.303 -0.3616 -0.1490 -0.4064
  859MOL0     C15835   6.525   5.439  10.411  0.3569 -0.3253 -0.2511
  859MOL0     C15836   6.654   5.458  10.391  0.1534  0.1887 -0.3747
  859MOL0     C15837   6.705   5.511  10.272 -0.2406 -0.7338 -0.1921
  859MOL0     O15838   6.837   5.545  10.284  0.5702  0.1935 -0.0350
  859MOL0     C15839   6.904   5.566  10.160 -0.1685  0.2376  0.5648
  859MOL0     C15840   7.015   5.468  10.157 -0.3264  0.1800  0.3555
  859MOL0     C15841   7.067   5.454  10.012 -0.2473 -0.0116 -0.7092
  859MOL0     C15842   7.186   5.359   9.992 -0.2858 -0.5463  0.3630
  859MOL0     C15843   7.265   5.386   9.860  0.4896 -0.7235 -0.1680
  859MOL0     C15844   7.378   5.282   9.834 -0.3562  0.5739 -0.2088
  859MOL0     C15845   7.447   5.322   9.701 -0.5448  0.3807 -0.1001
  859MOL0     C15846   7.370   5.272   9.571 -0.1355 -0.3589 -0.4551
  859MOL0     N15847   7.451   5.298   9.448  0.3965  0.7307  1.0207
  859MOL0     C15848   7.576   5.244   9.431 -0.3821 -0.2967  0.1364
  859MOL0     C15849   7.611   5.275   9.305 -0.9004 -0.8407  0.0512
  859MOL0     C15850   7.738   5.240   9.232 -0.8524 -0.0338  0.1293
  859MOL0     C15851   7.838   5.353   9.283 -0.1491 -0.1356 -0.8088
  859MOL0     C15852   7.985   5.317   9.262  0.1573  0.0390 -0.9292
  859MOL0     C15853   8.086   5.433   9.286  1.5024 -0.1299 -0.1273
  859MOL0     O15854   8.215   5.374   9.269 -0.6734  0.2254  0.2216
  859MOL0     C15855   8.329   5.445   9.295 -0.0053  0.2120 -0.3145
  859MOL0     C15856   8.334   5.584   9.281 -0.5580  0.5645 -0.3720
  859MOL0     C15857   8.461   5.649   9.295 -0.9277 -0.2663 -0.0464
  859MOL0     C15858   8.582   5.584   9.317  0.4588 -0.3068  0.7053
  859MOL0     C15859   8.710   5.662   9.320  0.0506 -0.1529  0.5041
  859MOL0     O15860   8.815   5.593   9.369  0.2304  0.5762  0.4973
  859MOL0     C15861   8.934   5.659   9.374 -0.4318 -0.2976  0.5275
  859MOL0     C15862   9.051   5.597   9.335  0.2607 -0.6544 -0.0252
  859MOL0     C15863   9.173   5.666   9.329 -0.5397  0.8065  1.0690
  859MOL0     C15864   9.183   5.796   9.362 -0.0433 -0.1797 -0.1659
  859MOL0     O15865   9.292   5.877   9.355  0.4369 -0.7690  0.0785
  859MOL0     C15866   9.400   5.824   9.281 -0.2562 -0.2802  0.9397
  859MOL0     C15867   9.483   5.772   9.398 -0.0776 -0.1013  0.2023
  859MOL0     C15868   9.585   5.667   9.350  0.5127  0.5530  0.1308
  859MOL0     C15869   9.645   5.599   9.480 -1.3820  0.3089  0.1351
  859MOL0     C15870   9.721   5.474   9.438 -0.3016 -0.5963 -0.1949
  859MOL0     C15871   9.797   5.413   9.559 -0.0045 -0.0453 -0.0260
  859MOL0     C15872   9.857   5.277   9.532  0.7243  0.2902 -0.4209
  859MOL0     C15873   9.917   5.208   9.654  1.2854 -0.1703  0.0152
  859MOL0    Cl15874  10.062   5.290   9.720  0.2636 -0.0770 -0.1474
  859MOL0     C15875   9.068   5.852   9.422 -0.4047 -0.4054 -0.0611
  859MOL0     C15876   8.952   5.788   9.425  0.1421  0.1424 -0.0753
  859MOL0     O15877   8.709   5.778   9.281 -0.6647  0.0093  0.0636
  859MOL0     C15878   8.577   5.448   9.337  0.7810 -0.5169  0.0393
  859MOL0     C15879   8.450   5.379   9.328  0.1910 -0.1723 -0.4154
  859MOL0     N15880   7.507   5.355   9.253 -0.8068  0.5916  0.2656
  859MOL0     N15881   7.410   5.362   9.338  0.1333 -0.2027  0.2478
  859MOL0     C15882   6.619   5.541  10.165  0.2928 -0.8339 -0.2902
  859MOL0     C15883   6.486   5.504  10.180  0.7366  0.6400 -0.1638
  859MOL0     C15884   6.072   5.497  10.392 -0.0683  1.1691  0.2171
  859MOL0     C15885   6.024   5.370  10.338 -0.5641 -0.0969 -1.4743
  859MOL0     C15886   5.891   5.329  10.347  0.5325 -0.0859 -0.0967
  859MOL0     C15887   5.800   5.415  10.410 -0.9850  0.0009 -0.0033
  859MOL0     O15888   5.675   5.372  10.411  0.5084 -0.8480 -0.0480
  859MOL0     C15889   5.577   5.449  10.486  0.0696 -0.4499  0.3156
  859MOL0     C15890   5.446   5.372  10.491 -0.2724  0.1852  0.6113
  859MOL0     C15891   5.387   5.368  10.345 -0.2040  0.2690 -0.2466
  859MOL0     C15892   5.250   5.308  10.347  0.5151 -0.2389 -0.6412
  859MOL0     C15893   5.163   5.387  10.430 -0.7953  0.1447 -0.2811
  859MOL0     C15894   5.104   5.457  10.510 -0.0470  0.7460 -1.2186
  859MOL0     C15895   5.849   5.529  10.473  0.0957  0.8349 -0.0239
  859MOL0     C15896   5.978   5.578  10.464 -0.0166  0.4189 -0.5506
  859MOL0     C15897   6.016   5.709  10.523  0.2377  0.0445 -0.5211
  859MOL0     H15898   6.498   5.408  10.512  1.4268  2.8035  1.1020
  859MOL0     H15899   6.719   5.435  10.474  0.3938 -1.1763 -0.9101
  859MOL0     H15900   6.850   5.550  10.066  0.6665 -0.4776  0.2045
  859MOL0     H15901   6.946   5.667  10.160 -0.4839  0.3703  0.2695
  859MOL0     H15902   6.979   5.368  10.183 -1.4306 -0.4962 -3.1613
  859MOL0     H15903   7.093   5.498  10.228  0.4194  0.6628 -0.6354
  859MOL0     H15904   7.094   5.553   9.974 -1.5157  1.9146  2.8633
  859MOL0     H15905   6.987   5.410   9.951  2.1148 -0.0999 -4.0199
  859MOL0     H15906   7.252   5.377  10.077 -0.8990 -0.6654  0.8684
  859MOL0     H15907   7.153   5.255   9.984  0.7497 -0.7992 -0.9153
  859MOL0     H15908   7.195   5.380   9.775  1.5763  0.5351 -1.1881
  859MOL0     H15909   7.310   5.485   9.865  0.9157 -0.8948 -0.4933
  859MOL0     H15910   7.446   5.292   9.919 -0.0083  3.1265 -0.7008
  859MOL0     H15911   7.348   5.177   9.828 -2.1864  1.0872 -0.6673
  859MOL0     H15912   7.543   5.270   9.706 -1.1907 -0.7101  3.1016
  859MOL0     H15913   7.458   5.431   9.703  0.2541  0.3012  0.3231
  859MOL0     H15914   7.335   5.171   9.590  0.8261 -1.4118 -3.7015
  859MOL0     H15915   7.281   5.334   9.561  0.4107  0.9494  1.8710
  859MOL0     H15916   7.630   5.188   9.507  2.9240 -0.0529 -1.8747
  859MOL0     H15917   7.768   5.140   9.266 -0.0148  0.1155 -0.1529
  859MOL0     H15918   7.734   5.245   9.123  0.6632 -0.5164  0.0349
  859MOL0     H15919   7.807   5.449   9.241 -0.1499 -0.1217 -0.7773
  859MOL0     H15920   7.832   5.367   9.391  3.4644  1.7838 -0.6995
  859MOL0     H15921   7.988   5.295   9.155 -2.2778  0.5796 -1.1751
  859MOL0     H15922   8.025   5.231   9.316  0.8949  0.9317 -0.0264
  859MOL0     H15923   8.079   5.470   9.388  0.9833  0.7584 -0.4778
  859MOL0     H15924   8.074   5.518   9.219  1.5778  2.1591  2.6171
  859MOL0     H15925   8.250   5.641   9.243 -0.5026  0.1862 -1.0708
  859MOL0     H15926   8.474   5.753   9.268  2.6629 -0.4383  0.5152
  859MOL0     H15927   9.045   5.496   9.296 -4.1611 -0.1946 -1.1181
  859MOL0     H15928   9.256   5.604   9.299 -1.4735  0.0360 -0.0511
  859MOL0     H15929   9.373   5.755   9.201 -1.3186  2.2198 -1.0097
  859MOL0     H15930   9.459   5.899   9.227  0.0205 -0.1347  1.4343
  859MOL0     H15931   9.529   5.860   9.444 -0.5985  1.1115 -1.5305
  859MOL0     H15932   9.421   5.734   9.480  1.9346 -1.2757  1.2827
  859MOL0     H15933   9.532   5.584   9.302  3.7985 -2.3943  1.1583
  859MOL0     H15934   9.651   5.706   9.273 -0.6615  0.3181 -1.0323
  859MOL0     H15935   9.575   5.568   9.558  1.4558 -4.2018  1.2538
  859MOL0     H15936   9.715   5.664   9.534 -1.4593  0.7481 -0.2807
  859MOL0     H15937   9.792   5.494   9.358 -0.3293 -0.0240 -0.0870
  859MOL0     H15938   9.649   5.402   9.398 -0.5275 -0.3546 -0.2327
  859MOL0     H15939   9.881   5.476   9.589  1.8083 -1.8239 -1.0759
  859MOL0     H15940   9.730   5.405   9.645 -1.5715  0.1099 -1.1719
  859MOL0     H15941   9.929   5.298   9.452  0.2434  1.5378 -0.5487
  859MOL0     H15942   9.776   5.215   9.492 -0.0437  0.9904  0.0216
  859MOL0     H15943   9.837   5.204   9.729 -3.1399  1.5895 -4.0758
  859MOL0     H15944   9.942   5.104   9.630  0.3330 -0.6062  0.8287
  859MOL0     H15945   9.076   5.952   9.464  1.4681 -1.9590  3.7599
  859MOL0     H15946   8.873   5.843   9.477  1.9313  4.7397 -1.7038
  859MOL0     H15947   8.669   5.395   9.361  2.8175  2.0622 -1.3835
  859MOL0     H15948   8.448   5.271   9.342 -1.2408 -0.3072 -1.4588
  859MOL0     H15949   6.650   5.591  10.075  0.8369 -1.0630 -0.2320
  859MOL0     H15950   6.415   5.513  10.098  0.1235 -2.6523 -0.1433
  859MOL0     H15951   6.088   5.300  10.285  0.1566 -0.4983 -0.1159
  859MOL0     H15952   5.870   5.242  10.286  3.0498  0.8873 -2.5174
  859MOL0     H15953   5.570   5.552  10.451 -0.1058 -0.7392 -0.5079
  859MOL0     H15954   5.618   5.449  10.588  2.1822  1.3809 -0.4569
  859MOL0     H15955   5.375   5.424  10.555 -2.8469 -1.3996 -0.8039
  859MOL0     H15956   5.470   5.271  10.526 -1.4368 -0.0776  0.6728
  859MOL0     H15957   5.460   5.313  10.284  2.5667  0.5329  2.5351
  859MOL0     H15958   5.376   5.471  10.311 -1.2424  0.0495 -0.5837
  859MOL0     H15959   5.208   5.309  10.246  0.1529 -3.8672 -0.6649
  859MOL0     H15960   5.261   5.205  10.382  1.0076  0.5953  1.7917
  859MOL0     H15961   5.060   5.531  10.574  0.2295 -0.4378  0.3905
  859MOL0     H15962   5.787   5.594  10.533 -1.4268  2.5910 -3.2302
  859MOL0     H15963   6.041   5.770  10.436  0.9190  1.1378  0.4040
  859MOL0     H15964   5.937   5.762  10.578  2.2242  1.0868  1.4986
  859MOL0     H15965   6.100   5.701  10.592  0.4740 -0.8521 -0.9073
  860MOL0     O15966   1.396   8.177  10.052  0.0438  0.1837  0.2282
  860MOL0     C15967   1.492   8.174   9.971  0.2125  0.3008  0.2279
  860MOL0     O15968   1.620   8.211   9.998  0.6460 -0.3855 -0.2593
  860MOL0     C15969   1.666   8.239  10.126 -0.1966 -0.2776 -1.2414
  860MOL0     C15970   1.743   8.352  10.139 -0.2314 -0.7255  0.1072
  860MOL0     C15971   1.800   8.383  10.268  0.0441 -0.0728  0.0797
  860MOL0     C15972   1.784   8.283  10.375  0.3484 -0.2026 -0.2666
  860MOL0     O15973   1.823   8.293  10.504  0.0350 -0.7852  0.1531
  860MOL0     C15974   1.936   8.374  10.529 -0.4816 -0.0447 -0.3785
  860MOL0     C15975   2.019   8.334  10.657 -0.5472  0.3589  0.4368
  860MOL0     C15976   2.168   8.386  10.650  0.3099  0.0495  0.1283
  860MOL0     C15977   2.252   8.311  10.758 -0.3989  0.0498 -0.4958
  860MOL0     C15978   2.402   8.361  10.751  0.3459  0.0390 -0.4071
  860MOL0     C15979   2.496   8.275  10.836 -0.7588 -0.2573  0.4180
  860MOL0     C15980   2.640   8.334  10.840 -0.0429 -0.3203 -0.2836
  860MOL0     C15981   2.657   8.482  10.901  0.4572  0.5530 -0.3040
  860MOL0     N15982   2.785   8.498  10.968 -0.2534 -0.5058  0.2015
  860MOL0     C15983   2.864   8.604  10.979  0.3312 -0.7555 -0.3722
  860MOL0     C15984   2.955   8.573  11.071 -0.1854  1.0770 -0.0808
  860MOL0     C15985   3.050   8.662  11.133 -0.4260  0.6275 -0.2639
  860MOL0     C15986   3.196   8.610  11.110 -0.3537 -0.3806  0.4332
  860MOL0     C15987   3.248   8.514  11.215 -0.1168  0.3636  0.7053
  860MOL0     C15988   3.401   8.507  11.231  1.2458 -0.6223 -0.6632
  860MOL0     O15989   3.469   8.453  11.123 -0.1287  0.4741  0.5450
  860MOL0     C15990   3.604   8.465  11.109 -0.0146 -0.1169 -0.1370
  860MOL0     C15991   3.660   8.523  10.993  0.6376  0.0626  0.1410
  860MOL0     C15992   3.791   8.532  10.971 -0.8414 -0.8318 -0.5734
  860MOL0     C15993   3.881   8.491  11.066 -0.8178 -0.2042  0.0530
  860MOL0     C15994   4.032   8.478  11.043  1.0286 -0.3054  0.0353
  860MOL0     O15995   4.103   8.426  11.144 -0.1043  0.5686 -0.2583
  860MOL0     C15996   4.234   8.414  11.131  0.2988 -0.7568 -0.2784
  860MOL0     C15997   4.306   8.494  11.226  0.2906  0.5205 -0.2098
  860MOL0     C15998   4.441   8.496  11.222  0.4254 -0.5120 -0.5912
  860MOL0     C15999   4.512   8.422  11.132  0.5850 -0.2278 -0.4033
  860MOL0     O16000   4.648   8.430  11.120  0.2502  0.2860 -0.1052
  860MOL0     C16001   4.728   8.474  11.231  0.3472  0.9459 -0.6638
  860MOL0     C16002   4.857   8.394  11.210  0.0721  0.0028  0.1657
  860MOL0     C16003   4.944   8.408  11.324 -0.2357  0.3449  0.0389
  860MOL0     C16004   5.076   8.333  11.291 -0.2310  0.0667 -1.7869
  860MOL0     C16005   5.212   8.372  11.351 -0.3224 -0.4792  0.2810
  860MOL0     C16006   5.334   8.297  11.298  0.5230 -0.1685  0.0388
  860MOL0     C16007   5.358   8.152  11.350  0.2748  0.0933 -0.0813
  860MOL0     C16008   5.401   8.143  11.489 -0.6611  0.1240  0.4174
  860MOL0    Cl16009   5.404   7.969  11.552 -0.1700 -0.0702  0.4174
  860MOL0     C16010   4.438   8.346  11.040 -0.0818  0.2587 -0.7175
  860MOL0     C16011   4.302   8.345  11.040 -0.1470 -0.3377  0.0520
  860MOL0     O16012   4.074   8.515  10.931 -0.6121  0.2176 -0.0090
  860MOL0     C16013   3.840   8.439  11.191  0.6639 -0.5937  0.8839
  860MOL0     C16014   3.697   8.430  11.208  0.8835 -0.3403  0.0281
  860MOL0     N16015   2.937   8.438  11.103  0.3342  0.0877 -0.3206
  860MOL0     N16016   2.833   8.399  11.044 -0.9435  0.5674  0.2111
  860MOL0     C16017   1.709   8.171  10.361  0.8342  0.1209  0.4369
  860MOL0     C16018   1.650   8.150  10.234  1.1472  0.1064 -0.2849
  860MOL0     C16019   1.462   8.113   9.829 -1.0598  0.6748 -1.2609
  860MOL0     C16020   1.357   8.014   9.828 -0.1587 -0.1788  0.3155
  860MOL0     C16021   1.325   7.945   9.711  0.6959  0.2769  0.3181
  860MOL0     C16022   1.394   7.971   9.594  0.4018 -0.3261  0.2584
  860MOL0     O16023   1.361   7.917   9.475  0.0828  0.2194 -0.1824
  860MOL0     C16024   1.232   7.867   9.455 -0.0241 -0.1110  0.1953
  860MOL0     C16025   1.214   7.837   9.307  1.0900 -0.2003  0.0858
  860MOL0     C16026   1.268   7.701   9.274 -0.1856  0.7533 -0.6716
  860MOL0     C16027   1.200   7.656   9.147  0.5695 -0.6937 -0.1198
  860MOL0     C16028   1.268   7.552   9.065  0.1208  0.6008 -0.6201
  860MOL0     C16029   1.329   7.462   9.011 -0.1923 -0.2403 -0.0225
  860MOL0     C16030   1.499   8.061   9.594 -0.1691  0.0693 -0.5895
  860MOL0     C16031   1.539   8.131   9.711  0.4045 -0.0464  0.5302
  860MOL0     C16032   1.651   8.233   9.700 -0.1437 -0.6362  0.0239
  860MOL0     H16033   1.745   8.420  10.054 -1.6708  0.2485  0.7899
  860MOL0     H16034   1.845   8.480  10.286  1.3109 -0.8004  1.0061
  860MOL0     H16035   2.004   8.369  10.444 -1.6517 -3.9039 -1.2600
  860MOL0     H16036   1.905   8.479  10.531 -3.2824 -0.7953  1.0031
  860MOL0     H16037   2.027   8.225  10.656  1.8756  0.4750 -1.1351
  860MOL0     H16038   1.967   8.369  10.747 -1.3206 -3.0612  1.4354
  860MOL0     H16039   2.174   8.493  10.673 -1.9629 -0.0188  1.2487
  860MOL0     H16040   2.202   8.377  10.547  0.2296 -1.1939  0.1955
  860MOL0     H16041   2.214   8.332  10.858 -0.2201  0.5914 -0.5369
  860MOL0     H16042   2.239   8.204  10.745 -1.2155 -0.5292  3.8498
  860MOL0     H16043   2.437   8.343  10.649  3.8013 -0.3472  0.7503
  860MOL0     H16044   2.411   8.469  10.765  0.0094  0.2058 -1.3678
  860MOL0     H16045   2.459   8.270  10.939 -1.6027 -0.4143  0.1196
  860MOL0     H16046   2.492   8.173  10.796  0.2389 -0.3227  0.4583
  860MOL0     H16047   2.681   8.339  10.738  0.2605  2.8855 -0.1094
  860MOL0     H16048   2.705   8.266  10.895  2.7709  2.2379 -0.1313
  860MOL0     H16049   2.639   8.554  10.821 -1.5042  1.2855  0.7199
  860MOL0     H16050   2.577   8.486  10.975  0.3889  0.2364 -0.3585
  860MOL0     H16051   2.854   8.706  10.943 -1.3456 -0.2919  1.1843
  860MOL0     H16052   3.035   8.764  11.097 -1.8729  1.4378  2.3991
  860MOL0     H16053   3.030   8.656  11.240  0.3149 -2.1888 -0.2012
  860MOL0     H16054   3.208   8.557  11.015 -0.5961 -0.2395  0.3232
  860MOL0     H16055   3.260   8.699  11.117  1.6371 -1.5725 -1.5177
  860MOL0     H16056   3.211   8.413  11.197 -0.0855  0.0313  2.3459
  860MOL0     H16057   3.196   8.549  11.305 -2.3807 -1.1980  0.0820
  860MOL0     H16058   3.411   8.459  11.329  0.7722  0.8707  0.1628
  860MOL0     H16059   3.428   8.612  11.243 -0.7122 -0.1976  0.5092
  860MOL0     H16060   3.589   8.545  10.914  0.9321 -0.7677 -0.3681
  860MOL0     H16061   3.834   8.567  10.877 -2.3699 -0.1082 -1.0339
  860MOL0     H16062   4.250   8.549  11.301 -2.1719 -2.2924  0.2031
  860MOL0     H16063   4.501   8.563  11.283 -2.0764  2.3156 -1.0282
  860MOL0     H16064   4.733   8.583  11.240 -0.2311  0.7903  2.9145
  860MOL0     H16065   4.696   8.428  11.325  2.6763  0.9360  0.1910
  860MOL0     H16066   4.825   8.293  11.186  0.0032  0.4396 -1.7044
  860MOL0     H16067   4.915   8.425  11.123  0.5952  0.6487  0.7231
  860MOL0     H16068   4.941   8.511  11.362 -1.1639  1.2849 -2.3530
  860MOL0     H16069   4.907   8.351  11.409  3.7960  0.7273  2.2871
  860MOL0     H16070   5.090   8.337  11.182  1.4446  2.6661 -1.5439
  860MOL0     H16071   5.075   8.226  11.316  1.4134  0.0654 -1.6381
  860MOL0     H16072   5.214   8.360  11.460 -1.2661 -0.0423  0.3558
  860MOL0     H16073   5.224   8.478  11.329 -2.4244 -0.3276 -0.2972
  860MOL0     H16074   5.342   8.285  11.190 -1.7612 -0.6364 -0.1142
  860MOL0     H16075   5.420   8.354  11.335 -0.7625  0.7932  1.6693
  860MOL0     H16076   5.433   8.105  11.286 -1.4785 -1.7995 -0.8468
  860MOL0     H16077   5.268   8.090  11.342 -0.3452  0.9063  0.4367
  860MOL0     H16078   5.500   8.190  11.492 -1.6707  2.4363  0.2061
  860MOL0     H16079   5.332   8.204  11.549 -1.6731 -1.3602  0.8216
  860MOL0     H16080   4.507   8.292  10.977  1.8148 -1.8463  2.8187
  860MOL0     H16081   4.247   8.299  10.958 -1.4216  0.6246  0.3376
  860MOL0     H16082   3.907   8.396  11.265  0.8123  1.5147  2.0384
  860MOL0     H16083   3.661   8.380  11.297 -0.2261  0.7796  0.2411
  860MOL0     H16084   1.695   8.096  10.439 -1.0499  2.7542  2.8206
  860MOL0     H16085   1.581   8.069  10.215  0.1275  1.0421 -0.6913
  860MOL0     H16086   1.319   7.974   9.921  2.7922 -0.4083  1.5226
  860MOL0     H16087   1.238   7.884   9.731 -1.3018  3.1379  0.9278
  860MOL0     H16088   1.159   7.937   9.496 -0.8763 -0.6044 -0.4367
  860MOL0     H16089   1.224   7.776   9.515 -1.1743 -0.2437 -0.1457
  860MOL0     H16090   1.249   7.917   9.241  0.7959 -1.7345 -2.0207
  860MOL0     H16091   1.105   7.835   9.298  1.0229 -0.1516  0.7746
  860MOL0     H16092   1.243   7.631   9.355  2.3910 -0.4580 -0.8221
  860MOL0     H16093   1.377   7.700   9.265 -0.0940 -1.5815 -0.0776
  860MOL0     H16094   1.097   7.624   9.161  1.2352 -2.1260  2.2099
  860MOL0     H16095   1.194   7.748   9.088  1.7201 -1.6122 -1.7711
  860MOL0     H16096   1.376   7.377   8.967  2.9763 -0.0033  2.5302
  860MOL0     H16097   1.550   8.087   9.502 -0.6277 -1.3204 -1.2623
  860MOL0     H16098   1.650   8.277   9.600  0.6611 -0.5282  0.0515
  860MOL0     H16099   1.641   8.311   9.776 -0.4989 -1.7197  1.1226
  860MOL0     H16100   1.742   8.175   9.721  0.4504  1.1064  2.7573
  861MOL0     O16101   8.130   5.512   2.305  0.1348 -0.0097  0.2948
  861MOL0     C16102   8.063   5.596   2.371  0.4591  0.4224 -0.2867
  861MOL0     O16103   8.109   5.711   2.427 -0.6736 -0.1579 -0.5252
  861MOL0     C16104   8.231   5.764   2.409  0.2822  0.2867  0.5019
  861MOL0     C16105   8.305   5.745   2.288 -0.2789 -0.4463 -0.6134
  861MOL0     C16106   8.436   5.786   2.288  0.6655 -0.5813 -0.8789
  861MOL0     C16107   8.497   5.856   2.401  0.5809 -0.0204 -0.0842
  861MOL0     O16108   8.623   5.913   2.399 -0.6754  0.6424 -0.2182
  861MOL0     C16109   8.712   5.838   2.319 -0.2131  0.4074 -0.4882
  861MOL0     C16110   8.860   5.880   2.338 -0.0275 -0.0637 -0.2624
  861MOL0     C16111   8.884   6.013   2.257  0.1618  0.7339 -0.0874
  861MOL0     C16112   9.033   6.037   2.276 -0.0952 -1.2690 -0.7505
  861MOL0     C16113   9.080   6.156   2.191 -0.0933 -0.2133  0.0780
  861MOL0     C16114   9.113   6.098   2.051 -0.4578  0.0820  0.1563
  861MOL0     C16115   9.192   6.206   1.965 -0.5907 -0.2778  0.0937
  861MOL0     C16116   9.225   6.127   1.832  0.9383 -0.2148 -0.3458
  861MOL0     N16117   9.264   6.233   1.730  0.5004 -0.0370  0.4357
  861MOL0     C16118   9.396   6.276   1.713  0.5498  0.0617 -0.0465
  861MOL0     C16119   9.375   6.357   1.598 -0.0407  0.0738 -0.6574
  861MOL0     C16120   9.482   6.447   1.548 -0.0006  0.5280  0.3129
  861MOL0     C16121   9.571   6.366   1.453  0.1123 -1.6590  0.8093
  861MOL0     C16122   9.629   6.462   1.343 -0.4665  0.0221  0.5341
  861MOL0     C16123   9.733   6.562   1.396 -0.3465 -0.0617  1.1171
  861MOL0     O16124   9.823   6.492   1.487  0.2369  0.1692 -0.5486
  861MOL0     C16125   9.954   6.515   1.499  0.1665 -0.4653 -0.8484
  861MOL0     C16126  10.013   6.640   1.463  0.3746  0.0402 -0.2748
  861MOL0     C16127  10.153   6.655   1.481 -0.4634 -0.2915  0.1302
  861MOL0     C16128  10.234   6.544   1.513  0.2509  0.1046  0.4928
  861MOL0     C16129  10.382   6.562   1.535  1.1933  0.1445  0.1791
  861MOL0     O16130  10.455   6.447   1.561  0.2177 -0.4695  0.7284
  861MOL0     C16131  10.592   6.471   1.562  0.5278 -0.2457  0.9370
  861MOL0     C16132  10.679   6.503   1.445 -0.8122 -0.7460 -1.2569
  861MOL0     C16133  10.812   6.534   1.459  0.1742  0.1184  0.2744
  861MOL0     C16134  10.873   6.524   1.591  0.1331  0.0889  0.3010
  861MOL0     O16135  11.005   6.559   1.605 -0.1751  0.0265  0.4116
  861MOL0     C16136  11.089   6.453   1.565 -0.2985 -0.3943  0.1893
  861MOL0     C16137  11.225   6.492   1.534  0.7992 -0.4144 -0.4855
  861MOL0     C16138  11.228   6.586   1.411 -0.5973 -0.9102 -0.6707
  861MOL0     C16139  11.371   6.646   1.396  0.5867  0.5807 -0.0556
  861MOL0     C16140  11.379   6.783   1.338 -0.0052  0.0846 -0.1034
  861MOL0     C16141  11.522   6.845   1.334  0.3748  0.1443  0.3201
  861MOL0     C16142  11.524   6.992   1.283  0.2678 -0.1736 -0.5300
  861MOL0     C16143  11.669   7.051   1.306  0.2264  0.2332 -1.1353
  861MOL0    Cl16144  11.765   7.001   1.175 -0.2115 -0.2011  0.6823
  861MOL0     C16145  10.793   6.487   1.700  0.1086 -1.0748  0.2752
  861MOL0     C16146  10.656   6.452   1.680 -0.0230  0.2432 -0.0991
  861MOL0     O16147  10.426   6.680   1.524 -0.5316  0.0187  0.4567
  861MOL0     C16148  10.176   6.423   1.551  0.6965  0.0154 -0.1624
  861MOL0     C16149  10.033   6.409   1.543  0.3592  0.1586 -0.1608
  861MOL0     N16150   9.245   6.368   1.558  0.1753  0.2008 -0.5516
  861MOL0     N16151   9.183   6.289   1.637  0.1382 -0.2994 -0.1336
  861MOL0     C16152   8.410   5.889   2.506  0.2027  0.4200  0.0960
  861MOL0     C16153   8.284   5.834   2.519  0.0327  0.6265  0.7116
  861MOL0     C16154   7.918   5.564   2.391  0.3874 -0.1332  0.1251
  861MOL0     C16155   7.826   5.673   2.380 -0.2919 -0.5303  0.4593
  861MOL0     C16156   7.687   5.660   2.412  0.7404 -0.1006  0.3384
  861MOL0     C16157   7.635   5.537   2.460  0.0906  0.8414 -0.5018
  861MOL0     O16158   7.508   5.514   2.491 -0.2416  0.6339  0.3747
  861MOL0     C16159   7.407   5.595   2.436 -0.4209 -0.7055  0.6929
  861MOL0     C16160   7.279   5.546   2.489 -0.3874 -1.0586  0.5127
  861MOL0     C16161   7.241   5.407   2.443  0.3502  0.1938  0.0627
  861MOL0     C16162   7.134   5.338   2.521  0.4440  0.0367  0.5211
  861MOL0     C16163   7.109   5.212   2.452  0.1758  0.1077  0.0134
  861MOL0     C16164   7.064   5.109   2.405  0.4096 -0.1206 -0.0853
  861MOL0     C16165   7.731   5.439   2.476 -0.1992  0.8168 -0.1773
  861MOL0     C16166   7.871   5.450   2.461  0.1882 -0.2148  0.6458
  861MOL0     C16167   7.960   5.346   2.516  0.1581  0.7880 -0.0064
  861MOL0     H16168   8.256   5.695   2.205  2.1410 -1.9403 -1.2064
  861MOL0     H16169   8.487   5.752   2.198  0.1056 -1.1421 -0.9968
  861MOL0     H16170   8.704   5.736   2.358  1.2049  1.0616  1.6641
  861MOL0     H16171   8.682   5.849   2.214  0.9508 -2.9380 -1.3062
  861MOL0     H16172   8.917   5.801   2.288 -0.7947  0.5534 -2.2152
  861MOL0     H16173   8.889   5.888   2.443  0.0677 -1.2161 -0.1935
  861MOL0     H16174   8.820   6.085   2.307  0.7387 -0.2956  2.2801
  861MOL0     H16175   8.857   6.002   2.151 -3.8322 -2.9466  1.0245
  861MOL0     H16176   9.040   6.069   2.380 -1.7100  1.6208 -1.4096
  861MOL0     H16177   9.095   5.949   2.257 -0.7037 -2.0170  0.6254
  861MOL0     H16178   9.003   6.234   2.184 -0.5336 -0.6003  0.5222
  861MOL0     H16179   9.173   6.193   2.236 -0.0142  0.2715 -0.4854
  861MOL0     H16180   9.160   6.000   2.060 -0.0092  0.4376  2.3615
  861MOL0     H16181   9.015   6.079   2.007 -1.9889  1.3064  2.7977
  861MOL0     H16182   9.285   6.230   2.017 -0.7718 -0.8726  0.6992
  861MOL0     H16183   9.134   6.298   1.948 -0.1331  0.2941  1.4951
  861MOL0     H16184   9.309   6.058   1.835  1.9013  0.9454  1.5110
  861MOL0     H16185   9.135   6.081   1.790  0.5421  0.3677 -0.1471
  861MOL0     H16186   9.484   6.259   1.775  2.0006  0.2981 -1.9368
  861MOL0     H16187   9.439   6.531   1.493 -0.9417  0.3761  0.8022
  861MOL0     H16188   9.550   6.491   1.622 -1.6608  0.9265  1.6826
  861MOL0     H16189   9.659   6.319   1.495  0.6465  0.0405  1.6892
  861MOL0     H16190   9.504   6.291   1.410 -2.9108  1.2506 -0.0887
  861MOL0     H16191   9.550   6.518   1.291  1.8304  2.5951 -0.4803
  861MOL0     H16192   9.671   6.402   1.262 -0.9259  0.1347  0.2061
  861MOL0     H16193   9.676   6.646   1.436 -2.6895 -0.7424 -0.5628
  861MOL0     H16194   9.788   6.605   1.312 -2.8418 -1.7437 -1.6096
  861MOL0     H16195   9.957   6.718   1.413  0.1312  0.1284  0.1368
  861MOL0     H16196  10.194   6.755   1.469 -1.5726  0.3423  1.4493
  861MOL0     H16197  10.640   6.523   1.346  0.0832  0.9014 -1.3289
  861MOL0     H16198  10.862   6.578   1.373 -0.1288  3.3021  1.5623
  861MOL0     H16199  11.091   6.379   1.646  0.0688  1.8943  2.3773
  861MOL0     H16200  11.050   6.411   1.472 -0.4475  0.3227 -0.0770
  861MOL0     H16201  11.260   6.547   1.622  2.8192  1.6956 -2.4466
  861MOL0     H16202  11.290   6.404   1.530 -1.3876 -2.4030  2.9657
  861MOL0     H16203  11.196   6.527   1.324 -1.0288 -3.3942  1.0517
  861MOL0     H16204  11.155   6.665   1.429  0.2394 -0.2292 -0.1445
  861MOL0     H16205  11.421   6.571   1.334 -0.0136  0.0514  0.1002
  861MOL0     H16206  11.415   6.653   1.496  0.7923 -1.3409  0.0246
  861MOL0     H16207  11.303   6.841   1.391 -1.7865 -0.4607 -1.9289
  861MOL0     H16208  11.337   6.770   1.238 -0.6851 -2.0439  0.3956
  861MOL0     H16209  11.563   6.839   1.436  0.7650  3.1261  0.4389
  861MOL0     H16210  11.580   6.783   1.266 -2.7013 -0.2684 -2.1657
  861MOL0     H16211  11.459   7.053   1.347  1.4126  2.1419 -1.4662
  861MOL0     H16212  11.494   6.998   1.178 -0.3160  0.6056 -0.3323
  861MOL0     H16213  11.669   7.160   1.298  2.8444  0.3355 -0.5972
  861MOL0     H16214  11.704   7.018   1.404 -1.3037 -0.0698 -0.6716
  861MOL0     H16215  10.844   6.478   1.795 -0.2268 -2.0723  0.3774
  861MOL0     H16216  10.592   6.425   1.763 -2.2188  4.8006  0.0308
  861MOL0     H16217  10.235   6.337   1.580 -0.7024 -0.2967  1.9378
  861MOL0     H16218   9.982   6.316   1.564 -0.6241  0.9615  1.2135
  861MOL0     H16219   8.453   5.950   2.586  0.6808  0.1826  0.0286
  861MOL0     H16220   8.232   5.843   2.614  1.5677 -0.6023  1.7145
  861MOL0     H16221   7.874   5.762   2.340 -3.2108  1.1960  0.5101
  861MOL0     H16222   7.631   5.752   2.399  1.6807  0.4185 -0.1664
  861MOL0     H16223   7.411   5.608   2.327 -1.8105  2.5909  0.9276
  861MOL0     H16224   7.425   5.696   2.474  2.1120  0.0199 -2.0717
  861MOL0     H16225   7.202   5.614   2.451 -1.1982 -1.5434  1.2569
  861MOL0     H16226   7.282   5.558   2.597  1.1900 -0.3939  0.4238
  861MOL0     H16227   7.327   5.339   2.442  0.6702  0.5735  1.0914
  861MOL0     H16228   7.197   5.409   2.342 -1.6338 -1.5483  0.8219
  861MOL0     H16229   7.160   5.325   2.626  2.0496 -1.6203 -0.0243
  861MOL0     H16230   7.039   5.391   2.511  1.3237  1.2283 -3.1777
  861MOL0     H16231   7.020   5.016   2.375 -0.5195  0.2613  0.0803
  861MOL0     H16232   7.701   5.340   2.509  0.3285  0.7950  0.2640
  861MOL0     H16233   8.064   5.381   2.515 -0.6831  3.5896  0.2695
  861MOL0     H16234   7.928   5.323   2.618 -0.1915 -1.8268 -0.6370
  861MOL0     H16235   7.949   5.250   2.464  1.2596 -0.2050  1.5331
  862MOL0     O16236   7.304   7.936   5.417 -0.1320 -0.1196  0.1422
  862MOL0     C16237   7.187   7.950   5.442  0.0591 -0.0492  0.3724
  862MOL0     O16238   7.141   7.964   5.572 -0.2922 -0.2850  0.1238
  862MOL0     C16239   7.218   7.923   5.677  0.9602  0.6551  0.4054
  862MOL0     C16240   7.241   7.794   5.699  0.2794  0.0820 -0.4179
  862MOL0     C16241   7.315   7.762   5.813  0.0492  0.0440 -0.6982
  862MOL0     C16242   7.381   7.854   5.890  0.9740 -0.1642  0.2179
  862MOL0     O16243   7.453   7.811   5.988 -0.0000 -0.0321 -0.0101
  862MOL0     C16244   7.574   7.741   5.949  0.7303  0.9695 -0.6164
  862MOL0     C16245   7.628   7.705   6.086  0.2696  0.4724 -0.0547
  862MOL0     C16246   7.756   7.619   6.080 -1.0155  0.4185  0.1296
  862MOL0     C16247   7.781   7.532   6.213  0.2082 -0.6079  1.1490
  862MOL0     C16248   7.907   7.447   6.192 -0.2846  0.8001 -0.5478
  862MOL0     C16249   8.030   7.509   6.255  0.2761 -0.0716  0.3691
  862MOL0     C16250   8.168   7.459   6.219 -0.1427 -0.6443 -0.0803
  862MOL0     C16251   8.190   7.316   6.268 -0.2876 -0.2356 -0.2497
  862MOL0     N16252   8.324   7.268   6.247 -0.6723  0.0915  0.0608
  862MOL0     C16253   8.430   7.246   6.336 -0.4786 -0.8917 -0.3238
  862MOL0     C16254   8.535   7.210   6.263 -0.5666  0.1695  0.5931
  862MOL0     C16255   8.672   7.162   6.325  0.3164 -0.1830 -0.0236
  862MOL0     C16256   8.782   7.250   6.253 -0.3862  0.1224 -0.4309
  862MOL0     C16257   8.905   7.267   6.330 -0.5077 -1.2030 -0.6648
  862MOL0     C16258   9.011   7.360   6.273  0.2049 -0.1358 -0.2167
  862MOL0     O16259   8.989   7.494   6.313  0.2133 -0.2431  0.5182
  862MOL0     C16260   9.075   7.590   6.251 -0.0106  0.8443  0.1802
  862MOL0     C16261   9.034   7.728   6.252  0.0428  0.7439 -0.2157
  862MOL0     C16262   9.119   7.821   6.195 -0.2325 -0.1825 -0.9045
  862MOL0     C16263   9.246   7.796   6.143  0.0885 -0.3831  0.6676
  862MOL0     C16264   9.342   7.893   6.096 -0.9469 -0.3497  0.2935
  862MOL0     O16265   9.479   7.859   6.115  0.2686 -0.6210 -0.0922
  862MOL0     C16266   9.561   7.938   6.042 -0.3020 -0.1178  0.1772
  862MOL0     C16267   9.612   8.053   6.094 -0.8022 -0.2113  0.2275
  862MOL0     C16268   9.701   8.134   6.029 -0.2273  0.7441  0.6252
  862MOL0     C16269   9.758   8.078   5.910 -0.5919 -0.0947  0.6479
  862MOL0     O16270   9.848   8.149   5.835  0.3693 -0.6958 -0.1344
  862MOL0     C16271   9.912   8.102   5.717 -0.0654 -0.2142  0.3991
  862MOL0     C16272  10.004   8.211   5.670 -0.6964 -0.2197  0.4580
  862MOL0     C16273  10.081   8.158   5.552 -0.1124 -0.1857 -0.0698
  862MOL0     C16274  10.183   8.248   5.495  0.2271 -0.0909 -0.0094
  862MOL0     C16275  10.238   8.203   5.367  0.0283  0.6155 -0.2417
  862MOL0     C16276  10.332   8.314   5.318 -0.6596  0.6985  0.2745
  862MOL0     C16277  10.347   8.308   5.166  0.3591  0.3339  0.0746
  862MOL0     C16278  10.442   8.417   5.115  0.1609  0.2087 -0.5181
  862MOL0    Cl16279  10.413   8.433   4.940  0.2777 -0.3059  0.6074
  862MOL0     C16280   9.712   7.959   5.859  0.7050  0.6768  0.6399
  862MOL0     C16281   9.614   7.888   5.925  0.0724  0.1477 -0.3171
  862MOL0     O16282   9.303   8.005   6.077 -0.0371  0.1666 -0.6140
  862MOL0     C16283   9.276   7.658   6.131 -0.3227  0.4241  0.1588
  862MOL0     C16284   9.189   7.554   6.175  0.9837  0.0346 -1.1512
  862MOL0     N16285   8.503   7.211   6.131  0.4104  0.1335  0.1797
  862MOL0     N16286   8.371   7.245   6.119 -0.7324  0.3060  0.0763
  862MOL0     C16287   7.378   7.993   5.857  0.6923  0.0983  0.4117
  862MOL0     C16288   7.280   8.025   5.759  0.3100  0.0465 -0.2574
  862MOL0     C16289   7.092   7.970   5.330 -0.5150 -0.6885  0.7840
  862MOL0     C16290   7.161   7.987   5.208  1.1668 -1.0861 -0.1143
  862MOL0     C16291   7.091   8.019   5.092 -0.5876 -0.1775  0.1478
  862MOL0     C16292   6.954   8.021   5.098 -0.2110  0.6053  1.1165
  862MOL0     O16293   6.881   8.022   4.982  0.0650  0.0386  0.0937
  862MOL0     C16294   6.941   8.024   4.851 -0.3691  0.3384  0.5558
  862MOL0     C16295   6.835   7.987   4.749  0.3382  0.0192 -0.4830
  862MOL0     C16296   6.733   8.097   4.732  0.0058 -0.5513  1.1089
  862MOL0     C16297   6.635   8.060   4.618  1.1771 -0.4658 -0.4546
  862MOL0     C16298   6.562   7.934   4.644 -0.7237  0.1937  0.5717
  862MOL0     C16299   6.518   7.823   4.663  0.0623 -0.1802  0.0186
  862MOL0     C16300   6.882   8.006   5.215 -0.2503 -0.4807 -0.0059
  862MOL0     C16301   6.954   7.984   5.338  0.0393  0.4143 -0.2221
  862MOL0     C16302   6.880   7.965   5.476 -0.8727 -0.2234 -0.2867
  862MOL0     H16303   7.184   7.726   5.636  0.2316  1.3845 -1.8467
  862MOL0     H16304   7.318   7.658   5.844  0.3629  0.6720  1.5282
  862MOL0     H16305   7.545   7.651   5.893  2.2049 -0.2818  0.5476
  862MOL0     H16306   7.654   7.790   5.894  1.1142 -0.6036 -1.5260
  862MOL0     H16307   7.547   7.649   6.133  0.9685  0.8566  1.6700
  862MOL0     H16308   7.640   7.803   6.134 -0.4196  0.9733 -0.8589
  862MOL0     H16309   7.846   7.673   6.049 -0.3391  0.2930  1.7899
  862MOL0     H16310   7.745   7.544   6.001  0.8518 -1.1614  1.2701
  862MOL0     H16311   7.789   7.596   6.302  3.0519 -1.2935  1.4697
  862MOL0     H16312   7.686   7.479   6.228 -1.2283  1.4284 -0.1461
  862MOL0     H16313   7.899   7.346   6.233 -1.3587  1.5122  1.1188
  862MOL0     H16314   7.935   7.436   6.087 -1.0150  0.8503 -0.7542
  862MOL0     H16315   8.020   7.618   6.252  0.0182  0.0502  3.1286
  862MOL0     H16316   8.022   7.488   6.362  0.1782 -1.0687  0.1730
  862MOL0     H16317   8.237   7.530   6.266 -2.2667  1.5253 -0.0073
  862MOL0     H16318   8.180   7.457   6.111  0.4028 -1.4348 -0.0115
  862MOL0     H16319   8.170   7.315   6.376  1.2758  1.9358  0.1476
  862MOL0     H16320   8.130   7.240   6.218  0.0008 -0.0600 -0.8649
  862MOL0     H16321   8.433   7.265   6.443  1.7323 -2.2226 -0.0752
  862MOL0     H16322   8.668   7.182   6.433 -1.3614 -2.7346  0.4717
  862MOL0     H16323   8.693   7.055   6.310  0.8693 -0.6190  3.1693
  862MOL0     H16324   8.807   7.205   6.157  0.3166 -1.6969  0.5588
  862MOL0     H16325   8.746   7.353   6.245 -0.8971 -0.0393 -0.2798
  862MOL0     H16326   8.947   7.167   6.349 -3.0258 -2.5361 -1.7469
  862MOL0     H16327   8.882   7.320   6.423 -2.9338 -1.3526 -1.1359
  862MOL0     H16328   9.024   7.343   6.166  0.1167 -1.8675  0.0173
  862MOL0     H16329   9.103   7.339   6.328 -0.0659  3.0735  1.7057
  862MOL0     H16330   8.943   7.764   6.298 -0.1557 -0.9050  0.7475
  862MOL0     H16331   9.093   7.927   6.195 -0.0566 -0.0910 -3.2273
  862MOL0     H16332   9.568   8.088   6.187 -0.5993  1.0182 -0.1187
  862MOL0     H16333   9.735   8.232   6.060  1.8620  1.6624 -3.7987
  862MOL0     H16334   9.970   8.012   5.740  2.5343  2.0426  3.6880
  862MOL0     H16335   9.834   8.080   5.644  1.4139  1.6091 -1.8673
  862MOL0     H16336   9.945   8.298   5.640 -1.0969 -0.9644 -1.0439
  862MOL0     H16337  10.077   8.234   5.748 -0.9218 -0.8816  0.8819
  862MOL0     H16338  10.132   8.065   5.579  1.2384  0.8815  1.1912
  862MOL0     H16339   9.997   8.135   5.486 -0.6313  2.8753 -0.5989
  862MOL0     H16340  10.260   8.254   5.573 -0.9359 -0.8304  1.2543
  862MOL0     H16341  10.150   8.351   5.477  1.6529  0.5007  0.5933
  862MOL0     H16342  10.155   8.177   5.300 -0.9322 -0.0313  1.1503
  862MOL0     H16343  10.303   8.117   5.387  2.2466  1.6019 -2.5877
  862MOL0     H16344  10.305   8.409   5.365  2.7587  1.4544  1.0217
  862MOL0     H16345  10.433   8.299   5.359  0.1850  0.4654 -1.7885
  862MOL0     H16346  10.249   8.308   5.118 -0.4249 -1.3820  1.5626
  862MOL0     H16347  10.383   8.210   5.136  3.9777  0.8179  2.2859
  862MOL0     H16348  10.417   8.515   5.156  0.7928  0.8059 -1.5247
  862MOL0     H16349  10.551   8.407   5.123 -0.0652 -1.2427  1.8058
  862MOL0     H16350   9.747   7.921   5.763  2.5758  0.4742  1.3569
  862MOL0     H16351   9.567   7.798   5.887  3.0471 -0.1501 -3.7515
  862MOL0     H16352   9.366   7.624   6.082 -0.4334 -0.2689  0.4240
  862MOL0     H16353   9.232   7.455   6.178  3.4292  1.0178  1.4541
  862MOL0     H16354   7.436   8.072   5.903  0.8188 -0.4492  1.2193
  862MOL0     H16355   7.260   8.130   5.742  0.0323 -0.0915 -0.8300
  862MOL0     H16356   7.266   8.012   5.198  0.4207  2.8660  0.2433
  862MOL0     H16357   7.142   8.034   4.998 -0.8200 -2.7616 -0.4792
  862MOL0     H16358   7.024   7.953   4.843  1.7468  2.7972 -1.1741
  862MOL0     H16359   6.984   8.122   4.832  0.7494 -0.4073 -0.9816
  862MOL0     H16360   6.784   7.897   4.785  1.2233  0.6381  2.6184
  862MOL0     H16361   6.889   7.962   4.657  1.8120 -1.1451  0.6428
  862MOL0     H16362   6.778   8.194   4.707  0.6351 -0.5814  2.1131
  862MOL0     H16363   6.675   8.107   4.824 -0.8951 -0.7409  0.5747
  862MOL0     H16364   6.562   8.142   4.616  0.0748 -1.4234 -0.6272
  862MOL0     H16365   6.688   8.056   4.523  0.1639 -0.5286 -1.0336
  862MOL0     H16366   6.460   7.732   4.665  0.1817 -0.6335 -4.9166
  862MOL0     H16367   6.774   8.006   5.214 -0.3103  1.9448  0.7875
  862MOL0     H16368   6.901   7.864   5.510 -2.3443 -0.6788 -0.6528
  862MOL0     H16369   6.921   8.037   5.548  0.8226 -2.3347  0.9432
  862MOL0     H16370   6.771   7.974   5.480 -0.9333 -0.1487 -1.6137
  863MOL0     O16371   4.712   0.404   1.068  0.9378 -0.1677  0.0703
  863MOL0     C16372   4.667   0.294   1.099 -0.8965  0.0364 -0.2957
  863MOL0     O16373   4.741   0.186   1.093  0.2653  0.1713  0.3420
  863MOL0     C16374   4.877   0.179   1.067  0.7810  0.7138 -0.2699
  863MOL0     C16375   4.951   0.071   1.125 -0.8517  0.1213 -0.8108
  863MOL0     C16376   5.087   0.042   1.082  0.5473 -0.5995  0.7266
  863MOL0     C16377   5.151   0.118   0.979  0.3386  1.1203  0.2264
  863MOL0     O16378   5.272   0.080   0.945 -0.0855  0.1667  0.2333
  863MOL0     C16379   5.312   0.131   0.815 -0.2282  0.1389 -0.7371
  863MOL0     C16380   5.448   0.074   0.768  0.1747 -0.1347  0.6177
  863MOL0     C16381   5.571   0.090   0.859 -0.5689  0.7191 -1.3517
  863MOL0     C16382   5.698   0.095   0.772  0.6910 -0.1511 -0.1333
  863MOL0     C16383   5.826   0.058   0.849  0.3568 -0.4800 -0.0247
  863MOL0     C16384   5.909   0.190   0.884  0.3204  0.2804  0.3806
  863MOL0     C16385   6.022   0.164   0.981  0.0301  0.7451 -0.4584
  863MOL0     C16386   6.131   0.066   0.940  0.4302 -1.2788 -0.2589
  863MOL0     N16387   6.239   0.126   0.851  0.2674  0.2489 -0.1952
  863MOL0     C16388   6.365   0.171   0.901  0.8708  0.2716 -0.3255
  863MOL0     C16389   6.434   0.210   0.794 -0.7034 -0.2778 -0.2828
  863MOL0     C16390   6.579   0.245   0.789  0.8092  0.5807  0.0181
  863MOL0     C16391   6.654   0.146   0.876  0.3001 -0.1047  0.0993
  863MOL0     C16392   6.803   0.180   0.872 -0.0137 -0.0003  0.7424
  863MOL0     C16393   6.889   0.085   0.959  0.5468 -0.0625  0.5398
  863MOL0     O16394   7.018   0.120   0.965 -0.2039 -0.2238 -0.8015
  863MOL0     C16395   7.109   0.038   1.035 -0.0635  0.8033 -0.0073
  863MOL0     C16396   7.242   0.081   1.041 -0.2341  0.0705  0.2720
  863MOL0     C16397   7.344   0.014   1.108 -0.4657 -0.2084  0.8176
  863MOL0     C16398   7.319  -0.112   1.159  0.5642  0.0413 -0.7689
  863MOL0     C16399   7.425  -0.194   1.236 -0.2135 -0.9369  0.7665
  863MOL0     O16400   7.543  -0.129   1.263 -0.0769 -0.2952  0.3741
  863MOL0     C16401   7.640  -0.205   1.313 -0.5059 -0.6064 -0.7478
  863MOL0     C16402   7.735  -0.291   1.240 -0.0597  0.4579  0.1684
  863MOL0     C16403   7.839  -0.363   1.300  0.5645 -0.7315  0.2997
  863MOL0     C16404   7.852  -0.357   1.438 -0.1513 -0.1381 -0.4474
  863MOL0     O16405   7.951  -0.438   1.487 -0.5037 -0.6261  0.2935
  863MOL0     C16406   8.021  -0.387   1.604  0.9322 -0.2271 -0.5113
  863MOL0     C16407   8.128  -0.494   1.638  0.3430  0.2832 -0.1936
  863MOL0     C16408   8.244  -0.445   1.726  0.3407 -0.4700  0.3801
  863MOL0     C16409   8.240  -0.507   1.866 -0.5826  0.7488  0.5260
  863MOL0     C16410   8.130  -0.443   1.955 -0.1719 -0.8493  0.4949
  863MOL0     C16411   8.112  -0.520   2.088 -0.2786  0.4621  0.2194
  863MOL0     C16412   7.979  -0.488   2.151 -0.0868  0.3293 -0.7795
  863MOL0     C16413   7.939  -0.336   2.158 -0.5059 -0.4408  0.0824
  863MOL0    Cl16414   7.798  -0.301   2.266  0.0112  0.2753  0.5440
  863MOL0     C16415   7.771  -0.272   1.513  0.4380 -0.0683 -0.1761
  863MOL0     C16416   7.671  -0.195   1.453 -0.3730 -0.0941 -0.2354
  863MOL0     O16417   7.393  -0.302   1.283 -0.9152  0.0720 -0.1375
  863MOL0     C16418   7.184  -0.164   1.148 -0.7721  0.9530 -0.2061
  863MOL0     C16419   7.088  -0.091   1.085 -0.2652  0.3406 -0.2520
  863MOL0     N16420   6.359   0.178   0.682  0.0440 -0.2404  0.4325
  863MOL0     N16421   6.244   0.125   0.712 -0.0676 -0.3816  0.4420
  863MOL0     C16422   5.071   0.221   0.922 -0.6038  0.2487 -0.6411
  863MOL0     C16423   4.945   0.248   0.964 -0.5469  0.2961  0.0897
  863MOL0     C16424   4.520   0.278   1.137  0.1158 -0.4660 -0.0671
  863MOL0     C16425   4.487   0.148   1.178  0.3990  0.4710 -0.4567
  863MOL0     C16426   4.356   0.120   1.218 -0.0570 -0.7706 -0.2133
  863MOL0     C16427   4.252   0.213   1.213 -0.4575  0.0780  0.1462
  863MOL0     O16428   4.116   0.193   1.249 -0.1314  0.0174 -0.6275
  863MOL0     C16429   4.083   0.062   1.287 -0.2676  0.4309  0.2026
  863MOL0     C16430   3.936   0.059   1.304  0.1297 -0.1886 -0.4130
  863MOL0     C16431   3.891  -0.082   1.327  0.1203  0.2003  0.3493
  863MOL0     C16432   3.737  -0.099   1.314 -0.1577  1.3067  0.0024
  863MOL0     C16433   3.697  -0.236   1.351  0.0589 -0.6329  0.0774
  863MOL0     C16434   3.647  -0.344   1.377 -0.5450 -0.1554 -0.3871
  863MOL0     C16435   4.286   0.344   1.176  0.3889  0.5412 -0.0515
  863MOL0     C16436   4.415   0.373   1.142  0.2216 -1.2759  0.4542
  863MOL0     C16437   4.436   0.517   1.107  1.2384  0.8379 -0.5036
  863MOL0     H16438   4.916   0.013   1.210 -0.7095 -0.5943 -1.2280
  863MOL0     H16439   5.141  -0.040   1.127  0.1578 -1.7577 -0.8605
  863MOL0     H16440   5.230   0.097   0.751 -1.0202 -1.4846  1.0334
  863MOL0     H16441   5.324   0.240   0.826  0.8891  0.1342 -1.7578
  863MOL0     H16442   5.479   0.129   0.679 -3.9526  1.0356 -0.3392
  863MOL0     H16443   5.447  -0.033   0.746  1.8063 -0.4387  1.8180
  863MOL0     H16444   5.582  -0.004   0.914 -4.3399 -0.0289 -1.6249
  863MOL0     H16445   5.563   0.176   0.927  4.0764  0.4287 -0.1063
  863MOL0     H16446   5.676   0.028   0.689  2.5603  0.8474 -1.5134
  863MOL0     H16447   5.707   0.197   0.734 -0.5419 -0.3748 -1.0978
  863MOL0     H16448   5.802  -0.002   0.937 -0.0620  1.7039  1.4207
  863MOL0     H16449   5.896  -0.006   0.794  1.2585 -0.8254  1.4603
  863MOL0     H16450   5.960   0.238   0.800  3.1822 -1.7262  0.8176
  863MOL0     H16451   5.837   0.258   0.931 -0.2683 -0.0455 -0.0405
  863MOL0     H16452   5.979   0.135   1.077 -0.2960  0.1058 -0.7949
  863MOL0     H16453   6.063   0.265   0.993 -1.4244  1.4035 -0.7405
  863MOL0     H16454   6.191   0.036   1.026  2.2425  0.8455 -0.6740
  863MOL0     H16455   6.103  -0.020   0.878 -1.7330  0.9080 -2.5573
  863MOL0     H16456   6.375   0.163   1.009 -1.1524 -0.6253 -0.1718
  863MOL0     H16457   6.626   0.245   0.691 -1.1940  0.8878 -0.9866
  863MOL0     H16458   6.589   0.346   0.831  1.1878  1.1739 -1.4381
  863MOL0     H16459   6.628   0.162   0.981 -0.4502  0.5032 -0.1741
  863MOL0     H16460   6.620   0.044   0.857 -1.3757  0.2192  1.1856
  863MOL0     H16461   6.818   0.286   0.892 -0.6393 -0.0432  1.5051
  863MOL0     H16462   6.832   0.171   0.767  1.5533 -1.8723  1.2699
  863MOL0     H16463   6.878  -0.014   0.912 -0.5943  0.5093 -0.4678
  863MOL0     H16464   6.848   0.074   1.060  2.9489 -2.1649  1.3877
  863MOL0     H16465   7.250   0.182   1.001 -0.1372 -0.3588 -0.8321
  863MOL0     H16466   7.441   0.056   1.135  0.5953 -1.8696 -0.2423
  863MOL0     H16467   7.726  -0.294   1.132 -0.5982 -1.3801  0.2335
  863MOL0     H16468   7.909  -0.438   1.264  1.4031 -0.7449  1.8514
  863MOL0     H16469   8.060  -0.289   1.575  0.9300 -0.9473 -3.2017
  863MOL0     H16470   7.951  -0.374   1.688  0.7512  1.0996 -0.8361
  863MOL0     H16471   8.079  -0.570   1.699  0.5529  0.8863  0.7639
  863MOL0     H16472   8.170  -0.532   1.544  0.2764 -0.4565  0.0746
  863MOL0     H16473   8.336  -0.487   1.685  0.9251  0.7314  0.4089
  863MOL0     H16474   8.253  -0.336   1.728  2.6617 -0.5910 -0.5534
  863MOL0     H16475   8.340  -0.490   1.907  0.6847  0.0178 -2.0183
  863MOL0     H16476   8.223  -0.615   1.866  1.6540  0.3355  2.0754
  863MOL0     H16477   8.040  -0.444   1.894  0.7921 -0.6359 -0.9794
  863MOL0     H16478   8.149  -0.336   1.964 -1.4150 -0.3465 -2.1396
  863MOL0     H16479   8.111  -0.626   2.062 -0.1635  1.0530 -2.5914
  863MOL0     H16480   8.197  -0.494   2.152  0.5460  0.9815 -1.0187
  863MOL0     H16481   7.978  -0.533   2.250  2.1061  0.4457 -0.6627
  863MOL0     H16482   7.911  -0.548   2.089 -0.7658  1.4591 -1.1536
  863MOL0     H16483   8.030  -0.286   2.194 -1.2776 -0.8904  2.9499
  863MOL0     H16484   7.917  -0.306   2.056 -0.4759  2.3141  0.8049
  863MOL0     H16485   7.788  -0.254   1.618 -1.8999  3.2768 -0.2084
  863MOL0     H16486   7.608  -0.139   1.521  0.1397 -0.6224  0.6999
  863MOL0     H16487   7.158  -0.262   1.187 -1.6724  0.3846 -2.1283
  863MOL0     H16488   6.989  -0.135   1.093 -0.0949  0.0403  0.2975
  863MOL0     H16489   5.096   0.277   0.833  1.7109 -2.4505 -1.8314
  863MOL0     H16490   4.896   0.331   0.914 -0.9444  0.0563  0.0794
  863MOL0     H16491   4.557   0.065   1.173 -1.8532 -1.4951 -1.7019
  863MOL0     H16492   4.333   0.018   1.250  0.6504 -0.8659 -0.0059
  863MOL0     H16493   4.126   0.046   1.386  0.0175 -3.0949 -0.3834
  863MOL0     H16494   4.100  -0.011   1.208 -1.4360  1.3469 -0.9284
  863MOL0     H16495   3.882   0.104   1.221 -1.7912  2.5793  2.1613
  863MOL0     H16496   3.908   0.118   1.392  2.4910  3.7656 -2.0726
  863MOL0     H16497   3.923  -0.122   1.424 -1.0969  1.0502  1.1485
  863MOL0     H16498   3.932  -0.154   1.256 -2.9578 -1.1501 -0.2412
  863MOL0     H16499   3.687  -0.033   1.386 -0.5393 -0.4493  1.4084
  863MOL0     H16500   3.712  -0.084   1.209 -0.1047 -0.0006 -0.2099
  863MOL0     H16501   3.589  -0.433   1.394 -2.9730  1.5340  0.7361
  863MOL0     H16502   4.202   0.412   1.166  0.1643  0.5438  1.5525
  863MOL0     H16503   4.519   0.557   1.166  0.3515  2.9456 -0.5990
  863MOL0     H16504   4.455   0.524   1.000 -0.1344  0.9624 -0.7599
  863MOL0     H16505   4.346   0.575   1.130 -0.2344 -2.5369  3.7376
  864MOL0     O16506   4.604   7.841   8.901  0.0700  0.1209 -0.4958
  864MOL0     C16507   4.659   7.894   8.995  0.7913  0.0948  0.0426
  864MOL0     O16508   4.787   7.884   9.028 -0.1831  0.8075  0.4600
  864MOL0     C16509   4.894   7.873   8.943  0.3684 -0.4681 -0.4799
  864MOL0     C16510   5.017   7.908   8.994  0.5736 -0.1745  0.2341
  864MOL0     C16511   5.133   7.894   8.909  0.2123 -0.5454 -0.0100
  864MOL0     C16512   5.119   7.865   8.771 -0.1473 -0.3386 -0.3379
  864MOL0     O16513   5.226   7.858   8.676  0.3003 -0.0757  0.1938
  864MOL0     C16514   5.362   7.880   8.714 -0.1953 -0.1676  0.1218
  864MOL0     C16515   5.445   7.885   8.587 -0.8681  0.4679  0.3205
  864MOL0     C16516   5.597   7.874   8.616  1.0376 -0.4190  0.5838
  864MOL0     C16517   5.645   8.004   8.677  0.0518 -0.0844  0.2187
  864MOL0     C16518   5.784   8.051   8.633 -0.8438  0.6405  0.9559
  864MOL0     C16519   5.887   7.951   8.694 -0.6397 -0.1188  0.3036
  864MOL0     C16520   6.031   8.016   8.688 -0.3031 -0.2738  0.5129
  864MOL0     C16521   6.081   8.033   8.543 -0.6755 -0.3494 -0.2142
  864MOL0     N16522   6.231   8.059   8.549 -0.1676  0.0478  0.2475
  864MOL0     C16523   6.327   7.973   8.578  0.3183  0.0986  0.8288
  864MOL0     C16524   6.437   8.045   8.587 -0.4105 -0.3817  0.3365
  864MOL0     C16525   6.564   7.976   8.625  0.2085 -0.1653  0.0552
  864MOL0     C16526   6.615   8.035   8.764 -0.2302 -0.3819 -0.4340
  864MOL0     C16527   6.747   7.967   8.812  0.3264  0.4449 -1.2727
  864MOL0     C16528   6.812   8.035   8.928 -0.5986  0.2629  0.0788
  864MOL0     O16529   6.927   7.967   8.984  0.4004  0.0200 -0.1397
  864MOL0     C16530   7.042   7.972   8.916 -0.0126  0.1070 -0.3239
  864MOL0     C16531   7.068   8.045   8.796  0.0255 -0.2320  0.8978
  864MOL0     C16532   7.201   8.044   8.745 -0.4396 -0.1462  0.4122
  864MOL0     C16533   7.307   7.975   8.817 -0.0475 -0.3469  0.0427
  864MOL0     C16534   7.451   7.988   8.780 -0.5429 -0.3152 -0.0805
  864MOL0     O16535   7.484   8.056   8.668  0.6276  0.1227 -0.4656
  864MOL0     C16536   7.612   8.060   8.621 -0.5529  0.4218 -0.0876
  864MOL0     C16537   7.735   8.024   8.680 -0.2437  0.3142  0.3340
  864MOL0     C16538   7.855   8.058   8.619 -0.2190 -0.9318 -0.1568
  864MOL0     C16539   7.862   8.129   8.499  0.2050 -0.3065  0.0742
  864MOL0     O16540   7.971   8.174   8.439 -0.6393 -0.2523 -0.0802
  864MOL0     C16541   8.097   8.119   8.481 -0.1370 -0.2664 -0.3210
  864MOL0     C16542   8.201   8.164   8.387 -0.0066 -0.4291  0.0415
  864MOL0     C16543   8.354   8.130   8.435 -0.1210  0.0437  0.0750
  864MOL0     C16544   8.368   8.118   8.586  0.7068  0.9050  0.3320
  864MOL0     C16545   8.510   8.086   8.622 -0.1457  0.9254 -0.5387
  864MOL0     C16546   8.524   8.130   8.770  0.7880  0.0560  0.3284
  864MOL0     C16547   8.626   8.041   8.832  1.0275 -0.2284 -0.3191
  864MOL0     C16548   8.770   8.071   8.789  0.2596 -0.9233  0.5811
  864MOL0    Cl16549   8.823   8.230   8.835 -0.2029  0.0485 -0.4505
  864MOL0     C16550   7.744   8.165   8.441  1.1039  0.0789  0.7930
  864MOL0     C16551   7.621   8.127   8.498 -0.7903  0.4192  0.3274
  864MOL0     O16552   7.533   7.933   8.856  0.0772  0.3341  0.0045
  864MOL0     C16553   7.270   7.899   8.931 -0.3086 -0.3273 -0.0773
  864MOL0     C16554   7.143   7.898   8.977  0.3000  0.0164 -0.4829
  864MOL0     N16555   6.415   8.175   8.538 -0.2425  0.0932 -0.6232
  864MOL0     N16556   6.288   8.187   8.527  0.1576 -0.2866 -0.2353
  864MOL0     C16557   4.998   7.826   8.724  0.7682 -0.0042  1.5163
  864MOL0     C16558   4.893   7.816   8.813  0.2708 -0.2409 -0.1616
  864MOL0     C16559   4.561   7.948   9.101 -0.6894 -0.6462  0.4526
  864MOL0     C16560   4.618   7.979   9.231  0.1334 -0.4624  0.6970
  864MOL0     C16561   4.543   8.029   9.333 -0.3221 -0.1785  1.0405
  864MOL0     C16562   4.413   8.060   9.309 -0.4555  0.3330 -0.6176
  864MOL0     O16563   4.347   8.117   9.414  0.5288  0.0301  0.4749
  864MOL0     C16564   4.282   8.243   9.395 -0.1680 -0.1418  0.0958
  864MOL0     C16565   4.214   8.294   9.522  0.1948 -0.0350 -0.6230
  864MOL0     C16566   4.310   8.370   9.617  0.5373  0.9855 -0.2577
  864MOL0     C16567   4.331   8.506   9.560 -0.1431 -0.4415 -0.5503
  864MOL0     C16568   4.217   8.595   9.584 -0.4669 -0.3702 -0.0885
  864MOL0     C16569   4.120   8.657   9.607  0.7706 -0.8531  0.0957
  864MOL0     C16570   4.353   8.038   9.189  0.4930  0.0702 -0.6966
  864MOL0     C16571   4.423   7.969   9.083  0.2875 -0.8489 -0.6745
  864MOL0     C16572   4.348   7.937   8.956  0.4086 -0.7570  0.0465
  864MOL0     H16573   5.020   7.942   9.097 -2.0494  0.2990  0.2265
  864MOL0     H16574   5.233   7.911   8.947  0.4480  0.5842 -1.0773
  864MOL0     H16575   5.363   7.971   8.775  0.7374 -2.1739  3.3889
  864MOL0     H16576   5.412   7.807   8.779  1.1635  0.3107 -0.3516
  864MOL0     H16577   5.418   7.977   8.534  0.6070  1.4335  1.1619
  864MOL0     H16578   5.423   7.796   8.527  1.1424 -0.6684  1.1853
  864MOL0     H16579   5.654   7.870   8.522  1.0047  1.3192  0.4581
  864MOL0     H16580   5.614   7.784   8.675 -2.7752 -4.2571 -3.3910
  864MOL0     H16581   5.576   8.088   8.662 -1.0394 -0.8630  0.7450
  864MOL0     H16582   5.646   7.997   8.786  4.2445  0.4168  0.3802
  864MOL0     H16583   5.785   8.055   8.524 -2.9709 -1.7638  0.7588
  864MOL0     H16584   5.787   8.151   8.677 -0.8463  0.8244  0.5366
  864MOL0     H16585   5.868   7.925   8.799  0.1080 -2.9739 -0.2074
  864MOL0     H16586   5.890   7.859   8.636 -0.2903  0.3413 -0.4216
  864MOL0     H16587   6.094   7.943   8.740  0.4522 -0.6311 -0.8731
  864MOL0     H16588   6.033   8.113   8.737  0.7834  2.4520 -4.3025
  864MOL0     H16589   6.063   7.939   8.490  0.5475 -0.8441  0.2158
  864MOL0     H16590   6.027   8.116   8.497 -0.0885 -0.5551 -1.3245
  864MOL0     H16591   6.319   7.865   8.586 -0.3434 -0.3778 -3.5466
  864MOL0     H16592   6.541   7.870   8.630 -0.1393 -0.0468  1.3514
  864MOL0     H16593   6.633   7.997   8.542  0.8157  1.8929  1.0090
  864MOL0     H16594   6.641   8.139   8.747 -2.2619 -0.2757 -3.7173
  864MOL0     H16595   6.532   8.026   8.836 -1.3640 -2.0781 -1.8495
  864MOL0     H16596   6.824   7.956   8.735  1.6515  1.2230 -0.1009
  864MOL0     H16597   6.706   7.869   8.835 -1.1883  0.8362 -2.1448
  864MOL0     H16598   6.744   8.058   9.012  0.5456 -1.2402  1.4779
  864MOL0     H16599   6.847   8.134   8.898  1.1798  0.3638  2.2200
  864MOL0     H16600   6.994   8.114   8.758 -0.3476 -1.8137 -1.4906
  864MOL0     H16601   7.218   8.106   8.657 -1.1621 -0.0435  0.3399
  864MOL0     H16602   7.739   7.978   8.778 -1.0718 -3.3487 -1.2107
  864MOL0     H16603   7.944   8.025   8.670 -0.2675  1.3203  1.5542
  864MOL0     H16604   8.113   8.145   8.586 -2.0493 -0.5610  0.0763
  864MOL0     H16605   8.083   8.011   8.469  0.6885 -0.2355 -1.7763
  864MOL0     H16606   8.180   8.116   8.291 -2.6036  2.0779 -0.7810
  864MOL0     H16607   8.193   8.269   8.359 -2.0767 -0.0566  1.7554
  864MOL0     H16608   8.388   8.035   8.392 -1.9571 -1.8095  2.4694
  864MOL0     H16609   8.421   8.210   8.402 -0.2824  1.7317  3.4232
  864MOL0     H16610   8.298   8.042   8.623  0.1586  1.3821  0.2846
  864MOL0     H16611   8.348   8.219   8.621  0.2465  2.3679 -3.6009
  864MOL0     H16612   8.577   8.136   8.551  0.2346 -0.4081 -1.1392
  864MOL0     H16613   8.519   7.979   8.602 -3.4243  0.1622  1.2248
  864MOL0     H16614   8.552   8.236   8.775  0.3747  0.1171  1.7035
  864MOL0     H16615   8.429   8.121   8.823  0.8644  0.6237  0.5771
  864MOL0     H16616   8.596   7.936   8.829 -1.3241  0.2017  2.8360
  864MOL0     H16617   8.627   8.064   8.939  0.1546  2.4086 -0.8032
  864MOL0     H16618   8.849   8.004   8.825  2.5933  1.8454  0.9685
  864MOL0     H16619   8.763   8.065   8.680  1.4418  1.8645  0.2818
  864MOL0     H16620   7.742   8.222   8.349 -0.8131 -2.3913 -0.8590
  864MOL0     H16621   7.526   8.163   8.459 -0.9124 -1.3307 -1.1288
  864MOL0     H16622   7.344   7.856   8.999  0.1085  1.3643  0.5853
  864MOL0     H16623   7.116   7.861   9.075 -0.1337 -1.4933 -1.1401
  864MOL0     H16624   4.982   7.806   8.618  0.6230  1.6382  1.1901
  864MOL0     H16625   4.791   7.795   8.782  0.3680 -0.2533 -0.4791
  864MOL0     H16626   4.723   7.961   9.251  0.8528  3.0804  0.7352
  864MOL0     H16627   4.592   8.054   9.427  0.1647  0.1793  0.6989
  864MOL0     H16628   4.203   8.231   9.320  0.0570 -0.2631 -0.1185
  864MOL0     H16629   4.359   8.315   9.367 -2.7606  2.5971 -0.4800
  864MOL0     H16630   4.174   8.207   9.575  1.8936  0.4257  1.5684
  864MOL0     H16631   4.133   8.366   9.507  0.0675  0.5800  2.3567
  864MOL0     H16632   4.407   8.319   9.620  2.7979  4.9167  1.9989
  864MOL0     H16633   4.269   8.370   9.718  0.7888 -3.3053  0.0580
  864MOL0     H16634   4.417   8.554   9.607 -0.4508  2.0661 -2.2764
  864MOL0     H16635   4.352   8.514   9.453  1.5379 -1.4296 -0.3319
  864MOL0     H16636   4.029   8.712   9.616  0.0756 -1.9212 -0.1443
  864MOL0     H16637   4.247   8.059   9.178  0.2991  0.2954  1.2521
  864MOL0     H16638   4.243   7.965   8.965  0.8391  1.4271 -1.0479
  864MOL0     H16639   4.396   7.989   8.872 -1.2707  0.7390 -0.0250
  864MOL0     H16640   4.349   7.828   8.941 -0.8503 -0.8181  0.3239
  865MOL0     O16641   8.029   8.235   8.087  0.2238 -0.4906  0.7231
  865MOL0     C16642   8.035   8.142   8.002 -0.5807  0.2409 -0.4473
  865MOL0     O16643   8.150   8.094   7.952  0.5410  0.1761  0.1253
  865MOL0     C16644   8.270   8.143   8.008 -0.3021 -0.2575  0.1590
  865MOL0     C16645   8.354   8.051   8.073 -0.3095  1.5416  0.0317
  865MOL0     C16646   8.484   8.087   8.111  0.8817 -0.6030  0.1090
  865MOL0     C16647   8.534   8.216   8.075 -0.1478  0.6914 -0.1866
  865MOL0     O16648   8.657   8.257   8.107 -0.4260  0.0370 -0.8973
  865MOL0     C16649   8.663   8.368   8.196 -0.0306  0.5851  1.1323
  865MOL0     C16650   8.804   8.408   8.222  0.5336  0.3698 -0.2071
  865MOL0     C16651   8.899   8.288   8.257 -0.5097  0.7816  0.8230
  865MOL0     C16652   8.835   8.176   8.339 -0.3060  0.1429 -0.6085
  865MOL0     C16653   8.855   8.040   8.267  0.7111  0.0060 -0.4601
  865MOL0     C16654   8.807   7.924   8.354 -0.5126  0.1620  0.3117
  865MOL0     C16655   8.778   7.804   8.278  0.1006 -0.1704 -0.2722
  865MOL0     C16656   8.897   7.754   8.182 -0.0662  0.1788 -0.0074
  865MOL0     N16657   9.028   7.733   8.253 -0.4487  0.3770  0.1588
  865MOL0     C16658   9.125   7.827   8.295 -1.5667 -0.6200 -0.2349
  865MOL0     C16659   9.224   7.752   8.349 -1.1958 -0.2618 -0.3752
  865MOL0     C16660   9.357   7.809   8.404  0.3488  0.0294  0.4075
  865MOL0     C16661   9.477   7.772   8.318 -0.1801 -0.3448 -0.1872
  865MOL0     C16662   9.600   7.828   8.388  0.0439  0.0864 -0.0036
  865MOL0     C16663   9.723   7.782   8.329 -0.5564 -0.0492  0.0500
  865MOL0     O16664   9.713   7.779   8.189  0.3484  0.1103 -0.8588
  865MOL0     C16665   9.838   7.776   8.131  0.5513 -0.0506  0.1061
  865MOL0     C16666   9.932   7.673   8.152 -0.3328 -0.5862  1.5619
  865MOL0     C16667  10.056   7.692   8.084  0.8517  0.2971  0.0462
  865MOL0     C16668  10.080   7.801   7.997 -0.5590 -0.9044 -1.0157
  865MOL0     C16669  10.213   7.821   7.932 -1.1003  0.5770 -0.3516
  865MOL0     O16670  10.307   7.735   7.969  0.0369 -0.2438 -0.5779
  865MOL0     C16671  10.437   7.756   7.930 -0.6214 -0.0061  0.4942
  865MOL0     C16672  10.517   7.775   8.038 -1.5955 -0.5597 -0.7239
  865MOL0     C16673  10.657   7.800   8.015  0.2272 -0.5267 -0.5742
  865MOL0     C16674  10.702   7.811   7.879  0.1174  0.6482 -0.1900
  865MOL0     O16675  10.834   7.840   7.865  0.2165  0.6340 -0.0096
  865MOL0     C16676  10.879   7.894   7.744  0.5893 -0.1317  0.3203
  865MOL0     C16677  11.033   7.925   7.765 -0.7115  0.6614  0.2261
  865MOL0     C16678  11.094   7.990   7.638  0.1453 -1.5055 -0.1971
  865MOL0     C16679  11.244   7.992   7.634 -0.0484 -0.1704 -1.1709
  865MOL0     C16680  11.300   8.048   7.509 -0.5598 -0.1738  0.0893
  865MOL0     C16681  11.449   8.021   7.500  0.1408  0.5897 -0.1423
  865MOL0     C16682  11.495   8.082   7.367 -0.3696 -0.3054 -0.4804
  865MOL0     C16683  11.651   8.085   7.353 -0.2683  0.3644  0.6637
  865MOL0    Cl16684  11.685   7.929   7.283 -0.0021 -0.1198  0.5270
  865MOL0     C16685  10.615   7.787   7.774 -0.5924 -0.1833 -0.2639
  865MOL0     C16686  10.481   7.762   7.800 -0.8263 -0.6246  0.2213
  865MOL0     O16687  10.234   7.921   7.869  0.2227 -0.1363 -0.0184
  865MOL0     C16688   9.981   7.899   7.984  1.0912  0.3164  0.5802
  865MOL0     C16689   9.861   7.888   8.049 -0.6849 -0.2435  0.5372
  865MOL0     N16690   9.182   7.621   8.349 -1.0905  0.1364 -0.8807
  865MOL0     N16691   9.066   7.609   8.300  0.8079  0.3928 -0.5845
  865MOL0     C16692   8.453   8.301   7.999 -0.1592 -0.5059 -0.0814
  865MOL0     C16693   8.323   8.260   7.963 -0.1842  0.2493 -0.3542
  865MOL0     C16694   7.909   8.070   7.979 -0.5690 -0.9218 -0.6824
  865MOL0     C16695   7.791   8.099   8.053 -0.3642 -0.1470 -0.0318
  865MOL0     C16696   7.659   8.046   8.018  0.7607  0.1760 -0.1779
  865MOL0     C16697   7.647   7.964   7.903 -0.3061 -0.4124  0.0138
  865MOL0     O16698   7.516   7.934   7.883 -0.0705  0.0116  0.1783
  865MOL0     C16699   7.487   7.845   7.777 -0.3096 -0.9655  0.1408
  865MOL0     C16700   7.403   7.924   7.679 -0.2414 -0.0246 -0.1460
  865MOL0     C16701   7.440   7.867   7.537  0.0686  0.1390  0.2786
  865MOL0     C16702   7.375   7.940   7.435  0.2974  0.3026  1.2859
  865MOL0     C16703   7.423   7.907   7.299  0.5287  0.5951 -0.0371
  865MOL0     C16704   7.461   7.878   7.190 -0.4224  0.7501  0.1201
  865MOL0     C16705   7.763   7.922   7.842  0.0486  0.4528  0.5024
  865MOL0     C16706   7.893   7.980   7.869  0.4049  0.1248 -1.0569
  865MOL0     C16707   7.995   7.938   7.776  0.5636  0.5456  0.0820
  865MOL0     H16708   8.310   7.954   8.090  1.4638  0.4624 -1.2192
  865MOL0     H16709   8.552   8.015   8.156  0.0048 -0.4551  1.7576
  865MOL0     H16710   8.621   8.450   8.139 -0.2152 -0.7712 -0.7622
  865MOL0     H16711   8.610   8.361   8.292  0.9947 -0.0369  1.6895
  865MOL0     H16712   8.813   8.492   8.291 -0.1658 -0.5677  1.0677
  865MOL0     H16713   8.833   8.446   8.123 -0.4503 -0.3022 -0.7772
  865MOL0     H16714   8.993   8.314   8.307 -0.3874 -1.8537  2.1829
  865MOL0     H16715   8.921   8.253   8.155 -2.2374 -3.0631  1.5773
  865MOL0     H16716   8.878   8.162   8.439 -0.2216 -1.6652 -0.8594
  865MOL0     H16717   8.728   8.185   8.356 -0.1496  0.3917  0.2702
  865MOL0     H16718   8.798   8.063   8.177  1.2280 -0.0625 -0.8043
  865MOL0     H16719   8.961   8.029   8.242  1.7507  1.0837  2.9473
  865MOL0     H16720   8.880   7.909   8.434 -0.9022 -1.1145  0.4396
  865MOL0     H16721   8.711   7.954   8.399 -1.7982 -2.7051 -0.3203
  865MOL0     H16722   8.690   7.821   8.216 -0.6402  2.7277  1.3961
  865MOL0     H16723   8.763   7.726   8.353 -0.4118 -1.6304 -1.8278
  865MOL0     H16724   8.862   7.665   8.128  0.7791 -1.1906  1.6211
  865MOL0     H16725   8.912   7.837   8.112  2.4484  0.2987  0.5822
  865MOL0     H16726   9.138   7.930   8.264 -1.1498 -1.0348 -1.4945
  865MOL0     H16727   9.352   7.919   8.404 -1.3691 -0.0185  0.8842
  865MOL0     H16728   9.373   7.766   8.503  0.1350  0.9535  0.8549
  865MOL0     H16729   9.488   7.664   8.301  2.1031 -0.3809  1.0935
  865MOL0     H16730   9.461   7.824   8.224 -2.2574 -2.6832 -1.2444
  865MOL0     H16731   9.596   7.800   8.494  0.7338  0.4008  0.1096
  865MOL0     H16732   9.597   7.937   8.382  1.3010  0.0749 -1.3735
  865MOL0     H16733   9.742   7.683   8.370 -0.0257  0.6825  1.6819
  865MOL0     H16734   9.808   7.840   8.367 -1.1296  1.4589 -0.8628
  865MOL0     H16735   9.914   7.580   8.205  2.0175 -0.4825  2.6680
  865MOL0     H16736  10.137   7.622   8.099 -0.0866 -1.0802 -1.0455
  865MOL0     H16737  10.473   7.751   8.134 -0.5809 -2.1798 -0.6324
  865MOL0     H16738  10.725   7.815   8.098 -1.3071  3.2482  0.1932
  865MOL0     H16739  10.861   7.834   7.654  0.6931 -0.0986  0.2783
  865MOL0     H16740  10.814   7.981   7.730 -1.6301 -1.8152 -0.4772
  865MOL0     H16741  11.047   7.982   7.858 -1.7171 -0.0893  0.8540
  865MOL0     H16742  11.092   7.834   7.778 -0.1355  1.0696  0.5545
  865MOL0     H16743  11.051   7.940   7.551  0.4079 -2.0835  0.0045
  865MOL0     H16744  11.072   8.097   7.638  2.1899 -1.0284  0.7815
  865MOL0     H16745  11.276   7.890   7.657  0.2589 -0.0486 -1.0475
  865MOL0     H16746  11.273   8.047   7.724 -0.5476 -0.2965 -0.9305
  865MOL0     H16747  11.292   8.157   7.516 -0.7112 -0.0179 -2.0196
  865MOL0     H16748  11.255   8.001   7.421 -3.7371  0.6506  1.1369
  865MOL0     H16749  11.496   8.064   7.589 -2.4250 -1.6137  2.4593
  865MOL0     H16750  11.473   7.914   7.497  1.1839  0.8388 -1.6223
  865MOL0     H16751  11.457   8.184   7.379 -2.4953 -1.2825  2.1177
  865MOL0     H16752  11.448   8.037   7.280 -1.7006 -0.6967  0.4137
  865MOL0     H16753  11.686   8.152   7.274 -0.0517 -0.7762 -0.2320
  865MOL0     H16754  11.709   8.114   7.441 -0.0087 -0.8796  0.9260
  865MOL0     H16755  10.656   7.786   7.674  0.6341 -0.7063  0.2286
  865MOL0     H16756  10.400   7.745   7.730 -1.2882 -3.0983  1.2638
  865MOL0     H16757   9.995   7.992   7.931 -0.9197  1.1366  1.3831
  865MOL0     H16758   9.785   7.960   8.022 -1.7865 -1.5994 -0.0968
  865MOL0     H16759   8.496   8.396   7.970 -0.3760 -0.8291 -1.5245
  865MOL0     H16760   8.267   8.320   7.892 -0.2853 -2.2005 -2.4677
  865MOL0     H16761   7.795   8.167   8.137  1.8515 -0.4036  0.1251
  865MOL0     H16762   7.576   8.078   8.079  0.7967 -2.4674  1.4351
  865MOL0     H16763   7.428   7.761   7.814 -3.1477  0.5730 -0.5344
  865MOL0     H16764   7.574   7.805   7.724  1.0459  3.0188 -1.0346
  865MOL0     H16765   7.443   8.025   7.678  1.9484 -0.8118 -2.9199
  865MOL0     H16766   7.298   7.918   7.710  0.0097 -1.1665  0.5396
  865MOL0     H16767   7.408   7.762   7.541 -1.9094  0.6966  0.0091
  865MOL0     H16768   7.548   7.867   7.522  0.0637 -0.9974  0.1564
  865MOL0     H16769   7.268   7.927   7.448  0.0675 -0.7397 -1.0389
  865MOL0     H16770   7.399   8.047   7.436 -1.3093  0.8561 -2.3979
  865MOL0     H16771   7.492   7.840   7.095 -1.2832  0.1748  0.0560
  865MOL0     H16772   7.747   7.853   7.760 -1.8969  0.2748  1.0027
  865MOL0     H16773   8.073   7.879   7.825 -0.8008 -0.0191  1.6490
  865MOL0     H16774   7.961   7.874   7.694  0.3645  2.8659 -1.7669
  865MOL0     H16775   8.054   8.021   7.736 -2.0261  0.6807 -4.0466
  866MOL0     O16776   6.300   1.219   4.543  0.1818 -0.9354 -0.4726
  866MOL0     C16777   6.230   1.252   4.643 -0.4981 -0.2919  0.9225
  866MOL0     O16778   6.268   1.220   4.774 -0.2424 -0.3385  0.2026
  866MOL0     C16779   6.400   1.192   4.792  0.0745  0.4203  0.0298
  866MOL0     C16780   6.445   1.057   4.765  0.0726  0.8159 -0.0658
  866MOL0     C16781   6.580   1.032   4.778 -0.4561 -0.7056  1.0659
  866MOL0     C16782   6.671   1.132   4.800 -0.3727  0.0709  0.0503
  866MOL0     O16783   6.808   1.120   4.808 -0.1227  0.2185  0.5928
  866MOL0     C16784   6.859   0.986   4.809 -0.2963 -0.2802 -0.3466
  866MOL0     C16785   7.010   0.991   4.858 -0.4471 -0.2658  0.1274
  866MOL0     C16786   7.064   0.850   4.858  0.2515  0.3322 -0.1998
  866MOL0     C16787   7.216   0.855   4.908  0.4592  0.4378  0.2170
  866MOL0     C16788   7.236   0.726   4.982 -0.7772 -0.4016  0.4555
  866MOL0     C16789   7.384   0.681   4.998  0.7264 -0.0071  0.2746
  866MOL0     C16790   7.462   0.766   5.082  0.2797 -0.5574 -0.1463
  866MOL0     C16791   7.604   0.711   5.123  0.1660 -0.2339  0.3320
  866MOL0     N16792   7.601   0.594   5.208  0.4065  0.3575 -0.6267
  866MOL0     C16793   7.670   0.479   5.194  0.1468  0.2571  0.4672
  866MOL0     C16794   7.660   0.408   5.309 -0.0942  0.4911 -0.3031
  866MOL0     C16795   7.710   0.269   5.345 -0.2231  0.1614  0.7282
  866MOL0     C16796   7.853   0.276   5.398  0.3476  0.4010  1.6838
  866MOL0     C16797   7.953   0.306   5.279 -0.0351 -0.7287 -0.2849
  866MOL0     C16798   8.082   0.225   5.286  0.1719  0.1128 -0.0447
  866MOL0     O16799   8.145   0.236   5.413  0.2556 -0.6039 -0.3760
  866MOL0     C16800   8.284   0.213   5.417  0.4723 -0.3613 -1.0474
  866MOL0     C16801   8.352   0.233   5.538  0.2035  0.0421 -0.2603
  866MOL0     C16802   8.482   0.211   5.553  0.1952 -0.3775  0.1077
  866MOL0     C16803   8.562   0.147   5.454 -0.6107  0.3234  0.6131
  866MOL0     C16804   8.708   0.121   5.480  0.6213  1.0966  1.1320
  866MOL0     O16805   8.769   0.040   5.389  0.0794  0.2292 -0.3313
  866MOL0     C16806   8.887  -0.018   5.414 -0.1355  0.1155  0.3812
  866MOL0     C16807   8.885  -0.153   5.456 -0.5116 -0.3619 -0.5641
  866MOL0     C16808   9.008  -0.218   5.467 -0.2270 -0.5653 -1.2647
  866MOL0     C16809   9.125  -0.150   5.448 -0.5439 -0.4979  0.5945
  866MOL0     O16810   9.254  -0.195   5.462  0.1944  0.3299 -0.9608
  866MOL0     C16811   9.275  -0.341   5.451 -0.6127  0.3478  0.3552
  866MOL0     C16812   9.427  -0.369   5.474 -0.0478  0.3384 -0.0831
  866MOL0     C16813   9.504  -0.335   5.346 -0.0325  0.4294 -0.5334
  866MOL0     C16814   9.639  -0.408   5.347  0.4708 -0.0317  0.3011
  866MOL0     C16815   9.730  -0.370   5.229 -0.3415  0.1559  0.5566
  866MOL0     C16816   9.881  -0.381   5.260 -0.7921 -0.2466  0.4539
  866MOL0     C16817   9.923  -0.520   5.326 -0.4513 -0.4723 -0.2363
  866MOL0     C16818  10.048  -0.584   5.250  0.3628 -0.0523 -0.1242
  866MOL0    Cl16819  10.186  -0.477   5.237 -0.1141 -0.1142 -0.3309
  866MOL0     C16820   9.120  -0.016   5.415  0.0544 -0.1767  0.2697
  866MOL0     C16821   9.005   0.050   5.393 -0.1011  0.5798  0.4277
  866MOL0     O16822   8.762   0.167   5.576 -0.5201  0.2173  0.3397
  866MOL0     C16823   8.495   0.123   5.330 -0.1943  0.0826 -0.3864
  866MOL0     C16824   8.355   0.144   5.317 -0.5254 -0.8695  0.7044
  866MOL0     N16825   7.586   0.488   5.403 -0.3635 -0.0843  0.1728
  866MOL0     N16826   7.549   0.600   5.336 -0.0216  0.2815 -0.1842
  866MOL0     C16827   6.625   1.264   4.819 -0.6313 -0.5507 -0.2059
  866MOL0     C16828   6.489   1.297   4.823 -0.3958  0.3165 -0.1235
  866MOL0     C16829   6.093   1.308   4.614 -1.3965  0.3395 -1.0151
  866MOL0     C16830   6.009   1.340   4.721 -1.0212 -0.0501 -0.7195
  866MOL0     C16831   5.877   1.382   4.703 -0.0653  0.2004  0.4435
  866MOL0     C16832   5.820   1.395   4.578 -0.0088  0.1648  0.0825
  866MOL0     O16833   5.688   1.431   4.553 -0.0527 -0.0686  0.0573
  866MOL0     C16834   5.651   1.564   4.600 -0.3553  1.0424 -0.3305
  866MOL0     C16835   5.604   1.654   4.484 -0.4431  0.5966 -0.0615
  866MOL0     C16836   5.596   1.797   4.514  0.0927 -0.4914  0.2148
  866MOL0     C16837   5.474   1.829   4.603 -0.1037  0.0101 -0.8909
  866MOL0     C16838   5.338   1.836   4.544  0.4623  0.1655 -0.1347
  866MOL0     C16839   5.222   1.836   4.501  0.0533 -0.1716 -0.6173
  866MOL0     C16840   5.901   1.365   4.466  0.1969  0.3958 -0.4310
  866MOL0     C16841   6.039   1.330   4.479  1.2815 -0.2875  0.1099
  866MOL0     C16842   6.102   1.300   4.351 -1.1776  0.3798  0.1020
  866MOL0     H16843   6.374   0.984   4.726  0.6105  0.6790 -0.7937
  866MOL0     H16844   6.608   0.929   4.756 -3.0131 -1.1956 -0.2010
  866MOL0     H16845   6.805   0.920   4.877  0.1964 -1.3233 -0.9300
  866MOL0     H16846   6.847   0.941   4.710 -0.9436 -1.4076  0.2269
  866MOL0     H16847   7.013   1.027   4.961 -0.7127 -1.0030  0.3967
  866MOL0     H16848   7.072   1.060   4.801  0.2769  0.3347  1.5844
  866MOL0     H16849   7.056   0.811   4.756  0.5725 -0.0138 -0.0969
  866MOL0     H16850   6.998   0.787   4.918 -1.0561  0.9452 -0.9524
  866MOL0     H16851   7.279   0.856   4.819 -0.5140 -2.4521 -0.6270
  866MOL0     H16852   7.235   0.948   4.962 -0.8867  0.9785 -0.2077
  866MOL0     H16853   7.183   0.734   5.077 -0.0962 -0.6881  0.8650
  866MOL0     H16854   7.194   0.646   4.920  1.4308 -1.5854  0.3964
  866MOL0     H16855   7.371   0.582   5.042 -3.0321  1.0577  1.9726
  866MOL0     H16856   7.436   0.670   4.902  0.4257 -0.3776  0.1476
  866MOL0     H16857   7.401   0.775   5.172 -1.9467 -1.4727 -1.4923
  866MOL0     H16858   7.474   0.859   5.025 -2.7873 -0.7637 -1.2983
  866MOL0     H16859   7.667   0.687   5.037 -0.0882  0.0444  0.0692
  866MOL0     H16860   7.656   0.792   5.175 -0.4355 -0.3687  1.1570
  866MOL0     H16861   7.727   0.454   5.105  0.7996 -2.3803  1.5427
  866MOL0     H16862   7.643   0.218   5.415  0.2826  0.9404  1.8074
  866MOL0     H16863   7.715   0.218   5.248 -1.3269  0.2764  0.5992
  866MOL0     H16864   7.864   0.355   5.473  1.4650  0.0897  1.8652
  866MOL0     H16865   7.878   0.172   5.424 -0.3192 -0.9438 -2.3881
  866MOL0     H16866   7.971   0.414   5.267  1.4033 -0.7856  0.9842
  866MOL0     H16867   7.907   0.284   5.183 -0.1575  1.0305 -0.6652
  866MOL0     H16868   8.151   0.264   5.211 -0.1141  4.8156  1.7919
  866MOL0     H16869   8.055   0.120   5.271 -0.8133  0.3955 -0.3853
  866MOL0     H16870   8.285   0.266   5.617 -0.3484 -0.9060 -0.3254
  866MOL0     H16871   8.534   0.235   5.645 -4.0458  2.0371  2.1905
  866MOL0     H16872   8.797  -0.214   5.475 -1.0270 -0.3450 -2.7224
  866MOL0     H16873   9.017  -0.319   5.505  1.5992  0.6761  2.0149
  866MOL0     H16874   9.209  -0.391   5.522  0.6805 -0.1380  1.2621
  866MOL0     H16875   9.245  -0.375   5.351  1.7718 -0.8033 -0.0362
  866MOL0     H16876   9.467  -0.318   5.562  0.2085 -0.5460  0.3260
  866MOL0     H16877   9.421  -0.477   5.494 -0.4576 -0.5007 -4.0107
  866MOL0     H16878   9.446  -0.361   5.257  0.6556 -3.3715 -0.0097
  866MOL0     H16879   9.543  -0.232   5.347  0.6105  0.1937  0.5673
  866MOL0     H16880   9.622  -0.516   5.343 -2.1367  0.2947  0.7231
  866MOL0     H16881   9.688  -0.377   5.439 -1.1273 -0.1977  1.2390
  866MOL0     H16882   9.710  -0.269   5.193 -0.9056 -0.0155  0.3743
  866MOL0     H16883   9.709  -0.447   5.153 -2.8168  0.2970  1.0094
  866MOL0     H16884   9.936  -0.377   5.165  0.4906 -0.9548  1.1496
  866MOL0     H16885   9.903  -0.294   5.322 -0.2707  1.8389 -2.4519
  866MOL0     H16886   9.845  -0.596   5.320 -0.2313 -0.7519  0.3518
  866MOL0     H16887   9.940  -0.498   5.432  3.2754  0.7749 -0.9226
  866MOL0     H16888  10.074  -0.677   5.301 -0.6142 -1.8218 -2.6738
  866MOL0     H16889  10.009  -0.620   5.154  0.6836 -0.8237  0.0267
  866MOL0     H16890   9.216   0.032   5.403  0.7744 -1.1863  1.6659
  866MOL0     H16891   8.998   0.148   5.347 -0.0409 -0.3301 -1.5985
  866MOL0     H16892   8.557   0.088   5.248  0.1211 -0.4464  0.0743
  866MOL0     H16893   8.308   0.111   5.225 -1.1014  2.5162 -0.3455
  866MOL0     H16894   6.696   1.340   4.849  1.4690 -2.5999  0.3511
  866MOL0     H16895   6.441   1.391   4.847 -1.5967 -0.4489  0.5929
  866MOL0     H16896   6.037   1.341   4.826 -0.8236 -1.7092 -0.7242
  866MOL0     H16897   5.828   1.410   4.795  3.5928 -1.2893  3.0609
  866MOL0     H16898   5.735   1.607   4.656 -0.1296 -2.9751  2.8401
  866MOL0     H16899   5.567   1.559   4.670 -0.7930  3.1520 -0.6286
  866MOL0     H16900   5.518   1.617   4.427  0.6424  1.6536 -2.4929
  866MOL0     H16901   5.686   1.639   4.413 -0.0486 -0.8018  0.6426
  866MOL0     H16902   5.598   1.860   4.424  3.1800 -1.6625 -0.6642
  866MOL0     H16903   5.681   1.826   4.577 -0.3216 -0.7998  0.9245
  866MOL0     H16904   5.471   1.776   4.699  0.7685  3.0351  0.9616
  866MOL0     H16905   5.480   1.932   4.639 -1.1012 -0.5349  0.9631
  866MOL0     H16906   5.121   1.832   4.466 -0.3978  0.4399  0.5634
  866MOL0     H16907   5.847   1.374   4.373  0.1693  4.1526 -0.2051
  866MOL0     H16908   6.030   1.333   4.276 -2.5599  0.5155  1.4416
  866MOL0     H16909   6.197   1.353   4.337 -0.7610 -0.5225 -0.5533
  866MOL0     H16910   6.109   1.193   4.333 -3.1301  0.3007 -0.3862
  867MOL0     O16911   8.003   3.545   3.839  0.4009  0.4640  0.0558
  867MOL0     C16912   8.007   3.547   3.715 -0.6201 -0.3459 -0.4398
  867MOL0     O16913   8.125   3.568   3.640 -0.5202 -0.4471  0.6996
  867MOL0     C16914   8.233   3.576   3.715 -0.3340 -0.2688 -1.1785
  867MOL0     C16915   8.300   3.456   3.756  0.2736 -0.4761  0.0487
  867MOL0     C16916   8.416   3.460   3.834  0.4353 -0.0734 -0.2438
  867MOL0     C16917   8.463   3.583   3.892  0.8100 -0.0527  0.0358
  867MOL0     O16918   8.567   3.569   3.979 -0.0126  0.9682  0.5163
  867MOL0     C16919   8.607   3.683   4.058  0.1975  0.7484  0.1521
  867MOL0     C16920   8.711   3.623   4.160  0.3070 -0.1595 -0.9906
  867MOL0     C16921   8.802   3.736   4.204  0.0243  1.0946  0.1262
  867MOL0     C16922   8.884   3.699   4.331 -0.2392 -0.3310  0.2189
  867MOL0     C16923   9.019   3.769   4.340 -0.1780 -1.4550  0.5508
  867MOL0     C16924   9.100   3.734   4.469  0.1210  0.4536 -0.4189
  867MOL0     C16925   9.246   3.800   4.451  0.3513 -0.5593  0.3506
  867MOL0     C16926   9.329   3.798   4.582  0.1899  0.0285  0.4331
  867MOL0     N16927   9.450   3.890   4.579  0.1983  0.2934  0.6335
  867MOL0     C16928   9.521   3.912   4.698  0.7296 -0.7805  0.2006
  867MOL0     C16929   9.596   4.017   4.678 -0.9635  0.1413 -1.3491
  867MOL0     C16930   9.696   4.088   4.767  0.6570 -0.3052 -0.0525
  867MOL0     C16931   9.836   4.021   4.786  1.0429 -0.5478 -0.2783
  867MOL0     C16932   9.946   4.119   4.759 -1.5422  0.9413 -1.0629
  867MOL0     C16933   9.950   4.219   4.871  0.1587 -0.1739  0.2609
  867MOL0     O16934  10.090   4.254   4.898  0.0668  0.7182  0.0095
  867MOL0     C16935  10.174   4.160   4.959 -0.2064 -0.0202 -0.7949
  867MOL0     C16936  10.129   4.038   5.028 -0.1693  0.9122 -0.6742
  867MOL0     C16937  10.236   3.965   5.094  0.1694  0.1922  0.8623
  867MOL0     C16938  10.369   3.999   5.083 -0.2921  0.9242 -0.7767
  867MOL0     C16939  10.477   3.910   5.142 -0.4686 -0.0584 -0.2994
  867MOL0     O16940  10.606   3.952   5.124 -0.0155 -0.2754  0.4502
  867MOL0     C16941  10.709   3.868   5.163 -0.4320  0.3542  0.8949
  867MOL0     C16942  10.733   3.734   5.132  0.7124  0.5699 -0.3021
  867MOL0     C16943  10.847   3.663   5.182 -0.6647  0.2810  0.4198
  867MOL0     C16944  10.943   3.730   5.255  0.5288  0.7704 -0.1376
  867MOL0     O16945  11.049   3.656   5.295 -0.2039 -0.2848  0.7837
  867MOL0     C16946  11.176   3.728   5.299  0.4341  0.4213  0.3990
  867MOL0     C16947  11.287   3.618   5.270 -0.0711  0.4958 -0.7249
  867MOL0     C16948  11.425   3.676   5.272 -1.2304  0.2769  0.8220
  867MOL0     C16949  11.524   3.561   5.279 -0.2250 -0.7013 -0.1309
  867MOL0     C16950  11.674   3.607   5.281  0.0770  0.8082 -0.2689
  867MOL0     C16951  11.760   3.482   5.267  1.2092  0.5183  0.1363
  867MOL0     C16952  11.906   3.530   5.270  0.2399 -0.4323 -0.6430
  867MOL0     C16953  12.012   3.419   5.285  0.2707 -0.6379  0.0619
  867MOL0    Cl16954  12.017   3.318   5.135 -0.4654  0.0500  0.0014
  867MOL0     C16955  10.927   3.869   5.280  0.2215 -0.5017  0.5640
  867MOL0     C16956  10.815   3.933   5.224  0.9277  0.0260 -0.2518
  867MOL0     O16957  10.447   3.795   5.173 -0.5615 -0.7495  0.1259
  867MOL0     C16958  10.405   4.112   5.010 -1.0865  0.1591 -0.4385
  867MOL0     C16959  10.310   4.187   4.949  0.1144 -0.5944 -0.9397
  867MOL0     N16960   9.562   4.068   4.551  0.3440  0.1395  0.6062
  867MOL0     N16961   9.483   3.985   4.487  0.5554  0.0444 -0.0214
  867MOL0     C16962   8.395   3.701   3.844 -0.6630 -0.7384  0.7323
  867MOL0     C16963   8.287   3.699   3.762 -0.7760 -0.5257  0.4890
  867MOL0     C16964   7.877   3.532   3.638 -0.2240  0.3119  0.8731
  867MOL0     C16965   7.744   3.571   3.689  0.1028 -0.6488  0.5156
  867MOL0     C16966   7.634   3.566   3.611  0.1834 -0.0116 -0.5389
  867MOL0     C16967   7.638   3.525   3.479 -0.0257  0.4829 -0.3780
  867MOL0     O16968   7.524   3.507   3.400 -0.4643 -0.5361  0.2542
  867MOL0     C16969   7.410   3.436   3.457  0.2227 -0.2518 -0.6065
  867MOL0     C16970   7.432   3.287   3.480 -0.0465  0.3673  0.0585
  867MOL0     C16971   7.409   3.182   3.368  0.2790 -0.4169 -0.2272
  867MOL0     C16972   7.442   3.241   3.225  0.0016  0.3447 -0.6098
  867MOL0     C16973   7.404   3.140   3.125 -0.2359  0.4475  0.3188
  867MOL0     C16974   7.367   3.055   3.051 -0.1532  0.5239 -0.1057
  867MOL0     C16975   7.760   3.483   3.427 -0.3238  0.1077  0.1752
  867MOL0     C16976   7.874   3.482   3.503  0.0294  0.2118 -1.2270
  867MOL0     C16977   7.998   3.410   3.439  0.0268  0.5143 -0.6251
  867MOL0     H16978   8.251   3.362   3.734  0.1629 -0.3102 -0.4541
  867MOL0     H16979   8.455   3.367   3.875 -0.2387  0.1067  0.8345
  867MOL0     H16980   8.647   3.749   3.980  0.7147  0.0219 -0.2100
  867MOL0     H16981   8.520   3.722   4.111  1.5010 -0.9896  3.8367
  867MOL0     H16982   8.767   3.540   4.116 -2.1226 -2.8776  0.6996
  867MOL0     H16983   8.660   3.579   4.246 -0.3587  0.3920 -1.0877
  867MOL0     H16984   8.744   3.825   4.233 -0.4783  0.9444 -0.3904
  867MOL0     H16985   8.874   3.751   4.122  0.0189 -0.8218 -0.2740
  867MOL0     H16986   8.832   3.708   4.426 -0.8569  0.0239 -0.1479
  867MOL0     H16987   8.910   3.592   4.328  3.1479  0.4134 -1.6618
  867MOL0     H16988   9.081   3.737   4.256 -1.1344  0.9949 -1.1966
  867MOL0     H16989   8.995   3.875   4.332 -0.3705 -1.3994  1.6716
  867MOL0     H16990   9.049   3.773   4.557  2.4118  3.1772 -0.1710
  867MOL0     H16991   9.100   3.626   4.486  1.5796  0.1432 -2.0422
  867MOL0     H16992   9.223   3.904   4.428  1.3514 -0.4282 -0.1092
  867MOL0     H16993   9.295   3.757   4.363  1.5331 -1.5560  1.4469
  867MOL0     H16994   9.262   3.821   4.666 -2.3188 -2.0055 -0.8528
  867MOL0     H16995   9.370   3.701   4.612  0.7648  0.1292 -0.0139
  867MOL0     H16996   9.534   3.841   4.778 -3.2625 -1.4611  0.4763
  867MOL0     H16997   9.697   4.190   4.729  2.4695 -0.6655 -1.0536
  867MOL0     H16998   9.652   4.100   4.867 -3.2678 -0.3909 -1.5811
  867MOL0     H16999   9.850   3.966   4.879  0.0866  1.0283  0.8440
  867MOL0     H17000   9.840   3.950   4.703  2.2424 -0.3047 -0.4566
  867MOL0     H17001   9.931   4.168   4.662 -1.1918 -1.0446 -2.1789
  867MOL0     H17002  10.041   4.065   4.749 -0.4416  1.8407  2.7804
  867MOL0     H17003   9.920   4.178   4.967  0.8788  0.3346  0.7182
  867MOL0     H17004   9.890   4.308   4.850 -0.6778 -0.4894  1.2737
  867MOL0     H17005  10.033   3.988   5.025  0.3420 -0.2709  0.9591
  867MOL0     H17006  10.209   3.871   5.143  0.0047 -0.4163 -0.3544
  867MOL0     H17007  10.657   3.679   5.077  2.8761 -0.9529 -1.9555
  867MOL0     H17008  10.852   3.564   5.137 -1.5525  0.9907 -1.3395
  867MOL0     H17009  11.184   3.802   5.219 -0.7522  1.1404  0.9052
  867MOL0     H17010  11.179   3.769   5.400 -1.6434  0.1477  0.6324
  867MOL0     H17011  11.273   3.544   5.349  1.3323  2.5409  1.6164
  867MOL0     H17012  11.272   3.573   5.172  1.6815 -1.7041 -0.0460
  867MOL0     H17013  11.448   3.732   5.182 -1.7651 -2.4146 -1.1223
  867MOL0     H17014  11.440   3.729   5.367 -0.2996 -1.2906  1.6064
  867MOL0     H17015  11.506   3.487   5.201 -1.1589  0.9925 -1.5898
  867MOL0     H17016  11.507   3.515   5.377  1.3319  4.9914  3.3270
  867MOL0     H17017  11.704   3.656   5.375  1.8185 -0.0800 -0.3273
  867MOL0     H17018  11.692   3.669   5.193  0.4125 -1.2299 -1.6840
  867MOL0     H17019  11.739   3.417   5.353 -0.7674  2.0911  0.9339
  867MOL0     H17020  11.737   3.435   5.171  0.6776  0.3074  0.3607
  867MOL0     H17021  11.909   3.597   5.357 -3.0260  1.5235 -1.8408
  867MOL0     H17022  11.916   3.594   5.182 -2.4959 -0.6469 -1.2000
  867MOL0     H17023  12.112   3.463   5.297  0.3186 -0.2634 -1.4991
  867MOL0     H17024  11.983   3.361   5.373  0.8463 -1.0253 -0.0001
  867MOL0     H17025  11.004   3.915   5.341  0.6742  3.9241 -2.8503
  867MOL0     H17026  10.800   4.038   5.247  0.9858  0.2985 -1.4055
  867MOL0     H17027  10.511   4.139   5.007 -0.6759 -1.4461 -0.9650
  867MOL0     H17028  10.348   4.265   4.884 -0.1090 -0.5325 -0.9954
  867MOL0     H17029   8.433   3.798   3.877 -1.3869  0.6194 -2.1383
  867MOL0     H17030   8.245   3.797   3.738  2.3239  0.1518 -3.1713
  867MOL0     H17031   7.731   3.594   3.794 -0.3243 -0.8428  0.5068
  867MOL0     H17032   7.546   3.605   3.661 -0.7098 -0.9758 -1.3089
  867MOL0     H17033   7.322   3.445   3.392 -0.5353  0.8228  0.5093
  867MOL0     H17034   7.384   3.478   3.555  0.7911 -1.2354 -0.0214
  867MOL0     H17035   7.362   3.252   3.556 -2.3897  0.3813 -1.9812
  867MOL0     H17036   7.537   3.280   3.512  0.4114  3.1220 -0.5765
  867MOL0     H17037   7.305   3.150   3.380  0.7533 -1.6815  0.7563
  867MOL0     H17038   7.474   3.097   3.388  0.5115  0.2801  2.3425
  867MOL0     H17039   7.371   3.324   3.210 -0.0639  0.3533 -0.2487
  867MOL0     H17040   7.541   3.285   3.211 -0.5877  1.4163 -1.7193
  867MOL0     H17041   7.330   2.975   2.990 -2.0645 -0.7754  2.5695
  867MOL0     H17042   7.775   3.437   3.330  2.8685 -0.4188  0.8078
  867MOL0     H17043   8.069   3.480   3.393  0.2048  1.1879  0.5995
  867MOL0     H17044   8.049   3.358   3.521 -2.0353  0.3957  0.6653
  867MOL0     H17045   7.961   3.347   3.358 -0.9568  1.9256 -1.3102
  868MOL0     O17046   8.006   8.472   3.187  0.4062  0.4725  0.5544
  868MOL0     C17047   7.926   8.428   3.104 -0.2900 -0.0952  0.5961
  868MOL0     O17048   7.969   8.342   3.006  0.3813 -0.4458  0.1571
  868MOL0     C17049   8.095   8.292   3.024  0.1311  0.1564  0.1890
  868MOL0     C17050   8.211   8.371   3.009 -0.6014  0.3098  0.1390
  868MOL0     C17051   8.338   8.313   3.011 -0.9993  0.5831 -0.3651
  868MOL0     C17052   8.352   8.173   3.022  0.4392  0.3509 -0.8055
  868MOL0     O17053   8.474   8.115   3.022  0.2041 -0.2869  0.2837
  868MOL0     C17054   8.484   7.988   3.091  1.0072  1.1732  0.0389
  868MOL0     C17055   8.626   7.935   3.098  0.1144 -0.1477 -0.2979
  868MOL0     C17056   8.694   7.935   2.957 -0.9547  0.7563 -0.1524
  868MOL0     C17057   8.837   7.892   2.982  0.4192 -0.6322 -0.6497
  868MOL0     C17058   8.907   7.839   2.851 -0.0150 -0.4779  0.3607
  868MOL0     C17059   9.060   7.847   2.850  0.0112 -0.5550 -0.0999
  868MOL0     C17060   9.111   7.778   2.726  0.3196  0.1864 -0.1148
  868MOL0     C17061   9.209   7.858   2.647 -0.2625 -0.0393  0.9379
  868MOL0     N17062   9.342   7.839   2.708  0.0526  0.0549  0.0265
  868MOL0     C17063   9.438   7.750   2.672 -0.1926  0.4861 -0.0624
  868MOL0     C17064   9.534   7.763   2.764 -0.3576 -0.3336 -0.0107
  868MOL0     C17065   9.667   7.687   2.774 -0.4216 -0.3218 -0.3940
  868MOL0     C17066   9.771   7.756   2.687  0.1628 -0.4381 -0.4591
  868MOL0     C17067   9.905   7.681   2.697 -0.1900  0.7121  0.0436
  868MOL0     C17068  10.011   7.742   2.607  0.4929  0.5097 -1.4599
  868MOL0     O17069  10.136   7.690   2.657  0.0887  0.4060  0.4108
  868MOL0     C17070  10.249   7.706   2.578  0.7031 -0.5229 -0.5834
  868MOL0     C17071  10.273   7.814   2.492  0.2783  0.1327 -1.2755
  868MOL0     C17072  10.398   7.824   2.436  0.1751 -0.0757  0.3306
  868MOL0     C17073  10.504   7.733   2.449 -0.1590  0.6966 -0.0255
  868MOL0     C17074  10.638   7.747   2.388 -0.5547 -0.2305 -0.9324
  868MOL0     O17075  10.649   7.851   2.308 -0.0491 -0.6490 -0.5638
  868MOL0     C17076  10.766   7.903   2.252 -0.2119  0.7839 -0.7941
  868MOL0     C17077  10.902   7.880   2.297  0.6733 -0.3450  0.7389
  868MOL0     C17078  11.004   7.973   2.251  0.0608 -0.7997  0.4673
  868MOL0     C17079  10.977   8.075   2.156 -0.4415  0.1112  0.7733
  868MOL0     O17080  11.083   8.152   2.122 -0.4507 -0.2404 -0.1588
  868MOL0     C17081  11.057   8.271   2.038 -0.2689 -0.2059  0.6263
  868MOL0     C17082  11.194   8.332   2.020  0.3489  0.6663 -0.1532
  868MOL0     C17083  11.171   8.451   1.925  0.2844 -0.3117  0.8351
  868MOL0     C17084  11.292   8.540   1.900 -0.1073  0.0240  0.3138
  868MOL0     C17085  11.248   8.665   1.817  0.3367 -0.2508  0.8756
  868MOL0     C17086  11.346   8.783   1.794 -0.3889  0.4872  0.0242
  868MOL0     C17087  11.377   8.856   1.918 -0.2885 -0.7915  0.1573
  868MOL0     C17088  11.528   8.906   1.904  0.5725 -0.4244  0.6650
  868MOL0    Cl17089  11.548   9.008   1.763  0.3611  0.1098  0.2581
  868MOL0     C17090  10.844   8.087   2.111 -0.3669  0.3876 -0.1205
  868MOL0     C17091  10.747   8.000   2.162  0.2896  0.5555 -0.4338
  868MOL0     O17092  10.724   7.664   2.417  0.0696  0.6780  0.1266
  868MOL0     C17093  10.477   7.623   2.530  0.2575 -0.9263 -1.1907
  868MOL0     C17094  10.345   7.614   2.593  0.0612 -0.0072 -0.1925
  868MOL0     N17095   9.495   7.855   2.860 -0.0076  0.0014  0.1812
  868MOL0     N17096   9.385   7.905   2.826  0.0243  0.2265  0.0542
  868MOL0     C17097   8.235   8.096   3.027 -1.0871 -0.0960  0.3409
  868MOL0     C17098   8.109   8.157   3.038 -0.5870  0.3883 -0.2290
  868MOL0     C17099   7.785   8.476   3.103  0.0287 -0.4089 -0.3699
  868MOL0     C17100   7.720   8.504   2.986 -0.2359 -0.0145  0.3528
  868MOL0     C17101   7.587   8.552   2.982  0.6225 -0.4536  0.4361
  868MOL0     C17102   7.523   8.593   3.103  0.1919  0.0410 -0.5409
  868MOL0     O17103   7.390   8.644   3.088  0.1964 -0.0476  0.2913
  868MOL0     C17104   7.329   8.720   3.190 -0.4499  0.0628 -0.7260
  868MOL0     C17105   7.181   8.736   3.165  0.1995 -0.2901  0.5541
  868MOL0     C17106   7.103   8.602   3.167 -0.8167 -0.6278 -0.3233
  868MOL0     C17107   6.952   8.628   3.160  0.9641 -0.1368 -0.1248
  868MOL0     C17108   6.895   8.707   3.272 -0.3517 -0.0799  0.2821
  868MOL0     C17109   6.852   8.785   3.365 -0.2912  0.0431 -0.2153
  868MOL0     C17110   7.589   8.562   3.223  0.1421 -0.3534 -0.0373
  868MOL0     C17111   7.714   8.495   3.222 -0.6877 -0.3927  0.3122
  868MOL0     C17112   7.776   8.459   3.356 -0.4692 -0.4002 -0.4888
  868MOL0     H17113   8.201   8.479   3.011 -1.3724  0.2528 -0.2643
  868MOL0     H17114   8.421   8.383   3.009  1.0858 -1.7652 -0.0376
  868MOL0     H17115   8.458   8.006   3.196  0.1500  1.0244 -0.1411
  868MOL0     H17116   8.429   7.908   3.040  2.1931  1.3166 -1.5493
  868MOL0     H17117   8.616   7.840   3.151  0.1967  0.0170  0.0169
  868MOL0     H17118   8.678   8.005   3.163 -0.8620  0.2625  0.0684
  868MOL0     H17119   8.697   8.035   2.915  0.3303  1.2666  1.0583
  868MOL0     H17120   8.655   7.863   2.884  1.3166 -0.4571 -0.2551
  868MOL0     H17121   8.889   7.986   3.004  1.3674 -0.8903 -1.7308
  868MOL0     H17122   8.847   7.829   3.071  0.5811  0.0260 -0.1873
  868MOL0     H17123   8.881   7.734   2.836  1.5674 -0.7292 -0.8403
  868MOL0     H17124   8.857   7.889   2.767 -1.7505 -0.1956  1.5020
  868MOL0     H17125   9.084   7.954   2.844 -0.9177 -0.4170 -2.2037
  868MOL0     H17126   9.097   7.803   2.943 -1.2732 -1.7876 -0.1448
  868MOL0     H17127   9.026   7.758   2.660  0.9551 -0.4989 -0.7417
  868MOL0     H17128   9.151   7.683   2.762  0.5692  0.7059  1.0432
  868MOL0     H17129   9.199   7.817   2.546  2.7973  0.5487  0.2995
  868MOL0     H17130   9.177   7.963   2.653  0.2026  0.1632  0.0562
  868MOL0     H17131   9.442   7.680   2.590  0.0079 -0.1700  0.5054
  868MOL0     H17132   9.693   7.693   2.880  0.1277  0.9563 -0.5839
  868MOL0     H17133   9.652   7.585   2.737 -0.5948 -1.2749  2.1167
  868MOL0     H17134   9.736   7.755   2.583  1.0716 -0.8267 -0.7707
  868MOL0     H17135   9.782   7.860   2.718  0.4830 -0.8725  0.9196
  868MOL0     H17136   9.890   7.576   2.669  1.2656 -0.0122  1.7841
  868MOL0     H17137   9.941   7.676   2.800  0.5726  3.0291 -0.0627
  868MOL0     H17138  10.007   7.851   2.617 -0.5256  0.4792 -1.4497
  868MOL0     H17139   9.989   7.710   2.505 -1.5755 -1.0917 -0.5922
  868MOL0     H17140  10.203   7.895   2.475 -0.3572 -0.3672 -1.0941
  868MOL0     H17141  10.408   7.911   2.372 -2.4681  0.3535  0.3701
  868MOL0     H17142  10.921   7.806   2.375  1.0266 -1.5942 -0.5044
  868MOL0     H17143  11.106   7.956   2.283  1.4405 -0.3649 -3.1386
  868MOL0     H17144  11.035   8.250   1.933 -2.4434 -1.2526  1.2352
  868MOL0     H17145  10.985   8.347   2.068 -0.9600  1.1217 -3.6732
  868MOL0     H17146  11.240   8.349   2.118 -0.9109 -2.9198  1.2168
  868MOL0     H17147  11.253   8.261   1.962  2.1403  0.3334  1.9496
  868MOL0     H17148  11.130   8.417   1.829  3.7818  0.4977 -1.1075
  868MOL0     H17149  11.088   8.512   1.963 -0.2546 -0.5928  0.1457
  868MOL0     H17150  11.367   8.491   1.837 -1.1350 -2.8594  1.1762
  868MOL0     H17151  11.338   8.568   1.995  3.6288  0.6576 -1.4832
  868MOL0     H17152  11.146   8.699   1.841  0.2413  1.5359 -1.6467
  868MOL0     H17153  11.215   8.636   1.717 -1.6428  0.3618  1.3070
  868MOL0     H17154  11.439   8.740   1.755 -0.5923  0.8793 -0.9255
  868MOL0     H17155  11.310   8.840   1.708 -2.4147 -2.1603 -0.9913
  868MOL0     H17156  11.352   8.798   2.007  0.3349  1.5398  1.9692
  868MOL0     H17157  11.315   8.946   1.926 -1.7266 -1.7952  0.6026
  868MOL0     H17158  11.544   8.963   1.996  1.1909  0.1206  0.2287
  868MOL0     H17159  11.607   8.831   1.907  1.0761  0.1157  1.3865
  868MOL0     H17160  10.807   8.152   2.032 -0.1294  0.8986  0.1805
  868MOL0     H17161  10.648   7.999   2.118  0.8072  2.0374 -1.7696
  868MOL0     H17162  10.549   7.544   2.552 -0.4627 -1.1334  0.6245
  868MOL0     H17163  10.312   7.532   2.658 -0.2071  1.7744  2.0467
  868MOL0     H17164   8.238   7.989   3.042  0.9524 -0.7820 -3.5471
  868MOL0     H17165   8.024   8.096   3.066 -2.3375  3.5685  1.9668
  868MOL0     H17166   7.766   8.490   2.888  1.9398  3.2168  0.7688
  868MOL0     H17167   7.537   8.569   2.888  2.4038 -0.9508 -0.6484
  868MOL0     H17168   7.390   8.810   3.189  1.8666 -1.4027 -2.3481
  868MOL0     H17169   7.339   8.664   3.284 -1.2990  0.7376 -0.2192
  868MOL0     H17170   7.170   8.773   3.063 -1.2642 -1.0509  0.4234
  868MOL0     H17171   7.143   8.806   3.240  0.7278  2.7209 -1.8040
  868MOL0     H17172   7.114   8.545   3.259 -2.0141 -0.4027 -0.0271
  868MOL0     H17173   7.136   8.544   3.081  2.9675  1.4687 -0.5316
  868MOL0     H17174   6.934   8.686   3.068 -0.6234 -1.6292 -0.7935
  868MOL0     H17175   6.905   8.530   3.164  2.1833 -0.7005  1.6334
  868MOL0     H17176   6.822   8.852   3.443 -1.1001 -1.7818  1.1385
  868MOL0     H17177   7.543   8.583   3.320 -1.7701 -1.4723 -0.6508
  868MOL0     H17178   7.849   8.378   3.352  0.1511  0.2083 -2.6488
  868MOL0     H17179   7.838   8.538   3.398  1.3595 -1.0203 -1.8867
  868MOL0     H17180   7.698   8.439   3.431  1.7305 -2.0166  1.5066
  869MOL0     O17181   3.307  10.292   3.453 -0.3640 -0.2225  0.2470
  869MOL0     C17182   3.398  10.373   3.446  0.7020 -0.1031  0.5559
  869MOL0     O17183   3.373  10.504   3.438 -0.3077 -0.3602 -0.4267
  869MOL0     C17184   3.243  10.544   3.434  0.8633  0.0722 -0.5248
  869MOL0     C17185   3.189  10.598   3.319  0.7520 -0.0864 -0.0008
  869MOL0     C17186   3.058  10.656   3.317 -1.3164  0.1063  0.0500
  869MOL0     C17187   2.991  10.679   3.438  0.5228  0.4434  0.0207
  869MOL0     O17188   2.873  10.743   3.443  0.1601 -0.3003  0.2919
  869MOL0     C17189   2.773  10.662   3.368 -0.1706  0.1549  0.6198
  869MOL0     C17190   2.631  10.704   3.401 -0.0231  0.0730 -0.1401
  869MOL0     C17191   2.528  10.608   3.349 -0.4153  0.0132  0.6866
  869MOL0     C17192   2.401  10.663   3.393 -0.2633  0.3324 -0.3622
  869MOL0     C17193   2.278  10.657   3.299 -0.0197  0.6126  0.3701
  869MOL0     C17194   2.178  10.774   3.334 -0.4364 -0.4192 -0.4355
  869MOL0     C17195   2.066  10.783   3.225 -0.5467 -0.6686  0.5487
  869MOL0     C17196   1.962  10.889   3.277  0.4032 -0.3122  0.4149
  869MOL0     N17197   2.019  11.029   3.283  0.7602  0.4074  0.2620
  869MOL0     C17198   2.072  11.094   3.178 -0.2167  0.2414  0.3068
  869MOL0     C17199   2.119  11.204   3.234  0.1473 -0.8408 -0.0454
  869MOL0     C17200   2.202  11.297   3.150  0.4923 -1.1369  0.5482
  869MOL0     C17201   2.109  11.399   3.073  0.4210  0.1499 -0.0905
  869MOL0     C17202   2.187  11.480   2.970  1.3541  1.1488 -0.2077
  869MOL0     C17203   2.317  11.552   3.008  0.2648  0.5233 -0.1390
  869MOL0     O17204   2.409  11.447   3.021  0.3022  0.1138  0.0883
  869MOL0     C17205   2.541  11.478   3.014 -0.7542  0.2617  0.6488
  869MOL0     C17206   2.615  11.466   3.124  0.7401 -0.5690 -0.1810
  869MOL0     C17207   2.750  11.503   3.132 -0.2789  0.5181  0.6748
  869MOL0     C17208   2.804  11.567   3.020  1.0033 -0.6531  0.0822
  869MOL0     C17209   2.944  11.623   3.023  0.2698  0.3096 -0.0082
  869MOL0     O17210   2.982  11.709   2.920 -0.6264  0.0898 -0.0250
  869MOL0     C17211   3.106  11.765   2.917 -0.0634 -0.6659  0.2322
  869MOL0     C17212   3.151  11.861   3.003  0.2283  0.3840 -0.4098
  869MOL0     C17213   3.284  11.909   3.007  0.7631 -0.0073  0.0775
  869MOL0     C17214   3.374  11.854   2.915 -0.3370  0.0230 -0.3391
  869MOL0     O17215   3.505  11.892   2.919  0.2070 -0.4361  0.1738
  869MOL0     C17216   3.594  11.779   2.898  0.1743 -0.5259 -0.2231
  869MOL0     C17217   3.736  11.824   2.905 -0.8971  0.8425  0.2675
  869MOL0     C17218   3.785  11.886   3.035  0.3482 -0.4845 -0.0601
  869MOL0     C17219   3.934  11.874   3.037  0.5583  0.0578  0.0668
  869MOL0     C17220   4.010  11.938   3.156 -0.3500 -0.3674  0.5497
  869MOL0     C17221   4.162  11.919   3.142  0.0632 -0.3117 -0.1755
  869MOL0     C17222   4.227  11.994   3.257  0.1147 -0.6911  0.1709
  869MOL0     C17223   4.382  11.979   3.237 -0.9696 -0.2962  0.3067
  869MOL0    Cl17224   4.449  12.043   3.089 -0.1085  0.0760 -0.3424
  869MOL0     C17225   3.327  11.761   2.818 -0.3150  0.2110  0.2433
  869MOL0     C17226   3.191  11.721   2.821 -0.6828  0.2027 -0.6306
  869MOL0     O17227   3.015  11.596   3.129 -0.0305  0.6047  0.6431
  869MOL0     C17228   2.731  11.580   2.901 -0.7521  0.0759  0.2585
  869MOL0     C17229   2.592  11.535   2.893 -0.1302 -0.0325 -0.6248
  869MOL0     N17230   2.084  11.215   3.366  0.3686 -0.2757 -0.3694
  869MOL0     N17231   2.016  11.113   3.392  0.6454 -0.4471  0.0404
  869MOL0     C17232   3.045  10.631   3.556  0.3254  0.6622 -0.0664
  869MOL0     C17233   3.170  10.567   3.552  0.0542  0.6992 -0.2549
  869MOL0     C17234   3.536  10.322   3.441  0.5249 -0.4018 -0.0353
  869MOL0     C17235   3.613  10.359   3.331 -0.8117  0.0803 -0.2203
  869MOL0     C17236   3.746  10.339   3.331 -1.6031  0.2754 -1.0306
  869MOL0     C17237   3.813  10.260   3.433  0.3922  0.3651 -0.1978
  869MOL0     O17238   3.950  10.242   3.419  0.0029  0.3428 -0.5262
  869MOL0     C17239   4.012  10.182   3.532 -0.4545 -0.5478  0.1112
  869MOL0     C17240   4.153  10.131   3.510 -0.5047  0.2523 -0.1371
  869MOL0     C17241   4.157   9.986   3.452  0.0875  0.8938  0.5111
  869MOL0     C17242   4.072   9.952   3.327  0.1653  0.2847  0.2605
  869MOL0     C17243   4.093   9.821   3.283  0.0471  0.1850  0.2528
  869MOL0     C17244   4.118   9.701   3.252  0.7050  0.0344  0.1072
  869MOL0     C17245   3.732  10.224   3.541 -0.1404  0.8231 -0.2428
  869MOL0     C17246   3.593  10.244   3.543  0.0874 -0.6730  0.2599
  869MOL0     C17247   3.500  10.219   3.666  0.1233 -0.0382  0.4664
  869MOL0     H17248   3.251  10.598   3.230  0.4647  1.0784 -0.2145
  869MOL0     H17249   3.013  10.689   3.224  2.4863  0.9241 -1.6952
  869MOL0     H17250   2.786  10.672   3.260  0.7958 -0.6372  0.6509
  869MOL0     H17251   2.787  10.558   3.398  0.0531  0.5259  1.8743
  869MOL0     H17252   2.618  10.801   3.353 -1.7458 -0.1350 -0.1427
  869MOL0     H17253   2.622  10.721   3.509  3.0025  0.7057  0.1173
  869MOL0     H17254   2.528  10.506   3.388 -0.8065  0.3219  1.5025
  869MOL0     H17255   2.536  10.613   3.240 -1.7055  0.1021  0.5820
  869MOL0     H17256   2.392  10.606   3.485  0.3244 -0.9536 -1.0714
  869MOL0     H17257   2.405  10.767   3.427 -0.5608  0.0437  0.5814
  869MOL0     H17258   2.302  10.683   3.195 -3.1846  1.5669 -0.2145
  869MOL0     H17259   2.241  10.554   3.298 -0.5367  0.7697 -1.4929
  869MOL0     H17260   2.133  10.757   3.432 -1.4184 -0.8724 -0.9550
  869MOL0     H17261   2.234  10.868   3.333 -2.2903  0.7384 -0.8177
  869MOL0     H17262   2.020  10.685   3.206  0.2644 -0.3568 -4.0349
  869MOL0     H17263   2.105  10.815   3.128 -1.2663 -0.3106  0.3691
  869MOL0     H17264   1.867  10.878   3.224  0.9880 -1.8417 -0.3950
  869MOL0     H17265   1.931  10.863   3.379  0.6159 -0.9312  0.3275
  869MOL0     H17266   2.104  11.062   3.080  2.2835 -0.3186  1.2329
  869MOL0     H17267   2.269  11.357   3.213 -0.5132 -2.1436  2.7097
  869MOL0     H17268   2.264  11.235   3.086  0.4278 -0.9786  0.3327
  869MOL0     H17269   2.027  11.340   3.033  1.5772 -2.2044  0.8237
  869MOL0     H17270   2.057  11.466   3.142  0.6314  0.6146 -0.3780
  869MOL0     H17271   2.113  11.558   2.948 -0.4913 -0.7626 -1.1489
  869MOL0     H17272   2.199  11.424   2.877 -0.5021 -0.6096  0.5309
  869MOL0     H17273   2.307  11.614   3.098  0.8796  2.6834 -1.4797
  869MOL0     H17274   2.346  11.622   2.929  0.8324  1.4716  0.8699
  869MOL0     H17275   2.556  11.421   3.204 -1.9248  0.1742 -1.6316
  869MOL0     H17276   2.810  11.500   3.222  2.9195  0.5436 -1.3174
  869MOL0     H17277   3.071  11.885   3.073  1.1819  2.7619 -0.0422
  869MOL0     H17278   3.320  11.988   3.072 -0.2594  2.3050 -1.9908
  869MOL0     H17279   3.572  11.695   2.966 -0.4708 -0.3662 -0.2239
  869MOL0     H17280   3.581  11.734   2.799  2.3228 -3.9141  0.8453
  869MOL0     H17281   3.800  11.735   2.896 -2.4726 -0.2083 -1.0485
  869MOL0     H17282   3.757  11.878   2.812 -0.5916  0.4351  0.0957
  869MOL0     H17283   3.743  11.985   3.058  1.6492 -0.0844  0.7359
  869MOL0     H17284   3.758  11.832   3.127  0.2918 -1.2402 -0.5182
  869MOL0     H17285   3.980  11.917   2.947  2.2848  1.4494  1.5360
  869MOL0     H17286   3.955  11.768   3.047 -0.4450  0.0599  3.0310
  869MOL0     H17287   3.977  11.894   3.250  0.5847 -2.2833  0.0475
  869MOL0     H17288   3.989  12.045   3.156 -2.2299 -0.6682  2.4690
  869MOL0     H17289   4.187  11.812   3.138 -1.6748 -0.7863  0.4497
  869MOL0     H17290   4.193  11.963   3.046 -1.9081  0.2507 -0.6036
  869MOL0     H17291   4.199  11.945   3.351  0.3558  0.8621  1.1019
  869MOL0     H17292   4.203  12.101   3.259 -0.0191 -0.7282  1.2022
  869MOL0     H17293   4.424  12.036   3.321 -0.3423 -0.0702 -0.1560
  869MOL0     H17294   4.412  11.874   3.241  2.5874  0.5463 -1.0703
  869MOL0     H17295   3.390  11.718   2.741  0.6311 -0.5971  1.4418
  869MOL0     H17296   3.159  11.660   2.738 -1.3729  0.6037 -0.6678
  869MOL0     H17297   2.765  11.630   2.811 -0.6621  1.9099  1.2704
  869MOL0     H17298   2.534  11.540   2.801  0.2512  2.1997 -0.8031
  869MOL0     H17299   2.990  10.649   3.648  0.5645  2.1030 -0.1756
  869MOL0     H17300   3.221  10.550   3.647  1.2555  0.1322 -0.9753
  869MOL0     H17301   3.562  10.401   3.244 -0.4299  0.3391 -0.3201
  869MOL0     H17302   3.812  10.376   3.253 -0.4866 -0.7988 -0.6377
  869MOL0     H17303   3.952  10.101   3.576  0.8116 -1.3805  0.3604
  869MOL0     H17304   4.026  10.258   3.609 -1.3793 -0.8991  0.6480
  869MOL0     H17305   4.193  10.115   3.611 -0.6045  1.9338  0.1953
  869MOL0     H17306   4.212  10.195   3.444 -0.4111  0.9069  0.5671
  869MOL0     H17307   4.139   9.922   3.538  0.3816 -0.4213 -0.3802
  869MOL0     H17308   4.261   9.967   3.425  0.8760 -0.5844  4.0282
  869MOL0     H17309   3.965   9.967   3.343  0.2547 -0.9757  2.4026
  869MOL0     H17310   4.099  10.013   3.240  2.6155 -0.2789  0.5682
  869MOL0     H17311   4.123   9.598   3.225  0.3087 -0.0505  0.3490
  869MOL0     H17312   3.773  10.179   3.631  0.9737  0.9505 -0.6584
  869MOL0     H17313   3.450  10.122   3.655 -2.5832  1.3757 -0.6561
  869MOL0     H17314   3.569  10.228   3.751  0.2883 -0.7903  0.4206
  869MOL0     H17315   3.419  10.292   3.678 -0.2803 -0.2454 -0.8511
  870MOL0     O17316   7.080   1.378   9.228  1.0351 -0.6986  0.1562
  870MOL0     C17317   7.102   1.267   9.273 -0.5408  0.3435 -0.1245
  870MOL0     O17318   7.220   1.235   9.326  0.3745  0.0741 -0.6639
  870MOL0     C17319   7.347   1.282   9.293 -0.2669  0.4578 -0.0707
  870MOL0     C17320   7.369   1.380   9.188  0.4743  0.8834  0.3118
  870MOL0     C17321   7.508   1.415   9.169 -0.5597  1.0869 -0.4456
  870MOL0     C17322   7.614   1.357   9.244  0.2542 -0.0305 -1.2243
  870MOL0     O17323   7.749   1.382   9.202  0.4312  0.6478 -0.5436
  870MOL0     C17324   7.860   1.311   9.258 -0.1052 -0.4400 -0.0004
  870MOL0     C17325   7.986   1.342   9.187 -0.4768  0.0050  0.0508
  870MOL0     C17326   8.013   1.498   9.185  0.7536  0.9011  0.6982
  870MOL0     C17327   8.156   1.517   9.187 -0.4792 -0.8126 -0.0519
  870MOL0     C17328   8.207   1.644   9.112  0.1486  0.4690 -0.5249
  870MOL0     C17329   8.361   1.645   9.109  1.1902  0.1052  0.2549
  870MOL0     C17330   8.423   1.762   9.025  0.1126  0.1737  0.1105
  870MOL0     C17331   8.566   1.726   9.003 -0.1258 -0.3208 -0.6687
  870MOL0     N17332   8.665   1.836   9.010 -0.3438 -0.2545 -0.3751
  870MOL0     C17333   8.743   1.869   9.123  1.2116 -0.0070  0.2515
  870MOL0     C17334   8.811   1.976   9.073 -0.3304 -0.6658 -0.3839
  870MOL0     C17335   8.895   2.063   9.162  0.0530  0.3452  0.2500
  870MOL0     C17336   9.040   2.039   9.144  0.9070  0.1591 -0.2744
  870MOL0     C17337   9.129   2.099   9.250  0.8257  0.9696  0.2359
  870MOL0     C17338   9.273   2.116   9.205  0.1867 -0.6648 -0.5224
  870MOL0     O17339   9.349   1.993   9.193  0.4212  1.0864  0.0272
  870MOL0     C17340   9.482   1.996   9.155 -0.1181  0.3448 -0.0082
  870MOL0     C17341   9.562   2.111   9.141  0.4997 -0.0067 -0.6730
  870MOL0     C17342   9.692   2.111   9.097 -0.0414  0.1881 -0.6034
  870MOL0     C17343   9.753   1.991   9.058  0.3659  0.3972  0.5831
  870MOL0     C17344   9.884   1.995   8.988 -0.1014 -0.1778  0.3954
  870MOL0     O17345   9.910   1.875   8.915  0.3546 -0.3273 -0.2051
  870MOL0     C17346   9.993   1.876   8.806 -0.0675 -0.8368 -0.7153
  870MOL0     C17347  10.007   1.744   8.748 -0.1880 -0.5056 -0.3735
  870MOL0     C17348  10.103   1.720   8.651  0.0268  0.7251 -0.7245
  870MOL0     C17349  10.185   1.827   8.612  0.5124  0.3099  0.0837
  870MOL0     O17350  10.297   1.816   8.532 -0.0903 -0.6521  0.0707
  870MOL0     C17351  10.324   1.689   8.478 -0.5561 -0.5502  0.2841
  870MOL0     C17352  10.433   1.724   8.373 -0.2124  0.3893  0.4762
  870MOL0     C17353  10.556   1.762   8.455 -0.1099  0.1309 -0.2509
  870MOL0     C17354  10.676   1.784   8.373 -0.2719 -0.7855  0.0795
  870MOL0     C17355  10.781   1.673   8.381  0.5229  0.2854 -0.2777
  870MOL0     C17356  10.896   1.686   8.278 -0.8517  0.7807 -0.0386
  870MOL0     C17357  10.974   1.556   8.256 -0.7253 -0.5739  0.0510
  870MOL0     C17358  11.096   1.582   8.171  0.2399  1.3124 -0.1347
  870MOL0    Cl17359  11.215   1.702   8.237 -0.2577  0.1262  0.0525
  870MOL0     C17360  10.167   1.956   8.662 -0.4686 -0.5187  0.1342
  870MOL0     C17361  10.061   1.984   8.752 -0.2816  0.0967 -0.7120
  870MOL0     O17362   9.962   2.089   9.006 -0.0512  0.1998 -0.0587
  870MOL0     C17363   9.669   1.882   9.055  0.7486  0.7644  0.8355
  870MOL0     C17364   9.540   1.880   9.104  0.0228  0.3667 -0.1952
  870MOL0     N17365   8.783   1.993   8.939  0.4302 -0.3169 -0.1883
  870MOL0     N17366   8.707   1.908   8.891 -0.2244 -0.1200  0.4326
  870MOL0     C17367   7.584   1.266   9.344 -0.7938 -0.2156  0.5916
  870MOL0     C17368   7.452   1.232   9.384 -0.7739  0.5556  0.1781
  870MOL0     C17369   6.993   1.174   9.303  0.3136  0.3972 -0.4961
  870MOL0     C17370   7.007   1.087   9.408  0.5166  0.5601 -0.5450
  870MOL0     C17371   6.899   1.001   9.447  0.5324  0.3867 -0.0388
  870MOL0     C17372   6.785   0.994   9.380  0.0198  0.1048  0.0731
  870MOL0     O17373   6.685   0.901   9.404  0.4646  0.1505  0.3025
  870MOL0     C17374   6.713   0.766   9.454 -0.5924  0.6926 -0.1993
  870MOL0     C17375   6.608   0.665   9.396 -0.2248 -0.6516  0.4842
  870MOL0     C17376   6.463   0.700   9.437 -0.3182  0.4785  0.3895
  870MOL0     C17377   6.443   0.735   9.582 -0.0404  0.2530 -1.1075
  870MOL0     C17378   6.311   0.709   9.638  0.2478 -0.0803  0.2832
  870MOL0     C17379   6.204   0.670   9.685 -0.1740 -0.8198  0.0269
  870MOL0     C17380   6.763   1.090   9.274  0.7973  0.1630  0.2995
  870MOL0     C17381   6.861   1.178   9.242 -1.3059 -0.5924  0.4195
  870MOL0     C17382   6.813   1.284   9.145 -0.6546 -0.3964 -0.9853
  870MOL0     H17383   7.293   1.418   9.120 -1.4723 -3.6266 -0.4071
  870MOL0     H17384   7.525   1.480   9.083  0.3323 -1.2870 -2.1674
  870MOL0     H17385   7.867   1.341   9.363 -0.0971  1.3275 -0.4729
  870MOL0     H17386   7.843   1.204   9.244 -0.0163 -0.2834 -1.4942
  870MOL0     H17387   7.977   1.292   9.090  1.5225 -1.0967  0.3677
  870MOL0     H17388   8.066   1.288   9.239 -1.2100 -0.5014  0.6651
  870MOL0     H17389   7.972   1.557   9.268 -0.4816  1.8102 -0.5042
  870MOL0     H17390   7.966   1.539   9.095 -0.3960  1.9613  1.7495
  870MOL0     H17391   8.194   1.517   9.289 -1.1430 -1.5706  0.2060
  870MOL0     H17392   8.201   1.432   9.135  0.0969 -0.8552  0.5045
  870MOL0     H17393   8.178   1.619   9.010  0.5274 -2.5046 -0.0147
  870MOL0     H17394   8.166   1.738   9.151  2.1338  2.1456 -2.2668
  870MOL0     H17395   8.391   1.650   9.214  0.4286  3.0666  0.4185
  870MOL0     H17396   8.398   1.555   9.059  0.3897  0.6425 -1.3553
  870MOL0     H17397   8.410   1.857   9.078 -0.4187  0.2484 -0.1417
  870MOL0     H17398   8.376   1.766   8.926  1.2205 -3.0761 -0.6574
  870MOL0     H17399   8.592   1.661   9.087 -1.9590 -0.1145  0.1143
  870MOL0     H17400   8.580   1.671   8.910 -0.7317 -0.8534 -0.4596
  870MOL0     H17401   8.761   1.826   9.221 -0.1236 -2.6752 -0.5890
  870MOL0     H17402   8.860   2.166   9.153  0.4206  0.3724 -1.0240
  870MOL0     H17403   8.875   2.025   9.263  2.6731  1.5364  1.3011
  870MOL0     H17404   9.062   1.932   9.138  1.3526  0.1492  1.1193
  870MOL0     H17405   9.055   2.074   9.042 -0.4992 -1.1805 -0.9698
  870MOL0     H17406   9.134   2.035   9.339  2.7787  2.7974  1.5412
  870MOL0     H17407   9.085   2.196   9.273 -3.2590 -0.8555  0.9749
  870MOL0     H17408   9.330   2.182   9.271  1.2026 -0.0789 -1.9276
  870MOL0     H17409   9.278   2.168   9.108  0.3107  0.1507 -0.0879
  870MOL0     H17410   9.522   2.206   9.175  2.2346  0.7490 -0.6862
  870MOL0     H17411   9.735   2.210   9.114 -3.2506  1.4111  1.4818
  870MOL0     H17412   9.945   1.659   8.773 -0.1251 -0.0931  1.2909
  870MOL0     H17413  10.118   1.619   8.614  4.4024  1.0620 -0.4661
  870MOL0     H17414  10.361   1.627   8.561 -0.6353  1.5452  1.9599
  870MOL0     H17415  10.238   1.646   8.425 -1.1094 -2.4935  2.5729
  870MOL0     H17416  10.454   1.637   8.309 -1.2316  1.7686 -1.8765
  870MOL0     H17417  10.399   1.801   8.304  0.4698 -1.1755 -1.7291
  870MOL0     H17418  10.536   1.859   8.501 -2.1923  0.8626 -2.4560
  870MOL0     H17419  10.572   1.697   8.541 -1.7635  1.8023  1.4055
  870MOL0     H17420  10.730   1.877   8.396 -0.6717 -0.8376  1.3229
  870MOL0     H17421  10.645   1.796   8.269  3.1686 -0.4528 -1.0343
  870MOL0     H17422  10.729   1.577   8.371  0.0239  0.5514 -0.2682
  870MOL0     H17423  10.831   1.675   8.478  2.1137 -0.1393 -1.0496
  870MOL0     H17424  10.852   1.715   8.182 -2.2778 -0.6614  0.1259
  870MOL0     H17425  10.965   1.762   8.316  0.5436  0.4856 -1.8187
  870MOL0     H17426  10.909   1.483   8.206 -0.2927 -1.0668  0.2075
  870MOL0     H17427  10.998   1.514   8.354  0.6464 -0.8531 -0.3859
  870MOL0     H17428  11.148   1.487   8.156  1.1851  1.5824  1.2275
  870MOL0     H17429  11.064   1.605   8.069  0.8061  0.4632 -0.5158
  870MOL0     H17430  10.238   2.029   8.625 -1.2256  0.2101  0.0933
  870MOL0     H17431  10.050   2.081   8.800 -1.3319  0.3961 -1.5113
  870MOL0     H17432   9.708   1.784   9.030  2.2236  1.6515 -0.5496
  870MOL0     H17433   9.473   1.795   9.100  1.9858 -1.4025  1.7687
  870MOL0     H17434   7.660   1.220   9.406  0.6613  1.1189 -0.1568
  870MOL0     H17435   7.419   1.175   9.470  1.5612 -0.3723  0.5387
  870MOL0     H17436   7.098   1.082   9.468 -0.8629  1.6804  1.8003
  870MOL0     H17437   6.922   0.943   9.536  1.5155 -1.9679 -1.7390
  870MOL0     H17438   6.720   0.772   9.563  0.4573 -2.0939 -0.0372
  870MOL0     H17439   6.816   0.740   9.427 -0.7711 -0.1413 -0.0820
  870MOL0     H17440   6.632   0.560   9.414  1.4004 -0.1483  1.4078
  870MOL0     H17441   6.610   0.662   9.286  0.4173 -0.3608  0.4835
  870MOL0     H17442   6.396   0.615   9.422  0.8494 -1.2111  3.8172
  870MOL0     H17443   6.429   0.789   9.382 -2.2705  0.7652  1.9521
  870MOL0     H17444   6.504   0.676   9.652 -0.7808 -0.5758 -1.1371
  870MOL0     H17445   6.467   0.840   9.595  2.1602 -0.2311 -0.8890
  870MOL0     H17446   6.112   0.662   9.740 -0.7273  1.2434 -0.4880
  870MOL0     H17447   6.668   1.086   9.222 -0.0417  0.5134  1.7592
  870MOL0     H17448   6.830   1.387   9.178 -2.0156 -1.0498  2.1792
  870MOL0     H17449   6.874   1.265   9.056 -1.5052 -3.3880 -1.0489
  870MOL0     H17450   6.707   1.270   9.121 -0.8581  0.1731 -0.4531
  871MOL0     O17451  10.019   3.680   2.543 -0.8631  0.3456  0.1822
  871MOL0     C17452  10.031   3.645   2.424  0.1350  1.0346 -0.1176
  871MOL0     O17453  10.141   3.649   2.347 -0.2599 -0.5530 -0.4873
  871MOL0     C17454  10.252   3.707   2.411  0.6723  0.5019  0.0589
  871MOL0     C17455  10.316   3.630   2.508 -0.1818  0.1801  0.6920
  871MOL0     C17456  10.439   3.684   2.576  0.4207 -0.3438 -0.5332
  871MOL0     C17457  10.491   3.810   2.543  0.5769 -0.8549  0.9113
  871MOL0     O17458  10.605   3.847   2.607  0.0651 -0.6515  0.7429
  871MOL0     C17459  10.662   3.976   2.569 -0.3364  0.7960  0.4813
  871MOL0     C17460  10.786   4.002   2.652 -0.7336 -0.4622 -0.1963
  871MOL0     C17461  10.909   3.933   2.584 -0.0681 -0.7779 -0.8630
  871MOL0     C17462  10.962   4.014   2.464 -0.8104 -0.3110  0.0774
  871MOL0     C17463  11.104   3.976   2.411  0.5653 -0.3467 -0.7845
  871MOL0     C17464  11.109   3.830   2.364 -0.7078  0.2636  0.5360
  871MOL0     C17465  11.245   3.809   2.292 -0.6150  0.2943 -0.5997
  871MOL0     C17466  11.361   3.839   2.384 -0.5154 -0.3264 -0.9277
  871MOL0     N17467  11.488   3.782   2.341  0.6337  0.4118 -0.3543
  871MOL0     C17468  11.539   3.661   2.389 -0.8605 -0.2647 -0.0018
  871MOL0     C17469  11.657   3.654   2.331  0.2998 -0.1887  0.5186
  871MOL0     C17470  11.753   3.540   2.351 -0.4496 -0.2387  0.5912
  871MOL0     C17471  11.806   3.513   2.486 -0.0182 -0.0069  0.0630
  871MOL0     C17472  11.710   3.498   2.593  0.8091 -0.5915  0.4021
  871MOL0     C17473  11.775   3.462   2.726  0.0829  0.2133  0.1439
  871MOL0     O17474  11.813   3.327   2.739  0.1780 -0.4349  0.0979
  871MOL0     C17475  11.946   3.295   2.736 -0.2774  0.7087  0.1774
  871MOL0     C17476  12.051   3.374   2.691  0.0069 -0.5062  0.3549
  871MOL0     C17477  12.184   3.323   2.690  1.0945 -1.3125 -0.5436
  871MOL0     C17478  12.207   3.193   2.740 -0.1161 -0.1764 -0.5674
  871MOL0     C17479  12.351   3.150   2.747 -0.3275  0.5885 -0.6895
  871MOL0     O17480  12.378   3.059   2.838 -0.5583 -0.3485 -0.0629
  871MOL0     C17481  12.510   3.044   2.884 -0.4492 -0.6963  0.8134
  871MOL0     C17482  12.573   2.919   2.897 -0.4065 -0.1288  0.7869
  871MOL0     C17483  12.700   2.898   2.957  0.5267  0.7403 -0.4538
  871MOL0     C17484  12.760   3.010   3.022 -0.0065  0.6000 -0.7140
  871MOL0     O17485  12.878   2.989   3.089 -0.5734 -0.2227  0.4976
  871MOL0     C17486  12.964   3.094   3.118  0.7652 -0.9057 -0.0909
  871MOL0     C17487  13.076   3.040   3.208 -0.0625 -0.4513  0.0721
  871MOL0     C17488  13.172   2.944   3.141  0.7060  0.2692  0.4584
  871MOL0     C17489  13.257   2.861   3.239  0.3781 -0.6666  0.1075
  871MOL0     C17490  13.415   2.861   3.215  0.5916  0.4269 -0.1819
  871MOL0     C17491  13.473   3.005   3.221 -0.4984  0.4034  0.3811
  871MOL0     C17492  13.621   2.983   3.241  0.3258  0.3990  0.1714
  871MOL0     C17493  13.696   3.108   3.246 -0.7082 -0.0421  0.1823
  871MOL0    Cl17494  13.880   3.101   3.276  0.0387 -0.3656  0.3883
  871MOL0     C17495  12.704   3.131   2.996 -0.4082 -0.0304 -0.1944
  871MOL0     C17496  12.587   3.157   2.926  0.8203 -0.2161 -0.8673
  871MOL0     O17497  12.429   3.202   2.665  0.0916 -0.3901 -0.1853
  871MOL0     C17498  12.097   3.104   2.775 -0.3749 -0.2758  0.2896
  871MOL0     C17499  11.964   3.157   2.771 -0.1986 -0.5688  0.2382
  871MOL0     N17500  11.690   3.772   2.269  1.1467 -0.8704 -0.6097
  871MOL0     N17501  11.587   3.850   2.284  0.5684 -0.5294  0.6792
  871MOL0     C17502  10.409   3.889   2.455 -0.7148 -0.9863 -0.3590
  871MOL0     C17503  10.299   3.835   2.389 -0.4355 -0.5851  0.6416
  871MOL0     C17504   9.905   3.603   2.359  0.5350  0.6152 -0.8325
  871MOL0     C17505   9.894   3.632   2.221  0.2846 -0.6240 -0.1184
  871MOL0     C17506   9.779   3.596   2.150 -0.9826 -0.5171 -0.5621
  871MOL0     C17507   9.667   3.552   2.220 -1.0805 -0.3179  0.2271
  871MOL0     O17508   9.569   3.511   2.138  0.1602 -1.2699 -0.1034
  871MOL0     C17509   9.442   3.479   2.195  0.6865  0.2702 -0.2705
  871MOL0     C17510   9.346   3.433   2.077 -0.0802  0.8053 -0.2129
  871MOL0     C17511   9.216   3.394   2.150 -0.0371  0.4574  1.3714
  871MOL0     C17512   9.129   3.313   2.043  0.3218 -0.1451 -0.3726
  871MOL0     C17513   9.031   3.404   1.985 -0.0437  0.2025 -0.3593
  871MOL0     C17514   8.950   3.471   1.920  0.0127  0.0988 -0.6304
  871MOL0     C17515   9.671   3.525   2.359 -0.2854  0.3648  0.2485
  871MOL0     C17516   9.786   3.537   2.427 -1.3918  0.3128 -0.7632
  871MOL0     C17517   9.777   3.496   2.572 -0.1098  0.0577  0.8852
  871MOL0     H17518  10.263   3.539   2.533 -0.1143  0.1040  0.5569
  871MOL0     H17519  10.499   3.650   2.660 -2.0290  0.1647  1.5556
  871MOL0     H17520  10.694   3.975   2.465  2.4726 -0.2306  1.2608
  871MOL0     H17521  10.593   4.061   2.577  3.6701  4.8091 -2.5361
  871MOL0     H17522  10.764   3.956   2.748 -0.9200  0.7664  0.3598
  871MOL0     H17523  10.811   4.107   2.668 -2.6354  0.6182 -3.4176
  871MOL0     H17524  10.896   3.830   2.549  2.8498 -0.5326 -3.0832
  871MOL0     H17525  10.986   3.936   2.662 -0.8074  1.1880 -0.1471
  871MOL0     H17526  10.890   4.007   2.382 -0.4419  0.8442 -0.3634
  871MOL0     H17527  10.964   4.115   2.508  2.0374 -0.1685 -0.1355
  871MOL0     H17528  11.125   4.049   2.333  1.7674 -0.4846 -0.6119
  871MOL0     H17529  11.169   3.978   2.499 -1.0586 -1.2154  0.4855
  871MOL0     H17530  11.094   3.751   2.439 -2.7838 -2.2189 -2.2169
  871MOL0     H17531  11.030   3.810   2.292 -1.5059  1.9510  0.9039
  871MOL0     H17532  11.249   3.876   2.206  3.4272 -0.1121 -0.8942
  871MOL0     H17533  11.247   3.704   2.263 -1.8151 -0.5995  2.1679
  871MOL0     H17534  11.375   3.947   2.396  3.2008 -0.6863 -0.8765
  871MOL0     H17535  11.336   3.796   2.481 -1.3362 -0.2184 -1.0805
  871MOL0     H17536  11.493   3.590   2.457  1.4044  1.0316  3.1206
  871MOL0     H17537  11.712   3.445   2.314 -0.9633  0.9097 -1.9927
  871MOL0     H17538  11.838   3.572   2.290 -1.5836  1.0770 -0.3474
  871MOL0     H17539  11.873   3.427   2.475  0.0320 -0.0623  0.7622
  871MOL0     H17540  11.879   3.588   2.516 -1.0913  1.9347 -1.9071
  871MOL0     H17541  11.630   3.428   2.566  0.7134 -0.0446 -0.7695
  871MOL0     H17542  11.652   3.589   2.608  1.1788 -0.1054 -1.0032
  871MOL0     H17543  11.693   3.477   2.798  0.0341 -3.3737  1.0171
  871MOL0     H17544  11.859   3.529   2.745  0.8805 -1.0663  1.2370
  871MOL0     H17545  12.041   3.478   2.663 -1.1918 -0.5423  0.6031
  871MOL0     H17546  12.273   3.375   2.659  0.8878 -0.1245  0.7700
  871MOL0     H17547  12.523   2.830   2.863  2.0798 -1.2712 -0.1595
  871MOL0     H17548  12.744   2.799   2.961 -0.0092  0.5043 -0.1697
  871MOL0     H17549  13.004   3.138   3.026 -1.6918  1.4877 -0.1390
  871MOL0     H17550  12.928   3.177   3.180  1.8924 -0.2001 -0.3484
  871MOL0     H17551  13.133   3.128   3.237 -0.2104  0.3005 -1.8352
  871MOL0     H17552  13.014   3.002   3.290 -1.0812  0.9757 -0.0064
  871MOL0     H17553  13.111   2.870   3.090  1.8190 -0.5631  0.2919
  871MOL0     H17554  13.241   2.997   3.074 -0.3821  1.2343  0.0773
  871MOL0     H17555  13.209   2.763   3.243  2.0980 -1.5604 -0.2286
  871MOL0     H17556  13.248   2.902   3.340 -0.8088  1.0647 -0.6523
  871MOL0     H17557  13.437   2.802   3.125 -3.2182  1.0345 -1.7044
  871MOL0     H17558  13.452   2.806   3.302 -0.9756  0.4407  0.5279
  871MOL0     H17559  13.464   3.046   3.120 -2.0347 -3.6335 -1.3182
  871MOL0     H17560  13.422   3.066   3.297 -0.0520 -0.6136  1.5235
  871MOL0     H17561  13.659   2.921   3.160 -1.6325  1.0566 -1.3262
  871MOL0     H17562  13.634   2.932   3.337  1.4021 -2.6218 -1.4680
  871MOL0     H17563  13.668   3.168   3.159 -0.9647  0.7082  0.7638
  871MOL0     H17564  13.663   3.171   3.329 -1.3165 -1.1856  0.8272
  871MOL0     H17565  12.764   3.212   3.037  2.9112 -0.7820 -3.1132
  871MOL0     H17566  12.547   3.257   2.925  0.4688 -0.3559 -1.8985
  871MOL0     H17567  12.109   3.000   2.803 -1.3449  0.0130  1.9087
  871MOL0     H17568  11.879   3.098   2.801  0.7051 -1.3264  1.4014
  871MOL0     H17569  10.436   3.990   2.424 -1.9807 -0.8890 -1.2415
  871MOL0     H17570  10.240   3.902   2.327 -0.5326  0.4324  1.7928
  871MOL0     H17571   9.976   3.664   2.158 -0.6251 -1.3941 -1.7695
  871MOL0     H17572   9.785   3.595   2.042  3.6421 -1.1622 -0.4860
  871MOL0     H17573   9.398   3.562   2.250  0.1799 -1.7643  2.6220
  871MOL0     H17574   9.445   3.389   2.257 -0.1236  1.0482  0.9245
  871MOL0     H17575   9.392   3.346   2.029 -0.1421 -0.2867  1.5843
  871MOL0     H17576   9.326   3.507   1.999 -0.9077 -0.5738 -1.3564
  871MOL0     H17577   9.161   3.476   2.196  0.5690  1.3441  0.5339
  871MOL0     H17578   9.231   3.326   2.235  0.4885  0.5870  1.3835
  871MOL0     H17579   9.186   3.256   1.968  0.0967 -0.9484  0.0482
  871MOL0     H17580   9.073   3.240   2.103 -2.2328  1.1507 -1.0170
  871MOL0     H17581   8.885   3.534   1.863 -0.9727  0.5918  0.9569
  871MOL0     H17582   9.583   3.496   2.415 -0.6001  0.7205 -0.0637
  871MOL0     H17583   9.754   3.577   2.641  1.1620  0.7656  0.5073
  871MOL0     H17584   9.706   3.414   2.583  2.7004 -2.8350 -0.7535
  871MOL0     H17585   9.877   3.458   2.595  0.7011  1.5882  0.0443
  872MOL0     O17586  11.183   2.769   9.428 -0.0606  0.0555  0.8579
  872MOL0     C17587  11.115   2.856   9.482 -0.5807 -0.5760  0.1918
  872MOL0     O17588  11.161   2.925   9.587 -0.0178 -0.1734 -0.3813
  872MOL0     C17589  11.286   2.915   9.638  0.8298 -0.0220  0.9036
  872MOL0     C17590  11.333   2.794   9.709  0.0300 -0.2257  0.3715
  872MOL0     C17591  11.451   2.799   9.779  0.0950  0.1008  0.2930
  872MOL0     C17592  11.536   2.907   9.774 -0.1394 -0.9015 -0.4676
  872MOL0     O17593  11.647   2.935   9.848 -0.2571  0.2665 -0.0408
  872MOL0     C17594  11.719   2.816   9.864  0.2434 -0.3840 -0.0007
  872MOL0     C17595  11.860   2.840   9.919 -0.2923 -0.6292  0.2661
  872MOL0     C17596  11.944   2.709   9.916  0.2198 -0.2167  0.0645
  872MOL0     C17597  12.068   2.707  10.008 -0.4176 -0.9167  0.1442
  872MOL0     C17598  12.165   2.593   9.985 -0.5026 -0.1515  0.1145
  872MOL0     C17599  12.282   2.597  10.079  0.1595 -0.2225  0.5857
  872MOL0     C17600  12.378   2.479  10.065  0.7551  0.1707  0.2520
  872MOL0     C17601  12.502   2.468  10.156 -0.1162 -0.5084  0.1992
  872MOL0     N17602  12.593   2.362  10.106 -0.3368 -0.1244 -0.1367
  872MOL0     C17603  12.700   2.386  10.022  0.2347 -1.2152 -0.1060
  872MOL0     C17604  12.742   2.268   9.977 -0.4445 -0.1400 -0.2250
  872MOL0     C17605  12.863   2.268   9.885 -0.0257 -0.5846  0.4634
  872MOL0     C17606  12.821   2.209   9.755  0.0291  0.6299  0.3590
  872MOL0     C17607  12.922   2.208   9.642 -0.3999 -0.0343  0.8119
  872MOL0     C17608  13.046   2.123   9.669  0.4202 -0.5909 -0.0350
  872MOL0     O17609  13.159   2.198   9.736  0.3219  0.0860  0.0552
  872MOL0     C17610  13.286   2.132   9.763  0.0925 -1.0822 -0.0458
  872MOL0     C17611  13.300   1.999   9.747  0.0832 -0.1985  0.7228
  872MOL0     C17612  13.418   1.940   9.770 -0.6864 -0.3223  0.7197
  872MOL0     C17613  13.534   2.014   9.788  0.5496 -0.7207 -0.9614
  872MOL0     C17614  13.670   1.959   9.792 -0.4776  0.0332 -0.3198
  872MOL0     O17615  13.777   2.034   9.798 -0.2510 -0.3214  0.0212
  872MOL0     C17616  13.903   1.976   9.790  0.8348  1.0567  0.5859
  872MOL0     C17617  13.973   1.932   9.908 -0.1909  0.5705  0.2185
  872MOL0     C17618  14.106   1.896   9.890 -0.0192  0.2512  0.2819
  872MOL0     C17619  14.165   1.883   9.762 -0.4659  0.2292  0.5036
  872MOL0     O17620  14.291   1.829   9.756  0.2270  0.4316  0.0130
  872MOL0     C17621  14.384   1.883   9.658 -0.1335 -0.4526  0.1487
  872MOL0     C17622  14.533   1.849   9.691  0.3783 -0.4895  0.1452
  872MOL0     C17623  14.572   1.697   9.690 -0.4238  0.1812  1.1592
  872MOL0     C17624  14.723   1.686   9.656 -0.1661  0.4655 -0.6166
  872MOL0     C17625  14.776   1.538   9.644 -0.1959  0.5188  0.0079
  872MOL0     C17626  14.918   1.548   9.580  0.3538  0.2773 -0.7738
  872MOL0     C17627  14.962   1.407   9.552 -0.9642 -0.6048  0.4014
  872MOL0     C17628  15.110   1.412   9.489 -0.1414  0.0010  0.1009
  872MOL0    Cl17629  15.228   1.471   9.608  0.0158 -0.2040  0.0478
  872MOL0     C17630  14.089   1.909   9.651 -0.3816  0.7504  0.1045
  872MOL0     C17631  13.963   1.960   9.662  0.0873  0.1770  0.0940
  872MOL0     O17632  13.669   1.839   9.794 -0.5867  0.0634  0.2492
  872MOL0     C17633  13.520   2.151   9.811  0.3679 -0.6304  0.6637
  872MOL0     C17634  13.394   2.208   9.791 -0.2639 -0.0673 -0.2973
  872MOL0     N17635  12.680   2.169  10.048  0.6220 -0.3694  0.5029
  872MOL0     N17636  12.587   2.228  10.119 -0.9657 -0.9321 -0.0550
  872MOL0     C17637  11.487   3.019   9.697 -0.3704 -0.1137  0.3795
  872MOL0     C17638  11.365   3.025   9.631  0.1571 -0.7762  0.4032
  872MOL0     C17639  10.995   2.897   9.412  0.3849 -0.2552  0.7423
  872MOL0     C17640  10.915   2.789   9.363 -0.0506  0.1584 -0.7032
  872MOL0     C17641  10.790   2.817   9.311  0.6268  0.3158  0.2770
  872MOL0     C17642  10.743   2.943   9.294  0.1410 -0.0656 -0.0141
  872MOL0     O17643  10.633   2.957   9.215  0.9106  0.0107 -0.7734
  872MOL0     C17644  10.569   3.086   9.203 -0.3143  0.0153  0.3166
  872MOL0     C17645  10.467   3.081   9.092 -0.0330 -0.4599  0.4668
  872MOL0     C17646  10.419   3.225   9.050 -0.3742  0.0425 -0.1771
  872MOL0     C17647  10.345   3.220   8.918 -0.1297 -1.2816  0.1181
  872MOL0     C17648  10.332   3.357   8.856 -0.0866  0.7826 -0.0746
  872MOL0     C17649  10.308   3.468   8.816 -0.0162  0.2287 -0.6033
  872MOL0     C17650  10.819   3.054   9.344  0.7670  0.6921  0.0603
  872MOL0     C17651  10.943   3.036   9.411 -0.6236 -0.3639 -0.2324
  872MOL0     C17652  11.010   3.155   9.479  0.2252 -0.8842 -0.0063
  872MOL0     H17653  11.266   2.708   9.716 -1.5471  0.8650 -0.7659
  872MOL0     H17654  11.471   2.713   9.842 -0.2285  0.1450  0.4553
  872MOL0     H17655  11.667   2.759   9.941 -0.0321 -1.0605 -0.6801
  872MOL0     H17656  11.728   2.762   9.769 -2.3189  0.1064 -0.6195
  872MOL0     H17657  11.859   2.882  10.020  1.0110 -0.5790  0.2790
  872MOL0     H17658  11.901   2.919   9.856  0.0566  1.3499  2.7835
  872MOL0     H17659  11.968   2.679   9.813 -3.1455 -1.9576 -0.3453
  872MOL0     H17660  11.885   2.624   9.952  3.4450 -2.1091  1.3286
  872MOL0     H17661  12.127   2.798   9.996  1.5922 -2.1200  0.3617
  872MOL0     H17662  12.037   2.712  10.113 -0.1098 -0.2575  0.2082
  872MOL0     H17663  12.114   2.497   9.993  0.0363 -0.4279  0.2972
  872MOL0     H17664  12.190   2.601   9.878 -2.1027 -2.0161 -0.4665
  872MOL0     H17665  12.331   2.691  10.054 -0.5200 -0.1314 -0.4646
  872MOL0     H17666  12.230   2.604  10.174 -2.1802 -1.9640 -0.4714
  872MOL0     H17667  12.423   2.488   9.965  2.3572  4.5588  1.1527
  872MOL0     H17668  12.313   2.391  10.077 -0.5110  0.9012 -0.9039
  872MOL0     H17669  12.565   2.558  10.163  1.9580 -1.8715  0.0341
  872MOL0     H17670  12.470   2.444  10.258  1.7593 -1.7798  0.5324
  872MOL0     H17671  12.738   2.481   9.986  0.8094 -1.6450 -0.6369
  872MOL0     H17672  12.910   2.364   9.863 -0.5728  0.0883  2.1045
  872MOL0     H17673  12.934   2.200   9.933  0.9405 -0.4875 -0.7614
  872MOL0     H17674  12.787   2.106   9.768  2.6697 -0.3595  0.1108
  872MOL0     H17675  12.729   2.253   9.716 -0.4802 -0.3519  0.4088
  872MOL0     H17676  12.946   2.313   9.623  0.0680 -0.0215  1.4491
  872MOL0     H17677  12.880   2.169   9.549 -0.0642  0.1634  0.5748
  872MOL0     H17678  13.081   2.083   9.573 -0.8978  0.9761 -1.2279
  872MOL0     H17679  13.016   2.033   9.723  0.9409 -1.2792 -0.8729
  872MOL0     H17680  13.212   1.943   9.717 -0.8660  1.1945  0.7940
  872MOL0     H17681  13.432   1.833   9.765  0.7488 -0.1142 -0.4816
  872MOL0     H17682  13.933   1.941  10.008  0.3346  2.0592  0.3198
  872MOL0     H17683  14.171   1.867   9.972  2.4107  1.5261 -1.0878
  872MOL0     H17684  14.358   1.855   9.556 -2.5678  0.1202  0.5423
  872MOL0     H17685  14.384   1.992   9.655  5.8004 -0.1560 -0.5920
  872MOL0     H17686  14.585   1.908   9.616  0.5203 -2.6366 -1.5617
  872MOL0     H17687  14.558   1.889   9.790  2.1576 -1.9068  0.3267
  872MOL0     H17688  14.565   1.656   9.791 -3.4411  0.3601  1.1195
  872MOL0     H17689  14.510   1.633   9.626  2.0885 -1.7771  0.5109
  872MOL0     H17690  14.794   1.738   9.721 -0.0978  1.3472 -1.3745
  872MOL0     H17691  14.734   1.747   9.565 -1.5751  4.1676  1.4834
  872MOL0     H17692  14.708   1.476   9.587 -1.7656  1.9996  0.1990
  872MOL0     H17693  14.789   1.494   9.744 -0.8728 -2.6509 -1.1807
  872MOL0     H17694  14.892   1.600   9.487 -0.7758  1.7545  0.3138
  872MOL0     H17695  14.983   1.608   9.644  3.0381 -1.9618 -1.2038
  872MOL0     H17696  14.893   1.360   9.481 -4.1749  2.0212  1.5325
  872MOL0     H17697  14.967   1.351   9.646 -0.5710 -0.3358  0.5452
  872MOL0     H17698  15.134   1.311   9.457 -2.3364 -0.3096 -0.7265
  872MOL0     H17699  15.117   1.474   9.399  1.1256  1.7243  1.3023
  872MOL0     H17700  14.132   1.894   9.552  2.4418  0.9479  1.2158
  872MOL0     H17701  13.906   1.991   9.576  1.1188 -0.0638 -0.6915
  872MOL0     H17702  13.608   2.206   9.841 -0.9403  0.5787  2.5480
  872MOL0     H17703  13.374   2.314   9.804 -2.9796 -0.5859  0.1663
  872MOL0     H17704  11.541   3.113   9.698 -0.2941 -0.1343 -0.9663
  872MOL0     H17705  11.343   3.120   9.583  0.4054 -1.4391 -1.0560
  872MOL0     H17706  10.945   2.686   9.382  1.6015  0.8531  0.6792
  872MOL0     H17707  10.722   2.739   9.278  0.2384  0.1186  1.4864
  872MOL0     H17708  10.649   3.157   9.183 -1.8874  2.1495  1.2604
  872MOL0     H17709  10.523   3.121   9.296 -2.5468 -1.4939 -0.1337
  872MOL0     H17710  10.378   3.029   9.128  0.1396 -1.5804 -0.6699
  872MOL0     H17711  10.506   3.031   9.003 -2.4205 -2.8417  0.6534
  872MOL0     H17712  10.504   3.293   9.051 -1.2234  1.1404 -0.8497
  872MOL0     H17713  10.358   3.262   9.132  0.0075 -0.9170  0.5607
  872MOL0     H17714  10.391   3.154   8.844 -0.1250  2.4675 -3.5879
  872MOL0     H17715  10.247   3.186   8.950 -2.5433  4.9562  0.8024
  872MOL0     H17716  10.284   3.565   8.777  3.7079  1.1613 -0.9761
  872MOL0     H17717  10.784   3.156   9.333 -1.1221  0.3176  2.0169
  872MOL0     H17718  10.972   3.252   9.445  0.6206 -0.5945  0.3626
  872MOL0     H17719  10.995   3.147   9.587  1.3939  0.3050  0.2712
  872MOL0     H17720  11.119   3.157   9.470  0.1051  2.6735 -3.4105
  873MOL0     O17721   4.337   7.332   2.027  0.0752 -0.2898 -0.2627
  873MOL0     C17722   4.244   7.280   2.097 -0.0675 -0.5062  0.1106
  873MOL0     O17723   4.270   7.237   2.215  0.4524  0.7040  0.2615
  873MOL0     C17724   4.387   7.260   2.280 -0.0995  0.1738  0.3541
  873MOL0     C17725   4.490   7.171   2.283  0.4186  0.0955  0.7727
  873MOL0     C17726   4.596   7.182   2.368 -0.2313  0.4975 -0.3237
  873MOL0     C17727   4.612   7.298   2.437 -0.0132 -0.2559  0.0087
  873MOL0     O17728   4.725   7.311   2.515 -1.1239  0.2816  0.5412
  873MOL0     C17729   4.703   7.366   2.643  0.4502 -0.1490  0.1156
  873MOL0     C17730   4.827   7.342   2.730 -0.2158 -0.1213  0.7937
  873MOL0     C17731   4.950   7.421   2.676  0.8181 -0.2393 -0.3693
  873MOL0     C17732   5.072   7.401   2.765  0.3048 -0.0526  0.6461
  873MOL0     C17733   5.172   7.504   2.730 -0.1407 -0.0463  0.7541
  873MOL0     C17734   5.321   7.468   2.747  0.1927 -0.6351 -0.8303
  873MOL0     C17735   5.346   7.393   2.886  0.6578 -0.0923  0.3623
  873MOL0     C17736   5.480   7.428   2.945  0.5323  0.0152 -0.0909
  873MOL0     N17737   5.521   7.352   3.066  0.4526  0.3528 -0.3177
  873MOL0     C17738   5.617   7.247   3.057 -0.0879 -0.1805  0.4560
  873MOL0     C17739   5.651   7.226   3.188  0.2543 -0.4807  0.7455
  873MOL0     C17740   5.765   7.143   3.236 -1.0242 -0.0018  0.0227
  873MOL0     C17741   5.707   7.010   3.283 -0.1578 -0.3707  0.7208
  873MOL0     C17742   5.818   6.915   3.324  0.3374  0.3551  0.4933
  873MOL0     C17743   5.870   6.823   3.206  0.6574 -0.0515  0.0981
  873MOL0     O17744   5.909   6.893   3.087  0.1737 -0.2448  0.1682
  873MOL0     C17745   6.017   6.848   3.011 -1.1863 -0.0918  0.1247
  873MOL0     C17746   6.072   6.946   2.921  0.3828 -0.4434 -0.5210
  873MOL0     C17747   6.189   6.916   2.844  1.0734 -0.1152  0.7238
  873MOL0     C17748   6.253   6.791   2.849  0.5348 -0.6894  1.1324
  873MOL0     C17749   6.368   6.748   2.762  0.1320 -0.7798 -0.6532
  873MOL0     O17750   6.398   6.612   2.746 -0.5679 -0.6388  0.2695
  873MOL0     C17751   6.488   6.562   2.652  0.0336  0.0289  0.3867
  873MOL0     C17752   6.479   6.422   2.633 -0.7300 -0.6259 -0.9426
  873MOL0     C17753   6.594   6.351   2.572 -0.5526 -0.7312 -0.2769
  873MOL0     C17754   6.690   6.423   2.516  0.5091 -0.9117 -0.6944
  873MOL0     O17755   6.787   6.369   2.452 -0.2064  0.7791 -0.0497
  873MOL0     C17756   6.905   6.331   2.529 -0.7136  0.1204 -0.6718
  873MOL0     C17757   7.015   6.436   2.489  0.8539 -0.7727 -0.1790
  873MOL0     C17758   7.047   6.435   2.338 -0.2805 -0.7563 -0.3335
  873MOL0     C17759   7.177   6.500   2.291 -0.6114  0.0595 -0.4655
  873MOL0     C17760   7.306   6.432   2.333  0.1512  0.8904  0.0563
  873MOL0     C17761   7.436   6.516   2.285  0.7694 -0.8618  0.0626
  873MOL0     C17762   7.558   6.456   2.339 -0.4029  1.0094 -0.0569
  873MOL0     C17763   7.682   6.539   2.298 -0.3031  0.2203  0.3951
  873MOL0    Cl17764   7.832   6.443   2.330  0.3196  0.0104  0.0762
  873MOL0     C17765   6.696   6.562   2.528  0.1269  0.1920 -0.3665
  873MOL0     C17766   6.602   6.629   2.605 -0.6730  0.0848 -0.0039
  873MOL0     O17767   6.415   6.844   2.701  0.2041 -0.1041  0.5055
  873MOL0     C17768   6.194   6.693   2.933 -0.5072 -0.0291 -0.1892
  873MOL0     C17769   6.078   6.722   3.014 -0.9309 -0.3377 -0.0859
  873MOL0     N17770   5.590   7.318   3.267 -0.3970  0.4553  0.0622
  873MOL0     N17771   5.516   7.393   3.193  0.2460  0.7846 -0.8113
  873MOL0     C17772   4.512   7.393   2.445 -0.4923 -0.4949 -0.3734
  873MOL0     C17773   4.404   7.374   2.364 -0.4435  0.1574 -0.1068
  873MOL0     C17774   4.106   7.281   2.048  0.4555  0.5311  0.0880
  873MOL0     C17775   4.014   7.194   2.110  0.0889  0.9693  1.0934
  873MOL0     C17776   3.882   7.176   2.055 -0.3634  0.2117  0.0779
  873MOL0     C17777   3.825   7.257   1.954 -0.0423  0.8522  0.3452
  873MOL0     O17778   3.708   7.258   1.882  0.5627  0.6377 -0.0597
  873MOL0     C17779   3.615   7.147   1.886  1.1754 -0.1001 -0.2983
  873MOL0     C17780   3.524   7.159   2.012 -0.3130 -0.5468  0.1562
  873MOL0     C17781   3.469   7.300   2.028  1.3047  0.2628  0.4267
  873MOL0     C17782   3.357   7.300   2.129 -0.9850  0.2691 -0.4626
  873MOL0     C17783   3.231   7.252   2.069 -0.6229 -0.3744  0.3071
  873MOL0     C17784   3.126   7.223   2.018 -0.3024  0.1380  0.2643
  873MOL0     C17785   3.918   7.350   1.907  0.4016 -0.2989  0.3480
  873MOL0     C17786   4.055   7.358   1.943  0.1681 -0.0490 -1.4000
  873MOL0     C17787   4.142   7.449   1.861 -0.0765  0.2843 -0.2967
  873MOL0     H17788   4.480   7.079   2.226  0.5954  0.0856  0.7573
  873MOL0     H17789   4.677   7.110   2.368 -0.0479  0.7012  0.3842
  873MOL0     H17790   4.685   7.474   2.640 -0.1177 -0.2440 -0.1825
  873MOL0     H17791   4.621   7.314   2.693  0.6847  0.3389  1.0294
  873MOL0     H17792   4.852   7.236   2.722  0.9899  0.2150 -0.4676
  873MOL0     H17793   4.808   7.367   2.835 -0.5444 -0.3315  0.7819
  873MOL0     H17794   4.923   7.527   2.668  0.2320 -0.4835 -2.1284
  873MOL0     H17795   4.983   7.393   2.575  0.0572  1.5575 -1.1754
  873MOL0     H17796   5.040   7.408   2.869  1.5013 -0.6703  1.0768
  873MOL0     H17797   5.100   7.297   2.744 -1.0436 -0.2775 -0.1480
  873MOL0     H17798   5.159   7.536   2.627 -4.8056 -0.3638  1.0285
  873MOL0     H17799   5.144   7.590   2.791 -0.8191  1.3514 -1.4417
  873MOL0     H17800   5.343   7.408   2.659 -0.7833 -1.8381 -0.2802
  873MOL0     H17801   5.371   7.565   2.742 -0.5719 -0.0407  1.5880
  873MOL0     H17802   5.352   7.286   2.866 -1.0387 -0.1026 -0.1983
  873MOL0     H17803   5.271   7.411   2.963  1.2319 -0.9755  1.1580
  873MOL0     H17804   5.548   7.395   2.866  0.2224 -2.0736  0.4594
  873MOL0     H17805   5.490   7.532   2.976 -0.7644  0.0268  0.3613
  873MOL0     H17806   5.661   7.191   2.975  1.9985  0.5215  1.0134
  873MOL0     H17807   5.839   7.131   3.156  2.0218  0.1852  2.5868
  873MOL0     H17808   5.820   7.197   3.314 -0.6044  0.2459 -0.4306
  873MOL0     H17809   5.642   7.042   3.365 -0.5532  1.5350 -0.2846
  873MOL0     H17810   5.648   6.972   3.200  0.6843  0.6979 -0.3913
  873MOL0     H17811   5.791   6.851   3.408 -1.2574 -1.8549 -1.5666
  873MOL0     H17812   5.897   6.982   3.360 -0.1407  0.0289  2.2352
  873MOL0     H17813   5.789   6.754   3.182  2.6363 -1.9173 -1.6135
  873MOL0     H17814   5.952   6.762   3.243  1.2873  1.3714  1.1437
  873MOL0     H17815   6.017   7.040   2.924  0.5262 -0.3859  0.7847
  873MOL0     H17816   6.228   6.990   2.775 -1.6095  0.3765 -0.3943
  873MOL0     H17817   6.392   6.369   2.671  0.0305 -2.3357 -1.4648
  873MOL0     H17818   6.588   6.243   2.564  2.3687 -1.0711  0.9061
  873MOL0     H17819   6.899   6.336   2.638 -0.9619  4.1473 -0.7223
  873MOL0     H17820   6.943   6.231   2.504 -0.5477 -0.5310  1.9373
  873MOL0     H17821   6.970   6.532   2.517  1.2509 -0.9877  1.3214
  873MOL0     H17822   7.103   6.427   2.554 -0.3939  2.9359  2.3540
  873MOL0     H17823   7.063   6.333   2.302 -0.3666 -0.5236 -1.0485
  873MOL0     H17824   6.968   6.477   2.276  1.2561  0.4312 -1.5870
  873MOL0     H17825   7.179   6.607   2.317 -3.7124  0.1949 -0.4882
  873MOL0     H17826   7.173   6.497   2.182 -0.1208 -0.7058 -0.4733
  873MOL0     H17827   7.303   6.334   2.286  0.1330  1.2491 -0.6923
  873MOL0     H17828   7.293   6.406   2.439  3.5954 -1.7818  0.0301
  873MOL0     H17829   7.447   6.526   2.176  0.2337 -0.0468  0.0721
  873MOL0     H17830   7.424   6.618   2.323 -1.2615 -0.8903 -0.4082
  873MOL0     H17831   7.572   6.356   2.296 -1.5654 -0.8985  3.6120
  873MOL0     H17832   7.547   6.436   2.446  2.5520 -1.8480 -0.1192
  873MOL0     H17833   7.682   6.571   2.194  1.2161  0.8869  0.5770
  873MOL0     H17834   7.672   6.638   2.344  0.0906  0.7111 -0.5550
  873MOL0     H17835   6.784   6.613   2.489 -0.6024  0.9108 -1.1194
  873MOL0     H17836   6.615   6.735   2.627  2.5917  0.2633 -2.0514
  873MOL0     H17837   6.229   6.592   2.946  1.7737  0.6735 -0.3992
  873MOL0     H17838   6.047   6.638   3.076 -3.2301 -0.3975 -1.1941
  873MOL0     H17839   4.533   7.489   2.490  1.9893 -0.4209 -1.5109
  873MOL0     H17840   4.323   7.447   2.364  0.7618  1.5520 -0.3703
  873MOL0     H17841   4.039   7.132   2.196  0.3158 -1.3806 -0.5771
  873MOL0     H17842   3.821   7.097   2.097 -0.7398  0.2395 -0.4052
  873MOL0     H17843   3.652   7.045   1.875 -1.5768 -1.3058  0.5989
  873MOL0     H17844   3.544   7.152   1.802  1.6700 -0.7789 -0.7590
  873MOL0     H17845   3.592   7.135   2.094 -0.2228 -0.0731  0.2189
  873MOL0     H17846   3.447   7.082   1.999 -0.7131  0.1232 -1.7943
  873MOL0     H17847   3.423   7.330   1.933 -1.0986 -2.1286  0.7215
  873MOL0     H17848   3.548   7.368   2.061  0.2364 -0.0705  4.0840
  873MOL0     H17849   3.386   7.242   2.217  1.2191  0.5545 -0.9278
  873MOL0     H17850   3.339   7.404   2.158  2.1366  1.5137 -2.3840
  873MOL0     H17851   3.029   7.191   1.985  1.0521 -0.1618 -4.0251
  873MOL0     H17852   3.879   7.422   1.835  0.9325 -1.1090 -0.7678
  873MOL0     H17853   4.213   7.394   1.799 -1.2238 -1.3237 -0.2483
  873MOL0     H17854   4.075   7.515   1.805 -1.0267 -0.1941  0.2526
  873MOL0     H17855   4.209   7.520   1.910  0.8473 -0.2545 -0.7541
  874MOL0     O17856   5.032   9.832   5.349  0.0625 -0.2717  0.3250
  874MOL0     C17857   4.960   9.869   5.252 -0.7162  0.6019  0.8523
  874MOL0     O17858   4.996   9.965   5.158 -0.0427 -0.2115  0.1425
  874MOL0     C17859   5.117  10.034   5.171 -0.1801  0.3923  0.2012
  874MOL0     C17860   5.226   9.970   5.101  0.2330 -0.4045  0.3550
  874MOL0     C17861   5.354  10.024   5.118  0.0835 -0.2352  0.5841
  874MOL0     C17862   5.374  10.140   5.198  0.7064 -0.6201 -0.5470
  874MOL0     O17863   5.502  10.178   5.221 -0.4298  0.3620 -0.4541
  874MOL0     C17864   5.540  10.305   5.259  0.5251  0.2106 -0.7863
  874MOL0     C17865   5.693  10.331   5.284 -0.3647  0.2992 -0.0521
  874MOL0     C17866   5.786  10.282   5.170 -0.9562  0.1346  0.3676
  874MOL0     C17867   5.923  10.303   5.223 -0.4128  0.2562  0.7182
  874MOL0     C17868   5.958  10.191   5.321  0.0204 -0.0008 -0.3143
  874MOL0     C17869   6.103  10.197   5.345  0.3342  0.1633 -0.2065
  874MOL0     C17870   6.145  10.133   5.483  0.9119 -0.3272 -0.4914
  874MOL0     C17871   6.277  10.196   5.539 -0.3646  0.9869 -0.1881
  874MOL0     N17872   6.379  10.143   5.456 -0.1524  0.5609  0.7040
  874MOL0     C17873   6.424  10.011   5.432  0.0307 -0.1629 -0.2090
  874MOL0     C17874   6.525  10.024   5.339 -0.4004  0.0598  0.0131
  874MOL0     C17875   6.595   9.913   5.276  0.4179  0.5942 -0.0341
  874MOL0     C17876   6.704   9.949   5.175 -0.3519 -0.7139  0.1911
  874MOL0     C17877   6.784   9.822   5.130 -0.2204 -0.1754 -0.3002
  874MOL0     C17878   6.902   9.861   5.045 -0.1776  0.2886 -0.4040
  874MOL0     O17879   7.000   9.929   5.129 -0.2287 -0.3023 -0.3274
  874MOL0     C17880   7.136   9.918   5.106  0.0587 -0.2807  0.1336
  874MOL0     C17881   7.193   9.790   5.080 -0.6042 -0.0856 -0.1735
  874MOL0     C17882   7.335   9.774   5.073  0.4369 -0.2163 -0.4212
  874MOL0     C17883   7.419   9.881   5.086  0.3481 -0.3856 -0.0149
  874MOL0     C17884   7.565   9.879   5.065 -0.6612  0.1574 -0.0888
  874MOL0     O17885   7.626  10.001   5.045  0.0291  0.4944 -0.3883
  874MOL0     C17886   7.762  10.003   5.018 -0.1561 -0.2407 -0.4609
  874MOL0     C17887   7.818   9.933   4.913 -0.4829 -0.0464  0.0919
  874MOL0     C17888   7.952   9.931   4.885  0.1255 -0.3122 -0.2030
  874MOL0     C17889   8.048  10.005   4.962 -1.0501  0.5914  0.5984
  874MOL0     O17890   8.182   9.979   4.930 -0.0918  0.5481  0.0575
  874MOL0     C17891   8.278  10.022   5.026 -0.1785 -0.0382  0.2869
  874MOL0     C17892   8.414   9.961   4.978 -0.3181 -0.5356 -0.2131
  874MOL0     C17893   8.457   9.992   4.832  0.0407  0.3978 -0.1406
  874MOL0     C17894   8.430   9.875   4.742  0.0415 -0.4901 -0.3030
  874MOL0     C17895   8.438   9.919   4.593  0.0214  0.4555  0.0472
  874MOL0     C17896   8.579   9.967   4.552 -1.0319  0.2289  0.3091
  874MOL0     C17897   8.589   9.975   4.401 -0.4064  0.2069 -0.6003
  874MOL0     C17898   8.726  10.024   4.355 -0.0523  0.4367  0.1281
  874MOL0    Cl17899   8.760  10.194   4.397 -0.1155 -0.1020  0.1292
  874MOL0     C17900   7.993  10.085   5.062 -0.3801  0.1444 -0.7430
  874MOL0     C17901   7.852  10.084   5.086  0.0104 -0.2261 -0.2417
  874MOL0     O17902   7.629   9.772   5.078  0.1939 -0.3640  0.0744
  874MOL0     C17903   7.363  10.005   5.123  0.3318 -0.4287 -0.0102
  874MOL0     C17904   7.222  10.021   5.126  0.2076  0.1047  0.5076
  874MOL0     N17905   6.532  10.159   5.308 -0.1951  0.1912 -1.1327
  874MOL0     N17906   6.461  10.228   5.390 -0.1155  0.3953  1.1304
  874MOL0     C17907   5.262  10.214   5.252 -0.4697  0.0052  0.4264
  874MOL0     C17908   5.134  10.151   5.237 -0.5624  0.7503  0.7306
  874MOL0     C17909   4.827   9.804   5.241 -0.5855 -0.7188  0.1718
  874MOL0     C17910   4.720   9.882   5.186  0.1112 -0.1536 -0.7933
  874MOL0     C17911   4.590   9.829   5.176  0.2339 -0.1794 -0.1987
  874MOL0     C17912   4.556   9.700   5.222  0.1773 -0.4399  1.0937
  874MOL0     O17913   4.429   9.652   5.227  0.2555  0.4156  0.6981
  874MOL0     C17914   4.316   9.725   5.169  0.2776  0.1738 -0.7554
  874MOL0     C17915   4.191   9.643   5.195  0.0241  1.2060  0.1376
  874MOL0     C17916   4.058   9.717   5.199  0.2606 -0.6507  0.3959
  874MOL0     C17917   3.936   9.626   5.222  0.2535 -0.7418 -0.4095
  874MOL0     C17918   3.921   9.560   5.092  0.0841  0.5159 -0.0932
  874MOL0     C17919   3.918   9.498   4.984 -0.5928 -0.2693 -0.0610
  874MOL0     C17920   4.659   9.630   5.274 -0.0449  0.8664 -0.3107
  874MOL0     C17921   4.795   9.674   5.278  0.2206 -0.4336  0.6156
  874MOL0     C17922   4.899   9.573   5.313  0.3961 -0.2928  0.0830
  874MOL0     H17923   5.198   9.890   5.033 -2.0017  0.7987 -0.2501
  874MOL0     H17924   5.444   9.976   5.081  1.0630  2.5897 -0.9792
  874MOL0     H17925   5.505  10.379   5.186  0.5710  0.8737 -0.1454
  874MOL0     H17926   5.496  10.325   5.357  1.5258  2.8663 -0.7915
  874MOL0     H17927   5.710  10.268   5.372 -0.3618 -1.5218 -1.2993
  874MOL0     H17928   5.718  10.433   5.315 -1.8092  0.4026  0.8429
  874MOL0     H17929   5.771  10.341   5.079  2.2183  0.7686  0.1701
  874MOL0     H17930   5.753  10.179   5.154 -0.2148 -0.7575  3.7320
  874MOL0     H17931   5.995  10.296   5.141 -1.0218 -0.8100  0.2606
  874MOL0     H17932   5.948  10.397   5.274  0.0672 -0.7885  2.4658
  874MOL0     H17933   5.904  10.196   5.416 -0.8003 -2.7098 -0.5469
  874MOL0     H17934   5.924  10.094   5.283 -0.2639 -0.2282  0.4978
  874MOL0     H17935   6.154  10.149   5.262  0.4897 -0.7747  0.4142
  874MOL0     H17936   6.130  10.302   5.359 -0.5381  0.4786 -0.8000
  874MOL0     H17937   6.152  10.025   5.472 -0.5630 -0.4424 -0.4930
  874MOL0     H17938   6.066  10.141   5.558  1.5989 -0.4827  0.2589
  874MOL0     H17939   6.277  10.305   5.548 -0.1198  0.9339  0.5375
  874MOL0     H17940   6.285  10.148   5.636  1.2631  0.0347 -0.7418
  874MOL0     H17941   6.392   9.920   5.484  0.8428 -0.5688 -0.4043
  874MOL0     H17942   6.636   9.849   5.355  0.4411  0.0801 -0.4579
  874MOL0     H17943   6.520   9.862   5.215  2.2028  0.1135 -1.9661
  874MOL0     H17944   6.640   9.985   5.094  0.2780 -0.2769 -0.1239
  874MOL0     H17945   6.763  10.034   5.211 -0.8811  0.0603 -0.7149
  874MOL0     H17946   6.714   9.748   5.089 -1.0333 -1.2700  2.8163
  874MOL0     H17947   6.823   9.771   5.218  0.9637 -0.3775 -0.9171
  874MOL0     H17948   6.867   9.920   4.959 -3.8581  0.4642  1.0152
  874MOL0     H17949   6.944   9.768   5.006 -1.2710 -1.0456  1.4831
  874MOL0     H17950   7.126   9.704   5.080 -0.4707 -0.1934 -0.4835
  874MOL0     H17951   7.374   9.675   5.050  2.9686  0.5340  0.3555
  874MOL0     H17952   7.754   9.861   4.863  1.4830 -2.9737  1.5106
  874MOL0     H17953   7.998   9.868   4.810 -0.1509 -0.7223 -0.0278
  874MOL0     H17954   8.277  10.132   5.029 -2.7372  0.0050  2.7604
  874MOL0     H17955   8.267   9.982   5.128 -0.1927 -4.0750 -1.1224
  874MOL0     H17956   8.496  10.003   5.036  0.5265 -1.4191 -0.7258
  874MOL0     H17957   8.416   9.852   4.987 -3.0641 -0.9626 -3.0037
  874MOL0     H17958   8.400  10.077   4.793  1.4026 -0.2513 -4.0182
  874MOL0     H17959   8.562  10.021   4.826  0.6964 -1.8021 -0.2921
  874MOL0     H17960   8.327   9.840   4.757 -0.0390  0.4735  1.6734
  874MOL0     H17961   8.499   9.791   4.755  1.1966 -0.0274 -2.7481
  874MOL0     H17962   8.360   9.991   4.566 -1.0560 -1.1340 -1.2784
  874MOL0     H17963   8.422   9.826   4.538  1.3177 -1.4906  2.7424
  874MOL0     H17964   8.595  10.062   4.603  0.4169  0.8801 -1.2718
  874MOL0     H17965   8.650   9.888   4.579 -0.2421 -0.1884 -2.6500
  874MOL0     H17966   8.527  10.057   4.365  0.2691 -0.2446 -3.0067
  874MOL0     H17967   8.565   9.883   4.348 -0.2817 -0.6206  0.7384
  874MOL0     H17968   8.788   9.949   4.406 -0.0012 -0.0468 -0.6286
  874MOL0     H17969   8.726   9.998   4.249 -1.1958 -1.6987  0.5963
  874MOL0     H17970   8.055  10.155   5.118  2.7673 -1.8113 -1.5248
  874MOL0     H17971   7.816  10.139   5.172  1.5202  0.9951 -0.3436
  874MOL0     H17972   7.426  10.091   5.138  1.2671 -1.3077  1.3030
  874MOL0     H17973   7.184  10.120   5.148  0.6203  0.1814  0.8824
  874MOL0     H17974   5.281  10.306   5.306 -0.7801  1.7155 -2.1787
  874MOL0     H17975   5.048  10.198   5.284 -1.9554  0.5049 -1.4771
  874MOL0     H17976   4.734   9.982   5.147  0.8951  0.0578 -0.0262
  874MOL0     H17977   4.511   9.898   5.148  1.9086  2.0845  0.3768
  874MOL0     H17978   4.329   9.741   5.062  1.7922 -1.2434 -0.8199
  874MOL0     H17979   4.305   9.829   5.199 -0.9124 -0.2378  0.3563
  874MOL0     H17980   4.193   9.591   5.292  1.4295  2.3037  0.7190
  874MOL0     H17981   4.183   9.579   5.107 -0.2200  3.1894 -1.3488
  874MOL0     H17982   4.045   9.776   5.108  3.0738  2.0716  1.5948
  874MOL0     H17983   4.073   9.798   5.270  2.1958 -0.3419 -0.2997
  874MOL0     H17984   3.958   9.563   5.308 -0.0369 -0.3766 -0.0662
  874MOL0     H17985   3.846   9.687   5.235  1.3077  1.4531 -2.6125
  874MOL0     H17986   3.927   9.437   4.895  2.8288  0.0575 -0.0962
  874MOL0     H17987   4.636   9.529   5.305  0.5359 -0.0792 -2.7314
  874MOL0     H17988   4.951   9.553   5.219  0.3239  1.3626 -0.3452
  874MOL0     H17989   4.968   9.610   5.389  0.5041 -0.1260 -0.0937
  874MOL0     H17990   4.855   9.482   5.355  0.9744 -0.0104  1.3465
  875MOL0     O17991   6.818   4.836   3.422 -0.4928  0.4999  0.8423
  875MOL0     C17992   6.752   4.788   3.331  0.5716 -0.4189  0.2879
  875MOL0     O17993   6.768   4.662   3.281 -0.0030 -0.6150  0.1169
  875MOL0     C17994   6.869   4.585   3.332 -0.1920  0.3668  0.7730
  875MOL0     C17995   6.843   4.464   3.393  0.4614 -0.0981  0.0718
  875MOL0     C17996   6.956   4.387   3.426  0.1247  0.0814  0.5268
  875MOL0     C17997   7.084   4.443   3.435 -0.1350 -0.2482  0.1509
  875MOL0     O17998   7.182   4.354   3.480  0.0428  0.2521  0.4304
  875MOL0     C17999   7.286   4.412   3.553 -0.1223 -0.7927 -0.3675
  875MOL0     C18000   7.382   4.319   3.606  0.7044  0.7647 -0.0088
  875MOL0     C18001   7.506   4.390   3.651  0.3383 -0.0624 -1.4050
  875MOL0     C18002   7.614   4.296   3.710 -0.0671 -0.8406 -1.1822
  875MOL0     C18003   7.745   4.369   3.728 -0.2660 -0.1967 -0.1448
  875MOL0     C18004   7.759   4.468   3.847  0.8813  0.2064  0.4903
  875MOL0     C18005   7.780   4.394   3.981 -0.2922  0.2992  0.5064
  875MOL0     C18006   7.933   4.375   3.995 -0.4569 -0.7532 -0.7712
  875MOL0     N18007   7.958   4.289   4.117 -0.7167  0.5472 -0.0574
  875MOL0     C18008   8.087   4.269   4.162  0.1191 -0.3332 -0.5385
  875MOL0     C18009   8.077   4.193   4.277 -0.1430  0.0471  0.7140
  875MOL0     C18010   8.163   4.137   4.387  0.0580 -0.7616 -0.3240
  875MOL0     C18011   8.122   4.213   4.515  0.0408  0.7491 -0.5464
  875MOL0     C18012   8.192   4.161   4.646 -0.2442  0.3799 -1.0378
  875MOL0     C18013   8.301   4.253   4.708  0.1504  0.0959  0.0979
  875MOL0     O18014   8.389   4.174   4.781 -0.4465  0.6320  0.5992
  875MOL0     C18015   8.486   4.244   4.858  1.0402  0.3997 -0.4622
  875MOL0     C18016   8.585   4.166   4.921  1.0911 -0.6494 -0.5568
  875MOL0     C18017   8.695   4.223   4.990  0.1926 -0.4424  0.3576
  875MOL0     C18018   8.704   4.362   5.009  0.5886  0.1683  0.3406
  875MOL0     C18019   8.816   4.420   5.075  0.1829 -0.2275 -0.6550
  875MOL0     O18020   8.847   4.556   5.055  0.2064  0.3160  0.0373
  875MOL0     C18021   8.944   4.622   5.130 -0.0686 -0.1399 -0.1149
  875MOL0     C18022   8.913   4.731   5.213 -0.5122  0.3619 -0.0943
  875MOL0     C18023   9.008   4.791   5.297  0.2174  0.5774  1.2241
  875MOL0     C18024   9.141   4.738   5.300 -0.5534 -0.0963  0.2098
  875MOL0     O18025   9.242   4.790   5.369 -0.1553  0.1442  0.6162
  875MOL0     C18026   9.207   4.879   5.479 -0.0099  0.8564 -0.2603
  875MOL0     C18027   9.195   5.014   5.433 -1.0519 -0.6144  0.2293
  875MOL0     C18028   9.122   5.098   5.531 -0.4453  0.0477  0.9198
  875MOL0     C18029   9.117   5.242   5.489 -0.2433  0.6112  0.2370
  875MOL0     C18030   9.010   5.325   5.555 -0.6330 -0.1363 -0.0673
  875MOL0     C18031   8.871   5.268   5.551 -0.0590  0.4128  0.3327
  875MOL0     C18032   8.802   5.325   5.685  0.5401  0.3663  0.9270
  875MOL0     C18033   8.833   5.239   5.805 -0.0162 -0.2503  0.0835
  875MOL0    Cl18034   8.746   5.082   5.786  0.1597 -0.0922  0.0533
  875MOL0     C18035   9.178   4.628   5.216 -0.2863 -0.1777 -0.3515
  875MOL0     C18036   9.081   4.583   5.124  1.0637  0.3197 -0.6848
  875MOL0     O18037   8.869   4.354   5.163 -0.0147 -0.4468 -0.2946
  875MOL0     C18038   8.611   4.440   4.942  0.0579 -0.3029 -0.0304
  875MOL0     C18039   8.502   4.386   4.870 -0.4187 -0.1109 -0.1692
  875MOL0     N18040   7.945   4.156   4.281  0.3096  0.3561 -0.1371
  875MOL0     N18041   7.877   4.221   4.198  0.4249  0.6800 -0.3606
  875MOL0     C18042   7.105   4.567   3.390  0.2213 -0.8123 -0.1298
  875MOL0     C18043   7.003   4.637   3.337  0.0183 -0.6783 -0.6835
  875MOL0     C18044   6.666   4.896   3.265  1.1849  0.2149 -0.6188
  875MOL0     C18045   6.686   5.033   3.290  0.3813 -0.5343  0.6945
  875MOL0     C18046   6.618   5.137   3.227 -0.0885 -0.1544  0.0435
  875MOL0     C18047   6.511   5.108   3.144  0.5656  0.0911  0.9642
  875MOL0     O18048   6.448   5.223   3.093  0.1292  0.0773  0.2267
  875MOL0     C18049   6.322   5.214   3.024  0.1667  0.2276  0.3468
  875MOL0     C18050   6.210   5.189   3.119 -0.6500 -0.3620 -0.7518
  875MOL0     C18051   6.077   5.216   3.047  1.1687 -0.3493 -0.1907
  875MOL0     C18052   6.052   5.158   2.908 -0.4373 -0.2752  0.6721
  875MOL0     C18053   6.082   5.015   2.915  0.4141 -0.1423  0.1514
  875MOL0     C18054   6.116   4.893   2.923 -0.1097 -0.0288 -0.2392
  875MOL0     C18055   6.484   4.977   3.118  0.5809 -0.6092  0.3854
  875MOL0     C18056   6.557   4.871   3.171  0.0718 -0.2917  0.8778
  875MOL0     C18057   6.522   4.726   3.129  0.0755 -0.1498  0.1665
  875MOL0     H18058   6.741   4.428   3.403  0.3076  0.9385  3.4254
  875MOL0     H18059   6.929   4.287   3.456 -1.9610  0.5556  0.4002
  875MOL0     H18060   7.343   4.472   3.481 -0.8710 -0.5764 -0.7906
  875MOL0     H18061   7.256   4.481   3.633 -1.6819 -0.6868 -1.0206
  875MOL0     H18062   7.412   4.242   3.535 -4.8088 -1.3481 -0.5321
  875MOL0     H18063   7.334   4.267   3.689  0.1911 -0.9347 -1.3103
  875MOL0     H18064   7.466   4.455   3.729 -1.6156  0.5562 -2.8335
  875MOL0     H18065   7.555   4.453   3.577  1.2407  2.0663  0.8593
  875MOL0     H18066   7.582   4.257   3.808  2.1922  1.4123  0.5765
  875MOL0     H18067   7.632   4.214   3.640  0.1963 -2.1576  0.3489
  875MOL0     H18068   7.829   4.299   3.741 -0.3119 -0.5667 -1.6319
  875MOL0     H18069   7.771   4.427   3.639  2.6766 -0.9530  0.1201
  875MOL0     H18070   7.832   4.544   3.820  2.0104 -1.2362 -0.6543
  875MOL0     H18071   7.662   4.519   3.852  1.4616  1.2941  0.7613
  875MOL0     H18072   7.733   4.295   3.977  0.7273 -0.1599 -2.2532
  875MOL0     H18073   7.738   4.449   4.066 -2.0973 -0.6939  0.3288
  875MOL0     H18074   7.985   4.332   3.909  2.6026  0.9213  0.0943
  875MOL0     H18075   7.994   4.466   4.005  0.3068 -1.2624 -0.7204
  875MOL0     H18076   8.169   4.323   4.117 -1.8769  3.1297 -0.3578
  875MOL0     H18077   8.140   4.031   4.397 -1.0028 -0.7294 -1.9653
  875MOL0     H18078   8.267   4.155   4.359  0.0867 -1.2999 -0.5683
  875MOL0     H18079   8.144   4.320   4.507  3.5555  0.1176 -0.7609
  875MOL0     H18080   8.015   4.207   4.539  0.5166  2.4615  2.6096
  875MOL0     H18081   8.223   4.057   4.633 -1.7353 -0.3038  0.4980
  875MOL0     H18082   8.121   4.155   4.729  1.7416 -0.4820  0.7284
  875MOL0     H18083   8.255   4.336   4.763  3.6014  1.4655  1.1596
  875MOL0     H18084   8.355   4.295   4.623  1.6212 -0.8143  0.5520
  875MOL0     H18085   8.584   4.058   4.905 -1.4902 -0.6323 -0.9531
  875MOL0     H18086   8.770   4.161   5.038  1.8714  1.3445  0.2008
  875MOL0     H18087   8.812   4.769   5.225 -0.5022  1.4261 -2.5961
  875MOL0     H18088   8.982   4.876   5.358  0.0441 -0.0328  2.0051
  875MOL0     H18089   9.112   4.846   5.521 -1.2797  2.4149 -1.7772
  875MOL0     H18090   9.288   4.868   5.553  0.7550  1.1055 -1.0454
  875MOL0     H18091   9.299   5.047   5.423 -0.4153 -2.6377 -0.2989
  875MOL0     H18092   9.131   5.019   5.345 -2.3839  2.8544  1.2446
  875MOL0     H18093   9.025   5.053   5.548 -1.9732  2.9025  0.4371
  875MOL0     H18094   9.179   5.088   5.624  0.1515 -3.2865  0.3110
  875MOL0     H18095   9.103   5.251   5.381 -2.0962  2.6075  0.5748
  875MOL0     H18096   9.212   5.294   5.502  1.6516 -1.8003 -2.7275
  875MOL0     H18097   8.997   5.428   5.519  0.3940 -0.2153 -0.7349
  875MOL0     H18098   9.052   5.342   5.654 -1.4236 -0.3358  0.3047
  875MOL0     H18099   8.813   5.297   5.463 -0.7093  1.2118  1.0022
  875MOL0     H18100   8.872   5.159   5.558  0.1688  0.4608  1.0700
  875MOL0     H18101   8.694   5.338   5.672  0.7295  0.4852 -0.6801
  875MOL0     H18102   8.821   5.432   5.697 -3.7024  1.4062  0.2544
  875MOL0     H18103   8.941   5.231   5.819 -0.3485 -1.4506  2.6114
  875MOL0     H18104   8.799   5.287   5.898  0.6827 -0.3051  0.3743
  875MOL0     H18105   9.279   4.587   5.219 -0.2487 -0.0287  1.1195
  875MOL0     H18106   9.124   4.505   5.062 -1.5369  0.3949 -2.7089
  875MOL0     H18107   8.602   4.548   4.937 -1.4171 -0.4223 -0.6786
  875MOL0     H18108   8.441   4.455   4.814  1.5465 -0.3171 -2.7703
  875MOL0     H18109   7.202   4.615   3.384 -0.2473  0.0979 -0.7075
  875MOL0     H18110   7.029   4.730   3.287 -0.2138  1.4662  2.8317
  875MOL0     H18111   6.766   5.065   3.357  2.2486 -2.1654 -0.6451
  875MOL0     H18112   6.636   5.240   3.254  1.4204 -0.4046  0.0501
  875MOL0     H18113   6.325   5.133   2.950 -3.1957 -1.0070  1.3850
  875MOL0     H18114   6.302   5.300   2.960  2.1548 -2.1172 -3.8906
  875MOL0     H18115   6.202   5.259   3.203 -2.8942  0.4230 -1.5430
  875MOL0     H18116   6.215   5.090   3.166 -0.3377  1.2923  3.0359
  875MOL0     H18117   6.080   5.321   3.019 -5.0419  0.0075 -1.0000
  875MOL0     H18118   5.994   5.189   3.113  1.6350 -0.2183  0.4539
  875MOL0     H18119   5.947   5.166   2.879 -0.3825 -2.1398 -0.1968
  875MOL0     H18120   6.110   5.217   2.836 -0.2568 -0.1926  0.8833
  875MOL0     H18121   6.134   4.789   2.941 -0.1554  0.5906  4.5348
  875MOL0     H18122   6.398   4.955   3.055  0.0984  3.0639 -0.4647
  875MOL0     H18123   6.434   4.709   3.067 -0.1012  0.0146  0.3694
  875MOL0     H18124   6.608   4.696   3.069  1.3673  1.4742  1.1146
  875MOL0     H18125   6.526   4.664   3.219  3.1371 -0.4577 -0.0746
  876MOL0     O18126   9.060   8.608   1.602  0.1336 -0.2678 -0.2656
  876MOL0     C18127   8.982   8.693   1.561  0.3498 -0.1985  0.8788
  876MOL0     O18128   8.903   8.674   1.450 -0.5796 -1.4196  0.2876
  876MOL0     C18129   8.941   8.599   1.342  0.6958  0.3176  0.3529
  876MOL0     C18130   8.838   8.567   1.251  0.1682  0.3578 -0.0515
  876MOL0     C18131   8.861   8.513   1.127  0.6277  0.3873  0.1610
  876MOL0     C18132   8.992   8.491   1.081  0.1802 -0.0074  0.0773
  876MOL0     O18133   9.025   8.439   0.957  0.1375 -0.2025 -0.3528
  876MOL0     C18134   9.076   8.304   0.964  0.8237  0.6176  0.6656
  876MOL0     C18135   9.056   8.225   0.834  0.1440  0.2327 -0.5897
  876MOL0     C18136   9.157   8.267   0.720 -0.4973 -0.5283 -0.0297
  876MOL0     C18137   9.177   8.133   0.648  0.2719 -0.0673 -0.3725
  876MOL0     C18138   9.263   8.151   0.520  0.2651 -0.7974 -0.1839
  876MOL0     C18139   9.227   8.057   0.401 -0.2808  0.1053 -0.8109
  876MOL0     C18140   9.094   8.085   0.337  0.2400  0.1748  0.5023
  876MOL0     C18141   9.097   8.196   0.233 -0.4274 -0.1459  0.8700
  876MOL0     N18142   9.171   8.161   0.106  0.4081  0.2791  0.4135
  876MOL0     C18143   9.272   8.225   0.041 -0.0896 -0.4049  0.5078
  876MOL0     C18144   9.292   8.166  -0.079 -0.7869 -0.0141  0.5122
  876MOL0     C18145   9.392   8.197  -0.192  0.7528  0.1663 -0.7907
  876MOL0     C18146   9.541   8.207  -0.133  0.3354  0.0902 -1.1076
  876MOL0     C18147   9.587   8.351  -0.096 -0.5140 -0.0972  0.4738
  876MOL0     C18148   9.742   8.354  -0.071  0.2532 -0.3090  0.0210
  876MOL0     O18149   9.783   8.492  -0.051  0.0589 -0.6492 -0.1886
  876MOL0     C18150   9.918   8.509  -0.011  0.6170 -0.2004 -0.1096
  876MOL0     C18151   9.943   8.628   0.058 -0.5664 -0.2950  0.6493
  876MOL0     C18152  10.078   8.662   0.094  0.3676  0.0443  0.2156
  876MOL0     C18153  10.174   8.562   0.089  0.4585 -0.8094  0.0223
  876MOL0     C18154  10.301   8.585   0.157 -0.1527 -0.4103 -0.3869
  876MOL0     O18155  10.324   8.707   0.224  0.0472 -0.2572 -0.3812
  876MOL0     C18156  10.450   8.731   0.264 -0.6466 -0.0741  0.5011
  876MOL0     C18157  10.505   8.850   0.219  0.8762 -0.4697 -1.0013
  876MOL0     C18158  10.623   8.898   0.267 -0.2498 -0.6757 -0.1239
  876MOL0     C18159  10.691   8.821   0.369 -0.2574  0.9967  0.7192
  876MOL0     O18160  10.796   8.871   0.433 -0.5710 -0.8968 -1.4203
  876MOL0     C18161  10.913   8.894   0.352  0.0695  0.4935 -0.6628
  876MOL0     C18162  11.012   8.959   0.446  0.7864  0.2465 -0.0030
  876MOL0     C18163  11.138   8.975   0.369 -0.6233 -0.5273 -0.5331
  876MOL0     C18164  11.255   8.891   0.431  0.4270 -0.1751  0.4437
  876MOL0     C18165  11.378   8.917   0.343  0.0012  0.4238  0.9595
  876MOL0     C18166  11.506   8.894   0.417 -0.4792 -0.7685  0.6009
  876MOL0     C18167  11.540   8.746   0.448  0.8340  0.0726 -0.0437
  876MOL0     C18168  11.681   8.705   0.487 -0.3438  0.4421  0.5110
  876MOL0    Cl18169  11.673   8.533   0.549 -0.4805  0.4592  0.1672
  876MOL0     C18170  10.632   8.698   0.413 -0.9860 -0.4909 -0.4941
  876MOL0     C18171  10.522   8.651   0.356 -0.1463 -0.2188  0.3930
  876MOL0     O18172  10.382   8.495   0.147 -0.7968  0.4406 -0.7934
  876MOL0     C18173  10.140   8.439   0.027  0.0759  0.2088  0.0906
  876MOL0     C18174  10.021   8.423  -0.036  0.5590  0.4227  1.0548
  876MOL0     N18175   9.187   8.069  -0.094 -0.1100  0.2015 -0.7805
  876MOL0     N18176   9.119   8.070   0.013  1.1085  0.2223 -0.2183
  876MOL0     C18177   9.098   8.535   1.163 -0.2402 -0.3074  0.3757
  876MOL0     C18178   9.070   8.580   1.290 -0.2431 -0.2610 -0.1614
  876MOL0     C18179   8.961   8.810   1.645  0.3081 -0.3364  0.2784
  876MOL0     C18180   8.832   8.847   1.679 -0.2011  0.0664 -0.1439
  876MOL0     C18181   8.816   8.954   1.763 -0.1924 -0.7730 -0.2767
  876MOL0     C18182   8.913   9.047   1.797  0.3486  0.2112  0.0216
  876MOL0     O18183   8.901   9.168   1.850  0.4219 -0.0376  0.0209
  876MOL0     C18184   8.777   9.230   1.887 -0.1078 -0.2040  0.4785
  876MOL0     C18185   8.720   9.284   1.751  0.0347 -0.4480 -0.1876
  876MOL0     C18186   8.694   9.442   1.759 -0.2065 -0.2264 -0.8523
  876MOL0     C18187   8.653   9.494   1.624 -0.3467 -0.2771 -0.3127
  876MOL0     C18188   8.514   9.468   1.595 -0.9354  0.4289  0.4176
  876MOL0     C18189   8.399   9.457   1.566  0.3783 -0.0991 -0.4121
  876MOL0     C18190   9.033   8.994   1.780  0.0751 -0.0602 -0.6720
  876MOL0     C18191   9.065   8.883   1.702  0.4558 -0.1923  0.6968
  876MOL0     C18192   9.212   8.859   1.682 -0.3718  0.5351 -0.0440
  876MOL0     H18193   8.734   8.582   1.281  0.5974 -0.8305  2.2310
  876MOL0     H18194   8.775   8.492   1.063 -0.9552  0.7852  2.0640
  876MOL0     H18195   9.185   8.304   0.977  0.6211  1.0148  2.5640
  876MOL0     H18196   9.038   8.243   1.046  0.7587  0.0476  0.2187
  876MOL0     H18197   8.953   8.224   0.797 -0.5960 -1.8832  1.2549
  876MOL0     H18198   9.083   8.122   0.858  0.0564  0.0390 -1.3023
  876MOL0     H18199   9.258   8.300   0.747 -0.3636 -0.5722 -0.4623
  876MOL0     H18200   9.116   8.341   0.650  0.3101 -0.6397 -0.6331
  876MOL0     H18201   9.227   8.059   0.711 -0.4307  0.5483  0.9481
  876MOL0     H18202   9.079   8.094   0.620  0.8531 -0.6841 -1.6423
  876MOL0     H18203   9.252   8.250   0.475  0.2266 -0.6400  0.1669
  876MOL0     H18204   9.370   8.150   0.545 -0.0503 -0.5675  1.2604
  876MOL0     H18205   9.302   8.065   0.322  0.5882  1.3969  0.0957
  876MOL0     H18206   9.244   7.959   0.444  1.2800  0.9496  0.5904
  876MOL0     H18207   9.018   8.112   0.412 -1.6312  1.8273 -1.8054
  876MOL0     H18208   9.055   7.998   0.285  0.2536  1.8366 -2.5038
  876MOL0     H18209   8.992   8.210   0.204 -0.7387 -0.8025  1.6666
  876MOL0     H18210   9.130   8.291   0.278  2.7589 -0.5747 -0.3032
  876MOL0     H18211   9.325   8.308   0.087 -0.9922 -0.8631  2.4558
  876MOL0     H18212   9.388   8.120  -0.271  0.7391  1.2484 -1.8769
  876MOL0     H18213   9.358   8.292  -0.235  2.1960  1.2926  0.4921
  876MOL0     H18214   9.535   8.154  -0.037 -1.1413 -0.1426 -1.2925
  876MOL0     H18215   9.614   8.172  -0.206  1.3173 -1.3783  0.4911
  876MOL0     H18216   9.536   8.392  -0.008  0.0430  1.0338  0.2959
  876MOL0     H18217   9.562   8.419  -0.178 -1.3332  0.5256  1.2205
  876MOL0     H18218   9.804   8.308  -0.149 -0.6655 -0.9638 -0.3448
  876MOL0     H18219   9.759   8.288   0.014  2.4603 -1.5502 -1.2857
  876MOL0     H18220   9.865   8.700   0.082  0.8027  2.0192 -1.3558
  876MOL0     H18221  10.086   8.765   0.126 -2.2157  0.8745 -1.5501
  876MOL0     H18222  10.455   8.901   0.136 -0.1670 -1.6936 -1.1503
  876MOL0     H18223  10.669   8.991   0.238 -0.2622 -0.2834  1.0529
  876MOL0     H18224  10.948   8.800   0.307  2.0803  1.2113 -0.7104
  876MOL0     H18225  10.893   8.968   0.274 -0.4332  0.9836 -0.0786
  876MOL0     H18226  10.983   9.062   0.468  2.4260  0.9590 -0.9148
  876MOL0     H18227  11.022   8.894   0.533 -1.9092 -1.4463 -0.8517
  876MOL0     H18228  11.129   8.944   0.264  0.4783  0.0001 -0.8038
  876MOL0     H18229  11.177   9.077   0.373  0.9349 -1.0904 -0.4821
  876MOL0     H18230  11.236   8.784   0.442  0.1676 -0.4325 -2.0652
  876MOL0     H18231  11.271   8.941   0.527  0.6080  1.1898 -0.2738
  876MOL0     H18232  11.378   9.015   0.294  0.1200  0.1882  0.4754
  876MOL0     H18233  11.371   8.847   0.260 -3.4328 -0.2237  1.6676
  876MOL0     H18234  11.597   8.923   0.363  0.7653  1.3302  3.5704
  876MOL0     H18235  11.513   8.951   0.510  1.8973 -0.2346  0.1671
  876MOL0     H18236  11.502   8.687   0.364  0.9174 -0.4590  0.2863
  876MOL0     H18237  11.489   8.715   0.539  1.8177 -1.2644  0.0775
  876MOL0     H18238  11.743   8.719   0.398 -0.0305  0.0695  0.6638
  876MOL0     H18239  11.722   8.755   0.575 -0.4384 -1.1087  1.4787
  876MOL0     H18240  10.679   8.650   0.498  1.3157 -2.7599 -2.8478
  876MOL0     H18241  10.486   8.554   0.388 -0.7466 -0.8089 -1.8728
  876MOL0     H18242  10.207   8.354   0.022  0.3687  0.4871 -1.0682
  876MOL0     H18243   9.996   8.335  -0.095 -0.2217  0.2070  1.6910
  876MOL0     H18244   9.192   8.538   1.109 -0.4043  2.3058  0.0787
  876MOL0     H18245   9.152   8.615   1.352  0.1410  0.1809 -0.9025
  876MOL0     H18246   8.746   8.790   1.647 -0.3673 -0.7216  1.6075
  876MOL0     H18247   8.715   8.976   1.796  0.7741  1.6595  1.4215
  876MOL0     H18248   8.797   9.308   1.960 -0.9064 -0.2443  0.7443
  876MOL0     H18249   8.715   9.156   1.938  0.1888  0.0079  1.1540
  876MOL0     H18250   8.630   9.236   1.714  0.7103 -0.3608 -2.0233
  876MOL0     H18251   8.791   9.271   1.669 -2.4659  1.1607 -2.7869
  876MOL0     H18252   8.792   9.486   1.779  0.0595  0.5583 -3.4909
  876MOL0     H18253   8.618   9.461   1.835 -0.2439  0.2889 -1.0085
  876MOL0     H18254   8.676   9.600   1.608  0.2421 -0.5529 -1.3340
  876MOL0     H18255   8.698   9.436   1.543 -1.2137 -0.2948 -0.7937
  876MOL0     H18256   8.295   9.444   1.542  0.7982 -2.5237 -1.2110
  876MOL0     H18257   9.113   9.054   1.824  0.5442 -0.3645 -1.1052
  876MOL0     H18258   9.244   8.901   1.586  0.3021  0.5974  0.2054
  876MOL0     H18259   9.268   8.904   1.765 -0.1407 -1.4226  0.9104
  876MOL0     H18260   9.231   8.752   1.686 -2.0848  0.2415  1.6809
  877MOL0     O18261   0.937   8.660   4.266  0.2335 -0.4150  0.0602
  877MOL0     C18262   0.837   8.728   4.255  0.1807  0.6041  0.0344
  877MOL0     O18263   0.838   8.859   4.275  0.9160  0.1796  0.5729
  877MOL0     C18264   0.955   8.929   4.290  0.1155 -0.0627 -0.6162
  877MOL0     C18265   1.043   8.953   4.187 -0.6042 -0.4976 -0.5224
  877MOL0     C18266   1.148   9.050   4.210  0.1161  0.1447 -0.5065
  877MOL0     C18267   1.155   9.115   4.334  0.0359  0.3086 -1.0959
  877MOL0     O18268   1.253   9.215   4.350  0.4956 -0.0931  0.2704
  877MOL0     C18269   1.211   9.328   4.434  0.3082 -0.0601 -0.5135
  877MOL0     C18270   1.298   9.454   4.411 -0.0749  0.0203 -0.2041
  877MOL0     C18271   1.440   9.424   4.454  0.0838 -0.1516  0.4318
  877MOL0     C18272   1.528   9.552   4.474 -0.0658 -0.2295  0.4056
  877MOL0     C18273   1.670   9.526   4.526 -0.1316  0.3449  0.2609
  877MOL0     C18274   1.732   9.660   4.575 -0.5175  0.1673 -0.7835
  877MOL0     C18275   1.708   9.665   4.731 -0.7271  0.0624  0.5114
  877MOL0     C18276   1.799   9.776   4.796  0.4368 -0.5612 -0.8213
  877MOL0     N18277   1.818   9.770   4.940  0.9835 -0.2312  0.2793
  877MOL0     C18278   1.839   9.661   5.023 -0.0005 -0.4730  0.6061
  877MOL0     C18279   1.854   9.714   5.148  0.1145  1.0956  0.0006
  877MOL0     C18280   1.887   9.633   5.271  1.1365 -0.0857  1.2889
  877MOL0     C18281   2.035   9.618   5.306  0.0222  0.0081 -0.1067
  877MOL0     C18282   2.087   9.748   5.361 -0.3659  0.4018  0.7870
  877MOL0     C18283   2.223   9.726   5.439 -0.3148  0.2892 -0.0127
  877MOL0     O18284   2.286   9.842   5.492 -0.6411 -0.1451 -0.0839
  877MOL0     C18285   2.416   9.843   5.527 -0.2006  0.5154  0.2780
  877MOL0     C18286   2.485   9.724   5.556 -0.2100  0.8238  0.4798
  877MOL0     C18287   2.627   9.724   5.573  0.0832  0.4186 -0.8939
  877MOL0     C18288   2.694   9.842   5.586 -0.4053  0.2315  0.1393
  877MOL0     C18289   2.828   9.860   5.643  0.2093  0.7448 -0.3511
  877MOL0     O18290   2.864   9.769   5.738 -0.3311 -0.0056  0.8532
  877MOL0     C18291   2.987   9.770   5.791  0.5029  0.0512  0.1415
  877MOL0     C18292   3.105   9.753   5.718  0.4767 -0.1251 -0.2184
  877MOL0     C18293   3.222   9.759   5.786  0.3468 -0.0365 -0.3600
  877MOL0     C18294   3.235   9.792   5.926  0.0166 -0.7550  0.4355
  877MOL0     O18295   3.364   9.825   5.968 -0.1271 -0.5409  0.6608
  877MOL0     C18296   3.394   9.808   6.105  0.1443 -0.4182  0.1336
  877MOL0     C18297   3.545   9.818   6.142  0.3181  0.1786 -0.1688
  877MOL0     C18298   3.632   9.746   6.039  0.0216  0.2372  0.8946
  877MOL0     C18299   3.762   9.684   6.093 -0.0281  0.0032 -0.6946
  877MOL0     C18300   3.846   9.622   5.978  0.0400  0.1698  0.6736
  877MOL0     C18301   3.963   9.533   6.032  0.1938 -1.1582 -0.2304
  877MOL0     C18302   4.039   9.458   5.915  0.0151  0.6384  0.0438
  877MOL0     C18303   4.168   9.390   5.952 -0.2467 -0.9565 -0.7120
  877MOL0    Cl18304   4.291   9.512   6.033 -0.1010  0.2225  0.2624
  877MOL0     C18305   3.115   9.812   6.000  0.5460  0.3851 -0.1703
  877MOL0     C18306   2.990   9.799   5.929 -0.1746  0.2422 -0.2351
  877MOL0     O18307   2.889   9.952   5.591 -0.6024  0.4829 -0.3885
  877MOL0     C18308   2.623   9.962   5.563  0.2285 -0.2098 -0.8107
  877MOL0     C18309   2.492   9.962   5.522  0.9011  0.2576  0.2456
  877MOL0     N18310   1.832   9.852   5.139 -0.2189  0.3754 -0.5817
  877MOL0     N18311   1.807   9.880   5.020 -0.4162  0.1214 -0.3148
  877MOL0     C18312   1.063   9.082   4.435  0.2563 -0.4573  0.1333
  877MOL0     C18313   0.967   8.991   4.418  0.6494  0.0451 -0.1148
  877MOL0     C18314   0.702   8.661   4.250  0.4579 -0.2573  0.6705
  877MOL0     C18315   0.701   8.541   4.183 -0.4777 -0.4574 -0.1015
  877MOL0     C18316   0.578   8.480   4.158 -0.4528  0.2318 -0.7912
  877MOL0     C18317   0.456   8.527   4.215 -0.2445 -0.7370 -0.4782
  877MOL0     O18318   0.328   8.474   4.196 -0.6156 -0.0972  0.4450
  877MOL0     C18319   0.305   8.351   4.125  0.0622 -0.2023  0.2780
  877MOL0     C18320   0.325   8.226   4.197 -0.2505  0.1001  0.0648
  877MOL0     C18321   0.243   8.211   4.324 -0.1137  0.3490 -0.7404
  877MOL0     C18322   0.223   8.069   4.366  0.8869  0.2020 -0.4023
  877MOL0     C18323   0.115   8.009   4.282 -0.5668 -0.2159 -0.0894
  877MOL0     C18324   0.034   7.958   4.219  0.3304  0.0487  0.3306
  877MOL0     C18325   0.462   8.647   4.278  0.0185  0.4694 -0.2547
  877MOL0     C18326   0.578   8.721   4.290 -0.1476  0.2325 -0.6918
  877MOL0     C18327   0.566   8.850   4.361  0.8139  0.3651  0.6674
  877MOL0     H18328   1.052   8.911   4.087 -0.1425 -1.4385 -0.1044
  877MOL0     H18329   1.222   9.075   4.134 -0.4743  1.4121 -0.6871
  877MOL0     H18330   1.106   9.357   4.423 -0.2733 -2.3245 -1.4055
  877MOL0     H18331   1.234   9.290   4.534  0.7737 -0.3101 -0.7107
  877MOL0     H18332   1.261   9.536   4.473 -1.1925 -3.4669  4.2485
  877MOL0     H18333   1.302   9.489   4.307  0.0786  0.3802 -0.0784
  877MOL0     H18334   1.490   9.350   4.391 -1.0927 -1.3522  0.8763
  877MOL0     H18335   1.421   9.373   4.549 -0.9352 -1.5586 -0.4992
  877MOL0     H18336   1.529   9.619   4.388  0.6028  0.0704  0.6424
  877MOL0     H18337   1.473   9.602   4.555 -2.7153  1.4860 -2.2752
  877MOL0     H18338   1.676   9.449   4.603  1.1992  1.1189  0.9601
  877MOL0     H18339   1.730   9.496   4.439 -1.0037  2.3041 -1.0823
  877MOL0     H18340   1.840   9.667   4.563 -0.5961  0.8931 -1.1088
  877MOL0     H18341   1.693   9.743   4.515  1.7624  1.6664 -0.2850
  877MOL0     H18342   1.743   9.575   4.784  1.0455  0.1044 -0.4969
  877MOL0     H18343   1.606   9.680   4.767 -0.4973 -1.4284  1.9425
  877MOL0     H18344   1.896   9.782   4.745  1.0347 -0.2955  0.3042
  877MOL0     H18345   1.762   9.877   4.780 -1.4877 -0.7367  1.8892
  877MOL0     H18346   1.855   9.563   4.978  1.3354  0.9537 -2.3202
  877MOL0     H18347   1.841   9.669   5.363 -1.0460  1.1988 -0.2189
  877MOL0     H18348   1.845   9.535   5.246 -1.1644  0.8639  1.2122
  877MOL0     H18349   2.052   9.535   5.375  1.5433  1.3797  1.2447
  877MOL0     H18350   2.076   9.591   5.209 -2.1050 -1.7921 -0.5842
  877MOL0     H18351   2.009   9.783   5.430 -1.4244 -3.0488  1.5571
  877MOL0     H18352   2.094   9.822   5.281 -0.5844 -1.2625 -0.8524
  877MOL0     H18353   2.292   9.677   5.369 -0.7558 -1.5842  0.8040
  877MOL0     H18354   2.199   9.652   5.516 -0.1617  0.1622 -0.0843
  877MOL0     H18355   2.439   9.626   5.563  0.2579  0.6881  2.1142
  877MOL0     H18356   2.680   9.630   5.583  1.8819  1.4114 -0.6323
  877MOL0     H18357   3.112   9.735   5.611 -0.5163 -1.0862 -0.1291
  877MOL0     H18358   3.315   9.742   5.732  1.0924 -0.9827  1.1394
  877MOL0     H18359   3.333   9.876   6.165 -1.8236 -0.4936 -1.6242
  877MOL0     H18360   3.381   9.707   6.144  3.8823 -0.7590  0.8502
  877MOL0     H18361   3.569   9.924   6.136 -1.1077  0.4261 -3.6355
  877MOL0     H18362   3.547   9.777   6.244 -1.3260 -0.2196 -0.2556
  877MOL0     H18363   3.570   9.672   5.987 -1.7263  0.5204  2.4678
  877MOL0     H18364   3.651   9.820   5.961 -1.0880 -0.4629 -0.0767
  877MOL0     H18365   3.740   9.600   6.160 -1.6700 -0.3296 -1.5991
  877MOL0     H18366   3.819   9.768   6.135 -1.1574  1.8372 -2.6085
  877MOL0     H18367   3.874   9.700   5.907  0.4888 -0.7693 -0.2109
  877MOL0     H18368   3.783   9.549   5.926 -0.3044  0.5060  0.6179
  877MOL0     H18369   4.028   9.607   6.079 -2.6322  1.3022  0.1034
  877MOL0     H18370   3.925   9.465   6.110  0.9084  1.0438  2.1728
  877MOL0     H18371   4.069   9.540   5.849 -0.7560  2.3573  1.7637
  877MOL0     H18372   3.969   9.391   5.863  0.2501  0.1836  0.3066
  877MOL0     H18373   4.143   9.309   6.020 -0.1891 -0.2628  0.1505
  877MOL0     H18374   4.223   9.348   5.867  1.9753 -1.2153  0.7657
  877MOL0     H18375   3.121   9.847   6.103 -1.8891 -2.1842  0.9779
  877MOL0     H18376   2.898   9.818   5.982  1.2793  1.5699  1.9796
  877MOL0     H18377   2.668  10.061   5.563  0.7580 -0.3951  1.3910
  877MOL0     H18378   2.442  10.053   5.489 -2.4508 -0.7511  2.1141
  877MOL0     H18379   1.074   9.126   4.534  2.2641 -1.5780  0.4517
  877MOL0     H18380   0.895   8.975   4.497  0.6516  1.4472  0.1882
  877MOL0     H18381   0.795   8.491   4.162  0.8706  0.2965  3.4699
  877MOL0     H18382   0.567   8.390   4.098 -2.5574  0.5416 -0.9785
  877MOL0     H18383   0.348   8.349   4.024  0.6173  0.2212  0.5059
  877MOL0     H18384   0.196   8.356   4.119  0.1123  1.9656  0.5770
  877MOL0     H18385   0.431   8.233   4.225  0.1248  1.4810 -1.4953
  877MOL0     H18386   0.307   8.154   4.116 -1.3855  1.2983 -0.7920
  877MOL0     H18387   0.147   8.261   4.312 -1.0311 -1.4140 -1.0911
  877MOL0     H18388   0.296   8.258   4.407 -0.3076  0.4275 -0.6614
  877MOL0     H18389   0.321   8.023   4.351  1.5110  1.0355  0.9098
  877MOL0     H18390   0.204   8.066   4.474  1.1032  0.5468 -0.3550
  877MOL0     H18391  -0.041   7.914   4.156  0.5413 -0.2080  0.2575
  877MOL0     H18392   0.377   8.696   4.324  1.4875  2.6858  0.2689
  877MOL0     H18393   0.465   8.888   4.378  0.5407 -0.6111  1.3316
  877MOL0     H18394   0.615   8.845   4.459  1.8251 -1.4928  0.1261
  877MOL0     H18395   0.607   8.932   4.302  0.2080 -0.3645 -0.8285
  878MOL0     O18396   3.038   1.026   6.029 -0.2666 -0.1714  0.5134
  878MOL0     C18397   2.998   0.912   6.033  0.5663  0.2257  0.1786
  878MOL0     O18398   3.073   0.818   6.089  0.6531  0.2850  0.0589
  878MOL0     C18399   3.202   0.847   6.122  0.6115 -0.1877 -0.7439
  878MOL0     C18400   3.299   0.874   6.020 -0.1495  0.0572  1.4010
  878MOL0     C18401   3.428   0.890   6.058 -0.2033 -0.7278 -0.7884
  878MOL0     C18402   3.471   0.875   6.185 -0.0717  0.0981 -0.5752
  878MOL0     O18403   3.606   0.893   6.217 -0.1083 -0.1910 -0.7905
  878MOL0     C18404   3.641   0.937   6.350  0.9154 -0.2454  0.5543
  878MOL0     C18405   3.786   0.985   6.343 -0.2961  0.0341 -0.1367
  878MOL0     C18406   3.887   0.871   6.321  0.8383 -0.1784  0.3371
  878MOL0     C18407   4.013   0.917   6.257  0.4362  0.0182 -0.0503
  878MOL0     C18408   4.124   0.818   6.285 -0.8605  0.4630 -0.1181
  878MOL0     C18409   4.252   0.870   6.221 -0.5229  0.6228  0.5094
  878MOL0     C18410   4.352   0.757   6.184 -0.4706 -0.0387  0.3933
  878MOL0     C18411   4.451   0.812   6.071  0.6004  1.3417 -0.1676
  878MOL0     N18412   4.578   0.743   6.066  0.1688  0.7184  0.2266
  878MOL0     C18413   4.652   0.715   5.954  0.5888  0.1398  0.7009
  878MOL0     C18414   4.767   0.654   5.993  0.0153  0.3448 -0.3415
  878MOL0     C18415   4.870   0.604   5.902 -0.0570  0.0604 -0.3396
  878MOL0     C18416   5.001   0.663   5.938 -0.0058 -0.4360  0.0712
  878MOL0     C18417   5.027   0.781   5.846  0.0712 -0.8296  0.3395
  878MOL0     C18418   5.151   0.861   5.897  1.3219  0.1886 -0.1499
  878MOL0     O18419   5.272   0.785   5.856 -0.0068 -0.0737 -0.3587
  878MOL0     C18420   5.389   0.828   5.903  0.2880 -0.6601 -0.8125
  878MOL0     C18421   5.498   0.794   5.829 -0.2313 -0.0823 -0.5673
  878MOL0     C18422   5.627   0.823   5.881  0.0728 -0.4029 -0.0616
  878MOL0     C18423   5.645   0.897   6.000 -0.0410  0.7714  0.4013
  878MOL0     C18424   5.779   0.945   6.024  0.1859  0.2331 -0.2952
  878MOL0     O18425   5.885   0.885   5.967  0.2648  0.1285 -0.5852
  878MOL0     C18426   6.014   0.930   5.992 -0.2026  0.2427 -0.2173
  878MOL0     C18427   6.099   0.950   5.878  0.0744 -0.4684 -0.6892
  878MOL0     C18428   6.239   0.960   5.897  1.3732 -0.0108 -0.1584
  878MOL0     C18429   6.283   0.990   6.033  0.0159 -0.2754 -0.1972
  878MOL0     O18430   6.414   1.025   6.048  0.1050 -0.4175 -0.0664
  878MOL0     C18431   6.457   1.044   6.182 -0.9836 -0.6916  0.1162
  878MOL0     C18432   6.599   1.108   6.185 -0.4386 -1.0122  0.2665
  878MOL0     C18433   6.654   1.150   6.321  0.4565  0.2009 -0.4448
  878MOL0     C18434   6.786   1.233   6.288  0.9500  0.6364  0.0422
  878MOL0     C18435   6.852   1.268   6.425 -0.0675 -0.5630  0.4477
  878MOL0     C18436   6.760   1.299   6.544 -0.2751  0.5363  0.2569
  878MOL0     C18437   6.845   1.394   6.635  0.3913 -0.2292  1.2223
  878MOL0     C18438   6.787   1.423   6.777  0.4407 -0.2633  0.6046
  878MOL0    Cl18439   6.711   1.276   6.861 -0.3841  0.3656 -0.3315
  878MOL0     C18440   6.201   0.965   6.140 -0.2044 -0.9599  0.8330
  878MOL0     C18441   6.067   0.937   6.123 -0.4552  0.1638  0.0965
  878MOL0     O18442   5.788   1.043   6.101 -0.4262 -0.3304  0.1387
  878MOL0     C18443   5.538   0.926   6.078 -0.1518 -1.0739  0.5231
  878MOL0     C18444   5.413   0.882   6.036 -0.3373 -0.4514  0.3441
  878MOL0     N18445   4.761   0.638   6.131  0.9975  0.0383  0.0999
  878MOL0     N18446   4.638   0.683   6.175  0.1783 -1.1588 -0.8533
  878MOL0     C18447   3.376   0.853   6.288  0.0352  0.4961 -0.1792
  878MOL0     C18448   3.239   0.840   6.257 -0.2666 -0.1535  0.2647
  878MOL0     C18449   2.854   0.893   6.007 -0.3086 -0.7112  0.6842
  878MOL0     C18450   2.792   0.790   6.076 -0.5115  0.0334 -0.2203
  878MOL0     C18451   2.665   0.745   6.044 -0.4512  0.2796  0.1169
  878MOL0     C18452   2.581   0.824   5.965 -0.5903  0.7451 -0.6201
  878MOL0     O18453   2.461   0.779   5.929  0.2590  0.0261  0.1052
  878MOL0     C18454   2.367   0.812   6.035 -0.4716  0.1411  0.1846
  878MOL0     C18455   2.314   0.949   6.040  0.1787 -0.2157 -0.4221
  878MOL0     C18456   2.214   0.983   6.147 -0.2425  0.1970  0.0659
  878MOL0     C18457   2.170   1.121   6.125 -0.9763  0.3188  0.1439
  878MOL0     C18458   2.268   1.220   6.155 -0.4132 -0.0401 -0.4702
  878MOL0     C18459   2.362   1.292   6.170 -0.5778  0.3066  0.2703
  878MOL0     C18460   2.633   0.937   5.906 -0.5979 -0.2026  0.5271
  878MOL0     C18461   2.771   0.970   5.920  0.4926  0.3174 -0.3174
  878MOL0     C18462   2.818   1.095   5.848  0.7008  0.7642 -0.5872
  878MOL0     H18463   3.260   0.886   5.920  1.1340 -1.1576  0.7111
  878MOL0     H18464   3.506   0.925   5.991 -0.5817 -0.8605 -1.3122
  878MOL0     H18465   3.573   1.019   6.378  1.4660  0.5678 -0.4187
  878MOL0     H18466   3.624   0.861   6.427 -2.0676  0.5565  0.8230
  878MOL0     H18467   3.809   1.029   6.441 -1.1265  0.6298 -0.2042
  878MOL0     H18468   3.800   1.068   6.274  1.3223  0.6572  0.8624
  878MOL0     H18469   3.835   0.806   6.249  1.7490  0.6839 -1.1666
  878MOL0     H18470   3.906   0.811   6.410 -0.4116  0.7252  1.2584
  878MOL0     H18471   3.989   0.936   6.152  1.3389  0.4899 -0.1814
  878MOL0     H18472   4.046   1.014   6.293 -0.6917  0.7876 -1.0269
  878MOL0     H18473   4.138   0.809   6.393  0.9192 -2.4100 -0.4851
  878MOL0     H18474   4.093   0.721   6.245  0.9451 -0.5221  0.7531
  878MOL0     H18475   4.234   0.925   6.128  1.1942 -0.4292 -0.5027
  878MOL0     H18476   4.300   0.941   6.289 -1.8169 -0.0189  2.1571
  878MOL0     H18477   4.290   0.678   6.140 -2.2326  2.8728 -2.8225
  878MOL0     H18478   4.405   0.731   6.276  2.5398  1.9294 -0.6086
  878MOL0     H18479   4.401   0.794   5.976  0.0687 -2.1044  0.6289
  878MOL0     H18480   4.473   0.919   6.082  0.1223  1.2820  1.7110
  878MOL0     H18481   4.630   0.739   5.850  1.8495  1.4471  0.7136
  878MOL0     H18482   4.860   0.497   5.920 -0.3513  0.2794  0.8374
  878MOL0     H18483   4.833   0.622   5.800 -2.0123 -0.9453  0.1469
  878MOL0     H18484   5.003   0.692   6.043  0.7264 -1.8932  0.4836
  878MOL0     H18485   5.072   0.580   5.930 -0.9037 -1.1754 -0.3472
  878MOL0     H18486   4.938   0.843   5.837  2.1452  2.0308 -2.5507
  878MOL0     H18487   5.036   0.745   5.743  0.9152  0.2477  0.0218
  878MOL0     H18488   5.135   0.875   6.004 -1.0279  0.6626 -0.5206
  878MOL0     H18489   5.167   0.960   5.854  1.2115  0.7315  1.0263
  878MOL0     H18490   5.469   0.754   5.732 -1.9671 -0.3753  0.0300
  878MOL0     H18491   5.712   0.809   5.815  0.6152 -1.5021  0.8424
  878MOL0     H18492   6.059   0.934   5.779 -1.7141 -0.4909  0.0015
  878MOL0     H18493   6.303   0.964   5.809  1.4735 -2.1824 -0.2320
  878MOL0     H18494   6.385   1.107   6.235 -2.0265 -0.7511 -1.1901
  878MOL0     H18495   6.462   0.948   6.234  2.5817  0.0300  1.4009
  878MOL0     H18496   6.671   1.043   6.134 -0.7855 -0.0103 -1.6119
  878MOL0     H18497   6.603   1.202   6.130 -1.9811  0.8129  3.0379
  878MOL0     H18498   6.587   1.222   6.370  1.8427  1.1943  0.0356
  878MOL0     H18499   6.665   1.064   6.388 -3.6101 -0.1643  0.0433
  878MOL0     H18500   6.761   1.323   6.231 -0.7478 -0.8149 -1.6135
  878MOL0     H18501   6.862   1.177   6.233  0.3834  0.6596 -0.7854
  878MOL0     H18502   6.923   1.350   6.411  3.0207 -2.3567  3.7047
  878MOL0     H18503   6.915   1.186   6.461  1.1038 -0.1192 -0.5060
  878MOL0     H18504   6.666   1.345   6.512 -1.2402 -0.0133  2.1625
  878MOL0     H18505   6.738   1.217   6.612  0.9112 -0.1443 -0.1516
  878MOL0     H18506   6.877   1.481   6.576 -0.1101  0.1925  1.5650
  878MOL0     H18507   6.928   1.324   6.652 -1.2246 -3.0043 -1.3682
  878MOL0     H18508   6.874   1.474   6.820  0.4059  2.1969 -1.9682
  878MOL0     H18509   6.710   1.500   6.769  2.4481  1.6124 -2.9604
  878MOL0     H18510   6.226   0.965   6.246 -0.5668 -2.1107  0.9299
  878MOL0     H18511   6.007   0.907   6.209 -3.2343 -2.1285 -2.3998
  878MOL0     H18512   5.543   0.989   6.166 -1.3836  1.4302 -1.0954
  878MOL0     H18513   5.323   0.894   6.096 -0.7186  0.1579 -0.3334
  878MOL0     H18514   3.397   0.848   6.395 -2.3240  4.2646  0.6612
  878MOL0     H18515   3.169   0.818   6.337 -0.4662  0.2159  0.1941
  878MOL0     H18516   2.840   0.722   6.145 -2.1517 -0.1088  0.8408
  878MOL0     H18517   2.620   0.657   6.090  0.8670  1.5969  4.3175
  878MOL0     H18518   2.402   0.787   6.136  1.1482 -1.7145 -0.7744
  878MOL0     H18519   2.281   0.746   6.018  0.0649 -0.8464  1.1444
  878MOL0     H18520   2.252   0.962   5.951 -2.1446  2.0723  1.4173
  878MOL0     H18521   2.401   1.016   6.037  0.4011 -0.4212  0.8468
  878MOL0     H18522   2.261   0.974   6.245 -1.5183 -0.9327  0.5893
  878MOL0     H18523   2.130   0.914   6.139  0.3223 -1.3077  4.5706
  878MOL0     H18524   2.130   1.140   6.025 -0.0449 -1.0115 -0.5080
  878MOL0     H18525   2.083   1.136   6.190 -0.9416  1.1491  0.0117
  878MOL0     H18526   2.446   1.355   6.190  0.2847 -0.5184 -0.6337
  878MOL0     H18527   2.585   1.003   5.834  2.1139  1.4070  0.0659
  878MOL0     H18528   2.742   1.136   5.781  1.0254  3.1441  0.3986
  878MOL0     H18529   2.824   1.172   5.925 -1.4176 -0.3070  0.7613
  878MOL0     H18530   2.918   1.079   5.808  0.1954 -0.2845 -1.5077
  879MOL0     O18531   9.972   2.784   1.425 -0.0463  0.5776 -0.3305
  879MOL0     C18532   9.890   2.860   1.482  0.0551  1.0118 -0.5704
  879MOL0     O18533   9.911   2.987   1.504  0.0931 -0.9241 -0.7812
  879MOL0     C18534  10.030   3.035   1.446 -1.1781  0.7631  0.6959
  879MOL0     C18535  10.145   3.033   1.521  1.0495 -0.1401  0.1538
  879MOL0     C18536  10.264   3.063   1.456  0.6026  0.1423  0.1915
  879MOL0     C18537  10.268   3.096   1.321 -0.8535 -1.2029 -0.3148
  879MOL0     O18538  10.384   3.104   1.248 -0.4316 -0.3140  0.4437
  879MOL0     C18539  10.510   3.121   1.314  1.0563  0.6549 -0.0371
  879MOL0     C18540  10.622   3.132   1.207  1.1540 -0.4320 -0.3568
  879MOL0     C18541  10.767   3.128   1.278 -0.5149  0.2262  0.3655
  879MOL0     C18542  10.849   3.005   1.239 -0.1196  0.9863 -0.2460
  879MOL0     C18543  10.992   3.021   1.270  0.5786  1.1563  0.0116
  879MOL0     C18544  11.066   2.885   1.250 -0.1126  0.0137 -1.4551
  879MOL0     C18545  11.200   2.882   1.328 -0.1716 -0.9305  0.0113
  879MOL0     C18546  11.323   2.882   1.237  0.3784  0.1871 -0.2510
  879MOL0     N18547  11.443   2.825   1.308  0.1006 -0.0579  0.5792
  879MOL0     C18548  11.462   2.709   1.382  0.8392 -0.2955 -0.2296
  879MOL0     C18549  11.589   2.723   1.427  0.1270 -0.0493  0.6023
  879MOL0     C18550  11.648   2.627   1.534 -0.2660 -0.5519  0.0047
  879MOL0     C18551  11.798   2.641   1.558  0.1545 -0.7811 -0.6651
  879MOL0     C18552  11.848   2.540   1.661  0.3944 -0.6057 -0.0407
  879MOL0     C18553  11.998   2.560   1.694  0.2016 -0.6296  0.1768
  879MOL0     O18554  12.072   2.512   1.590 -0.6381 -0.1873 -0.8832
  879MOL0     C18555  12.208   2.533   1.589  0.1227 -0.8553 -0.0932
  879MOL0     C18556  12.293   2.488   1.491  0.4555 -0.0740  0.5028
  879MOL0     C18557  12.430   2.511   1.489 -0.4460  0.0029 -1.7293
  879MOL0     C18558  12.485   2.586   1.597 -0.8376  0.4397  0.1477
  879MOL0     C18559  12.633   2.609   1.606  0.5786 -0.0501  0.3471
  879MOL0     O18560  12.713   2.566   1.501 -0.0092 -0.0299 -0.8935
  879MOL0     C18561  12.853   2.574   1.515  0.4809  0.5204  0.0483
  879MOL0     C18562  12.919   2.676   1.435  0.1529 -0.1004  0.1620
  879MOL0     C18563  13.056   2.684   1.442  0.6401 -0.5325  0.3523
  879MOL0     C18564  13.138   2.604   1.525  0.3142 -0.1342  1.3419
  879MOL0     O18565  13.276   2.624   1.546  0.0084 -0.1578 -0.1902
  879MOL0     C18566  13.331   2.752   1.515  0.0500 -0.3743 -0.7692
  879MOL0     C18567  13.389   2.742   1.369  0.2829  0.5056 -0.1177
  879MOL0     C18568  13.525   2.667   1.373 -0.0067 -0.6563 -0.0945
  879MOL0     C18569  13.571   2.635   1.235 -0.0273 -0.2485 -0.4981
  879MOL0     C18570  13.702   2.558   1.244 -0.8821 -0.7066 -0.9198
  879MOL0     C18571  13.791   2.572   1.120 -0.4949  0.3091  1.1348
  879MOL0     C18572  13.938   2.515   1.138  0.3466  0.2282  0.7414
  879MOL0     C18573  13.953   2.364   1.149 -0.4495 -0.4357  0.3185
  879MOL0    Cl18574  14.114   2.296   1.184  0.2749  0.1811 -0.0378
  879MOL0     C18575  13.080   2.507   1.607  0.8526 -0.2296 -0.9798
  879MOL0     C18576  12.931   2.492   1.601 -0.7614  0.6800  0.1951
  879MOL0     O18577  12.678   2.663   1.707 -0.3492 -0.2645 -0.1456
  879MOL0     C18578  12.404   2.626   1.703 -0.2923 -0.9405 -0.7220
  879MOL0     C18579  12.269   2.606   1.699  0.0186  0.0705  0.0740
  879MOL0     N18580  11.633   2.851   1.392  0.1441  0.6905 -0.2039
  879MOL0     N18581  11.551   2.907   1.311 -0.1052  0.4750 -0.5557
  879MOL0     C18582  10.149   3.091   1.246  0.1562  0.2396 -0.4570
  879MOL0     C18583  10.028   3.078   1.313  0.1253 -0.4257 -0.0950
  879MOL0     C18584   9.755   2.816   1.530  0.3150  0.5244 -0.4387
  879MOL0     C18585   9.677   2.903   1.614  0.5093 -0.3784 -0.9295
  879MOL0     C18586   9.559   2.865   1.681 -0.4806 -0.9141 -0.0387
  879MOL0     C18587   9.504   2.740   1.659 -0.0543 -0.3877  0.6677
  879MOL0     O18588   9.378   2.720   1.724 -0.5612 -0.3079 -0.0150
  879MOL0     C18589   9.279   2.626   1.680 -0.2153 -0.2027  0.0515
  879MOL0     C18590   9.222   2.664   1.541  0.1769  0.3341 -0.7485
  879MOL0     C18591   9.113   2.769   1.548  0.7033  0.1076 -0.3999
  879MOL0     C18592   8.980   2.713   1.625 -0.1745 -0.9118 -0.1223
  879MOL0     C18593   8.908   2.609   1.544  0.1381 -0.1062  0.9545
  879MOL0     C18594   8.846   2.526   1.481 -0.1490 -0.2465 -0.4585
  879MOL0     C18595   9.569   2.651   1.574  0.6392 -0.9033 -0.8173
  879MOL0     C18596   9.697   2.690   1.507  1.0236  0.3441 -0.4440
  879MOL0     C18597   9.755   2.577   1.426  0.5519  0.0970 -0.5997
  879MOL0     H18598  10.144   3.001   1.625  0.7169  0.9396  0.4957
  879MOL0     H18599  10.359   3.045   1.506  0.0508 -1.6739  0.6352
  879MOL0     H18600  10.497   3.215   1.369 -0.7698  1.0327 -1.0290
  879MOL0     H18601  10.525   3.037   1.382 -1.9955 -0.3874 -0.4634
  879MOL0     H18602  10.615   3.226   1.152  2.0472  0.7275  1.3962
  879MOL0     H18603  10.613   3.046   1.140  0.9013  0.7991 -1.9429
  879MOL0     H18604  10.764   3.159   1.383  0.1775  0.3148  0.3612
  879MOL0     H18605  10.823   3.212   1.236  0.0370 -1.1962 -1.9021
  879MOL0     H18606  10.811   2.921   1.298 -1.8624  1.6403 -0.3975
  879MOL0     H18607  10.832   2.984   1.133  0.9631  3.1644 -0.9066
  879MOL0     H18608  11.034   3.094   1.200  0.4698 -0.0306 -1.3236
  879MOL0     H18609  11.020   3.060   1.369  2.4854  0.5999 -0.2558
  879MOL0     H18610  11.002   2.803   1.283 -1.1059  0.6175 -1.8221
  879MOL0     H18611  11.082   2.885   1.141 -1.4635 -1.8638 -1.7188
  879MOL0     H18612  11.197   2.796   1.395  1.7126 -0.8529  0.2524
  879MOL0     H18613  11.215   2.963   1.399  0.6333  0.1752 -1.3723
  879MOL0     H18614  11.298   2.816   1.153 -1.1679  0.8755 -0.3629
  879MOL0     H18615  11.344   2.981   1.196  1.4716 -0.0413 -0.2750
  879MOL0     H18616  11.397   2.624   1.399 -0.2309  0.0490 -2.2139
  879MOL0     H18617  11.594   2.655   1.625 -0.6585  2.7488 -1.1142
  879MOL0     H18618  11.632   2.520   1.513  0.4736 -1.1491  2.2000
  879MOL0     H18619  11.851   2.632   1.463  1.5775 -0.4632  0.0646
  879MOL0     H18620  11.819   2.743   1.592  0.1545 -0.0447 -2.7200
  879MOL0     H18621  11.834   2.444   1.611 -0.2133  0.1484 -1.3770
  879MOL0     H18622  11.781   2.558   1.746 -0.6477  1.5120 -1.2105
  879MOL0     H18623  12.024   2.504   1.785  2.0817 -0.9556 -0.5149
  879MOL0     H18624  12.001   2.668   1.710  1.7603 -1.0116  3.3179
  879MOL0     H18625  12.249   2.423   1.416 -1.5945 -0.9362  2.3132
  879MOL0     H18626  12.489   2.466   1.410 -2.3860  0.1489 -3.3458
  879MOL0     H18627  12.859   2.745   1.377  1.5229 -0.2390 -1.4604
  879MOL0     H18628  13.100   2.769   1.391  0.4127 -0.6977 -0.1331
  879MOL0     H18629  13.257   2.832   1.524  1.6483  0.9920  0.8280
  879MOL0     H18630  13.406   2.784   1.587 -0.6417  0.0666 -0.2295
  879MOL0     H18631  13.334   2.673   1.304  1.1082 -0.6656  0.3813
  879MOL0     H18632  13.385   2.844   1.330 -1.8543  0.9150  0.9891
  879MOL0     H18633  13.604   2.726   1.421 -2.1730  3.3091 -1.0058
  879MOL0     H18634  13.508   2.572   1.425 -0.0704 -1.6969 -1.9130
  879MOL0     H18635  13.584   2.734   1.189  0.0835 -0.6112 -1.2490
  879MOL0     H18636  13.497   2.582   1.175 -0.7798  0.2764 -0.0597
  879MOL0     H18637  13.685   2.452   1.264 -0.5564 -0.6774 -0.4560
  879MOL0     H18638  13.758   2.593   1.332 -0.3530  0.9302 -1.8552
  879MOL0     H18639  13.739   2.523   1.038 -0.6424  1.1797  0.6921
  879MOL0     H18640  13.786   2.677   1.091 -2.0204 -0.9434 -4.0971
  879MOL0     H18641  13.980   2.559   1.229 -0.3465  1.9473  0.2722
  879MOL0     H18642  14.002   2.548   1.055 -1.0127  3.8371  0.9601
  879MOL0     H18643  13.892   2.330   1.233 -0.0601  1.2479  1.3253
  879MOL0     H18644  13.924   2.315   1.056 -2.8689 -4.7131  2.9804
  879MOL0     H18645  13.146   2.446   1.668 -0.5498 -1.5796 -0.7605
  879MOL0     H18646  12.891   2.420   1.671  4.4782 -0.7948  2.1746
  879MOL0     H18647  12.457   2.674   1.785 -1.0412 -0.7289 -0.3515
  879MOL0     H18648  12.205   2.642   1.779 -0.4947 -1.9815  0.6313
  879MOL0     H18649  10.158   3.106   1.138  2.2866  2.8433 -0.0160
  879MOL0     H18650   9.936   3.063   1.257 -0.2257 -0.2266  0.4197
  879MOL0     H18651   9.717   3.002   1.634 -0.3956 -0.3680  0.9866
  879MOL0     H18652   9.505   2.939   1.738 -1.5596  0.6099 -2.8232
  879MOL0     H18653   9.207   2.604   1.759 -1.1100 -2.9032 -1.4001
  879MOL0     H18654   9.326   2.528   1.675  0.5147  0.0788  0.9531
  879MOL0     H18655   9.182   2.568   1.506 -0.6331 -1.1078  3.5285
  879MOL0     H18656   9.295   2.701   1.468 -0.7847  1.8344 -1.0086
  879MOL0     H18657   9.079   2.785   1.445 -2.7943  0.3355  0.6658
  879MOL0     H18658   9.157   2.862   1.584  0.6795 -0.2174  0.4819
  879MOL0     H18659   8.994   2.665   1.723  0.5164  0.4777  0.4992
  879MOL0     H18660   8.912   2.797   1.641 -0.0799 -1.0576  1.1575
  879MOL0     H18661   8.785   2.454   1.432 -1.6907 -1.1549  2.5779
  879MOL0     H18662   9.527   2.552   1.565 -4.1695  0.8325 -0.6043
  879MOL0     H18663   9.839   2.611   1.365  1.5135 -0.2763  0.4959
  879MOL0     H18664   9.790   2.501   1.496 -0.2368  0.1716 -0.1132
  879MOL0     H18665   9.689   2.522   1.358  0.8509 -1.4044  0.2798
  880MOL0     O18666   9.798  10.367   8.420  0.3596 -0.1375  0.6306
  880MOL0     C18667   9.724  10.312   8.340 -0.2762  0.3996  0.4784
  880MOL0     O18668   9.766  10.252   8.219  0.2185 -0.1522 -0.0321
  880MOL0     C18669   9.889  10.250   8.161 -0.0021  0.0381  0.5814
  880MOL0     C18670   9.908  10.168   8.047  0.0796  0.3865 -0.4394
  880MOL0     C18671  10.027  10.164   7.983  0.2429  0.4562  0.6334
  880MOL0     C18672  10.137  10.247   8.021  0.2221 -0.3069 -0.3369
  880MOL0     O18673  10.251  10.252   7.945 -0.4159  0.6924  0.2277
  880MOL0     C18674  10.364  10.209   8.015 -0.0896  0.0272 -0.7301
  880MOL0     C18675  10.486  10.241   7.934 -0.0314 -0.1106 -0.0160
  880MOL0     C18676  10.619  10.196   7.994 -0.2317 -0.3710 -0.3586
  880MOL0     C18677  10.740  10.218   7.898  0.5880 -0.1292  0.5442
  880MOL0     C18678  10.789  10.358   7.898  0.3491  0.3831  0.0362
  880MOL0     C18679  10.918  10.389   7.816  0.1720 -0.4189 -0.2079
  880MOL0     C18680  10.912  10.353   7.669  0.6673 -0.3889 -0.0839
  880MOL0     C18681  11.056  10.385   7.613  1.1136  0.1761  0.5217
  880MOL0     N18682  11.146  10.268   7.615  0.4621 -0.0367 -0.9321
  880MOL0     C18683  11.266  10.260   7.668 -0.0481  0.3381 -0.0379
  880MOL0     C18684  11.309  10.134   7.634  0.2831 -0.5716  0.2362
  880MOL0     C18685  11.443  10.077   7.660  0.3044  0.1405  0.0210
  880MOL0     C18686  11.553  10.135   7.567  0.4534  0.7096 -0.5739
  880MOL0     C18687  11.683  10.081   7.624  0.0912  0.1909  0.0736
  880MOL0     C18688  11.809  10.115   7.538  0.6563 -0.5257 -1.0730
  880MOL0     O18689  11.802  10.038   7.419 -0.3802  0.1773  0.2327
  880MOL0     C18690  11.920  10.042   7.342  0.1240 -0.5210  0.5532
  880MOL0     C18691  11.932   9.943   7.243 -0.3579  0.3852 -0.6625
  880MOL0     C18692  12.045   9.940   7.161  0.1134 -0.3773 -0.4632
  880MOL0     C18693  12.152  10.029   7.182 -0.1359 -0.1376  0.2630
  880MOL0     C18694  12.271  10.037   7.090 -0.6312  0.3843  0.3835
  880MOL0     O18695  12.316   9.926   7.027  0.5479 -0.7976  0.1875
  880MOL0     C18696  12.416   9.949   6.931  0.0114  0.4996  0.0860
  880MOL0     C18697  12.374  10.015   6.816 -1.0444 -0.3152  0.1023
  880MOL0     C18698  12.470  10.056   6.715  1.5274 -0.1621 -0.5794
  880MOL0     C18699  12.607  10.022   6.735 -0.2310 -1.2752 -0.3816
  880MOL0     O18700  12.712  10.069   6.658  0.6717 -0.4755  0.0040
  880MOL0     C18701  12.689  10.171   6.567  0.5139  0.1786  0.5426
  880MOL0     C18702  12.823  10.227   6.505  1.0822  0.4206 -0.1466
  880MOL0     C18703  12.903  10.130   6.419  0.2505  0.7358 -0.5380
  880MOL0     C18704  13.014  10.192   6.337 -0.6502  0.2091 -0.2791
  880MOL0     C18705  13.100  10.095   6.252  0.8946 -1.3945 -0.2749
  880MOL0     C18706  13.182  10.010   6.349  0.5651  0.6229  0.4966
  880MOL0     C18707  13.288   9.925   6.269  0.8686 -0.2854  0.3465
  880MOL0     C18708  13.353   9.819   6.362  0.3799  0.5745  0.7813
  880MOL0    Cl18709  13.463   9.711   6.287  0.2564 -0.0655  0.1754
  880MOL0     C18710  12.638   9.949   6.851 -0.5245  0.0031  0.7216
  880MOL0     C18711  12.542   9.898   6.939  0.0661  0.5759 -0.1338
  880MOL0     O18712  12.326  10.150   7.082 -0.1679  0.8155  0.0257
  880MOL0     C18713  12.149  10.120   7.290 -0.4493 -0.2749  0.2591
  880MOL0     C18714  12.028  10.129   7.358  0.9559  0.2701 -0.3436
  880MOL0     N18715  11.222  10.080   7.546  0.9856  0.3330 -0.2591
  880MOL0     N18716  11.115  10.156   7.548 -0.7309 -0.0593 -0.2015
  880MOL0     C18717  10.116  10.339   8.129 -1.0526  1.0908  0.7306
  880MOL0     C18718   9.994  10.329   8.201 -0.2384 -0.9440  0.1054
  880MOL0     C18719   9.580  10.293   8.361  0.4816  0.1364 -0.0609
  880MOL0     C18720   9.500  10.230   8.261  0.7670  0.4017 -0.5130
  880MOL0     C18721   9.366  10.200   8.271 -0.8173 -0.3721 -0.1623
  880MOL0     C18722   9.295  10.251   8.376  0.9664  0.0762 -0.2180
  880MOL0     O18723   9.157  10.239   8.407  0.6703  0.3622  0.1267
  880MOL0     C18724   9.081  10.186   8.293 -1.0775 -0.2962  0.2093
  880MOL0     C18725   8.931  10.194   8.317  1.0251  0.4072  0.4788
  880MOL0     C18726   8.857  10.129   8.193 -0.0003 -0.3201  0.0877
  880MOL0     C18727   8.708  10.188   8.186  0.4200 -0.0628 -0.0674
  880MOL0     C18728   8.624  10.129   8.292 -0.5525  0.1121  0.5376
  880MOL0     C18729   8.565  10.062   8.379 -0.7022  0.1620 -0.7781
  880MOL0     C18730   9.367  10.323   8.473 -0.3703  0.5191  0.5291
  880MOL0     C18731   9.510  10.341   8.470  0.4458 -0.0537  0.2782
  880MOL0     C18732   9.570  10.406   8.590 -0.3805 -0.9254  0.4653
  880MOL0     H18733   9.834  10.103   8.001  2.6099 -0.6885 -3.2792
  880MOL0     H18734  10.048  10.104   7.895 -2.7929  1.6635 -1.0387
  880MOL0     H18735  10.374  10.257   8.112 -1.2415 -3.4740  1.2897
  880MOL0     H18736  10.356  10.104   8.044  0.0624  0.3482  0.4963
  880MOL0     H18737  10.490  10.350   7.925  0.6662  0.0967  2.3081
  880MOL0     H18738  10.472  10.196   7.835 -0.5317  0.4948 -0.2309
  880MOL0     H18739  10.613  10.087   8.003 -1.3278 -0.2424  0.7471
  880MOL0     H18740  10.627  10.234   8.096 -0.2835 -1.1063 -0.0730
  880MOL0     H18741  10.819  10.154   7.938  0.5200 -0.6308 -0.1157
  880MOL0     H18742  10.724  10.192   7.793  1.0199  1.5407  0.0255
  880MOL0     H18743  10.711  10.431   7.875  0.7953  0.5156 -1.0833
  880MOL0     H18744  10.825  10.369   8.001 -0.6680 -1.8068  0.7013
  880MOL0     H18745  10.930  10.497   7.823  0.5889 -0.2396 -2.7409
  880MOL0     H18746  10.999  10.340   7.870 -0.0293 -0.8469 -0.2909
  880MOL0     H18747  10.837  10.417   7.621 -0.2522 -2.8421 -2.1488
  880MOL0     H18748  10.869  10.254   7.651 -0.2464  0.4999 -3.6080
  880MOL0     H18749  11.029  10.414   7.511  1.0205  0.9108  0.7471
  880MOL0     H18750  11.105  10.474   7.656  1.1221 -0.1724  1.2551
  880MOL0     H18751  11.313  10.334   7.732  0.9377 -0.2075 -0.1072
  880MOL0     H18752  11.470  10.085   7.766 -0.4965  0.4058  0.2095
  880MOL0     H18753  11.445   9.969   7.640 -1.5015  0.0805  0.0515
  880MOL0     H18754  11.534  10.095   7.467  0.4751 -1.1995  0.1515
  880MOL0     H18755  11.539  10.243   7.554  2.9026  1.2196  0.4488
  880MOL0     H18756  11.670   9.972   7.632 -2.1085  0.4807  1.0801
  880MOL0     H18757  11.696  10.129   7.721  0.2886  0.7736 -0.2350
  880MOL0     H18758  11.900  10.099   7.596 -0.7269  1.1287  1.7980
  880MOL0     H18759  11.798  10.221   7.515  3.5832  0.1250  0.0755
  880MOL0     H18760  11.862   9.861   7.230 -0.7816  0.4679  0.9082
  880MOL0     H18761  12.063   9.876   7.075  4.3968  2.0434 -1.6897
  880MOL0     H18762  12.269  10.043   6.813 -0.8637  0.4084  0.2182
  880MOL0     H18763  12.431  10.122   6.639 -0.8224  1.0421  1.5224
  880MOL0     H18764  12.636  10.124   6.484  0.2283  1.7506 -0.2030
  880MOL0     H18765  12.629  10.253   6.607 -1.6322 -0.7876 -0.5447
  880MOL0     H18766  12.801  10.304   6.431 -0.4170 -0.7880 -1.0427
  880MOL0     H18767  12.890  10.267   6.581 -2.5229  1.9159  2.5110
  880MOL0     H18768  12.947  10.050   6.479 -0.3888 -1.8382 -3.2711
  880MOL0     H18769  12.830  10.077   6.357 -0.2169  0.8459 -0.0835
  880MOL0     H18770  13.071  10.254   6.406 -0.4659 -2.6283  2.3511
  880MOL0     H18771  12.956  10.262   6.277  0.4971  0.3244 -1.3043
  880MOL0     H18772  13.175  10.146   6.192  0.9050 -0.1383  0.7729
  880MOL0     H18773  13.025  10.040   6.196 -2.4646 -0.9570  3.3595
  880MOL0     H18774  13.246  10.074   6.411  1.0335 -0.1577  0.8386
  880MOL0     H18775  13.111   9.948   6.403  3.2464 -0.3086  3.2251
  880MOL0     H18776  13.364   9.987   6.221  1.6126 -0.9754  0.6154
  880MOL0     H18777  13.230   9.863   6.200 -4.8483  2.1572  2.3238
  880MOL0     H18778  13.407   9.865   6.445 -0.4214 -0.8626  2.1701
  880MOL0     H18779  13.278   9.753   6.407  2.0858 -0.5615  2.0660
  880MOL0     H18780  12.743   9.926   6.870  0.3052  0.4148 -2.6862
  880MOL0     H18781  12.568   9.836   7.024 -1.5006  0.0473  0.0042
  880MOL0     H18782  12.228  10.191   7.313  1.2589 -1.2177 -2.2499
  880MOL0     H18783  12.033  10.202   7.439 -3.5635 -1.8161  2.1967
  880MOL0     H18784  10.186  10.415   8.163 -1.0779  1.3114  0.2839
  880MOL0     H18785   9.979  10.393   8.288  1.9225 -0.1367 -0.0363
  880MOL0     H18786   9.545  10.186   8.172  0.5224 -2.1604  0.5508
  880MOL0     H18787   9.322  10.148   8.186 -0.9767 -0.8742  0.2281
  880MOL0     H18788   9.123  10.090   8.262  1.8656  0.4607  1.4205
  880MOL0     H18789   9.101  10.251   8.207 -1.1669  1.7247  1.6509
  880MOL0     H18790   8.897  10.294   8.344 -1.2172 -0.6647  1.9944
  880MOL0     H18791   8.914  10.130   8.405  2.4323  2.1245  2.0942
  880MOL0     H18792   8.859  10.020   8.205  0.9063 -0.3239 -0.0534
  880MOL0     H18793   8.906  10.165   8.103 -0.9759 -1.2372 -0.8405
  880MOL0     H18794   8.716  10.296   8.202  1.8894 -0.2126  0.3466
  880MOL0     H18795   8.656  10.182   8.090  1.6478  1.3169 -0.8660
  880MOL0     H18796   8.529  10.010   8.466 -2.3501 -0.7821 -1.9806
  880MOL0     H18797   9.306  10.345   8.560 -1.4773 -1.6236  0.3704
  880MOL0     H18798   9.490  10.446   8.653  0.5004  4.2367 -1.2675
  880MOL0     H18799   9.641  10.331   8.627 -0.9590 -1.7460 -0.0472
  880MOL0     H18800   9.622  10.496   8.557 -0.5671 -1.0325 -0.1185
  881MOL0     O18801   4.485   5.927   6.826 -0.5035 -0.1845 -0.0396
  881MOL0     C18802   4.408   6.000   6.767 -0.1618  0.5138 -0.0295
  881MOL0     O18803   4.452   6.109   6.690 -0.0728 -0.2475  0.4960
  881MOL0     C18804   4.584   6.148   6.711 -0.8316 -0.2974  0.5334
  881MOL0     C18805   4.619   6.218   6.829  0.4526 -0.7991  0.2373
  881MOL0     C18806   4.751   6.253   6.851  0.8252 -0.3732 -0.0604
  881MOL0     C18807   4.851   6.221   6.759  0.4368  0.0595 -0.3471
  881MOL0     O18808   4.978   6.273   6.787  0.2463 -0.4996  0.4992
  881MOL0     C18809   5.088   6.251   6.705  0.5252  0.4825 -1.1735
  881MOL0     C18810   5.198   6.341   6.756 -0.6564  0.1882  0.5889
  881MOL0     C18811   5.251   6.275   6.885 -0.0265 -0.7082 -0.5554
  881MOL0     C18812   5.401   6.299   6.897 -0.6268 -0.2005  0.4505
  881MOL0     C18813   5.464   6.223   7.019  0.4340 -0.4085  0.4320
  881MOL0     C18814   5.427   6.273   7.166  0.4407  0.5923  0.2447
  881MOL0     C18815   5.507   6.203   7.276  0.0495 -0.0485  0.0143
  881MOL0     C18816   5.537   6.290   7.402 -0.0453 -0.0888  0.2683
  881MOL0     N18817   5.619   6.222   7.506  0.4254 -0.1179 -1.1878
  881MOL0     C18818   5.757   6.237   7.530 -0.4530  0.0175 -0.6565
  881MOL0     C18819   5.789   6.156   7.636  0.4753  0.8389 -0.0142
  881MOL0     C18820   5.918   6.118   7.700 -0.2153  0.8921 -0.8857
  881MOL0     C18821   5.991   6.029   7.604  0.5631  0.1967 -0.3767
  881MOL0     C18822   6.126   5.964   7.657  0.5963 -0.4726  0.8588
  881MOL0     C18823   6.177   5.852   7.561  0.1944  0.5707 -1.0197
  881MOL0     O18824   6.227   5.899   7.432  0.6961  0.4316 -0.1146
  881MOL0     C18825   6.339   5.845   7.384  0.2979 -0.2893 -0.2157
  881MOL0     C18826   6.333   5.763   7.279 -0.4140  0.2518  1.0834
  881MOL0     C18827   6.458   5.713   7.226 -0.4396 -1.2717  0.1955
  881MOL0     C18828   6.582   5.750   7.279  0.5658 -0.2946  0.0340
  881MOL0     C18829   6.717   5.711   7.228 -0.9250 -0.7471 -0.3562
  881MOL0     O18830   6.823   5.796   7.275  0.8971  0.5080  0.6186
  881MOL0     C18831   6.954   5.791   7.236  0.3372  0.8233 -0.7419
  881MOL0     C18832   7.027   5.694   7.168 -0.0279  0.4094 -0.2581
  881MOL0     C18833   7.165   5.707   7.150  0.9007 -0.4888  0.0931
  881MOL0     C18834   7.236   5.812   7.207 -0.7992  0.0701  0.4302
  881MOL0     O18835   7.368   5.821   7.166  0.0466  0.3825 -0.3827
  881MOL0     C18836   7.445   5.715   7.223 -0.5972  0.3006 -0.3975
  881MOL0     C18837   7.589   5.749   7.186 -0.0465 -0.1552  0.5616
  881MOL0     C18838   7.678   5.633   7.225  0.0538  0.1942  0.5280
  881MOL0     C18839   7.827   5.667   7.200 -0.1328 -0.2477  0.0439
  881MOL0     C18840   7.921   5.550   7.233  0.2644 -0.0837 -0.3783
  881MOL0     C18841   8.057   5.578   7.180  0.2297  0.0918 -0.1301
  881MOL0     C18842   8.124   5.700   7.242 -0.5553 -0.2458 -0.4586
  881MOL0     C18843   8.271   5.693   7.226 -0.5237 -1.0757  0.2702
  881MOL0    Cl18844   8.322   5.680   7.052  0.1794  0.2006 -0.1216
  881MOL0     C18845   7.169   5.910   7.275  0.2232 -0.1659  0.4111
  881MOL0     C18846   7.030   5.904   7.285 -0.1020 -0.0127  0.3089
  881MOL0     O18847   6.732   5.611   7.165 -0.2875  0.2813  0.6685
  881MOL0     C18848   6.582   5.835   7.397 -0.6468 -0.6558 -0.0306
  881MOL0     C18849   6.459   5.874   7.452  0.6070 -1.0531 -1.0893
  881MOL0     N18850   5.673   6.103   7.683 -0.3276  0.7463  0.1533
  881MOL0     N18851   5.581   6.151   7.621  1.0708 -0.2518  0.5012
  881MOL0     C18852   4.813   6.164   6.633 -0.0351  0.6695 -0.5351
  881MOL0     C18853   4.680   6.122   6.611  0.6262 -1.9992  0.1318
  881MOL0     C18854   4.262   5.975   6.766  0.3306  1.0986 -0.7101
  881MOL0     C18855   4.190   6.031   6.664 -0.5648 -0.1531  0.5788
  881MOL0     C18856   4.055   6.008   6.650 -0.5795 -0.4113 -0.0136
  881MOL0     C18857   3.981   5.932   6.741 -0.1620  0.4803  0.3631
  881MOL0     O18858   3.845   5.928   6.722 -0.6983 -0.2257  0.3992
  881MOL0     C18859   3.788   5.803   6.754  1.0013 -0.2990  0.7026
  881MOL0     C18860   3.649   5.808   6.689 -0.1381 -0.8953 -0.0666
  881MOL0     C18861   3.564   5.690   6.731  0.2642  0.4903  0.0729
  881MOL0     C18862   3.413   5.695   6.662 -0.2671 -0.9491 -0.7765
  881MOL0     C18863   3.374   5.571   6.596  0.3045 -0.5272 -0.1222
  881MOL0     C18864   3.344   5.479   6.525  0.5709  0.9393  0.2234
  881MOL0     C18865   4.047   5.865   6.848 -0.1617  0.2806 -0.6914
  881MOL0     C18866   4.188   5.891   6.857 -0.0061  0.4367 -0.0994
  881MOL0     C18867   4.261   5.811   6.961  0.3253  0.2740 -0.4692
  881MOL0     H18868   4.552   6.245   6.910 -0.5864 -0.9432 -0.5462
  881MOL0     H18869   4.765   6.303   6.947 -0.7158 -3.4084  1.8705
  881MOL0     H18870   5.099   6.142   6.701 -3.1071 -0.1363  0.8383
  881MOL0     H18871   5.059   6.298   6.610  0.3025  1.1921 -0.7540
  881MOL0     H18872   5.156   6.440   6.774  1.6595  1.3420 -0.0310
  881MOL0     H18873   5.280   6.345   6.683 -1.9540 -0.0770 -0.9481
  881MOL0     H18874   5.235   6.167   6.874  0.1612 -0.7014 -0.9365
  881MOL0     H18875   5.199   6.310   6.974  0.8578 -2.1676  0.5893
  881MOL0     H18876   5.452   6.259   6.809  1.8582 -1.3630  2.3052
  881MOL0     H18877   5.424   6.406   6.892  2.8100 -0.8746 -3.3524
  881MOL0     H18878   5.450   6.115   7.010  1.1896 -0.3382 -3.2654
  881MOL0     H18879   5.571   6.242   7.011  0.8146 -2.2180  0.7954
  881MOL0     H18880   5.464   6.375   7.164 -0.3050  0.8685 -1.7720
  881MOL0     H18881   5.318   6.268   7.172  0.4228 -1.0231 -0.7481
  881MOL0     H18882   5.605   6.193   7.228 -0.0847  0.9375 -0.4782
  881MOL0     H18883   5.459   6.106   7.292  1.8558 -0.9764  0.0850
  881MOL0     H18884   5.586   6.385   7.381  1.5702 -0.0857  3.4287
  881MOL0     H18885   5.442   6.320   7.445 -1.1712 -1.7229 -0.9478
  881MOL0     H18886   5.835   6.284   7.471 -1.6035  1.1542 -1.3286
  881MOL0     H18887   5.977   6.208   7.719 -2.3513  2.3597 -0.8656
  881MOL0     H18888   5.906   6.084   7.803 -0.8221  1.4293 -0.7751
  881MOL0     H18889   5.924   5.949   7.571  0.2710  1.0385 -1.9299
  881MOL0     H18890   6.016   6.087   7.515  0.8649 -1.9064 -1.7554
  881MOL0     H18891   6.102   5.922   7.755 -1.6722  3.0175  1.9676
  881MOL0     H18892   6.198   6.045   7.672  0.3826  0.1175 -1.0356
  881MOL0     H18893   6.086   5.795   7.539  0.2232 -0.7084  1.7262
  881MOL0     H18894   6.240   5.781   7.616  0.0844  0.3588 -1.1678
  881MOL0     H18895   6.242   5.747   7.221 -0.3900  2.2977  0.3966
  881MOL0     H18896   6.458   5.646   7.140  0.1261 -0.3491 -0.5435
  881MOL0     H18897   6.968   5.614   7.125  2.0567  0.0478 -2.6311
  881MOL0     H18898   7.228   5.642   7.089  0.1384 -0.9649 -0.1999
  881MOL0     H18899   7.431   5.709   7.331 -2.1616 -1.4006 -0.6367
  881MOL0     H18900   7.409   5.617   7.190 -0.9820 -0.5403  2.3048
  881MOL0     H18901   7.600   5.766   7.078  1.0737 -0.1181  0.6639
  881MOL0     H18902   7.614   5.842   7.239  4.6425 -0.3508 -0.8322
  881MOL0     H18903   7.662   5.609   7.331 -1.9143 -0.4682  0.1131
  881MOL0     H18904   7.655   5.540   7.173 -1.8261  1.1545 -0.4585
  881MOL0     H18905   7.849   5.759   7.256 -0.0861 -0.6029  0.6183
  881MOL0     H18906   7.836   5.691   7.094 -2.8466 -0.0303 -0.2032
  881MOL0     H18907   7.878   5.455   7.200 -0.5083  0.6008 -1.3832
  881MOL0     H18908   7.931   5.535   7.341 -0.3208 -0.7189 -0.4079
  881MOL0     H18909   8.117   5.488   7.197 -0.0948 -0.1488 -0.2598
  881MOL0     H18910   8.040   5.596   7.073 -1.7091  0.5279  0.2097
  881MOL0     H18911   8.097   5.705   7.348 -1.2691 -3.8441 -0.3185
  881MOL0     H18912   8.077   5.781   7.185 -1.1589 -0.2230  0.0646
  881MOL0     H18913   8.321   5.780   7.270  1.1925  0.5293 -4.2440
  881MOL0     H18914   8.302   5.601   7.275 -3.0160 -0.8217  2.5582
  881MOL0     H18915   7.207   6.009   7.300  2.1079 -0.7934  0.1697
  881MOL0     H18916   6.987   5.987   7.339  1.7524  0.5655  0.9968
  881MOL0     H18917   6.676   5.868   7.439  0.0229 -1.0459 -1.1746
  881MOL0     H18918   6.459   5.938   7.539  0.3642  0.4373 -2.1580
  881MOL0     H18919   4.886   6.142   6.556  0.2681 -0.2575 -0.0044
  881MOL0     H18920   4.653   6.085   6.513 -0.6354  0.1757 -0.4170
  881MOL0     H18921   4.225   6.091   6.581  0.1420 -0.5685  0.5683
  881MOL0     H18922   4.016   6.053   6.559  4.6925 -0.4946 -2.6770
  881MOL0     H18923   3.776   5.780   6.860  0.6672 -0.1747  0.6911
  881MOL0     H18924   3.836   5.719   6.703  0.3150 -0.1923 -0.1262
  881MOL0     H18925   3.660   5.830   6.582  0.5343 -0.4172  0.0985
  881MOL0     H18926   3.602   5.896   6.733  2.7811  0.7421  0.0150
  881MOL0     H18927   3.559   5.681   6.840  0.3218 -1.4500 -0.0558
  881MOL0     H18928   3.608   5.596   6.696  0.5268  1.1694 -1.5100
  881MOL0     H18929   3.338   5.720   6.738  1.2236  3.0204 -0.4136
  881MOL0     H18930   3.396   5.772   6.587 -0.3813  0.9972  1.1543
  881MOL0     H18931   3.287   5.410   6.467 -0.2047  1.2965  0.5409
  881MOL0     H18932   3.987   5.804   6.915 -3.5677 -0.5737 -4.1251
  881MOL0     H18933   4.191   5.740   7.007  0.4103  1.4685  1.5836
  881MOL0     H18934   4.335   5.741   6.921  0.0755  0.8168 -1.9372
  881MOL0     H18935   4.290   5.885   7.036 -0.5852  1.6061 -1.4008
  882MOL0     O18936   9.335   4.162   3.104  0.6939 -0.2143 -0.3706
  882MOL0     C18937   9.281   4.212   3.203  0.3121  0.3204  0.6356
  882MOL0     O18938   9.348   4.281   3.297  0.1827 -0.1526 -0.8878
  882MOL0     C18939   9.480   4.316   3.294 -0.0429  0.4594  0.1156
  882MOL0     C18940   9.561   4.305   3.410 -0.3475 -0.3926 -0.8112
  882MOL0     C18941   9.701   4.309   3.408  0.4628  0.2555  0.1018
  882MOL0     C18942   9.763   4.338   3.283  0.1226  2.1107 -0.1777
  882MOL0     O18943   9.899   4.336   3.282  0.2314 -0.0448  0.0953
  882MOL0     C18944   9.970   4.308   3.160  0.0205  0.3779  0.2868
  882MOL0     C18945  10.115   4.271   3.191 -0.2442  0.9402 -0.4895
  882MOL0     C18946  10.182   4.398   3.255  0.3333  0.5644  0.4215
  882MOL0     C18947  10.328   4.385   3.298 -0.9825 -0.9513  0.0361
  882MOL0     C18948  10.382   4.512   3.364  0.1722 -0.2927 -0.1288
  882MOL0     C18949  10.526   4.535   3.371 -0.3098 -0.2874 -0.7713
  882MOL0     C18950  10.606   4.428   3.451 -0.4764 -0.1773  1.0468
  882MOL0     C18951  10.752   4.458   3.449  0.0160 -0.4470 -0.5002
  882MOL0     N18952  10.819   4.344   3.515 -0.4552  0.5517  0.2692
  882MOL0     C18953  10.882   4.358   3.643  0.3079  0.1631 -0.4365
  882MOL0     C18954  10.952   4.245   3.660  0.7186  0.8016 -0.5454
  882MOL0     C18955  11.031   4.214   3.781 -0.6257 -0.0718 -0.7043
  882MOL0     C18956  11.164   4.301   3.773  0.4307 -0.2909  0.7470
  882MOL0     C18957  11.235   4.320   3.914  0.1823  0.3093 -0.2415
  882MOL0     C18958  11.299   4.197   3.981  0.0630 -0.6117  0.0215
  882MOL0     O18959  11.385   4.143   3.889 -0.6920 -0.1445  0.4822
  882MOL0     C18960  11.523   4.186   3.876  0.9439 -0.7669 -0.2475
  882MOL0     C18961  11.599   4.142   3.777  0.6996  0.4299  0.5022
  882MOL0     C18962  11.727   4.191   3.751  0.2154 -0.2518 -0.4289
  882MOL0     C18963  11.779   4.295   3.834  0.4776  0.2721  0.5518
  882MOL0     C18964  11.910   4.359   3.801  0.2529  0.0506 -0.0105
  882MOL0     O18965  11.945   4.464   3.887 -1.0050 -0.9272 -0.4871
  882MOL0     C18966  12.046   4.550   3.869  0.1178 -0.2454  0.2647
  882MOL0     C18967  12.167   4.501   3.823  0.1439 -0.1643  0.6671
  882MOL0     C18968  12.280   4.576   3.801 -0.3388 -0.4413  0.2702
  882MOL0     C18969  12.273   4.713   3.833  0.3612  0.1249  0.1835
  882MOL0     O18970  12.379   4.783   3.818 -0.7012 -0.0769  0.6184
  882MOL0     C18971  12.371   4.926   3.815 -0.2743  0.8692  0.0306
  882MOL0     C18972  12.507   4.995   3.765  0.4150  0.2332  0.3924
  882MOL0     C18973  12.624   4.938   3.848  0.5816 -0.1673  0.2129
  882MOL0     C18974  12.742   4.966   3.757 -0.4844 -0.2076 -0.4306
  882MOL0     C18975  12.873   4.950   3.848 -0.6505  0.0031  0.2573
  882MOL0     C18976  12.996   4.944   3.762 -0.1061  0.5424 -0.7104
  882MOL0     C18977  13.021   5.079   3.691  0.1288  0.6332  0.3620
  882MOL0     C18978  13.167   5.104   3.662 -0.1099  0.7654 -0.5896
  882MOL0    Cl18979  13.236   5.156   3.822  0.0625  0.4579 -0.2729
  882MOL0     C18980  12.145   4.768   3.866  0.6721 -0.6394 -0.3127
  882MOL0     C18981  12.034   4.683   3.897  0.0923  0.5736 -0.3570
  882MOL0     O18982  11.975   4.327   3.699  0.0746  0.0367  0.1386
  882MOL0     C18983  11.699   4.342   3.939  0.9412 -0.0939  0.3441
  882MOL0     C18984  11.576   4.289   3.959  0.1937 -0.7872  0.0164
  882MOL0     N18985  10.918   4.160   3.557 -0.7039 -0.4823 -0.1003
  882MOL0     N18986  10.844   4.222   3.466 -0.1782  0.7817  0.0197
  882MOL0     C18987   9.685   4.358   3.173  0.4884  0.5166  0.6766
  882MOL0     C18988   9.547   4.350   3.172 -0.8084 -0.5245 -0.4523
  882MOL0     C18989   9.139   4.179   3.229  0.2677  0.6275 -0.0485
  882MOL0     C18990   9.083   4.221   3.360  0.5929 -0.6361  0.5042
  882MOL0     C18991   8.947   4.201   3.393 -1.0436  0.4935 -0.4322
  882MOL0     C18992   8.868   4.131   3.309 -0.1224 -0.1876  0.2475
  882MOL0     O18993   8.734   4.117   3.321  0.3644 -0.1229  0.0812
  882MOL0     C18994   8.662   4.184   3.428 -0.9441  0.4408  0.3317
  882MOL0     C18995   8.662   4.107   3.562  0.2570  0.4024 -0.5497
  882MOL0     C18996   8.662   3.956   3.557  0.4957  0.6057 -0.8519
  882MOL0     C18997   8.766   3.889   3.649  0.1392 -0.4245 -0.0867
  882MOL0     C18998   8.739   3.749   3.654 -0.3984  0.5078  0.5098
  882MOL0     C18999   8.699   3.634   3.654  0.3253 -0.2789  0.6366
  882MOL0     C19000   8.919   4.069   3.194  0.4196 -0.7443 -0.6266
  882MOL0     C19001   9.053   4.095   3.147  1.0781 -0.0417  0.4643
  882MOL0     C19002   9.086   4.037   3.015  0.2662 -0.5694  0.2739
  882MOL0     H19003   9.512   4.285   3.505  2.6077 -2.2349  0.4775
  882MOL0     H19004   9.754   4.290   3.501 -0.4903 -1.6616  0.2906
  882MOL0     H19005   9.921   4.220   3.116 -2.3595  0.6291  2.2481
  882MOL0     H19006   9.954   4.391   3.090  1.9476  0.7926  0.3039
  882MOL0     H19007  10.167   4.250   3.097 -2.3411  0.5024 -1.6105
  882MOL0     H19008  10.132   4.180   3.249 -2.0884  0.6753 -0.3079
  882MOL0     H19009  10.125   4.423   3.345 -0.5065 -1.3601  0.4557
  882MOL0     H19010  10.185   4.486   3.190  1.0752  0.4267  0.2595
  882MOL0     H19011  10.335   4.299   3.365  0.3408  0.4173  1.7371
  882MOL0     H19012  10.397   4.369   3.214  2.0436  1.3305  1.8780
  882MOL0     H19013  10.346   4.597   3.306  0.3934  1.2397  1.8596
  882MOL0     H19014  10.335   4.520   3.463  1.9716 -0.9317  0.8276
  882MOL0     H19015  10.569   4.526   3.271  4.8829 -1.8129  1.3137
  882MOL0     H19016  10.531   4.639   3.407 -0.8351 -1.4285  3.0655
  882MOL0     H19017  10.595   4.337   3.391  1.2532  1.1059 -1.3910
  882MOL0     H19018  10.585   4.430   3.558  2.6398  1.5927  1.7561
  882MOL0     H19019  10.787   4.472   3.346  2.2893  3.4007  0.6033
  882MOL0     H19020  10.772   4.552   3.500  1.0172 -0.7920 -0.2330
  882MOL0     H19021  10.867   4.444   3.708 -1.0198 -1.5013  1.6029
  882MOL0     H19022  10.970   4.243   3.867 -0.0232  0.0260 -0.3031
  882MOL0     H19023  11.059   4.109   3.794  1.2938  0.2190 -1.9806
  882MOL0     H19024  11.232   4.267   3.695 -1.0334 -0.9089 -0.3235
  882MOL0     H19025  11.137   4.401   3.737 -3.7520 -0.4957  2.6693
  882MOL0     H19026  11.158   4.350   3.986  1.0671  1.8733  0.1046
  882MOL0     H19027  11.306   4.403   3.905 -1.9374  2.1521 -0.7113
  882MOL0     H19028  11.220   4.125   4.005 -0.3706 -0.6735 -1.4961
  882MOL0     H19029  11.351   4.233   4.071 -1.2426  1.4655  0.0028
  882MOL0     H19030  11.562   4.069   3.706  1.2393  1.3606 -0.7898
  882MOL0     H19031  11.783   4.165   3.661 -0.1398  2.7134 -1.6292
  882MOL0     H19032  12.187   4.394   3.817  0.1197 -0.1787  0.8569
  882MOL0     H19033  12.370   4.523   3.774  0.0599 -0.3300  1.3269
  882MOL0     H19034  12.289   4.966   3.755 -0.4097  0.3400 -0.1419
  882MOL0     H19035  12.365   4.967   3.916  2.4582  0.6324  0.3428
  882MOL0     H19036  12.518   4.989   3.656 -0.3289 -0.6802  0.3594
  882MOL0     H19037  12.489   5.099   3.794 -0.7102  0.1835 -0.0825
  882MOL0     H19038  12.641   4.997   3.938 -0.3578  1.1763 -0.4670
  882MOL0     H19039  12.610   4.830   3.864 -1.1706  0.0784  0.5117
  882MOL0     H19040  12.743   5.070   3.723  3.0906  0.2779  0.7527
  882MOL0     H19041  12.741   4.893   3.676 -1.5120 -1.9863  1.1112
  882MOL0     H19042  12.872   4.847   3.885  0.2613 -0.6325 -1.3963
  882MOL0     H19043  12.882   5.030   3.922  1.0243  1.4534 -1.4240
  882MOL0     H19044  13.080   4.924   3.829 -0.3836 -0.8954 -0.7577
  882MOL0     H19045  13.001   4.867   3.684 -1.1998  0.8965 -1.1580
  882MOL0     H19046  12.983   5.156   3.758  1.5963  1.4370  0.2970
  882MOL0     H19047  12.972   5.078   3.593  0.7462  1.4185  0.0276
  882MOL0     H19048  13.216   5.015   3.620 -0.7723 -0.0123  0.2572
  882MOL0     H19049  13.187   5.184   3.590  3.0359  1.6680  1.1047
  882MOL0     H19050  12.134   4.874   3.885  0.9791 -0.9520  1.8156
  882MOL0     H19051  11.943   4.726   3.939 -0.4328 -0.4561 -0.4099
  882MOL0     H19052  11.724   4.428   4.001 -0.2721 -1.2825  2.5940
  882MOL0     H19053  11.512   4.341   4.028  1.1172 -1.0833  1.1309
  882MOL0     H19054   9.740   4.388   3.084  2.0760  1.2379  1.8357
  882MOL0     H19055   9.495   4.364   3.078 -0.8859 -1.9972 -0.6637
  882MOL0     H19056   9.145   4.278   3.429  0.4285  2.3055 -1.6120
  882MOL0     H19057   8.910   4.240   3.488  0.0704  0.5983 -0.0114
  882MOL0     H19058   8.560   4.196   3.391 -1.2272 -1.1368  0.5367
  882MOL0     H19059   8.698   4.286   3.444 -2.6138  1.1776 -0.4460
  882MOL0     H19060   8.574   4.142   3.618 -1.6238 -3.1245 -0.9740
  882MOL0     H19061   8.753   4.132   3.616 -1.2393  0.5521  2.0847
  882MOL0     H19062   8.681   3.919   3.456  3.3056  0.0087 -0.1756
  882MOL0     H19063   8.560   3.924   3.580  0.5142  0.7901 -0.5034
  882MOL0     H19064   8.860   3.904   3.596  0.5825 -0.0930  0.7830
  882MOL0     H19065   8.775   3.934   3.748  0.6382 -0.6412 -0.0313
  882MOL0     H19066   8.652   3.538   3.656  1.2613 -0.8264 -1.3094
  882MOL0     H19067   8.847   4.019   3.130  0.6555 -2.0312  0.0804
  882MOL0     H19068   9.089   4.116   2.939  3.1046 -0.9963 -0.1450
  882MOL0     H19069   9.186   3.995   3.029  1.2063  1.8476  1.3112
  882MOL0     H19070   9.018   3.957   2.983 -1.2088  1.3784 -1.7942
  883MOL0     O19071   8.283  10.530   8.223 -0.3599  0.1873 -0.2002
  883MOL0     C19072   8.280  10.659   8.211 -0.1257  0.6541  0.0290
  883MOL0     O19073   8.383  10.735   8.178  0.0177 -0.3164 -0.1066
  883MOL0     C19074   8.506  10.685   8.154  0.2057 -0.2771  0.6094
  883MOL0     C19075   8.566  10.699   8.029  0.3867 -0.2400  0.7994
  883MOL0     C19076   8.700  10.678   8.010  0.2399 -0.0102 -0.2124
  883MOL0     C19077   8.776  10.621   8.109 -0.2084 -0.1153 -0.1810
  883MOL0     O19078   8.911  10.589   8.091 -0.3269  0.3249  0.2625
  883MOL0     C19079   9.000  10.578   8.200 -0.3471 -0.1331  0.3650
  883MOL0     C19080   9.139  10.603   8.146  0.1149 -0.0123 -0.1979
  883MOL0     C19081   9.169  10.511   8.026  0.6780  0.0638  0.1216
  883MOL0     C19082   9.319  10.509   8.008 -1.0491 -0.3898 -0.3944
  883MOL0     C19083   9.359  10.383   7.927 -0.0222 -0.0146 -0.6272
  883MOL0     C19084   9.508  10.388   7.888 -0.0116 -1.2392  0.2515
  883MOL0     C19085   9.549  10.274   7.800 -0.2781 -0.1391  0.2960
  883MOL0     C19086   9.695  10.275   7.761  0.7296  0.0108  0.3009
  883MOL0     N19087   9.732  10.159   7.682  0.5527  0.1441 -0.0006
  883MOL0     C19088   9.755  10.146   7.544  0.1890 -0.4595  0.1100
  883MOL0     C19089   9.782  10.015   7.515 -0.4962  0.2376 -0.4098
  883MOL0     C19090   9.792   9.949   7.376 -0.5863 -0.0520 -0.2738
  883MOL0     C19091   9.772   9.796   7.366 -0.2254 -0.5394 -1.2761
  883MOL0     C19092   9.809   9.739   7.228 -0.8582 -0.3113 -0.2725
  883MOL0     C19093   9.956   9.707   7.222 -0.8398  0.1374  0.2624
  883MOL0     O19094  10.044   9.823   7.224  0.7203  0.1717  0.7016
  883MOL0     C19095  10.169   9.801   7.200  0.3173  0.1124  0.9450
  883MOL0     C19096  10.240   9.686   7.215  0.4529 -0.3550  0.3096
  883MOL0     C19097  10.381   9.682   7.200 -0.1284  0.0811 -0.7044
  883MOL0     C19098  10.443   9.803   7.158  0.2687  0.8413  0.0027
  883MOL0     C19099  10.593   9.813   7.136 -0.4258 -0.0342 -0.6919
  883MOL0     O19100  10.662   9.719   7.217  0.0195 -0.3191  0.4209
  883MOL0     C19101  10.801   9.728   7.213 -0.0002 -0.2438 -0.8187
  883MOL0     C19102  10.865   9.784   7.320  0.2302 -0.1743  0.2795
  883MOL0     C19103  11.003   9.779   7.325  0.6213 -0.2148 -0.0765
  883MOL0     C19104  11.078   9.722   7.221 -0.3323 -0.1986  0.3089
  883MOL0     O19105  11.217   9.709   7.212  0.3839 -0.3310 -0.6946
  883MOL0     C19106  11.296   9.757   7.330  0.2959  0.2959 -0.3290
  883MOL0     C19107  11.440   9.706   7.317 -0.2482 -0.3420  0.6026
  883MOL0     C19108  11.503   9.741   7.187 -0.4878 -0.2590 -0.7154
  883MOL0     C19109  11.640   9.680   7.177 -0.6235  0.0492  0.6998
  883MOL0     C19110  11.708   9.713   7.037 -0.0894  0.5968  0.3075
  883MOL0     C19111  11.833   9.621   7.032 -0.0439 -0.3321  0.3246
  883MOL0     C19112  11.904   9.609   6.893 -0.0702  0.3410 -0.2236
  883MOL0     C19113  12.044   9.527   6.909  0.4432 -0.2046 -0.5583
  883MOL0    Cl19114  12.148   9.619   7.008 -0.5605 -0.1464 -0.2560
  883MOL0     C19115  11.010   9.657   7.120 -0.2250 -0.2056  0.0867
  883MOL0     C19116  10.873   9.664   7.117  0.1744  0.8953  0.2933
  883MOL0     O19117  10.642   9.911   7.079  0.2359  0.1290  0.8606
  883MOL0     C19118  10.367   9.914   7.132 -0.7839 -0.2831  0.0055
  883MOL0     C19119  10.227   9.914   7.140 -0.0291  0.2020  1.0624
  883MOL0     N19120   9.778   9.949   7.635  0.5318 -0.2611 -0.0223
  883MOL0     N19121   9.741  10.030   7.733 -0.6339 -0.1806 -0.0139
  883MOL0     C19122   8.712  10.587   8.234 -1.0479 -1.1474  0.7996
  883MOL0     C19123   8.588  10.642   8.254 -0.1354  0.5959 -0.2596
  883MOL0     C19124   8.164  10.725   8.249 -0.6290  1.4398 -0.9342
  883MOL0     C19125   8.084  10.658   8.348 -0.9155 -0.9093 -0.0774
  883MOL0     C19126   7.953  10.697   8.374  0.6322 -0.0756  0.2309
  883MOL0     C19127   7.900  10.807   8.300  0.4545  0.4635  0.5693
  883MOL0     O19128   7.770  10.838   8.316  0.1971 -0.3787  0.1476
  883MOL0     C19129   7.713  10.972   8.287  0.3671  0.4416 -1.0831
  883MOL0     C19130   7.574  10.966   8.328  0.6169  0.4640  0.6910
  883MOL0     C19131   7.565  10.951   8.488 -0.3382  0.9389 -0.5436
  883MOL0     C19132   7.448  11.044   8.534 -0.3888  0.0451  0.2142
  883MOL0     C19133   7.322  11.006   8.479  0.3280  0.4394 -0.1105
  883MOL0     C19134   7.211  10.977   8.441  0.4485 -0.5127  0.2884
  883MOL0     C19135   7.986  10.883   8.220  1.0429  0.8420 -0.8498
  883MOL0     C19136   8.103  10.832   8.184  0.1815  0.1512  0.9733
  883MOL0     C19137   8.174  10.927   8.081 -0.0922  0.0558  0.1616
  883MOL0     H19138   8.501  10.740   7.953 -1.5225 -0.0918  2.4246
  883MOL0     H19139   8.750  10.713   7.920  0.8624  0.9559  0.4946
  883MOL0     H19140   8.971  10.654   8.273 -0.5023 -1.7175  2.0039
  883MOL0     H19141   8.994  10.480   8.248 -0.8273 -0.2144  0.1424
  883MOL0     H19142   9.204  10.574   8.229 -1.7299 -0.7399  1.0446
  883MOL0     H19143   9.168  10.706   8.121  3.5200  0.4404  4.3209
  883MOL0     H19144   9.120  10.530   7.930 -1.1936 -0.3466  0.9467
  883MOL0     H19145   9.134  10.411   8.052  1.0759 -0.1906 -0.3020
  883MOL0     H19146   9.334  10.606   7.961 -0.1191 -0.5236 -0.4088
  883MOL0     H19147   9.379  10.530   8.098  0.5052  1.2415 -1.7433
  883MOL0     H19148   9.342  10.288   7.980 -0.9625  1.2637  1.4673
  883MOL0     H19149   9.301  10.378   7.834  0.3380 -1.1965 -0.8131
  883MOL0     H19150   9.516  10.481   7.830  1.7958  0.8986  3.5963
  883MOL0     H19151   9.577  10.395   7.973  0.1166  3.3560  0.0169
  883MOL0     H19152   9.486  10.282   7.711 -3.1298  0.8472  2.2700
  883MOL0     H19153   9.525  10.183   7.857  1.4979 -2.0801 -1.8276
  883MOL0     H19154   9.712  10.364   7.700  1.1854 -0.2669  0.0225
  883MOL0     H19155   9.754  10.290   7.852 -1.1806  0.6279  1.4960
  883MOL0     H19156   9.753  10.227   7.472  0.2232 -0.4354  0.1366
  883MOL0     H19157   9.731   9.995   7.297 -1.8910  0.2075  0.8654
  883MOL0     H19158   9.890   9.973   7.333 -1.9238  2.7671 -2.0580
  883MOL0     H19159   9.836   9.752   7.443 -0.5334  1.9088  0.4984
  883MOL0     H19160   9.669   9.769   7.391  0.5877  0.0055  3.7077
  883MOL0     H19161   9.783   9.810   7.150  0.4858 -1.0975 -1.4725
  883MOL0     H19162   9.741   9.655   7.210 -2.5775  0.9471  0.0484
  883MOL0     H19163   9.974   9.652   7.129  1.8461  0.4846  0.4913
  883MOL0     H19164   9.983   9.638   7.303 -1.8640 -0.1930  0.3351
  883MOL0     H19165  10.192   9.596   7.253 -2.1049  0.7328 -0.1604
  883MOL0     H19166  10.447   9.597   7.215  0.8951  0.9317 -0.2270
  883MOL0     H19167  10.802   9.831   7.395 -1.9612  0.6160 -1.9154
  883MOL0     H19168  11.053   9.817   7.413 -0.0771  0.4361  0.0580
  883MOL0     H19169  11.288   9.865   7.340  0.1881  0.3698 -1.1230
  883MOL0     H19170  11.248   9.723   7.422 -2.2673 -1.9328 -2.2828
  883MOL0     H19171  11.500   9.753   7.396 -1.5659 -0.2658  1.5969
  883MOL0     H19172  11.440   9.598   7.335 -0.8886 -0.2992  0.8740
  883MOL0     H19173  11.445   9.698   7.104 -0.8290 -0.8518 -0.1815
  883MOL0     H19174  11.507   9.850   7.177 -1.0957 -0.0331  1.1173
  883MOL0     H19175  11.623   9.572   7.171 -1.9916  0.3333 -2.7200
  883MOL0     H19176  11.702   9.710   7.262  0.5234  0.5966 -0.3056
  883MOL0     H19177  11.740   9.817   7.047 -1.4480  1.0899 -0.2030
  883MOL0     H19178  11.638   9.706   6.953  1.1647  0.5351 -0.7782
  883MOL0     H19179  11.907   9.663   7.101  1.7219  0.1169 -1.7202
  883MOL0     H19180  11.801   9.522   7.064  1.8927 -1.1885 -0.2138
  883MOL0     H19181  11.945   9.700   6.847  1.7966 -1.4505 -2.3554
  883MOL0     H19182  11.846   9.550   6.821 -0.9209  2.7721 -1.6697
  883MOL0     H19183  12.025   9.427   6.948 -1.5351  0.0243 -0.8242
  883MOL0     H19184  12.096   9.517   6.813  1.6145 -0.2987  0.0700
  883MOL0     H19185  11.059   9.592   7.049  0.6441  0.0444  0.4360
  883MOL0     H19186  10.829   9.606   7.037  1.9189  0.2519 -0.2522
  883MOL0     H19187  10.413  10.002   7.088 -2.4745  0.4961 -0.2928
  883MOL0     H19188  10.180  10.011   7.125 -0.2911 -0.1670 -0.7277
  883MOL0     H19189   8.772  10.540   8.312  2.0935 -0.3217 -0.9272
  883MOL0     H19190   8.556  10.625   8.357  1.8394 -1.0570  0.1409
  883MOL0     H19191   8.125  10.573   8.401  2.0627 -0.5266 -1.5722
  883MOL0     H19192   7.883  10.643   8.437 -0.7209  0.3531 -0.8650
  883MOL0     H19193   7.713  10.977   8.178 -1.1085  1.9425 -1.0531
  883MOL0     H19194   7.770  11.056   8.329  0.1156  0.1846 -0.2099
  883MOL0     H19195   7.524  10.879   8.284 -2.4704  1.0676  2.7161
  883MOL0     H19196   7.515  11.048   8.287 -0.1532 -0.6979 -0.6054
  883MOL0     H19197   7.660  10.988   8.529 -0.1146  0.6524 -0.7971
  883MOL0     H19198   7.547  10.848   8.520  3.2670  0.0391 -1.0061
  883MOL0     H19199   7.442  11.049   8.643 -3.2209  1.3404  0.0934
  883MOL0     H19200   7.469  11.147   8.504  0.1688 -0.0038  0.4327
  883MOL0     H19201   7.115  10.939   8.412  1.0543 -0.3178 -2.1048
  883MOL0     H19202   7.954  10.973   8.168  0.3595  0.6181 -0.8271
  883MOL0     H19203   8.257  10.968   8.141 -1.0117 -0.8405  2.1347
  883MOL0     H19204   8.216  10.870   7.998  1.7971  1.6384 -0.0422
  883MOL0     H19205   8.116  11.012   8.045 -0.2426  0.3664  1.1086
  884MOL0     O19206   5.383   6.323  10.481 -0.1816  0.4878  0.2574
  884MOL0     C19207   5.304   6.387  10.547 -0.0599 -0.4666  0.2119
  884MOL0     O19208   5.316   6.411  10.684 -0.0485 -0.1725  0.0356
  884MOL0     C19209   5.409   6.343  10.751  0.7164  0.7797  0.7811
  884MOL0     C19210   5.392   6.207  10.785  0.0872  0.4437  0.4564
  884MOL0     C19211   5.496   6.139  10.862 -0.5649 -0.3108 -0.4808
  884MOL0     C19212   5.603   6.215  10.915  0.6350 -0.2942 -0.4824
  884MOL0     O19213   5.690   6.149  10.987 -0.2054 -0.3807  0.0608
  884MOL0     C19214   5.725   6.210  11.105  0.7333  0.1249 -0.3577
  884MOL0     C19215   5.828   6.114  11.180  0.0885  0.0251  0.2595
  884MOL0     C19216   5.767   5.986  11.233 -0.2103 -0.4199  0.6026
  884MOL0     C19217   5.871   5.904  11.314  0.2995  0.7736  0.8848
  884MOL0     C19218   5.846   5.753  11.314 -0.7085  0.4043  0.1243
  884MOL0     C19219   5.955   5.677  11.396  0.0493 -0.3268 -0.7567
  884MOL0     C19220   6.095   5.720  11.353  0.2676 -0.7380  0.2836
  884MOL0     C19221   6.205   5.656  11.425 -0.3463  0.4828  0.1314
  884MOL0     N19222   6.205   5.509  11.389  0.1284  0.2928 -0.6626
  884MOL0     C19223   6.239   5.457  11.266 -0.6149  0.1773 -0.1299
  884MOL0     C19224   6.239   5.325  11.284  0.0344 -0.2324  0.3755
  884MOL0     C19225   6.273   5.227  11.177 -0.0415  0.6476 -0.8104
  884MOL0     C19226   6.190   5.233  11.047 -0.2659  0.1547 -0.5672
  884MOL0     C19227   6.052   5.181  11.074  0.2994  0.8829  1.2089
  884MOL0     C19228   5.952   5.278  11.135 -0.2961 -0.4711  0.3677
  884MOL0     O19229   5.823   5.218  11.132 -0.3800  0.5643  0.7381
  884MOL0     C19230   5.714   5.268  11.190  0.2528 -0.7532  0.2088
  884MOL0     C19231   5.587   5.198  11.171 -0.6222  0.2872  0.1093
  884MOL0     C19232   5.470   5.256  11.219 -0.1098  0.5985 -0.2991
  884MOL0     C19233   5.466   5.379  11.274 -0.3226 -0.7650  0.1187
  884MOL0     C19234   5.341   5.435  11.334 -0.8408  0.5666 -0.6272
  884MOL0     O19235   5.241   5.349  11.354 -0.4033 -0.2530 -0.0479
  884MOL0     C19236   5.125   5.393  11.402  0.3243  0.3409 -0.2968
  884MOL0     C19237   5.043   5.474  11.327  0.1542 -0.4139 -0.1127
  884MOL0     C19238   4.911   5.518  11.374  0.6677  0.2364 -0.2123
  884MOL0     C19239   4.865   5.464  11.497 -0.7990 -0.4746 -0.3439
  884MOL0     O19240   4.739   5.487  11.538 -0.4431  0.3337 -0.1170
  884MOL0     C19241   4.654   5.578  11.476 -0.3308 -0.1052 -0.0081
  884MOL0     C19242   4.552   5.611  11.589 -0.2558  0.0383  0.2943
  884MOL0     C19243   4.443   5.718  11.544 -0.1401  0.1061 -0.0022
  884MOL0     C19244   4.495   5.853  11.496  0.2099  0.4112 -0.0033
  884MOL0     C19245   4.388   5.965  11.539 -0.0476 -0.2472  0.6354
  884MOL0     C19246   4.440   6.106  11.491 -0.1784 -0.0107  0.6844
  884MOL0     C19247   4.336   6.212  11.516  0.2866 -0.2119  1.0215
  884MOL0     C19248   4.310   6.290  11.386  0.1971  0.0109  0.5906
  884MOL0    Cl19249   4.197   6.417  11.409 -0.3597  0.1125 -0.4059
  884MOL0     C19250   4.945   5.371  11.567  1.2964 -0.1641 -0.6251
  884MOL0     C19251   5.067   5.332  11.521 -0.8425  0.5999 -0.1628
  884MOL0     O19252   5.350   5.550  11.373  0.1582  0.1658 -0.5781
  884MOL0     C19253   5.584   5.451  11.291  0.1626  0.0517  0.2175
  884MOL0     C19254   5.711   5.392  11.255 -0.1984  0.5853 -0.1091
  884MOL0     N19255   6.181   5.303  11.416 -1.0143  0.1870  0.4593
  884MOL0     N19256   6.176   5.411  11.472  0.4133 -0.5615 -0.0485
  884MOL0     C19257   5.623   6.347  10.877  0.0827  0.0541 -0.7566
  884MOL0     C19258   5.525   6.405  10.795  0.1832  0.2889  0.6614
  884MOL0     C19259   5.184   6.432  10.483  0.5396 -0.3720  0.5275
  884MOL0     C19260   5.102   6.523  10.562 -0.2716  0.0479 -0.1294
  884MOL0     C19261   4.984   6.570  10.516  0.3932 -0.1274 -0.0120
  884MOL0     C19262   4.942   6.538  10.390  0.1452  0.5012 -0.6846
  884MOL0     O19263   4.816   6.574  10.354 -0.2694 -0.3736 -0.0577
  884MOL0     C19264   4.804   6.693  10.277 -0.0824  0.4561  0.3066
  884MOL0     C19265   4.747   6.659  10.140  0.5433 -0.1343  0.4381
  884MOL0     C19266   4.763   6.774  10.037 -0.8318  0.3354 -0.2925
  884MOL0     C19267   4.686   6.900  10.076 -0.4251 -0.6840 -0.7178
  884MOL0     C19268   4.699   7.007   9.975  0.7748  0.8373  0.4231
  884MOL0     C19269   4.700   7.109   9.910  0.1247 -0.7141 -0.0101
  884MOL0     C19270   5.025   6.461  10.308 -0.1565 -0.8133  0.0951
  884MOL0     C19271   5.144   6.402  10.354  0.9568 -1.0434  0.5101
  884MOL0     C19272   5.211   6.312  10.258  0.1369  0.1825  0.1696
  884MOL0     H19273   5.300   6.156  10.757  0.1869 -1.3333  3.0945
  884MOL0     H19274   5.474   6.038  10.893 -2.8665 -0.0930 -1.2055
  884MOL0     H19275   5.776   6.304  11.084  1.6277 -0.1590  0.4548
  884MOL0     H19276   5.634   6.229  11.163  0.0813 -0.0467 -1.2955
  884MOL0     H19277   5.885   6.165  11.258 -1.3917 -0.8764  1.9970
  884MOL0     H19278   5.902   6.097  11.102 -0.3691  1.0348 -0.4251
  884MOL0     H19279   5.721   5.924  11.155 -0.9715 -0.6711  1.2460
  884MOL0     H19280   5.688   6.013  11.303  0.7787  4.5105  0.1335
  884MOL0     H19281   5.970   5.922  11.269 -0.1961 -1.1372 -1.0901
  884MOL0     H19282   5.878   5.948  11.414  0.5164  4.5870 -0.6404
  884MOL0     H19283   5.750   5.738  11.364 -0.5139 -0.2670  0.2966
  884MOL0     H19284   5.839   5.718  11.211 -0.9390  1.7302 -0.3366
  884MOL0     H19285   5.949   5.692  11.504 -1.9070  2.1436 -1.1015
  884MOL0     H19286   5.933   5.572  11.377 -4.1284  0.0137  1.2347
  884MOL0     H19287   6.116   5.824  11.376 -3.5048  0.0383  0.9864
  884MOL0     H19288   6.110   5.704  11.246  0.1149 -0.9874  0.2977
  884MOL0     H19289   6.302   5.692  11.391  1.4906 -2.4277  1.8464
  884MOL0     H19290   6.200   5.669  11.533  1.7835  0.3367  0.2789
  884MOL0     H19291   6.262   5.504  11.172  1.6315 -0.2767  0.1349
  884MOL0     H19292   6.374   5.252  11.143  0.3926 -2.1791 -1.8711
  884MOL0     H19293   6.285   5.125  11.214 -0.7656  0.0908 -2.0854
  884MOL0     H19294   6.190   5.339  11.019 -0.9011  0.5855  0.9227
  884MOL0     H19295   6.261   5.169  10.993  2.2887  0.1403  2.4728
  884MOL0     H19296   6.052   5.092  11.137  0.2279  1.4697  2.0471
  884MOL0     H19297   6.015   5.154  10.974 -0.5982 -2.5952  2.3497
  884MOL0     H19298   5.946   5.365  11.069  1.2192 -1.6065 -1.3796
  884MOL0     H19299   5.979   5.311  11.235  1.1307 -0.3845 -0.0169
  884MOL0     H19300   5.579   5.102  11.121  0.5496 -0.7333  1.8050
  884MOL0     H19301   5.376   5.203  11.201  0.4908 -0.2573 -1.0255
  884MOL0     H19302   5.090   5.514  11.238  1.1696 -1.5930 -0.1284
  884MOL0     H19303   4.842   5.583  11.322 -2.0378 -2.0936  0.2156
  884MOL0     H19304   4.704   5.671  11.448  2.2750 -1.0053  1.3402
  884MOL0     H19305   4.594   5.527  11.401 -1.7745 -0.7253  1.4993
  884MOL0     H19306   4.507   5.515  11.616  0.3614 -1.2525 -2.7420
  884MOL0     H19307   4.604   5.644  11.679  0.7092 -0.5745 -0.0219
  884MOL0     H19308   4.372   5.680  11.470 -1.9410  1.6975  0.8290
  884MOL0     H19309   4.379   5.732  11.631 -0.2093  1.3267 -0.2403
  884MOL0     H19310   4.500   5.849  11.387  2.6519 -2.0330  0.1110
  884MOL0     H19311   4.594   5.870  11.539  0.2758  0.6623 -0.2467
  884MOL0     H19312   4.380   5.961  11.648  2.2629  0.7179  0.9014
  884MOL0     H19313   4.293   5.940  11.492  0.1247  0.9412 -0.3829
  884MOL0     H19314   4.533   6.125  11.545  1.4335 -2.1198 -1.1593
  884MOL0     H19315   4.476   6.094  11.388  1.4552  1.0092  1.1004
  884MOL0     H19316   4.370   6.283  11.591  0.3211  0.8417  0.0366
  884MOL0     H19317   4.242   6.165  11.547  0.0073  1.0104  2.0870
  884MOL0     H19318   4.407   6.328  11.352 -0.4489 -0.2753 -1.7181
  884MOL0     H19319   4.270   6.221  11.312  0.4516 -0.5081  0.9291
  884MOL0     H19320   4.903   5.319  11.652  0.9408 -2.1344 -1.9322
  884MOL0     H19321   5.117   5.260  11.585 -0.4411  1.5019  0.5584
  884MOL0     H19322   5.582   5.549  11.338  0.8256 -0.6144  1.6932
  884MOL0     H19323   5.793   5.460  11.271  0.8338 -0.4576 -0.8579
  884MOL0     H19324   5.705   6.411  10.907 -0.0822 -0.6768  1.4787
  884MOL0     H19325   5.531   6.512  10.779  1.4405  0.6820  3.1649
  884MOL0     H19326   5.124   6.546  10.666 -0.5365 -1.7282  0.3652
  884MOL0     H19327   4.911   6.622  10.577 -1.5897 -0.4718 -1.9558
  884MOL0     H19328   4.900   6.743  10.264 -0.2578  0.4441 -1.1946
  884MOL0     H19329   4.743   6.762  10.335  2.8289  2.3757  1.2982
  884MOL0     H19330   4.646   6.621  10.153  1.6522 -3.3169  0.5518
  884MOL0     H19331   4.795   6.570  10.099  0.0148 -0.6359  0.9041
  884MOL0     H19332   4.742   6.735   9.937 -0.6594 -3.2121  0.9198
  884MOL0     H19333   4.868   6.802  10.031 -0.5959 -0.2206  0.9670
  884MOL0     H19334   4.582   6.880  10.104 -0.1903 -1.6236 -0.4935
  884MOL0     H19335   4.730   6.943  10.167 -2.9586  4.1007 -1.4118
  884MOL0     H19336   4.684   7.197   9.851 -0.3311  0.9471  2.4384
  884MOL0     H19337   4.997   6.437  10.206  2.5480  0.1285 -0.9865
  884MOL0     H19338   5.272   6.371  10.189 -0.4032  1.8002  1.0123
  884MOL0     H19339   5.273   6.237  10.307  1.3643  1.2913  0.3606
  884MOL0     H19340   5.138   6.252  10.202  2.6625 -1.7219 -1.2514
  885MOL0     O19341   9.256  10.394   6.043 -0.6774  0.1892  0.9579
  885MOL0     C19342   9.185  10.474   6.111 -0.2665 -0.4182  0.0187
  885MOL0     O19343   9.211  10.604   6.135 -0.0220  0.1104 -0.0995
  885MOL0     C19344   9.310  10.664   6.069 -0.0580  0.2433  0.5998
  885MOL0     C19345   9.287  10.732   5.951 -0.3164  0.7056  0.7749
  885MOL0     C19346   9.396  10.788   5.874  0.4148 -0.3318  0.1295
  885MOL0     C19347   9.523  10.770   5.906  0.4245  0.8662  0.9261
  885MOL0     O19348   9.619  10.839   5.830  0.4480 -0.0134 -0.2745
  885MOL0     C19349   9.752  10.825   5.883 -0.3159 -0.3227 -0.0398
  885MOL0     C19350   9.835  10.895   5.773 -0.4045 -0.0896  0.1948
  885MOL0     C19351   9.982  10.901   5.822  0.4829 -0.8093  0.6176
  885MOL0     C19352  10.064  10.972   5.714  0.3786 -0.8140  0.1858
  885MOL0     C19353  10.219  10.980   5.757  0.0328 -0.1487  0.5231
  885MOL0     C19354  10.288  10.849   5.735  0.5374  0.2514 -0.8040
  885MOL0     C19355  10.442  10.872   5.734 -0.4266  0.0979  0.4207
  885MOL0     C19356  10.505  10.951   5.614  0.0547  0.3875  0.6671
  885MOL0     N19357  10.651  10.932   5.616 -0.0342  0.3529 -0.3341
  885MOL0     C19358  10.731  10.913   5.507  0.2975 -0.2690 -0.2495
  885MOL0     C19359  10.849  10.881   5.568  0.1524  0.0456 -0.4223
  885MOL0     C19360  10.970  10.857   5.484  0.2088 -0.1889  0.5120
  885MOL0     C19361  11.071  10.970   5.469  0.1455 -0.7134 -0.5989
  885MOL0     C19362  11.190  10.933   5.387 -0.4106  0.1496 -0.5642
  885MOL0     C19363  11.294  11.043   5.390  0.5291  0.2873 -0.4400
  885MOL0     O19364  11.411  11.004   5.307  0.5883 -0.0072 -0.5100
  885MOL0     C19365  11.523  11.091   5.298  0.2693  1.0399 -0.0635
  885MOL0     C19366  11.637  11.053   5.218 -0.2955 -0.2933  1.0296
  885MOL0     C19367  11.753  11.131   5.214  0.1245  0.2594  0.2172
  885MOL0     C19368  11.757  11.252   5.283 -0.1809 -0.7192 -1.0269
  885MOL0     C19369  11.869  11.350   5.265 -0.0262  0.5481 -0.9615
  885MOL0     O19370  11.893  11.459   5.356 -0.0272 -0.1072 -0.4117
  885MOL0     C19371  12.006  11.541   5.350  0.6761  0.8042 -0.2412
  885MOL0     C19372  12.129  11.504   5.290  0.3434 -0.4392 -0.1363
  885MOL0     C19373  12.230  11.606   5.266 -0.9624 -0.5033 -0.5564
  885MOL0     C19374  12.213  11.734   5.320  0.6727  0.2093 -0.6180
  885MOL0     O19375  12.295  11.846   5.315  0.1998 -0.3595  0.1484
  885MOL0     C19376  12.432  11.820   5.307 -0.4506 -0.0080 -0.0763
  885MOL0     C19377  12.489  11.832   5.165 -0.1364 -0.3463  0.6415
  885MOL0     C19378  12.645  11.821   5.148 -0.4025 -0.3045 -0.4954
  885MOL0     C19379  12.727  11.951   5.175  0.9929  0.8931 -0.6824
  885MOL0     C19380  12.878  11.936   5.160  0.0283 -0.2174 -0.1879
  885MOL0     C19381  12.923  11.898   5.298 -0.0031  0.2764 -0.9199
  885MOL0     C19382  12.976  12.024   5.377  0.2789  0.1529 -0.3122
  885MOL0     C19383  13.084  11.980   5.486 -0.3593  0.1703 -0.9106
  885MOL0    Cl19384  13.217  11.912   5.394 -0.0474  0.1830 -0.0856
  885MOL0     C19385  12.090  11.762   5.386 -0.1367 -0.3700 -0.3994
  885MOL0     C19386  11.983  11.668   5.401  0.8266  0.2429  0.5826
  885MOL0     O19387  11.939  11.332   5.169  0.6222  0.2010 -0.0994
  885MOL0     C19388  11.647  11.295   5.360 -0.0188  0.4874  0.1996
  885MOL0     C19389  11.536  11.209   5.368 -0.1374 -1.0027 -0.1416
  885MOL0     N19390  10.852  10.907   5.704  0.5947  1.0003 -0.1467
  885MOL0     N19391  10.733  10.934   5.727  0.6737  0.1257  0.1425
  885MOL0     C19392   9.550  10.711   6.036 -0.7350 -0.1121 -0.1200
  885MOL0     C19393   9.443  10.658   6.119  0.5746  0.0943  0.7427
  885MOL0     C19394   9.071  10.416   6.187 -0.8372 -0.8632 -0.3148
  885MOL0     C19395   9.015  10.497   6.293  0.0072 -0.0531 -0.0833
  885MOL0     C19396   8.894  10.462   6.349 -0.8769 -0.5015 -0.3867
  885MOL0     C19397   8.835  10.344   6.321  0.4113 -0.5136 -0.0233
  885MOL0     O19398   8.708  10.302   6.367 -0.1523  0.2083 -0.2703
  885MOL0     C19399   8.700  10.297   6.514 -0.9276 -0.7778 -0.8468
  885MOL0     C19400   8.776  10.186   6.592  0.1477 -0.3956  0.2437
  885MOL0     C19401   8.768  10.046   6.536  0.2174  0.0223  0.5447
  885MOL0     C19402   8.624   9.993   6.534  0.7022 -0.5872 -0.0430
  885MOL0     C19403   8.560   9.971   6.664 -0.6413  0.0835 -0.0800
  885MOL0     C19404   8.510   9.955   6.769 -0.1695  0.6108 -0.5884
  885MOL0     C19405   8.879  10.277   6.217  0.1849  0.3820  0.1576
  885MOL0     C19406   8.995  10.300   6.149 -0.4556 -0.8529 -0.4493
  885MOL0     C19407   9.028  10.223   6.029 -0.0260 -0.6771 -0.4854
  885MOL0     H19408   9.186  10.726   5.913  0.6079 -1.9335 -1.6224
  885MOL0     H19409   9.377  10.831   5.776  0.8815  0.9672  0.5767
  885MOL0     H19410   9.760  10.878   5.979 -0.6905 -0.4655  0.0723
  885MOL0     H19411   9.780  10.720   5.886  0.8440 -0.0712 -1.1469
  885MOL0     H19412   9.812  11.000   5.753  3.0663  0.3202 -2.7324
  885MOL0     H19413   9.825  10.850   5.674 -1.0549 -1.4591  0.8484
  885MOL0     H19414  10.019  10.800   5.839 -1.6402 -1.6628  0.4581
  885MOL0     H19415   9.994  10.950   5.919  2.2780 -0.9304  0.4855
  885MOL0     H19416  10.060  10.919   5.619 -2.3683 -0.3842  0.0010
  885MOL0     H19417  10.028  11.074   5.700 -0.9888 -1.6457 -3.3101
  885MOL0     H19418  10.263  11.047   5.682 -2.3249 -1.6379 -2.3685
  885MOL0     H19419  10.233  11.034   5.851  0.7459  1.3276 -0.3782
  885MOL0     H19420  10.259  10.786   5.819 -1.7689  0.3112 -1.4974
  885MOL0     H19421  10.255  10.793   5.648  2.5981 -2.7926  0.2140
  885MOL0     H19422  10.493  10.776   5.720  1.7808  1.3807 -1.0040
  885MOL0     H19423  10.473  10.919   5.828  3.3841  1.0806 -1.1390
  885MOL0     H19424  10.473  10.899   5.523 -0.2603 -5.2480  3.5932
  885MOL0     H19425  10.490  11.060   5.614  2.4699  0.7837  2.0546
  885MOL0     H19426  10.697  10.915   5.404 -1.3761  0.3377  0.2885
  885MOL0     H19427  11.017  10.774   5.539  0.7134  0.5662  1.2416
  885MOL0     H19428  10.933  10.810   5.392 -1.1441  1.3019  0.2585
  885MOL0     H19429  11.016  11.052   5.422  0.2209  1.2588  2.4855
  885MOL0     H19430  11.100  11.000   5.570 -0.0254  0.6431 -0.9289
  885MOL0     H19431  11.153  10.916   5.285 -2.2742  3.0455 -0.4801
  885MOL0     H19432  11.239  10.846   5.431 -0.2795  0.4757 -0.0601
  885MOL0     H19433  11.328  11.058   5.493  0.0564  2.1831 -0.5255
  885MOL0     H19434  11.247  11.137   5.359 -2.1241 -0.4070  1.0863
  885MOL0     H19435  11.630  10.966   5.154 -1.1518 -1.0745  2.1347
  885MOL0     H19436  11.841  11.099   5.159 -0.3090 -2.5398  0.9913
  885MOL0     H19437  12.155  11.403   5.259  0.5941 -1.9434  4.3108
  885MOL0     H19438  12.320  11.585   5.209  1.0233 -1.9437  2.8232
  885MOL0     H19439  12.491  11.893   5.363  0.8194 -0.6345 -0.5311
  885MOL0     H19440  12.469  11.725   5.346  1.6441  0.6817 -0.2341
  885MOL0     H19441  12.444  11.757   5.099 -1.5284  1.8219 -1.0079
  885MOL0     H19442  12.462  11.933   5.133 -1.7305 -0.7479  0.6431
  885MOL0     H19443  12.684  11.755   5.226  2.3198  1.5670 -0.1640
  885MOL0     H19444  12.668  11.784   5.047 -1.9215 -0.5436 -0.7741
  885MOL0     H19445  12.694  11.986   5.273  0.0502 -0.0162 -0.6477
  885MOL0     H19446  12.673  12.010   5.099 -1.0957 -1.7160 -1.3803
  885MOL0     H19447  12.923  12.031   5.127 -1.7353  1.2675  1.4558
  885MOL0     H19448  12.905  11.858   5.088  3.4091 -1.6049  2.3293
  885MOL0     H19449  12.845  11.854   5.361  1.2637 -0.8050 -0.0593
  885MOL0     H19450  13.003  11.824   5.291 -0.3672  0.0243 -3.4873
  885MOL0     H19451  12.895  12.071   5.434  1.4007  1.2190  0.4351
  885MOL0     H19452  13.026  12.098   5.315  0.5959 -0.9918 -1.4637
  885MOL0     H19453  13.112  12.066   5.546  1.2945 -0.5534 -0.5746
  885MOL0     H19454  13.050  11.896   5.548 -0.5161  1.1625  0.3691
  885MOL0     H19455  12.076  11.861   5.429 -0.0882 -1.4471  2.2928
  885MOL0     H19456  11.882  11.701   5.422  2.0076  3.0257  2.3480
  885MOL0     H19457  11.646  11.391   5.410  2.0454  0.3840  0.5248
  885MOL0     H19458  11.448  11.245   5.420 -0.5383  0.2126 -1.5991
  885MOL0     H19459   9.650  10.690   6.072 -0.0118  1.0270 -1.3599
  885MOL0     H19460   9.483  10.609   6.208  1.0098  0.4985  0.7684
  885MOL0     H19461   9.064  10.589   6.323  0.4321 -0.4033  0.3145
  885MOL0     H19462   8.869  10.521   6.437  0.2187 -0.5423 -0.0396
  885MOL0     H19463   8.595  10.272   6.528 -0.9019 -0.9947 -1.0322
  885MOL0     H19464   8.730  10.394   6.554 -3.1308  1.1299 -3.4331
  885MOL0     H19465   8.744  10.190   6.697  3.9119  0.9773  1.5466
  885MOL0     H19466   8.882  10.215   6.594 -0.3057  1.4143  0.6433
  885MOL0     H19467   8.837   9.977   6.586 -2.8677 -2.0722  2.2410
  885MOL0     H19468   8.804  10.055   6.432 -0.9931 -2.5320 -0.1781
  885MOL0     H19469   8.557  10.060   6.480  1.1801 -1.6297 -2.0264
  885MOL0     H19470   8.616   9.898   6.481 -2.5558  0.2898 -1.3610
  885MOL0     H19471   8.466   9.945   6.867  1.4729 -1.1840  0.0268
  885MOL0     H19472   8.806  10.199   6.196  1.0596 -0.2577 -0.6057
  885MOL0     H19473   9.124  10.176   6.053 -0.5356 -0.6315  1.9278
  885MOL0     H19474   8.963  10.136   6.017 -1.1058  0.0756 -0.2381
  885MOL0     H19475   9.029  10.278   5.934 -1.8910  0.4650  0.0933
  886MOL0     O19476   3.773   8.614   3.857 -0.3828 -0.1951 -0.1512
  886MOL0     C19477   3.807   8.529   3.777  0.3236  0.7247 -0.4323
  886MOL0     O19478   3.932   8.480   3.763  0.2237 -0.0838 -0.2745
  886MOL0     C19479   4.049   8.527   3.826  0.6393 -0.4474  0.4520
  886MOL0     C19480   4.094   8.659   3.800 -0.2540 -0.0023 -1.2282
  886MOL0     C19481   4.206   8.707   3.868 -0.0029 -0.8295  0.0143
  886MOL0     C19482   4.261   8.619   3.964  0.7049  0.3446 -0.5253
  886MOL0     O19483   4.374   8.639   4.030 -0.0239  0.3773  0.1847
  886MOL0     C19484   4.472   8.724   3.963 -0.3900  0.2817 -0.4188
  886MOL0     C19485   4.610   8.663   4.009 -0.5887 -0.0286  0.1427
  886MOL0     C19486   4.705   8.779   4.054 -0.2219  0.3428 -0.7972
  886MOL0     C19487   4.837   8.729   4.118 -0.1415 -0.0854  0.3591
  886MOL0     C19488   4.930   8.846   4.162  0.0641 -0.0089 -0.0402
  886MOL0     C19489   4.917   8.878   4.316 -0.2830  0.3194 -0.2856
  886MOL0     C19490   4.778   8.938   4.371 -0.3368  0.2576  0.1616
  886MOL0     C19491   4.719   9.059   4.289  0.3732  0.2007  0.3651
  886MOL0     N19492   4.579   9.078   4.327  0.3165  0.2575 -0.0532
  886MOL0     C19493   4.469   9.056   4.245  0.2784  1.2229  0.0177
  886MOL0     C19494   4.364   9.043   4.334 -0.6645 -0.3217 -0.3055
  886MOL0     C19495   4.224   9.007   4.298 -0.3126 -0.2035 -0.5523
  886MOL0     C19496   4.203   8.861   4.281  0.4474  0.6573  0.0409
  886MOL0     C19497   4.251   8.770   4.392  0.1000 -1.0778 -0.0007
  886MOL0     C19498   4.271   8.631   4.340 -0.3785 -0.2046 -0.9088
  886MOL0     O19499   4.317   8.533   4.435  0.4943 -0.0094  0.3028
  886MOL0     C19500   4.450   8.508   4.422  0.2434  0.2904 -0.0959
  886MOL0     C19501   4.543   8.544   4.525  1.2476 -0.1217 -0.2944
  886MOL0     C19502   4.680   8.516   4.514 -0.3317 -0.5112  0.5123
  886MOL0     C19503   4.740   8.455   4.409  0.6488  0.6234 -0.2855
  886MOL0     C19504   4.883   8.431   4.380  1.1815 -0.2358  0.0252
  886MOL0     O19505   4.966   8.486   4.465  0.3154  0.2753  0.1257
  886MOL0     C19506   5.095   8.475   4.426  0.1944  0.0138 -0.0863
  886MOL0     C19507   5.174   8.374   4.477  0.3670  0.1719  0.5794
  886MOL0     C19508   5.299   8.353   4.424 -0.7963 -0.1093 -0.6423
  886MOL0     C19509   5.364   8.438   4.334 -0.0051 -0.2122  0.5444
  886MOL0     O19510   5.486   8.433   4.273 -0.0650 -0.0113  0.1704
  886MOL0     C19511   5.566   8.319   4.297 -0.4762  1.0488  0.1377
  886MOL0     C19512   5.664   8.347   4.411  0.1561 -0.4982  0.0530
  886MOL0     C19513   5.768   8.248   4.448 -0.4399  0.3616  0.5525
  886MOL0     C19514   5.836   8.271   4.581 -0.3305  0.6843 -0.1074
  886MOL0     C19515   5.953   8.177   4.624 -1.3542 -0.0871  0.7251
  886MOL0     C19516   6.068   8.181   4.538 -0.2464 -0.5786  0.4264
  886MOL0     C19517   6.203   8.127   4.599 -1.0444  0.1048 -0.2848
  886MOL0     C19518   6.195   7.976   4.625  0.4709  0.0910 -0.2424
  886MOL0    Cl19519   6.214   7.881   4.475  0.9523 -0.2597  0.2874
  886MOL0     C19520   5.278   8.542   4.294 -0.4966  1.0667 -0.0939
  886MOL0     C19521   5.145   8.566   4.328 -0.1117  0.3936  0.6426
  886MOL0     O19522   4.912   8.360   4.282  0.0935 -0.7089  0.2749
  886MOL0     C19523   4.649   8.415   4.306 -0.2349  0.5659 -0.4392
  886MOL0     C19524   4.507   8.433   4.318 -0.6675  0.2975  0.2605
  886MOL0     N19525   4.414   9.075   4.464  0.2153 -0.4520  0.4438
  886MOL0     N19526   4.540   9.077   4.454  0.1125 -0.5438 -0.4896
  886MOL0     C19527   4.211   8.488   3.991  0.8710 -0.2632  0.0117
  886MOL0     C19528   4.111   8.445   3.914 -0.3468  1.0819  0.2281
  886MOL0     C19529   3.701   8.450   3.706 -0.2369  0.2925 -0.2875
  886MOL0     C19530   3.726   8.311   3.684  0.2047  0.2947  0.7606
  886MOL0     C19531   3.636   8.235   3.611  0.1051  0.5129 -0.1491
  886MOL0     C19532   3.524   8.292   3.547 -0.1501 -0.2351 -0.3904
  886MOL0     O19533   3.436   8.230   3.456 -0.6439  0.5552 -0.5340
  886MOL0     C19534   3.453   8.090   3.416 -0.3070 -0.3623 -0.0957
  886MOL0     C19535   3.329   8.042   3.352  0.3261 -0.3334 -0.1871
  886MOL0     C19536   3.301   8.132   3.231  0.6584  0.6811  0.1191
  886MOL0     C19537   3.190   8.070   3.149  0.5485 -0.4728  0.1470
  886MOL0     C19538   3.053   8.092   3.211 -0.2044 -0.2161 -0.2025
  886MOL0     C19539   2.942   8.112   3.260 -0.5584 -0.1519 -0.8855
  886MOL0     C19540   3.494   8.429   3.583 -0.2636  0.6028  0.4317
  886MOL0     C19541   3.585   8.512   3.653 -0.3412  0.1318 -0.1518
  886MOL0     C19542   3.565   8.658   3.661 -0.1525 -0.4513 -0.3242
  886MOL0     H19543   4.041   8.719   3.726 -0.1674  3.8415  1.5883
  886MOL0     H19544   4.246   8.805   3.845  6.0007 -3.1581 -1.1641
  886MOL0     H19545   4.467   8.730   3.854 -0.4195 -0.6065 -0.4731
  886MOL0     H19546   4.453   8.825   3.999 -1.2204  0.4869 -1.3840
  886MOL0     H19547   4.655   8.605   3.927  1.7843  1.0288  0.5934
  886MOL0     H19548   4.589   8.593   4.090  2.2388 -0.8602  0.2888
  886MOL0     H19549   4.655   8.841   4.128 -0.5070 -0.6449 -0.1425
  886MOL0     H19550   4.728   8.839   3.965 -2.2064  1.5896 -0.5300
  886MOL0     H19551   4.822   8.661   4.202 -0.3183  0.1433  0.5136
  886MOL0     H19552   4.893   8.673   4.043 -0.4316  0.2230 -0.0903
  886MOL0     H19553   5.033   8.825   4.131 -0.2428 -0.7462 -0.5829
  886MOL0     H19554   4.902   8.937   4.108 -1.1969  0.9382  2.0864
  886MOL0     H19555   4.928   8.787   4.374  0.3898 -1.1641 -2.5958
  886MOL0     H19556   5.003   8.938   4.349  1.5685 -2.6269  0.6251
  886MOL0     H19557   4.793   8.970   4.474  1.2192  2.8539 -0.7442
  886MOL0     H19558   4.703   8.859   4.372 -1.2673  1.1268  0.3045
  886MOL0     H19559   4.775   9.151   4.310 -0.1084  0.8617 -1.1032
  886MOL0     H19560   4.732   9.044   4.181  1.1029  1.4896  0.2474
  886MOL0     H19561   4.454   9.038   4.139 -0.8489 -0.1270  0.3710
  886MOL0     H19562   4.164   9.038   4.384 -1.1319 -2.8346 -0.0875
  886MOL0     H19563   4.185   9.067   4.214 -3.5446 -2.9485 -1.2308
  886MOL0     H19564   4.094   8.847   4.273  0.6829 -1.7180  0.3350
  886MOL0     H19565   4.252   8.827   4.189  1.0873 -0.7281  0.8712
  886MOL0     H19566   4.177   8.775   4.472  2.2799 -1.7299  2.1801
  886MOL0     H19567   4.337   8.808   4.446 -0.7220 -1.7345  1.8487
  886MOL0     H19568   4.347   8.642   4.263  2.3519 -0.3650  1.6092
  886MOL0     H19569   4.182   8.591   4.289 -0.4389 -2.0291  0.5450
  886MOL0     H19570   4.505   8.586   4.617  0.4271 -1.0591 -0.1921
  886MOL0     H19571   4.755   8.540   4.589  0.5328 -1.0653 -0.1418
  886MOL0     H19572   5.119   8.314   4.550 -1.3582  0.2358 -0.6031
  886MOL0     H19573   5.356   8.263   4.444 -0.3182  0.2754 -0.2401
  886MOL0     H19574   5.510   8.228   4.318 -2.3917  2.0957 -0.2000
  886MOL0     H19575   5.632   8.292   4.214 -0.2412 -0.6895  0.8496
  886MOL0     H19576   5.723   8.439   4.406  1.4897 -1.3456 -0.1048
  886MOL0     H19577   5.597   8.367   4.495  0.0134  4.4013 -0.8943
  886MOL0     H19578   5.723   8.149   4.445 -0.8398  0.5548 -0.2187
  886MOL0     H19579   5.845   8.261   4.371 -1.4415  3.7451 -0.0533
  886MOL0     H19580   5.753   8.254   4.651  0.2310  3.5352  1.4140
  886MOL0     H19581   5.863   8.375   4.599 -2.2050  1.3556 -0.8789
  886MOL0     H19582   5.924   8.072   4.636 -1.8789  0.0610  0.7671
  886MOL0     H19583   5.985   8.211   4.723  1.5587 -0.1498 -0.1184
  886MOL0     H19584   6.043   8.127   4.446  0.0034 -0.9027  0.5465
  886MOL0     H19585   6.082   8.279   4.492  1.9258 -1.3293 -0.6545
  886MOL0     H19586   6.228   8.188   4.686 -2.0273  0.9197 -0.5619
  886MOL0     H19587   6.289   8.153   4.536 -0.8541 -0.0579 -0.0962
  886MOL0     H19588   6.267   7.947   4.702 -1.1671 -0.9628  0.9650
  886MOL0     H19589   6.094   7.957   4.664  1.0501  0.1609  1.3693
  886MOL0     H19590   5.322   8.602   4.215  2.4216 -1.2532 -0.4129
  886MOL0     H19591   5.089   8.647   4.283  1.4516  1.6150  0.8321
  886MOL0     H19592   4.676   8.359   4.218 -0.8182 -0.7644  0.1920
  886MOL0     H19593   4.450   8.413   4.228 -1.0155  0.5713  0.4159
  886MOL0     H19594   4.264   8.421   4.058  2.7924 -0.1986 -1.3683
  886MOL0     H19595   4.068   8.349   3.939  1.2296 -0.1774 -1.6087
  886MOL0     H19596   3.818   8.258   3.707 -0.3905 -0.7746  0.7544
  886MOL0     H19597   3.664   8.134   3.582 -3.0240 -0.9281  1.3893
  886MOL0     H19598   3.481   8.022   3.497  1.5834  1.5994  1.0268
  886MOL0     H19599   3.536   8.071   3.348 -0.8699 -2.8445 -0.1830
  886MOL0     H19600   3.246   8.039   3.423  0.3829 -2.1828 -0.1335
  886MOL0     H19601   3.350   7.941   3.315 -2.0088 -1.4301  1.2456
  886MOL0     H19602   3.394   8.134   3.173  0.7648 -0.4696  0.2341
  886MOL0     H19603   3.269   8.234   3.254  0.2782  0.4453  0.6466
  886MOL0     H19604   3.180   8.109   3.047  2.2593 -2.8558 -1.0250
  886MOL0     H19605   3.210   7.964   3.134 -1.9059 -0.8731 -0.7598
  886MOL0     H19606   2.842   8.127   3.297 -0.8970 -0.1205 -1.7865
  886MOL0     H19607   3.409   8.473   3.533  1.7173  1.7493 -2.1602
  886MOL0     H19608   3.532   8.691   3.760  0.9289 -0.0319 -0.0944
  886MOL0     H19609   3.657   8.707   3.629  0.8357 -3.2743 -2.1881
  886MOL0     H19610   3.491   8.692   3.588  0.5750  3.2717  0.4810
  887MOL0     O19611   1.475   8.845  11.134  0.4701 -0.0635 -0.4149
  887MOL0     C19612   1.393   8.752  11.158 -0.0908 -0.4656 -0.6654
  887MOL0     O19613   1.389   8.672  11.265 -0.0247 -0.3049 -0.6815
  887MOL0     C19614   1.492   8.682  11.356  0.3248  0.8443 -0.3383
  887MOL0     C19615   1.466   8.669  11.490 -0.9026 -0.4557  0.1877
  887MOL0     C19616   1.571   8.675  11.579  0.5513 -0.6658 -0.1243
  887MOL0     C19617   1.702   8.686  11.538 -0.3592 -0.1128 -0.1782
  887MOL0     O19618   1.799   8.688  11.632  0.0300  0.7636  0.0029
  887MOL0     C19619   1.926   8.761  11.613  1.2710  0.5867  0.5388
  887MOL0     C19620   2.007   8.744  11.740 -0.7272  0.5664 -0.1632
  887MOL0     C19621   2.136   8.830  11.725 -0.1891 -0.8978 -0.1093
  887MOL0     C19622   2.225   8.822  11.850  0.2234  0.9897 -1.0995
  887MOL0     C19623   2.362   8.886  11.832 -0.4464  0.1512 -1.1482
  887MOL0     C19624   2.435   8.870  11.968 -0.4043 -0.0699 -0.1724
  887MOL0     C19625   2.585   8.885  11.954 -1.1729 -0.4952 -0.1686
  887MOL0     C19626   2.662   8.874  12.080 -0.7495 -0.7177  0.7563
  887MOL0     N19627   2.801   8.905  12.061  0.3953  0.0236  0.0560
  887MOL0     C19628   2.900   8.827  12.014 -0.3149  0.7054  0.5205
  887MOL0     C19629   3.006   8.914  12.007  0.8402  1.0321  0.6546
  887MOL0     C19630   3.133   8.865  11.946 -0.7151  0.2692  0.7149
  887MOL0     C19631   3.251   8.862  12.048 -0.3658 -0.1398  1.1330
  887MOL0     C19632   3.334   8.990  12.091 -0.3018 -0.4467  1.1497
  887MOL0     C19633   3.469   8.955  12.162 -0.3876 -1.8297  0.8544
  887MOL0     O19634   3.554   8.888  12.069  0.3110  0.5099  0.0678
  887MOL0     C19635   3.689   8.865  12.106  0.8386 -0.0387 -0.0516
  887MOL0     C19636   3.752   8.909  12.228  0.1465  0.1595  0.2761
  887MOL0     C19637   3.883   8.877  12.265  0.1878  0.8226 -0.1850
  887MOL0     C19638   3.968   8.807  12.172  0.2345 -0.9473 -0.5494
  887MOL0     C19639   4.114   8.786  12.188 -0.3211  0.3032 -0.4273
  887MOL0     O19640   4.174   8.823  12.304 -0.5630  0.6908  0.3964
  887MOL0     C19641   4.311   8.806  12.321  0.7886  0.1493 -1.3065
  887MOL0     C19642   4.388   8.919  12.346 -0.1931  0.9056 -0.0078
  887MOL0     C19643   4.526   8.898  12.362 -0.6427 -0.2532 -0.1605
  887MOL0     C19644   4.586   8.767  12.373  0.2014 -0.5408  0.6840
  887MOL0     O19645   4.723   8.759  12.402 -0.0140  0.6301 -0.2030
  887MOL0     C19646   4.813   8.701  12.311 -0.4854 -0.1317  0.1445
  887MOL0     C19647   4.964   8.716  12.354  0.3857 -0.5422  0.2728
  887MOL0     C19648   5.011   8.861  12.354  0.2527 -0.0119 -0.0572
  887MOL0     C19649   5.136   8.875  12.446  0.6407  0.2817  0.2095
  887MOL0     C19650   5.252   8.824  12.355 -0.2676  0.6323 -0.0098
  887MOL0     C19651   5.374   8.807  12.448 -0.5531 -0.0117  0.7099
  887MOL0     C19652   5.485   8.730  12.385 -0.1082 -0.3590  0.5168
  887MOL0     C19653   5.595   8.690  12.468  0.3959 -0.0339  0.7589
  887MOL0    Cl19654   5.719   8.619  12.362 -0.0366 -0.2266 -0.0169
  887MOL0     C19655   4.502   8.653  12.355 -0.1789 -0.4069  1.0961
  887MOL0     C19656   4.371   8.677  12.330  0.7643  0.5437 -0.3775
  887MOL0     O19657   4.174   8.742  12.088 -0.0615 -0.8656 -0.4345
  887MOL0     C19658   3.904   8.764  12.053 -0.1969  0.1201 -0.0639
  887MOL0     C19659   3.768   8.785  12.029  0.0169 -0.9433  0.2096
  887MOL0     N19660   2.970   9.036  12.056 -1.0799 -0.3672  0.0578
  887MOL0     N19661   2.854   9.028  12.098 -0.5011  0.4936 -0.0505
  887MOL0     C19662   1.731   8.688  11.401 -0.1628 -1.5282  0.8314
  887MOL0     C19663   1.621   8.683  11.307 -0.2577 -0.1171 -0.4791
  887MOL0     C19664   1.289   8.718  11.065  1.1406 -0.5109  0.1658
  887MOL0     C19665   1.208   8.605  11.093 -0.1843  0.2434 -0.2624
  887MOL0     C19666   1.115   8.546  11.005  0.6362 -0.1525  0.1345
  887MOL0     C19667   1.098   8.598  10.884  0.4431 -0.3747 -0.1346
  887MOL0     O19668   1.021   8.524  10.798 -1.1154 -0.9007  0.4923
  887MOL0     C19669   0.979   8.599  10.676 -0.3637  0.7496  0.7435
  887MOL0     C19670   0.871   8.522  10.598 -0.7723  0.8944 -1.0273
  887MOL0     C19671   0.845   8.568  10.455 -0.0033  0.0435 -0.1059
  887MOL0     C19672   0.709   8.513  10.404 -0.1022 -0.9511  0.2640
  887MOL0     C19673   0.720   8.360  10.404  0.0695 -0.5232 -0.4030
  887MOL0     C19674   0.754   8.244  10.412  0.3165  0.1995 -0.4085
  887MOL0     C19675   1.163   8.721  10.855  0.2013  0.2670 -0.2139
  887MOL0     C19676   1.263   8.779  10.934  0.4420  0.1127 -0.3784
  887MOL0     C19677   1.327   8.904  10.881 -0.2267  0.1881  0.3274
  887MOL0     H19678   1.365   8.644  11.519 -0.4115 -0.5217  1.9583
  887MOL0     H19679   1.558   8.671  11.686  1.0128  0.0139 -0.0397
  887MOL0     H19680   1.991   8.724  11.534  1.4568  2.2356 -0.1263
  887MOL0     H19681   1.898   8.864  11.585 -1.9772 -0.5739 -1.0893
  887MOL0     H19682   2.032   8.638  11.753  3.0290  1.3898  0.4042
  887MOL0     H19683   1.951   8.774  11.829 -1.7442  1.7401 -1.1619
  887MOL0     H19684   2.094   8.930  11.722  0.5236 -0.5183  1.5245
  887MOL0     H19685   2.188   8.804  11.632 -0.1129  0.1879 -0.3847
  887MOL0     H19686   2.180   8.866  11.940  0.5094  0.0883 -0.4996
  887MOL0     H19687   2.250   8.717  11.868  0.4263  1.2597  0.3591
  887MOL0     H19688   2.410   8.830  11.752 -0.2045 -1.7842  0.2977
  887MOL0     H19689   2.342   8.991  11.808  2.1276  0.6588 -1.3047
  887MOL0     H19690   2.400   8.947  12.037 -1.1890  0.5587 -1.2374
  887MOL0     H19691   2.417   8.778  12.025  1.4640  0.1229  0.8330
  887MOL0     H19692   2.610   8.979  11.904  0.0032 -0.2070  0.9013
  887MOL0     H19693   2.620   8.810  11.882  1.1469  1.0030 -0.7177
  887MOL0     H19694   2.634   8.949  12.155  1.6452  1.5538 -0.4858
  887MOL0     H19695   2.640   8.777  12.127 -0.5736 -1.0298  0.1975
  887MOL0     H19696   2.891   8.721  11.992  0.1129  0.9490 -0.9037
  887MOL0     H19697   3.124   8.761  11.912 -2.2960  0.7202 -0.3649
  887MOL0     H19698   3.174   8.923  11.862  1.2718 -1.3164  0.5198
  887MOL0     H19699   3.216   8.804  12.134 -0.3355  1.3657  2.1986
  887MOL0     H19700   3.328   8.810  11.992 -1.8521  0.8168 -2.0698
  887MOL0     H19701   3.279   9.051  12.162 -1.3867  0.1890 -0.1884
  887MOL0     H19702   3.362   9.049  12.003  0.0962 -0.7368  1.0791
  887MOL0     H19703   3.451   8.881  12.240 -0.7460  0.7115  3.3338
  887MOL0     H19704   3.515   9.045  12.202  1.5100 -0.9207 -2.9330
  887MOL0     H19705   3.682   8.958  12.294 -2.8613 -1.8586 -1.1761
  887MOL0     H19706   3.930   8.908  12.358 -1.6376 -1.0375  1.4561
  887MOL0     H19707   4.346   9.018  12.331 -0.5822  0.7796  0.2307
  887MOL0     H19708   4.593   8.983  12.373 -2.7865  1.5045 -0.1282
  887MOL0     H19709   4.794   8.593  12.310  2.7226 -0.9193 -3.8386
  887MOL0     H19710   4.795   8.751  12.215 -2.6108  1.6207  1.3407
  887MOL0     H19711   4.984   8.680  12.455  1.3945 -1.2002 -0.1525
  887MOL0     H19712   5.030   8.664  12.284  2.5498  0.9274  1.1048
  887MOL0     H19713   5.010   8.910  12.256 -4.0926  3.4304  1.3578
  887MOL0     H19714   4.933   8.913  12.411  0.9817  3.7985 -2.1815
  887MOL0     H19715   5.121   8.811  12.533 -0.9567  0.7320  0.2862
  887MOL0     H19716   5.157   8.975  12.486  0.9818  0.2357  0.1532
  887MOL0     H19717   5.272   8.887  12.268  0.5759 -1.5109 -1.4621
  887MOL0     H19718   5.245   8.718  12.329  1.6170  0.0642  1.5878
  887MOL0     H19719   5.415   8.903  12.482  0.3402 -0.0779 -0.1576
  887MOL0     H19720   5.342   8.741  12.529  0.4320 -0.8442  0.4314
  887MOL0     H19721   5.530   8.787  12.302  1.5583 -0.4758  1.2864
  887MOL0     H19722   5.449   8.635  12.344  0.5439 -0.2234 -0.4164
  887MOL0     H19723   5.630   8.770  12.534 -1.1044  1.8536 -0.6293
  887MOL0     H19724   5.564   8.604  12.529 -0.7559 -1.4094 -1.6177
  887MOL0     H19725   4.544   8.554  12.367  1.4555 -0.0888 -1.4305
  887MOL0     H19726   4.306   8.597  12.297  1.1874  0.3134 -0.6570
  887MOL0     H19727   3.955   8.699  11.983  1.1623  2.3283 -1.2444
  887MOL0     H19728   3.729   8.733  11.942 -0.2708 -1.3583  0.5839
  887MOL0     H19729   1.831   8.692  11.359 -0.6282  0.3360 -0.2058
  887MOL0     H19730   1.640   8.679  11.200 -1.1614 -1.5483 -0.6110
  887MOL0     H19731   1.222   8.554  11.188  1.2124 -0.1104 -0.6357
  887MOL0     H19732   1.067   8.454  11.036  1.2215 -0.5385 -0.0968
  887MOL0     H19733   1.067   8.595  10.611 -2.2175  0.6517 -1.9316
  887MOL0     H19734   0.934   8.690  10.715  1.5227  2.0724 -0.0298
  887MOL0     H19735   0.776   8.505  10.650 -1.9985 -1.1168 -3.6254
  887MOL0     H19736   0.918   8.423  10.593  1.1413  1.8011 -1.9755
  887MOL0     H19737   0.928   8.531  10.394  1.1353 -0.3000  1.6093
  887MOL0     H19738   0.844   8.678  10.457 -0.7344  0.0576  2.9288
  887MOL0     H19739   0.633   8.554  10.471  0.7400  1.0552  0.0328
  887MOL0     H19740   0.677   8.545  10.304 -3.4570 -1.0222  1.1977
  887MOL0     H19741   0.781   8.142  10.430 -1.9595 -0.1865  1.4285
  887MOL0     H19742   1.134   8.770  10.762  0.3067  0.2824 -0.2393
  887MOL0     H19743   1.414   8.864  10.829  0.4858 -1.0887  2.3497
  887MOL0     H19744   1.262   8.960  10.813 -2.7853 -2.1377  0.6875
  887MOL0     H19745   1.361   8.972  10.960  0.3236  0.0964  0.1797
  888MOL0     O19746   2.796   7.999   7.870  0.3975 -0.1914 -0.9038
  888MOL0     C19747   2.793   8.069   7.974  0.4456  0.6878  0.0504
  888MOL0     O19748   2.876   8.056   8.083  0.4425  0.2528  0.3022
  888MOL0     C19749   2.988   7.980   8.066 -0.4601 -0.3058 -0.3040
  888MOL0     C19750   3.016   7.909   8.182 -0.0106 -0.8627 -0.1808
  888MOL0     C19751   3.125   7.822   8.191 -0.2553 -0.1257 -0.2367
  888MOL0     C19752   3.204   7.810   8.073 -0.3006 -0.4182  0.5978
  888MOL0     O19753   3.302   7.721   8.060  0.7143  0.3347  0.5342
  888MOL0     C19754   3.420   7.760   8.114 -0.5197  0.1804 -0.2955
  888MOL0     C19755   3.524   7.648   8.121 -0.3482 -0.1312 -0.4236
  888MOL0     C19756   3.554   7.595   7.978 -1.1073  0.5541 -0.7174
  888MOL0     C19757   3.708   7.579   7.962  0.0758  0.0489  0.0559
  888MOL0     C19758   3.752   7.506   7.838 -0.4554 -0.2810  0.2572
  888MOL0     C19759   3.908   7.499   7.824  0.8493 -0.2395 -0.5072
  888MOL0     C19760   3.962   7.630   7.771 -0.3717  0.2717  0.5763
  888MOL0     C19761   3.990   7.609   7.619  0.5932  0.1420 -0.0229
  888MOL0     N19762   4.006   7.728   7.544 -0.2141  0.1204 -0.0988
  888MOL0     C19763   3.920   7.836   7.557  0.3929  0.1962  0.2362
  888MOL0     C19764   3.982   7.919   7.467  0.5515  0.3030  0.4153
  888MOL0     C19765   3.948   8.065   7.444 -0.0235  0.0033 -0.6857
  888MOL0     C19766   4.070   8.142   7.492 -0.1475 -0.8899 -0.5620
  888MOL0     C19767   4.037   8.288   7.471 -0.6276  0.2385  0.0976
  888MOL0     C19768   4.155   8.374   7.494  0.0865  0.8300  0.1734
  888MOL0     O19769   4.201   8.383   7.627 -0.7970 -0.3061 -0.2710
  888MOL0     C19770   4.333   8.427   7.640 -0.2905 -0.0967  0.6676
  888MOL0     C19771   4.438   8.339   7.630 -0.3891  0.7854 -0.6614
  888MOL0     C19772   4.569   8.375   7.641 -0.5076 -0.3094  0.3660
  888MOL0     C19773   4.605   8.509   7.670  0.9457  0.2033  0.9154
  888MOL0     C19774   4.747   8.544   7.701  0.4473  1.4766  0.5622
  888MOL0     O19775   4.771   8.674   7.742 -0.1240  0.3554 -0.8699
  888MOL0     C19776   4.884   8.717   7.812 -0.2136  0.8339  0.6590
  888MOL0     C19777   4.887   8.850   7.845  0.8115  0.2214  0.3203
  888MOL0     C19778   4.997   8.909   7.903 -0.7504  0.2320 -0.1105
  888MOL0     C19779   5.115   8.840   7.923  0.5097 -0.0184  0.6452
  888MOL0     O19780   5.222   8.909   7.966 -0.2971 -0.2461  0.2769
  888MOL0     C19781   5.336   8.897   7.873 -0.4562 -0.1260  0.4142
  888MOL0     C19782   5.464   8.874   7.948 -0.5549  0.1721  0.3822
  888MOL0     C19783   5.463   8.749   8.042  0.7220 -0.4454 -0.7327
  888MOL0     C19784   5.599   8.716   8.105 -0.1587 -0.4520  0.0220
  888MOL0     C19785   5.589   8.597   8.190  0.3832 -0.9495  0.0008
  888MOL0     C19786   5.716   8.551   8.255 -0.1880  0.3231 -0.5615
  888MOL0     C19787   5.803   8.465   8.162  0.6124 -0.4685 -0.0456
  888MOL0     C19788   5.928   8.425   8.224  0.2966 -0.8548 -0.3242
  888MOL0    Cl19789   6.020   8.575   8.251 -0.1251 -0.1445  0.4708
  888MOL0     C19790   5.107   8.699   7.904 -1.0982 -0.0261 -0.5894
  888MOL0     C19791   5.000   8.639   7.848  0.0370 -0.2367 -0.4994
  888MOL0     O19792   4.834   8.452   7.686 -0.5659 -0.6624 -0.1652
  888MOL0     C19793   4.502   8.609   7.676  0.6568  0.6826 -0.6491
  888MOL0     C19794   4.367   8.564   7.652  0.8168 -0.0026  0.3792
  888MOL0     N19795   4.090   7.866   7.405 -0.2257 -0.6801 -0.0824
  888MOL0     N19796   4.108   7.746   7.453 -0.2303 -0.7918  0.3669
  888MOL0     C19797   3.187   7.893   7.960 -0.4563 -0.9050  0.9922
  888MOL0     C19798   3.076   7.980   7.959 -0.1581  0.2219 -0.1661
  888MOL0     C19799   2.679   8.165   7.988 -0.0621  0.2516  0.4180
  888MOL0     C19800   2.573   8.158   7.892  0.4906 -0.5970  0.3697
  888MOL0     C19801   2.463   8.241   7.909  0.1700  0.1203  0.0256
  888MOL0     C19802   2.463   8.337   8.009  1.2888 -0.1765 -0.2406
  888MOL0     O19803   2.341   8.395   8.024 -0.0793 -0.5220  0.3114
  888MOL0     C19804   2.308   8.442   8.158 -0.2750 -0.4341 -0.0658
  888MOL0     C19805   2.338   8.597   8.190 -0.4834 -0.3638  0.5848
  888MOL0     C19806   2.278   8.682   8.080  0.3127  0.2231 -0.1712
  888MOL0     C19807   2.130   8.706   8.117  0.2665 -0.3404  0.6985
  888MOL0     C19808   2.066   8.815   8.049 -0.1233 -0.8834  0.4013
  888MOL0     C19809   2.019   8.901   7.971  0.4825 -0.9604 -0.2734
  888MOL0     C19810   2.570   8.362   8.092  0.1291 -0.8293 -0.2453
  888MOL0     C19811   2.679   8.274   8.079  0.4184 -0.9403 -0.0995
  888MOL0     C19812   2.793   8.301   8.174 -0.5326  0.6547  0.4776
  888MOL0     H19813   2.951   7.918   8.269 -1.0391 -0.8952 -0.9258
  888MOL0     H19814   3.148   7.762   8.278 -1.8501  0.9167  0.9629
  888MOL0     H19815   3.465   7.848   8.067  1.2927 -1.6943 -2.3454
  888MOL0     H19816   3.405   7.790   8.218 -0.9470 -1.0077  0.0033
  888MOL0     H19817   3.483   7.561   8.175  0.9512  0.4147  1.5200
  888MOL0     H19818   3.617   7.667   8.175 -0.6959 -1.7345  0.8578
  888MOL0     H19819   3.514   7.652   7.894  3.6235  0.1100 -3.6323
  888MOL0     H19820   3.510   7.496   7.972 -1.4257  0.5398  1.1444
  888MOL0     H19821   3.757   7.677   7.965 -0.5340  0.3894 -0.6593
  888MOL0     H19822   3.735   7.512   8.044  1.9083 -2.2445 -2.2380
  888MOL0     H19823   3.715   7.403   7.851 -1.8657  0.1266 -0.3722
  888MOL0     H19824   3.710   7.555   7.751  0.0832  1.1944  0.8028
  888MOL0     H19825   3.948   7.483   7.925 -0.0909  1.1507  0.1189
  888MOL0     H19826   3.928   7.417   7.754 -1.0686  2.2693 -4.2700
  888MOL0     H19827   4.058   7.662   7.815  1.8331 -1.6879 -2.4133
  888MOL0     H19828   3.886   7.708   7.777 -0.9297 -0.0630 -1.5398
  888MOL0     H19829   4.085   7.555   7.609 -0.7721 -2.9123  2.0343
  888MOL0     H19830   3.924   7.542   7.564  1.4298 -1.6496  1.0615
  888MOL0     H19831   3.828   7.855   7.612  0.7815 -0.5859  1.1712
  888MOL0     H19832   3.940   8.083   7.337  1.5381 -2.3687 -1.2660
  888MOL0     H19833   3.850   8.085   7.489 -0.2329 -0.8522 -0.7437
  888MOL0     H19834   4.098   8.131   7.597  0.8347  3.2384 -0.1959
  888MOL0     H19835   4.154   8.118   7.427 -0.2812 -1.8532 -0.3841
  888MOL0     H19836   3.967   8.309   7.553 -1.5955 -2.5770  0.1096
  888MOL0     H19837   3.988   8.315   7.377 -0.3143 -2.3167 -0.8866
  888MOL0     H19838   4.124   8.471   7.454 -0.1063  0.1988 -1.2834
  888MOL0     H19839   4.236   8.338   7.429 -1.6361 -1.5352 -0.8285
  888MOL0     H19840   4.409   8.236   7.610  1.8837  0.0418 -0.4490
  888MOL0     H19841   4.637   8.293   7.621 -1.8688 -0.8439 -2.8100
  888MOL0     H19842   4.808   8.915   7.808  1.5142  0.6123 -0.5402
  888MOL0     H19843   4.993   9.016   7.921  4.2725  0.6456 -0.0993
  888MOL0     H19844   5.323   8.827   7.790  1.9323 -0.9136  0.6305
  888MOL0     H19845   5.357   8.995   7.832  3.9697 -1.0367  0.0370
  888MOL0     H19846   5.543   8.850   7.876 -0.9261 -2.3668  0.7113
  888MOL0     H19847   5.479   8.968   8.002 -0.1567 -0.9787  2.3833
  888MOL0     H19848   5.385   8.756   8.118  0.4787  1.0743 -1.0933
  888MOL0     H19849   5.431   8.660   7.987 -1.3175 -1.9315  2.5985
  888MOL0     H19850   5.629   8.796   8.173 -0.4622 -2.2547  2.4012
  888MOL0     H19851   5.674   8.713   8.025 -0.1231  3.3782 -0.2324
  888MOL0     H19852   5.555   8.512   8.130  2.6430 -1.2293 -1.0134
  888MOL0     H19853   5.518   8.614   8.271  3.2520  0.1284  2.4794
  888MOL0     H19854   5.772   8.640   8.286 -0.3947  0.3516 -0.2733
  888MOL0     H19855   5.692   8.486   8.340  3.0481  0.5109  0.6658
  888MOL0     H19856   5.827   8.521   8.072 -2.9406  0.3701 -0.6451
  888MOL0     H19857   5.756   8.369   8.138  0.1240 -1.3169  3.6810
  888MOL0     H19858   5.921   8.366   8.316  0.1553 -1.6084 -0.7994
  888MOL0     H19859   5.982   8.364   8.150  1.4260 -3.6468  2.5461
  888MOL0     H19860   5.189   8.636   7.934 -1.8457 -0.3555  0.8628
  888MOL0     H19861   5.000   8.531   7.848 -2.5427 -0.3479  1.7216
  888MOL0     H19862   4.538   8.710   7.694  3.0510 -0.6091  3.1800
  888MOL0     H19863   4.294   8.643   7.646  0.6088 -0.2319 -0.1768
  888MOL0     H19864   3.245   7.879   7.869 -2.2296 -0.3464 -0.2719
  888MOL0     H19865   3.058   8.047   7.875 -4.4065  0.8436  1.0163
  888MOL0     H19866   2.573   8.080   7.817 -1.2382  0.5157 -0.8544
  888MOL0     H19867   2.385   8.216   7.837 -1.2166 -1.0716  1.8467
  888MOL0     H19868   2.346   8.376   8.236 -4.4405 -0.8490  1.8709
  888MOL0     H19869   2.200   8.431   8.169  0.0228 -2.6344  1.0893
  888MOL0     H19870   2.447   8.610   8.195 -0.3943 -0.8700  0.1629
  888MOL0     H19871   2.297   8.618   8.289 -0.2335  0.1101  0.5916
  888MOL0     H19872   2.275   8.631   7.984 -2.0742 -1.1269  0.5337
  888MOL0     H19873   2.338   8.773   8.087  0.3222  0.1399  1.1138
  888MOL0     H19874   2.072   8.613   8.113 -2.2184  1.1675 -2.6622
  888MOL0     H19875   2.135   8.737   8.221  0.5049  1.2817  0.2280
  888MOL0     H19876   1.966   8.966   7.905  2.5683  0.0909 -0.9895
  888MOL0     H19877   2.570   8.433   8.175  1.4440 -0.8976 -0.1699
  888MOL0     H19878   2.886   8.316   8.119 -0.4463  5.6500  1.4448
  888MOL0     H19879   2.794   8.392   8.236  0.1617  2.0687 -1.4877
  888MOL0     H19880   2.817   8.216   8.238  1.7218  0.2234 -0.8448
  889MOL0     O19881   6.418   2.923   7.711  0.3844 -0.9015 -0.1224
  889MOL0     C19882   6.380   3.041   7.686  0.5668 -0.8733 -0.3291
  889MOL0     O19883   6.458   3.155   7.720  1.0244  0.1786 -0.9975
  889MOL0     C19884   6.581   3.135   7.770  0.2292  0.3422 -0.1428
  889MOL0     C19885   6.615   3.080   7.895  0.4961  0.1428  0.3110
  889MOL0     C19886   6.741   3.068   7.936  0.3146  0.4105 -0.9232
  889MOL0     C19887   6.844   3.108   7.864  0.6902 -0.4894  0.3043
  889MOL0     O19888   6.973   3.097   7.909  0.0423 -0.7583 -0.3156
  889MOL0     C19889   7.087   3.139   7.834 -0.5142 -0.4581  0.2591
  889MOL0     C19890   7.219   3.075   7.883 -1.0855  0.2514 -0.0867
  889MOL0     C19891   7.336   3.163   7.885  0.7341 -0.9582  0.6600
  889MOL0     C19892   7.465   3.102   7.938  0.5114 -0.2157  0.4732
  889MOL0     C19893   7.582   3.180   7.910 -0.8486  0.3579  0.3996
  889MOL0     C19894   7.588   3.313   7.990  0.3371  1.2828 -0.0602
  889MOL0     C19895   7.723   3.386   7.975  0.0330 -0.3428  0.3012
  889MOL0     C19896   7.833   3.309   8.040 -0.5435  0.2500  0.2016
  889MOL0     N19897   7.939   3.397   8.096 -0.5447 -0.1801  0.7235
  889MOL0     C19898   8.069   3.389   8.060  0.2262 -0.0547 -0.0961
  889MOL0     C19899   8.137   3.473   8.145  0.1207  0.9895 -0.0146
  889MOL0     C19900   8.287   3.505   8.139  0.0228 -0.9330 -0.3039
  889MOL0     C19901   8.347   3.543   8.272 -0.5346 -0.2040 -0.2012
  889MOL0     C19902   8.359   3.434   8.370 -0.0779  0.4118 -0.4178
  889MOL0     C19903   8.471   3.440   8.470  0.2036 -0.1440  0.2632
  889MOL0     O19904   8.598   3.431   8.398  0.0045  1.2388 -0.3863
  889MOL0     C19905   8.708   3.385   8.457  0.3145 -0.4665  0.1397
  889MOL0     C19906   8.715   3.352   8.595  0.0929 -0.5563 -0.5272
  889MOL0     C19907   8.848   3.331   8.652  0.1451  0.3270  0.9237
  889MOL0     C19908   8.956   3.309   8.563 -0.1511 -0.0428  0.3346
  889MOL0     C19909   9.086   3.245   8.610  0.0179  0.2654  0.8057
  889MOL0     O19910   9.186   3.236   8.518 -0.2102  0.1700 -0.3315
  889MOL0     C19911   9.310   3.207   8.558  0.0531  0.0568 -0.4590
  889MOL0     C19912   9.376   3.293   8.650 -0.1466 -0.1208 -0.2199
  889MOL0     C19913   9.515   3.289   8.668 -0.5081  0.1103 -0.3602
  889MOL0     C19914   9.580   3.171   8.625 -0.4249 -0.6898  0.4827
  889MOL0     O19915   9.709   3.139   8.645 -0.5753  0.4179  1.0354
  889MOL0     C19916   9.777   3.224   8.731  0.4553  0.2232 -0.4498
  889MOL0     C19917   9.916   3.173   8.751  0.7510  0.0430  0.2378
  889MOL0     C19918   9.997   3.169   8.616  0.8100 -1.0878  0.5336
  889MOL0     C19919  10.131   3.096   8.632  0.0341  0.3692 -0.0344
  889MOL0     C19920  10.176   3.073   8.486 -1.2704 -0.1316  0.4139
  889MOL0     C19921  10.320   3.024   8.467  0.0828 -0.1956  0.5660
  889MOL0     C19922  10.362   3.009   8.317  0.3807 -1.1207 -0.0229
  889MOL0     C19923  10.512   2.967   8.305  0.0141  0.0974  0.5403
  889MOL0    Cl19924  10.555   2.968   8.131  0.0785  0.0720  0.2957
  889MOL0     C19925   9.512   3.076   8.550  0.6798 -0.1778  1.4943
  889MOL0     C19926   9.374   3.096   8.515 -0.1851  0.1561 -1.3231
  889MOL0     O19927   9.096   3.202   8.730 -0.6256  0.1270 -0.1544
  889MOL0     C19928   8.942   3.329   8.425  0.8381  0.3185 -0.6732
  889MOL0     C19929   8.820   3.371   8.372  0.0784 -0.6184  0.1796
  889MOL0     N19930   8.051   3.534   8.226  0.1164 -0.2510 -0.2626
  889MOL0     N19931   7.927   3.485   8.200 -0.6979  0.5403  0.1195
  889MOL0     C19932   6.817   3.158   7.735  0.0518  0.0323  0.5275
  889MOL0     C19933   6.682   3.163   7.684 -0.7642  1.0157  0.3221
  889MOL0     C19934   6.237   3.078   7.638  0.0988  0.1396 -1.0502
  889MOL0     C19935   6.211   3.207   7.608 -0.3141 -0.1966 -0.8762
  889MOL0     C19936   6.082   3.264   7.584  0.3662 -0.3543  0.1375
  889MOL0     C19937   5.976   3.174   7.589  0.0151  0.6263  0.2592
  889MOL0     O19938   5.840   3.204   7.578 -0.1233  0.4582 -0.0901
  889MOL0     C19939   5.804   3.342   7.557  0.7141  0.5989 -0.4111
  889MOL0     C19940   5.650   3.365   7.548  0.0492  0.9042  0.3286
  889MOL0     C19941   5.564   3.275   7.453  0.7473  0.4500 -0.0603
  889MOL0     C19942   5.424   3.336   7.435  0.4189 -0.4578 -0.2450
  889MOL0     C19943   5.332   3.265   7.336 -0.3363 -0.1146 -0.0693
  889MOL0     C19944   5.260   3.212   7.251  0.1908  0.0845  0.8129
  889MOL0     C19945   5.996   3.034   7.612 -0.3061  0.2929  0.2599
  889MOL0     C19946   6.125   2.991   7.645 -0.0562  0.4407 -0.3827
  889MOL0     C19947   6.150   2.847   7.682  0.0743 -0.9430  0.1945
  889MOL0     H19948   6.540   3.030   7.955  0.7633 -2.3305 -1.2621
  889MOL0     H19949   6.759   3.021   8.032  0.7845 -2.8175 -2.4777
  889MOL0     H19950   7.093   3.114   7.727  2.3751 -0.1625  0.2566
  889MOL0     H19951   7.085   3.248   7.843 -0.9081 -0.1796 -2.3775
  889MOL0     H19952   7.237   2.990   7.816  0.6490 -0.1986  0.8836
  889MOL0     H19953   7.195   3.041   7.984  0.2914  0.6155  0.3816
  889MOL0     H19954   7.310   3.244   7.955 -3.0516 -0.8797 -0.5966
  889MOL0     H19955   7.360   3.197   7.784  1.9745 -1.9951  0.5859
  889MOL0     H19956   7.450   3.092   8.046 -0.7896  1.1103  0.4520
  889MOL0     H19957   7.481   2.998   7.905 -2.0065 -0.9733  1.4087
  889MOL0     H19958   7.664   3.120   7.948  0.5650  0.8793 -1.6636
  889MOL0     H19959   7.594   3.204   7.803  3.5864 -0.4744  0.5573
  889MOL0     H19960   7.505   3.374   7.952 -1.2920 -0.1827  0.9940
  889MOL0     H19961   7.569   3.289   8.095  0.1151 -4.4272 -1.0931
  889MOL0     H19962   7.715   3.480   8.030  0.7652 -0.4670  0.6274
  889MOL0     H19963   7.731   3.412   7.869  2.0010  2.8889  1.1176
  889MOL0     H19964   7.794   3.267   8.134 -0.0315  0.2137  0.3996
  889MOL0     H19965   7.862   3.226   7.975  0.3590  1.6130 -1.1890
  889MOL0     H19966   8.114   3.330   7.981 -0.8715  1.2984 -1.8307
  889MOL0     H19967   8.337   3.426   8.082  2.6105  2.0118 -2.5105
  889MOL0     H19968   8.313   3.594   8.081  0.3635 -0.7459  0.1291
  889MOL0     H19969   8.450   3.574   8.251 -0.5829 -1.0327 -1.8328
  889MOL0     H19970   8.296   3.629   8.317  0.0082 -0.4158  0.8421
  889MOL0     H19971   8.374   3.347   8.306  1.6539  0.1723  0.2684
  889MOL0     H19972   8.263   3.433   8.423  0.2385  3.4451  0.4405
  889MOL0     H19973   8.457   3.361   8.544  1.3163  0.4599  1.1606
  889MOL0     H19974   8.463   3.536   8.522  0.2125 -0.8696  1.6324
  889MOL0     H19975   8.631   3.362   8.663  0.9944  0.2797  0.5130
  889MOL0     H19976   8.855   3.309   8.758 -1.0026  1.3008  1.2151
  889MOL0     H19977   9.320   3.377   8.689 -1.5516  0.8804 -3.9847
  889MOL0     H19978   9.556   3.360   8.739  2.2026 -0.2009 -1.5014
  889MOL0     H19979   9.791   3.320   8.681  1.3771  0.4998  0.3136
  889MOL0     H19980   9.736   3.236   8.832  1.9113  0.0302  0.1865
  889MOL0     H19981   9.956   3.235   8.831  0.8159  2.4813 -1.5590
  889MOL0     H19982   9.909   3.071   8.791 -1.9739 -0.1246 -0.5147
  889MOL0     H19983   9.933   3.134   8.535 -1.7840  0.3463  1.8122
  889MOL0     H19984  10.029   3.273   8.602 -2.0615  0.1426  2.0689
  889MOL0     H19985  10.111   2.996   8.670 -0.4522  0.4242 -0.1328
  889MOL0     H19986  10.204   3.147   8.696  1.8397 -0.1596 -1.5807
  889MOL0     H19987  10.162   3.168   8.433  1.9183  0.4844  0.5074
  889MOL0     H19988  10.111   3.002   8.434 -1.0419  1.1897 -1.8488
  889MOL0     H19989  10.368   3.109   8.516 -0.0419 -1.9872  4.0779
  889MOL0     H19990  10.347   2.940   8.531  0.3809 -0.2206  0.4105
  889MOL0     H19991  10.348   3.101   8.261  3.1181 -1.0379 -0.7099
  889MOL0     H19992  10.302   2.936   8.262  2.7020 -2.0644 -1.4662
  889MOL0     H19993  10.579   3.036   8.358  2.5683 -1.6048 -0.2566
  889MOL0     H19994  10.531   2.866   8.342  1.3062 -0.2184 -0.8966
  889MOL0     H19995   9.559   2.984   8.516  1.1263  1.1908 -2.0734
  889MOL0     H19996   9.317   3.014   8.472 -1.1247 -1.1942  2.0977
  889MOL0     H19997   9.024   3.321   8.355  0.6319  0.3373 -0.9198
  889MOL0     H19998   8.799   3.371   8.266  1.8167 -0.1768 -0.2071
  889MOL0     H19999   6.903   3.200   7.683  0.9568 -0.1951  1.7922
  889MOL0     H20000   6.658   3.206   7.587  0.8076  0.1992 -0.4794
  889MOL0     H20001   6.295   3.276   7.600 -0.7190  0.5212  0.6393
  889MOL0     H20002   6.053   3.366   7.565 -1.9215 -1.2839 -1.9646
  889MOL0     H20003   5.845   3.368   7.459 -1.0057 -1.0087 -1.6334
  889MOL0     H20004   5.844   3.414   7.628 -0.8048  1.6927 -0.6230
  889MOL0     H20005   5.646   3.465   7.504 -0.7673  0.4926 -0.5831
  889MOL0     H20006   5.620   3.375   7.653  1.0129  0.4578  0.6557
  889MOL0     H20007   5.544   3.178   7.500  2.1050  0.8586  1.4597
  889MOL0     H20008   5.613   3.266   7.356 -0.6369 -0.8415 -0.6768
  889MOL0     H20009   5.372   3.329   7.531  1.8792  1.1778  0.7182
  889MOL0     H20010   5.423   3.442   7.409 -1.8303  0.5511  3.1353
  889MOL0     H20011   5.187   3.162   7.190 -1.8325  1.8109  1.6859
  889MOL0     H20012   5.912   2.965   7.603  1.7627 -2.1318 -2.4150
  889MOL0     H20013   6.059   2.790   7.665  0.2693 -1.1655 -0.1326
  889MOL0     H20014   6.218   2.797   7.612  0.7836 -1.0619  0.9533
  889MOL0     H20015   6.181   2.832   7.786  0.7325  0.5670  0.2496
  890MOL0     O20016   6.724   9.766   4.199 -0.2313 -0.3177  0.2548
  890MOL0     C20017   6.686   9.859   4.271 -0.3591  0.1029 -0.2719
  890MOL0     O20018   6.766   9.944   4.339 -0.3647 -0.0324  0.6379
  890MOL0     C20019   6.903   9.907   4.349  0.0877  0.0558  0.3717
  890MOL0     C20020   7.006  10.005   4.330  0.5443 -0.2309  0.0704
  890MOL0     C20021   7.143   9.969   4.340  0.6567 -0.6533 -0.1537
  890MOL0     C20022   7.174   9.839   4.376  0.3646  0.2418 -1.4294
  890MOL0     O20023   7.300   9.793   4.393  0.5015  0.1549 -0.2641
  890MOL0     C20024   7.409   9.858   4.331  0.4005 -0.2761 -0.3276
  890MOL0     C20025   7.529   9.765   4.340 -0.3258  0.8790  0.1479
  890MOL0     C20026   7.642   9.804   4.251 -0.2966 -0.5782 -0.5643
  890MOL0     C20027   7.784   9.738   4.272  0.7321  0.3637 -0.9799
  890MOL0     C20028   7.898   9.784   4.182 -0.5670  1.1677  0.2056
  890MOL0     C20029   8.036   9.731   4.239  1.4124 -0.0298 -0.0141
  890MOL0     C20030   8.134   9.709   4.124  0.6037  0.4682  0.9228
  890MOL0     C20031   8.265   9.668   4.194 -1.6300 -0.6618 -0.4169
  890MOL0     N20032   8.376   9.614   4.113  0.4293 -0.5274  0.3018
  890MOL0     C20033   8.361   9.498   4.030 -0.0223 -0.6493 -0.2309
  890MOL0     C20034   8.485   9.501   3.956  0.3622  0.4090  0.3180
  890MOL0     C20035   8.528   9.403   3.855  0.1063  0.4879  0.4704
  890MOL0     C20036   8.660   9.433   3.781  0.2761  0.2482 -0.1616
  890MOL0     C20037   8.650   9.531   3.669 -0.2368  0.3004  0.2034
  890MOL0     C20038   8.772   9.583   3.597 -0.7845  1.2504 -0.4335
  890MOL0     O20039   8.850   9.470   3.550 -0.3740 -0.2310 -0.2091
  890MOL0     C20040   8.991   9.494   3.545 -0.5155  0.3742 -0.4951
  890MOL0     C20041   9.040   9.626   3.513  0.1491 -0.0625 -0.4039
  890MOL0     C20042   9.178   9.658   3.502  0.4447 -0.1562  0.0883
  890MOL0     C20043   9.267   9.551   3.523 -0.2836 -0.0087  0.2088
  890MOL0     C20044   9.414   9.580   3.502 -0.2690  0.9258  0.7053
  890MOL0     O20045   9.449   9.702   3.457  0.2351 -0.4453  0.2811
  890MOL0     C20046   9.583   9.724   3.432 -0.2912  0.6033 -0.8627
  890MOL0     C20047   9.633   9.843   3.494 -0.3015 -0.5002  0.5377
  890MOL0     C20048   9.763   9.888   3.466 -0.1437 -0.0688  0.2435
  890MOL0     C20049   9.844   9.808   3.386 -0.4213  0.0409  0.1209
  890MOL0     O20050   9.968   9.864   3.369 -0.1539 -0.4838  0.4125
  890MOL0     C20051  10.057   9.817   3.266 -0.4727 -0.7779 -1.0427
  890MOL0     C20052  10.123   9.687   3.320  0.2950  0.6285  0.0203
  890MOL0     C20053  10.227   9.703   3.429 -0.1655 -0.9035 -0.3460
  890MOL0     C20054  10.358   9.755   3.365 -0.4031  0.2873  0.4672
  890MOL0     C20055  10.476   9.722   3.456 -0.1212  0.5610 -0.1186
  890MOL0     C20056  10.582   9.822   3.418 -0.3988 -0.4244 -0.7369
  890MOL0     C20057  10.724   9.803   3.494  0.9944  0.0330 -0.6475
  890MOL0     C20058  10.833   9.909   3.452 -0.1272 -0.6301 -0.3906
  890MOL0    Cl20059  10.996   9.851   3.466 -0.0763  0.2652  0.2539
  890MOL0     C20060   9.794   9.689   3.328 -0.3495 -0.5333  0.0258
  890MOL0     C20061   9.661   9.648   3.349 -0.2913 -0.5816 -0.0576
  890MOL0     O20062   9.491   9.482   3.509 -0.4404  0.5222  0.6937
  890MOL0     C20063   9.225   9.419   3.543 -0.0138  0.4765  0.1724
  890MOL0     C20064   9.085   9.395   3.546 -0.7588 -0.7524 -0.3069
  890MOL0     N20065   8.560   9.605   3.994 -0.1494 -1.1662 -0.1686
  890MOL0     N20066   8.495   9.675   4.084 -0.8645  0.5416 -0.2178
  890MOL0     C20067   7.074   9.753   4.408  0.0952  0.2785  0.2104
  890MOL0     C20068   6.938   9.777   4.389 -0.7518 -0.1048  0.1093
  890MOL0     C20069   6.538   9.883   4.281 -0.7516  0.3553  0.2992
  890MOL0     C20070   6.446   9.780   4.238 -0.0291 -0.7484  0.8399
  890MOL0     C20071   6.309   9.796   4.247 -0.2304 -0.4124  0.4177
  890MOL0     C20072   6.249   9.911   4.300  0.5582 -0.8662 -0.3590
  890MOL0     O20073   6.111   9.923   4.317  0.2710 -0.3081 -0.0402
  890MOL0     C20074   6.015   9.840   4.248 -0.4962  0.0646 -0.9610
  890MOL0     C20075   6.025   9.866   4.105  0.7225  0.7681  0.8619
  890MOL0     C20076   5.932   9.785   4.011 -1.5379 -0.1770 -0.7159
  890MOL0     C20077   5.791   9.843   4.003  0.2819 -0.1452  0.7429
  890MOL0     C20078   5.711   9.788   4.120 -0.1572 -0.4513  0.7348
  890MOL0     C20079   5.645   9.743   4.212 -0.8233 -0.1440 -0.2471
  890MOL0     C20080   6.339  10.014   4.334  0.4109  0.0231  0.7608
  890MOL0     C20081   6.474  10.003   4.330 -0.6824 -0.1934 -0.3084
  890MOL0     C20082   6.553  10.125   4.384 -0.5286 -0.1869 -0.3305
  890MOL0     H20083   6.975  10.109   4.320 -1.4890 -0.9162 -1.3921
  890MOL0     H20084   7.220  10.043   4.321 -0.2556 -0.2478 -2.6504
  890MOL0     H20085   7.381   9.867   4.226 -1.9703 -3.1138 -0.0493
  890MOL0     H20086   7.437   9.953   4.378  3.3844 -2.1167  1.9992
  890MOL0     H20087   7.492   9.664   4.321 -3.8477  1.6150  2.1618
  890MOL0     H20088   7.555   9.760   4.446  0.9557  1.7694 -0.0931
  890MOL0     H20089   7.667   9.910   4.256 -0.3480 -0.5474 -0.9304
  890MOL0     H20090   7.610   9.792   4.147  3.5017  0.5636 -2.0425
  890MOL0     H20091   7.808   9.750   4.378 -0.9435 -1.5862 -0.3227
  890MOL0     H20092   7.786   9.629   4.261  1.2831  0.3853 -1.1238
  890MOL0     H20093   7.890   9.742   4.081  2.8390  2.5159 -0.7626
  890MOL0     H20094   7.902   9.892   4.170  0.5146  1.0864 -0.2142
  890MOL0     H20095   8.066   9.790   4.326 -0.6697 -0.2157  0.8823
  890MOL0     H20096   8.017   9.635   4.287 -2.1978  0.5069 -0.0910
  890MOL0     H20097   8.142   9.797   4.060 -2.6612 -1.1361 -2.0125
  890MOL0     H20098   8.113   9.630   4.051  2.9725 -0.5701  1.2746
  890MOL0     H20099   8.312   9.755   4.242  0.0951 -2.2801  1.0120
  890MOL0     H20100   8.240   9.597   4.273 -1.4750 -0.6550 -0.3599
  890MOL0     H20101   8.280   9.425   4.026  0.8409 -1.6759  0.5180
  890MOL0     H20102   8.549   9.309   3.907 -2.1279 -1.6303 -2.2044
  890MOL0     H20103   8.439   9.398   3.792  1.6002 -0.4324 -1.7052
  890MOL0     H20104   8.738   9.477   3.844  1.4356  0.8617 -1.9621
  890MOL0     H20105   8.694   9.340   3.733  1.4436  0.7921 -0.4409
  890MOL0     H20106   8.591   9.621   3.688 -1.1565 -0.1193 -0.5914
  890MOL0     H20107   8.594   9.480   3.590  0.8546  1.1424 -1.1664
  890MOL0     H20108   8.816   9.659   3.663  0.5251  0.0586  0.1132
  890MOL0     H20109   8.745   9.649   3.514 -2.8005  2.5099  1.1110
  890MOL0     H20110   8.976   9.711   3.491  1.4557  1.5423  1.5974
  890MOL0     H20111   9.221   9.755   3.475  1.9308  0.0952  2.8982
  890MOL0     H20112   9.567   9.897   3.561  0.5521  1.9316 -0.4749
  890MOL0     H20113   9.803   9.981   3.504 -1.2109  1.3195 -1.8431
  890MOL0     H20114   9.995   9.803   3.176  0.5104  0.1569 -1.8936
  890MOL0     H20115  10.131   9.894   3.245 -0.6305 -0.2952  0.1405
  890MOL0     H20116  10.038   9.625   3.352 -0.4581  1.9031  0.5598
  890MOL0     H20117  10.167   9.630   3.238  2.2103 -1.4537  2.3260
  890MOL0     H20118  10.194   9.769   3.510  1.9486  1.1447 -1.0302
  890MOL0     H20119  10.244   9.610   3.484 -0.8664  0.3671  2.1744
  890MOL0     H20120  10.355   9.861   3.339  1.2792  0.1338 -0.4920
  890MOL0     H20121  10.373   9.697   3.274 -1.5822 -0.0365  0.4612
  890MOL0     H20122  10.520   9.624   3.435 -0.4383  0.1175  1.2100
  890MOL0     H20123  10.449   9.734   3.561  1.1284  0.7919  0.1980
  890MOL0     H20124  10.602   9.804   3.312 -3.5191 -3.3042 -0.9981
  890MOL0     H20125  10.538   9.922   3.429 -2.4179 -1.4488  1.3184
  890MOL0     H20126  10.751   9.700   3.470  0.7245 -0.4631  1.0014
  890MOL0     H20127  10.719   9.811   3.603 -1.7738  0.2335 -0.7037
  890MOL0     H20128  10.823   9.938   3.347 -1.9849 -1.7828 -0.5834
  890MOL0     H20129  10.820   9.992   3.522 -0.5726 -2.6796  2.1396
  890MOL0     H20130   9.858   9.623   3.270  1.9484  1.6654 -0.1305
  890MOL0     H20131   9.622   9.554   3.310 -0.5537 -2.1128  3.4590
  890MOL0     H20132   9.297   9.339   3.540 -1.0778 -0.5734 -3.9950
  890MOL0     H20133   9.046   9.295   3.562 -2.6010  0.1021  0.7825
  890MOL0     H20134   7.098   9.657   4.452  0.7770  0.7941  0.9871
  890MOL0     H20135   6.856   9.713   4.420 -2.4660  2.2805  0.7165
  890MOL0     H20136   6.485   9.688   4.195 -0.5370  0.0249 -1.4132
  890MOL0     H20137   6.241   9.720   4.209  0.5032 -0.8681 -0.0083
  890MOL0     H20138   5.913   9.864   4.282 -0.4271 -1.8258  0.7367
  890MOL0     H20139   6.023   9.734   4.271 -0.9790  0.0552 -0.8122
  890MOL0     H20140   6.127   9.832   4.085 -0.0691 -1.9615  1.0180
  890MOL0     H20141   5.993   9.967   4.078 -3.5035 -0.5345  0.3171
  890MOL0     H20142   5.925   9.679   4.037  0.8468  0.0119  1.0347
  890MOL0     H20143   5.971   9.780   3.910  2.3110 -1.4660  0.6620
  890MOL0     H20144   5.778   9.952   3.992 -1.3787 -0.2980  0.8367
  890MOL0     H20145   5.744   9.804   3.912 -0.1124  0.4115  0.6970
  890MOL0     H20146   5.597   9.705   4.300  1.3835 -1.7086  0.3706
  890MOL0     H20147   6.308  10.107   4.382 -2.6568 -0.5500  0.0662
  890MOL0     H20148   6.584  10.126   4.489  0.6789  2.3922 -0.6230
  890MOL0     H20149   6.640  10.138   4.319 -0.1883 -0.9134 -0.0271
  890MOL0     H20150   6.498  10.219   4.371  0.3090  0.2415 -0.8930
  891MOL0     O20151   9.537   0.305   1.911 -0.9112  0.3619  0.2476
  891MOL0     C20152   9.529   0.269   2.030 -0.6730 -0.0477  0.0639
  891MOL0     O20153   9.620   0.301   2.125  0.1466  0.0926 -0.2754
  891MOL0     C20154   9.735   0.354   2.078  0.3993  0.2243  0.6252
  891MOL0     C20155   9.847   0.273   2.081  0.8055 -1.0707 -0.9463
  891MOL0     C20156   9.973   0.318   2.046  0.1286 -0.4201  0.2093
  891MOL0     C20157   9.989   0.442   1.986  0.7879 -0.7443  0.2663
  891MOL0     O20158  10.101   0.498   1.920  0.1507 -0.1457 -0.1565
  891MOL0     C20159  10.219   0.414   1.920 -0.2602 -0.5772 -0.5106
  891MOL0     C20160  10.316   0.480   1.816 -0.7564  1.0171 -0.8209
  891MOL0     C20161  10.356   0.618   1.860  0.7989  0.3876 -0.0817
  891MOL0     C20162  10.428   0.693   1.745 -0.5910  0.8154 -0.4015
  891MOL0     C20163  10.478   0.834   1.786 -0.1673 -0.2258  0.8785
  891MOL0     C20164  10.603   0.869   1.695 -0.3591 -0.6868 -0.4337
  891MOL0     C20165  10.654   1.011   1.738  0.2132 -1.0793 -0.5843
  891MOL0     C20166  10.756   1.066   1.640  0.8953 -0.0377 -0.1143
  891MOL0     N20167  10.803   1.198   1.670  0.0134  0.0849 -0.4842
  891MOL0     C20168  10.736   1.310   1.628 -0.2044  0.0958 -0.0394
  891MOL0     C20169  10.828   1.406   1.655 -0.7298  0.3711 -0.2708
  891MOL0     C20170  10.817   1.544   1.601 -0.1304  0.4582  0.7229
  891MOL0     C20171  10.898   1.647   1.676  0.1537 -0.3337 -0.2056
  891MOL0     C20172  10.915   1.783   1.604  0.8086  0.6387 -0.7144
  891MOL0     C20173  11.046   1.825   1.551  0.5629  0.8744  0.0026
  891MOL0     O20174  11.077   1.729   1.450  0.2931  0.6041 -0.3591
  891MOL0     C20175  11.203   1.713   1.401  0.3058  0.1112  0.2343
  891MOL0     C20176  11.216   1.626   1.296 -0.3806  0.4598  0.2474
  891MOL0     C20177  11.346   1.587   1.252 -0.1351 -0.1489  0.4988
  891MOL0     C20178  11.463   1.651   1.314 -0.1296 -0.1649 -0.4462
  891MOL0     C20179  11.593   1.615   1.257 -0.3525  0.1908 -0.5548
  891MOL0     O20180  11.688   1.709   1.293 -0.0399  0.5914  0.4918
  891MOL0     C20181  11.822   1.696   1.274  0.5753 -1.0787  0.0591
  891MOL0     C20182  11.890   1.583   1.225  0.7838  0.2969 -0.1815
  891MOL0     C20183  12.028   1.588   1.222  0.6107 -0.1129  0.5006
  891MOL0     C20184  12.095   1.696   1.269 -1.1274 -0.5253  1.0105
  891MOL0     O20185  12.234   1.701   1.263 -0.3051  0.3854  0.8292
  891MOL0     C20186  12.305   1.779   1.356 -0.3374  0.3323 -0.2531
  891MOL0     C20187  12.439   1.720   1.397 -0.3284  1.4423  0.5167
  891MOL0     C20188  12.517   1.668   1.275  0.4628 -1.3571 -0.3988
  891MOL0     C20189  12.623   1.561   1.320 -1.0440 -0.3193 -0.5803
  891MOL0     C20190  12.682   1.481   1.200  0.1283 -0.0140  0.7558
  891MOL0     C20191  12.805   1.400   1.247 -0.1222  0.9052 -0.4381
  891MOL0     C20192  12.883   1.326   1.132 -0.9441 -0.0003 -0.3546
  891MOL0     C20193  12.976   1.215   1.183 -0.2702 -0.1298 -0.4767
  891MOL0    Cl20194  13.104   1.258   1.308 -0.0997  0.0203 -0.3483
  891MOL0     C20195  12.033   1.811   1.308  0.3707 -0.0516  0.5842
  891MOL0     C20196  11.891   1.812   1.305  0.8491  0.4711  0.0920
  891MOL0     O20197  11.610   1.521   1.180  0.3370  0.0307 -0.0944
  891MOL0     C20198  11.442   1.741   1.422 -0.9500  0.8203 -0.3112
  891MOL0     C20199  11.312   1.770   1.463 -0.7330 -0.8348 -0.0465
  891MOL0     N20200  10.947   1.353   1.701 -0.7092  0.8220 -0.6434
  891MOL0     N20201  10.923   1.232   1.730 -0.7024  0.1468  0.2576
  891MOL0     C20202   9.874   0.522   1.982 -0.5624  0.7381  0.0670
  891MOL0     C20203   9.748   0.480   2.027  0.3388 -0.4774  0.2209
  891MOL0     C20204   9.410   0.191   2.074  0.8329 -0.2116  0.0259
  891MOL0     C20205   9.288   0.226   2.016 -0.1537 -0.3500 -0.9592
  891MOL0     C20206   9.168   0.163   2.048  0.1889  0.4348 -1.0023
  891MOL0     C20207   9.158   0.071   2.151  0.5905 -0.2947 -0.1434
  891MOL0     O20208   9.042   0.021   2.194 -0.7570  0.3389 -0.3129
  891MOL0     C20209   8.925   0.108   2.196 -0.4085  0.0995 -0.5503
  891MOL0     C20210   8.809   0.045   2.265 -0.2180  0.6332  0.7636
  891MOL0     C20211   8.700   0.142   2.294  0.6653  0.6064 -0.1101
  891MOL0     C20212   8.561   0.063   2.303  0.2731  0.1404 -0.0524
  891MOL0     C20213   8.457   0.157   2.269  0.0577 -0.0226  0.8298
  891MOL0     C20214   8.353   0.216   2.239 -0.4845 -0.0216  0.2271
  891MOL0     C20215   9.277   0.044   2.222  1.2509  0.0517  0.7548
  891MOL0     C20216   9.396   0.104   2.186 -0.3022  0.7878  0.2685
  891MOL0     C20217   9.513   0.065   2.267 -0.2089  0.2187  0.0427
  891MOL0     H20218   9.843   0.177   2.133  1.0239 -1.1883 -1.1452
  891MOL0     H20219  10.065   0.261   2.055  0.3337 -0.2517 -0.6984
  891MOL0     H20220  10.274   0.403   2.014  1.7333  1.2910 -1.3719
  891MOL0     H20221  10.203   0.316   1.875 -0.3529 -0.6095 -0.4071
  891MOL0     H20222  10.269   0.480   1.717 -2.7404  1.1815  0.0816
  891MOL0     H20223  10.405   0.416   1.806 -1.4700  0.2210 -2.5715
  891MOL0     H20224  10.429   0.614   1.941  0.1971 -0.9622  0.4224
  891MOL0     H20225  10.269   0.676   1.893 -0.5058 -1.0587 -0.8453
  891MOL0     H20226  10.510   0.625   1.723 -2.3232 -0.7914 -2.4167
  891MOL0     H20227  10.361   0.698   1.658 -1.2845  4.0437  0.1926
  891MOL0     H20228  10.396   0.905   1.771  0.9604  0.7973 -0.8656
  891MOL0     H20229  10.515   0.833   1.889  0.8935  1.2658  0.5601
  891MOL0     H20230  10.685   0.799   1.713  1.8744  1.9786  0.4440
  891MOL0     H20231  10.580   0.869   1.588  1.1177  1.8984 -0.8224
  891MOL0     H20232  10.698   1.010   1.838  0.4358 -2.4032 -0.6797
  891MOL0     H20233  10.562   1.071   1.739  2.1333  2.0532  1.2520
  891MOL0     H20234  10.841   0.998   1.646  0.8530 -0.0870 -0.0609
  891MOL0     H20235  10.712   1.061   1.540  1.3976  1.4979 -0.4373
  891MOL0     H20236  10.635   1.324   1.588 -0.1177 -1.7389 -1.0496
  891MOL0     H20237  10.862   1.548   1.501  0.2879 -0.0256  0.8916
  891MOL0     H20238  10.713   1.576   1.598 -0.4602 -0.6309  0.1624
  891MOL0     H20239  10.867   1.673   1.777  2.2443  3.0118 -0.2614
  891MOL0     H20240  10.995   1.598   1.688 -0.0784 -0.9786 -0.8797
  891MOL0     H20241  10.875   1.857   1.674 -2.9178 -0.1798 -1.7345
  891MOL0     H20242  10.845   1.784   1.520 -0.8533 -0.8806  0.5910
  891MOL0     H20243  11.118   1.820   1.633 -0.9576  0.4026  1.3551
  891MOL0     H20244  11.039   1.922   1.502 -0.7400 -0.2800 -2.2562
  891MOL0     H20245  11.126   1.594   1.245  0.9872  1.0017 -2.7117
  891MOL0     H20246  11.359   1.510   1.176 -1.0790  0.8559 -0.7342
  891MOL0     H20247  11.849   1.483   1.217 -0.9397  1.0193 -0.8873
  891MOL0     H20248  12.092   1.502   1.201  0.8176 -0.1778  1.3448
  891MOL0     H20249  12.316   1.882   1.320 -0.2083  1.4532  2.6702
  891MOL0     H20250  12.241   1.785   1.445 -0.1815 -1.0172 -0.0194
  891MOL0     H20251  12.490   1.800   1.451 -0.8015  1.1386  1.4268
  891MOL0     H20252  12.417   1.633   1.459 -1.3760  0.1302 -1.6006
  891MOL0     H20253  12.452   1.619   1.201 -0.8359  0.1717 -0.3254
  891MOL0     H20254  12.568   1.750   1.224  1.5227 -1.0378  1.0883
  891MOL0     H20255  12.589   1.482   1.388 -0.9236  1.4935  1.7365
  891MOL0     H20256  12.707   1.608   1.372 -0.6464 -0.6286 -0.9390
  891MOL0     H20257  12.706   1.556   1.124 -1.6085  2.2964  2.3432
  891MOL0     H20258  12.611   1.411   1.154 -0.1356 -0.4202  1.7550
  891MOL0     H20259  12.878   1.469   1.290  0.0058 -1.6561  4.0858
  891MOL0     H20260  12.780   1.327   1.325 -1.2272 -1.5762 -2.9306
  891MOL0     H20261  12.945   1.400   1.081  1.5675 -1.8475 -0.1503
  891MOL0     H20262  12.816   1.284   1.057 -1.0925  1.6695 -1.2213
  891MOL0     H20263  12.918   1.134   1.228  2.1369 -1.2053  0.8954
  891MOL0     H20264  13.019   1.168   1.095  0.0672 -1.9568  0.6068
  891MOL0     H20265  12.090   1.899   1.338 -0.2588  0.3963  0.5049
  891MOL0     H20266  11.828   1.899   1.324 -4.4602 -2.8484 -0.1874
  891MOL0     H20267  11.528   1.784   1.473 -0.1721 -0.6724 -0.3171
  891MOL0     H20268  11.300   1.848   1.538  3.1760  2.4494 -2.4025
  891MOL0     H20269   9.885   0.624   1.947  2.6466  0.7652  0.7562
  891MOL0     H20270   9.668   0.553   2.032  1.2721  0.5146  1.2861
  891MOL0     H20271   9.282   0.309   1.945  2.9446 -0.2431 -1.2006
  891MOL0     H20272   9.083   0.190   1.987  0.5610  1.5123 -1.0625
  891MOL0     H20273   8.900   0.147   2.097 -0.6100  2.2533  0.3031
  891MOL0     H20274   8.953   0.196   2.255  0.8937  0.2240 -1.3210
  891MOL0     H20275   8.847   0.005   2.359  0.7406  2.8185  1.3761
  891MOL0     H20276   8.775  -0.038   2.202  1.4634  1.0624 -0.8196
  891MOL0     H20277   8.705   0.219   2.216  1.9546  0.9595  0.2885
  891MOL0     H20278   8.715   0.187   2.393 -0.2968  0.8822 -0.0825
  891MOL0     H20279   8.556  -0.013   2.224 -2.2814  1.2038 -0.9908
  891MOL0     H20280   8.536   0.013   2.397 -1.9993 -1.1558 -1.2696
  891MOL0     H20281   8.261   0.256   2.202 -0.1802  1.4948  1.0709
  891MOL0     H20282   9.259  -0.025   2.303 -1.7220  0.3397  0.4474
  891MOL0     H20283   9.491  -0.025   2.325  1.2311 -1.7029 -2.2085
  891MOL0     H20284   9.603   0.046   2.208  0.0500  1.7531 -0.1088
  891MOL0     H20285   9.544   0.150   2.329 -3.0178  0.4923  1.2064
  892MOL0     O20286   6.259  11.170  10.578  0.2432 -0.0249 -0.5096
  892MOL0     C20287   6.206  11.254  10.645  0.4005 -0.1987  0.2494
  892MOL0     O20288   6.266  11.349  10.719 -0.2928  0.4842  0.6076
  892MOL0     C20289   6.402  11.360  10.714 -0.3082  1.1648 -0.1375
  892MOL0     C20290   6.462  11.474  10.667 -0.1782 -0.4374 -0.2645
  892MOL0     C20291   6.605  11.489  10.650 -0.6893  0.2404 -0.7215
  892MOL0     C20292   6.685  11.394  10.699 -0.4543  0.1837 -0.1865
  892MOL0     O20293   6.822  11.404  10.692  0.4031  0.1508  0.5153
  892MOL0     C20294   6.901  11.521  10.653  0.4002  0.7676  0.1573
  892MOL0     C20295   7.054  11.472  10.665 -0.1259  0.1584 -0.2971
  892MOL0     C20296   7.158  11.582  10.636 -0.9958  0.5177 -0.4817
  892MOL0     C20297   7.289  11.503  10.637  0.3332 -0.2171 -0.2890
  892MOL0     C20298   7.411  11.592  10.599  0.3992 -0.6625 -0.1512
  892MOL0     C20299   7.494  11.538  10.475  0.0125 -1.0716 -0.8230
  892MOL0     C20300   7.575  11.649  10.425 -0.3144 -0.3018 -0.1328
  892MOL0     C20301   7.682  11.599  10.332  0.4909  0.4222  0.4455
  892MOL0     N20302   7.794  11.696  10.316 -0.0066  0.0765 -0.3667
  892MOL0     C20303   7.896  11.699  10.407 -0.1140 -0.2477  0.3613
  892MOL0     C20304   7.983  11.789  10.345  0.9870  0.3935 -0.5911
  892MOL0     C20305   8.124  11.808  10.411  0.2212 -0.2519 -0.5709
  892MOL0     C20306   8.180  11.939  10.363  0.2421  0.9509 -0.5539
  892MOL0     C20307   8.227  11.929  10.215 -0.3705  0.9649  0.0650
  892MOL0     C20308   8.340  12.030  10.189 -0.5602 -0.2045  0.3356
  892MOL0     O20309   8.299  12.169  10.224  0.2620 -0.6113  0.1419
  892MOL0     C20310   8.393  12.269  10.203  1.0389 -1.0200  0.1220
  892MOL0     C20311   8.525  12.251  10.171 -0.4979  0.1154  0.0552
  892MOL0     C20312   8.608  12.362  10.156  0.6978 -0.4519  0.0739
  892MOL0     C20313   8.557  12.495  10.176 -0.4578  0.1978 -0.2803
  892MOL0     C20314   8.642  12.617  10.166  0.3371 -0.5199 -0.4796
  892MOL0     O20315   8.593  12.745  10.191  0.4608  0.1731 -0.8895
  892MOL0     C20316   8.679  12.848  10.146 -0.1460  0.3280  0.4765
  892MOL0     C20317   8.708  12.946  10.241  0.4848  1.2551 -0.5603
  892MOL0     C20318   8.771  13.068  10.198  0.3888 -0.5832  0.4817
  892MOL0     C20319   8.793  13.096  10.064  0.7497  0.3310 -0.9114
  892MOL0     O20320   8.844  13.213  10.014  0.7685 -0.0377  0.4846
  892MOL0     C20321   8.966  13.253  10.077  0.1451 -0.0526  0.5676
  892MOL0     C20322   9.039  13.370  10.012  0.1943 -0.8640 -0.2942
  892MOL0     C20323   9.164  13.410  10.082  0.0451 -0.5136  0.9251
  892MOL0     C20324   9.217  13.534  10.008 -0.4238  0.5358  0.1042
  892MOL0     C20325   9.374  13.551  10.034 -0.6137 -0.2229  0.0096
  892MOL0     C20326   9.407  13.580  10.178 -0.1386 -0.0047  0.4188
  892MOL0     C20327   9.552  13.600  10.190 -0.2901  0.0076  0.0092
  892MOL0     C20328   9.578  13.675  10.315 -0.1501 -0.8457 -0.9057
  892MOL0    Cl20329   9.584  13.549  10.455  0.4697  0.0248 -0.0352
  892MOL0     C20330   8.774  12.993   9.977  0.3601 -0.0303 -0.4079
  892MOL0     C20331   8.725  12.866  10.013 -0.1192  0.1689 -0.9147
  892MOL0     O20332   8.758  12.599  10.136  0.6234  0.2383  0.6357
  892MOL0     C20333   8.419  12.510  10.213  0.1152  0.5632 -0.3399
  892MOL0     C20334   8.344  12.400  10.237  0.1153 -0.3064 -0.3659
  892MOL0     N20335   7.930  11.832  10.223 -0.7917 -0.6706 -0.5009
  892MOL0     N20336   7.814  11.772  10.205 -0.6538 -0.8778 -0.2647
  892MOL0     C20337   6.625  11.277  10.748 -0.4971 -0.1126 -0.4351
  892MOL0     C20338   6.488  11.258  10.753  0.9078  1.2779  0.7648
  892MOL0     C20339   6.058  11.233  10.653  0.4097 -0.1802  0.2835
  892MOL0     C20340   5.996  11.269  10.770  0.9640 -1.5323  0.6682
  892MOL0     C20341   5.858  11.263  10.800  0.2687  0.7570  0.4266
  892MOL0     C20342   5.784  11.197  10.695  0.7140 -1.2979 -0.1016
  892MOL0     O20343   5.647  11.169  10.708 -0.6387  0.0786 -0.5017
  892MOL0     C20344   5.578  11.203  10.831 -0.5886  0.4534 -0.7924
  892MOL0     C20345   5.428  11.178  10.826  0.0711 -0.1943  0.1328
  892MOL0     C20346   5.348  11.283  10.739  0.5864  1.0966 -0.3321
  892MOL0     C20347   5.193  11.265  10.758  0.4349 -0.7822  0.2902
  892MOL0     C20348   5.120  11.291  10.625  0.2075  0.1782 -0.2966
  892MOL0     C20349   5.057  11.302  10.520 -0.3785 -0.9452 -0.2464
  892MOL0     C20350   5.841  11.158  10.570  1.1560  0.4993 -0.0288
  892MOL0     C20351   5.979  11.183  10.553  0.5341 -0.1023 -0.6489
  892MOL0     C20352   6.032  11.124  10.423  0.3302  0.1954 -0.5657
  892MOL0     H20353   6.389  11.550  10.640 -1.0530 -1.7574 -1.7229
  892MOL0     H20354   6.637  11.581  10.604 -0.3477  0.9159  0.8205
  892MOL0     H20355   6.877  11.553  10.551  1.9737 -2.2479 -1.2907
  892MOL0     H20356   6.886  11.599  10.728  0.8451 -1.6043  2.9193
  892MOL0     H20357   7.068  11.382  10.604  0.6333  0.1142 -0.0723
  892MOL0     H20358   7.065  11.450  10.771  0.8990 -0.5483 -0.5308
  892MOL0     H20359   7.162  11.664  10.708 -0.4536  1.8058 -1.9399
  892MOL0     H20360   7.140  11.632  10.541 -1.3084 -0.9891 -1.2413
  892MOL0     H20361   7.305  11.471  10.740  0.3052  2.4919  0.6431
  892MOL0     H20362   7.296  11.410  10.579  0.7628  1.0677 -2.4313
  892MOL0     H20363   7.374  11.691  10.567  1.3450 -1.3075 -3.7143
  892MOL0     H20364   7.478  11.607  10.683  1.4657 -0.7704 -0.9617
  892MOL0     H20365   7.553  11.452  10.508 -2.4349 -2.3689  0.4446
  892MOL0     H20366   7.429  11.499  10.397 -0.7040 -1.4140 -0.0751
  892MOL0     H20367   7.617  11.701  10.511  0.8653 -1.2236 -0.1234
  892MOL0     H20368   7.525  11.729  10.369  3.6219  0.7712 -2.5126
  892MOL0     H20369   7.730  11.512  10.377  0.9717  0.8410  0.7519
  892MOL0     H20370   7.635  11.571  10.237  1.0411 -0.7796  0.5077
  892MOL0     H20371   7.903  11.637  10.496  1.8471 -1.9050 -0.8625
  892MOL0     H20372   8.120  11.807  10.521  0.3861 -2.5999 -0.5489
  892MOL0     H20373   8.187  11.725  10.378  0.4468 -0.9648  1.5061
  892MOL0     H20374   8.102  12.015  10.375 -1.5531 -0.9354  0.3351
  892MOL0     H20375   8.266  11.964  10.425  1.3062  0.5357 -1.7940
  892MOL0     H20376   8.150  11.962  10.146 -0.0403  1.2143 -0.1876
  892MOL0     H20377   8.265  11.833  10.177  2.8623  2.0078  0.3580
  892MOL0     H20378   8.363  12.032  10.082 -1.9103  0.8225  0.0319
  892MOL0     H20379   8.429  11.991  10.239  0.0417  0.1774 -0.4074
  892MOL0     H20380   8.566  12.151  10.157 -0.3770  0.2694 -0.7018
  892MOL0     H20381   8.713  12.353  10.131  0.7363  1.0387 -0.3769
  892MOL0     H20382   8.672  12.928  10.342  0.4645 -1.0514 -0.9347
  892MOL0     H20383   8.767  13.152  10.267 -2.4302 -0.2052 -0.0216
  892MOL0     H20384   8.943  13.290  10.178 -1.2840  1.4154 -0.2629
  892MOL0     H20385   9.032  13.165  10.075  0.8881  0.5074 -0.6343
  892MOL0     H20386   9.055  13.331   9.911 -0.6466  0.0762 -0.8071
  892MOL0     H20387   8.965  13.449  10.003  2.7397  1.7384  0.1328
  892MOL0     H20388   9.145  13.426  10.189 -5.1719  3.4374 -0.1451
  892MOL0     H20389   9.237  13.329  10.074  0.5239 -0.2754  2.5451
  892MOL0     H20390   9.164  13.626  10.032  0.3449  1.1195 -0.3787
  892MOL0     H20391   9.202  13.526   9.900  0.7811  0.7977 -0.1020
  892MOL0     H20392   9.413  13.635   9.976  1.0475 -1.5196 -0.8504
  892MOL0     H20393   9.432  13.465   9.999 -0.3095  0.1885 -0.5136
  892MOL0     H20394   9.357  13.673  10.205 -3.9024 -1.4724 -0.9071
  892MOL0     H20395   9.365  13.504  10.244  2.1177  0.7883  2.9531
  892MOL0     H20396   9.591  13.663  10.110  1.1376 -2.7065 -1.5659
  892MOL0     H20397   9.607  13.505  10.188  2.8087  1.6682 -0.7710
  892MOL0     H20398   9.666  13.740  10.315  0.1385 -1.1456 -3.0987
  892MOL0     H20399   9.500  13.749  10.334 -0.9724 -2.1595  1.1008
  892MOL0     H20400   8.801  12.994   9.871 -3.3722 -0.6668 -1.5188
  892MOL0     H20401   8.731  12.787   9.938 -2.4099  1.1232 -2.1906
  892MOL0     H20402   8.383  12.608  10.244  2.7500  2.4767 -2.7420
  892MOL0     H20403   8.256  12.407  10.300  1.6098 -0.6001  1.8962
  892MOL0     H20404   6.693  11.200  10.782 -2.6552 -1.8630  0.1921
  892MOL0     H20405   6.445  11.165  10.790  1.8130 -0.0288 -1.2521
  892MOL0     H20406   6.051  11.325  10.845  0.4865 -0.9199  0.5745
  892MOL0     H20407   5.808  11.299  10.889 -0.8172 -0.3280  0.2894
  892MOL0     H20408   5.591  11.311  10.850 -0.4823  0.1911  0.7980
  892MOL0     H20409   5.614  11.143  10.915 -1.4316 -0.8286 -1.3170
  892MOL0     H20410   5.388  11.187  10.928 -0.3164  1.0349 -0.1002
  892MOL0     H20411   5.412  11.077  10.789 -0.5862 -0.4768  1.1297
  892MOL0     H20412   5.371  11.272  10.633  1.1163 -1.9546  0.0102
  892MOL0     H20413   5.374  11.383  10.776  1.9087  0.1692  1.4199
  892MOL0     H20414   5.182  11.159  10.780 -1.0705 -0.5040  1.0451
  892MOL0     H20415   5.151  11.324  10.840  0.3939  0.7318 -0.7749
  892MOL0     H20416   5.007  11.312  10.426 -1.8493 -0.3845  0.5671
  892MOL0     H20417   5.785  11.113  10.489  1.0472 -1.1402  0.9089
  892MOL0     H20418   6.078  11.027  10.444  1.3196 -0.2422 -4.0809
  892MOL0     H20419   5.955  11.105  10.348  0.8363 -1.8913 -0.6086
  892MOL0     H20420   6.111  11.191  10.386  0.4113  0.0930 -0.5791
  893MOL0     O20421   3.348   5.591   4.444  0.2515  0.2946 -0.3880
  893MOL0     C20422   3.336   5.572   4.568  0.8222  0.1822  0.5670
  893MOL0     O20423   3.435   5.552   4.659 -0.0503 -0.5935 -0.5704
  893MOL0     C20424   3.558   5.579   4.611  0.4237  0.4170  0.4378
  893MOL0     C20425   3.637   5.463   4.566 -0.9853  0.5851 -0.5851
  893MOL0     C20426   3.752   5.484   4.492  0.3662  0.3566 -0.0560
  893MOL0     C20427   3.789   5.617   4.453  0.2052 -0.1762 -0.0590
  893MOL0     O20428   3.896   5.651   4.367  0.0200 -0.2522 -0.3112
  893MOL0     C20429   3.994   5.550   4.332  0.8609 -0.0717  0.4848
  893MOL0     C20430   4.082   5.601   4.217 -0.4976  0.0550  0.0785
  893MOL0     C20431   4.225   5.647   4.260 -0.4089  0.2875 -0.0866
  893MOL0     C20432   4.291   5.744   4.157 -0.3675  0.5310  0.1236
  893MOL0     C20433   4.440   5.790   4.188  0.5215 -0.1827 -0.2614
  893MOL0     C20434   4.446   5.899   4.301  0.7193 -0.8170  0.0558
  893MOL0     C20435   4.596   5.941   4.327  0.3856 -1.2706 -0.9205
  893MOL0     C20436   4.613   6.059   4.428  0.2909  0.4379 -0.5603
  893MOL0     N20437   4.541   6.038   4.555  0.5993 -0.3565  0.7233
  893MOL0     C20438   4.462   6.137   4.610  0.5573 -0.1750  0.3654
  893MOL0     C20439   4.430   6.079   4.732 -0.0718  0.2475 -0.5115
  893MOL0     C20440   4.369   6.134   4.853 -0.0155  0.1586  0.8713
  893MOL0     C20441   4.463   6.144   4.974  0.7150  0.2692 -0.3674
  893MOL0     C20442   4.386   6.183   5.103 -0.0979  0.1583  0.0899
  893MOL0     C20443   4.303   6.314   5.110  0.3644 -0.4696 -0.0535
  893MOL0     O20444   4.181   6.286   5.033 -0.0668  0.4463 -0.5593
  893MOL0     C20445   4.064   6.263   5.092  0.6998 -0.7491 -0.1062
  893MOL0     C20446   4.017   6.299   5.221 -0.1980  0.0903 -1.1743
  893MOL0     C20447   3.889   6.264   5.265  0.1905 -0.8514  0.1784
  893MOL0     C20448   3.799   6.190   5.184  0.1914  0.0201  0.5039
  893MOL0     C20449   3.669   6.162   5.239  0.5867  0.3294  0.3571
  893MOL0     O20450   3.637   6.219   5.357  0.5198  0.5228  0.4016
  893MOL0     C20451   3.513   6.194   5.405  0.6685 -1.1041  0.3855
  893MOL0     C20452   3.494   6.096   5.491 -0.6421  0.3056 -0.6914
  893MOL0     C20453   3.368   6.068   5.538 -0.4390 -0.6671  0.0855
  893MOL0     C20454   3.252   6.138   5.509 -0.3060  0.7151 -0.5366
  893MOL0     O20455   3.129   6.124   5.574  0.0271 -0.4098  0.0122
  893MOL0     C20456   3.129   6.018   5.678 -0.2527  0.4518  0.1853
  893MOL0     C20457   2.999   6.024   5.759 -0.4121 -0.2570  0.1132
  893MOL0     C20458   2.959   5.897   5.840  0.0784  0.0952 -0.0457
  893MOL0     C20459   2.808   5.892   5.864  0.4680 -0.4550 -0.1787
  893MOL0     C20460   2.760   5.766   5.931  0.6242  0.0466 -0.4270
  893MOL0     C20461   2.818   5.737   6.072 -0.2309 -0.4019 -0.2630
  893MOL0     C20462   2.815   5.858   6.169  0.6520  0.1208 -0.6442
  893MOL0     C20463   2.865   5.834   6.315 -0.3173 -0.0399  0.0548
  893MOL0    Cl20464   3.036   5.865   6.315 -0.2922 -0.4645  0.5281
  893MOL0     C20465   3.271   6.252   5.428 -0.6698  0.2762  1.1272
  893MOL0     C20466   3.404   6.280   5.375 -0.6785 -0.5352 -0.5542
  893MOL0     O20467   3.593   6.097   5.165  0.2553 -0.3219  0.1518
  893MOL0     C20468   3.845   6.153   5.055  0.5759  0.8687 -0.9150
  893MOL0     C20469   3.974   6.190   5.015  0.1330  0.3874  0.6173
  893MOL0     N20470   4.480   5.953   4.735 -0.4109 -0.3363  0.5207
  893MOL0     N20471   4.554   5.926   4.630  0.2961  0.5817 -0.0047
  893MOL0     C20472   3.710   5.724   4.494  0.5330 -0.2479  1.0749
  893MOL0     C20473   3.600   5.708   4.569 -0.6276  0.5265 -0.4477
  893MOL0     C20474   3.202   5.564   4.627 -0.2302  0.9476  0.2744
  893MOL0     C20475   3.175   5.438   4.689 -0.0437 -0.1289  0.5772
  893MOL0     C20476   3.058   5.427   4.757 -0.9529 -0.1297  0.6874
  893MOL0     C20477   2.974   5.543   4.772 -0.5506  0.7047  0.0527
  893MOL0     O20478   2.855   5.551   4.838 -0.5420  0.1822 -0.0315
  893MOL0     C20479   2.800   5.442   4.906 -0.6512  0.2229 -0.2481
  893MOL0     C20480   2.665   5.484   4.981  0.1781 -0.2356  0.1742
  893MOL0     C20481   2.544   5.508   4.884 -0.7592 -0.2656 -0.1925
  893MOL0     C20482   2.437   5.579   4.963 -0.0248 -0.8475 -0.7629
  893MOL0     C20483   2.326   5.588   4.869  0.7814  0.3494  0.4949
  893MOL0     C20484   2.222   5.586   4.807 -0.2373  0.8313  0.6132
  893MOL0     C20485   3.002   5.661   4.708 -0.1578 -0.4833  0.5928
  893MOL0     C20486   3.112   5.671   4.628 -1.1550 -0.0842  0.7613
  893MOL0     C20487   3.156   5.807   4.567 -0.2451 -0.6118  0.0999
  893MOL0     H20488   3.619   5.361   4.598  1.6573  0.6260  1.3564
  893MOL0     H20489   3.812   5.399   4.465 -0.5111 -0.4404  0.4347
  893MOL0     H20490   4.070   5.520   4.405  1.7294  1.4104  0.2272
  893MOL0     H20491   3.936   5.461   4.306  0.3477 -0.0093  1.3657
  893MOL0     H20492   4.035   5.687   4.169 -0.7300  0.3866  0.8993
  893MOL0     H20493   4.095   5.515   4.150  1.1723  0.1986  0.1588
  893MOL0     H20494   4.298   5.566   4.261 -2.2977 -1.5902  3.4244
  893MOL0     H20495   4.217   5.692   4.359 -1.0504  0.3575 -0.1641
  893MOL0     H20496   4.291   5.703   4.055 -0.9642  1.4210 -0.2549
  893MOL0     H20497   4.231   5.836   4.149 -0.5242  0.4160 -0.0236
  893MOL0     H20498   4.497   5.699   4.208 -1.0980 -1.0048  0.8174
  893MOL0     H20499   4.477   5.840   4.097 -2.3906  3.9592  0.5475
  893MOL0     H20500   4.377   5.981   4.284  1.4466 -0.3924 -0.9280
  893MOL0     H20501   4.411   5.845   4.390  3.7741 -3.6647 -0.2329
  893MOL0     H20502   4.648   5.982   4.239 -1.7676 -2.3921 -2.8347
  893MOL0     H20503   4.651   5.853   4.361  0.4033 -1.4399 -1.3754
  893MOL0     H20504   4.719   6.074   4.448  0.4658  2.3981 -2.5970
  893MOL0     H20505   4.579   6.147   4.373 -2.2882 -1.4481 -2.2977
  893MOL0     H20506   4.435   6.236   4.574 -3.9886 -1.0508  0.8108
  893MOL0     H20507   4.335   6.235   4.830 -1.7505 -0.1578  1.8937
  893MOL0     H20508   4.287   6.065   4.872 -0.6731  0.7016  0.0623
  893MOL0     H20509   4.510   6.045   4.985  0.5616  0.1779 -0.5417
  893MOL0     H20510   4.533   6.225   4.951  1.0396  0.6543  1.7842
  893MOL0     H20511   4.467   6.191   5.177 -0.4941 -0.3197  0.5881
  893MOL0     H20512   4.324   6.100   5.139  1.9575 -1.2862  0.4832
  893MOL0     H20513   4.366   6.398   5.078 -0.4469  0.1205 -0.1243
  893MOL0     H20514   4.280   6.339   5.214  1.2195  1.2869 -0.2476
  893MOL0     H20515   4.069   6.366   5.288 -1.0720 -1.7804  1.5540
  893MOL0     H20516   3.860   6.303   5.362  0.9914  1.5622 -0.4843
  893MOL0     H20517   3.579   6.035   5.519 -1.5764 -0.4067  0.6836
  893MOL0     H20518   3.371   5.990   5.613  3.8437 -0.3494  0.5161
  893MOL0     H20519   3.140   5.918   5.633  0.1441 -0.1356  1.5274
  893MOL0     H20520   3.211   6.035   5.749  0.1163  3.1588 -0.7788
  893MOL0     H20521   3.010   6.110   5.825  2.8517  1.7203 -2.6959
  893MOL0     H20522   2.924   6.054   5.686  1.3228  1.4871 -1.0668
  893MOL0     H20523   2.997   5.811   5.783 -1.4224  0.5245 -1.8007
  893MOL0     H20524   3.009   5.896   5.937 -1.1292  1.6684  0.6377
  893MOL0     H20525   2.758   5.891   5.767  0.2252  1.1215 -0.1035
  893MOL0     H20526   2.774   5.982   5.918 -1.1235 -1.1442  0.0252
  893MOL0     H20527   2.764   5.680   5.865 -3.6017 -0.3151 -0.5330
  893MOL0     H20528   2.653   5.776   5.954  1.2374  0.4154  2.8668
  893MOL0     H20529   2.760   5.658   6.121 -1.2865  0.2532 -0.4212
  893MOL0     H20530   2.923   5.709   6.057 -0.1393  0.5928 -1.6346
  893MOL0     H20531   2.722   5.914   6.154 -0.4094 -1.4047 -0.0094
  893MOL0     H20532   2.887   5.931   6.130  0.2920  0.0459 -1.4669
  893MOL0     H20533   2.825   5.911   6.382  0.7467 -0.6503  1.4669
  893MOL0     H20534   2.843   5.734   6.354 -0.9438 -2.0538 -4.8025
  893MOL0     H20535   3.188   6.319   5.410 -0.8453  0.0256  0.9993
  893MOL0     H20536   3.407   6.374   5.321  1.2794 -0.9981 -1.3444
  893MOL0     H20537   3.790   6.078   4.999  0.7467 -0.8859  1.1499
  893MOL0     H20538   4.014   6.157   4.920  1.1323  2.3201  0.3147
  893MOL0     H20539   3.733   5.825   4.461 -2.5291 -0.0154 -0.7303
  893MOL0     H20540   3.535   5.793   4.588  0.3693  1.0572  0.7828
  893MOL0     H20541   3.238   5.349   4.692  0.8279  0.3469 -1.5419
  893MOL0     H20542   3.036   5.325   4.787 -1.5967 -0.3463 -0.4703
  893MOL0     H20543   2.872   5.409   4.982  0.5774 -2.4233 -2.4089
  893MOL0     H20544   2.780   5.354   4.844 -4.2643 -0.0341  1.0146
  893MOL0     H20545   2.682   5.573   5.041 -1.7914  0.0837  0.3461
  893MOL0     H20546   2.647   5.404   5.054 -2.2073  0.1528  0.1015
  893MOL0     H20547   2.514   5.414   4.838  0.6129 -0.5425 -0.5748
  893MOL0     H20548   2.574   5.571   4.800  2.0545  1.4913  1.9254
  893MOL0     H20549   2.402   5.509   5.039 -1.5868  0.1272 -0.5285
  893MOL0     H20550   2.461   5.674   5.011 -1.3238 -1.9279  2.2578
  893MOL0     H20551   2.134   5.598   4.747 -1.1444  1.3983  1.9884
  893MOL0     H20552   2.933   5.745   4.718 -1.7089 -1.5482 -0.7076
  893MOL0     H20553   3.071   5.875   4.580  0.1838  0.1669 -0.9702
  893MOL0     H20554   3.242   5.853   4.617 -0.9256 -0.0027  0.7412
  893MOL0     H20555   3.171   5.788   4.460  0.9964 -0.4237  0.2329
  894MOL0     O20556   1.751   9.891   4.279  0.2675 -0.1142  0.5333
  894MOL0     C20557   1.766   9.795   4.203 -0.0942  1.0313  0.1617
  894MOL0     O20558   1.888   9.747   4.173  0.1792  0.2707  0.3063
  894MOL0     C20559   1.988   9.757   4.269  0.5948  0.2671  0.3782
  894MOL0     C20560   2.036   9.639   4.332 -0.0688 -0.5339 -0.0080
  894MOL0     C20561   2.147   9.643   4.414 -0.9309 -0.4324  0.6177
  894MOL0     C20562   2.215   9.764   4.433 -0.4183 -0.1274  0.3304
  894MOL0     O20563   2.308   9.771   4.531 -0.1960  0.2432  0.0766
  894MOL0     C20564   2.341   9.899   4.584 -0.1909 -0.5556 -0.0072
  894MOL0     C20565   2.456   9.890   4.687 -0.3170  0.3489  0.2666
  894MOL0     C20566   2.590   9.875   4.620  0.0081  0.4019  0.5102
  894MOL0     C20567   2.614   9.736   4.560 -0.2365 -0.0193 -0.0706
  894MOL0     C20568   2.750   9.697   4.512 -0.1786  0.0552  0.1314
  894MOL0     C20569   2.862   9.770   4.584 -0.5036 -0.0263 -0.0048
  894MOL0     C20570   3.001   9.695   4.563  0.1538  0.2113 -0.3174
  894MOL0     C20571   3.107   9.794   4.604  1.1149 -0.3463 -1.0841
  894MOL0     N20572   3.233   9.754   4.548 -0.0016 -0.0644  0.1403
  894MOL0     C20573   3.305   9.645   4.582 -0.3837 -0.3178  0.0415
  894MOL0     C20574   3.410   9.649   4.496 -0.9496 -0.4287  0.1244
  894MOL0     C20575   3.533   9.560   4.504  0.7721  0.2535 -0.0189
  894MOL0     C20576   3.659   9.622   4.557  0.0089 -0.7823  0.5965
  894MOL0     C20577   3.761   9.518   4.603  0.0712 -0.4613  0.6084
  894MOL0     C20578   3.904   9.575   4.600  0.6858  0.5822  0.6583
  894MOL0     O20579   3.940   9.681   4.687  0.1133 -0.1699 -0.9077
  894MOL0     C20580   4.064   9.740   4.675  0.5225  0.3253 -0.0308
  894MOL0     C20581   4.141   9.753   4.793 -0.9287  0.2231 -0.5494
  894MOL0     C20582   4.271   9.804   4.770 -0.1837 -0.4081 -0.0731
  894MOL0     C20583   4.322   9.846   4.646 -0.2559 -0.2328  0.3954
  894MOL0     C20584   4.463   9.903   4.637  0.0333  0.2884  0.2756
  894MOL0     O20585   4.509   9.946   4.518  0.5448  0.4520  1.0899
  894MOL0     C20586   4.633  10.001   4.520  0.8290  0.3879 -0.5739
  894MOL0     C20587   4.648  10.138   4.556  0.3983  0.7214 -0.0922
  894MOL0     C20588   4.770  10.202   4.558 -0.0760  0.1630  0.5324
  894MOL0     C20589   4.877  10.134   4.503 -0.2684 -0.1465  0.3719
  894MOL0     O20590   5.005  10.192   4.501  0.2677  0.1469 -0.5009
  894MOL0     C20591   5.004  10.317   4.436 -0.2781  0.7264 -0.6825
  894MOL0     C20592   5.147  10.372   4.442  0.8010  0.3057  0.2558
  894MOL0     C20593   5.241  10.267   4.370 -0.3656 -0.3150  0.1291
  894MOL0     C20594   5.339  10.349   4.282 -0.2901 -0.5193 -0.1812
  894MOL0     C20595   5.466  10.273   4.240  0.2899  0.9681  0.3750
  894MOL0     C20596   5.458  10.137   4.170  0.2340  0.1270 -0.1055
  894MOL0     C20597   5.370  10.155   4.046  0.2498  0.6190  0.2567
  894MOL0     C20598   5.369  10.013   3.976 -0.3408 -0.2924 -0.2869
  894MOL0    Cl20599   5.285  10.015   3.822  0.3559  0.4617 -0.0281
  894MOL0     C20600   4.868  10.000   4.469 -1.1115  0.5453  0.2649
  894MOL0     C20601   4.750   9.929   4.481 -0.7207 -0.8691  0.7327
  894MOL0     O20602   4.528   9.897   4.737  0.3926 -0.5103 -0.6762
  894MOL0     C20603   4.242   9.831   4.535 -0.5144 -1.0114  0.5658
  894MOL0     C20604   4.109   9.780   4.549 -0.4740 -0.1194 -0.0879
  894MOL0     N20605   3.390   9.749   4.406  0.3814 -0.3822 -0.1345
  894MOL0     N20606   3.286   9.812   4.437 -0.3958 -0.9719  0.4718
  894MOL0     C20607   2.166   9.880   4.368  0.0571 -0.0654 -0.2382
  894MOL0     C20608   2.054   9.877   4.288  0.8525  0.7120 -0.2526
  894MOL0     C20609   1.654   9.723   4.135  0.0020 -0.4393 -0.6828
  894MOL0     C20610   1.671   9.588   4.094  0.5084  0.1259  0.0780
  894MOL0     C20611   1.557   9.514   4.059 -0.2809 -0.6185  0.0678
  894MOL0     C20612   1.434   9.573   4.034 -0.7112 -0.5500 -0.6765
  894MOL0     O20613   1.323   9.507   3.989 -0.0877  0.1847  0.3961
  894MOL0     C20614   1.323   9.360   3.987  0.5579 -0.1223  0.7485
  894MOL0     C20615   1.193   9.294   3.937  0.2807 -1.0580  0.3850
  894MOL0     C20616   1.107   9.356   3.828 -0.0474  0.7960 -1.5958
  894MOL0     C20617   0.970   9.297   3.825 -0.1723 -0.2849 -0.6020
  894MOL0     C20618   0.895   9.340   3.707 -0.1715  0.0076 -0.1868
  894MOL0     C20619   0.844   9.397   3.612 -0.7262  0.0001  0.3304
  894MOL0     C20620   1.417   9.709   4.048 -0.1207 -1.1776  0.4045
  894MOL0     C20621   1.528   9.783   4.099  0.7934 -0.1585 -0.1864
  894MOL0     C20622   1.512   9.931   4.091 -0.6848 -0.2738 -0.7139
  894MOL0     H20623   1.991   9.541   4.324 -2.2553  0.4413 -0.3850
  894MOL0     H20624   2.188   9.557   4.465  2.1420  1.9613  2.6004
  894MOL0     H20625   2.374   9.970   4.507  0.4841 -1.0048 -0.1397
  894MOL0     H20626   2.252   9.939   4.633 -0.3566 -0.1615 -0.6160
  894MOL0     H20627   2.449   9.801   4.751  1.2303 -1.5224 -2.0052
  894MOL0     H20628   2.461   9.976   4.754  2.2556  2.1501 -2.0203
  894MOL0     H20629   2.664   9.879   4.700 -0.0889 -1.8006  0.7848
  894MOL0     H20630   2.601   9.948   4.539  0.3772  0.0824  0.2702
  894MOL0     H20631   2.591   9.670   4.643 -0.7546  0.1639 -0.0661
  894MOL0     H20632   2.542   9.728   4.478 -1.1191  1.0710  0.5622
  894MOL0     H20633   2.771   9.590   4.527  1.8217  0.2725 -0.7179
  894MOL0     H20634   2.753   9.723   4.406  0.4351 -1.8961 -0.3655
  894MOL0     H20635   2.867   9.874   4.549 -2.3585 -0.3768 -1.5288
  894MOL0     H20636   2.856   9.777   4.693  1.3515  0.1967  0.1064
  894MOL0     H20637   3.007   9.666   4.458 -1.4327 -0.9288 -0.1168
  894MOL0     H20638   3.015   9.608   4.627  2.1245 -0.2869 -1.3279
  894MOL0     H20639   3.087   9.896   4.569 -3.7876  0.1724  2.1623
  894MOL0     H20640   3.108   9.797   4.714  0.9321 -1.2424 -1.0553
  894MOL0     H20641   3.295   9.581   4.670 -1.0296  0.2035  0.3527
  894MOL0     H20642   3.513   9.477   4.572  3.3467 -0.4409  0.0032
  894MOL0     H20643   3.551   9.515   4.406 -0.9496 -0.5968  0.0203
  894MOL0     H20644   3.688   9.687   4.474 -4.0313 -0.3313 -0.7254
  894MOL0     H20645   3.630   9.686   4.640  1.6808  0.1997  0.4571
  894MOL0     H20646   3.754   9.437   4.530 -0.1291  1.2290 -1.3143
  894MOL0     H20647   3.730   9.484   4.703  1.4358 -1.6567  0.6579
  894MOL0     H20648   3.932   9.594   4.495 -1.2962  2.0909  0.3391
  894MOL0     H20649   3.966   9.487   4.621  1.9737  0.6524 -2.3081
  894MOL0     H20650   4.103   9.728   4.891  1.0950 -0.3827  0.1378
  894MOL0     H20651   4.336   9.814   4.856 -0.0803  0.8760 -0.2810
  894MOL0     H20652   4.563  10.180   4.609 -0.9815 -2.8040  0.7941
  894MOL0     H20653   4.784  10.303   4.593  1.8733  0.1285 -0.0237
  894MOL0     H20654   4.976  10.299   4.331  3.2050 -1.8206 -1.3564
  894MOL0     H20655   4.933  10.383   4.487  0.1774  0.8103 -0.1602
  894MOL0     H20656   5.149  10.469   4.391 -3.7792  1.3996  1.6734
  894MOL0     H20657   5.182  10.384   4.544  2.0021 -0.0639 -0.0976
  894MOL0     H20658   5.301  10.213   4.444  1.7546  0.6870 -0.7807
  894MOL0     H20659   5.183  10.193   4.315 -1.2711 -0.1270  0.8144
  894MOL0     H20660   5.376  10.431   4.345  0.7072 -1.4172  0.4376
  894MOL0     H20661   5.278  10.387   4.200 -2.6911 -0.0687  1.6869
  894MOL0     H20662   5.517  10.255   4.335  1.3191  0.8733 -0.1780
  894MOL0     H20663   5.530  10.333   4.176  2.7585 -0.9801  0.8486
  894MOL0     H20664   5.555  10.107   4.129 -0.1777 -0.1079 -0.9409
  894MOL0     H20665   5.423  10.058   4.237 -0.3613  0.5106  0.0390
  894MOL0     H20666   5.401  10.234   3.977 -0.2714 -1.2169 -2.2452
  894MOL0     H20667   5.266  10.165   4.077 -1.2825  0.5602 -4.1867
  894MOL0     H20668   5.472   9.982   3.958 -0.5399 -0.2881 -1.5813
  894MOL0     H20669   5.325   9.944   4.049  2.3634  0.0008  1.7627
  894MOL0     H20670   4.958   9.946   4.442 -0.9259  1.4808 -1.1252
  894MOL0     H20671   4.732   9.823   4.460 -1.9902 -0.4394 -0.5316
  894MOL0     H20672   4.274   9.857   4.435  0.5162 -0.4699  1.0229
  894MOL0     H20673   4.049   9.767   4.460 -0.9425 -1.3123  0.3863
  894MOL0     H20674   2.228   9.969   4.367  2.5582 -1.6537  1.3399
  894MOL0     H20675   2.025   9.969   4.240 -1.3339  0.2480  0.0459
  894MOL0     H20676   1.766   9.540   4.113 -0.8550 -1.9278  2.3320
  894MOL0     H20677   1.565   9.408   4.038  0.6554 -0.9262  1.8669
  894MOL0     H20678   1.348   9.324   4.087 -2.0465  0.1912  1.5942
  894MOL0     H20679   1.392   9.321   3.911 -2.1476  0.1060 -2.0367
  894MOL0     H20680   1.131   9.297   4.027 -0.9749 -0.9236 -0.4582
  894MOL0     H20681   1.205   9.186   3.922  0.4938 -0.9586 -0.1911
  894MOL0     H20682   1.159   9.337   3.733  3.1095 -2.3508  0.5470
  894MOL0     H20683   1.103   9.462   3.854  1.2258  0.1037  1.8654
  894MOL0     H20684   0.978   9.187   3.825 -1.0973 -0.4142  2.2923
  894MOL0     H20685   0.919   9.325   3.917  0.1138  0.7572 -0.7561
  894MOL0     H20686   0.785   9.435   3.531  0.9425 -0.6002 -1.2350
  894MOL0     H20687   1.328   9.759   4.012  2.6760  1.4618 -3.8060
  894MOL0     H20688   1.568   9.965   4.004 -1.5109  0.8263 -0.8353
  894MOL0     H20689   1.407   9.963   4.097 -1.1467 -1.3491 -2.3125
  894MOL0     H20690   1.553   9.986   4.176 -1.8245 -1.0510  0.3836
  895MOL0     O20691   8.984   9.427   1.484 -0.2396  0.2217  0.7209
  895MOL0     C20692   9.089   9.474   1.442  0.6208 -1.1763  0.3164
  895MOL0     O20693   9.115   9.612   1.421 -0.1655 -0.7674 -0.2705
  895MOL0     C20694   9.030   9.705   1.476 -0.2638 -0.3013  0.7121
  895MOL0     C20695   9.076   9.755   1.594  0.2464 -0.0217  0.7203
  895MOL0     C20696   8.992   9.837   1.672 -0.1305  0.5968 -0.4207
  895MOL0     C20697   8.864   9.879   1.629 -0.4903 -0.4386 -1.1314
  895MOL0     O20698   8.786   9.970   1.701  0.1767  0.6369 -0.5234
  895MOL0     C20699   8.674   9.911   1.768 -1.1683  0.2421 -0.5943
  895MOL0     C20700   8.642   9.996   1.890  0.3283  0.0028  0.9395
  895MOL0     C20701   8.566  10.129   1.848  0.6876 -0.2636  0.2111
  895MOL0     C20702   8.564  10.234   1.956 -0.4096 -0.1404 -0.4373
  895MOL0     C20703   8.458  10.346   1.951  0.0746  0.3252  0.5472
  895MOL0     C20704   8.454  10.411   1.810 -0.0417 -0.2006  0.2626
  895MOL0     C20705   8.353  10.345   1.710  0.8984  0.4607 -0.4089
  895MOL0     C20706   8.339  10.420   1.574  0.6406 -0.2077 -0.0401
  895MOL0     N20707   8.464  10.450   1.511 -0.0810  0.1752 -0.1181
  895MOL0     C20708   8.555  10.358   1.455  0.4087  0.4119 -0.1246
  895MOL0     C20709   8.653  10.429   1.405 -0.2059  0.8121  0.2930
  895MOL0     C20710   8.781  10.373   1.350 -0.3940  0.5958  0.2938
  895MOL0     C20711   8.880  10.489   1.313  0.6196  0.3382 -0.2572
  895MOL0     C20712   9.017  10.437   1.286 -0.5665 -0.4700 -0.1413
  895MOL0     C20713   9.112  10.551   1.233 -0.0417  0.8849 -0.0513
  895MOL0     O20714   9.245  10.499   1.236  0.2443 -0.3163 -0.2390
  895MOL0     C20715   9.343  10.582   1.188 -0.7480 -0.0035  0.8203
  895MOL0     C20716   9.336  10.685   1.102  0.2496 -0.8124  0.9254
  895MOL0     C20717   9.448  10.732   1.034 -0.3560  0.1787  0.8959
  895MOL0     C20718   9.577  10.687   1.073  0.5297  0.0283  0.7640
  895MOL0     C20719   9.699  10.731   1.003 -0.1154 -0.0445 -0.1513
  895MOL0     O20720   9.670  10.798   0.880 -0.0592  0.4054 -0.7996
  895MOL0     C20721   9.772  10.863   0.810 -0.2192 -0.1988  0.3614
  895MOL0     C20722   9.748  10.912   0.687 -1.1171  0.3041  0.0374
  895MOL0     C20723   9.846  10.974   0.607  0.7781 -0.7650 -0.8489
  895MOL0     C20724   9.967  10.992   0.662  0.4737  0.2941  0.6638
  895MOL0     O20725  10.059  11.042   0.578 -0.0108 -1.0871 -0.1468
  895MOL0     C20726  10.196  11.024   0.604 -0.3191  0.5890 -0.6507
  895MOL0     C20727  10.280  11.128   0.531  0.1298  0.2580 -0.5103
  895MOL0     C20728  10.433  11.095   0.509  0.1522  0.0237 -0.8107
  895MOL0     C20729  10.491  11.220   0.440 -0.1152 -0.5359  0.3874
  895MOL0     C20730  10.642  11.204   0.400  1.0395 -0.5447 -1.0928
  895MOL0     C20731  10.703  11.326   0.322  0.7020  0.0825 -0.8089
  895MOL0     C20732  10.845  11.309   0.272 -0.2163 -0.7898  0.2784
  895MOL0     C20733  10.896  11.417   0.182  0.0734  0.0176  0.5654
  895MOL0    Cl20734  11.069  11.363   0.149  0.3949  0.0789 -0.0579
  895MOL0     C20735   9.980  10.981   0.796 -0.8791  0.6993  0.0618
  895MOL0     C20736   9.892  10.912   0.873  0.5246 -0.6513  0.5784
  895MOL0     O20737   9.803  10.684   1.039 -0.2603  0.3827 -0.0423
  895MOL0     C20738   9.587  10.584   1.168  0.1869 -1.4298  0.0871
  895MOL0     C20739   9.469  10.533   1.216 -0.2152  0.5996  0.3471
  895MOL0     N20740   8.625  10.562   1.433 -0.0205  0.6554 -0.6830
  895MOL0     N20741   8.517  10.577   1.497  0.4530  0.0512 -0.0294
  895MOL0     C20742   8.819   9.819   1.509 -0.0398  1.0241 -0.2842
  895MOL0     C20743   8.906   9.737   1.438  0.8344  0.7842 -1.2535
  895MOL0     C20744   9.189   9.378   1.388 -0.7571 -0.4616 -0.5678
  895MOL0     C20745   9.260   9.414   1.271 -0.0872 -0.3668  0.0665
  895MOL0     C20746   9.356   9.329   1.220 -0.2381 -0.6829  1.2776
  895MOL0     C20747   9.385   9.208   1.281 -0.2250 -0.8198  0.2010
  895MOL0     O20748   9.478   9.123   1.231 -0.0970 -0.2159 -0.3867
  895MOL0     C20749   9.493   9.121   1.085 -0.2384  0.6405 -0.1466
  895MOL0     C20750   9.580   9.002   1.053  0.6012  0.4415  0.0465
  895MOL0     C20751   9.714   9.016   1.115  0.1637 -0.2685  0.2838
  895MOL0     C20752   9.815   8.934   1.039 -0.4266  0.9522 -0.6759
  895MOL0     C20753   9.788   8.788   1.031  1.3022  0.0733 -0.0493
  895MOL0     C20754   9.732   8.678   1.022  0.6435  0.4762  0.5681
  895MOL0     C20755   9.327   9.176   1.402 -0.0970 -0.2089  0.0700
  895MOL0     C20756   9.235   9.264   1.460  0.1604 -0.0481 -0.0710
  895MOL0     C20757   9.181   9.218   1.593  0.5811  0.7907  0.2234
  895MOL0     H20758   9.173   9.746   1.642  0.3427  1.0403  0.7462
  895MOL0     H20759   9.029   9.881   1.764 -0.9749 -0.6343  0.5267
  895MOL0     H20760   8.597   9.896   1.692 -0.4605 -2.1380 -0.9085
  895MOL0     H20761   8.696   9.809   1.799  3.0129  1.5849  1.6419
  895MOL0     H20762   8.722  10.005   1.964 -2.1627 -0.4240  3.9168
  895MOL0     H20763   8.568   9.937   1.946  0.0773  0.9617  1.6462
  895MOL0     H20764   8.466  10.091   1.823 -0.1417 -1.8582  4.9247
  895MOL0     H20765   8.606  10.171   1.755 -1.8368 -1.0942 -1.3414
  895MOL0     H20766   8.543  10.172   2.044 -1.8737 -0.1856 -0.7869
  895MOL0     H20767   8.657  10.291   1.962  0.7733 -2.0078 -0.1909
  895MOL0     H20768   8.357  10.311   1.973 -0.9122  1.6782 -1.4686
  895MOL0     H20769   8.485  10.419   2.027  1.2112  0.8871 -0.3557
  895MOL0     H20770   8.414  10.511   1.829  0.6031 -0.1476  1.4327
  895MOL0     H20771   8.552  10.411   1.762 -0.7196  0.9674 -1.2077
  895MOL0     H20772   8.251  10.322   1.744  1.9192  0.7553  3.3050
  895MOL0     H20773   8.404  10.253   1.681  1.7553  0.9531 -0.4954
  895MOL0     H20774   8.275  10.373   1.499 -1.4030  4.6751 -1.7425
  895MOL0     H20775   8.277  10.509   1.586 -1.6530 -1.4472 -1.7827
  895MOL0     H20776   8.553  10.250   1.469 -2.8773  0.3694 -0.0330
  895MOL0     H20777   8.832  10.304   1.418  0.3500 -0.1500 -0.9617
  895MOL0     H20778   8.756  10.316   1.260  1.0909 -1.6655  1.2296
  895MOL0     H20779   8.842  10.536   1.222 -1.5659 -4.1160 -1.9614
  895MOL0     H20780   8.882  10.553   1.401 -0.2859  0.1927 -0.1201
  895MOL0     H20781   9.016  10.352   1.216  1.4839 -0.3773 -0.3590
  895MOL0     H20782   9.058  10.396   1.379 -0.1791 -0.6321 -0.3787
  895MOL0     H20783   9.094  10.647   1.281  2.3788  1.9463 -1.0875
  895MOL0     H20784   9.081  10.566   1.129  1.1735 -1.0776 -0.7768
  895MOL0     H20785   9.242  10.702   1.052 -0.6871  1.1525  3.1603
  895MOL0     H20786   9.439  10.791   0.943  0.5412 -0.5230  0.3242
  895MOL0     H20787   9.649  10.901   0.645 -0.8880  2.2970 -1.1777
  895MOL0     H20788   9.825  11.004   0.505  0.3623 -0.6301 -0.7263
  895MOL0     H20789  10.219  11.042   0.709 -2.2705  0.3275 -0.1346
  895MOL0     H20790  10.220  10.922   0.572 -0.9329  0.2041  0.0969
  895MOL0     H20791  10.228  11.136   0.436 -0.2617  0.7689 -0.2606
  895MOL0     H20792  10.272  11.222   0.587 -3.0373  0.7231 -1.5237
  895MOL0     H20793  10.488  11.071   0.600  0.7703 -2.4294 -1.7515
  895MOL0     H20794  10.434  11.007   0.444 -1.1820 -0.8026  0.2483
  895MOL0     H20795  10.474  11.311   0.497 -0.0169  1.6392 -2.7922
  895MOL0     H20796  10.437  11.232   0.346 -1.6749 -2.3689  0.9865
  895MOL0     H20797  10.638  11.121   0.329  0.1323 -1.9875  0.5589
  895MOL0     H20798  10.699  11.178   0.490 -0.4118 -0.8380 -0.2263
  895MOL0     H20799  10.631  11.364   0.249 -1.7860  1.1566  1.9899
  895MOL0     H20800  10.709  11.412   0.389 -0.7173  0.3616 -1.0063
  895MOL0     H20801  10.874  11.216   0.222  1.9995  1.1302 -2.3306
  895MOL0     H20802  10.915  11.315   0.355  1.1147  0.6143 -0.8677
  895MOL0     H20803  10.841  11.408   0.087  2.4831  1.0725 -1.0296
  895MOL0     H20804  10.895  11.517   0.228  1.0347 -0.7746  2.3928
  895MOL0     H20805  10.067  11.028   0.841  1.7776 -0.9355 -2.9586
  895MOL0     H20806   9.907  10.905   0.980  0.8387  2.4816  0.8405
  895MOL0     H20807   9.678  10.544   1.211  0.7148 -0.2361  0.1155
  895MOL0     H20808   9.468  10.453   1.290 -1.8047 -2.2341 -2.4843
  895MOL0     H20809   8.717   9.819   1.472  0.4099 -0.2039 -1.6066
  895MOL0     H20810   8.875   9.685   1.348 -0.5153 -0.5192 -0.0955
  895MOL0     H20811   9.240   9.509   1.221  0.2844  0.9777  2.3348
  895MOL0     H20812   9.407   9.362   1.130 -0.0638 -0.5747  1.4157
  895MOL0     H20813   9.527   9.216   1.043  0.2334 -0.4510 -2.3645
  895MOL0     H20814   9.399   9.099   1.033 -0.0197  0.3509 -0.4225
  895MOL0     H20815   9.578   9.011   0.944 -0.1175  0.7435  0.0844
  895MOL0     H20816   9.531   8.906   1.069  2.4270 -0.8751 -1.7041
  895MOL0     H20817   9.695   8.983   1.218  0.2274 -0.6691  0.1716
  895MOL0     H20818   9.743   9.120   1.132 -0.0717 -0.1496 -0.0327
  895MOL0     H20819   9.829   8.965   0.935 -3.4533  3.7495 -0.4086
  895MOL0     H20820   9.917   8.936   1.081  0.6644 -0.1417 -3.0790
  895MOL0     H20821   9.673   8.591   1.041  1.3631 -0.0134  0.5985
  895MOL0     H20822   9.365   9.091   1.458 -2.6190 -0.0274  2.3057
  895MOL0     H20823   9.266   9.187   1.655 -0.5254  0.1142  1.4461
  895MOL0     H20824   9.128   9.294   1.652 -0.3861 -1.0726  1.8702
  895MOL0     H20825   9.120   9.130   1.572 -0.7001  1.8367 -0.5592
  896MOL0     O20826   2.681   6.060   0.735 -0.0200  0.0420 -0.0613
  896MOL0     C20827   2.691   5.940   0.708  0.0463 -0.1550 -0.3006
  896MOL0     O20828   2.804   5.873   0.666  0.4383 -0.7993  0.6397
  896MOL0     C20829   2.918   5.956   0.657  0.7962  0.6121  0.9114
  896MOL0     C20830   2.994   5.977   0.768 -0.3851 -0.5006  0.2444
  896MOL0     C20831   3.106   6.050   0.769 -0.2359  0.3716  0.6580
  896MOL0     C20832   3.156   6.107   0.650  0.5910 -0.0261  0.1492
  896MOL0     O20833   3.260   6.191   0.650  0.2616 -0.1031 -0.0569
  896MOL0     C20834   3.389   6.139   0.637  0.4458 -0.0241 -0.6256
  896MOL0     C20835   3.476   6.208   0.736 -0.0844 -0.3843  0.3118
  896MOL0     C20836   3.513   6.349   0.682  0.3767 -0.3951 -0.0238
  896MOL0     C20837   3.421   6.456   0.725  0.0696 -0.6416  0.0582
  896MOL0     C20838   3.434   6.598   0.671 -0.7345 -0.4391  0.2866
  896MOL0     C20839   3.318   6.691   0.710 -0.6771  0.1035 -0.5492
  896MOL0     C20840   3.200   6.699   0.618 -0.1775 -0.3351  1.6876
  896MOL0     C20841   3.189   6.832   0.525  1.0741  0.2030 -0.7300
  896MOL0     N20842   3.045   6.835   0.493 -0.2998 -0.2157  0.0743
  896MOL0     C20843   2.951   6.892   0.575 -0.5099  1.2589  0.7407
  896MOL0     C20844   2.840   6.874   0.504  0.6427  0.2917 -0.0475
  896MOL0     C20845   2.716   6.938   0.558  0.2120  0.1562 -0.8090
  896MOL0     C20846   2.597   6.955   0.460 -0.2009  0.0841  0.9466
  896MOL0     C20847   2.490   7.036   0.520 -0.3910  0.1900  0.2588
  896MOL0     C20848   2.404   6.959   0.624  0.0755 -0.1070  0.2500
  896MOL0     O20849   2.263   6.975   0.615  0.1139 -0.2241 -0.4504
  896MOL0     C20850   2.192   7.078   0.661 -0.1124  0.5166 -0.5998
  896MOL0     C20851   2.248   7.195   0.701  0.0366  0.1820  0.2686
  896MOL0     C20852   2.167   7.307   0.734 -0.1639  0.1235  0.0400
  896MOL0     C20853   2.026   7.300   0.735  1.2384 -0.9950 -0.2561
  896MOL0     C20854   1.935   7.420   0.768 -0.2034 -0.7905  0.8917
  896MOL0     O20855   1.803   7.396   0.807  0.3239 -0.2228 -0.2793
  896MOL0     C20856   1.717   7.491   0.865 -0.0142  0.2969  0.2222
  896MOL0     C20857   1.580   7.445   0.896  0.3676 -0.3652 -0.3613
  896MOL0     C20858   1.481   7.534   0.948 -0.4133 -1.0822 -0.3180
  896MOL0     C20859   1.515   7.670   0.978 -0.4871 -0.9556  0.2950
  896MOL0     O20860   1.429   7.776   1.019 -0.2015  0.6973 -0.2931
  896MOL0     C20861   1.295   7.747   1.050  0.6371  0.9045  0.3701
  896MOL0     C20862   1.201   7.770   0.936  0.5059  1.2699  0.4262
  896MOL0     C20863   1.054   7.763   0.990  1.7206  0.0292  1.2566
  896MOL0     C20864   0.954   7.747   0.866 -1.0029 -0.3640 -0.5792
  896MOL0     C20865   0.808   7.744   0.914  0.6886 -0.1899  0.0191
  896MOL0     C20866   0.696   7.700   0.813 -0.0759 -0.7162 -0.3689
  896MOL0     C20867   0.560   7.684   0.878 -0.8468  0.4505  0.1398
  896MOL0     C20868   0.473   7.595   0.791 -0.5292 -0.3407  0.6954
  896MOL0    Cl20869   0.310   7.562   0.869 -0.3847  0.5532  0.0314
  896MOL0     C20870   1.654   7.700   0.965  0.2693  0.0565 -0.7066
  896MOL0     C20871   1.757   7.617   0.917  0.4113 -0.0722 -0.4687
  896MOL0     O20872   1.997   7.527   0.766  0.4919 -0.6764 -0.1592
  896MOL0     C20873   1.972   7.172   0.717 -0.7361 -0.0345 -0.4187
  896MOL0     C20874   2.053   7.059   0.673 -0.1307  0.5314  0.0581
  896MOL0     N20875   2.860   6.808   0.387 -0.4546  0.1616  0.3564
  896MOL0     N20876   2.986   6.782   0.385  0.1223  0.1694  0.8530
  896MOL0     C20877   3.080   6.091   0.537  0.3725  0.7889  0.0819
  896MOL0     C20878   2.959   6.020   0.534 -0.2984 -0.1506 -0.5327
  896MOL0     C20879   2.568   5.862   0.700  0.7994 -0.3434 -0.1984
  896MOL0     C20880   2.585   5.727   0.674  0.1666  0.7127 -0.2717
  896MOL0     C20881   2.476   5.638   0.658  0.0899  0.4192 -0.4461
  896MOL0     C20882   2.342   5.682   0.659 -0.0329  0.9716  0.5764
  896MOL0     O20883   2.245   5.585   0.627 -0.3014 -0.1371  0.2561
  896MOL0     C20884   2.104   5.616   0.638 -0.4887  0.0421 -0.7589
  896MOL0     C20885   2.021   5.488   0.675 -0.0001  0.2579 -0.4382
  896MOL0     C20886   1.870   5.503   0.686  0.1077  0.7028 -1.0893
  896MOL0     C20887   1.799   5.368   0.674  0.2313  0.3489  0.0284
  896MOL0     C20888   1.790   5.292   0.789 -0.3766 -0.3403 -0.1643
  896MOL0     C20889   1.783   5.229   0.889 -0.2368  0.2980 -0.6310
  896MOL0     C20890   2.321   5.816   0.683  0.1540 -0.0973  0.2491
  896MOL0     C20891   2.431   5.907   0.708 -0.1367  0.2381  0.5308
  896MOL0     C20892   2.383   6.059   0.714 -0.3501  0.2445  0.2760
  896MOL0     H20893   2.957   5.939   0.863 -1.3228 -0.4228 -0.0841
  896MOL0     H20894   3.164   6.068   0.860 -1.0642 -0.4810  1.3775
  896MOL0     H20895   3.383   6.031   0.650 -0.4730  0.0074 -0.7666
  896MOL0     H20896   3.424   6.152   0.535  0.4914 -1.4048 -0.8015
  896MOL0     H20897   3.574   6.159   0.737  0.9340  1.5357  2.0220
  896MOL0     H20898   3.427   6.214   0.834  1.0233  2.2471  0.7726
  896MOL0     H20899   3.534   6.335   0.576  0.7276  0.4023 -0.0656
  896MOL0     H20900   3.614   6.374   0.717  0.4061 -2.1085  1.2375
  896MOL0     H20901   3.325   6.420   0.686  1.0780 -1.8433 -1.4277
  896MOL0     H20902   3.424   6.458   0.834 -2.4565 -1.0832  0.2037
  896MOL0     H20903   3.523   6.639   0.719  0.2380  0.2729 -2.0266
  896MOL0     H20904   3.458   6.604   0.565  0.2563  3.3180  0.5703
  896MOL0     H20905   3.284   6.666   0.811 -0.6268  0.3333 -0.4762
  896MOL0     H20906   3.360   6.792   0.717  1.7598 -0.9354  1.3026
  896MOL0     H20907   3.111   6.702   0.680 -0.8906  3.6033  0.7454
  896MOL0     H20908   3.192   6.606   0.561 -2.0136  1.8885 -2.0864
  896MOL0     H20909   3.216   6.922   0.581  0.4574  0.5116 -0.9192
  896MOL0     H20910   3.257   6.822   0.439  2.2743 -0.5737  0.2697
  896MOL0     H20911   2.968   6.950   0.665 -0.1196  0.5852  1.1118
  896MOL0     H20912   2.702   6.866   0.639  2.2012  0.9076  0.2554
  896MOL0     H20913   2.735   7.039   0.595 -2.0073  0.0759  0.7706
  896MOL0     H20914   2.629   7.021   0.379  1.3796 -1.9698 -0.2083
  896MOL0     H20915   2.560   6.860   0.422  1.7713 -1.1258  1.8668
  896MOL0     H20916   2.426   7.063   0.435 -0.9374 -0.4772  0.4490
  896MOL0     H20917   2.539   7.124   0.562  0.6676 -0.1716 -0.1876
  896MOL0     H20918   2.420   6.984   0.730 -2.4300  0.7928  0.4862
  896MOL0     H20919   2.426   6.852   0.623 -1.6218 -0.5224  1.5444
  896MOL0     H20920   2.355   7.212   0.697  0.3010 -1.5081 -0.9803
  896MOL0     H20921   2.224   7.394   0.765  1.5420 -0.7286 -0.5835
  896MOL0     H20922   1.548   7.342   0.896 -2.0450  0.3129  1.3915
  896MOL0     H20923   1.385   7.485   0.957 -0.2117 -1.5888 -0.8077
  896MOL0     H20924   1.290   7.641   1.073 -0.3755  0.4029 -1.8801
  896MOL0     H20925   1.259   7.808   1.133 -1.4602  0.5603 -0.2217
  896MOL0     H20926   1.228   7.863   0.885 -0.7189  0.6231 -1.5125
  896MOL0     H20927   1.209   7.688   0.864  1.4473  0.4699  1.4133
  896MOL0     H20928   1.045   7.674   1.052  0.0481 -2.0576 -1.7556
  896MOL0     H20929   1.034   7.855   1.045  1.5545  0.4173  0.5637
  896MOL0     H20930   0.974   7.659   0.805  1.9862 -0.0470 -0.1765
  896MOL0     H20931   0.972   7.836   0.804 -2.3379  1.3367  1.3021
  896MOL0     H20932   0.782   7.845   0.948  2.1828 -0.2685  1.5426
  896MOL0     H20933   0.801   7.682   1.003 -2.4328 -0.0113  0.0150
  896MOL0     H20934   0.693   7.780   0.739  1.0568 -1.2088 -0.9773
  896MOL0     H20935   0.720   7.604   0.765  0.7290  0.5012 -2.5562
  896MOL0     H20936   0.506   7.779   0.887  0.1018  0.9056  1.2932
  896MOL0     H20937   0.564   7.638   0.976 -1.8121  2.3235  1.1215
  896MOL0     H20938   0.455   7.632   0.689 -0.5714 -1.3312  0.3310
  896MOL0     H20939   0.527   7.501   0.775  0.4021  0.4208 -0.9201
  896MOL0     H20940   1.684   7.800   0.992 -3.6640  0.9863  0.9843
  896MOL0     H20941   1.855   7.655   0.888  1.0713 -1.3954 -0.0513
  896MOL0     H20942   1.865   7.165   0.733 -0.4701 -2.9723  0.7427
  896MOL0     H20943   2.016   6.959   0.655 -0.4942  0.8273 -0.9167
  896MOL0     H20944   3.110   6.131   0.441 -3.1604  1.1588 -0.9981
  896MOL0     H20945   2.894   6.013   0.447  0.4275 -0.2454 -1.0842
  896MOL0     H20946   2.683   5.681   0.663 -0.2733  0.0229 -1.5026
  896MOL0     H20947   2.485   5.531   0.646  0.2823  0.5849 -1.8543
  896MOL0     H20948   2.074   5.661   0.543  2.2726  3.4560 -0.1888
  896MOL0     H20949   2.097   5.690   0.719  0.6901  0.1405 -0.7380
  896MOL0     H20950   2.057   5.468   0.777  1.6755  0.8200 -0.8777
  896MOL0     H20951   2.047   5.403   0.611 -0.1251  0.3099 -0.5594
  896MOL0     H20952   1.827   5.566   0.608 -1.2231 -2.2494 -2.9597
  896MOL0     H20953   1.854   5.549   0.783 -0.5884 -1.9513  0.1627
  896MOL0     H20954   1.697   5.384   0.638  0.8219 -0.9550 -2.4939
  896MOL0     H20955   1.848   5.319   0.589 -0.4917  1.1176 -0.8523
  896MOL0     H20956   1.791   5.181   0.984  2.9729 -2.0858 -1.9447
  896MOL0     H20957   2.223   5.861   0.671 -0.3609 -1.5850 -1.6782
  896MOL0     H20958   2.438   6.113   0.792  2.6689 -0.8848 -0.9375
  896MOL0     H20959   2.410   6.110   0.621  1.0686  0.5056  0.8092
  896MOL0     H20960   2.275   6.060   0.730 -0.4258  0.0999 -0.2059
  897MOL0     O20961   8.686   9.883   3.639  0.6450  0.4295  0.2392
  897MOL0     C20962   8.605   9.974   3.606  0.2743 -0.0012 -0.1904
  897MOL0     O20963   8.619  10.041   3.486  0.3863 -0.0449  0.3598
  897MOL0     C20964   8.729  10.010   3.406  0.1733  0.6545  0.0122
  897MOL0     C20965   8.847  10.069   3.432  0.0554 -0.1159  0.1386
  897MOL0     C20966   8.963  10.047   3.358  0.2847  0.3042  0.2455
  897MOL0     C20967   8.956   9.955   3.251  0.6384  0.3096 -0.2431
  897MOL0     O20968   9.061   9.925   3.172 -1.1430  0.7276 -0.7187
  897MOL0     C20969   9.152  10.028   3.134  0.5033  0.7622 -0.4803
  897MOL0     C20970   9.286  10.013   3.204 -0.3261  0.5075 -0.0934
  897MOL0     C20971   9.388  10.112   3.154  1.2710 -0.5900  0.3171
  897MOL0     C20972   9.529  10.073   3.197 -0.4232  0.1165  0.1074
  897MOL0     C20973   9.628  10.185   3.178  0.2497 -0.5468  0.3839
  897MOL0     C20974   9.765  10.147   3.229  0.3251  0.8394  0.5147
  897MOL0     C20975   9.854  10.272   3.244  0.9619  0.5923  0.2816
  897MOL0     C20976   9.991  10.223   3.293  0.1583 -1.2414 -0.4167
  897MOL0     N20977  10.111  10.222   3.208  0.8280 -0.4164  0.5797
  897MOL0     C20978  10.108  10.146   3.092 -0.6755 -0.8103  0.2140
  897MOL0     C20979  10.240  10.159   3.053 -0.0832  0.3543 -0.1955
  897MOL0     C20980  10.291  10.102   2.929 -0.0807 -0.4891  0.0279
  897MOL0     C20981  10.273   9.953   2.908  0.2152  0.4702 -0.1468
  897MOL0     C20982  10.326   9.909   2.771 -0.2566 -1.0170  0.7581
  897MOL0     C20983  10.473   9.902   2.757 -0.8157 -0.0221 -0.3377
  897MOL0     O20984  10.536   9.839   2.874  0.4864  0.5671 -0.3032
  897MOL0     C20985  10.671   9.855   2.878  0.5996  0.3290  0.0525
  897MOL0     C20986  10.734   9.823   2.999  0.2925 -0.0390  0.2511
  897MOL0     C20987  10.872   9.835   3.011  0.4716  0.5036  0.2528
  897MOL0     C20988  10.952   9.876   2.905  0.3480  0.9433 -0.0685
  897MOL0     C20989  11.093   9.891   2.929  0.1854  0.1029  0.1765
  897MOL0     O20990  11.159   9.915   2.811 -0.2578  0.8503  0.2012
  897MOL0     C20991  11.298   9.928   2.824 -0.4310  0.2662 -0.5804
  897MOL0     C20992  11.388   9.828   2.861 -0.5707 -0.9500 -0.4292
  897MOL0     C20993  11.528   9.848   2.861  0.6561 -0.0592  0.2994
  897MOL0     C20994  11.576   9.969   2.813 -1.0357  0.3122 -0.0889
  897MOL0     O20995  11.704   9.996   2.804 -0.6094  0.3425  0.3066
  897MOL0     C20996  11.784   9.900   2.726 -0.3157  0.4539 -0.4946
  897MOL0     C20997  11.933   9.942   2.715 -0.6493  0.8860 -0.0254
  897MOL0     C20998  11.967  10.072   2.635  0.6423 -0.7805 -0.6001
  897MOL0     C20999  12.103  10.062   2.570  0.0111 -0.3237 -0.0197
  897MOL0     C21000  12.138  10.194   2.510 -0.3505 -0.5450  0.7012
  897MOL0     C21001  12.232  10.181   2.391 -0.5881 -0.2940  0.0009
  897MOL0     C21002  12.380  10.139   2.432 -0.2410  0.3393 -0.8280
  897MOL0     C21003  12.472  10.121   2.317  0.3187  1.1887  0.1580
  897MOL0    Cl21004  12.486  10.267   2.229 -0.3253 -0.1538 -0.6324
  897MOL0     C21005  11.484  10.074   2.795 -1.0473  0.4623 -0.6144
  897MOL0     C21006  11.346  10.049   2.790 -0.1705 -0.0299 -0.3469
  897MOL0     O21007  11.142   9.888   3.042  0.4800 -0.2165  0.0682
  897MOL0     C21008  10.885   9.901   2.787  0.8180  0.2658 -0.3610
  897MOL0     C21009  10.749   9.891   2.773  0.3117 -0.4953  0.2463
  897MOL0     N21010  10.318  10.220   3.145  0.3689  0.0346  0.0066
  897MOL0     N21011  10.237  10.259   3.244 -0.1671  0.3060 -0.1364
  897MOL0     C21012   8.835   9.897   3.225  0.0743  0.2747 -0.0823
  897MOL0     C21013   8.718   9.923   3.295 -0.1453 -0.7747 -0.1582
  897MOL0     C21014   8.488  10.004   3.692  0.3524  0.1492  0.2232
  897MOL0     C21015   8.447   9.913   3.787 -0.5284  0.7249  0.2815
  897MOL0     C21016   8.330   9.927   3.856 -0.5662  0.4495  0.5031
  897MOL0     C21017   8.248  10.030   3.833  0.0538  0.5843  0.5036
  897MOL0     O21018   8.128  10.030   3.905 -0.9261  0.2963 -0.3850
  897MOL0     C21019   8.018  10.101   3.845  0.2580  0.7281  0.2921
  897MOL0     C21020   7.976  10.022   3.713  0.4660  0.3938  0.2936
  897MOL0     C21021   7.934   9.880   3.730 -0.2911  0.2790  0.2417
  897MOL0     C21022   7.798   9.874   3.797  0.1326  0.0258 -0.3394
  897MOL0     C21023   7.687   9.948   3.734  0.0994 -0.8780 -0.1677
  897MOL0     C21024   7.608  10.013   3.669  0.3887  0.3878 -0.5055
  897MOL0     C21025   8.291  10.138   3.756 -0.0647  0.4732 -0.2624
  897MOL0     C21026   8.409  10.129   3.682  0.6702 -0.6871  0.1795
  897MOL0     C21027   8.437  10.257   3.603 -0.1525  0.6930 -0.1069
  897MOL0     H21028   8.851  10.146   3.509  0.8713 -1.4095  1.4227
  897MOL0     H21029   9.046  10.113   3.378 -0.1762  1.6483 -1.9210
  897MOL0     H21030   9.166  10.010   3.027 -0.9578  0.0709 -0.5853
  897MOL0     H21031   9.109  10.126   3.153 -0.1935 -0.0122  2.3702
  897MOL0     H21032   9.327   9.915   3.175 -0.8928  0.3053 -0.2323
  897MOL0     H21033   9.269  10.028   3.311 -1.0027 -1.1410  0.0747
  897MOL0     H21034   9.361  10.211   3.191  0.9707 -0.5812  0.0831
  897MOL0     H21035   9.377  10.121   3.045 -1.3804 -3.6516  0.1676
  897MOL0     H21036   9.523  10.041   3.301  0.3478 -0.7922 -0.1117
  897MOL0     H21037   9.566   9.985   3.144  2.8738  1.0664  0.5622
  897MOL0     H21038   9.628  10.206   3.071 -0.7534 -2.7107 -0.0953
  897MOL0     H21039   9.599  10.268   3.242 -1.2093 -0.5914 -0.1932
  897MOL0     H21040   9.755  10.098   3.326 -0.2661 -1.1440 -0.4902
  897MOL0     H21041   9.806  10.075   3.157 -0.3164 -0.3809  1.3404
  897MOL0     H21042   9.807  10.337   3.319  1.4481  1.7406 -0.3840
  897MOL0     H21043   9.861  10.327   3.150  0.2972 -0.2785 -0.2940
  897MOL0     H21044  10.015  10.292   3.375  0.5049 -1.5380 -0.2665
  897MOL0     H21045   9.983  10.124   3.339 -1.2246 -1.6380 -1.4411
  897MOL0     H21046  10.017  10.104   3.050 -0.9286  0.1352 -0.2016
  897MOL0     H21047  10.242  10.145   2.841  1.4506 -2.2169 -1.7588
  897MOL0     H21048  10.391  10.144   2.918 -1.8807  4.3350 -0.1945
  897MOL0     H21049  10.318   9.899   2.992 -3.3726 -1.0293  0.9861
  897MOL0     H21050  10.168   9.927   2.924  1.0032 -2.1045  1.5077
  897MOL0     H21051  10.287   9.976   2.694 -0.3268  0.5681  2.1000
  897MOL0     H21052  10.294   9.807   2.746  0.6993 -0.8577 -1.3245
  897MOL0     H21053  10.514  10.003   2.744  0.9162 -0.8092 -1.3923
  897MOL0     H21054  10.517   9.851   2.671 -1.1764 -1.6994  0.4478
  897MOL0     H21055  10.674   9.790   3.084  0.7665  0.0173  0.6140
  897MOL0     H21056  10.918   9.793   3.100 -1.9741 -0.6737  1.0648
  897MOL0     H21057  11.346   9.731   2.884  0.0747 -0.8462  1.3799
  897MOL0     H21058  11.598   9.765   2.870  0.1630 -0.4234  0.8401
  897MOL0     H21059  11.782   9.798   2.767 -2.7630 -1.1581 -4.0706
  897MOL0     H21060  11.742   9.887   2.626 -0.0183 -0.5215 -0.5085
  897MOL0     H21061  11.972   9.941   2.818  0.0827  1.4753 -0.2921
  897MOL0     H21062  11.992   9.858   2.680  0.5387  0.7507  2.1425
  897MOL0     H21063  11.901  10.074   2.548  0.2199  1.2908 -0.2875
  897MOL0     H21064  11.941  10.157   2.699 -2.1044 -1.5569 -0.5490
  897MOL0     H21065  12.107   9.983   2.494  0.1355 -2.0137  1.6487
  897MOL0     H21066  12.181  10.028   2.640 -0.2615  0.4314  0.6642
  897MOL0     H21067  12.179  10.259   2.588  4.1122 -0.5383 -1.3185
  897MOL0     H21068  12.051  10.248   2.470  0.7577 -0.3335 -1.6201
  897MOL0     H21069  12.184  10.109   2.325 -4.2879  1.4899  0.5108
  897MOL0     H21070  12.239  10.279   2.343  1.1057  0.7696  2.2122
  897MOL0     H21071  12.391  10.046   2.487  2.3008  0.1979 -1.4483
  897MOL0     H21072  12.422  10.224   2.487 -0.8466  0.1055  0.0119
  897MOL0     H21073  12.570  10.095   2.358  0.6521 -1.0225 -1.7981
  897MOL0     H21074  12.441  10.041   2.249  1.0959  0.1528  0.9732
  897MOL0     H21075  11.523  10.170   2.761 -0.6924  0.5419 -0.0047
  897MOL0     H21076  11.284  10.134   2.764  0.8337  0.4848 -1.1410
  897MOL0     H21077  10.943   9.931   2.701  1.8754  1.7864  0.8140
  897MOL0     H21078  10.705   9.917   2.677 -0.5713 -2.3555  0.0877
  897MOL0     H21079   8.834   9.845   3.130  3.7315  1.0859 -0.7338
  897MOL0     H21080   8.619   9.891   3.266 -0.0973  0.2478 -1.5534
  897MOL0     H21081   8.495   9.817   3.803 -2.3545  0.0292  1.8797
  897MOL0     H21082   8.306   9.846   3.924 -1.5197 -1.6119 -2.1281
  897MOL0     H21083   8.054  10.202   3.824  1.4682  0.5041  1.2288
  897MOL0     H21084   7.945  10.105   3.926  0.9566  2.8668  0.8832
  897MOL0     H21085   8.059  10.014   3.642 -0.1794 -1.1894 -0.3283
  897MOL0     H21086   7.901  10.084   3.664 -1.3492 -0.5926  1.6800
  897MOL0     H21087   8.005   9.819   3.786  0.1285  0.9919  0.4956
  897MOL0     H21088   7.926   9.847   3.626 -0.5610  6.6822 -2.1944
  897MOL0     H21089   7.769   9.770   3.816 -4.5101  1.2321  0.4618
  897MOL0     H21090   7.807   9.907   3.901  1.1095 -1.3751  0.0579
  897MOL0     H21091   7.540  10.063   3.604 -0.0977  1.5598  0.8478
  897MOL0     H21092   8.249  10.237   3.760  3.6570  2.2493 -0.8491
  897MOL0     H21093   8.348  10.278   3.544 -0.4930 -1.7833 -0.6071
  897MOL0     H21094   8.459  10.344   3.666 -1.7573  0.1881  1.2198
  897MOL0     H21095   8.525  10.246   3.538 -1.2829  0.8948 -1.7296
  898MOL0     O21096   4.662   2.840   1.785  0.3618  0.3731 -0.2047
  898MOL0     C21097   4.571   2.765   1.736  0.1626 -0.2137 -0.6424
  898MOL0     O21098   4.591   2.645   1.657 -0.7578 -0.4742 -0.0830
  898MOL0     C21099   4.717   2.598   1.649 -0.6643  0.8098 -0.5250
  898MOL0     C21100   4.730   2.460   1.666  0.0131 -0.3436  0.1475
  898MOL0     C21101   4.855   2.401   1.662  0.1527 -0.3045 -0.1825
  898MOL0     C21102   4.972   2.470   1.638 -0.6083  0.3893  0.0210
  898MOL0     O21103   5.095   2.404   1.624 -0.4029 -0.4792  0.0024
  898MOL0     C21104   5.095   2.261   1.586 -1.1035 -1.2758 -0.3452
  898MOL0     C21105   5.238   2.224   1.548  0.7052  0.3879 -0.1254
  898MOL0     C21106   5.349   2.250   1.645  0.2763  0.5338  0.4158
  898MOL0     C21107   5.492   2.216   1.590  0.0439  0.2932 -0.3966
  898MOL0     C21108   5.581   2.214   1.707  0.0220 -0.2170  0.9451
  898MOL0     C21109   5.723   2.168   1.657  0.1628 -0.7162 -0.9113
  898MOL0     C21110   5.828   2.225   1.752  0.1098 -0.1055 -0.0219
  898MOL0     C21111   5.967   2.194   1.705 -0.1489  0.0319  1.0504
  898MOL0     N21112   6.080   2.219   1.801 -0.1752  0.2396 -0.1547
  898MOL0     C21113   6.166   2.320   1.782  0.1562 -0.7053  0.3028
  898MOL0     C21114   6.231   2.344   1.904 -0.1489  0.4062 -0.1909
  898MOL0     C21115   6.338   2.451   1.935  0.3140  0.0832  1.2421
  898MOL0     C21116   6.446   2.443   1.823 -0.6229  0.1011  0.7195
  898MOL0     C21117   6.517   2.308   1.831 -0.7914  0.0726  0.1639
  898MOL0     C21118   6.654   2.313   1.767 -0.0262  0.1412 -0.5446
  898MOL0     O21119   6.751   2.379   1.845  0.0987  0.2952  0.1468
  898MOL0     C21120   6.879   2.354   1.809  0.7076  0.1033  0.3375
  898MOL0     C21121   6.914   2.280   1.691 -0.2501 -0.4188  0.6814
  898MOL0     C21122   7.047   2.265   1.658  0.4609 -0.3732  0.1059
  898MOL0     C21123   7.152   2.317   1.739  1.0657 -0.5641 -0.1233
  898MOL0     C21124   7.293   2.303   1.702  0.1100 -0.3006  1.2025
  898MOL0     O21125   7.395   2.351   1.781 -0.0943 -0.4660  0.2752
  898MOL0     C21126   7.517   2.301   1.761 -0.1638 -0.7528  0.3938
  898MOL0     C21127   7.617   2.375   1.691 -0.4279 -0.6683  0.0174
  898MOL0     C21128   7.742   2.319   1.667 -0.0163  0.3950  0.0807
  898MOL0     C21129   7.771   2.195   1.719  0.0908  0.4644  0.1082
  898MOL0     O21130   7.898   2.135   1.702 -0.4250 -0.4102 -0.5365
  898MOL0     C21131   8.014   2.212   1.671 -0.0598  0.3483  0.5453
  898MOL0     C21132   8.130   2.129   1.708  0.1454  0.6731  0.0181
  898MOL0     C21133   8.156   2.109   1.858 -0.8390 -0.1881  1.0174
  898MOL0     C21134   8.296   2.071   1.883  0.6738 -0.7667 -0.6655
  898MOL0     C21135   8.347   2.118   2.016 -0.0995 -0.5528  0.6079
  898MOL0     C21136   8.491   2.057   2.051 -0.4170 -0.5428 -0.5962
  898MOL0     C21137   8.552   2.135   2.162  0.1262  0.1811 -0.2594
  898MOL0     C21138   8.700   2.086   2.188  0.0008  0.0912 -0.0472
  898MOL0    Cl21139   8.794   2.183   2.301 -0.3022 -0.4841 -0.2523
  898MOL0     C21140   7.668   2.115   1.770 -0.3013 -0.2173 -0.0016
  898MOL0     C21141   7.541   2.169   1.805 -0.9058 -0.2343  0.5866
  898MOL0     O21142   7.315   2.264   1.590  0.4278 -0.7179 -0.1079
  898MOL0     C21143   7.116   2.378   1.863  0.2747 -0.1270  0.0724
  898MOL0     C21144   6.979   2.395   1.895 -0.3504  0.8509  0.0497
  898MOL0     N21145   6.191   2.244   1.993  0.6640 -0.1348  0.4986
  898MOL0     N21146   6.097   2.174   1.931 -0.5246  0.1536 -0.3211
  898MOL0     C21147   4.966   2.606   1.633  0.0076 -0.9631  0.0797
  898MOL0     C21148   4.838   2.669   1.627  0.0705  0.3483  0.5482
  898MOL0     C21149   4.432   2.803   1.782  0.0296  0.7855  0.1929
  898MOL0     C21150   4.418   2.878   1.894 -0.4777 -0.5183 -0.6544
  898MOL0     C21151   4.292   2.902   1.953 -0.1981 -0.6259 -1.3722
  898MOL0     C21152   4.182   2.835   1.905 -0.8791  1.1724  0.0499
  898MOL0     O21153   4.067   2.853   1.976  0.1654  0.5436  0.3983
  898MOL0     C21154   3.952   2.889   1.906  0.4713  0.1590  0.6350
  898MOL0     C21155   3.886   3.011   1.967  0.5105  0.9691 -0.0119
  898MOL0     C21156   3.789   2.957   2.077 -0.0667  0.3137 -1.1474
  898MOL0     C21157   3.669   2.865   2.048  1.3717 -0.1989  0.7989
  898MOL0     C21158   3.607   2.909   1.929  0.5113 -0.1302  0.5366
  898MOL0     C21159   3.553   2.942   1.824 -0.1034 -0.7910  0.1184
  898MOL0     C21160   4.187   2.766   1.779  0.4509  0.2578 -0.3841
  898MOL0     C21161   4.312   2.748   1.721 -0.7010 -0.3741 -0.2462
  898MOL0     C21162   4.318   2.670   1.596 -0.5050 -0.3876 -0.4256
  898MOL0     H21163   4.640   2.401   1.667 -1.1619  1.3584  1.7303
  898MOL0     H21164   4.863   2.296   1.687 -1.4200 -0.7628 -1.4369
  898MOL0     H21165   5.059   2.197   1.667  0.9472 -1.6292  0.3405
  898MOL0     H21166   5.041   2.252   1.491 -2.0412  0.0124  0.0383
  898MOL0     H21167   5.258   2.289   1.463 -1.4602 -1.2216 -2.0063
  898MOL0     H21168   5.239   2.118   1.519  0.6263  0.2579  0.3277
  898MOL0     H21169   5.339   2.176   1.725  0.4057  2.2908  2.1219
  898MOL0     H21170   5.328   2.353   1.676 -3.8520  0.0645 -0.2847
  898MOL0     H21171   5.480   2.120   1.539  0.2740  1.1585 -2.1853
  898MOL0     H21172   5.523   2.285   1.511  0.9273 -0.4325 -0.6914
  898MOL0     H21173   5.577   2.314   1.751 -0.5555 -0.3568  1.2165
  898MOL0     H21174   5.545   2.147   1.786 -1.1314  0.7426  1.2602
  898MOL0     H21175   5.735   2.059   1.662  2.6880 -0.4386  1.5606
  898MOL0     H21176   5.743   2.211   1.558 -1.2784  0.3189 -0.7755
  898MOL0     H21177   5.826   2.182   1.853  1.2824  1.2603  0.6184
  898MOL0     H21178   5.808   2.332   1.762 -0.1459 -0.0104 -1.4349
  898MOL0     H21179   5.967   2.090   1.669  0.6872  0.1817  0.5833
  898MOL0     H21180   5.988   2.248   1.612 -0.9093 -1.0787  0.2114
  898MOL0     H21181   6.195   2.376   1.694  2.6088 -2.2926  0.0197
  898MOL0     H21182   6.285   2.547   1.931  0.0766 -0.0841  0.3416
  898MOL0     H21183   6.378   2.430   2.035  1.0487 -0.5145  0.8266
  898MOL0     H21184   6.409   2.455   1.721  0.0637 -2.5886  0.0863
  898MOL0     H21185   6.514   2.525   1.847  1.8122 -0.8933 -2.2584
  898MOL0     H21186   6.452   2.245   1.770 -1.1335  2.5872 -2.2815
  898MOL0     H21187   6.528   2.273   1.934  0.5426 -0.1575 -0.0378
  898MOL0     H21188   6.658   2.359   1.667  0.5442 -1.2904 -1.2089
  898MOL0     H21189   6.676   2.207   1.748 -1.5217 -0.2698 -0.1081
  898MOL0     H21190   6.837   2.249   1.622 -1.2953  1.3201  0.9985
  898MOL0     H21191   7.062   2.217   1.562 -1.1664  1.1143 -0.9499
  898MOL0     H21192   7.597   2.478   1.663  0.8666 -0.6473 -0.9132
  898MOL0     H21193   7.815   2.390   1.628 -0.9445  0.9752 -0.6586
  898MOL0     H21194   8.008   2.236   1.564  3.7622  0.4232  0.2391
  898MOL0     H21195   8.008   2.306   1.727  1.0486  2.0614 -1.9995
  898MOL0     H21196   8.127   2.032   1.657 -2.5717  1.2486 -1.0852
  898MOL0     H21197   8.215   2.180   1.662 -0.0465  0.9975  0.0182
  898MOL0     H21198   8.153   2.211   1.899 -0.7320  0.2807 -0.0937
  898MOL0     H21199   8.097   2.024   1.894 -1.1832 -0.6921 -0.6167
  898MOL0     H21200   8.363   2.109   1.805  0.8039 -0.8090 -0.5751
  898MOL0     H21201   8.305   1.962   1.884 -0.0247 -0.8281 -0.2748
  898MOL0     H21202   8.279   2.104   2.101  0.8706  1.3455  1.7834
  898MOL0     H21203   8.361   2.226   2.001 -0.2233 -0.7119 -0.7556
  898MOL0     H21204   8.478   1.951   2.073  2.4936 -0.7363  0.6929
  898MOL0     H21205   8.551   2.067   1.960 -0.1921 -1.0285 -0.5034
  898MOL0     H21206   8.497   2.117   2.255 -0.9665  3.2374 -0.1874
  898MOL0     H21207   8.547   2.242   2.138  1.0893  0.4480  0.6631
  898MOL0     H21208   8.675   1.985   2.221  0.2102  0.1156  0.1806
  898MOL0     H21209   8.758   2.076   2.096  1.9246 -1.3370  1.2710
  898MOL0     H21210   7.693   2.019   1.813  1.3077  0.4757  0.6875
  898MOL0     H21211   7.465   2.107   1.851 -3.0013  1.5919 -0.2358
  898MOL0     H21212   7.196   2.403   1.931  0.1426 -1.0353  0.5766
  898MOL0     H21213   6.963   2.432   1.996 -2.6698  0.9086 -0.2842
  898MOL0     H21214   5.051   2.671   1.615  0.3458 -1.2833  0.5208
  898MOL0     H21215   4.836   2.774   1.599  0.4541 -0.2533 -1.9345
  898MOL0     H21216   4.504   2.919   1.947 -0.2852 -2.3067  0.5057
  898MOL0     H21217   4.289   2.958   2.047  0.7639  1.4727 -2.5168
  898MOL0     H21218   3.882   2.806   1.893  0.5131  0.5111 -3.0355
  898MOL0     H21219   3.968   2.908   1.799 -2.5625  1.1771  0.2691
  898MOL0     H21220   3.831   3.068   1.892  0.5785  1.0677  0.0135
  898MOL0     H21221   3.961   3.077   2.011  0.5470  2.1720 -1.7888
  898MOL0     H21222   3.763   3.038   2.145  2.6949  0.7294 -0.4576
  898MOL0     H21223   3.853   2.903   2.148  0.3407  1.9551 -0.2081
  898MOL0     H21224   3.707   2.763   2.035 -0.7732 -1.0936  1.1863
  898MOL0     H21225   3.592   2.864   2.126 -1.4698 -0.0626 -1.8451
  898MOL0     H21226   3.499   2.968   1.735 -1.9120  1.9058  1.8585
  898MOL0     H21227   4.096   2.727   1.734 -0.2732  1.4629  0.0091
  898MOL0     H21228   4.354   2.567   1.601 -0.2746 -0.3423 -1.0557
  898MOL0     H21229   4.218   2.656   1.554 -0.8867 -0.0308  0.3312
  898MOL0     H21230   4.373   2.728   1.522 -1.3274 -0.4357 -1.0795
  899MOL0     O21231   2.555  11.063   6.254  0.2925 -0.5907 -0.5364
  899MOL0     C21232   2.518  11.177   6.273 -0.8980  0.2347 -0.0125
  899MOL0     O21233   2.601  11.285   6.268 -0.2043  0.2103  0.6704
  899MOL0     C21234   2.728  11.268   6.245  0.0491 -0.5735 -0.4364
  899MOL0     C21235   2.782  11.274   6.119 -1.0591 -0.0281  0.6303
  899MOL0     C21236   2.914  11.278   6.101 -0.3702  0.2487  0.3638
  899MOL0     C21237   3.000  11.262   6.212 -0.1745 -0.5758  0.6494
  899MOL0     O21238   3.134  11.258   6.188  0.5386  0.4490  0.5818
  899MOL0     C21239   3.222  11.315   6.283 -0.3010 -0.7588 -0.3616
  899MOL0     C21240   3.356  11.344   6.221  0.6346 -1.4158  0.2670
  899MOL0     C21241   3.442  11.406   6.327 -0.6626 -0.8255  0.5701
  899MOL0     C21242   3.590  11.422   6.274  0.3450  0.4715  0.3277
  899MOL0     C21243   3.672  11.472   6.388  1.1139 -0.1600 -0.3913
  899MOL0     C21244   3.819  11.496   6.341 -0.3509 -0.5898 -0.4867
  899MOL0     C21245   3.887  11.361   6.303  0.8216 -0.7107 -0.5798
  899MOL0     C21246   4.041  11.380   6.288  0.9353 -0.0480 -0.6396
  899MOL0     N21247   4.067  11.454   6.170 -0.2150 -0.1628  0.2517
  899MOL0     C21248   4.066  11.590   6.166  0.3161 -0.1589 -0.4843
  899MOL0     C21249   4.091  11.626   6.037  0.0804  0.2307  0.1206
  899MOL0     C21250   4.100  11.763   5.974 -1.0976 -0.2938 -1.1066
  899MOL0     C21251   4.122  11.785   5.828  0.0019  0.0040  0.6360
  899MOL0     C21252   4.142  11.931   5.792  0.5950  0.9182 -0.3042
  899MOL0     C21253   4.132  11.941   5.631  0.4280 -0.1977 -1.2660
  899MOL0     O21254   4.180  12.070   5.584  0.4510  0.0141 -0.4223
  899MOL0     C21255   4.306  12.112   5.590  0.0925  0.4802 -0.0082
  899MOL0     C21256   4.331  12.246   5.575 -0.2153 -0.0417  0.4071
  899MOL0     C21257   4.464  12.297   5.573 -0.0242  0.7258 -0.0287
  899MOL0     C21258   4.575  12.208   5.593 -0.5362 -0.1342  0.0473
  899MOL0     C21259   4.715  12.247   5.617 -0.1747  0.0092 -0.1436
  899MOL0     O21260   4.738  12.377   5.636  0.3432  0.2169  0.3452
  899MOL0     C21261   4.871  12.414   5.648  0.5328 -0.3626 -0.3805
  899MOL0     C21262   4.902  12.472   5.775 -0.8614 -0.1685  0.2146
  899MOL0     C21263   5.032  12.510   5.797  0.1287  0.2539 -0.7332
  899MOL0     C21264   5.138  12.494   5.702  0.3478  0.3126 -1.2439
  899MOL0     O21265   5.256  12.553   5.745  0.7390  0.4230  0.1279
  899MOL0     C21266   5.372  12.523   5.667  0.2256  0.9071  0.2722
  899MOL0     C21267   5.500  12.536   5.760 -0.4897 -0.0729 -0.0914
  899MOL0     C21268   5.620  12.543   5.667 -0.5886 -0.1560  0.5435
  899MOL0     C21269   5.750  12.511   5.734  0.2009  1.0540 -0.7287
  899MOL0     C21270   5.867  12.539   5.640  0.2369  0.3857 -0.2438
  899MOL0     C21271   5.990  12.578   5.720  0.1106 -0.1896 -0.0605
  899MOL0     C21272   6.122  12.598   5.641  0.4296  0.2027  0.2366
  899MOL0     C21273   6.195  12.482   5.576  1.0795  0.0178  0.0026
  899MOL0    Cl21274   6.358  12.533   5.552  0.0530  0.0351  0.2750
  899MOL0     C21275   5.107  12.437   5.579  0.8815  0.3856 -0.5439
  899MOL0     C21276   4.980  12.390   5.555 -0.1928 -0.0254  0.1818
  899MOL0     O21277   4.804  12.164   5.608  0.2929  0.9620  0.5285
  899MOL0     C21278   4.550  12.069   5.591 -0.1869  0.2301 -0.3114
  899MOL0     C21279   4.420  12.023   5.595 -0.6782  0.0238 -0.3409
  899MOL0     N21280   4.115  11.511   5.956  0.8414 -0.2266 -0.0292
  899MOL0     N21281   4.105  11.413   6.044 -0.5569 -0.0918  0.6079
  899MOL0     C21282   2.950  11.260   6.335  0.4426  0.4547  0.4091
  899MOL0     C21283   2.814  11.265   6.355  0.1896 -0.5749 -0.2759
  899MOL0     C21284   2.370  11.205   6.280 -0.3430  0.5612 -0.6029
  899MOL0     C21285   2.278  11.087   6.286 -0.0870  0.0360 -0.2207
  899MOL0     C21286   2.144  11.111   6.291  0.2649  0.5338  0.3722
  899MOL0     C21287   2.088  11.236   6.305 -0.1003 -0.0621  0.7515
  899MOL0     O21288   1.958  11.248   6.314  1.3610  0.1887 -0.3418
  899MOL0     C21289   1.889  11.356   6.247 -1.0463  0.8732 -0.4294
  899MOL0     C21290   1.776  11.294   6.166  1.3017 -0.0133  0.3360
  899MOL0     C21291   1.686  11.403   6.113  0.4413  0.3543  0.7204
  899MOL0     C21292   1.573  11.340   6.024 -0.5219  0.5863  0.1498
  899MOL0     C21293   1.485  11.245   6.099 -0.0432  0.9336 -0.1233
  899MOL0     C21294   1.435  11.154   6.163  0.1085  0.0532 -0.0663
  899MOL0     C21295   2.176  11.342   6.301  0.3035  0.0943 -0.8460
  899MOL0     C21296   2.309  11.333   6.282  0.2083 -0.3704 -0.6324
  899MOL0     C21297   2.384  11.466   6.290 -0.0044  0.0822 -0.4149
  899MOL0     H21298   2.715  11.278   6.034  0.4956 -2.2331 -0.8107
  899MOL0     H21299   2.954  11.281   6.000 -0.6425 -2.0026  0.1322
  899MOL0     H21300   3.169  11.405   6.317  3.0159  0.6764  1.5023
  899MOL0     H21301   3.242  11.253   6.371  0.4393  0.7922  0.6140
  899MOL0     H21302   3.351  11.410   6.134 -0.0385 -0.4867  0.9912
  899MOL0     H21303   3.395  11.246   6.190 -0.5709 -1.8189 -0.0287
  899MOL0     H21304   3.444  11.352   6.421  2.0473 -1.0837  0.4395
  899MOL0     H21305   3.396  11.504   6.342 -1.5111 -1.1640  0.2388
  899MOL0     H21306   3.632  11.331   6.230 -3.1419 -0.4340 -1.5315
  899MOL0     H21307   3.593  11.491   6.190  3.5436 -0.5177 -0.5266
  899MOL0     H21308   3.627  11.568   6.416  0.5389 -0.4500 -0.2952
  899MOL0     H21309   3.674  11.395   6.466  3.2534  0.2115 -0.0234
  899MOL0     H21310   3.815  11.567   6.258 -0.5818  0.5402  0.4647
  899MOL0     H21311   3.872  11.547   6.421 -1.8641 -2.0720  1.5633
  899MOL0     H21312   3.848  11.306   6.217  0.6810  0.2211 -1.1323
  899MOL0     H21313   3.877  11.292   6.387  4.5926  0.4231  0.9999
  899MOL0     H21314   4.084  11.428   6.376  1.2446  0.3448 -1.0016
  899MOL0     H21315   4.078  11.278   6.274 -2.2265 -1.5940  1.1964
  899MOL0     H21316   4.042  11.659   6.247  0.0505  0.4143 -1.0440
  899MOL0     H21317   4.006  11.811   6.004 -2.6459 -2.9633 -1.4117
  899MOL0     H21318   4.180  11.815   6.028 -0.1338 -3.3557  0.6195
  899MOL0     H21319   4.207  11.733   5.783 -2.4023 -0.7405 -3.5500
  899MOL0     H21320   4.031  11.756   5.774  1.0206  1.5696 -2.1360
  899MOL0     H21321   4.242  11.963   5.824  1.2693 -0.7902 -0.5802
  899MOL0     H21322   4.063  11.992   5.837  0.0562 -0.9106  1.3444
  899MOL0     H21323   4.032  11.915   5.595 -0.3593  0.5204  0.3060
  899MOL0     H21324   4.199  11.869   5.584 -1.0206 -1.6085 -1.2692
  899MOL0     H21325   4.243  12.309   5.585 -0.9369 -0.9453 -0.0159
  899MOL0     H21326   4.480  12.404   5.581 -2.7183  1.4566 -2.5016
  899MOL0     H21327   4.821  12.494   5.843 -1.3911 -1.8666  0.1949
  899MOL0     H21328   5.052  12.559   5.892  0.2367 -1.7513  0.3366
  899MOL0     H21329   5.369  12.418   5.639 -2.4066 -0.3621  4.3748
  899MOL0     H21330   5.390  12.590   5.583  1.0087  1.8436  1.1554
  899MOL0     H21331   5.494  12.625   5.823  1.5574  0.1546 -0.1340
  899MOL0     H21332   5.513  12.454   5.831  2.1676 -1.9256 -2.4602
  899MOL0     H21333   5.608  12.482   5.577  0.9041  3.6197 -2.4974
  899MOL0     H21334   5.625  12.644   5.624 -0.2477 -1.0075 -1.4861
  899MOL0     H21335   5.748  12.408   5.771  1.0166  1.8512  1.7948
  899MOL0     H21336   5.767  12.574   5.822 -2.2828 -0.3575  0.8885
  899MOL0     H21337   5.849  12.621   5.570 -0.5818 -0.9759 -1.6940
  899MOL0     H21338   5.893  12.445   5.590 -2.3320 -0.5659  0.0776
  899MOL0     H21339   5.964  12.666   5.780 -1.6225  0.4208 -1.6064
  899MOL0     H21340   6.028  12.501   5.788 -0.8291 -1.4795 -0.9536
  899MOL0     H21341   6.195  12.638   5.712  1.9032 -0.9692 -0.5483
  899MOL0     H21342   6.097  12.670   5.562  3.3829  0.9983 -0.0940
  899MOL0     H21343   6.190  12.389   5.634 -3.3697 -0.3277 -0.5547
  899MOL0     H21344   6.148  12.465   5.478  0.9059  0.0253  0.0846
  899MOL0     H21345   5.197  12.418   5.521  2.8694  0.9270  2.1580
  899MOL0     H21346   4.954  12.347   5.459 -1.5904  3.8217 -1.3655
  899MOL0     H21347   4.626  11.992   5.601  0.5152  0.5803 -2.3739
  899MOL0     H21348   4.404  11.916   5.604 -1.4638  0.2336  1.0279
  899MOL0     H21349   3.016  11.253   6.422  0.0729  1.1286  0.7555
  899MOL0     H21350   2.775  11.254   6.456  1.4146 -0.6508  0.2078
  899MOL0     H21351   2.318  10.987   6.278 -1.1032 -0.5139  1.1384
  899MOL0     H21352   2.081  11.025   6.308 -0.8340  1.5730  1.8848
  899MOL0     H21353   1.952  11.403   6.171 -0.1623 -1.6832 -1.3625
  899MOL0     H21354   1.853  11.431   6.318 -0.4402  0.3502  0.4562
  899MOL0     H21355   1.726  11.225   6.235  3.3180 -1.1301  0.7569
  899MOL0     H21356   1.805  11.233   6.080 -2.8887 -1.3158 -0.3680
  899MOL0     H21357   1.757  11.462   6.054  1.9874  1.2610  3.3351
  899MOL0     H21358   1.650  11.474   6.187  1.7314  1.4414  0.3404
  899MOL0     H21359   1.517  11.422   5.978  0.9060  1.6341  0.1759
  899MOL0     H21360   1.625  11.284   5.947 -2.7170 -2.9539  1.0224
  899MOL0     H21361   1.375  11.084   6.217  1.6009 -0.5170  0.9141
  899MOL0     H21362   2.129  11.439   6.316 -1.5632 -0.5545 -2.1098
  899MOL0     H21363   2.312  11.547   6.308 -2.0327 -1.5713 -0.7298
  899MOL0     H21364   2.453  11.456   6.374  1.5375  0.2459 -1.6279
  899MOL0     H21365   2.452  11.496   6.211  1.5012  0.1051  0.8398
  900MOL0     O21366   2.503   0.888   1.239  0.5572 -0.6580  0.7030
  900MOL0     C21367   2.494   0.887   1.117 -0.2174  0.6048  0.3591
  900MOL0     O21368   2.593   0.929   1.038 -0.5321 -0.1461  0.2259
  900MOL0     C21369   2.707   0.984   1.103  0.9085  0.0819  0.4825
  900MOL0     C21370   2.831   0.924   1.094 -1.0258  0.2830  0.2259
  900MOL0     C21371   2.954   0.973   1.148 -0.2093  0.0285  0.2938
  900MOL0     C21372   2.952   1.093   1.216  0.2622 -0.0326 -0.4726
  900MOL0     O21373   3.065   1.141   1.279 -0.3514  0.3117  0.0646
  900MOL0     C21374   3.193   1.164   1.223  0.6353 -0.6330  0.1518
  900MOL0     C21375   3.303   1.138   1.322 -0.0557 -0.1316  0.1897
  900MOL0     C21376   3.448   1.139   1.269  0.4050  0.3032 -0.1533
  900MOL0     C21377   3.546   1.063   1.366  0.3934  0.6775  0.0874
  900MOL0     C21378   3.680   1.084   1.303 -0.2828  0.6170  0.4763
  900MOL0     C21379   3.798   1.054   1.396  0.4426  0.0834 -0.3463
  900MOL0     C21380   3.830   0.910   1.425  0.4247  0.1504 -0.5457
  900MOL0     C21381   3.951   0.888   1.516  0.2403  0.2729 -0.0136
  900MOL0     N21382   4.066   0.973   1.470 -0.3904  0.4662  0.0649
  900MOL0     C21383   4.152   0.948   1.361  0.0719 -0.5658 -0.4178
  900MOL0     C21384   4.249   1.049   1.361  0.5544  0.1589  0.5512
  900MOL0     C21385   4.354   1.055   1.252  0.6215  0.0022 -0.3091
  900MOL0     C21386   4.490   1.032   1.326  0.9483  0.1831  0.4592
  900MOL0     C21387   4.501   0.890   1.380 -0.4853  0.2638  0.6812
  900MOL0     C21388   4.635   0.860   1.445 -0.0490 -0.2130  0.3986
  900MOL0     O21389   4.746   0.870   1.353 -0.3105 -0.9007 -0.5689
  900MOL0     C21390   4.865   0.837   1.408 -0.4773 -0.5246 -0.0756
  900MOL0     C21391   4.890   0.797   1.544  0.2593 -0.5210 -0.1314
  900MOL0     C21392   5.008   0.756   1.598 -0.0182  0.7460  0.4660
  900MOL0     C21393   5.124   0.777   1.526 -0.4450  0.4918  0.5950
  900MOL0     C21394   5.262   0.741   1.576  0.3443  0.0503  0.3314
  900MOL0     O21395   5.362   0.802   1.510  0.0841  0.3628 -0.4640
  900MOL0     C21396   5.491   0.779   1.556 -0.0351  0.3722  0.0799
  900MOL0     C21397   5.563   0.673   1.501 -0.1193  0.1446 -0.1866
  900MOL0     C21398   5.692   0.652   1.552 -0.1232  0.0786  0.0325
  900MOL0     C21399   5.755   0.742   1.643 -0.1581 -0.2668 -0.8698
  900MOL0     O21400   5.870   0.706   1.710 -0.4164  0.4819  0.9105
  900MOL0     C21401   5.991   0.794   1.686  0.1160  0.1711 -0.6765
  900MOL0     C21402   6.114   0.712   1.698 -0.3192  0.2912  0.0226
  900MOL0     C21403   6.151   0.670   1.832 -0.2609  0.9267 -0.5347
  900MOL0     C21404   6.270   0.567   1.846 -0.7727 -0.5876  0.2256
  900MOL0     C21405   6.406   0.642   1.831 -0.0250 -0.7693 -0.3148
  900MOL0     C21406   6.516   0.535   1.809 -0.1125 -0.2385  0.1805
  900MOL0     C21407   6.660   0.590   1.828 -0.8717 -0.4577 -0.4232
  900MOL0     C21408   6.706   0.598   1.970  0.1560  0.0352  0.1637
  900MOL0    Cl21409   6.869   0.672   1.961  0.0069 -0.0181  0.0447
  900MOL0     C21410   5.680   0.846   1.694 -0.1076 -0.1060  0.4503
  900MOL0     C21411   5.551   0.863   1.650  0.4398 -0.4488  0.8690
  900MOL0     O21412   5.272   0.674   1.675 -0.0847 -0.3119  0.4514
  900MOL0     C21413   5.116   0.826   1.390  0.9116 -0.0769 -0.1046
  900MOL0     C21414   4.983   0.859   1.335  0.2241 -0.8383 -1.1918
  900MOL0     N21415   4.221   1.136   1.471  0.7803 -0.0319  0.3992
  900MOL0     N21416   4.115   1.085   1.532  0.4005  0.0515 -0.2071
  900MOL0     C21417   2.827   1.152   1.228 -0.1578 -0.6578 -0.8594
  900MOL0     C21418   2.705   1.105   1.178  0.3417 -0.5669 -0.1891
  900MOL0     C21419   2.368   0.835   1.044  1.4778 -0.6805  0.3095
  900MOL0     C21420   2.383   0.815   0.903  0.2960 -0.2655 -0.5600
  900MOL0     C21421   2.276   0.766   0.831 -0.4276 -0.0057 -0.4191
  900MOL0     C21422   2.159   0.726   0.886 -0.0797 -0.5389  0.2734
  900MOL0     O21423   2.056   0.688   0.808 -0.1777  0.1878 -0.7185
  900MOL0     C21424   2.060   0.682   0.660  0.0066  0.0873  0.0519
  900MOL0     C21425   1.911   0.689   0.601 -0.1869 -0.1001 -0.3093
  900MOL0     C21426   1.825   0.587   0.663 -0.6153 -0.2714  0.4883
  900MOL0     C21427   1.681   0.600   0.611 -0.0383 -0.7901 -0.4084
  900MOL0     C21428   1.607   0.721   0.631  0.0606 -0.2768  0.6275
  900MOL0     C21429   1.540   0.822   0.642  0.4249 -0.5234  0.7480
  900MOL0     C21430   2.139   0.749   1.022  0.6642  0.0617 -1.1766
  900MOL0     C21431   2.241   0.803   1.100  0.2577 -0.0042 -0.4667
  900MOL0     C21432   2.217   0.820   1.248  0.5232  0.1490  0.2004
  900MOL0     H21433   2.846   0.825   1.053  1.4208  0.6056  0.2242
  900MOL0     H21434   3.034   0.900   1.140 -2.7554 -3.0807  0.8767
  900MOL0     H21435   3.198   1.108   1.129 -1.1387  0.0285 -0.3751
  900MOL0     H21436   3.199   1.271   1.206 -0.6224 -0.3956  1.0236
  900MOL0     H21437   3.287   1.038   1.362  1.8890 -1.0771 -1.2294
  900MOL0     H21438   3.284   1.210   1.403 -1.3701 -0.6675  0.3766
  900MOL0     H21439   3.469   1.246   1.260  2.8614  0.3086  3.5457
  900MOL0     H21440   3.440   1.089   1.172  2.3250  0.8036 -0.6048
  900MOL0     H21441   3.551   1.121   1.458  1.4866  2.3689 -0.9724
  900MOL0     H21442   3.521   0.958   1.383  1.8648 -0.0176 -1.6084
  900MOL0     H21443   3.692   1.008   1.226  0.8821  0.6728  0.5923
  900MOL0     H21444   3.694   1.189   1.274  3.4583  0.2590  0.5252
  900MOL0     H21445   3.883   1.096   1.342 -2.9659  2.3126 -4.6738
  900MOL0     H21446   3.783   1.110   1.489 -1.4304  1.5141 -1.4371
  900MOL0     H21447   3.847   0.851   1.334 -0.1067  0.7003 -1.0099
  900MOL0     H21448   3.746   0.864   1.478  1.0203  3.0690  3.3996
  900MOL0     H21449   3.939   0.922   1.620 -0.7405  2.7478 -0.8643
  900MOL0     H21450   3.977   0.782   1.522  1.6265  0.6240  4.6891
  900MOL0     H21451   4.142   0.855   1.304 -1.0978 -1.5748  1.3480
  900MOL0     H21452   4.334   0.983   1.173 -0.4347 -0.0824  0.0178
  900MOL0     H21453   4.343   1.157   1.214  0.5951  0.2383  0.3163
  900MOL0     H21454   4.578   1.034   1.260  0.7455 -1.4654  0.1067
  900MOL0     H21455   4.501   1.108   1.404  2.1372  0.2245  0.2740
  900MOL0     H21456   4.499   0.825   1.292  0.2388  1.6612 -0.4173
  900MOL0     H21457   4.427   0.854   1.452 -0.7970  1.6156  1.0672
  900MOL0     H21458   4.631   0.769   1.505 -0.6785  0.2776  1.1326
  900MOL0     H21459   4.642   0.931   1.528 -3.6695 -1.3594  1.8795
  900MOL0     H21460   4.808   0.781   1.614  0.6741 -0.1890  0.4339
  900MOL0     H21461   5.017   0.720   1.700  1.0406 -1.6817 -0.4134
  900MOL0     H21462   5.523   0.608   1.424  0.0924  1.6381 -1.6091
  900MOL0     H21463   5.758   0.575   1.512  2.5325  0.8688  2.5665
  900MOL0     H21464   5.998   0.826   1.582 -0.3551 -0.5144 -0.9328
  900MOL0     H21465   5.994   0.876   1.758 -0.5485 -1.1637  0.9383
  900MOL0     H21466   6.114   0.623   1.634  2.2350 -0.6536  1.2021
  900MOL0     H21467   6.193   0.773   1.653  2.3308 -2.5054  0.5162
  900MOL0     H21468   6.168   0.760   1.892 -2.0337 -0.1307  1.7442
  900MOL0     H21469   6.060   0.621   1.868 -0.3381 -0.8405 -2.9138
  900MOL0     H21470   6.270   0.482   1.776  1.2533 -1.6836  1.4545
  900MOL0     H21471   6.283   0.530   1.949  1.0349  1.2087  0.7216
  900MOL0     H21472   6.439   0.700   1.918  0.1493  0.1614 -0.9838
  900MOL0     H21473   6.404   0.713   1.748 -0.0676 -0.4640 -0.0527
  900MOL0     H21474   6.509   0.457   1.885  0.0985 -0.1127  0.3305
  900MOL0     H21475   6.514   0.487   1.711  1.0639 -2.1702  1.0355
  900MOL0     H21476   6.667   0.690   1.784 -1.4906 -0.6399 -0.9462
  900MOL0     H21477   6.731   0.528   1.773  1.4785  1.8892 -0.2562
  900MOL0     H21478   6.648   0.659   2.041 -2.6914 -1.9077 -0.3059
  900MOL0     H21479   6.715   0.493   2.000  0.8473 -1.0333 -3.3469
  900MOL0     H21480   5.730   0.906   1.770 -0.2307 -0.3057  0.6879
  900MOL0     H21481   5.493   0.945   1.693 -0.9000 -1.2005  0.5449
  900MOL0     H21482   5.202   0.840   1.325  0.3747  1.1539 -0.5898
  900MOL0     H21483   4.965   0.894   1.234 -0.7519 -1.5413 -1.2677
  900MOL0     H21484   2.829   1.245   1.284  3.1665 -1.2619  0.2993
  900MOL0     H21485   2.607   1.150   1.188 -1.2222 -3.3855 -1.3536
  900MOL0     H21486   2.473   0.846   0.850  0.4462  0.4492  0.1087
  900MOL0     H21487   2.302   0.753   0.727 -0.6846  0.5611 -0.5607
  900MOL0     H21488   2.119   0.593   0.637  0.3418  0.2262  0.3540
  900MOL0     H21489   2.124   0.762   0.622  1.3942 -1.4286 -0.9363
  900MOL0     H21490   1.915   0.678   0.492 -3.2932  1.0896 -0.6389
  900MOL0     H21491   1.873   0.791   0.613 -0.1328 -0.0663 -0.4263
  900MOL0     H21492   1.827   0.592   0.773  0.0272 -2.5305  0.6368
  900MOL0     H21493   1.870   0.490   0.640 -1.7483  0.0557 -4.0611
  900MOL0     H21494   1.688   0.587   0.503 -0.9272 -1.6356 -0.3770
  900MOL0     H21495   1.615   0.526   0.657 -2.2711  0.6528 -1.1225
  900MOL0     H21496   1.472   0.904   0.655 -0.4308 -1.2841  1.1329
  900MOL0     H21497   2.043   0.728   1.068  0.3870  1.9376 -0.8379
  900MOL0     H21498   2.118   0.802   1.290  0.9557  0.3501  1.3388
  900MOL0     H21499   2.274   0.743   1.301 -0.5246  0.9624  2.6473
  900MOL0     H21500   2.254   0.920   1.273 -0.8982  1.1689 -1.5710
  901MOL0     O21501   7.791   8.267  10.952  0.4827 -0.1974 -0.2608
  901MOL0     C21502   7.821   8.144  10.964 -0.5667 -0.3850  0.3867
  901MOL0     O21503   7.934   8.086  10.909 -0.6948  0.7185  0.0834
  901MOL0     C21504   8.022   8.165  10.825 -0.1617 -0.3292 -0.8492
  901MOL0     C21505   7.972   8.215  10.703 -0.2742 -0.5138 -0.4486
  901MOL0     C21506   8.068   8.259  10.610  0.5947 -0.2244 -0.0537
  901MOL0     C21507   8.206   8.278  10.650 -0.1095 -0.9271  0.0186
  901MOL0     O21508   8.282   8.337  10.553 -0.4803 -0.5620  0.3670
  901MOL0     C21509   8.427   8.328  10.571  0.3185  0.7263  0.2193
  901MOL0     C21510   8.492   8.379  10.439 -0.3210  0.0825  0.1156
  901MOL0     C21511   8.639   8.376  10.448 -0.4215  0.2027  0.9547
  901MOL0     C21512   8.688   8.434  10.312  0.1960  0.8698 -0.7249
  901MOL0     C21513   8.832   8.415  10.294 -0.2895 -0.2352  0.0718
  901MOL0     C21514   8.883   8.270  10.310  0.5263 -0.4373 -0.4979
  901MOL0     C21515   9.031   8.260  10.265  0.2164 -0.3134 -0.2566
  901MOL0     C21516   9.123   8.344  10.353 -0.0964 -0.1341  0.1404
  901MOL0     N21517   9.258   8.334  10.307 -0.6057  0.0471  0.4781
  901MOL0     C21518   9.331   8.430  10.245 -0.4574 -0.6615 -0.4187
  901MOL0     C21519   9.446   8.376  10.202  0.1746 -0.3094  0.0952
  901MOL0     C21520   9.553   8.458  10.130 -0.0566  0.3167  0.2200
  901MOL0     C21521   9.570   8.444   9.978  0.2660 -1.3793 -0.3212
  901MOL0     C21522   9.546   8.303   9.924  0.2753  0.4438  1.0267
  901MOL0     C21523   9.578   8.279   9.775 -0.2385  0.3020  0.3900
  901MOL0     O21524   9.694   8.357   9.737 -0.2295 -0.6277 -0.6136
  901MOL0     C21525   9.819   8.309   9.766 -0.0820  0.4653  0.4289
  901MOL0     C21526   9.851   8.194   9.839  0.4842 -0.1148 -0.1896
  901MOL0     C21527   9.979   8.154   9.862 -0.2287 -0.1564  0.9292
  901MOL0     C21528  10.088   8.216   9.804  0.2735 -0.2240 -1.0539
  901MOL0     C21529  10.220   8.160   9.831  0.9472  0.0883 -0.4789
  901MOL0     O21530  10.319   8.189   9.745  0.0614  0.0206  0.0076
  901MOL0     C21531  10.443   8.164   9.790 -0.5531  0.0111 -0.1665
  901MOL0     C21532  10.533   8.122   9.685 -0.1948 -0.1363  0.2161
  901MOL0     C21533  10.671   8.120   9.712 -0.5339  1.5835  0.0384
  901MOL0     C21534  10.724   8.129   9.836  0.1843 -0.2292 -0.5707
  901MOL0     O21535  10.858   8.136   9.867  0.4120  0.0215 -0.3459
  901MOL0     C21536  10.950   8.196   9.780  0.1574  0.3423  0.6041
  901MOL0     C21537  11.095   8.174   9.826 -0.6205 -0.0878 -0.4630
  901MOL0     C21538  11.144   8.273   9.941  0.7077 -0.0874 -0.1558
  901MOL0     C21539  11.285   8.253   9.977  0.2679  0.6196 -0.4586
  901MOL0     C21540  11.332   8.350  10.090 -0.3227  0.4066  0.1857
  901MOL0     C21541  11.475   8.303  10.121  1.2472 -0.4063 -0.2575
  901MOL0     C21542  11.523   8.354  10.262  0.9431 -0.2087  0.0381
  901MOL0     C21543  11.679   8.390  10.261  0.0721 -0.1058  1.0132
  901MOL0    Cl21544  11.685   8.554  10.201 -0.3806  0.3372  0.1131
  901MOL0     C21545  10.635   8.165   9.940 -0.6734  0.4361  0.2075
  901MOL0     C21546  10.492   8.178   9.922 -0.9102 -0.6606 -0.2303
  901MOL0     O21547  10.222   8.086   9.930  0.1301  0.0450  0.4549
  901MOL0     C21548  10.060   8.334   9.734  0.4609  0.1430 -0.3038
  901MOL0     C21549   9.926   8.378   9.711 -0.4156 -0.2791  0.6513
  901MOL0     N21550   9.446   8.249  10.239 -0.2470  0.6088  0.2883
  901MOL0     N21551   9.334   8.219  10.298 -0.6259 -0.5311 -0.0352
  901MOL0     C21552   8.246   8.240  10.778  0.1881  0.3327  0.6497
  901MOL0     C21553   8.154   8.190  10.870 -0.0374  0.8130 -0.1735
  901MOL0     C21554   7.743   8.043  11.047  0.2186 -0.9067  0.9409
  901MOL0     C21555   7.797   7.920  11.075 -0.0122  0.0356  0.4203
  901MOL0     C21556   7.731   7.823  11.150  0.2998  0.0130  0.1236
  901MOL0     C21557   7.609   7.843  11.196 -0.2081  0.3879  0.5582
  901MOL0     O21558   7.548   7.737  11.265 -0.2096 -0.1053 -0.6396
  901MOL0     C21559   7.414   7.761  11.311 -1.5798  0.0334 -0.5585
  901MOL0     C21560   7.317   7.726  11.198  0.0923 -0.2296 -0.1552
  901MOL0     C21561   7.329   7.578  11.172  0.4464  0.5672 -0.4628
  901MOL0     C21562   7.253   7.543  11.049 -0.1965 -0.2766 -0.0183
  901MOL0     C21563   7.269   7.404  10.996 -0.0948 -0.0916 -0.1996
  901MOL0     C21564   7.278   7.299  10.944  0.7847  0.3744 -0.3119
  901MOL0     C21565   7.549   7.966  11.156 -0.1186 -0.3298 -0.3273
  901MOL0     C21566   7.618   8.070  11.085 -0.5598  0.0189 -1.1241
  901MOL0     C21567   7.540   8.201  11.058  0.3759 -0.5777  0.4261
  901MOL0     H21568   7.867   8.191  10.691 -0.6845  0.8108  0.3155
  901MOL0     H21569   8.017   8.296  10.522 -2.0719 -1.9030  0.6459
  901MOL0     H21570   8.465   8.391  10.652  0.2255  0.0542  0.7894
  901MOL0     H21571   8.469   8.228  10.585  0.5578  0.5132 -1.7431
  901MOL0     H21572   8.453   8.482  10.432 -2.5603 -0.6536  0.8539
  901MOL0     H21573   8.462   8.318  10.353  2.2069  1.6945 -2.0596
  901MOL0     H21574   8.677   8.274  10.455  2.8561  1.1349 -1.2993
  901MOL0     H21575   8.672   8.440  10.530 -0.1881 -0.9031  1.7335
  901MOL0     H21576   8.628   8.384  10.235 -0.8192 -3.3779  2.4548
  901MOL0     H21577   8.667   8.542  10.313  1.3395  1.1438  1.6598
  901MOL0     H21578   8.850   8.449  10.191  0.7032 -0.5948  0.1154
  901MOL0     H21579   8.893   8.480  10.357  0.4651 -0.9435  0.0994
  901MOL0     H21580   8.877   8.238  10.414  1.8195  1.0254  0.0599
  901MOL0     H21581   8.815   8.205  10.253 -1.1202  1.7039 -1.1087
  901MOL0     H21582   9.041   8.292  10.161  1.1332  0.9916  0.2120
  901MOL0     H21583   9.059   8.154  10.271  3.1767  0.4218  0.5704
  901MOL0     H21584   9.094   8.448  10.366  0.8544  0.2298 -0.5654
  901MOL0     H21585   9.113   8.299  10.453 -1.5262 -1.1072 -0.3918
  901MOL0     H21586   9.304   8.534  10.232  0.1779 -0.8467 -4.2444
  901MOL0     H21587   9.546   8.564  10.154  3.3905  0.0566  3.1333
  901MOL0     H21588   9.647   8.418  10.170 -0.1331 -0.1595 -0.0703
  901MOL0     H21589   9.502   8.508   9.921  0.7121 -0.7116 -0.1162
  901MOL0     H21590   9.672   8.474   9.953 -0.1036 -0.7133 -1.0630
  901MOL0     H21591   9.440   8.277   9.938  0.4882 -0.9339  0.2831
  901MOL0     H21592   9.604   8.235   9.988  1.4140 -0.4670 -0.8995
  901MOL0     H21593   9.487   8.303   9.718 -2.2978 -2.2170  2.3932
  901MOL0     H21594   9.600   8.177   9.744 -2.2398  0.1337 -0.6365
  901MOL0     H21595   9.775   8.136   9.889  0.2459  1.9379  1.9778
  901MOL0     H21596   9.994   8.067   9.925 -0.8958 -1.2957 -0.4223
  901MOL0     H21597  10.499   8.113   9.582 -4.1132 -2.2368  1.5025
  901MOL0     H21598  10.728   8.098   9.622 -0.0089 -0.1758  0.7630
  901MOL0     H21599  10.946   8.147   9.682  0.6282  1.0266  0.2335
  901MOL0     H21600  10.934   8.302   9.762  3.1659  0.2760 -4.4085
  901MOL0     H21601  11.110   8.072   9.860  1.5706 -0.2231 -1.6811
  901MOL0     H21602  11.158   8.195   9.739  0.6371  0.6430  0.5885
  901MOL0     H21603  11.133   8.375   9.903  2.1303 -0.2966 -1.2346
  901MOL0     H21604  11.091   8.261  10.036 -0.0714  2.1236 -0.2654
  901MOL0     H21605  11.347   8.262   9.888  2.8208  1.0681  1.2774
  901MOL0     H21606  11.303   8.149  10.006  1.0663  0.1197 -2.5345
  901MOL0     H21607  11.271   8.329  10.180 -0.7799  1.8278  0.2214
  901MOL0     H21608  11.336   8.453  10.055  0.3158  0.2885 -0.0937
  901MOL0     H21609  11.483   8.194  10.128 -0.4657 -0.5874 -0.6181
  901MOL0     H21610  11.539   8.340  10.041 -1.8207  0.2439 -2.6061
  901MOL0     H21611  11.501   8.280  10.340 -0.1546  0.3944  0.3269
  901MOL0     H21612  11.459   8.437  10.292  1.1511 -0.4810  1.2623
  901MOL0     H21613  11.722   8.379  10.361  1.7081  0.5612  0.4233
  901MOL0     H21614  11.736   8.328  10.192 -2.1109 -1.1640  0.0727
  901MOL0     H21615  10.672   8.196  10.038 -2.7935  1.1309  0.8335
  901MOL0     H21616  10.422   8.207  10.000 -1.9335 -2.2671 -0.4987
  901MOL0     H21617  10.148   8.375   9.685 -0.5323  0.9947 -1.4087
  901MOL0     H21618   9.910   8.470   9.655  1.9217 -0.0594  0.2309
  901MOL0     H21619   8.349   8.253  10.810 -0.6466  2.2248  2.8110
  901MOL0     H21620   8.181   8.156  10.970 -0.2775  2.4091  0.4638
  901MOL0     H21621   7.892   7.882  11.038  0.2830  1.5706 -0.5074
  901MOL0     H21622   7.770   7.726  11.179 -2.7544 -1.3919 -0.1317
  901MOL0     H21623   7.393   7.857  11.359 -0.4273  0.0504 -0.0306
  901MOL0     H21624   7.394   7.692  11.394 -1.4918  1.4931  0.7260
  901MOL0     H21625   7.332   7.781  11.104 -0.7451 -0.8311 -0.6531
  901MOL0     H21626   7.212   7.739  11.224 -0.1841  0.2810 -1.4684
  901MOL0     H21627   7.274   7.523  11.248  0.4430 -0.5846 -1.2671
  901MOL0     H21628   7.432   7.544  11.163  0.0972 -0.0870 -2.8318
  901MOL0     H21629   7.148   7.571  11.045 -0.3002 -0.0736  2.3802
  901MOL0     H21630   7.303   7.602  10.972 -1.3956 -0.5407 -1.0215
  901MOL0     H21631   7.278   7.205  10.893  1.6284 -0.0769  0.4691
  901MOL0     H21632   7.444   7.984  11.178  0.4378  1.3424  1.3136
  901MOL0     H21633   7.557   8.226  10.953  3.1723  0.5824  1.0543
  901MOL0     H21634   7.433   8.191  11.079  1.0461 -0.7470  4.7062
  901MOL0     H21635   7.562   8.278  11.133  0.5351  1.7204 -1.8548
  902MOL0     O21636   0.326   6.788   9.560  0.4869 -0.4772 -0.3865
  902MOL0     C21637   0.340   6.712   9.466  0.3678 -0.2860 -0.3799
  902MOL0     O21638   0.457   6.647   9.424 -0.0217  0.6778 -0.1535
  902MOL0     C21639   0.576   6.661   9.484 -0.6388  0.0039  0.1885
  902MOL0     C21640   0.647   6.545   9.504  0.7173 -0.1307 -0.2812
  902MOL0     C21641   0.782   6.540   9.552  0.1617 -0.7303 -0.4292
  902MOL0     C21642   0.835   6.661   9.585 -0.0882  0.4221 -0.0375
  902MOL0     O21643   0.963   6.677   9.628 -0.1472 -0.3541  0.2664
  902MOL0     C21644   0.998   6.589   9.730 -1.2721 -0.1408 -0.3091
  902MOL0     C21645   1.121   6.651   9.805 -0.0762  0.0445 -0.5463
  902MOL0     C21646   1.161   6.578   9.932  0.3536  0.2212  0.0581
  902MOL0     C21647   1.278   6.663   9.980 -0.2857 -0.6726 -0.1672
  902MOL0     C21648   1.345   6.590  10.100 -0.9354  0.5839 -0.1584
  902MOL0     C21649   1.467   6.660  10.154  0.0797 -0.3459  0.2136
  902MOL0     C21650   1.536   6.588  10.261 -0.3540 -0.8707 -0.9418
  902MOL0     C21651   1.670   6.652  10.292  0.3307 -0.6194  0.4857
  902MOL0     N21652   1.770   6.582  10.378 -0.0929 -0.1899 -0.2883
  902MOL0     C21653   1.755   6.540  10.512 -0.4466 -1.2883 -0.3571
  902MOL0     C21654   1.863   6.476  10.555 -0.3226  0.3662 -0.7279
  902MOL0     C21655   1.882   6.420  10.695  0.1486 -0.1496 -0.5427
  902MOL0     C21656   1.955   6.518  10.789  0.5319  0.2423 -0.1710
  902MOL0     C21657   1.961   6.465  10.937 -0.1428  1.2009 -0.0660
  902MOL0     C21658   2.034   6.563  11.026 -0.2158 -0.2198  0.2552
  902MOL0     O21659   2.159   6.590  10.971  0.2300 -0.4305  0.3662
  902MOL0     C21660   2.254   6.495  10.972 -0.0669 -1.1292  0.3778
  902MOL0     C21661   2.368   6.530  10.894  0.6600  0.4112 -0.7053
  902MOL0     C21662   2.471   6.440  10.880 -0.2177  0.1166  0.2287
  902MOL0     C21663   2.475   6.313  10.944  0.2810  0.7818 -0.0583
  902MOL0     C21664   2.598   6.223  10.933 -0.7054 -1.6611  0.5191
  902MOL0     O21665   2.690   6.270  10.839  0.3966  0.6743 -0.8959
  902MOL0     C21666   2.818   6.226  10.853 -0.5263 -0.3086  0.1586
  902MOL0     C21667   2.921   6.324  10.852  0.3441 -0.2247 -0.1297
  902MOL0     C21668   3.060   6.293  10.834  0.8735  0.2342 -0.1204
  902MOL0     C21669   3.094   6.160  10.822 -0.8517  0.1631 -0.4653
  902MOL0     O21670   3.220   6.133  10.799  0.1558  0.0683 -0.9716
  902MOL0     C21671   3.241   6.017  10.715 -0.3146 -0.6097  0.0995
  902MOL0     C21672   3.393   6.011  10.705  0.2704  0.2789  0.1754
  902MOL0     C21673   3.460   5.994  10.839 -0.1717 -0.1712  0.0156
  902MOL0     C21674   3.596   5.919  10.840  0.1732 -0.1289  1.1442
  902MOL0     C21675   3.678   5.931  10.967  0.2394 -0.0734  0.3551
  902MOL0     C21676   3.813   5.862  10.954  0.3430  0.2133 -0.0185
  902MOL0     C21677   3.888   5.879  11.088 -0.8579 -0.2523 -0.2901
  902MOL0     C21678   4.044   5.874  11.066 -0.3389 -0.0646 -0.4672
  902MOL0    Cl21679   4.151   5.885  11.212 -0.1252  0.0508  0.0798
  902MOL0     C21680   2.995   6.062  10.838  1.0866  0.1508 -0.3456
  902MOL0     C21681   2.855   6.094  10.848 -0.5306  0.3800 -0.0601
  902MOL0     O21682   2.617   6.136  11.012 -0.8125  0.0372  0.5423
  902MOL0     C21683   2.361   6.285  11.027  0.1834 -0.3541  0.0188
  902MOL0     C21684   2.253   6.372  11.031  0.9296  0.7800 -0.2227
  902MOL0     N21685   1.949   6.481  10.443 -0.2075 -0.7288  0.0313
  902MOL0     N21686   1.896   6.545  10.347  0.4223 -0.7145  0.2766
  902MOL0     C21687   0.774   6.776   9.548  0.7802  0.1344  0.4340
  902MOL0     C21688   0.647   6.780   9.502  1.3384  0.3310 -0.8532
  902MOL0     C21689   0.217   6.708   9.377  0.1921 -0.0044  0.3886
  902MOL0     C21690   0.226   6.623   9.272 -0.1498  0.0631 -0.0014
  902MOL0     C21691   0.122   6.602   9.187 -0.0033 -0.4950  0.0745
  902MOL0     C21692  -0.001   6.675   9.199  0.2070  0.8489  0.0062
  902MOL0     O21693  -0.115   6.671   9.110  0.1511 -0.2242  0.4356
  902MOL0     C21694  -0.099   6.590   8.992  0.3198 -0.3268  0.5402
  902MOL0     C21695  -0.135   6.442   9.014 -0.4640 -0.8628  0.2569
  902MOL0     C21696  -0.289   6.431   9.031  0.0038  0.1711 -0.0466
  902MOL0     C21697  -0.342   6.282   9.027 -0.0289  0.0809  0.8021
  902MOL0     C21698  -0.487   6.282   9.046 -0.5063 -0.0804  0.0641
  902MOL0     C21699  -0.609   6.286   9.069 -0.3954 -0.6763  0.2843
  902MOL0     C21700  -0.016   6.761   9.305  0.0162  0.2578 -0.3543
  902MOL0     C21701   0.093   6.781   9.400 -0.3229  0.6012 -0.1592
  902MOL0     C21702   0.054   6.877   9.515  0.4455  0.7725  1.3338
  902MOL0     H21703   0.590   6.454   9.487 -2.0447  1.2328  0.9478
  902MOL0     H21704   0.842   6.451   9.569  2.8226  1.4068  2.8536
  902MOL0     H21705   0.910   6.565   9.791 -1.5555  0.5067 -0.4532
  902MOL0     H21706   1.030   6.491   9.694 -2.4785 -1.1490  1.2260
  902MOL0     H21707   1.113   6.759   9.821  2.3004  0.4025 -1.4268
  902MOL0     H21708   1.207   6.644   9.738  1.0119  0.2752  0.7785
  902MOL0     H21709   1.197   6.476   9.913 -0.8022  0.1101 -1.8317
  902MOL0     H21710   1.082   6.572  10.007 -0.1401  0.3517 -0.4407
  902MOL0     H21711   1.356   6.679   9.904 -1.0404  2.7085 -0.3920
  902MOL0     H21712   1.248   6.764  10.010  2.0081  0.9008 -2.5812
  902MOL0     H21713   1.275   6.574  10.182 -0.6268  0.5916  0.1113
  902MOL0     H21714   1.379   6.491  10.067 -1.3049  0.4605 -0.1710
  902MOL0     H21715   1.532   6.685  10.069 -3.0181  0.7894 -2.0409
  902MOL0     H21716   1.432   6.758  10.189  0.2944 -0.7100  1.4979
  902MOL0     H21717   1.549   6.483  10.233 -1.6545 -1.3847  0.3129
  902MOL0     H21718   1.471   6.605  10.347  0.3538  1.2265 -0.7527
  902MOL0     H21719   1.725   6.671  10.199  3.8092  0.3855  2.5428
  902MOL0     H21720   1.637   6.746  10.337 -0.6372 -0.2932 -0.8284
  902MOL0     H21721   1.668   6.562  10.574  1.4158  2.2180  1.3142
  902MOL0     H21722   1.792   6.380  10.743  1.8790  0.0609  3.1725
  902MOL0     H21723   1.951   6.336  10.685  1.2551  0.6910 -0.1118
  902MOL0     H21724   2.053   6.546  10.750  1.8926 -1.3851  1.8493
  902MOL0     H21725   1.901   6.612  10.801  2.9274  1.8122 -0.9410
  902MOL0     H21726   2.017   6.371  10.934  0.8649  1.7673  0.5443
  902MOL0     H21727   1.858   6.463  10.974  0.3946 -0.3843  1.4551
  902MOL0     H21728   2.059   6.526  11.126  0.2550 -0.8400 -0.0847
  902MOL0     H21729   1.981   6.659  11.024  1.6791  0.8471 -1.1862
  902MOL0     H21730   2.366   6.625  10.842 -1.8374 -0.2665 -1.9908
  902MOL0     H21731   2.558   6.471  10.823 -0.8239 -0.2161 -0.9101
  902MOL0     H21732   2.898   6.431  10.859 -0.6424 -0.2958 -1.7539
  902MOL0     H21733   3.135   6.371  10.828 -1.3505  2.4729 -0.8519
  902MOL0     H21734   3.206   5.920  10.750 -0.9383 -0.1972  0.6446
  902MOL0     H21735   3.222   6.038  10.609  2.2554  2.1454  0.0473
  902MOL0     H21736   3.422   5.922  10.649 -1.0089  0.6260 -1.1094
  902MOL0     H21737   3.425   6.100  10.650 -0.5490  0.2860 -0.3071
  902MOL0     H21738   3.472   6.092  10.886 -0.6463 -0.3379  0.4942
  902MOL0     H21739   3.391   5.935  10.900 -2.7415  1.0979 -1.5148
  902MOL0     H21740   3.654   5.956  10.754  0.8084  0.1472  1.6820
  902MOL0     H21741   3.572   5.813  10.827 -0.9470  0.3796 -1.6431
  902MOL0     H21742   3.624   5.875  11.044  1.9912 -2.9134 -0.3436
  902MOL0     H21743   3.696   6.035  10.994  2.0762 -0.6327  1.4448
  902MOL0     H21744   3.794   5.755  10.938 -1.2425  0.4855 -0.1404
  902MOL0     H21745   3.867   5.898  10.865 -2.8781  1.1255 -1.7606
  902MOL0     H21746   3.849   5.801  11.154  0.2347  0.2382  0.9834
  902MOL0     H21747   3.863   5.974  11.137 -1.5760  0.7628 -2.5127
  902MOL0     H21748   4.065   5.775  11.024 -1.8677 -1.3903  1.6329
  902MOL0     H21749   4.065   5.951  10.991  1.2309 -0.6931 -0.7082
  902MOL0     H21750   3.011   5.955  10.831  1.3217  0.2598 -1.7973
  902MOL0     H21751   2.779   6.017  10.846 -1.0702  0.9080 -0.1400
  902MOL0     H21752   2.374   6.195  11.088  1.4071  0.4910  1.0722
  902MOL0     H21753   2.168   6.344  11.093 -0.7816  1.3709 -2.1928
  902MOL0     H21754   0.814   6.873   9.574  1.9995  0.3468 -1.9871
  902MOL0     H21755   0.586   6.868   9.488  2.1065  1.3534  1.6051
  902MOL0     H21756   0.315   6.563   9.253  0.4445  0.3964  1.5596
  902MOL0     H21757   0.136   6.530   9.108 -0.2710 -0.1576 -0.2885
  902MOL0     H21758  -0.004   6.602   8.940 -0.2827 -2.2859 -1.1514
  902MOL0     H21759  -0.179   6.625   8.926 -0.3950 -0.6446  1.2171
  902MOL0     H21760  -0.085   6.417   9.108  0.8715  2.2019  0.4718
  902MOL0     H21761  -0.099   6.372   8.939  0.3422 -3.3008  2.7408
  902MOL0     H21762  -0.339   6.487   8.952 -1.4721 -1.5039 -0.3695
  902MOL0     H21763  -0.318   6.473   9.127 -0.9273  0.4981 -0.4601
  902MOL0     H21764  -0.319   6.229   8.934  1.6437 -1.1062  1.8394
  902MOL0     H21765  -0.308   6.219   9.110  2.3052  1.8089  1.2386
  902MOL0     H21766  -0.714   6.290   9.093  0.0932  2.5129  2.5911
  902MOL0     H21767  -0.108   6.819   9.314  0.5656  1.0660  0.2905
  902MOL0     H21768   0.114   6.968   9.518 -3.3418  3.6336 -0.8466
  902MOL0     H21769  -0.047   6.919   9.521  0.7539  1.4014  2.2784
  902MOL0     H21770   0.065   6.827   9.612  0.0859 -0.0355  0.9681
  903MOL0     O21771   8.654  11.194   6.788  0.2997 -0.1188 -0.0833
  903MOL0     C21772   8.607  11.100   6.857  0.1530 -0.5100  0.0210
  903MOL0     O21773   8.675  10.990   6.900 -0.8216 -0.3167  0.0776
  903MOL0     C21774   8.809  10.991   6.884  0.5487 -0.6192 -0.7847
  903MOL0     C21775   8.886  11.087   6.952 -0.3151  0.2589  0.2052
  903MOL0     C21776   9.024  11.102   6.925 -0.8893 -0.1051 -0.4058
  903MOL0     C21777   9.093  11.022   6.829  0.5773  0.2270 -0.4510
  903MOL0     O21778   9.226  11.016   6.795  0.7094 -0.6953 -0.0264
  903MOL0     C21779   9.311  11.124   6.840  0.5957  0.9620  0.0178
  903MOL0     C21780   9.458  11.098   6.820  0.5315  0.6997  0.5912
  903MOL0     C21781   9.542  11.197   6.903  1.0541 -0.5885  1.1706
  903MOL0     C21782   9.674  11.142   6.941  0.2130 -0.9066 -0.2989
  903MOL0     C21783   9.771  11.234   7.015  0.7652 -0.1316 -0.0524
  903MOL0     C21784   9.911  11.181   7.034 -0.0856  0.1602 -0.2965
  903MOL0     C21785   9.988  11.272   7.133  0.2690  0.0701 -0.6090
  903MOL0     C21786  10.134  11.243   7.137  0.3611 -0.2577 -0.5914
  903MOL0     N21787  10.161  11.118   7.197  0.5229  0.1889 -0.3040
  903MOL0     C21788  10.189  11.107   7.328 -0.2785 -0.5951  0.4028
  903MOL0     C21789  10.199  10.980   7.343 -0.3742  0.7872  0.1271
  903MOL0     C21790  10.208  10.911   7.481  0.5419 -0.2173  0.1288
  903MOL0     C21791  10.072  10.841   7.522  0.0951 -0.1865 -0.1916
  903MOL0     C21792   9.946  10.938   7.524 -0.1692 -0.1308  0.5747
  903MOL0     C21793   9.817  10.873   7.575  0.2037 -0.1578 -0.6415
  903MOL0     O21794   9.798  10.921   7.711 -0.3400 -0.1311  0.7789
  903MOL0     C21795   9.672  10.926   7.756 -0.1151  0.4744  0.2031
  903MOL0     C21796   9.573  10.825   7.741  0.4580 -0.6286  0.3651
  903MOL0     C21797   9.441  10.854   7.785 -0.6280 -0.2045  0.4603
  903MOL0     C21798   9.412  10.972   7.851  0.6388  0.4344  0.8036
  903MOL0     C21799   9.279  10.990   7.905 -0.7092 -0.3137  0.2883
  903MOL0     O21800   9.280  11.041   8.032 -0.2882  0.0195  1.1275
  903MOL0     C21801   9.167  11.036   8.109  0.0511 -0.0759  0.4909
  903MOL0     C21802   9.055  10.952   8.095  0.2398  0.6522 -0.1859
  903MOL0     C21803   8.956  10.943   8.193  1.1990  0.0080 -0.5083
  903MOL0     C21804   8.955  11.034   8.293  0.6110  0.8985  0.5678
  903MOL0     O21805   8.853  11.050   8.384 -0.4105 -1.1025 -0.2771
  903MOL0     C21806   8.733  10.986   8.355  0.2526 -0.5493  0.8070
  903MOL0     C21807   8.618  11.055   8.421  0.5081  0.9070  0.1421
  903MOL0     C21808   8.492  10.967   8.409 -0.3281 -0.6565  0.7145
  903MOL0     C21809   8.386  11.040   8.502 -0.6818  0.8374 -0.1966
  903MOL0     C21810   8.248  10.962   8.495  0.3058 -0.0152 -0.3999
  903MOL0     C21811   8.154  11.024   8.597  0.0893 -0.3642 -1.1056
  903MOL0     C21812   8.013  10.956   8.601  0.4641  0.9041  0.9452
  903MOL0     C21813   7.933  11.012   8.722  0.6701  0.2707  0.5479
  903MOL0    Cl21814   7.868  11.171   8.680 -0.2663  0.0429 -0.0708
  903MOL0     C21815   9.061  11.126   8.302 -0.1489  0.7854 -0.4541
  903MOL0     C21816   9.169  11.122   8.226  0.3422  0.0612  0.3834
  903MOL0     O21817   9.183  10.950   7.839  0.0417  0.3777 -0.3643
  903MOL0     C21818   9.510  11.068   7.877  0.4504 -0.6728  0.3125
  903MOL0     C21819   9.641  11.042   7.834 -0.3678  0.6734 -0.6235
  903MOL0     N21820  10.179  10.910   7.223 -0.0557 -0.1354  0.2253
  903MOL0     N21821  10.160  11.001   7.133  0.2643 -0.3628 -0.4859
  903MOL0     C21822   9.012  10.928   6.766  1.0170 -0.3058  0.0204
  903MOL0     C21823   8.875  10.908   6.796 -0.5100  0.0270  0.6341
  903MOL0     C21824   8.468  11.105   6.900  0.8252 -1.2720  0.2855
  903MOL0     C21825   8.429  11.028   7.012  0.5704 -0.5577 -0.9686
  903MOL0     C21826   8.297  11.007   7.042 -0.7654 -0.4934  0.1992
  903MOL0     C21827   8.195  11.069   6.970 -0.5227 -0.1785  0.5422
  903MOL0     O21828   8.071  11.059   7.018 -0.0233  0.0199 -0.7399
  903MOL0     C21829   8.054  11.094   7.161  0.8289 -0.6056 -0.0018
  903MOL0     C21830   7.915  11.145   7.180  0.3611  0.2563  0.2883
  903MOL0     C21831   7.878  11.171   7.330 -0.5787 -0.2887  0.5980
  903MOL0     C21832   7.743  11.250   7.346  0.4655  0.9920  0.8227
  903MOL0     C21833   7.729  11.283   7.490  0.3082  0.2618 -0.5037
  903MOL0     C21834   7.737  11.328   7.602  0.8580 -0.1010  0.7860
  903MOL0     C21835   8.227  11.150   6.855 -0.0578  0.3423  0.1997
  903MOL0     C21836   8.366  11.165   6.819  0.4731  0.4284 -0.1595
  903MOL0     C21837   8.393  11.234   6.688 -0.5253  0.8831 -0.1607
  903MOL0     H21838   8.830  11.153   7.017  1.5402  1.4982  0.6039
  903MOL0     H21839   9.072  11.183   6.978  0.9610 -0.7779 -0.9906
  903MOL0     H21840   9.285  11.218   6.792 -0.0109  0.0844 -1.4477
  903MOL0     H21841   9.289  11.139   6.946  0.1096  2.5683 -0.3000
  903MOL0     H21842   9.475  11.113   6.713 -5.8815  1.8691 -0.6845
  903MOL0     H21843   9.479  10.992   6.833  1.2594  0.9094  1.2438
  903MOL0     H21844   9.485  11.225   6.992  1.9605  3.7328  0.5905
  903MOL0     H21845   9.543  11.290   6.846 -1.8439 -0.5844  0.9971
  903MOL0     H21846   9.659  11.048   6.996  1.4871 -0.5482  0.7215
  903MOL0     H21847   9.726  11.110   6.850  1.1234  1.3923 -0.6455
  903MOL0     H21848   9.786  11.328   6.961 -2.1406  0.9184  0.8094
  903MOL0     H21849   9.730  11.250   7.115  2.4452 -1.4763  0.9124
  903MOL0     H21850   9.909  11.082   7.079 -0.6802  0.0614 -0.5389
  903MOL0     H21851   9.964  11.179   6.938  3.1309  0.7205  1.3043
  903MOL0     H21852   9.943  11.261   7.232  0.5952 -0.7803 -0.5465
  903MOL0     H21853   9.984  11.373   7.091  2.5539  0.6779  0.4895
  903MOL0     H21854  10.176  11.246   7.036 -3.3410 -0.4617 -2.3129
  903MOL0     H21855  10.175  11.324   7.199 -1.6116  0.3211  0.0311
  903MOL0     H21856  10.186  11.179   7.410  0.4770 -1.4637  1.2105
  903MOL0     H21857  10.289  10.839   7.472  1.8419  1.2141  0.0029
  903MOL0     H21858  10.236  10.990   7.551  4.5536  0.0678 -1.5551
  903MOL0     H21859  10.054  10.749   7.466  2.2539 -1.3057  0.8225
  903MOL0     H21860  10.097  10.804   7.622  3.0443 -0.7460 -1.0426
  903MOL0     H21861   9.937  10.970   7.420  1.2916 -1.5127 -0.0265
  903MOL0     H21862   9.974  11.027   7.581 -1.9518 -0.2248  1.6769
  903MOL0     H21863   9.810  10.765   7.567  1.6548 -0.4029  0.8451
  903MOL0     H21864   9.741  10.919   7.512  0.6331  1.0209 -0.3309
  903MOL0     H21865   9.606  10.734   7.694  0.9005 -0.3829  0.1980
  903MOL0     H21866   9.364  10.777   7.775 -0.5419 -0.3320  0.7737
  903MOL0     H21867   9.039  10.875   8.020  1.1862  0.0596  0.2032
  903MOL0     H21868   8.883  10.867   8.167  0.1201  0.6632  0.5316
  903MOL0     H21869   8.717  11.000   8.248 -0.1421  0.0334  0.9378
  903MOL0     H21870   8.744  10.881   8.384  2.2433 -0.5588  0.1264
  903MOL0     H21871   8.640  11.079   8.526 -0.2377 -0.8288  0.7376
  903MOL0     H21872   8.606  11.157   8.384  2.3312  2.2328  2.8496
  903MOL0     H21873   8.457  10.968   8.306  1.4194  1.0973  0.0646
  903MOL0     H21874   8.520  10.866   8.437  1.9483 -0.1312  0.5311
  903MOL0     H21875   8.376  11.147   8.481  2.1467  1.3360  0.5625
  903MOL0     H21876   8.417  11.034   8.606  2.2666 -1.2276 -1.0284
  903MOL0     H21877   8.266  10.859   8.527 -0.3443 -0.0283 -0.0670
  903MOL0     H21878   8.210  10.968   8.392 -1.1717 -0.8289  0.0694
  903MOL0     H21879   8.198  11.024   8.697  0.9407 -0.6066 -1.4711
  903MOL0     H21880   8.136  11.128   8.568  0.5767 -0.3504 -1.3614
  903MOL0     H21881   8.033  10.848   8.600 -1.7958  0.4382  0.0145
  903MOL0     H21882   7.956  10.982   8.511  1.5852 -1.5723 -0.5934
  903MOL0     H21883   7.843  10.951   8.734 -0.1671  1.0293 -1.4664
  903MOL0     H21884   7.998  11.016   8.810  0.0106  0.3123  1.0431
  903MOL0     H21885   9.052  11.206   8.375  0.1453  0.6965 -0.3175
  903MOL0     H21886   9.249  11.195   8.233 -0.8632  1.8127 -2.4180
  903MOL0     H21887   9.487  11.161   7.929  2.5405  0.1989 -0.2178
  903MOL0     H21888   9.722  11.112   7.854  1.1610 -1.4975  1.4703
  903MOL0     H21889   9.057  10.864   6.691 -0.5337 -0.6080 -0.7041
  903MOL0     H21890   8.817  10.845   6.729 -2.6108  1.4291  1.0547
  903MOL0     H21891   8.507  10.974   7.066 -0.4539 -1.9874 -0.8523
  903MOL0     H21892   8.278  10.932   7.119 -0.2839 -0.3661  0.4467
  903MOL0     H21893   8.130  11.167   7.190  1.3566 -0.6426 -1.2079
  903MOL0     H21894   8.080  11.008   7.224  1.8402 -1.5375 -1.5875
  903MOL0     H21895   7.841  11.072   7.145  1.0520 -0.6027  0.6045
  903MOL0     H21896   7.904  11.239   7.126  0.7861 -0.1136 -0.4516
  903MOL0     H21897   7.960  11.233   7.367 -1.4958  2.0753 -1.0661
  903MOL0     H21898   7.884  11.074   7.381  0.2258  0.0410  1.1503
  903MOL0     H21899   7.736  11.343   7.289  2.9633  0.2206 -0.8811
  903MOL0     H21900   7.658  11.188   7.315  0.7054  0.1515  1.7982
  903MOL0     H21901   7.742  11.374   7.699 -2.3090 -0.2452  1.1197
  903MOL0     H21902   8.147  11.203   6.804 -3.3530 -3.1440  1.2745
  903MOL0     H21903   8.450  11.163   6.628  3.4768  1.0363  3.0196
  903MOL0     H21904   8.301  11.266   6.637 -0.6375  2.8599  1.1713
  903MOL0     H21905   8.464  11.317   6.689 -1.2794  1.5769 -1.7361
  904MOL0     O21906   1.164  10.303   0.750 -0.3347 -0.0686 -0.3035
  904MOL0     C21907   1.183  10.406   0.689  0.3260  0.3893  0.9965
  904MOL0     O21908   1.310  10.453   0.645  0.2083  0.2539 -0.2872
  904MOL0     C21909   1.420  10.371   0.662  0.1198  0.6262  0.2956
  904MOL0     C21910   1.483  10.329   0.545 -0.0855 -0.3500 -0.0240
  904MOL0     C21911   1.603  10.258   0.553 -0.2369  0.0219 -1.3438
  904MOL0     C21912   1.657  10.219   0.677  0.2335 -0.0518 -0.6810
  904MOL0     O21913   1.777  10.148   0.670 -0.2454 -0.4434  0.2394
  904MOL0     C21914   1.858  10.124   0.790 -0.6997  0.9884  0.2806
  904MOL0     C21915   2.009  10.085   0.764  0.6316  0.5123 -0.2102
  904MOL0     C21916   2.077  10.204   0.700  0.0064 -0.3210  1.3624
  904MOL0     C21917   2.226  10.208   0.701  0.4184  0.2529  0.2982
  904MOL0     C21918   2.292  10.320   0.636  0.0300  0.8845  0.6362
  904MOL0     C21919   2.431  10.268   0.568 -0.0066  0.0071 -0.2484
  904MOL0     C21920   2.517  10.207   0.672 -0.6419  0.0780  0.1599
  904MOL0     C21921   2.604  10.090   0.621  0.3892  0.0724  0.2334
  904MOL0     N21922   2.726  10.157   0.595  0.1743 -0.1034 -0.1783
  904MOL0     C21923   2.790  10.177   0.473  0.5697 -0.1231  0.0829
  904MOL0     C21924   2.897  10.252   0.482  0.0711  0.1605  0.3701
  904MOL0     C21925   2.995  10.292   0.375  0.4854 -0.3164 -0.2194
  904MOL0     C21926   3.018  10.185   0.271  0.6924 -0.0817  0.3125
  904MOL0     C21927   3.133  10.207   0.180 -0.6059 -0.1912  0.4788
  904MOL0     C21928   3.280  10.219   0.239  0.4422  0.6925 -1.2212
  904MOL0     O21929   3.376  10.248   0.138  0.2853  0.4253 -0.4525
  904MOL0     C21930   3.499  10.296   0.176  0.5094  0.8092 -0.1595
  904MOL0     C21931   3.577  10.361   0.085 -0.0444  0.1823 -0.0382
  904MOL0     C21932   3.700  10.425   0.123  0.8614 -0.2753 -0.3898
  904MOL0     C21933   3.757  10.405   0.245  0.7653 -0.4778  0.6843
  904MOL0     C21934   3.888  10.460   0.276 -0.3000 -0.2196 -0.7497
  904MOL0     O21935   3.970  10.389   0.361 -0.0765  0.3127  0.2116
  904MOL0     C21936   4.087  10.436   0.402 -0.9468 -0.4890 -0.1883
  904MOL0     C21937   4.196  10.351   0.373 -0.7861  0.2455  0.3613
  904MOL0     C21938   4.320  10.384   0.421  0.4135 -0.7225 -0.2214
  904MOL0     C21939   4.345  10.510   0.485 -0.4550  0.6465  0.2303
  904MOL0     O21940   4.483  10.532   0.522 -0.5083  0.0575  0.2370
  904MOL0     C21941   4.499  10.569   0.654 -0.1793 -0.7780  0.4988
  904MOL0     C21942   4.620  10.666   0.677  0.8136 -0.0978  0.2487
  904MOL0     C21943   4.629  10.703   0.822  0.5167 -0.3123 -0.5195
  904MOL0     C21944   4.669  10.579   0.913 -0.0313 -0.8431  0.2039
  904MOL0     C21945   4.825  10.592   0.952  0.3495 -0.2191  0.0239
  904MOL0     C21946   4.919  10.608   0.831  0.1688 -0.7338  0.0799
  904MOL0     C21947   5.062  10.619   0.868 -0.2519 -0.3386 -0.7668
  904MOL0     C21948   5.127  10.484   0.873 -0.1955  0.0517 -0.5564
  904MOL0    Cl21949   5.152  10.442   0.692  0.1956  0.1642 -0.6558
  904MOL0     C21950   4.237  10.594   0.502  0.2046 -0.2101 -0.2945
  904MOL0     C21951   4.105  10.557   0.464  0.2172 -0.5217 -0.1534
  904MOL0     O21952   3.922  10.559   0.214 -0.9212  0.0776  0.3568
  904MOL0     C21953   3.680  10.328   0.336  0.3408  0.2344  0.1544
  904MOL0     C21954   3.550  10.286   0.307  0.5653  0.5931 -0.2106
  904MOL0     N21955   2.913  10.257   0.624 -0.2070 -0.0355 -0.1960
  904MOL0     N21956   2.819  10.191   0.687 -0.5446 -0.5685 -0.2824
  904MOL0     C21957   1.583  10.253   0.801 -0.2240  0.5990  0.5500
  904MOL0     C21958   1.468  10.330   0.784  0.3854 -0.4149  0.2219
  904MOL0     C21959   1.062  10.491   0.652 -0.5007 -0.2541 -0.0136
  904MOL0     C21960   1.079  10.583   0.553  0.2976  0.6548  0.3273
  904MOL0     C21961   0.985  10.681   0.520  0.5512  0.5024  0.1436
  904MOL0     C21962   0.856  10.665   0.577 -0.9139  0.3720  0.2984
  904MOL0     O21963   0.744  10.736   0.548 -0.3495  0.5390 -0.6706
  904MOL0     C21964   0.754  10.860   0.483 -0.5326  0.4444 -0.2270
  904MOL0     C21965   0.648  10.962   0.537 -0.7928 -0.6131  0.3605
  904MOL0     C21966   0.505  10.926   0.500 -0.2250 -0.2182  0.9752
  904MOL0     C21967   0.406  10.973   0.606 -0.1274  0.4014 -0.0046
  904MOL0     C21968   0.270  10.943   0.564  0.2317 -0.1099  0.3910
  904MOL0     C21969   0.163  10.908   0.521  0.2340  0.7176  0.0117
  904MOL0     C21970   0.832  10.555   0.659 -0.1087 -0.4208 -0.0252
  904MOL0     C21971   0.930  10.468   0.699 -0.5870 -0.1594  0.0648
  904MOL0     C21972   0.894  10.375   0.805 -0.1989 -0.3493 -0.0342
  904MOL0     H21973   1.441  10.344   0.446  1.4303 -0.9331 -0.7926
  904MOL0     H21974   1.658  10.220   0.468  0.1673  0.0361 -1.0921
  904MOL0     H21975   1.857  10.213   0.853 -1.2134  1.2773 -0.1236
  904MOL0     H21976   1.818  10.042   0.851 -0.9373  0.1696 -0.9336
  904MOL0     H21977   2.016   9.989   0.711  2.6146  0.2230  0.4760
  904MOL0     H21978   2.058  10.071   0.861 -0.7734  1.9915  0.7592
  904MOL0     H21979   2.034  10.293   0.746  1.7818  0.6471  1.2228
  904MOL0     H21980   2.052  10.215   0.594 -2.2917  2.4742  2.0759
  904MOL0     H21981   2.255  10.203   0.807  0.0923 -0.5216  0.3564
  904MOL0     H21982   2.258  10.114   0.656  0.0616 -0.3229  1.2108
  904MOL0     H21983   2.226  10.348   0.554 -1.5253 -0.9398  1.1789
  904MOL0     H21984   2.307  10.395   0.714  1.3335 -1.4212  2.7825
  904MOL0     H21985   2.409  10.193   0.491  1.0794 -1.6733  0.9988
  904MOL0     H21986   2.470  10.358   0.521 -0.4701  0.9215  1.0513
  904MOL0     H21987   2.460  10.156   0.750 -1.7400  0.5664 -0.3051
  904MOL0     H21988   2.571  10.285   0.727 -1.0611  0.3813  0.1477
  904MOL0     H21989   2.616  10.018   0.703 -0.5694  0.0499  0.3672
  904MOL0     H21990   2.565  10.033   0.536  2.1036 -1.4949  0.4202
  904MOL0     H21991   2.750  10.159   0.374 -0.3371  1.6744  0.0965
  904MOL0     H21992   2.961  10.383   0.325 -0.0303 -0.5069 -0.2238
  904MOL0     H21993   3.085  10.327   0.427 -0.7113  4.3856 -0.8994
  904MOL0     H21994   3.027  10.091   0.326 -0.5594 -0.9951 -0.9687
  904MOL0     H21995   2.927  10.176   0.210  0.5186 -1.2124  0.7010
  904MOL0     H21996   3.116  10.299   0.124  1.7648  1.0146  1.5886
  904MOL0     H21997   3.121  10.126   0.107  0.2534 -0.0926  0.2127
  904MOL0     H21998   3.309  10.125   0.287 -0.9700  0.3227 -1.0598
  904MOL0     H21999   3.281  10.298   0.315 -0.6340 -0.0956 -0.3579
  904MOL0     H22000   3.530  10.358  -0.013  0.6792  0.3856 -0.4008
  904MOL0     H22001   3.746  10.473   0.037 -1.5927  0.5459 -1.3356
  904MOL0     H22002   4.200  10.249   0.335  3.0584 -0.4825  2.1595
  904MOL0     H22003   4.407  10.320   0.408 -0.6931 -2.2985 -0.0181
  904MOL0     H22004   4.406  10.617   0.684  1.1764  3.6263 -1.5427
  904MOL0     H22005   4.508  10.474   0.706 -0.9844 -1.0232  0.2046
  904MOL0     H22006   4.713  10.620   0.640  0.1312 -0.6049 -0.9079
  904MOL0     H22007   4.594  10.753   0.616  0.9313 -1.6023 -2.1099
  904MOL0     H22008   4.708  10.778   0.832  2.3239 -2.1886  0.0563
  904MOL0     H22009   4.533  10.743   0.857  1.0479  1.7748 -1.2654
  904MOL0     H22010   4.660  10.482   0.861 -0.4309  0.1271 -1.6508
  904MOL0     H22011   4.627  10.574   1.014  2.4280 -1.5081  1.2578
  904MOL0     H22012   4.860  10.505   1.008  2.9166  0.1467 -0.9142
  904MOL0     H22013   4.840  10.680   1.016  3.1967 -2.1402  2.2334
  904MOL0     H22014   4.915  10.514   0.774 -0.3723 -2.3051  2.5357
  904MOL0     H22015   4.888  10.701   0.782 -2.4007  0.0954  2.9366
  904MOL0     H22016   5.076  10.678   0.959 -2.8130 -0.6457 -0.0824
  904MOL0     H22017   5.121  10.675   0.795  1.7771  0.3287  1.2634
  904MOL0     H22018   5.227  10.482   0.918 -1.3755  0.1183  2.2903
  904MOL0     H22019   5.072  10.405   0.925  1.8114  0.7358  2.9140
  904MOL0     H22020   4.246  10.694   0.543 -2.2122  0.6987 -1.7640
  904MOL0     H22021   4.028  10.634   0.466 -0.4554 -1.1942 -0.0627
  904MOL0     H22022   3.710  10.296   0.435  2.5205 -0.0701 -0.5437
  904MOL0     H22023   3.500  10.233   0.387 -1.9516 -0.6217 -2.4188
  904MOL0     H22024   1.619  10.220   0.898  1.9732 -4.5812 -1.6262
  904MOL0     H22025   1.419  10.353   0.878  1.3489 -0.3810  0.7243
  904MOL0     H22026   1.175  10.594   0.504  0.9948  1.4857  1.8010
  904MOL0     H22027   1.015  10.763   0.455  3.4574 -0.8800 -0.4288
  904MOL0     H22028   0.746  10.855   0.374 -2.8179  1.0905 -0.1395
  904MOL0     H22029   0.846  10.909   0.515 -0.6764 -0.2679  1.4068
  904MOL0     H22030   0.665  11.047   0.470 -1.2826 -0.6306  0.2131
  904MOL0     H22031   0.659  10.984   0.643 -2.4669 -1.7256  0.8037
  904MOL0     H22032   0.509  10.818   0.484  2.8081  0.2087 -2.3216
  904MOL0     H22033   0.471  10.970   0.406  1.2220 -1.8349 -0.3629
  904MOL0     H22034   0.435  10.912   0.692  0.9762  2.8699  1.4789
  904MOL0     H22035   0.411  11.077   0.639  1.0682  0.0335  1.0390
  904MOL0     H22036   0.068  10.867   0.491 -0.3058  0.4227  1.9838
  904MOL0     H22037   0.731  10.545   0.696  0.1910 -1.6597  0.5024
  904MOL0     H22038   0.790  10.394   0.835 -0.3980 -1.4426  0.0018
  904MOL0     H22039   0.914  10.275   0.767  3.9634  0.9978 -2.0283
  904MOL0     H22040   0.950  10.381   0.899 -1.5390 -0.1134  0.7870
  905MOL0     O22041   7.267  10.033   3.956 -0.2846  0.2188 -0.3941
  905MOL0     C22042   7.204  10.116   4.020 -0.3731 -0.6422  0.4192
  905MOL0     O22043   7.258  10.197   4.112 -0.0643 -0.8507 -0.6257
  905MOL0     C22044   7.398  10.219   4.117  0.0163 -0.0411 -0.7604
  905MOL0     C22045   7.444  10.242   4.246  0.2786 -0.8941 -0.3183
  905MOL0     C22046   7.576  10.250   4.280  0.1594  0.4968  0.7712
  905MOL0     C22047   7.673  10.252   4.177 -0.0853  0.3524 -0.7086
  905MOL0     O22048   7.811  10.252   4.192  0.1922  0.1492  0.2549
  905MOL0     C22049   7.864  10.221   4.323  1.1978  0.3058 -0.3848
  905MOL0     C22050   8.011  10.262   4.340 -0.0954  0.2695  0.0494
  905MOL0     C22051   8.091  10.183   4.234 -0.4624 -0.2968 -0.2057
  905MOL0     C22052   8.237  10.242   4.245  0.6858 -0.5513 -0.0698
  905MOL0     C22053   8.325  10.192   4.129  0.5925  0.2020 -0.0122
  905MOL0     C22054   8.462  10.256   4.132  0.0712  0.1574  0.3631
  905MOL0     C22055   8.553  10.193   4.024 -0.2849 -0.2729 -0.0695
  905MOL0     C22056   8.705  10.234   4.038  0.5374 -0.1671 -0.4166
  905MOL0     N22057   8.787  10.172   3.936 -0.0881 -0.6672 -0.0434
  905MOL0     C22058   8.856  10.048   3.938  0.0731  0.0091  0.3039
  905MOL0     C22059   8.910  10.037   3.811  0.0564  0.5627 -0.0258
  905MOL0     C22060   8.990   9.914   3.767  0.6526 -0.2422  0.1031
  905MOL0     C22061   9.126   9.897   3.819  0.9511 -0.0979 -0.1164
  905MOL0     C22062   9.223  10.001   3.758  0.0688  0.4042  0.4421
  905MOL0     C22063   9.356   9.993   3.831 -0.8781  0.3866 -0.8735
  905MOL0     O22064   9.420   9.860   3.835  0.1881  0.5498 -0.0728
  905MOL0     C22065   9.551   9.857   3.877  0.2147  0.1689 -0.2398
  905MOL0     C22066   9.612   9.950   3.969 -0.4107 -0.0837  0.3735
  905MOL0     C22067   9.746   9.940   4.008 -0.4273 -0.4860 -0.2522
  905MOL0     C22068   9.828   9.837   3.946  0.4004  0.1707 -0.9285
  905MOL0     C22069   9.965   9.826   3.986 -0.1197  0.0216  0.8373
  905MOL0     O22070  10.023   9.721   3.919  0.0023 -0.9894 -0.7966
  905MOL0     C22071  10.154   9.708   3.939 -0.7962 -0.6153  0.1886
  905MOL0     C22072  10.252   9.805   3.913  1.0806 -0.1048 -0.5205
  905MOL0     C22073  10.396   9.787   3.939  0.6079 -0.1838  0.7899
  905MOL0     C22074  10.434   9.660   3.984  0.0598  0.6441  0.1644
  905MOL0     O22075  10.565   9.630   4.013 -0.0672  0.6887  0.3272
  905MOL0     C22076  10.679   9.690   3.940  0.5710 -0.4803  0.2378
  905MOL0     C22077  10.811   9.667   4.012 -0.4065  0.5576 -0.0569
  905MOL0     C22078  10.890   9.547   3.962 -0.2456  0.3365  1.2338
  905MOL0     C22079  10.815   9.411   3.983  0.2396 -0.0090 -0.6627
  905MOL0     C22080  10.829   9.351   4.122  0.1171  0.1231  0.2702
  905MOL0     C22081  10.779   9.205   4.139 -0.4752 -0.4066  0.6714
  905MOL0     C22082  10.623   9.205   4.113 -0.5709 -0.6885  0.3388
  905MOL0     C22083  10.588   9.061   4.122 -0.4480 -0.1064 -0.0048
  905MOL0    Cl22084  10.622   8.992   4.281  0.1634 -0.4719  0.2193
  905MOL0     C22085  10.340   9.561   4.012  0.1608  0.8522  0.1935
  905MOL0     C22086  10.202   9.587   3.992 -0.5236 -0.5310  1.1287
  905MOL0     O22087  10.018   9.909   4.062  0.7313 -0.3005  0.1769
  905MOL0     C22088   9.764   9.737   3.862 -0.2445 -0.0691 -0.5697
  905MOL0     C22089   9.631   9.747   3.845  0.0722  1.0224  0.8198
  905MOL0     N22090   8.887  10.154   3.742  1.0744  0.5281 -0.3360
  905MOL0     N22091   8.807  10.223   3.813 -0.1890 -0.2344 -0.7375
  905MOL0     C22092   7.630  10.239   4.042 -0.9123  0.3694  0.0100
  905MOL0     C22093   7.489  10.220   4.007  0.4968  1.2812 -1.2186
  905MOL0     C22094   7.053  10.121   3.998 -0.0876  0.4137 -0.9277
  905MOL0     C22095   6.994   9.991   3.972  0.5450  0.4558 -0.0462
  905MOL0     C22096   6.857   9.977   3.963 -0.2536 -0.7872  0.3193
  905MOL0     C22097   6.771  10.082   3.960  0.6339 -0.8356  0.0765
  905MOL0     O22098   6.638  10.074   3.934 -0.0104  0.1661  0.8509
  905MOL0     C22099   6.570   9.945   3.922  0.6940  0.2275 -0.3666
  905MOL0     C22100   6.422   9.967   3.887 -0.1326 -0.9371  0.2460
  905MOL0     C22101   6.358  10.086   3.969 -0.3458  0.4015  0.8444
  905MOL0     C22102   6.276  10.179   3.872 -0.5951 -0.7100  0.1987
  905MOL0     C22103   6.169  10.112   3.798 -0.5724 -0.4893 -1.2479
  905MOL0     C22104   6.085  10.067   3.732  0.5887  0.0485  0.3634
  905MOL0     C22105   6.829  10.205   3.986 -0.4610 -1.2199  0.3436
  905MOL0     C22106   6.966  10.232   3.997 -0.3147  0.0940  0.7307
  905MOL0     C22107   7.019  10.368   3.999 -0.0408 -0.8662 -0.7290
  905MOL0     H22108   7.369  10.240   4.324 -0.4886  0.0260 -1.0068
  905MOL0     H22109   7.601  10.253   4.386 -0.5822  2.6001  0.9197
  905MOL0     H22110   7.806  10.279   4.395  1.1657 -1.5981  1.1942
  905MOL0     H22111   7.852  10.114   4.344 -1.7142  0.9151  1.6936
  905MOL0     H22112   8.045  10.231   4.439 -2.3807  1.7882  1.4066
  905MOL0     H22113   8.007  10.370   4.321  0.0922  0.4953  1.2264
  905MOL0     H22114   8.056  10.206   4.133 -2.0425  0.4801  0.4970
  905MOL0     H22115   8.089  10.076   4.252  3.1260 -0.8373 -1.9830
  905MOL0     H22116   8.230  10.349   4.223  2.3010  0.0710  2.1582
  905MOL0     H22117   8.286  10.229   4.342  2.6271 -0.6492 -1.0060
  905MOL0     H22118   8.333  10.083   4.138 -0.6227  0.0998  0.0141
  905MOL0     H22119   8.277  10.215   4.034  0.8793  1.3861  0.1163
  905MOL0     H22120   8.453  10.362   4.108 -0.2600  0.2997  1.0914
  905MOL0     H22121   8.502  10.234   4.232 -1.1103 -1.2908  0.5495
  905MOL0     H22122   8.529  10.225   3.922  3.2720 -1.5613 -1.4996
  905MOL0     H22123   8.547  10.084   4.026 -0.1373 -0.3063 -0.9149
  905MOL0     H22124   8.703  10.343   4.028 -0.6331  0.1013  2.0025
  905MOL0     H22125   8.754  10.208   4.132 -1.1342  0.2242  0.6020
  905MOL0     H22126   8.873   9.974   4.015 -0.5752  0.0410  0.4808
  905MOL0     H22127   8.932   9.829   3.803  0.0959 -0.0742 -0.3809
  905MOL0     H22128   8.979   9.918   3.659  0.4312  0.2834  0.1410
  905MOL0     H22129   9.132   9.906   3.928  2.9378  0.9710 -0.2605
  905MOL0     H22130   9.149   9.792   3.798 -0.6123 -0.2393 -1.2400
  905MOL0     H22131   9.182  10.101   3.770 -1.0771  0.4857 -2.9925
  905MOL0     H22132   9.227   9.982   3.650 -0.4490  1.5832  0.1995
  905MOL0     H22133   9.326  10.019   3.932 -1.0563 -3.8397  0.3682
  905MOL0     H22134   9.416  10.080   3.802  1.2465 -0.3307  1.0746
  905MOL0     H22135   9.554  10.031   4.013  1.8686  0.8123  1.9022
  905MOL0     H22136   9.787  10.017   4.073  0.0938 -0.1193 -1.0030
  905MOL0     H22137  10.213   9.895   3.867 -2.1226 -1.5213 -0.8727
  905MOL0     H22138  10.457   9.871   3.908 -1.2927 -0.0435 -3.1738
  905MOL0     H22139  10.675   9.669   3.833 -1.2859 -1.8913  0.5353
  905MOL0     H22140  10.670   9.799   3.939  1.8233 -0.3272  1.6552
  905MOL0     H22141  10.883   9.748   3.997 -1.9628  2.0222  0.0598
  905MOL0     H22142  10.795   9.653   4.120  1.5174 -0.1769  0.1804
  905MOL0     H22143  10.906   9.560   3.854 -2.2102  2.2313  1.1097
  905MOL0     H22144  10.990   9.542   4.005  0.8274 -1.2277 -1.1870
  905MOL0     H22145  10.855   9.335   3.914  0.3435 -1.6274  1.0934
  905MOL0     H22146  10.711   9.437   3.961 -0.4215  0.4502  2.5110
  905MOL0     H22147  10.773   9.413   4.193  0.9151  1.6630 -0.3792
  905MOL0     H22148  10.936   9.350   4.146  0.5490 -1.1735 -1.4871
  905MOL0     H22149  10.820   9.145   4.057 -1.0102  0.6284 -0.3876
  905MOL0     H22150  10.807   9.163   4.236 -0.0813 -0.0547  0.7134
  905MOL0     H22151  10.599   9.245   4.014 -1.5269  0.3687  0.9769
  905MOL0     H22152  10.576   9.258   4.196 -0.7833 -0.4781  0.0859
  905MOL0     H22153  10.485   9.045   4.087 -1.2036  1.3309  1.4355
  905MOL0     H22154  10.645   9.016   4.039 -1.4401 -1.8403  0.2005
  905MOL0     H22155  10.375   9.463   4.041 -1.0539 -0.2672 -1.8882
  905MOL0     H22156  10.127   9.510   4.006 -0.5161 -0.3694  2.1849
  905MOL0     H22157   9.823   9.653   3.826 -0.5567 -0.2610 -0.6333
  905MOL0     H22158   9.582   9.673   3.784 -1.1343  2.1648  0.3774
  905MOL0     H22159   7.703  10.246   3.962  1.2186 -0.0643  1.8217
  905MOL0     H22160   7.461  10.212   3.903  1.9626  1.5602 -1.6597
  905MOL0     H22161   7.052   9.900   3.957  0.9105  1.0207 -2.4330
  905MOL0     H22162   6.818   9.876   3.963 -1.4384 -0.3885 -1.8409
  905MOL0     H22163   6.570   9.891   4.017 -0.5851 -0.2876 -0.6444
  905MOL0     H22164   6.617   9.881   3.847 -0.5151  0.7008 -1.5776
  905MOL0     H22165   6.356   9.881   3.905 -2.5698  0.3295 -1.9880
  905MOL0     H22166   6.402   9.991   3.783 -0.8390  2.3695  1.0226
  905MOL0     H22167   6.431  10.154   4.015  2.9353 -3.0314  1.1903
  905MOL0     H22168   6.298  10.039   4.047 -0.1719 -0.0396  0.7176
  905MOL0     H22169   6.231  10.264   3.925  1.8214  1.8871 -1.6273
  905MOL0     H22170   6.343  10.226   3.800 -0.3965 -1.4891 -0.1373
  905MOL0     H22171   6.011  10.025   3.668  1.0722  2.6505 -2.0995
  905MOL0     H22172   6.764  10.291   3.972  2.6504  1.2677  0.0767
  905MOL0     H22173   7.082  10.394   4.084 -0.5743  1.7599 -1.0437
  905MOL0     H22174   7.086  10.394   3.917  0.2212 -1.5522 -0.7327
  905MOL0     H22175   6.935  10.437   3.983  0.8169 -0.3290 -3.4891
  906MOL0     O22176   8.946   5.020   9.652  0.1571  0.9070  0.0749
  906MOL0     C22177   8.836   4.998   9.609 -0.4585  0.2212  0.0199
  906MOL0     O22178   8.804   4.893   9.538 -0.6939  0.5860 -0.0903
  906MOL0     C22179   8.889   4.790   9.517  0.1555 -0.2498  0.3460
  906MOL0     C22180   8.847   4.665   9.560  0.0242  0.2328  0.1697
  906MOL0     C22181   8.928   4.550   9.531  0.6565 -0.4681  0.0234
  906MOL0     C22182   9.050   4.564   9.464  0.6266 -0.7400  0.4622
  906MOL0     O22183   9.132   4.450   9.466 -0.0090 -0.0718 -1.1569
  906MOL0     C22184   9.271   4.465   9.434  0.1601  0.3877 -0.7880
  906MOL0     C22185   9.340   4.329   9.451 -0.6423  0.1036  0.3765
  906MOL0     C22186   9.495   4.363   9.406 -0.0078  0.8018  0.0411
  906MOL0     C22187   9.564   4.220   9.394 -0.6098  0.7240 -0.2417
  906MOL0     C22188   9.697   4.233   9.315 -0.5188  0.2399  0.2340
  906MOL0     C22189   9.775   4.103   9.318  1.0906 -0.2841  0.0181
  906MOL0     C22190   9.924   4.116   9.311  0.1534  0.2897  0.2403
  906MOL0     C22191   9.980   4.154   9.445 -0.0036 -0.8574  0.8838
  906MOL0     N22192  10.119   4.203   9.437  0.1039  0.4734  0.2574
  906MOL0     C22193  10.170   4.325   9.419  0.3926 -0.7279  0.1328
  906MOL0     C22194  10.297   4.306   9.374 -0.5826 -0.0878 -0.2835
  906MOL0     C22195  10.378   4.421   9.324  0.5011 -0.2786 -0.1310
  906MOL0     C22196  10.514   4.425   9.389 -0.5707 -0.0726 -0.0537
  906MOL0     C22197  10.593   4.536   9.321 -0.3250 -0.4009 -0.3371
  906MOL0     C22198  10.739   4.531   9.356 -0.0527  0.8894  0.2258
  906MOL0     O22199  10.792   4.660   9.321  0.2245 -0.3855 -0.2779
  906MOL0     C22200  10.923   4.700   9.335 -0.2522  0.2517 -0.1787
  906MOL0     C22201  10.950   4.829   9.359 -0.0119  0.0043 -0.5374
  906MOL0     C22202  11.079   4.871   9.380 -0.5205 -0.1556  0.5342
  906MOL0     C22203  11.190   4.779   9.392 -0.2581 -1.2827 -0.7404
  906MOL0     C22204  11.327   4.835   9.410 -0.8476  0.0982  0.7560
  906MOL0     O22205  11.428   4.749   9.441 -0.7651 -0.1816  0.3847
  906MOL0     C22206  11.557   4.789   9.473 -0.1824 -0.2609 -0.1152
  906MOL0     C22207  11.591   4.912   9.514  0.0705 -0.0923  0.5008
  906MOL0     C22208  11.720   4.942   9.555 -0.0725  0.0499 -0.4396
  906MOL0     C22209  11.821   4.843   9.552 -0.4474 -0.1414 -0.0822
  906MOL0     O22210  11.953   4.873   9.585  0.1022  0.3511 -0.1896
  906MOL0     C22211  11.965   4.981   9.676 -0.0202  0.9412 -0.2428
  906MOL0     C22212  12.113   4.979   9.725  0.2876  0.3861 -0.0452
  906MOL0     C22213  12.153   4.853   9.808  0.3823 -0.0167 -0.5426
  906MOL0     C22214  12.303   4.836   9.806 -0.8816  0.2505 -0.6299
  906MOL0     C22215  12.351   4.780   9.937 -0.1922  0.3883 -0.8668
  906MOL0     C22216  12.489   4.723   9.932  0.1982  0.1740  0.2432
  906MOL0     C22217  12.604   4.803   9.870  0.1233 -0.7408 -0.6609
  906MOL0     C22218  12.732   4.750   9.907  0.3659 -0.1515 -0.6792
  906MOL0    Cl22219  12.767   4.606   9.816  0.6240  0.1423 -0.3600
  906MOL0     C22220  11.796   4.709   9.508  0.1042  0.3265 -0.2158
  906MOL0     C22221  11.660   4.686   9.471 -0.0472 -0.4604  0.4574
  906MOL0     O22222  11.336   4.956   9.379  0.1920 -0.1929 -0.3472
  906MOL0     C22223  11.161   4.650   9.372 -0.5235 -0.7723  0.4190
  906MOL0     C22224  11.035   4.607   9.333  0.3225  0.0356 -0.4546
  906MOL0     N22225  10.329   4.165   9.384 -0.2083 -0.2385  1.1725
  906MOL0     N22226  10.216   4.110   9.411  0.7805  0.6327 -0.2025
  906MOL0     C22227   9.085   4.698   9.424 -0.9020 -0.7343  0.2029
  906MOL0     C22228   9.004   4.811   9.443  0.2693 -0.2652  0.6249
  906MOL0     C22229   8.726   5.105   9.637 -0.4782  0.2777  0.4899
  906MOL0     C22230   8.600   5.069   9.655  0.6323 -0.3287 -0.4840
  906MOL0     C22231   8.494   5.160   9.669 -0.6501  0.3859  0.8622
  906MOL0     C22232   8.522   5.303   9.661  0.4678  0.7238  0.6385
  906MOL0     O22233   8.434   5.403   9.675  0.0698  0.1480 -0.5240
  906MOL0     C22234   8.292   5.371   9.680 -0.5477  0.1757 -0.0358
  906MOL0     C22235   8.212   5.509   9.679  0.0179 -0.4557  0.4440
  906MOL0     C22236   8.250   5.613   9.793 -0.1038  0.0484  0.2581
  906MOL0     C22237   8.302   5.546   9.922 -0.2105 -0.1697  0.4653
  906MOL0     C22238   8.194   5.482  10.007 -0.0016  0.2220 -0.9147
  906MOL0     C22239   8.117   5.419  10.081 -0.0729 -0.3826  0.4320
  906MOL0     C22240   8.654   5.336   9.647 -0.7219 -0.5688  0.5668
  906MOL0     C22241   8.759   5.246   9.629  1.1819  0.0460 -1.0489
  906MOL0     C22242   8.892   5.302   9.622 -0.4751 -0.0500  0.0705
  906MOL0     H22243   8.755   4.657   9.617 -0.4095 -0.6870 -0.6548
  906MOL0     H22244   8.897   4.452   9.566  1.3419 -1.9131 -3.0808
  906MOL0     H22245   9.280   4.497   9.329  2.1816  1.1056 -0.4395
  906MOL0     H22246   9.320   4.536   9.500 -0.4185  0.9560 -0.9622
  906MOL0     H22247   9.288   4.257   9.388 -0.1396  0.7320 -0.7882
  906MOL0     H22248   9.332   4.289   9.553  3.4497 -1.4330  0.3054
  906MOL0     H22249   9.536   4.434   9.478 -3.5033 -0.4893  3.6265
  906MOL0     H22250   9.496   4.411   9.307 -0.8673 -0.3996 -0.5839
  906MOL0     H22251   9.582   4.190   9.498 -5.0889 -0.4243  0.3978
  906MOL0     H22252   9.502   4.144   9.346  2.4987 -1.9044 -0.4812
  906MOL0     H22253   9.682   4.275   9.215 -3.4057 -3.6876 -1.2329
  906MOL0     H22254   9.753   4.313   9.364  4.6048 -1.3364 -2.2995
  906MOL0     H22255   9.760   4.045   9.410  1.2590 -0.7467 -0.2415
  906MOL0     H22256   9.742   4.037   9.237  2.9677 -0.7796 -0.3869
  906MOL0     H22257   9.952   4.183   9.230  0.2444 -1.3781 -1.1618
  906MOL0     H22258   9.969   4.021   9.280  1.2136 -0.8064  4.4537
  906MOL0     H22259   9.915   4.237   9.476 -1.1849 -0.0384 -3.1923
  906MOL0     H22260   9.961   4.066   9.507 -0.6603 -0.1781  1.6707
  906MOL0     H22261  10.110   4.416   9.415 -1.9027 -2.1163 -3.9559
  906MOL0     H22262  10.382   4.408   9.215  4.8223 -0.5754 -0.0948
  906MOL0     H22263  10.329   4.515   9.349 -1.4680 -1.6548  1.6237
  906MOL0     H22264  10.498   4.431   9.497 -0.7967 -0.0568 -0.0870
  906MOL0     H22265  10.569   4.331   9.376 -1.7674 -1.3065  2.9566
  906MOL0     H22266  10.558   4.634   9.354  3.3580 -0.2256  4.0069
  906MOL0     H22267  10.583   4.522   9.213  2.0245 -0.9027 -0.5270
  906MOL0     H22268  10.780   4.445   9.302  1.4298  0.1782  2.3279
  906MOL0     H22269  10.750   4.516   9.464  0.3742  2.2104  0.3929
  906MOL0     H22270  10.869   4.901   9.350 -0.6014 -0.4788  0.6319
  906MOL0     H22271  11.104   4.975   9.394  1.1579 -0.4306 -0.1341
  906MOL0     H22272  11.529   5.001   9.502  0.8967  0.2258 -2.0728
  906MOL0     H22273  11.743   5.046   9.580  1.7732 -0.4794  0.2463
  906MOL0     H22274  11.944   5.080   9.634  2.8679  2.1192  0.7761
  906MOL0     H22275  11.894   4.960   9.756 -0.6651  0.1199 -1.0114
  906MOL0     H22276  12.188   4.972   9.645  0.8280  1.0220  0.3964
  906MOL0     H22277  12.132   5.072   9.778  0.7056  0.7506 -0.8168
  906MOL0     H22278  12.119   4.879   9.909  0.5473  1.3715 -0.8129
  906MOL0     H22279  12.108   4.757   9.785  0.7356 -0.9043  2.1303
  906MOL0     H22280  12.345   4.934   9.784 -0.8414 -0.0290 -1.8756
  906MOL0     H22281  12.338   4.779   9.720  0.0945  1.5897 -1.1589
  906MOL0     H22282  12.284   4.696   9.959 -1.6931  1.8821  0.5108
  906MOL0     H22283  12.341   4.851  10.020 -1.2469 -2.6360  1.8501
  906MOL0     H22284  12.515   4.688  10.032 -0.3734  1.4581  0.8616
  906MOL0     H22285  12.471   4.635   9.869 -1.2121  2.0293 -2.1249
  906MOL0     H22286  12.589   4.906   9.905  0.0404 -0.7487 -0.6739
  906MOL0     H22287  12.584   4.812   9.763 -2.8391  4.8060 -0.0126
  906MOL0     H22288  12.809   4.826   9.900  1.4376 -1.0343  0.8836
  906MOL0     H22289  12.733   4.732  10.015 -0.3992  2.6683 -0.1289
  906MOL0     H22290  11.877   4.636   9.505  1.3022  1.6412 -1.2880
  906MOL0     H22291  11.626   4.588   9.437 -0.8694  0.0877 -0.3406
  906MOL0     H22292  11.243   4.579   9.375  0.5948  0.5215  2.2847
  906MOL0     H22293  11.007   4.502   9.338  2.3203 -0.9617 -4.9473
  906MOL0     H22294   9.183   4.713   9.379 -1.3935 -2.0009 -1.4035
  906MOL0     H22295   9.029   4.911   9.409  1.0083 -0.8035 -0.4635
  906MOL0     H22296   8.571   4.965   9.661 -0.9611  0.1524  0.9339
  906MOL0     H22297   8.394   5.123   9.689  0.8652 -3.6460  2.1580
  906MOL0     H22298   8.269   5.301   9.761 -2.0443 -1.7487 -1.9990
  906MOL0     H22299   8.267   5.315   9.589 -2.1371 -0.7557  0.9278
  906MOL0     H22300   8.104   5.492   9.668 -0.0661  0.0264  0.4816
  906MOL0     H22301   8.236   5.565   9.588 -0.2648 -1.5225 -0.3148
  906MOL0     H22302   8.158   5.668   9.816  0.1135  0.4405  0.1875
  906MOL0     H22303   8.324   5.681   9.749  1.6365 -0.3325  2.4557
  906MOL0     H22304   8.381   5.474   9.900  1.1128  1.4431 -0.2816
  906MOL0     H22305   8.348   5.623   9.986 -1.1368 -1.4888  2.8773
  906MOL0     H22306   8.063   5.348  10.141  1.4647 -2.9330 -0.9950
  906MOL0     H22307   8.667   5.444   9.651 -1.2274 -0.5149  0.7505
  906MOL0     H22308   8.941   5.262   9.533  0.0687  0.1959  0.2568
  906MOL0     H22309   8.885   5.410   9.613 -2.6493 -0.2159 -0.9566
  906MOL0     H22310   8.948   5.265   9.709  1.2845  2.5256  0.1445
  907MOL0     O22311   0.047   6.266   8.362  0.1261 -0.5781 -0.2221
  907MOL0     C22312   0.017   6.280   8.244 -0.8393  0.0491 -0.3136
  907MOL0     O22313   0.100   6.336   8.149 -0.0888  0.2746 -0.1976
  907MOL0     C22314   0.224   6.380   8.185  0.5561  0.1425  0.0194
  907MOL0     C22315   0.322   6.355   8.092  0.9854  0.1987 -0.3908
  907MOL0     C22316   0.453   6.396   8.120  0.1606 -0.4518  0.4374
  907MOL0     C22317   0.498   6.448   8.243 -0.8443 -0.6432 -1.0637
  907MOL0     O22318   0.624   6.484   8.287 -0.3999 -0.6173  0.1622
  907MOL0     C22319   0.725   6.496   8.192 -0.0455  0.1036 -0.3473
  907MOL0     C22320   0.850   6.542   8.268 -0.2337 -0.0318 -0.1126
  907MOL0     C22321   0.971   6.549   8.169  0.5476  0.0483 -0.2448
  907MOL0     C22322   1.088   6.603   8.255  0.0143 -0.1319  0.8188
  907MOL0     C22323   1.218   6.612   8.167  0.1350  0.4819  0.1449
  907MOL0     C22324   1.342   6.630   8.263 -0.3640  0.5879  0.0672
  907MOL0     C22325   1.470   6.642   8.177  0.4171  0.3108 -0.2385
  907MOL0     C22326   1.607   6.644   8.257 -0.0637 -0.4813 -0.5025
  907MOL0     N22327   1.713   6.701   8.173 -0.6987  0.3229 -0.4917
  907MOL0     C22328   1.772   6.823   8.189 -0.5642 -0.6907  0.1950
  907MOL0     C22329   1.847   6.846   8.074 -0.5068  1.1042 -0.2475
  907MOL0     C22330   1.927   6.961   8.037 -0.7100 -0.4728  0.3886
  907MOL0     C22331   2.074   6.940   8.081  0.8189 -0.0470 -0.3297
  907MOL0     C22332   2.101   6.962   8.231  0.0267  0.1191  0.1688
  907MOL0     C22333   2.208   6.865   8.280 -0.7360 -0.3078 -0.1937
  907MOL0     O22334   2.239   6.902   8.418 -0.3095  0.2068  0.4221
  907MOL0     C22335   2.358   6.845   8.464 -0.9026  0.2558  0.5190
  907MOL0     C22336   2.417   6.900   8.578  0.3648 -0.6818 -0.4355
  907MOL0     C22337   2.544   6.877   8.618 -0.7260  0.3337  0.4653
  907MOL0     C22338   2.622   6.784   8.544  0.5069  0.0367  0.0430
  907MOL0     C22339   2.767   6.780   8.574  0.4924  0.3841  0.0685
  907MOL0     O22340   2.833   6.683   8.507  0.0324  0.0193 -0.1746
  907MOL0     C22341   2.967   6.659   8.510 -0.0118 -0.0632  0.5252
  907MOL0     C22342   3.009   6.555   8.423  0.4357  0.9264 -0.3528
  907MOL0     C22343   3.145   6.520   8.400 -0.3352 -0.3490  0.0901
  907MOL0     C22344   3.247   6.595   8.470 -0.3803 -0.7685 -0.0564
  907MOL0     O22345   3.379   6.567   8.465 -0.4056  0.3797  0.2485
  907MOL0     C22346   3.431   6.449   8.402  0.4779 -0.2429 -0.7047
  907MOL0     C22347   3.576   6.432   8.445  0.7110 -0.4168 -0.2280
  907MOL0     C22348   3.660   6.365   8.339 -0.0722  0.1046 -0.3174
  907MOL0     C22349   3.797   6.345   8.387 -0.1847  0.1923 -0.1185
  907MOL0     C22350   3.869   6.247   8.301  0.0840 -1.0456  0.1715
  907MOL0     C22351   4.010   6.215   8.345 -0.4439  0.5572 -0.0212
  907MOL0     C22352   4.107   6.330   8.321 -0.4581  0.4621 -0.0797
  907MOL0     C22353   4.248   6.267   8.352 -0.1545  0.3842 -0.1429
  907MOL0    Cl22354   4.281   6.242   8.528 -0.1001 -0.5488 -0.2722
  907MOL0     C22355   3.197   6.699   8.561 -0.0467 -0.0066  0.0078
  907MOL0     C22356   3.064   6.738   8.578  0.8523  0.6527 -0.7880
  907MOL0     O22357   2.816   6.855   8.653  0.7121 -0.4362 -0.6212
  907MOL0     C22358   2.566   6.712   8.440 -0.3833 -1.2470 -0.6848
  907MOL0     C22359   2.431   6.745   8.392 -0.4168  0.1729 -0.1460
  907MOL0     N22360   1.830   6.735   7.994  0.2619 -0.5655 -0.0231
  907MOL0     N22361   1.750   6.647   8.053  0.1298  0.0388  0.1095
  907MOL0     C22362   0.400   6.474   8.341  1.4485 -0.4778  0.9251
  907MOL0     C22363   0.264   6.446   8.306 -0.2297  0.6523 -0.3824
  907MOL0     C22364  -0.123   6.243   8.194  0.6923  0.0496  0.1884
  907MOL0     C22365  -0.181   6.315   8.091  0.0473 -0.3788 -0.2531
  907MOL0     C22366  -0.311   6.299   8.036  0.2352 -1.4307 -0.9015
  907MOL0     C22367  -0.399   6.199   8.094 -0.6886 -0.0194 -0.1646
  907MOL0     O22368  -0.526   6.194   8.039  0.5028  0.5620  0.4979
  907MOL0     C22369  -0.622   6.119   8.114  0.7889  0.1874 -0.3269
  907MOL0     C22370  -0.748   6.104   8.031 -1.0244 -0.3567  0.0262
  907MOL0     C22371  -0.716   6.046   7.889 -0.0368 -0.4716  0.8001
  907MOL0     C22372  -0.834   5.962   7.836  0.6309 -0.2060 -0.7372
  907MOL0     C22373  -0.957   6.049   7.818  0.4790 -0.2173  0.4418
  907MOL0     C22374  -1.050   6.136   7.829  0.0540  0.4289  0.5907
  907MOL0     C22375  -0.343   6.119   8.203  0.4493 -0.7923  0.9318
  907MOL0     C22376  -0.211   6.140   8.250 -0.2138 -0.0160  0.0084
  907MOL0     C22377  -0.167   6.051   8.366  0.4501 -0.1667 -0.4314
  907MOL0     H22378   0.283   6.316   7.999  1.1124 -0.1872 -0.2825
  907MOL0     H22379   0.517   6.382   8.034  1.0033 -0.5669  1.0690
  907MOL0     H22380   0.745   6.405   8.135  3.0227  2.8634 -4.2371
  907MOL0     H22381   0.701   6.572   8.117 -1.0478 -0.1201 -0.2715
  907MOL0     H22382   0.880   6.475   8.349 -0.0253  0.7606  0.4753
  907MOL0     H22383   0.832   6.641   8.311  1.5192  0.6321 -0.8380
  907MOL0     H22384   0.957   6.629   8.095  1.2189  0.2440 -0.1650
  907MOL0     H22385   0.989   6.458   8.112  1.7211  0.4175 -0.4822
  907MOL0     H22386   1.052   6.699   8.295 -3.4572 -1.7440  1.9661
  907MOL0     H22387   1.106   6.534   8.338 -0.3115  0.2637  1.2227
  907MOL0     H22388   1.224   6.518   8.111 -0.2164 -1.3361  2.9441
  907MOL0     H22389   1.201   6.702   8.109 -2.0512 -0.0738 -0.1490
  907MOL0     H22390   1.324   6.717   8.327 -0.3249 -0.8836  2.1807
  907MOL0     H22391   1.357   6.544   8.330  0.0100 -0.0111 -0.7703
  907MOL0     H22392   1.467   6.737   8.123 -0.7448  1.6267  1.9644
  907MOL0     H22393   1.478   6.555   8.112  5.2378  0.5287 -0.2715
  907MOL0     H22394   1.599   6.700   8.351 -0.5768  1.2704 -1.5584
  907MOL0     H22395   1.632   6.542   8.290  0.9700  0.3772  1.5566
  907MOL0     H22396   1.763   6.883   8.280 -0.3822 -0.5502  0.1203
  907MOL0     H22397   1.921   6.986   7.931 -0.8476 -0.7523  0.3321
  907MOL0     H22398   1.894   7.054   8.085 -0.9112 -0.6112  0.5196
  907MOL0     H22399   2.108   6.842   8.046 -3.8299 -1.0948 -2.8019
  907MOL0     H22400   2.140   7.012   8.033  0.0148  0.6848 -0.3651
  907MOL0     H22401   2.006   6.943   8.281 -0.2231 -0.8548 -0.6469
  907MOL0     H22402   2.132   7.065   8.252 -0.1928  0.5653 -1.5424
  907MOL0     H22403   2.299   6.878   8.221 -0.2474 -1.7646  0.1977
  907MOL0     H22404   2.165   6.765   8.285  2.3006 -1.6625  0.7693
  907MOL0     H22405   2.361   6.975   8.634  0.6348 -0.0999 -0.9287
  907MOL0     H22406   2.585   6.928   8.705  2.1441 -1.3990  0.2519
  907MOL0     H22407   2.936   6.499   8.365  1.2668 -2.1756  1.3529
  907MOL0     H22408   3.179   6.447   8.328 -0.3244 -0.0033 -0.2648
  907MOL0     H22409   3.377   6.357   8.424  1.0730  0.2058  3.6440
  907MOL0     H22410   3.419   6.467   8.295 -1.6436 -1.3220 -0.6909
  907MOL0     H22411   3.628   6.526   8.462  0.0720  0.2254 -1.6583
  907MOL0     H22412   3.582   6.382   8.542 -0.3218 -1.3524 -0.6193
  907MOL0     H22413   3.613   6.267   8.326 -1.5634  0.7034  0.2609
  907MOL0     H22414   3.646   6.422   8.247  1.4752 -0.0314 -0.6522
  907MOL0     H22415   3.793   6.301   8.487  0.8751  0.5332  0.0910
  907MOL0     H22416   3.850   6.440   8.398 -0.8313  0.3031  3.1528
  907MOL0     H22417   3.877   6.278   8.197 -2.1432  0.2873  0.3268
  907MOL0     H22418   3.816   6.151   8.297 -1.1807 -0.3871  0.5645
  907MOL0     H22419   4.022   6.177   8.447  2.2063  1.1820 -0.0175
  907MOL0     H22420   4.034   6.139   8.271 -0.6062 -0.8667  1.3355
  907MOL0     H22421   4.092   6.415   8.389 -1.0996 -0.1031  0.4983
  907MOL0     H22422   4.111   6.358   8.216  0.2965 -1.8344 -0.7204
  907MOL0     H22423   4.269   6.171   8.306  2.0870  1.1604 -0.8751
  907MOL0     H22424   4.325   6.335   8.314  1.7528 -1.4470  0.2717
  907MOL0     H22425   3.276   6.747   8.619 -1.5778  2.2551  0.3348
  907MOL0     H22426   3.048   6.800   8.665 -1.6247 -2.5526  1.2752
  907MOL0     H22427   2.628   6.653   8.373  0.3316  0.4024 -1.5563
  907MOL0     H22428   2.386   6.692   8.309 -1.8671  0.1306  0.6362
  907MOL0     H22429   0.434   6.524   8.431  4.4307  0.2937 -0.4985
  907MOL0     H22430   0.197   6.464   8.390 -1.0211 -1.2456 -0.5504
  907MOL0     H22431  -0.118   6.393   8.048 -1.6634  2.0320  1.3693
  907MOL0     H22432  -0.341   6.358   7.950 -1.4203 -2.6792 -1.2147
  907MOL0     H22433  -0.648   6.172   8.206 -0.1683 -1.1373  0.2048
  907MOL0     H22434  -0.576   6.026   8.148  3.7387  1.8060  0.5013
  907MOL0     H22435  -0.797   6.201   8.016  1.4465  0.9247 -0.1549
  907MOL0     H22436  -0.810   6.041   8.097  0.0894  0.0672  1.5386
  907MOL0     H22437  -0.633   5.974   7.886  0.9999  0.6133  2.1994
  907MOL0     H22438  -0.692   6.127   7.820  1.3270 -2.4165 -1.1702
  907MOL0     H22439  -0.810   5.925   7.736 -0.9904  0.4935 -1.4294
  907MOL0     H22440  -0.865   5.881   7.903 -0.7252  0.7751 -0.1303
  907MOL0     H22441  -1.129   6.205   7.846 -0.7315 -0.5333  0.9782
  907MOL0     H22442  -0.406   6.051   8.261  0.7989 -2.5508 -0.6367
  907MOL0     H22443  -0.186   6.104   8.459  1.6909 -1.7922  0.8118
  907MOL0     H22444  -0.239   5.969   8.363 -3.0930  2.6896 -0.2230
  907MOL0     H22445  -0.064   6.015   8.362 -0.0094 -1.7938  0.9893
  908MOL0     O22446   0.919   7.471   3.464 -0.0252 -0.1234  0.0741
  908MOL0     C22447   0.914   7.469   3.591  0.5988  0.2236 -0.2030
  908MOL0     O22448   1.019   7.476   3.673  0.1077  0.3544 -0.3394
  908MOL0     C22449   1.146   7.463   3.615  0.0352 -0.0227  0.7204
  908MOL0     C22450   1.241   7.547   3.667 -1.2313  0.0820 -1.0109
  908MOL0     C22451   1.374   7.543   3.629 -0.2681 -0.2176 -0.7492
  908MOL0     C22452   1.416   7.447   3.531 -0.3425 -0.3273 -0.0203
  908MOL0     O22453   1.545   7.420   3.504  0.2392  0.7347  0.4052
  908MOL0     C22454   1.651   7.512   3.555 -0.0046  0.1032 -0.3627
  908MOL0     C22455   1.784   7.475   3.488  0.5600 -0.5286 -0.2541
  908MOL0     C22456   1.892   7.569   3.546 -0.3286 -0.2849 -0.1212
  908MOL0     C22457   2.033   7.516   3.502  0.1436 -0.0118  0.1982
  908MOL0     C22458   2.152   7.573   3.568  0.0026 -0.1096  0.6580
  908MOL0     C22459   2.271   7.492   3.516  0.5224  0.5418  0.7290
  908MOL0     C22460   2.396   7.550   3.581 -0.1698 -0.1665 -0.0291
  908MOL0     C22461   2.509   7.468   3.538 -0.3839  0.1216 -0.2932
  908MOL0     N22462   2.640   7.488   3.607  0.1616  0.3252 -0.3631
  908MOL0     C22463   2.660   7.495   3.739 -0.2446  0.2128 -0.8916
  908MOL0     C22464   2.795   7.471   3.752 -0.3891 -0.1675  0.2958
  908MOL0     C22465   2.884   7.439   3.878 -0.6154 -0.2158 -0.7824
  908MOL0     C22466   3.037   7.412   3.853 -0.6958 -0.3537 -0.0856
  908MOL0     C22467   3.117   7.399   3.982  0.0396 -0.2667 -0.3950
  908MOL0     C22468   3.260   7.353   3.955  0.5090  0.3081 -0.1837
  908MOL0     O22469   3.334   7.334   4.082 -0.1355 -0.0865 -0.1859
  908MOL0     C22470   3.442   7.413   4.097 -0.0946  0.4214 -0.0107
  908MOL0     C22471   3.443   7.550   4.066  0.0427 -0.1211 -0.4126
  908MOL0     C22472   3.560   7.629   4.078  0.3125 -0.1842 -0.5021
  908MOL0     C22473   3.677   7.566   4.126  0.8608  0.7485 -0.2635
  908MOL0     C22474   3.807   7.623   4.123 -0.4008  0.6361 -0.4386
  908MOL0     O22475   3.911   7.539   4.159 -0.8418 -0.6396 -0.3355
  908MOL0     C22476   4.046   7.585   4.147  0.4606  0.1444 -0.3922
  908MOL0     C22477   4.096   7.671   4.244 -0.2405 -0.6038  0.0043
  908MOL0     C22478   4.229   7.716   4.233 -0.7279 -0.1954  0.0386
  908MOL0     C22479   4.310   7.672   4.130  0.0160 -1.1314  0.1479
  908MOL0     O22480   4.427   7.741   4.116 -0.0926  0.4309 -0.6504
  908MOL0     C22481   4.460   7.783   3.976  0.6079  0.3817 -1.1316
  908MOL0     C22482   4.569   7.891   3.982 -0.6014 -0.2259  0.3679
  908MOL0     C22483   4.702   7.849   4.055 -0.5319  0.1426  0.6907
  908MOL0     C22484   4.789   7.757   3.979  0.0059  0.6287 -0.1097
  908MOL0     C22485   4.910   7.703   4.052  0.0715  0.2510  0.0441
  908MOL0     C22486   4.993   7.602   3.973 -0.3551  0.3823  0.0785
  908MOL0     C22487   5.137   7.595   4.029 -0.0803  0.4674 -0.3046
  908MOL0     C22488   5.199   7.455   4.023 -0.0946  0.1195  0.3862
  908MOL0    Cl22489   5.148   7.361   4.170  0.2036 -0.3035 -0.1157
  908MOL0     C22490   4.254   7.585   4.035 -1.0743  0.1078 -0.5360
  908MOL0     C22491   4.120   7.546   4.036 -0.1445  0.4171 -0.1314
  908MOL0     O22492   3.817   7.734   4.070  0.0333 -0.1946 -0.3067
  908MOL0     C22493   3.672   7.428   4.172 -0.2421 -0.3565  0.2779
  908MOL0     C22494   3.559   7.354   4.149  0.2713  0.3032  1.1683
  908MOL0     N22495   2.855   7.465   3.623 -0.2728 -0.4602 -0.4110
  908MOL0     N22496   2.758   7.480   3.543 -0.4497 -0.2923 -0.0355
  908MOL0     C22497   1.323   7.374   3.468  0.6120  0.6756  0.0663
  908MOL0     C22498   1.185   7.387   3.498 -0.1732 -0.4306 -0.1041
  908MOL0     C22499   0.773   7.465   3.653  0.0204  0.6052 -0.3654
  908MOL0     C22500   0.665   7.450   3.566  0.1440  0.0841 -0.1281
  908MOL0     C22501   0.529   7.446   3.618 -0.7777  0.0761 -0.0367
  908MOL0     C22502   0.512   7.447   3.757  0.2395  0.4075  0.0306
  908MOL0     O22503   0.382   7.442   3.801 -0.4225  0.6795  0.4265
  908MOL0     C22504   0.350   7.343   3.905 -0.1993 -0.4546  0.2704
  908MOL0     C22505   0.198   7.327   3.901  0.3961 -1.0314  0.1421
  908MOL0     C22506   0.157   7.205   3.981 -0.0456 -0.2803 -0.1779
  908MOL0     C22507   0.009   7.187   3.960  0.1168  0.1861 -0.2575
  908MOL0     C22508  -0.027   7.069   4.039 -0.2542 -0.0852  0.0928
  908MOL0     C22509  -0.065   7.010   4.137 -0.1604 -0.1856 -0.2061
  908MOL0     C22510   0.624   7.444   3.839  0.4516  0.2392  0.1131
  908MOL0     C22511   0.748   7.465   3.793  0.0273 -0.1476  0.3252
  908MOL0     C22512   0.857   7.468   3.905 -0.1565 -0.2085 -0.2776
  908MOL0     H22513   1.210   7.617   3.744  1.5657 -0.5083  0.7615
  908MOL0     H22514   1.446   7.606   3.680 -2.7814  0.9206  1.6584
  908MOL0     H22515   1.623   7.613   3.525 -1.6283 -0.8239 -2.2226
  908MOL0     H22516   1.668   7.505   3.662 -0.1586  1.3724 -0.2412
  908MOL0     H22517   1.774   7.496   3.381 -2.9030 -2.6736 -0.4930
  908MOL0     H22518   1.811   7.370   3.504 -1.8548 -0.9131  1.9157
  908MOL0     H22519   1.880   7.579   3.654 -2.8505 -0.1089 -0.3623
  908MOL0     H22520   1.882   7.671   3.509  1.9771  0.0640  0.0328
  908MOL0     H22521   2.025   7.409   3.520  1.0462 -0.1875 -0.3847
  908MOL0     H22522   2.043   7.539   3.395  1.8825  0.5183  0.4442
  908MOL0     H22523   2.167   7.681   3.559  0.4231 -0.0894  1.4771
  908MOL0     H22524   2.132   7.555   3.674 -0.7334 -2.5022  0.1894
  908MOL0     H22525   2.269   7.388   3.552  0.5671  0.5971  0.8896
  908MOL0     H22526   2.282   7.499   3.407  1.9700  0.3160  0.8357
  908MOL0     H22527   2.389   7.548   3.690  3.4624 -3.0125  0.3406
  908MOL0     H22528   2.412   7.654   3.550  1.2334 -0.5763 -0.7582
  908MOL0     H22529   2.480   7.363   3.551 -0.7707  0.2701  0.0829
  908MOL0     H22530   2.521   7.478   3.430  1.0642 -1.7472 -0.3537
  908MOL0     H22531   2.588   7.513   3.819 -0.3508 -0.1364 -0.9071
  908MOL0     H22532   2.875   7.528   3.941  2.0967  0.0849 -0.6963
  908MOL0     H22533   2.838   7.359   3.936  0.7507  0.3671  1.2228
  908MOL0     H22534   3.038   7.313   3.806 -1.0985  0.7116 -2.4568
  908MOL0     H22535   3.076   7.492   3.789 -2.7903  2.7433  2.2234
  908MOL0     H22536   3.068   7.327   4.049  1.4908 -1.0129 -0.0993
  908MOL0     H22537   3.125   7.498   4.028  3.2815 -0.1240 -1.0703
  908MOL0     H22538   3.305   7.429   3.890  1.3525  0.9568  1.1155
  908MOL0     H22539   3.248   7.255   3.910  1.2070  0.2208 -0.1897
  908MOL0     H22540   3.355   7.592   4.018  0.3301  2.3873  1.0843
  908MOL0     H22541   3.560   7.736   4.059 -0.8247  0.0286  0.6098
  908MOL0     H22542   4.043   7.697   4.335  0.8201 -1.2994  0.8371
  908MOL0     H22543   4.268   7.775   4.315  0.7729  0.0115 -0.7893
  908MOL0     H22544   4.494   7.693   3.924 -0.3956 -1.5047  1.2715
  908MOL0     H22545   4.375   7.831   3.927 -0.4150  0.9192  1.0189
  908MOL0     H22546   4.585   7.906   3.874 -2.1321 -3.3833 -0.4145
  908MOL0     H22547   4.543   7.984   4.033  0.9868 -1.3769  3.5006
  908MOL0     H22548   4.764   7.936   4.079 -0.0951  0.4845 -1.5101
  908MOL0     H22549   4.682   7.798   4.150  0.8415  1.1806  1.5909
  908MOL0     H22550   4.813   7.797   3.880 -1.0189 -0.4582 -0.8294
  908MOL0     H22551   4.731   7.672   3.944  1.6826 -0.3517 -0.6008
  908MOL0     H22552   4.884   7.655   4.147  0.0929 -0.2936 -0.2245
  908MOL0     H22553   4.968   7.791   4.080 -0.4220  0.4105  0.5841
  908MOL0     H22554   4.948   7.502   3.973 -1.5610  0.8712 -1.8717
  908MOL0     H22555   4.990   7.630   3.867 -0.9527 -1.3105 -0.3853
  908MOL0     H22556   5.130   7.629   4.133 -1.7206 -2.2689  0.6196
  908MOL0     H22557   5.204   7.663   3.977  0.0180  0.3902 -0.2796
  908MOL0     H22558   5.167   7.393   3.939  2.0774 -0.1674 -0.2892
  908MOL0     H22559   5.309   7.456   4.025 -0.0576 -0.6009 -0.5755
  908MOL0     H22560   4.301   7.565   3.939 -3.2229 -1.5207 -1.3425
  908MOL0     H22561   4.059   7.489   3.967  0.5789 -2.8604  1.7130
  908MOL0     H22562   3.751   7.376   4.226  1.2999  0.7963 -0.7596
  908MOL0     H22563   3.563   7.248   4.172  0.6046 -0.4947 -2.0280
  908MOL0     H22564   1.342   7.308   3.384 -0.0097  2.7190 -1.7747
  908MOL0     H22565   1.118   7.325   3.440  0.2229  0.5407 -1.6554
  908MOL0     H22566   0.664   7.452   3.457 -0.3066 -0.9245 -0.1468
  908MOL0     H22567   0.447   7.423   3.551  0.1606  1.2400 -1.6464
  908MOL0     H22568   0.380   7.381   4.003 -1.8918  0.5391  0.4419
  908MOL0     H22569   0.402   7.254   3.868  0.9129 -0.2139  1.2046
  908MOL0     H22570   0.170   7.311   3.797  0.0381 -0.6499  0.1760
  908MOL0     H22571   0.145   7.417   3.934  0.1282 -1.1195 -0.0483
  908MOL0     H22572   0.171   7.214   4.090 -0.6075  0.8269 -0.1715
  908MOL0     H22573   0.206   7.114   3.947 -1.6949 -1.7206  1.1474
  908MOL0     H22574  -0.037   7.279   3.998  1.6206  1.4721 -1.4112
  908MOL0     H22575  -0.024   7.182   3.856  0.4980  3.7783 -0.6859
  908MOL0     H22576  -0.110   6.949   4.213  1.3870 -0.7487  0.2887
  908MOL0     H22577   0.598   7.436   3.944 -1.8138  1.5664 -0.2757
  908MOL0     H22578   0.929   7.386   3.900  1.7341  0.9998  3.4889
  908MOL0     H22579   0.901   7.568   3.898  0.8072 -0.6685 -0.9452
  908MOL0     H22580   0.829   7.448   4.008 -1.0497 -1.3219 -0.7122
  909MOL0     O22581   6.503   8.890   4.489  0.0012 -0.2336  0.9645
  909MOL0     C22582   6.444   8.908   4.383 -0.6720 -0.6153 -0.3488
  909MOL0     O22583   6.488   8.856   4.261 -0.6050 -0.0999  0.0126
  909MOL0     C22584   6.625   8.833   4.251  1.1582 -0.0176 -0.0800
  909MOL0     C22585   6.689   8.904   4.155 -0.6480 -1.0112 -1.2325
  909MOL0     C22586   6.827   8.878   4.128  0.5734  0.3877  0.2680
  909MOL0     C22587   6.898   8.779   4.200  0.2061  0.1277  0.4235
  909MOL0     O22588   7.028   8.749   4.167  0.1997  0.1331  0.5618
  909MOL0     C22589   7.124   8.740   4.267 -0.0290  0.2288 -0.0628
  909MOL0     C22590   7.234   8.652   4.216 -0.0459 -0.2022  0.1925
  909MOL0     C22591   7.349   8.727   4.153  1.1786 -0.1083 -0.0128
  909MOL0     C22592   7.454   8.646   4.110 -0.6379  0.0799 -0.2590
  909MOL0     C22593   7.580   8.726   4.088 -0.3320  0.2044 -0.2880
  909MOL0     C22594   7.698   8.640   4.047 -0.2893  0.3283  0.4252
  909MOL0     C22595   7.828   8.717   4.015 -0.2568  0.4117  0.3473
  909MOL0     C22596   7.936   8.622   3.970  0.5426  0.4616  0.1884
  909MOL0     N22597   8.072   8.679   3.941  0.4560 -0.0508  0.0280
  909MOL0     C22598   8.093   8.770   3.833  0.1079  0.1858 -0.8745
  909MOL0     C22599   8.232   8.788   3.848 -0.6094 -0.0169  0.7934
  909MOL0     C22600   8.330   8.859   3.762 -0.4232 -1.0030  0.0727
  909MOL0     C22601   8.359   8.787   3.628  0.5622 -1.0325 -0.1905
  909MOL0     C22602   8.437   8.878   3.532  0.0846 -0.8298  0.2225
  909MOL0     C22603   8.590   8.874   3.534  0.2510 -1.1407 -0.7522
  909MOL0     O22604   8.642   9.005   3.506 -0.4433 -0.2398  0.1613
  909MOL0     C22605   8.771   9.004   3.452  0.6038 -0.2798  0.1533
  909MOL0     C22606   8.802   9.126   3.396 -0.6360 -0.3393  0.2396
  909MOL0     C22607   8.927   9.136   3.327 -0.5877 -0.4919 -0.0530
  909MOL0     C22608   9.023   9.031   3.328 -0.3569  0.0362 -0.8232
  909MOL0     C22609   9.147   9.047   3.243  0.4006  0.4160  0.5004
  909MOL0     O22610   9.148   9.150   3.158  0.7264 -0.2952  0.0245
  909MOL0     C22611   9.265   9.179   3.088  0.6273 -0.1181 -0.5091
  909MOL0     C22612   9.357   9.288   3.125 -0.0264 -0.0033 -0.3537
  909MOL0     C22613   9.471   9.306   3.048 -0.6930  0.3134  0.1505
  909MOL0     C22614   9.499   9.213   2.939  0.8323  0.2820  0.2428
  909MOL0     O22615   9.597   9.241   2.851  0.0988 -0.2767  0.1731
  909MOL0     C22616   9.554   9.303   2.727 -0.6699 -0.2351  0.0266
  909MOL0     C22617   9.543   9.456   2.743  0.1961  0.3304  0.5753
  909MOL0     C22618   9.508   9.510   2.606 -0.2629 -0.5467  0.4921
  909MOL0     C22619   9.488   9.666   2.631 -0.6383 -0.0563  0.4753
  909MOL0     C22620   9.461   9.738   2.496 -0.3443  0.3524  0.4415
  909MOL0     C22621   9.594   9.764   2.416 -0.6680 -0.5776 -1.3797
  909MOL0     C22622   9.676   9.883   2.467  0.2397  0.0171 -0.4677
  909MOL0     C22623   9.801   9.902   2.382  0.2988  0.4664  0.6720
  909MOL0    Cl22624   9.924   9.792   2.440 -0.0915  0.3877 -0.1205
  909MOL0     C22625   9.412   9.105   2.903  0.2634  0.0131  0.0870
  909MOL0     C22626   9.301   9.092   2.986  0.4156 -0.2255 -0.3710
  909MOL0     O22627   9.237   8.969   3.252  0.4522  0.5689  0.2324
  909MOL0     C22628   8.988   8.918   3.392 -0.8865 -0.0810  0.3703
  909MOL0     C22629   8.869   8.897   3.456 -0.1073 -0.4219 -0.0060
  909MOL0     N22630   8.275   8.722   3.963 -0.0262  0.0569  0.0156
  909MOL0     N22631   8.179   8.667   4.018  0.1316 -0.6260  0.3975
  909MOL0     C22632   6.835   8.716   4.297  0.2148 -0.6816 -0.0802
  909MOL0     C22633   6.700   8.734   4.323  1.1363 -0.5491 -0.1539
  909MOL0     C22634   6.315   8.986   4.390 -0.4535  0.0440 -1.0346
  909MOL0     C22635   6.219   8.960   4.293  0.0038 -0.4707  0.0952
  909MOL0     C22636   6.100   9.044   4.275 -0.0104  0.6689  0.4768
  909MOL0     C22637   6.083   9.146   4.363  0.4330  0.1906 -0.5524
  909MOL0     O22638   5.978   9.246   4.361 -0.0277  0.8711 -0.1035
  909MOL0     C22639   5.866   9.227   4.272 -0.1820 -0.5714  0.3399
  909MOL0     C22640   5.769   9.338   4.302 -0.2649  0.0988  0.5069
  909MOL0     C22641   5.629   9.283   4.263  0.0258  0.9692  0.3679
  909MOL0     C22642   5.507   9.385   4.266 -0.0772 -0.4714 -0.4314
  909MOL0     C22643   5.498   9.450   4.396  0.6775 -0.0828 -0.4264
  909MOL0     C22644   5.496   9.488   4.511  0.2044  0.1226  0.2760
  909MOL0     C22645   6.178   9.171   4.455 -0.1623  0.5238 -0.1478
  909MOL0     C22646   6.290   9.094   4.479 -1.1366  0.4994  0.1389
  909MOL0     C22647   6.394   9.147   4.572 -0.3657  0.2545 -0.2249
  909MOL0     H22648   6.634   8.977   4.097  0.5110  2.2351  1.4008
  909MOL0     H22649   6.871   8.925   4.040 -0.7631 -1.5573 -1.5484
  909MOL0     H22650   7.167   8.835   4.299 -2.2997  1.2604  0.1225
  909MOL0     H22651   7.081   8.697   4.358 -0.9519 -0.5322 -0.8297
  909MOL0     H22652   7.191   8.582   4.144  2.4025 -2.1630  0.4929
  909MOL0     H22653   7.280   8.585   4.290  2.6584 -1.0121 -2.0445
  909MOL0     H22654   7.391   8.794   4.228  0.3232 -0.1639  0.5191
  909MOL0     H22655   7.321   8.790   4.069  1.9543  1.0607  0.5762
  909MOL0     H22656   7.471   8.559   4.174 -0.2427 -0.9709 -1.7548
  909MOL0     H22657   7.424   8.602   4.014 -1.5607 -1.5541  0.7255
  909MOL0     H22658   7.572   8.798   4.006 -0.1287 -0.4783 -0.9186
  909MOL0     H22659   7.606   8.778   4.180 -1.6664  3.1787 -1.4754
  909MOL0     H22660   7.717   8.567   4.127  0.0458 -1.2999 -1.0533
  909MOL0     H22661   7.672   8.575   3.963 -0.3310 -2.5997  2.5274
  909MOL0     H22662   7.855   8.769   4.107  1.5000  0.8137 -0.3590
  909MOL0     H22663   7.817   8.790   3.934 -2.5737 -0.6506 -0.3987
  909MOL0     H22664   7.946   8.540   4.042 -2.0367 -1.3709 -1.3606
  909MOL0     H22665   7.900   8.585   3.874 -0.8035  0.3391  0.7139
  909MOL0     H22666   8.020   8.817   3.767 -2.1087  2.1953  2.7101
  909MOL0     H22667   8.282   8.955   3.740  0.6563 -0.8153 -1.6671
  909MOL0     H22668   8.423   8.877   3.817 -0.9807  3.6810 -0.0469
  909MOL0     H22669   8.417   8.700   3.659  0.7819 -1.1803 -0.9913
  909MOL0     H22670   8.271   8.748   3.576  0.1561 -0.9358  0.4106
  909MOL0     H22671   8.417   8.982   3.558  0.7617 -0.6014 -0.1346
  909MOL0     H22672   8.395   8.850   3.435 -1.9868  0.9651  0.5378
  909MOL0     H22673   8.620   8.797   3.463  2.0975 -0.6279 -0.5874
  909MOL0     H22674   8.626   8.844   3.633 -0.8866 -0.1399 -0.0137
  909MOL0     H22675   8.725   9.202   3.404  0.6942  1.0468  0.3250
  909MOL0     H22676   8.939   9.233   3.279 -1.3277  0.5061  1.6714
  909MOL0     H22677   9.336   9.345   3.215  0.0242  2.3863 -1.7836
  909MOL0     H22678   9.556   9.373   3.058  0.0934 -0.6087 -0.2019
  909MOL0     H22679   9.626   9.291   2.645 -0.9204 -2.9103  0.1115
  909MOL0     H22680   9.462   9.258   2.689 -0.0806 -1.0372 -0.4794
  909MOL0     H22681   9.465   9.480   2.816  0.2822 -0.2264  0.8537
  909MOL0     H22682   9.639   9.485   2.786  1.6518 -3.5665  0.2678
  909MOL0     H22683   9.585   9.496   2.530  1.4499  1.3046  1.8095
  909MOL0     H22684   9.418   9.458   2.570 -0.7762  0.9185 -0.4593
  909MOL0     H22685   9.580   9.706   2.676 -0.0725 -0.3379 -0.3956
  909MOL0     H22686   9.391   9.675   2.680 -2.3326 -1.0728 -2.4299
  909MOL0     H22687   9.419   9.838   2.510 -0.6587  0.6325 -2.1495
  909MOL0     H22688   9.393   9.681   2.433 -0.9958  0.4540  1.0382
  909MOL0     H22689   9.658   9.675   2.413 -0.7777 -0.7027 -0.2994
  909MOL0     H22690   9.575   9.785   2.310 -0.4768 -1.5180 -1.6115
  909MOL0     H22691   9.695   9.875   2.575 -2.0441  2.3969  0.2212
  909MOL0     H22692   9.612   9.968   2.442 -0.5601 -1.0475 -2.1467
  909MOL0     H22693   9.788   9.876   2.276  0.7991 -0.5745  0.8537
  909MOL0     H22694   9.838  10.005   2.376  1.6260 -0.0601 -0.7997
  909MOL0     H22695   9.428   9.039   2.818 -1.1985  0.9539 -0.9659
  909MOL0     H22696   9.231   9.012   2.965  1.1703 -0.7404 -1.0088
  909MOL0     H22697   9.065   8.843   3.374  1.0082  2.1485 -1.5983
  909MOL0     H22698   8.843   8.797   3.488 -2.1978 -0.7809 -2.5291
  909MOL0     H22699   6.896   8.639   4.344  0.6323 -0.1930  0.1794
  909MOL0     H22700   6.649   8.683   4.404  0.3998 -0.8498 -0.7874
  909MOL0     H22701   6.230   8.878   4.223 -0.1036 -0.6177  0.2503
  909MOL0     H22702   6.033   9.027   4.192  0.8257  2.3857 -0.6125
  909MOL0     H22703   5.814   9.137   4.307 -0.7597 -0.4610 -0.1963
  909MOL0     H22704   5.897   9.217   4.167 -0.7527 -0.3418  0.1428
  909MOL0     H22705   5.810   9.428   4.257 -0.3006 -0.1151  0.0437
  909MOL0     H22706   5.771   9.340   4.412 -0.3639 -3.1076  0.6687
  909MOL0     H22707   5.603   9.208   4.337  1.6474 -0.2268 -0.2235
  909MOL0     H22708   5.634   9.232   4.166 -0.6229  1.5487  0.0144
  909MOL0     H22709   5.528   9.456   4.186 -0.5032 -0.1466 -0.2605
  909MOL0     H22710   5.405   9.347   4.251 -0.6185  1.5575 -2.4221
  909MOL0     H22711   5.498   9.531   4.609 -0.9355  2.3081 -0.5953
  909MOL0     H22712   6.161   9.270   4.497  0.6926  1.2513 -1.4602
  909MOL0     H22713   6.480   9.196   4.526 -0.1145  1.4655  1.4174
  909MOL0     H22714   6.356   9.233   4.630  1.9869  2.2931 -1.5173
  909MOL0     H22715   6.421   9.063   4.637 -1.7054 -1.5132 -1.8437
  910MOL0     O22716   4.522   5.594   5.557 -0.8981 -0.5574  0.0700
  910MOL0     C22717   4.491   5.488   5.612  0.9726 -0.2427 -0.3695
  910MOL0     O22718   4.577   5.388   5.637  0.2490 -0.4018 -0.2809
  910MOL0     C22719   4.711   5.423   5.658  0.0176 -0.4161  0.3984
  910MOL0     C22720   4.747   5.539   5.725  0.0310  0.1928 -0.3780
  910MOL0     C22721   4.887   5.558   5.739 -0.0031  0.8030 -0.2718
  910MOL0     C22722   4.983   5.473   5.682  0.1352  1.1700  0.9153
  910MOL0     O22723   5.113   5.503   5.705 -0.0422 -0.1606  0.0838
  910MOL0     C22724   5.147   5.615   5.625 -0.3706 -0.1271 -1.1091
  910MOL0     C22725   5.297   5.641   5.625 -0.6979 -0.7224 -0.1007
  910MOL0     C22726   5.370   5.546   5.538 -0.2939  0.4370 -0.4120
  910MOL0     C22727   5.520   5.584   5.543  0.7859 -0.0022  0.0372
  910MOL0     C22728   5.597   5.511   5.430  0.1419  0.7073 -0.6213
  910MOL0     C22729   5.746   5.523   5.451  0.0424  0.6449 -0.6391
  910MOL0     C22730   5.832   5.439   5.356 -0.8411  0.7630  0.4551
  910MOL0     C22731   5.977   5.458   5.377  0.0935 -0.2358 -0.4410
  910MOL0     N22732   6.048   5.582   5.322  0.7350 -0.2303  0.8915
  910MOL0     C22733   6.070   5.599   5.186 -0.2060 -0.7029 -0.0377
  910MOL0     C22734   6.166   5.694   5.181  0.3089 -0.5829  0.8887
  910MOL0     C22735   6.212   5.750   5.049  0.1276 -0.4430  0.3595
  910MOL0     C22736   6.361   5.760   5.063 -0.4388 -0.2657  0.3661
  910MOL0     C22737   6.428   5.808   4.937  0.7128 -0.4120  0.1769
  910MOL0     C22738   6.415   5.961   4.911 -0.1402 -0.7232  0.1774
  910MOL0     O22739   6.459   6.037   5.029  0.3235 -0.0998  0.1213
  910MOL0     C22740   6.585   6.092   5.021  0.6663  0.3298  0.4150
  910MOL0     C22741   6.594   6.225   5.065  0.3832  0.2105 -0.8253
  910MOL0     C22742   6.713   6.291   5.043  0.9245 -0.3030  0.2038
  910MOL0     C22743   6.829   6.226   4.991 -0.6556 -0.7153  0.2374
  910MOL0     C22744   6.944   6.313   4.949  0.2986  0.6490 -0.6174
  910MOL0     O22745   7.058   6.257   4.898  0.1312  0.9092 -0.2324
  910MOL0     C22746   7.153   6.349   4.851 -0.8336 -0.2289  1.0347
  910MOL0     C22747   7.140   6.385   4.716  0.6307  0.1333  1.0327
  910MOL0     C22748   7.232   6.477   4.653 -0.0177  0.0731  0.3202
  910MOL0     C22749   7.351   6.503   4.722 -0.7436 -0.5725 -0.1039
  910MOL0     O22750   7.457   6.572   4.671 -0.2935  0.4219  0.0018
  910MOL0     C22751   7.593   6.511   4.665  0.1709  0.3088  0.6170
  910MOL0     C22752   7.577   6.369   4.606  0.0439  0.2049 -0.4902
  910MOL0     C22753   7.713   6.308   4.595  0.2579 -0.0914  0.0557
  910MOL0     C22754   7.714   6.167   4.559  0.7081 -0.4020  0.0381
  910MOL0     C22755   7.862   6.118   4.546 -0.1563 -0.3032 -0.2461
  910MOL0     C22756   7.947   6.180   4.437 -0.7933 -0.1447  0.5072
  910MOL0     C22757   7.893   6.172   4.291  0.1387  0.2028  0.4386
  910MOL0     C22758   7.999   6.179   4.177  0.1258  0.1820  0.5136
  910MOL0    Cl22759   8.090   6.328   4.188  0.2621 -0.0709 -0.3966
  910MOL0     C22760   7.367   6.453   4.854  0.3627 -0.1198  0.6341
  910MOL0     C22761   7.272   6.372   4.918  0.3675  0.2999  0.1692
  910MOL0     O22762   6.927   6.433   4.967  0.8000 -0.3650 -0.3074
  910MOL0     C22763   6.830   6.085   4.959  0.6686  0.6483  0.7657
  910MOL0     C22764   6.700   6.027   4.985 -0.3846  0.2028 -0.3826
  910MOL0     N22765   6.200   5.730   5.309 -0.3959  0.0553  0.3695
  910MOL0     N22766   6.122   5.671   5.392 -0.0935  0.1552  0.0634
  910MOL0     C22767   4.945   5.356   5.612  1.0199 -0.4347 -0.0343
  910MOL0     C22768   4.804   5.326   5.612 -0.4134  0.2163  0.4983
  910MOL0     C22769   4.350   5.469   5.661 -0.0288  0.4496  0.0094
  910MOL0     C22770   4.331   5.376   5.767 -0.1485  0.2451  0.5060
  910MOL0     C22771   4.209   5.354   5.822  0.8857 -0.5852  0.0944
  910MOL0     C22772   4.090   5.407   5.764  0.5461  0.8581  1.2607
  910MOL0     O22773   3.976   5.374   5.820  0.1362  0.3391  0.5335
  910MOL0     C22774   3.856   5.405   5.751  0.9374  0.0946  0.3361
  910MOL0     C22775   3.750   5.308   5.807  0.9211 -0.3970 -0.5835
  910MOL0     C22776   3.755   5.303   5.965  0.5270  0.2613  0.8834
  910MOL0     C22777   3.765   5.166   6.026 -0.1924  0.6281 -0.1326
  910MOL0     C22778   3.636   5.100   5.993  0.2126 -0.7368  0.3021
  910MOL0     C22779   3.529   5.044   5.977  0.5897 -0.4229  0.4089
  910MOL0     C22780   4.107   5.478   5.642  0.1739  0.4225 -0.4552
  910MOL0     C22781   4.236   5.513   5.592 -0.2244 -0.2547  0.2640
  910MOL0     C22782   4.233   5.596   5.464  0.6511  0.2205  0.3860
  910MOL0     H22783   4.681   5.613   5.770 -3.0559 -1.6405 -1.5642
  910MOL0     H22784   4.921   5.644   5.796  0.0202 -0.2180  1.3170
  910MOL0     H22785   5.109   5.596   5.524  1.6998 -1.0960 -1.7478
  910MOL0     H22786   5.104   5.705   5.670  2.0514  0.7088 -0.3037
  910MOL0     H22787   5.332   5.642   5.729  0.3707 -0.2555 -0.4509
  910MOL0     H22788   5.325   5.739   5.584  3.0528 -2.2319 -1.5465
  910MOL0     H22789   5.335   5.553   5.435 -0.0826  1.3531 -0.4301
  910MOL0     H22790   5.359   5.440   5.563 -0.2141  0.0720 -1.8630
  910MOL0     H22791   5.534   5.692   5.531  2.8515  0.0257  2.0375
  910MOL0     H22792   5.557   5.555   5.641  0.9681  0.9552  0.2612
  910MOL0     H22793   5.575   5.404   5.430  0.9646  0.5365  0.3014
  910MOL0     H22794   5.568   5.556   5.334  0.9061 -0.1085 -1.2501
  910MOL0     H22795   5.786   5.625   5.449  3.1731 -0.2526  3.4477
  910MOL0     H22796   5.767   5.473   5.545 -0.9060 -1.8839 -1.6919
  910MOL0     H22797   5.809   5.471   5.254  1.9430 -1.4247 -1.0202
  910MOL0     H22798   5.796   5.336   5.363 -0.2403  0.6544  2.6329
  910MOL0     H22799   6.002   5.460   5.483  0.5124  1.7071 -0.5366
  910MOL0     H22800   6.019   5.365   5.336  0.2343 -0.5974  0.5013
  910MOL0     H22801   6.022   5.541   5.107 -2.4419  0.7092  0.1989
  910MOL0     H22802   6.190   5.674   4.974  1.5836  0.4333 -1.0189
  910MOL0     H22803   6.159   5.843   5.030  1.1619 -0.0442 -0.6484
  910MOL0     H22804   6.390   5.825   5.146  0.3486 -1.0128  0.6964
  910MOL0     H22805   6.397   5.660   5.089  1.1438  0.2648  0.2957
  910MOL0     H22806   6.386   5.754   4.851  2.1152 -1.7268  0.2611
  910MOL0     H22807   6.531   5.772   4.933  1.0092  0.5400 -1.0609
  910MOL0     H22808   6.316   5.990   4.875  0.4163 -0.2446 -1.0056
  910MOL0     H22809   6.483   5.990   4.831 -0.4760  3.0480  1.0682
  910MOL0     H22810   6.507   6.272   5.110  1.0073  1.4344 -0.8813
  910MOL0     H22811   6.706   6.395   5.074 -3.2739  0.0535 -1.2684
  910MOL0     H22812   7.057   6.355   4.653  1.3224  2.7720 -1.3639
  910MOL0     H22813   7.232   6.507   4.549  1.7090  1.6840  0.7341
  910MOL0     H22814   7.662   6.571   4.605  1.0823  0.3862  1.7192
  910MOL0     H22815   7.635   6.505   4.765  1.9767  1.5299 -0.0266
  910MOL0     H22816   7.517   6.316   4.682 -0.1235  2.1978  0.8375
  910MOL0     H22817   7.526   6.360   4.510 -2.8314 -0.3990  0.9773
  910MOL0     H22818   7.772   6.368   4.525 -0.0064  1.9965  1.5384
  910MOL0     H22819   7.768   6.307   4.690  2.4524  1.7016 -1.0970
  910MOL0     H22820   7.652   6.148   4.471 -0.8114  0.5867  0.8559
  910MOL0     H22821   7.666   6.117   4.644  1.8103  0.7492  1.3949
  910MOL0     H22822   7.855   6.010   4.528 -1.9448 -0.8449  2.9900
  910MOL0     H22823   7.914   6.129   4.641 -0.2058 -1.6705 -0.0324
  910MOL0     H22824   7.972   6.285   4.453 -1.0370 -0.4042  3.1070
  910MOL0     H22825   8.037   6.118   4.431 -1.3088 -1.0631  1.7975
  910MOL0     H22826   7.832   6.260   4.268 -3.4967 -2.1840  0.1778
  910MOL0     H22827   7.841   6.080   4.264  3.3823 -0.6644 -3.9775
  910MOL0     H22828   8.066   6.093   4.174 -1.2229 -0.9042  0.6350
  910MOL0     H22829   7.953   6.184   4.078  2.6211 -0.8375 -0.7859
  910MOL0     H22830   7.455   6.483   4.911  0.9291  3.5554 -1.8102
  910MOL0     H22831   7.282   6.344   5.022  0.4604 -1.0253 -0.1844
  910MOL0     H22832   6.915   6.027   4.924  0.8708  1.2337  0.2665
  910MOL0     H22833   6.700   5.920   4.968 -0.2110  0.1901 -0.3037
  910MOL0     H22834   5.031   5.302   5.574  1.2892 -0.1110  0.0976
  910MOL0     H22835   4.767   5.238   5.561 -0.0858 -1.1597  2.5355
  910MOL0     H22836   4.423   5.335   5.808 -0.5951  1.1136  2.4951
  910MOL0     H22837   4.191   5.283   5.902 -1.9347 -0.7659 -0.5883
  910MOL0     H22838   3.868   5.386   5.644 -0.6031 -2.3247  0.5093
  910MOL0     H22839   3.816   5.505   5.767 -0.0252  0.5340 -3.6852
  910MOL0     H22840   3.766   5.209   5.764  0.8029 -1.0811  0.8840
  910MOL0     H22841   3.649   5.340   5.782 -0.8399 -5.2962 -0.7857
  910MOL0     H22842   3.681   5.366   6.015 -0.7156  1.0271 -1.7554
  910MOL0     H22843   3.845   5.356   5.998  0.2374  2.2146 -1.2721
  910MOL0     H22844   3.855   5.118   5.987 -1.4899 -1.2967 -0.8852
  910MOL0     H22845   3.779   5.173   6.134  1.4691  0.2689 -0.3044
  910MOL0     H22846   3.429   5.007   5.974  0.3611  0.2498 -1.4648
  910MOL0     H22847   4.017   5.507   5.588 -0.0802  0.3067 -0.0995
  910MOL0     H22848   4.223   5.703   5.487 -0.5155 -0.3887  3.0307
  910MOL0     H22849   4.323   5.578   5.405  0.3707 -2.0005  0.5757
  910MOL0     H22850   4.141   5.563   5.415 -0.5331 -0.5526  2.9476
  911MOL0     O22851   4.489   4.923   3.145 -0.2549 -0.2158 -0.0391
  911MOL0     C22852   4.438   4.896   3.247  0.3028 -0.1826 -0.4069
  911MOL0     O22853   4.505   4.849   3.359 -0.0329  0.3333  0.6618
  911MOL0     C22854   4.644   4.849   3.384  0.2024 -0.3143  0.2043
  911MOL0     C22855   4.684   4.830   3.517  0.0369 -0.0170  0.0403
  911MOL0     C22856   4.822   4.832   3.550 -0.0427  0.1256  0.4235
  911MOL0     C22857   4.918   4.856   3.459  0.0135  0.0261  0.3688
  911MOL0     O22858   5.052   4.853   3.502 -0.5259  0.2295  0.0747
  911MOL0     C22859   5.141   4.796   3.399 -0.0074 -0.4793  0.0377
  911MOL0     C22860   5.273   4.762   3.463  0.9941  0.3135  0.0041
  911MOL0     C22861   5.288   4.608   3.485 -0.4351  1.2200 -0.6071
  911MOL0     C22862   5.425   4.558   3.532 -0.9923  0.4522  0.1019
  911MOL0     C22863   5.421   4.402   3.523 -0.1233 -0.4125  0.3974
  911MOL0     C22864   5.540   4.337   3.602  0.1232 -0.8437 -0.2099
  911MOL0     C22865   5.565   4.193   3.558 -0.5161  0.1877 -0.9007
  911MOL0     C22866   5.625   4.104   3.664 -0.8141 -0.0846  0.5688
  911MOL0     N22867   5.753   4.142   3.731 -0.0048 -0.0827 -0.1416
  911MOL0     C22868   5.875   4.137   3.675 -0.4916  0.2701  0.8782
  911MOL0     C22869   5.972   4.149   3.769 -1.0559  0.5262 -0.1307
  911MOL0     C22870   6.119   4.110   3.752  0.8512 -0.0649 -0.6454
  911MOL0     C22871   6.169   4.006   3.857  0.6815  0.0339 -0.1255
  911MOL0     C22872   6.323   3.980   3.832  0.4264  0.0878 -0.4715
  911MOL0     C22873   6.392   3.920   3.959  0.6627 -0.1827 -0.1005
  911MOL0     O22874   6.530   3.912   3.930 -0.4143  0.2715 -0.1039
  911MOL0     C22875   6.605   3.879   4.040  0.5579  0.5158 -0.6264
  911MOL0     C22876   6.559   3.838   4.168  0.0555  0.4667  0.0018
  911MOL0     C22877   6.653   3.807   4.266  0.4480 -0.4978  0.0406
  911MOL0     C22878   6.790   3.815   4.244  0.4436 -0.7830 -0.0407
  911MOL0     C22879   6.894   3.774   4.349 -0.5834  1.0945  0.1350
  911MOL0     O22880   7.014   3.747   4.309  0.0397  0.1926 -0.7272
  911MOL0     C22881   7.120   3.700   4.385 -0.0360  0.4978  0.2216
  911MOL0     C22882   7.142   3.736   4.524  0.4171  0.2650 -0.1485
  911MOL0     C22883   7.262   3.698   4.579 -0.4216  0.1771 -0.0471
  911MOL0     C22884   7.351   3.607   4.511  0.9034  0.1489  0.4402
  911MOL0     O22885   7.473   3.553   4.559 -0.5383  0.2321  0.5885
  911MOL0     C22886   7.514   3.606   4.684 -0.6828 -0.0658 -0.1462
  911MOL0     C22887   7.656   3.540   4.703  0.2539 -0.2547 -0.5080
  911MOL0     C22888   7.757   3.613   4.797 -0.9554 -0.2101 -0.8383
  911MOL0     C22889   7.885   3.535   4.802 -0.4659 -0.9430 -0.2233
  911MOL0     C22890   7.990   3.610   4.896 -0.2230 -0.2522  0.0910
  911MOL0     C22891   8.137   3.532   4.880  0.2509  0.9550 -0.4590
  911MOL0     C22892   8.247   3.611   4.952 -0.4529  0.0632  0.2959
  911MOL0     C22893   8.378   3.542   4.933 -0.0801 -0.5302  1.0434
  911MOL0    Cl22894   8.402   3.428   5.051  0.0728 -0.2890 -0.4581
  911MOL0     C22895   7.327   3.572   4.379  0.2801 -0.0520  0.0499
  911MOL0     C22896   7.212   3.621   4.320  0.1630 -0.0772  0.3128
  911MOL0     O22897   6.854   3.756   4.464 -0.1689 -0.2804 -0.0174
  911MOL0     C22898   6.832   3.858   4.117  0.2922 -0.3247  0.1307
  911MOL0     C22899   6.740   3.894   4.023 -0.3433  0.9487 -0.0705
  911MOL0     N22900   5.901   4.167   3.888 -0.0563 -0.1969  0.0398
  911MOL0     N22901   5.773   4.168   3.864 -0.0831 -0.8675  0.5385
  911MOL0     C22902   4.886   4.868   3.320 -0.2366  0.4434 -0.5572
  911MOL0     C22903   4.748   4.868   3.282  0.0454 -0.2290  0.0774
  911MOL0     C22904   4.289   4.908   3.263  0.1826  0.0510  0.2484
  911MOL0     C22905   4.215   4.951   3.153 -0.2819 -0.2468  0.4989
  911MOL0     C22906   4.081   4.959   3.168 -0.0032  0.1522 -0.4606
  911MOL0     C22907   4.014   4.924   3.285  0.4899 -0.8051 -0.4834
  911MOL0     O22908   3.879   4.914   3.301 -0.4760  0.6912 -0.0315
  911MOL0     C22909   3.790   4.964   3.195  0.1602  0.1560  0.1967
  911MOL0     C22910   3.654   4.963   3.260  0.6807  0.4166  0.2980
  911MOL0     C22911   3.548   5.010   3.153  0.4984 -0.2149  0.3369
  911MOL0     C22912   3.425   5.063   3.229 -0.5283 -0.3879 -0.6586
  911MOL0     C22913   3.322   5.093   3.130 -0.2035 -0.2492 -0.7563
  911MOL0     C22914   3.258   5.128   3.037  0.3045  0.2225  0.1697
  911MOL0     C22915   4.087   4.896   3.399  0.7406  0.6041  0.7199
  911MOL0     C22916   4.224   4.870   3.385  0.7167 -0.4777  0.3736
  911MOL0     C22917   4.279   4.788   3.505 -0.1953 -0.7065  0.4682
  911MOL0     H22918   4.605   4.814   3.590  1.0913  1.2693  1.5193
  911MOL0     H22919   4.858   4.820   3.651  2.3746  0.4456 -0.3440
  911MOL0     H22920   5.097   4.716   3.339 -1.6349  0.2391  0.2002
  911MOL0     H22921   5.158   4.888   3.343  1.5356 -0.1434  0.9971
  911MOL0     H22922   5.293   4.824   3.551 -1.5235 -1.3783  1.9081
  911MOL0     H22923   5.344   4.789   3.384 -0.0546 -0.9355 -1.4119
  911MOL0     H22924   5.262   4.550   3.396  1.0150 -0.2514 -0.1399
  911MOL0     H22925   5.221   4.579   3.567 -0.7479  1.8735 -0.6252
  911MOL0     H22926   5.504   4.581   3.460  0.8326  0.9000  2.1376
  911MOL0     H22927   5.462   4.601   3.626 -0.5767  2.4697 -0.9281
  911MOL0     H22928   5.327   4.368   3.568 -0.3125 -1.8122 -0.9713
  911MOL0     H22929   5.421   4.370   3.419 -3.4172 -2.7240  0.9291
  911MOL0     H22930   5.625   4.403   3.581 -2.3285  2.1812 -1.4564
  911MOL0     H22931   5.516   4.337   3.708  1.5145 -2.2129  0.1448
  911MOL0     H22932   5.631   4.222   3.476  0.8343 -0.1830  0.0234
  911MOL0     H22933   5.470   4.144   3.536  0.4618 -1.5353 -1.4836
  911MOL0     H22934   5.554   4.099   3.747  0.2014 -0.4930  1.4348
  911MOL0     H22935   5.626   4.001   3.629 -2.6036  0.0619 -0.0076
  911MOL0     H22936   5.895   4.097   3.576 -0.1696  0.8110  0.7159
  911MOL0     H22937   6.132   4.064   3.653  0.6600  1.5487 -1.4544
  911MOL0     H22938   6.178   4.200   3.769 -5.2605  4.1046  2.2280
  911MOL0     H22939   6.161   4.054   3.955  0.0106  1.5643 -0.8815
  911MOL0     H22940   6.103   3.919   3.849  0.5542  0.2096 -1.1934
  911MOL0     H22941   6.361   4.082   3.823 -0.9672  0.7394  0.6053
  911MOL0     H22942   6.342   3.926   3.739  0.5136 -0.3964 -0.1796
  911MOL0     H22943   6.348   3.822   3.978  0.0928 -0.0350 -0.6393
  911MOL0     H22944   6.378   3.982   4.048  0.1911  0.1203 -0.3818
  911MOL0     H22945   6.453   3.816   4.176  0.1045  0.6531  1.5312
  911MOL0     H22946   6.614   3.768   4.360 -0.2953 -3.4573 -1.3744
  911MOL0     H22947   7.072   3.800   4.577  0.8585  0.3933  0.2887
  911MOL0     H22948   7.296   3.726   4.678  1.7479  0.1436 -0.7423
  911MOL0     H22949   7.535   3.712   4.673  1.8977 -0.5090 -0.2603
  911MOL0     H22950   7.442   3.596   4.765 -0.6165 -1.3235 -0.2192
  911MOL0     H22951   7.640   3.444   4.752  1.0953  0.6187  1.6137
  911MOL0     H22952   7.695   3.532   4.601 -0.2815  1.8334 -0.9226
  911MOL0     H22953   7.776   3.717   4.769  1.5049 -1.1880 -3.2030
  911MOL0     H22954   7.714   3.613   4.898  2.3063  0.7710  0.7010
  911MOL0     H22955   7.929   3.535   4.702  0.8259 -1.2689  0.3218
  911MOL0     H22956   7.876   3.432   4.838  1.4958  0.1080  3.8801
  911MOL0     H22957   7.956   3.604   4.999  1.1714  2.8157  0.8380
  911MOL0     H22958   7.993   3.716   4.868 -1.0952 -0.7116 -2.0095
  911MOL0     H22959   8.132   3.433   4.926  0.5165  0.1959 -1.9916
  911MOL0     H22960   8.170   3.518   4.776  1.2583  0.0227 -0.0301
  911MOL0     H22961   8.217   3.628   5.056  0.4271  1.4716  0.3548
  911MOL0     H22962   8.264   3.709   4.906 -0.5323  1.4229  2.9979
  911MOL0     H22963   8.393   3.495   4.835  2.0149 -0.0498  1.0771
  911MOL0     H22964   8.449   3.625   4.944  0.2517 -0.6025 -0.3486
  911MOL0     H22965   7.388   3.505   4.321  0.9934 -0.4506  1.2304
  911MOL0     H22966   7.180   3.606   4.217 -2.0246  0.5127  0.8635
  911MOL0     H22967   6.940   3.861   4.108  0.3916  0.4098  1.4790
  911MOL0     H22968   6.778   3.908   3.922 -0.0053 -0.9500 -0.2548
  911MOL0     H22969   4.957   4.884   3.240 -0.1785 -1.0984 -0.8407
  911MOL0     H22970   4.708   4.883   3.182  0.0792  2.1472  0.3789
  911MOL0     H22971   4.260   4.984   3.060 -3.2692  1.1705 -0.6054
  911MOL0     H22972   4.021   4.977   3.079  0.8513 -2.3470 -1.6472
  911MOL0     H22973   3.787   4.908   3.102  1.8662  1.3859 -0.6568
  911MOL0     H22974   3.812   5.068   3.169 -1.4545  0.7404  1.0130
  911MOL0     H22975   3.651   5.028   3.348 -1.6051  0.1841  0.4421
  911MOL0     H22976   3.628   4.860   3.287  0.6979 -0.1133 -1.5200
  911MOL0     H22977   3.508   4.937   3.081 -2.7494  1.2020  0.5734
  911MOL0     H22978   3.593   5.089   3.092  1.4571  0.4191  1.8213
  911MOL0     H22979   3.379   4.983   3.288  0.7864 -0.9384 -0.3312
  911MOL0     H22980   3.450   5.147   3.295 -0.2242  0.2350 -1.5496
  911MOL0     H22981   3.187   5.162   2.964 -1.3624  0.1105  1.6692
  911MOL0     H22982   4.037   4.863   3.490  0.7619  0.8861  0.8345
  911MOL0     H22983   4.353   4.845   3.563  0.3739 -0.0369 -0.8754
  911MOL0     H22984   4.210   4.752   3.583  0.4577 -1.3690  0.7506
  911MOL0     H22985   4.333   4.705   3.460  0.4972  0.5727 -1.1471
  912MOL0     O22986   5.929   5.604   4.893 -0.1706 -0.3510  0.4426
  912MOL0     C22987   5.861   5.630   4.793  0.0696 -0.2434 -0.8960
  912MOL0     O22988   5.882   5.569   4.670  0.4346  0.7713 -0.0744
  912MOL0     C22989   5.992   5.495   4.643  0.4382  0.5975  0.0211
  912MOL0     C22990   6.133   5.524   4.673  1.0188 -0.0336 -0.4397
  912MOL0     C22991   6.236   5.452   4.606  0.7258 -0.2467 -0.6370
  912MOL0     C22992   6.210   5.345   4.524 -0.0293 -0.1988 -1.0675
  912MOL0     O22993   6.312   5.283   4.470  0.6401 -0.3965 -0.3027
  912MOL0     C22994   6.302   5.194   4.358  0.2604 -0.1050  0.0004
  912MOL0     C22995   6.441   5.119   4.348  0.2424 -0.4976 -0.6280
  912MOL0     C22996   6.540   5.196   4.255  0.4461  0.6854  0.3163
  912MOL0     C22997   6.668   5.108   4.249  1.5953  0.3009  0.8508
  912MOL0     C22998   6.768   5.175   4.155  0.1251  0.3557  0.1530
  912MOL0     C22999   6.886   5.077   4.122  0.1714  0.5076  0.8779
  912MOL0     C23000   6.981   5.128   4.008 -0.4467  0.9729  0.5493
  912MOL0     C23001   7.064   5.255   4.039  0.0002  0.4265  0.3220
  912MOL0     N23002   7.177   5.276   3.955  0.5755  0.0820 -0.3474
  912MOL0     C23003   7.274   5.182   3.923  0.0295 -0.3286 -0.2709
  912MOL0     C23004   7.363   5.258   3.856  0.0391  1.0994  1.1869
  912MOL0     C23005   7.493   5.208   3.802 -0.2584 -0.4607 -0.5865
  912MOL0     C23006   7.608   5.307   3.831 -0.2403  0.4523  0.3266
  912MOL0     C23007   7.612   5.413   3.727  0.3367 -0.1789  0.3712
  912MOL0     C23008   7.747   5.486   3.741  0.0154 -0.5118  0.2718
  912MOL0     O23009   7.852   5.405   3.680 -0.1769 -0.1055 -0.1821
  912MOL0     C23010   7.982   5.451   3.699  0.4680  0.1350  0.6132
  912MOL0     C23011   8.083   5.353   3.681 -0.1402  0.0639 -0.2283
  912MOL0     C23012   8.222   5.373   3.713 -0.4135  0.1168  0.1709
  912MOL0     C23013   8.259   5.506   3.746 -0.0328  0.5455  0.6360
  912MOL0     C23014   8.400   5.539   3.765 -0.2457 -0.2824  0.9118
  912MOL0     O23015   8.492   5.463   3.705 -0.4765  1.1964  0.2070
  912MOL0     C23016   8.629   5.457   3.705 -0.3713  0.1662  0.1480
  912MOL0     C23017   8.698   5.356   3.628 -0.3015  0.1671 -0.6665
  912MOL0     C23018   8.833   5.361   3.605  0.5045  0.5170 -0.5090
  912MOL0     C23019   8.914   5.470   3.659  0.1032  1.2384  0.3765
  912MOL0     O23020   9.046   5.470   3.640  0.1166  0.2968  0.5687
  912MOL0     C23021   9.109   5.596   3.665 -0.2863  0.2109 -0.0419
  912MOL0     C23022   9.250   5.569   3.603 -0.0344 -0.3918  0.3606
  912MOL0     C23023   9.357   5.668   3.654  0.3255 -0.0924 -0.1488
  912MOL0     C23024   9.466   5.688   3.556 -0.0096  0.7719  0.3375
  912MOL0     C23025   9.577   5.764   3.611 -0.9569 -0.7892 -0.6893
  912MOL0     C23026   9.649   5.841   3.499  0.2389  0.0048  0.5479
  912MOL0     C23027   9.716   5.744   3.395  1.2617  0.3600  0.1768
  912MOL0     C23028   9.778   5.813   3.264 -0.2610 -0.1106 -0.7122
  912MOL0    Cl23029   9.875   5.955   3.319  0.0792 -0.0892  0.2942
  912MOL0     C23030   8.842   5.564   3.735 -0.0479 -0.4285 -0.1494
  912MOL0     C23031   8.709   5.558   3.755  0.1546 -1.1549 -0.9743
  912MOL0     O23032   8.423   5.641   3.820 -0.4755 -0.0452 -0.2755
  912MOL0     C23033   8.157   5.597   3.765  0.4871 -0.4744 -0.6868
  912MOL0     C23034   8.022   5.573   3.747 -0.3814  0.5366  0.8614
  912MOL0     N23035   7.330   5.390   3.852 -0.0993  0.0127  0.4251
  912MOL0     N23036   7.213   5.397   3.909 -0.4169  0.0466 -0.1501
  912MOL0     C23037   6.075   5.303   4.503  0.3305 -0.3707 -0.3759
  912MOL0     C23038   5.974   5.384   4.556 -0.0241 -0.2856  0.0121
  912MOL0     C23039   5.756   5.735   4.790 -0.3142 -0.9130 -0.0981
  912MOL0     C23040   5.658   5.737   4.683 -1.0051  0.4726 -0.3530
  912MOL0     C23041   5.574   5.850   4.669  0.4418 -0.4114  0.0501
  912MOL0     C23042   5.571   5.950   4.763  0.0048 -0.4280  0.6767
  912MOL0     O23043   5.479   6.043   4.729  0.2788 -0.4141  0.4937
  912MOL0     C23044   5.457   6.157   4.811  0.2275 -0.5313 -0.6146
  912MOL0     C23045   5.371   6.116   4.929 -0.3371 -0.4294 -0.4001
  912MOL0     C23046   5.324   6.229   5.014 -0.0138  0.4900  0.0892
  912MOL0     C23047   5.434   6.334   5.047  0.2175  1.4152  0.1905
  912MOL0     C23048   5.537   6.270   5.134 -0.2171  0.6391 -0.3147
  912MOL0     C23049   5.621   6.213   5.205 -0.4558  0.2283  0.0786
  912MOL0     C23050   5.659   5.951   4.872  0.1828 -0.6963  0.2278
  912MOL0     C23051   5.751   5.845   4.890  0.0287  0.4010  0.0815
  912MOL0     C23052   5.849   5.843   5.005  0.3171 -0.6314 -0.5573
  912MOL0     H23053   6.147   5.606   4.743  1.4545 -1.1304  0.8010
  912MOL0     H23054   6.334   5.496   4.621 -0.4885  2.3429  0.4509
  912MOL0     H23055   6.227   5.120   4.390  0.9803 -0.8203  0.0726
  912MOL0     H23056   6.275   5.250   4.268 -0.0731 -0.2925 -0.0197
  912MOL0     H23057   6.427   5.021   4.301 -0.0725 -0.5915 -0.3421
  912MOL0     H23058   6.482   5.098   4.447 -2.2301 -1.2865  0.3044
  912MOL0     H23059   6.572   5.289   4.303  2.0401 -1.1956  3.1927
  912MOL0     H23060   6.499   5.211   4.155 -1.5228  0.3623  1.0328
  912MOL0     H23061   6.717   5.112   4.347  1.8006  2.4113  0.7037
  912MOL0     H23062   6.644   5.005   4.220 -0.1492  0.8317  0.3432
  912MOL0     H23063   6.715   5.200   4.063  0.7873  0.1108 -0.2994
  912MOL0     H23064   6.801   5.269   4.200  1.0837  0.5364 -0.8978
  912MOL0     H23065   6.933   5.052   4.218 -0.8185  0.9403  1.4821
  912MOL0     H23066   6.840   4.985   4.087 -1.6769  1.0639  1.7312
  912MOL0     H23067   6.927   5.147   3.915  1.8451 -0.0944 -1.1213
  912MOL0     H23068   7.053   5.047   3.997 -2.9561 -1.4237  0.9131
  912MOL0     H23069   6.997   5.340   4.023 -0.1579 -0.1583 -2.5721
  912MOL0     H23070   7.092   5.236   4.143 -0.6347 -2.8572  0.0094
  912MOL0     H23071   7.287   5.076   3.942  2.0201 -0.0840 -0.1119
  912MOL0     H23072   7.517   5.112   3.849 -1.7480  0.4799  2.3244
  912MOL0     H23073   7.481   5.183   3.696 -0.3518 -1.2307 -0.4009
  912MOL0     H23074   7.599   5.357   3.928 -0.8861 -1.6644  1.4293
  912MOL0     H23075   7.701   5.251   3.848 -1.4063 -1.4563  0.7252
  912MOL0     H23076   7.532   5.485   3.745 -0.0184 -0.3376 -0.4935
  912MOL0     H23077   7.605   5.367   3.627 -2.7681 -0.6894  0.7308
  912MOL0     H23078   7.769   5.500   3.847  2.4910 -1.7341 -0.0264
  912MOL0     H23079   7.741   5.583   3.691 -0.1473 -0.5889  0.1412
  912MOL0     H23080   8.053   5.251   3.659  2.4594 -0.5912 -1.0864
  912MOL0     H23081   8.297   5.295   3.698  0.1920  0.7636 -0.2402
  912MOL0     H23082   8.633   5.281   3.585 -1.3080  0.1599  0.7704
  912MOL0     H23083   8.883   5.280   3.552 -1.7126 -1.1538 -0.1845
  912MOL0     H23084   9.061   5.675   3.606 -0.1473  1.6078  1.6356
  912MOL0     H23085   9.121   5.621   3.771 -1.0871 -1.5371  0.4932
  912MOL0     H23086   9.288   5.469   3.625  0.1724 -0.5924 -0.8106
  912MOL0     H23087   9.237   5.599   3.498  1.1458  3.2065  1.1095
  912MOL0     H23088   9.315   5.765   3.681  1.1907  0.6305 -1.3266
  912MOL0     H23089   9.386   5.631   3.753 -3.8945  0.5175  1.4864
  912MOL0     H23090   9.423   5.750   3.477 -0.2804  2.0176  1.4180
  912MOL0     H23091   9.500   5.590   3.521  2.7097  1.3937  0.9671
  912MOL0     H23092   9.646   5.698   3.665 -1.7575 -1.3894 -0.3711
  912MOL0     H23093   9.539   5.835   3.685  1.5889 -1.4990  1.4758
  912MOL0     H23094   9.584   5.914   3.449 -0.1194 -1.9145 -2.0139
  912MOL0     H23095   9.731   5.894   3.548 -0.1628 -0.0278  1.2715
  912MOL0     H23096   9.634   5.686   3.352  1.9257 -1.2004  0.9581
  912MOL0     H23097   9.784   5.671   3.438  1.7439  0.7036  0.0064
  912MOL0     H23098   9.848   5.740   3.222  1.1688 -0.5877  2.2055
  912MOL0     H23099   9.698   5.839   3.194 -0.0206  0.2016 -0.8741
  912MOL0     H23100   8.880   5.653   3.784  0.0216 -0.3021 -0.4299
  912MOL0     H23101   8.651   5.631   3.809 -0.9544 -1.6366 -1.4887
  912MOL0     H23102   8.187   5.690   3.812  0.1234 -2.0510  3.0254
  912MOL0     H23103   7.952   5.655   3.758  0.7204  1.5350  0.6171
  912MOL0     H23104   6.050   5.214   4.446  0.7031  0.5314 -2.0093
  912MOL0     H23105   5.871   5.354   4.537 -0.8274  0.4721  2.7186
  912MOL0     H23106   5.663   5.657   4.611 -2.2227  0.6506 -0.6515
  912MOL0     H23107   5.501   5.849   4.589 -1.0913  1.4676  1.3262
  912MOL0     H23108   5.399   6.232   4.757  0.7263 -0.4296 -1.0139
  912MOL0     H23109   5.550   6.202   4.847 -2.1088  3.0673  1.6058
  912MOL0     H23110   5.421   6.048   4.998  0.9718  1.5151  0.6530
  912MOL0     H23111   5.286   6.062   4.887 -0.5510 -1.4299  1.2205
  912MOL0     H23112   5.281   6.178   5.101 -0.1424 -3.2895 -1.9498
  912MOL0     H23113   5.245   6.278   4.956 -1.0538 -0.0273  1.0318
  912MOL0     H23114   5.486   6.355   4.953  3.1234 -3.2944  0.3797
  912MOL0     H23115   5.387   6.417   5.101 -1.0676  1.1698 -0.5161
  912MOL0     H23116   5.686   6.147   5.257 -2.3221 -0.7377  1.2916
  912MOL0     H23117   5.654   6.034   4.943  1.2942  1.5019 -2.1298
  912MOL0     H23118   5.854   5.764   5.080  1.7019  0.3712  0.4468
  912MOL0     H23119   5.948   5.878   4.975  0.4552  1.8519  2.3638
  912MOL0     H23120   5.824   5.928   5.069  3.6430 -1.3798  2.0281
  913MOL0     O23121   9.582   5.760   0.544  0.4869 -0.0938  0.9665
  913MOL0     C23122   9.551   5.643   0.540  0.4248 -0.3351  0.9397
  913MOL0     O23123   9.628   5.537   0.571  0.1685 -0.4801  1.0287
  913MOL0     C23124   9.748   5.560   0.634 -0.5693  0.1588  0.1390
  913MOL0     C23125   9.755   5.629   0.749 -0.3355 -0.0866 -0.0256
  913MOL0     C23126   9.874   5.655   0.823  0.7567 -0.0132 -0.5524
  913MOL0     C23127   9.994   5.594   0.780 -0.1338  0.1142  0.7599
  913MOL0     O23128  10.115   5.612   0.844 -0.3994 -0.4368  0.4211
  913MOL0     C23129  10.104   5.608   0.990 -0.5901  0.7192  0.8620
  913MOL0     C23130  10.246   5.572   1.045 -0.2297  0.2935 -1.0695
  913MOL0     C23131  10.273   5.632   1.188  0.1449 -0.0932  0.7561
  913MOL0     C23132  10.418   5.598   1.233  0.3032 -0.2201  0.9104
  913MOL0     C23133  10.471   5.664   1.352 -0.3423 -0.1012  0.1930
  913MOL0     C23134  10.621   5.639   1.359 -0.2579 -0.2260 -0.2986
  913MOL0     C23135  10.683   5.696   1.499  0.4600 -0.4580 -0.1432
  913MOL0     C23136  10.829   5.663   1.516  0.7947  0.1807  0.1855
  913MOL0     N23137  10.886   5.684   1.650 -0.6566 -0.7974  0.2704
  913MOL0     C23138  10.877   5.606   1.759  0.2319 -0.8015  0.6217
  913MOL0     C23139  10.973   5.657   1.841 -0.5642  0.9274 -0.5244
  913MOL0     C23140  10.989   5.608   1.987  0.0187 -0.8922  0.3430
  913MOL0     C23141  10.885   5.662   2.087  0.4123  1.2866 -0.8817
  913MOL0     C23142  10.893   5.822   2.114 -0.0367  0.5104 -0.1782
  913MOL0     C23143  11.037   5.854   2.160 -0.0963 -0.0747  0.7707
  913MOL0     O23144  11.067   5.792   2.286  0.2077  0.9730  0.5296
  913MOL0     C23145  11.130   5.872   2.377  0.5733  0.0650 -0.3792
  913MOL0     C23146  11.096   5.866   2.509 -0.3004 -0.5815 -0.2205
  913MOL0     C23147  11.164   5.945   2.605  0.1204 -0.1602  0.0713
  913MOL0     C23148  11.261   6.036   2.572 -1.0461  0.0187 -0.3507
  913MOL0     C23149  11.323   6.126   2.671 -0.7223  0.9812 -0.1377
  913MOL0     O23150  11.396   6.221   2.623  0.5448  0.8650 -0.3566
  913MOL0     C23151  11.469   6.302   2.706  0.8828  0.7169  0.0574
  913MOL0     C23152  11.413   6.417   2.758 -1.0629  0.8467 -0.7963
  913MOL0     C23153  11.472   6.483   2.862  0.0438  0.7285  0.0851
  913MOL0     C23154  11.597   6.439   2.909  0.0620 -0.3286 -0.0830
  913MOL0     O23155  11.663   6.504   3.012  0.1014  0.8417  1.2333
  913MOL0     C23156  11.705   6.632   2.978 -0.8521 -0.2713 -0.7214
  913MOL0     C23157  11.821   6.669   3.076 -0.1860  0.1827  0.0051
  913MOL0     C23158  11.880   6.802   3.049  0.0308 -0.3368  0.8051
  913MOL0     C23159  12.016   6.806   3.119 -0.2709 -0.0786 -0.0086
  913MOL0     C23160  12.076   6.952   3.125 -0.7644 -0.0456 -0.5643
  913MOL0     C23161  12.225   6.957   3.182 -0.3464 -1.0743  0.8901
  913MOL0     C23162  12.286   7.100   3.188  0.1299  0.0730 -0.2676
  913MOL0     C23163  12.295   7.173   3.056  0.3181 -0.6725 -0.7166
  913MOL0    Cl23164  12.390   7.320   3.092 -0.1868  0.2643 -0.0461
  913MOL0     C23165  11.656   6.323   2.850  0.2582  0.2538  0.2851
  913MOL0     C23166  11.594   6.257   2.740  0.0597  0.0696 -0.4583
  913MOL0     O23167  11.313   6.097   2.795  0.1184 -0.2186  0.0205
  913MOL0     C23168  11.304   6.039   2.436 -1.3509  0.8724  0.1191
  913MOL0     C23169  11.236   5.959   2.344 -0.2411  0.1770 -0.3847
  913MOL0     N23170  11.037   5.756   1.767 -0.0508  0.4108 -0.1119
  913MOL0     N23171  10.971   5.791   1.666 -0.5878  0.6022 -0.2129
  913MOL0     C23172   9.987   5.526   0.658 -0.5746  0.0744 -1.0213
  913MOL0     C23173   9.872   5.516   0.580  0.8162  0.0767 -0.3712
  913MOL0     C23174   9.417   5.605   0.492 -0.0456 -1.4384 -0.7765
  913MOL0     C23175   9.367   5.485   0.535  0.5308 -0.2337  0.4410
  913MOL0     C23176   9.242   5.441   0.498  0.4696 -0.1276 -0.5691
  913MOL0     C23177   9.164   5.517   0.414 -0.3626  0.0102  0.1033
  913MOL0     O23178   9.051   5.459   0.368  0.5441 -0.5455  0.4821
  913MOL0     C23179   9.049   5.441   0.223 -0.3185 -0.1741 -0.2357
  913MOL0     C23180   9.168   5.360   0.164 -0.8883  0.1431  0.0325
  913MOL0     C23181   9.123   5.275   0.048  0.5280  0.4025  0.5040
  913MOL0     C23182   9.121   5.367  -0.082 -0.1174 -0.0126  0.0539
  913MOL0     C23183   9.265   5.389  -0.130  0.2852 -0.4475 -0.2805
  913MOL0     C23184   9.373   5.411  -0.178 -0.2279  0.1328 -0.1329
  913MOL0     C23185   9.208   5.644   0.374  0.5652  0.5258 -0.1854
  913MOL0     C23186   9.331   5.692   0.420 -0.4939  0.0550  0.7502
  913MOL0     C23187   9.348   5.838   0.391  0.0524 -0.5913 -0.0740
  913MOL0     H23188   9.662   5.662   0.794  0.1947 -1.7628  2.4966
  913MOL0     H23189   9.867   5.721   0.909  1.0565  0.4256 -0.8589
  913MOL0     H23190  10.082   5.708   1.026 -0.2881  1.0734  0.0899
  913MOL0     H23191  10.033   5.536   1.033 -1.0592  1.0601  0.6683
  913MOL0     H23192  10.315   5.627   0.980 -1.5153  2.0517 -1.0183
  913MOL0     H23193  10.245   5.462   1.048 -3.2587  0.2629  1.1177
  913MOL0     H23194  10.198   5.585   1.253  1.5659 -2.8560  0.5610
  913MOL0     H23195  10.265   5.739   1.171 -0.4880 -0.5302 -2.3063
  913MOL0     H23196  10.423   5.489   1.248  1.5291 -0.2310  0.5894
  913MOL0     H23197  10.485   5.628   1.152 -0.3320  0.2184  0.5393
  913MOL0     H23198  10.460   5.772   1.336 -0.3805 -0.1724 -0.2736
  913MOL0     H23199  10.408   5.630   1.434 -1.4351  2.0404  0.3039
  913MOL0     H23200  10.641   5.532   1.360 -1.5586 -0.5024  1.7833
  913MOL0     H23201  10.670   5.688   1.274 -2.6041 -2.4226 -3.1054
  913MOL0     H23202  10.627   5.647   1.579 -1.0551  0.7274 -0.4167
  913MOL0     H23203  10.671   5.804   1.513 -0.3407 -0.7131  1.3675
  913MOL0     H23204  10.839   5.555   1.501  2.2685 -0.0648  2.4666
  913MOL0     H23205  10.881   5.712   1.433 -1.5002  0.5586 -1.1013
  913MOL0     H23206  10.792   5.541   1.782 -1.2417  0.9738  0.4313
  913MOL0     H23207  10.981   5.499   1.992 -0.6323 -0.9153 -0.9626
  913MOL0     H23208  11.091   5.622   2.024  0.4573 -1.6703 -0.5318
  913MOL0     H23209  10.794   5.626   2.038  1.9733 -5.1728  0.0800
  913MOL0     H23210  10.881   5.609   2.183 -1.9465 -0.2383 -1.7426
  913MOL0     H23211  10.816   5.843   2.190 -1.2626 -2.0322 -0.5990
  913MOL0     H23212  10.867   5.881   2.025 -0.1679  2.5210  1.1229
  913MOL0     H23213  11.051   5.963   2.169 -1.6686  0.1139  1.2568
  913MOL0     H23214  11.109   5.820   2.085  0.3679  0.4113  0.9882
  913MOL0     H23215  11.019   5.804   2.553 -0.0988  0.0505  1.0616
  913MOL0     H23216  11.144   5.943   2.712  2.0859  2.0114  0.5650
  913MOL0     H23217  11.317   6.460   2.733 -0.9366  0.9429 -1.1329
  913MOL0     H23218  11.419   6.573   2.890 -0.0745  0.1032  2.0042
  913MOL0     H23219  11.744   6.647   2.877  1.3596  0.6602  0.2027
  913MOL0     H23220  11.616   6.696   2.985 -1.9154 -1.2397 -3.8301
  913MOL0     H23221  11.781   6.662   3.178 -0.2963 -1.5948 -0.1241
  913MOL0     H23222  11.899   6.594   3.062 -1.1103 -0.7717 -0.1904
  913MOL0     H23223  11.897   6.813   2.942  0.2570 -0.4258  0.8307
  913MOL0     H23224  11.820   6.886   3.084  0.8974  0.9882 -0.7408
  913MOL0     H23225  12.074   6.732   3.063 -2.1110 -0.0983 -2.0277
  913MOL0     H23226  12.003   6.771   3.222 -0.5954  0.6308  0.1975
  913MOL0     H23227  12.012   7.011   3.191 -0.6239  1.1249 -1.4309
  913MOL0     H23228  12.087   6.986   3.021  0.3547  0.0074 -0.4427
  913MOL0     H23229  12.209   6.923   3.284 -1.9681  1.6970  1.6601
  913MOL0     H23230  12.294   6.903   3.117 -0.9179  2.6287 -3.2859
  913MOL0     H23231  12.390   7.101   3.221 -0.1768  3.6752  1.1065
  913MOL0     H23232  12.230   7.160   3.260 -2.1667 -2.4147  0.1803
  913MOL0     H23233  12.351   7.115   2.983 -2.2833 -0.6661 -2.8680
  913MOL0     H23234  12.199   7.204   3.015  0.5110  2.6460  1.0004
  913MOL0     H23235  11.756   6.289   2.875  2.0607  0.2620 -5.3313
  913MOL0     H23236  11.635   6.167   2.697  0.6045 -0.9218  1.9501
  913MOL0     H23237  11.386   6.090   2.385  1.7275 -3.9676 -0.4071
  913MOL0     H23238  11.261   5.962   2.238  0.0911 -1.9438 -0.4182
  913MOL0     H23239  10.074   5.479   0.614 -0.9483 -2.4830  0.7483
  913MOL0     H23240   9.868   5.466   0.484  1.6104  1.3076 -1.0715
  913MOL0     H23241   9.416   5.416   0.602  0.3642 -0.2910  0.5041
  913MOL0     H23242   9.222   5.342   0.537  2.4805 -1.1282 -1.8623
  913MOL0     H23243   9.053   5.540   0.175 -3.2587  0.8592  1.3759
  913MOL0     H23244   8.957   5.396   0.183 -0.5228  1.5803 -1.9311
  913MOL0     H23245   9.211   5.291   0.237  0.9534  0.5605 -0.5950
  913MOL0     H23246   9.254   5.423   0.141 -0.0450 -0.5738  1.0954
  913MOL0     H23247   9.020   5.243   0.066  0.7923 -0.2615  0.8590
  913MOL0     H23248   9.197   5.194   0.037  0.6391  0.7901 -2.9880
  913MOL0     H23249   9.071   5.311  -0.161  0.9778 -0.0301 -0.6463
  913MOL0     H23250   9.070   5.461  -0.058 -1.3298 -0.7962  0.6486
  913MOL0     H23251   9.465   5.431  -0.230 -1.5357  0.2588 -2.5708
  913MOL0     H23252   9.139   5.701   0.312  0.1782 -1.0730 -1.2896
  913MOL0     H23253   9.441   5.862   0.338 -1.6046 -0.4775 -3.1476
  913MOL0     H23254   9.262   5.882   0.341  1.0324  3.2131  1.2471
  913MOL0     H23255   9.351   5.892   0.487  1.6516  1.6397 -1.2723
  914MOL0     O23256   9.377  10.848  11.153 -0.4395 -0.8218  0.2051
  914MOL0     C23257   9.461  10.937  11.148 -0.6748 -0.2548 -0.2764
  914MOL0     O23258   9.526  10.979  11.263  0.6981  0.6387  0.4325
  914MOL0     C23259   9.515  10.902  11.371 -0.4619 -0.5854 -0.0910
  914MOL0     C23260   9.391  10.884  11.448 -0.6605 -0.4260  0.1154
  914MOL0     C23261   9.392  10.801  11.558  0.5479 -0.3173 -0.3461
  914MOL0     C23262   9.499  10.725  11.597 -0.1114 -0.2912  0.2363
  914MOL0     O23263   9.488  10.641  11.707 -0.5335  0.0531 -0.0471
  914MOL0     C23264   9.416  10.675  11.821  0.9094 -0.5334 -0.5736
  914MOL0     C23265   9.484  10.583  11.931 -0.8250  0.2482 -0.2528
  914MOL0     C23266   9.636  10.550  11.920 -0.1005  0.2147 -0.3592
  914MOL0     C23267   9.665  10.446  12.021  0.0910  0.3038 -0.3737
  914MOL0     C23268   9.815  10.408  12.025 -0.4608 -0.0901 -0.7342
  914MOL0     C23269   9.871  10.361  12.160  0.6443 -0.4976 -0.2424
  914MOL0     C23270  10.024  10.365  12.158 -0.2079  0.0760  0.2218
  914MOL0     C23271  10.072  10.500  12.219  0.1792 -0.0654  0.0976
  914MOL0     N23272  10.217  10.485  12.242 -0.2256  0.2918 -0.0548
  914MOL0     C23273  10.266  10.398  12.340 -0.5321  0.1775  0.5519
  914MOL0     C23274  10.399  10.434  12.324  0.3284 -0.4532 -0.0931
  914MOL0     C23275  10.505  10.361  12.394 -0.3056  0.2564 -0.0639
  914MOL0     C23276  10.634  10.438  12.412  0.1630  0.5543 -0.6488
  914MOL0     C23277  10.741  10.345  12.473 -0.2483  0.0338  0.3935
  914MOL0     C23278  10.871  10.432  12.496  1.1688  0.2802 -0.0470
  914MOL0     O23279  10.935  10.449  12.365  0.3065 -0.3557  0.0448
  914MOL0     C23280  11.050  10.523  12.353  0.1210 -0.1666  0.2194
  914MOL0     C23281  11.066  10.593  12.227  0.7518  0.6330 -0.0139
  914MOL0     C23282  11.186  10.662  12.205  0.0887 -0.0387  0.3562
  914MOL0     C23283  11.294  10.654  12.299  0.1657  0.0685  0.2222
  914MOL0     C23284  11.422  10.713  12.268 -0.0178 -0.4308 -0.6644
  914MOL0     O23285  11.532  10.670  12.349  0.5121 -0.3643 -0.3518
  914MOL0     C23286  11.660  10.709  12.324 -0.0837  0.9224 -0.2013
  914MOL0     C23287  11.757  10.704  12.430  0.1544 -0.5476 -0.5827
  914MOL0     C23288  11.888  10.747  12.414  0.2009  0.6273  0.2560
  914MOL0     C23289  11.933  10.777  12.285 -0.9574  0.1545  0.1771
  914MOL0     O23290  12.063  10.812  12.246  0.7255 -0.2074 -1.3186
  914MOL0     C23291  12.163  10.757  12.323 -0.2511  0.0772  0.3005
  914MOL0     C23292  12.291  10.776  12.247 -0.9568  0.1890  0.6879
  914MOL0     C23293  12.402  10.695  12.307  0.0915 -0.1212 -0.4180
  914MOL0     C23294  12.529  10.717  12.230 -0.0981 -0.1206 -0.8927
  914MOL0     C23295  12.639  10.631  12.284  0.1597 -0.3336 -0.3891
  914MOL0     C23296  12.772  10.665  12.229 -0.2272  0.5076  0.0564
  914MOL0     C23297  12.813  10.807  12.266  0.0389  0.0717  0.0211
  914MOL0     C23298  12.970  10.811  12.290  0.1871 -0.2333  1.1976
  914MOL0    Cl23299  13.055  10.775  12.143  0.2728  0.3002 -0.0195
  914MOL0     C23300  11.848  10.771  12.178  1.1034 -0.3505  0.3996
  914MOL0     C23301  11.711  10.733  12.200 -1.2220 -1.1238 -0.5577
  914MOL0     O23302  11.429  10.801  12.183 -0.7770  0.3921  0.7061
  914MOL0     C23303  11.279  10.581  12.416  0.6149 -0.0084 -0.0437
  914MOL0     C23304  11.160  10.509  12.442  0.1084 -0.0039  0.3804
  914MOL0     N23305  10.421  10.528  12.226  0.3583 -0.4019  0.0673
  914MOL0     N23306  10.314  10.557  12.175  1.0980 -0.2205 -0.2925
  914MOL0     C23307   9.615  10.745  11.532 -0.0640 -0.8174 -0.7228
  914MOL0     C23308   9.630  10.831  11.420  0.0427 -0.6030  0.1227
  914MOL0     C23309   9.487  11.005  11.023  0.0873 -0.2931  0.6981
  914MOL0     C23310   9.594  11.091  11.029  0.4241 -0.4303  0.3885
  914MOL0     C23311   9.621  11.170  10.916 -0.1224 -1.3527  0.5349
  914MOL0     C23312   9.543  11.171  10.803  0.0298  0.2960  1.1047
  914MOL0     O23313   9.576  11.260  10.706  0.0334 -0.1153  0.7798
  914MOL0     C23314   9.644  11.197  10.599  0.2820 -0.6947  0.2329
  914MOL0     C23315   9.682  11.302  10.494 -0.2664  0.2183  0.0249
  914MOL0     C23316   9.748  11.433  10.533  0.5167  0.3963 -0.1963
  914MOL0     C23317   9.840  11.479  10.427 -0.0152 -0.9199  0.0794
  914MOL0     C23318   9.769  11.575  10.339 -0.5175  0.0841  0.3445
  914MOL0     C23319   9.710  11.646  10.260 -0.3548  1.1516  0.7444
  914MOL0     C23320   9.430  11.089  10.801  1.2392 -0.5197 -0.3088
  914MOL0     C23321   9.401  11.007  10.914  0.1948  0.4839 -0.0186
  914MOL0     C23322   9.272  10.924  10.902 -0.2617  0.2122  0.6947
  914MOL0     H23323   9.302  10.942  11.425 -1.9606 -2.4929 -0.2534
  914MOL0     H23324   9.300  10.791  11.615 -0.2204 -0.1844 -1.5364
  914MOL0     H23325   9.422  10.782  11.843 -2.5928 -0.5435  1.2430
  914MOL0     H23326   9.312  10.644  11.807 -0.1038  2.2443  0.1322
  914MOL0     H23327   9.433  10.486  11.921 -0.3189 -0.3100  2.1045
  914MOL0     H23328   9.460  10.611  12.034 -0.3176 -0.6054  0.1149
  914MOL0     H23329   9.692  10.639  11.949 -0.8659  0.5335  0.1612
  914MOL0     H23330   9.669  10.509  11.824 -2.0530  1.9170 -1.8249
  914MOL0     H23331   9.634  10.492  12.115 -1.5014 -2.5462  0.6128
  914MOL0     H23332   9.612  10.352  12.005  1.2606 -0.6173  0.9041
  914MOL0     H23333   9.827  10.324  11.956  0.7125  0.1861 -0.8759
  914MOL0     H23334   9.863  10.501  11.993 -0.6864 -0.0594 -0.9892
  914MOL0     H23335   9.826  10.416  12.243 -1.1461 -1.3514 -0.6013
  914MOL0     H23336   9.838  10.258  12.169  3.5396 -1.8033 -2.6326
  914MOL0     H23337  10.065  10.346  12.058 -1.0242  0.8080 -0.2674
  914MOL0     H23338  10.058  10.282  12.220  2.7489  0.4011 -0.8052
  914MOL0     H23339  10.052  10.587  12.156 -0.2670 -0.0903  0.2011
  914MOL0     H23340  10.012  10.512  12.310  1.2239 -1.4260  1.0191
  914MOL0     H23341  10.226  10.320  12.403  2.6380 -1.2732  0.9195
  914MOL0     H23342  10.470  10.335  12.494  3.2972 -0.9285  1.0136
  914MOL0     H23343  10.525  10.270  12.338  1.8009  1.8426 -2.0676
  914MOL0     H23344  10.668  10.473  12.315  2.1410  0.6345  0.0324
  914MOL0     H23345  10.612  10.513  12.489 -1.2601 -1.6909  1.3094
  914MOL0     H23346  10.768  10.263  12.407 -0.0995  1.0314 -0.8151
  914MOL0     H23347  10.709  10.307  12.571  1.7990  1.9197  1.8993
  914MOL0     H23348  10.947  10.383  12.559  1.5929 -0.0505 -0.8118
  914MOL0     H23349  10.846  10.532  12.533 -1.3049 -0.8557  1.5821
  914MOL0     H23350  10.992  10.580  12.149 -0.2318  0.0817  0.9706
  914MOL0     H23351  11.214  10.703  12.108  3.1934 -1.3932  0.5574
  914MOL0     H23352  11.732  10.691  12.535  3.2233  3.7907  0.9734
  914MOL0     H23353  11.944  10.746  12.507 -0.1610 -1.5398  0.5145
  914MOL0     H23354  12.173  10.795  12.425 -3.7271 -1.2835  1.2941
  914MOL0     H23355  12.152  10.648  12.327  0.1998  0.0287  0.2809
  914MOL0     H23356  12.263  10.753  12.144 -3.1398  1.5449  0.9117
  914MOL0     H23357  12.313  10.882  12.235  0.5121 -0.2962 -1.5549
  914MOL0     H23358  12.411  10.731  12.410 -0.0269  1.3959 -0.9156
  914MOL0     H23359  12.377  10.588  12.309 -1.0808  0.1480  1.5260
  914MOL0     H23360  12.556  10.823  12.227  0.8654 -0.3175 -0.0267
  914MOL0     H23361  12.529  10.681  12.127 -1.0841  0.8539 -1.2495
  914MOL0     H23362  12.606  10.532  12.252  0.7567 -1.3933  2.0506
  914MOL0     H23363  12.642  10.632  12.394 -2.0512  1.1626 -0.2617
  914MOL0     H23364  12.838  10.591  12.274 -1.3114 -0.6350 -0.1899
  914MOL0     H23365  12.776  10.645  12.121  0.6398  1.1288 -0.0418
  914MOL0     H23366  12.767  10.837  12.360 -0.7713  2.3939 -1.0291
  914MOL0     H23367  12.773  10.870  12.186 -1.6752 -1.6795 -0.5881
  914MOL0     H23368  13.004  10.905  12.334  1.1066 -0.3615  0.7778
  914MOL0     H23369  12.982  10.741  12.373 -0.7403  1.6805  3.0634
  914MOL0     H23370  11.881  10.792  12.077  1.3491  1.1842  0.7735
  914MOL0     H23371  11.643  10.723  12.116 -1.2782  0.3428 -0.7149
  914MOL0     H23372  11.350  10.574  12.497  1.1857 -2.9565 -0.6652
  914MOL0     H23373  11.155  10.454  12.535 -1.8830  1.5547  1.2737
  914MOL0     H23374   9.707  10.691  11.558 -0.0071  0.2729  1.6044
  914MOL0     H23375   9.731  10.827  11.380  0.8823  1.1541  1.9263
  914MOL0     H23376   9.663  11.090  11.112 -0.7962 -2.0570  1.4306
  914MOL0     H23377   9.711  11.230  10.917 -1.7138  1.2199 -0.8352
  914MOL0     H23378   9.570  11.124  10.564 -1.5886  0.9265  0.6610
  914MOL0     H23379   9.736  11.145  10.628  0.4122 -0.1881  0.7274
  914MOL0     H23380   9.588  11.322  10.442 -1.8041  0.9394  2.8186
  914MOL0     H23381   9.747  11.251  10.422 -0.2010 -1.2721  1.0750
  914MOL0     H23382   9.804  11.413  10.625 -1.4092  0.4635  1.0533
  914MOL0     H23383   9.675  11.508  10.563  1.7362  1.3670  0.4306
  914MOL0     H23384   9.928  11.526  10.470  0.5664 -2.0992  0.2105
  914MOL0     H23385   9.875  11.396  10.365  0.8036 -0.0417 -0.6556
  914MOL0     H23386   9.670  11.711  10.185  0.7820  2.3426  1.1517
  914MOL0     H23387   9.375  11.099  10.708 -0.3445  2.7788  0.8296
  914MOL0     H23388   9.209  10.921  10.992 -0.5219 -1.5774  0.4841
  914MOL0     H23389   9.208  10.967  10.824 -1.8555  1.7553  2.7355
  914MOL0     H23390   9.296  10.822  10.871 -0.2582  0.1074  1.0388
  915MOL0     O23391   0.531   8.233   2.754  0.6480  0.3951  0.9874
  915MOL0     C23392   0.444   8.201   2.829  1.2757 -0.4333 -1.1942
  915MOL0     O23393   0.390   8.072   2.852 -0.5658 -0.3355 -0.2360
  915MOL0     C23394   0.446   7.981   2.774 -0.6274  0.7933  0.2615
  915MOL0     C23395   0.558   7.911   2.828  0.0384  0.4779 -0.0080
  915MOL0     C23396   0.630   7.812   2.756 -0.3954  0.1595  0.3938
  915MOL0     C23397   0.592   7.790   2.624  0.4546  0.3085 -0.2511
  915MOL0     O23398   0.658   7.676   2.571 -0.0614 -0.2993 -0.2447
  915MOL0     C23399   0.637   7.649   2.436  0.3577 -0.9501 -0.4170
  915MOL0     C23400   0.716   7.517   2.408 -1.2311  0.1050 -0.8352
  915MOL0     C23401   0.865   7.519   2.428  0.1675 -0.3801 -0.2290
  915MOL0     C23402   0.936   7.634   2.355 -0.0782  0.2230 -0.1657
  915MOL0     C23403   1.090   7.621   2.355  0.1103  0.0876 -0.1400
  915MOL0     C23404   1.158   7.750   2.338  0.1939  0.0737 -0.1806
  915MOL0     C23405   1.309   7.745   2.348 -0.2421  0.0237 -0.5029
  915MOL0     C23406   1.366   7.882   2.356 -0.5702 -0.0909 -0.0538
  915MOL0     N23407   1.506   7.863   2.322 -0.5629 -0.4024  0.9731
  915MOL0     C23408   1.598   7.800   2.397 -0.0575 -0.0514  0.5367
  915MOL0     C23409   1.710   7.782   2.317  0.1380  0.5771 -0.1161
  915MOL0     C23410   1.831   7.698   2.349 -0.9177 -0.6065 -0.7103
  915MOL0     C23411   1.947   7.779   2.416 -0.1317 -0.2509  0.3499
  915MOL0     C23412   2.074   7.699   2.435 -0.0324  1.1849  0.1240
  915MOL0     C23413   2.195   7.787   2.432  0.7101  0.1430 -0.1861
  915MOL0     O23414   2.308   7.707   2.465  0.5036  0.4245  0.2641
  915MOL0     C23415   2.423   7.743   2.409 -0.1860  0.2769  0.4592
  915MOL0     C23416   2.516   7.639   2.402  0.0176 -0.3863 -0.6331
  915MOL0     C23417   2.636   7.644   2.328  0.4411  0.2646 -0.0427
  915MOL0     C23418   2.674   7.766   2.267  0.3382 -0.6552  0.4394
  915MOL0     C23419   2.812   7.783   2.206  0.5118 -0.1024 -0.6188
  915MOL0     O23420   2.902   7.673   2.187  0.2142 -0.2494 -0.3978
  915MOL0     C23421   3.026   7.694   2.126 -0.3946 -0.3048  0.5278
  915MOL0     C23422   3.107   7.799   2.155 -0.4384  0.1106 -1.0446
  915MOL0     C23423   3.232   7.815   2.104  0.2742 -0.9563  0.0742
  915MOL0     C23424   3.278   7.725   2.012 -0.9201 -0.6660 -0.4009
  915MOL0     O23425   3.404   7.740   1.967  0.2671 -0.0530  0.1715
  915MOL0     C23426   3.508   7.714   2.064  0.6807  0.1876 -0.0748
  915MOL0     C23427   3.650   7.733   2.007 -0.5417  0.2001  0.2275
  915MOL0     C23428   3.648   7.699   1.858  0.3126 -0.1560 -0.4804
  915MOL0     C23429   3.793   7.711   1.796  0.6342  0.5700 -0.0601
  915MOL0     C23430   3.837   7.861   1.790 -0.0020  0.2339  0.0717
  915MOL0     C23431   3.980   7.869   1.755 -0.6872 -0.0477  0.5237
  915MOL0     C23432   4.044   8.002   1.787 -0.1288 -0.8684 -0.2223
  915MOL0     C23433   3.992   8.121   1.708 -0.0163  0.1078  0.0171
  915MOL0    Cl23434   4.002   8.084   1.542  0.0985 -0.2170 -0.1848
  915MOL0     C23435   3.197   7.612   1.971 -0.5670  0.3561  0.1362
  915MOL0     C23436   3.072   7.602   2.034 -0.0418  0.0058  0.7385
  915MOL0     O23437   2.826   7.892   2.158 -0.7616 -0.4730 -0.4688
  915MOL0     C23438   2.577   7.875   2.277 -0.7545 -0.1866  0.9042
  915MOL0     C23439   2.458   7.865   2.334  0.0562  0.0832 -0.5748
  915MOL0     N23440   1.687   7.849   2.198  0.6465 -0.1153 -0.0293
  915MOL0     N23441   1.563   7.902   2.203  1.1058  0.4185 -0.4374
  915MOL0     C23442   0.492   7.859   2.558 -0.4893 -0.6727 -0.4541
  915MOL0     C23443   0.424   7.954   2.640  0.2699  0.1922  0.4201
  915MOL0     C23444   0.379   8.306   2.905  0.3008 -0.1795 -0.5399
  915MOL0     C23445   0.258   8.287   2.958  0.7499 -0.6672  0.2931
  915MOL0     C23446   0.180   8.385   3.016 -0.4815 -0.1660  0.4930
  915MOL0     C23447   0.233   8.516   3.030  0.2454  0.0376  1.2834
  915MOL0     O23448   0.141   8.605   3.069  0.0659 -0.1997  0.3202
  915MOL0     C23449   0.189   8.731   3.108  0.9835 -0.2209 -0.6003
  915MOL0     C23450   0.072   8.807   3.168 -0.3194  0.7540 -0.9387
  915MOL0     C23451   0.112   8.955   3.191  0.2200 -0.6536 -0.1308
  915MOL0     C23452   0.024   9.024   3.287 -0.0240 -0.5120 -0.7910
  915MOL0     C23453  -0.110   9.031   3.224  0.4345  0.1611  0.0213
  915MOL0     C23454  -0.221   9.015   3.187  0.1584  0.4544 -0.3212
  915MOL0     C23455   0.361   8.535   2.993  0.0070  0.1478  0.4294
  915MOL0     C23456   0.438   8.436   2.928  0.4780 -0.3286  0.4717
  915MOL0     C23457   0.586   8.465   2.892 -0.6052 -0.4913 -0.4190
  915MOL0     H23458   0.589   7.934   2.930 -0.0915 -1.8038  0.5939
  915MOL0     H23459   0.697   7.747   2.810 -0.5823 -2.2161 -2.0229
  915MOL0     H23460   0.531   7.624   2.423 -0.0651  0.4332  0.2663
  915MOL0     H23461   0.670   7.736   2.378  0.8215 -1.5501 -1.0752
  915MOL0     H23462   0.689   7.482   2.309 -1.6109  0.0416 -0.7118
  915MOL0     H23463   0.678   7.444   2.480  0.8563 -0.1034  0.1475
  915MOL0     H23464   0.916   7.426   2.398  2.3557  0.5293  0.4376
  915MOL0     H23465   0.890   7.513   2.534 -1.6175  0.7963  0.3048
  915MOL0     H23466   0.897   7.626   2.253 -0.9446 -0.7653  0.2229
  915MOL0     H23467   0.906   7.733   2.391  0.4868  0.5383 -0.5503
  915MOL0     H23468   1.121   7.574   2.449  0.7009  1.1885  0.2256
  915MOL0     H23469   1.126   7.550   2.280 -1.2483 -1.9937  1.0866
  915MOL0     H23470   1.121   7.803   2.250 -0.2466 -2.0463 -1.3358
  915MOL0     H23471   1.134   7.810   2.426  1.8875  1.3319 -0.5179
  915MOL0     H23472   1.358   7.701   2.261  2.9179  2.1448  0.0388
  915MOL0     H23473   1.342   7.701   2.443 -1.9667  0.8039  0.5110
  915MOL0     H23474   1.311   7.946   2.287 -2.2651  0.4882  1.7195
  915MOL0     H23475   1.370   7.930   2.455  1.8079 -0.3713  0.0311
  915MOL0     H23476   1.581   7.756   2.495 -2.2956  2.6695  1.4924
  915MOL0     H23477   1.795   7.625   2.422  0.0052 -1.2125 -0.8564
  915MOL0     H23478   1.853   7.653   2.252  2.5684  1.1839 -0.9174
  915MOL0     H23479   1.963   7.872   2.360 -1.0663  0.3618  1.0814
  915MOL0     H23480   1.916   7.804   2.518  0.8987 -1.8365  1.0905
  915MOL0     H23481   2.079   7.622   2.357  3.6161  0.1692  1.1753
  915MOL0     H23482   2.063   7.639   2.526 -2.3263  0.8469 -0.3124
  915MOL0     H23483   2.187   7.867   2.505  0.9750 -0.9547  1.0935
  915MOL0     H23484   2.203   7.834   2.334  1.6928  1.6012  0.5516
  915MOL0     H23485   2.493   7.557   2.469  2.5380  0.5519  1.5857
  915MOL0     H23486   2.708   7.563   2.328  1.7110  1.3497  0.6770
  915MOL0     H23487   3.068   7.876   2.221  0.1337 -1.0108  0.6852
  915MOL0     H23488   3.283   7.905   2.136  1.4326 -1.4897 -0.2327
  915MOL0     H23489   3.483   7.774   2.151 -0.4494 -1.9291  1.1473
  915MOL0     H23490   3.501   7.609   2.094  2.3854  0.2876  0.7971
  915MOL0     H23491   3.686   7.834   2.027 -0.0574  0.1092 -0.1416
  915MOL0     H23492   3.715   7.660   2.058  0.2579  0.7671  0.0444
  915MOL0     H23493   3.609   7.597   1.858  1.1516 -0.4988  0.5157
  915MOL0     H23494   3.577   7.769   1.813 -0.4019 -0.4474  0.1789
  915MOL0     H23495   3.791   7.667   1.696 -1.8274 -0.9749  0.5740
  915MOL0     H23496   3.852   7.642   1.857 -1.8637 -3.4745 -1.7892
  915MOL0     H23497   3.819   7.907   1.887 -1.0211  2.0134 -0.9057
  915MOL0     H23498   3.774   7.913   1.717  1.7169  1.9499 -0.2709
  915MOL0     H23499   4.032   7.798   1.819 -0.6145  1.1024  1.7784
  915MOL0     H23500   3.990   7.836   1.651 -0.7403  1.7303 -0.0772
  915MOL0     H23501   4.151   7.991   1.765  0.0617 -1.0158  0.7074
  915MOL0     H23502   4.034   8.024   1.894 -1.3295 -1.0175 -0.2957
  915MOL0     H23503   3.889   8.135   1.742 -0.1495 -3.4351  1.4779
  915MOL0     H23504   4.046   8.213   1.733  1.1017  0.5226 -3.3226
  915MOL0     H23505   3.233   7.536   1.903  0.4809  0.4099  0.6142
  915MOL0     H23506   3.023   7.505   2.032  0.6296 -0.4853  3.7483
  915MOL0     H23507   2.612   7.965   2.228  2.1388 -1.2356  0.8383
  915MOL0     H23508   2.397   7.954   2.346 -0.7864 -0.4092 -1.1246
  915MOL0     H23509   0.489   7.847   2.450 -1.8305 -0.9703 -0.3968
  915MOL0     H23510   0.353   8.017   2.587  1.4754  1.2437 -0.0028
  915MOL0     H23511   0.216   8.187   2.960 -0.4215 -0.2079  2.4495
  915MOL0     H23512   0.076   8.365   3.038 -0.3510 -0.0723  1.2136
  915MOL0     H23513   0.221   8.783   3.017  2.3000  1.5685  0.8185
  915MOL0     H23514   0.272   8.726   3.179 -2.3478  1.8937  3.9538
  915MOL0     H23515   0.062   8.756   3.264  0.3931 -0.2274 -1.3756
  915MOL0     H23516  -0.009   8.804   3.096 -1.5027  0.5504  0.3625
  915MOL0     H23517   0.103   9.002   3.093 -0.5500 -0.1133  0.1839
  915MOL0     H23518   0.212   8.967   3.233  0.5104  0.9027 -1.1962
  915MOL0     H23519   0.022   8.981   3.387  0.2106  0.6676 -0.2538
  915MOL0     H23520   0.062   9.126   3.302  1.5260 -1.1782  0.0599
  915MOL0     H23521  -0.320   9.006   3.147  0.8819 -0.9889 -1.8792
  915MOL0     H23522   0.407   8.631   3.015 -0.4298  0.3626  0.4295
  915MOL0     H23523   0.651   8.391   2.940  1.6908  1.7325  0.1340
  915MOL0     H23524   0.615   8.467   2.786  1.6342  2.1337  0.1169
  915MOL0     H23525   0.619   8.564   2.925 -4.0231  0.6111  0.0728
  916MOL0     O23526  10.115   7.307   8.058  0.2332  0.5250  0.3213
  916MOL0     C23527  10.135   7.305   8.182 -0.6739 -0.3443 -0.0306
  916MOL0     O23528  10.257   7.282   8.236  0.4191  0.3649 -0.2816
  916MOL0     C23529  10.361   7.276   8.152 -0.9147 -0.4144 -0.1961
  916MOL0     C23530  10.417   7.396   8.098  0.4756 -0.6910 -0.5860
  916MOL0     C23531  10.519   7.395   8.003  0.1574  0.1403 -0.2489
  916MOL0     C23532  10.567   7.272   7.951 -0.4224  0.0189 -0.0808
  916MOL0     O23533  10.669   7.259   7.856  0.1859  0.1146 -0.2765
  916MOL0     C23534  10.733   7.382   7.809  0.2526 -0.0895 -0.6991
  916MOL0     C23535  10.839   7.353   7.704  0.6883  0.3022  1.2310
  916MOL0     C23536  10.902   7.480   7.650 -0.1480  0.3778  0.1103
  916MOL0     C23537  11.037   7.523   7.718 -0.5381  0.7950 -0.9724
  916MOL0     C23538  11.152   7.560   7.616  0.4023 -0.6616 -0.0128
  916MOL0     C23539  11.205   7.440   7.539 -0.0216 -0.6730  0.4872
  916MOL0     C23540  11.344   7.403   7.599  0.4417  0.1978 -0.0185
  916MOL0     C23541  11.409   7.287   7.525 -0.0001  0.0205  0.1767
  916MOL0     N23542  11.443   7.327   7.382 -0.0831  0.8303  0.2283
  916MOL0     C23543  11.551   7.415   7.356  1.0762 -0.4662  0.6281
  916MOL0     C23544  11.549   7.428   7.217  0.2900  0.1135  0.4558
  916MOL0     C23545  11.642   7.512   7.136 -0.6224 -0.0659  0.4680
  916MOL0     C23546  11.793   7.495   7.167  0.5175 -0.5253  0.1245
  916MOL0     C23547  11.842   7.352   7.149  0.4684  0.2523 -1.0068
  916MOL0     C23548  11.797   7.277   7.025 -1.1537  0.1839  0.9559
  916MOL0     O23549  11.829   7.339   6.900 -0.0256  0.3832  0.1500
  916MOL0     C23550  11.956   7.344   6.859 -0.9337  0.3969  0.3443
  916MOL0     C23551  11.994   7.426   6.753 -1.0749 -0.5550  0.3370
  916MOL0     C23552  12.134   7.437   6.719 -0.5026  0.0812  0.1737
  916MOL0     C23553  12.231   7.353   6.768 -0.5965  0.2353 -0.9247
  916MOL0     C23554  12.372   7.367   6.721  0.4849 -0.6836  0.3170
  916MOL0     O23555  12.406   7.481   6.646 -0.4539 -0.0147  0.5612
  916MOL0     C23556  12.544   7.508   6.646 -0.3703  0.2872 -0.4337
  916MOL0     C23557  12.592   7.625   6.701  0.0980 -0.0865 -0.1134
  916MOL0     C23558  12.724   7.657   6.697 -0.5963 -0.5811 -0.6617
  916MOL0     C23559  12.816   7.567   6.635  0.1954  0.8352 -0.9525
  916MOL0     O23560  12.947   7.612   6.652  1.3334  0.6914  1.0068
  916MOL0     C23561  13.063   7.544   6.600 -0.0922 -0.4185  0.3344
  916MOL0     C23562  13.095   7.600   6.454 -0.4055  0.2172 -0.1182
  916MOL0     C23563  13.124   7.752   6.451  0.3561  0.3673 -0.3115
  916MOL0     C23564  13.246   7.804   6.369  0.2005 -0.1166  0.1793
  916MOL0     C23565  13.261   7.954   6.383  0.2091 -0.3394  0.0619
  916MOL0     C23566  13.406   7.981   6.356  0.1274  0.3420 -0.0080
  916MOL0     C23567  13.438   8.132   6.348 -0.3318 -0.7158 -0.1828
  916MOL0     C23568  13.591   8.137   6.335 -1.5733 -1.1474 -0.3413
  916MOL0    Cl23569  13.640   8.065   6.178 -0.2299  0.0904  0.0183
  916MOL0     C23570  12.771   7.448   6.581  0.6723  1.0135 -0.6701
  916MOL0     C23571  12.635   7.416   6.594  0.6010 -0.4331 -0.0841
  916MOL0     O23572  12.450   7.277   6.766  0.2824  0.4306  0.0942
  916MOL0     C23573  12.190   7.254   6.858  1.1897  0.1960  0.0857
  916MOL0     C23574  12.054   7.250   6.898 -0.0039 -0.9498  0.8055
  916MOL0     N23575  11.443   7.352   7.168 -0.7509  0.3690 -0.5148
  916MOL0     N23576  11.381   7.295   7.264  0.3170  0.2521 -0.1499
  916MOL0     C23577  10.505   7.157   8.007 -0.3543 -0.8388  0.9876
  916MOL0     C23578  10.407   7.156   8.105 -0.2891 -0.7004 -1.1233
  916MOL0     C23579  10.019   7.325   8.266 -0.0929 -0.2585  0.1713
  916MOL0     C23580  10.029   7.403   8.381 -0.7802 -0.0502 -0.2223
  916MOL0     C23581   9.921   7.440   8.462  0.1007 -0.3751 -0.3662
  916MOL0     C23582   9.798   7.394   8.436 -0.1468 -0.1952  0.1093
  916MOL0     O23583   9.695   7.431   8.523 -0.0012  0.2790  0.4600
  916MOL0     C23584   9.567   7.379   8.469  0.1155 -0.3758 -0.2295
  916MOL0     C23585   9.442   7.446   8.527  0.1642 -0.5842 -0.9086
  916MOL0     C23586   9.381   7.358   8.634  0.0361 -0.4459  0.0282
  916MOL0     C23587   9.265   7.428   8.715 -0.4917  0.2686  0.2091
  916MOL0     C23588   9.224   7.345   8.830  0.4282  0.1243  0.5665
  916MOL0     C23589   9.183   7.277   8.923 -0.1161 -0.7051  0.0957
  916MOL0     C23590   9.783   7.305   8.326  0.1123  0.1914 -0.3825
  916MOL0     C23591   9.897   7.270   8.240  0.4706 -0.2957 -0.6584
  916MOL0     C23592   9.871   7.164   8.137 -0.3901  0.4248 -0.1699
  916MOL0     H23593  10.376   7.491   8.129  3.9334  0.2710  1.6168
  916MOL0     H23594  10.559   7.490   7.965  2.2907 -0.3358  0.6519
  916MOL0     H23595  10.664   7.459   7.774  0.0388  0.7470  1.4085
  916MOL0     H23596  10.787   7.435   7.888  0.1766  0.6692 -1.1506
  916MOL0     H23597  10.785   7.304   7.622  1.9738 -0.0305  0.5561
  916MOL0     H23598  10.916   7.279   7.729 -0.6449 -1.0948  1.3886
  916MOL0     H23599  10.831   7.563   7.657 -1.9864 -0.9724 -1.4574
  916MOL0     H23600  10.911   7.464   7.542 -0.1716 -0.5242  0.2291
  916MOL0     H23601  11.026   7.603   7.792 -0.8240  1.8522 -2.1202
  916MOL0     H23602  11.082   7.435   7.765 -2.4489 -0.1033 -0.7179
  916MOL0     H23603  11.104   7.625   7.542  0.7508 -0.0024  0.3338
  916MOL0     H23604  11.229   7.616   7.670 -2.5794  2.0534  1.7443
  916MOL0     H23605  11.144   7.350   7.541 -0.3645 -0.4410  0.4541
  916MOL0     H23606  11.222   7.458   7.432 -2.1063 -0.1709  0.2086
  916MOL0     H23607  11.318   7.368   7.699 -3.6875  2.1928 -0.1798
  916MOL0     H23608  11.406   7.492   7.607 -2.0591  1.8841  3.3725
  916MOL0     H23609  11.509   7.259   7.562 -0.6461 -3.7809 -0.5019
  916MOL0     H23610  11.330   7.211   7.516 -1.5779  1.3430  1.9760
  916MOL0     H23611  11.619   7.469   7.421  1.4108  1.0644 -0.9043
  916MOL0     H23612  11.627   7.513   7.028  0.2402  2.6927  0.2847
  916MOL0     H23613  11.616   7.614   7.168 -2.6903 -1.1036  2.3922
  916MOL0     H23614  11.856   7.563   7.108 -2.1088  0.5634 -1.6090
  916MOL0     H23615  11.813   7.529   7.269 -0.4957  0.1456  0.1195
  916MOL0     H23616  11.811   7.290   7.233 -1.2983 -0.8782 -2.4290
  916MOL0     H23617  11.952   7.347   7.153  0.8529  3.9983 -2.4000
  916MOL0     H23618  11.690   7.256   7.024 -0.8949 -1.3949  2.1987
  916MOL0     H23619  11.835   7.174   7.026 -1.9053 -0.1104 -0.0011
  916MOL0     H23620  11.927   7.491   6.698 -0.5720 -1.0913 -0.9409
  916MOL0     H23621  12.160   7.513   6.646  1.4699 -0.3026  0.4174
  916MOL0     H23622  12.515   7.676   6.759  0.1342 -0.3329  0.1530
  916MOL0     H23623  12.764   7.743   6.750  0.5147 -1.2408 -0.3939
  916MOL0     H23624  13.149   7.567   6.663  0.8402  1.3157 -1.4697
  916MOL0     H23625  13.043   7.436   6.596 -0.5472 -0.3021 -2.1728
  916MOL0     H23626  13.173   7.551   6.395 -2.0210 -0.8165 -1.4926
  916MOL0     H23627  13.004   7.593   6.394 -0.7721  1.5454  0.2565
  916MOL0     H23628  13.042   7.807   6.403  1.7890  1.4703 -1.5967
  916MOL0     H23629  13.131   7.781   6.556  0.8179  0.7372 -0.4421
  916MOL0     H23630  13.232   7.777   6.264 -0.1703  0.4475  0.0772
  916MOL0     H23631  13.334   7.755   6.410  0.0523  1.9256  3.2259
  916MOL0     H23632  13.234   7.981   6.486 -1.3788  0.4718 -0.5154
  916MOL0     H23633  13.194   8.012   6.318  0.9748 -0.8949 -1.2467
  916MOL0     H23634  13.463   7.944   6.442 -0.7172  0.4208  0.6016
  916MOL0     H23635  13.448   7.917   6.278  0.1277 -0.3150  0.5230
  916MOL0     H23636  13.407   8.193   6.433 -0.6537 -0.4299 -0.5011
  916MOL0     H23637  13.391   8.175   6.259  1.0799  0.4609 -0.4057
  916MOL0     H23638  13.624   8.241   6.334  1.9604 -2.0808  1.1509
  916MOL0     H23639  13.631   8.081   6.420  3.3140 -1.3200 -2.4077
  916MOL0     H23640  12.844   7.376   6.547  1.1470  0.7053  0.9198
  916MOL0     H23641  12.584   7.325   6.562  0.2458 -0.5865  0.8788
  916MOL0     H23642  12.255   7.174   6.894  0.9076  0.5637  1.4760
  916MOL0     H23643  12.029   7.173   6.970 -1.9498 -0.1401  1.0498
  916MOL0     H23644  10.535   7.068   7.952  2.0374  2.4805 -3.7317
  916MOL0     H23645  10.361   7.065   8.142 -0.0770 -0.6884 -0.8291
  916MOL0     H23646  10.124   7.453   8.401 -0.0337 -0.4343 -2.5136
  916MOL0     H23647   9.949   7.511   8.540  2.0472 -0.5042 -0.8813
  916MOL0     H23648   9.561   7.270   8.472  1.0458 -0.4365 -0.1554
  916MOL0     H23649   9.556   7.413   8.365  0.7018 -0.7768 -0.4273
  916MOL0     H23650   9.378   7.452   8.438  1.1538  2.4122 -1.5499
  916MOL0     H23651   9.463   7.543   8.573 -3.2976 -1.1323  2.3708
  916MOL0     H23652   9.465   7.327   8.697  2.0316 -0.1675 -2.3516
  916MOL0     H23653   9.331   7.269   8.595 -2.8165  1.0724  0.0154
  916MOL0     H23654   9.306   7.520   8.759  1.7563 -0.0763 -1.0179
  916MOL0     H23655   9.178   7.448   8.651 -1.2630 -0.4850  0.9884
  916MOL0     H23656   9.140   7.237   9.012  0.8583 -3.2585 -0.5024
  916MOL0     H23657   9.685   7.263   8.303 -0.2697  0.4980  0.6585
  916MOL0     H23658   9.952   7.091   8.128 -1.4033 -0.9147  1.0880
  916MOL0     H23659   9.784   7.101   8.161  0.8063 -1.1969  0.1149
  916MOL0     H23660   9.863   7.206   8.036  1.8822 -0.8723 -0.9701
  917MOL0     O23661   6.493   3.363   7.407  0.2305  0.7517 -0.7504
  917MOL0     C23662   6.447   3.473   7.398  0.5604  0.5912 -0.7771
  917MOL0     O23663   6.504   3.588   7.450  0.1932  0.5755 -0.0174
  917MOL0     C23664   6.623   3.579   7.514  0.2374  0.3443 -0.6681
  917MOL0     C23665   6.630   3.629   7.651 -0.4140 -0.5869  0.7011
  917MOL0     C23666   6.760   3.655   7.703 -0.2522  0.3868 -0.1556
  917MOL0     C23667   6.877   3.608   7.638  0.0721 -0.2446  0.4069
  917MOL0     O23668   6.999   3.611   7.696  0.7123 -0.1950  0.6430
  917MOL0     C23669   7.013   3.598   7.839 -0.1698 -0.1970  1.1901
  917MOL0     C23670   7.167   3.594   7.876 -0.3447 -0.4613  0.0238
  917MOL0     C23671   7.188   3.586   8.025 -0.1578  0.3187  0.2700
  917MOL0     C23672   7.323   3.647   8.064 -0.1038 -0.5390  0.7588
  917MOL0     C23673   7.343   3.621   8.213 -0.0527 -0.0233 -0.0520
  917MOL0     C23674   7.458   3.695   8.275 -0.3956 -0.2612  0.1962
  917MOL0     C23675   7.570   3.747   8.182 -0.0000  0.3996  0.2577
  917MOL0     C23676   7.689   3.807   8.260 -0.1966  0.5531 -0.9093
  917MOL0     N23677   7.781   3.886   8.176 -0.6667 -0.0362  0.2631
  917MOL0     C23678   7.890   3.842   8.106  0.4038 -0.3163  0.4154
  917MOL0     C23679   7.957   3.943   8.059  0.8369 -0.3108  0.1466
  917MOL0     C23680   8.084   3.932   7.988 -0.1399 -0.1709 -0.2896
  917MOL0     C23681   8.204   3.888   8.070  0.1762  0.1656  0.8159
  917MOL0     C23682   8.247   3.994   8.170  0.2004 -0.3921 -0.1368
  917MOL0     C23683   8.374   3.957   8.240  0.8070  0.2435  0.4303
  917MOL0     O23684   8.492   3.973   8.159  0.3117 -0.6508 -0.2933
  917MOL0     C23685   8.611   3.916   8.200  0.2178  0.0833 -0.0388
  917MOL0     C23686   8.719   3.919   8.114 -0.4298  0.1290 -0.5570
  917MOL0     C23687   8.842   3.864   8.154 -0.0940 -0.0017  1.1767
  917MOL0     C23688   8.866   3.802   8.277  0.0473 -0.7680 -0.4829
  917MOL0     C23689   8.999   3.741   8.315 -0.0134  0.5509  0.3580
  917MOL0     O23690   9.020   3.704   8.445  0.4797 -0.7858 -0.6977
  917MOL0     C23691   9.145   3.686   8.493 -0.3402 -0.1360 -0.2816
  917MOL0     C23692   9.190   3.773   8.588  0.1222  0.6103  0.2011
  917MOL0     C23693   9.324   3.768   8.635 -0.8026  0.4509  0.4289
  917MOL0     C23694   9.410   3.662   8.589  0.1812 -0.0267  0.3144
  917MOL0     O23695   9.537   3.656   8.642 -0.2669 -0.0184  0.2320
  917MOL0     C23696   9.641   3.643   8.538  0.2405  0.4382  0.2534
  917MOL0     C23697   9.785   3.654   8.588  0.3975  0.2997 -0.1031
  917MOL0     C23698   9.807   3.766   8.700 -0.7894 -0.3981  0.2145
  917MOL0     C23699   9.960   3.791   8.728 -0.2175 -0.2589 -0.1046
  917MOL0     C23700   9.998   3.897   8.835 -0.5371  0.7151 -0.5360
  917MOL0     C23701  10.150   3.895   8.858  0.8463 -0.0099  0.4449
  917MOL0     C23702  10.183   4.032   8.925  0.1347  0.1349  0.1184
  917MOL0     C23703  10.330   4.018   8.969 -0.0570 -0.2670 -0.4377
  917MOL0    Cl23704  10.389   4.185   9.013 -0.2118  0.0240  0.4178
  917MOL0     C23705   9.361   3.579   8.484 -0.1002 -0.3828 -0.4303
  917MOL0     C23706   9.234   3.585   8.445  0.4727  0.8712 -0.3179
  917MOL0     O23707   9.091   3.741   8.230 -0.0884 -0.0545  0.2061
  917MOL0     C23708   8.749   3.797   8.364 -0.2365 -0.7658  1.0715
  917MOL0     C23709   8.631   3.860   8.328  1.0091  0.3128  0.1953
  917MOL0     N23710   7.889   4.059   8.091 -0.2159  0.2294  0.3406
  917MOL0     N23711   7.791   4.025   8.176  0.0209 -0.5130 -0.0791
  917MOL0     C23712   6.865   3.539   7.512 -0.5335  0.8130 -0.0126
  917MOL0     C23713   6.738   3.535   7.447 -0.0620 -0.5145 -0.4476
  917MOL0     C23714   6.307   3.487   7.341  0.0840 -0.1472 -0.5221
  917MOL0     C23715   6.233   3.606   7.375  0.1785 -0.2119 -0.4540
  917MOL0     C23716   6.099   3.631   7.338 -0.3236 -0.0566 -0.6238
  917MOL0     C23717   6.038   3.532   7.271  0.4894  0.4524  0.2151
  917MOL0     O23718   5.898   3.543   7.265  0.3158  0.1949  1.3264
  917MOL0     C23719   5.856   3.611   7.141 -0.1084 -0.4161 -0.7855
  917MOL0     C23720   5.705   3.635   7.140  0.2357  0.0375 -0.8001
  917MOL0     C23721   5.626   3.506   7.163 -0.2334  0.4917  0.1177
  917MOL0     C23722   5.698   3.394   7.072 -0.2430  0.0748  0.1613
  917MOL0     C23723   5.615   3.275   7.050 -0.2142 -0.5136  0.6423
  917MOL0     C23724   5.551   3.173   7.035  0.1265  0.0615  0.0975
  917MOL0     C23725   6.106   3.421   7.233  0.4415  0.1265 -0.1652
  917MOL0     C23726   6.231   3.395   7.268 -0.1949  0.0109  0.1727
  917MOL0     C23727   6.279   3.257   7.219  0.0259  0.4785 -0.4249
  917MOL0     H23728   6.537   3.664   7.694 -1.9094 -1.4974 -1.6234
  917MOL0     H23729   6.772   3.703   7.800  4.5067  0.4092 -0.5170
  917MOL0     H23730   6.958   3.683   7.882 -0.2447  1.7789 -2.3805
  917MOL0     H23731   6.957   3.510   7.871  2.0309 -1.8205  0.7241
  917MOL0     H23732   7.210   3.691   7.847  1.5375 -0.5614  2.2675
  917MOL0     H23733   7.234   3.530   7.819  2.6477  0.8811  1.7713
  917MOL0     H23734   7.180   3.479   8.046 -0.3256  0.0822 -0.9188
  917MOL0     H23735   7.107   3.631   8.084  0.6965  0.3562  1.4356
  917MOL0     H23736   7.397   3.588   8.008  0.2737  1.3589 -0.8628
  917MOL0     H23737   7.338   3.752   8.038 -0.2461 -0.6217  0.3390
  917MOL0     H23738   7.256   3.657   8.270 -0.3786  1.2473 -1.3130
  917MOL0     H23739   7.368   3.517   8.236 -1.4194  0.1745  2.8059
  917MOL0     H23740   7.422   3.787   8.321  1.0218  1.2725 -1.5975
  917MOL0     H23741   7.507   3.628   8.346 -0.3192 -0.1643  0.2345
  917MOL0     H23742   7.523   3.827   8.124  0.4828  0.6447  0.1983
  917MOL0     H23743   7.605   3.671   8.111  4.0179  3.5019 -1.4402
  917MOL0     H23744   7.653   3.874   8.339 -0.0030  1.3721 -1.4969
  917MOL0     H23745   7.735   3.719   8.307 -0.1888  1.1812  0.3017
  917MOL0     H23746   7.923   3.739   8.098  0.1246 -0.4724  1.1716
  917MOL0     H23747   8.067   3.864   7.904 -3.7019 -0.2989  0.4094
  917MOL0     H23748   8.119   4.024   7.940 -0.4951 -0.0181 -0.2568
  917MOL0     H23749   8.183   3.800   8.132  3.5882 -0.4401  1.3190
  917MOL0     H23750   8.288   3.869   8.002  0.8301  0.0261  1.6426
  917MOL0     H23751   8.162   3.986   8.239 -0.1699  2.3029 -0.1756
  917MOL0     H23752   8.245   4.093   8.125 -3.1245 -0.6656 -0.8592
  917MOL0     H23753   8.372   3.857   8.284 -1.4837  0.5857  1.2526
  917MOL0     H23754   8.387   4.022   8.327 -0.7160  0.4836  0.4990
  917MOL0     H23755   8.702   3.966   8.017 -0.4465  0.8737 -0.2011
  917MOL0     H23756   8.922   3.870   8.081  1.0903  0.9059  2.4986
  917MOL0     H23757   9.125   3.849   8.629 -1.1884 -0.7791  0.8087
  917MOL0     H23758   9.359   3.834   8.714  0.5253  0.5645 -0.2366
  917MOL0     H23759   9.629   3.544   8.495 -4.9184  1.5248 -1.4389
  917MOL0     H23760   9.626   3.714   8.456 -1.6791  1.2861  1.2748
  917MOL0     H23761   9.795   3.554   8.630 -0.0871 -0.6325 -2.1126
  917MOL0     H23762   9.852   3.665   8.502  1.4576  0.0452  0.6669
  917MOL0     H23763   9.757   3.857   8.666 -0.4808 -0.3222 -0.0417
  917MOL0     H23764   9.753   3.728   8.787 -2.1393 -1.1122 -0.8870
  917MOL0     H23765  10.005   3.828   8.635  0.7843  2.6121  1.3894
  917MOL0     H23766  10.005   3.699   8.765  0.2732  0.7139  1.8129
  917MOL0     H23767   9.944   3.880   8.929 -0.4997  1.7176 -0.3231
  917MOL0     H23768   9.959   3.995   8.807 -1.2256  0.6985  0.2930
  917MOL0     H23769  10.184   3.816   8.924  0.4206  1.0152  1.9457
  917MOL0     H23770  10.199   3.880   8.761  1.8960 -0.2051  1.0014
  917MOL0     H23771  10.116   4.060   9.007 -1.0339 -0.0921 -0.7201
  917MOL0     H23772  10.174   4.105   8.844  1.4350 -2.0242 -2.1293
  917MOL0     H23773  10.332   3.947   9.051  2.4003 -1.1289 -1.1553
  917MOL0     H23774  10.392   3.997   8.881 -1.4040  1.4172 -1.8855
  917MOL0     H23775   9.428   3.503   8.446 -0.0696 -0.7697  0.3971
  917MOL0     H23776   9.209   3.507   8.374  0.8828 -1.1567  1.6485
  917MOL0     H23777   8.765   3.751   8.461  0.4926  1.2465  1.9608
  917MOL0     H23778   8.552   3.864   8.402 -0.3655 -1.4892 -1.0987
  917MOL0     H23779   6.964   3.508   7.479 -1.5671 -3.3510  0.2394
  917MOL0     H23780   6.741   3.495   7.346  2.6869  1.7600 -1.3930
  917MOL0     H23781   6.283   3.683   7.434  1.2158 -0.1386 -1.4050
  917MOL0     H23782   6.049   3.723   7.370  2.5849  1.2273  0.6125
  917MOL0     H23783   5.888   3.554   7.054  1.9007  0.4202 -0.6392
  917MOL0     H23784   5.908   3.706   7.132 -0.5632  0.5772  4.0746
  917MOL0     H23785   5.679   3.657   7.037 -2.9442 -0.5077 -0.2321
  917MOL0     H23786   5.675   3.711   7.212 -2.3923 -2.1815  0.6615
  917MOL0     H23787   5.525   3.518   7.123 -0.5319 -4.0756 -1.0099
  917MOL0     H23788   5.612   3.476   7.268  1.0970 -0.7437 -0.0311
  917MOL0     H23789   5.727   3.431   6.974  2.4247  1.2554  1.2870
  917MOL0     H23790   5.791   3.353   7.113  0.2125 -1.3556 -2.1511
  917MOL0     H23791   5.519   3.072   7.018 -1.5148  0.1788  2.1246
  917MOL0     H23792   6.051   3.357   7.165  1.2931  1.6396 -2.3998
  917MOL0     H23793   6.370   3.258   7.159 -0.4434 -0.5143 -1.1833
  917MOL0     H23794   6.298   3.195   7.308  1.1616  2.1924  0.5744
  917MOL0     H23795   6.205   3.209   7.154 -0.9230  0.2446  0.7759
  918MOL0     O23796   4.919   1.694   3.467  0.3128  0.5549  0.9288
  918MOL0     C23797   4.859   1.588   3.436  0.0654 -0.3405 -0.6172
  918MOL0     O23798   4.900   1.495   3.346  0.5314 -0.5416 -0.3095
  918MOL0     C23799   5.007   1.517   3.268  0.2813  0.0572 -0.2431
  918MOL0     C23800   5.024   1.632   3.189 -0.1137 -0.3941  0.4392
  918MOL0     C23801   5.133   1.648   3.111 -0.0604  0.4097  0.2820
  918MOL0     C23802   5.245   1.556   3.129 -0.0134 -0.0587  0.2641
  918MOL0     O23803   5.360   1.580   3.056 -0.1077  0.1640 -0.5857
  918MOL0     C23804   5.449   1.479   3.010 -0.4594  0.0268 -0.4863
  918MOL0     C23805   5.528   1.524   2.886 -0.6859  0.4048  0.3950
  918MOL0     C23806   5.672   1.553   2.940  0.2292 -0.1564 -1.3082
  918MOL0     C23807   5.766   1.602   2.829  0.0431  0.4535 -0.3462
  918MOL0     C23808   5.902   1.631   2.897 -0.4564 -0.6939  0.3048
  918MOL0     C23809   6.023   1.597   2.816 -0.2416  0.0337  0.6710
  918MOL0     C23810   6.033   1.662   2.680 -0.1744  0.7548 -0.6154
  918MOL0     C23811   6.027   1.817   2.675 -0.2814  0.4456 -0.6798
  918MOL0     N23812   6.123   1.869   2.585  0.7187 -0.3179  0.4867
  918MOL0     C23813   6.109   1.869   2.449  0.1195  0.4447  0.3381
  918MOL0     C23814   6.222   1.921   2.401 -1.2476  0.4585  0.3567
  918MOL0     C23815   6.252   1.938   2.253 -0.3910  0.0786 -0.5815
  918MOL0     C23816   6.393   1.927   2.205 -0.3761 -0.8138  0.3069
  918MOL0     C23817   6.460   2.065   2.229 -0.6126  0.2607  0.6533
  918MOL0     C23818   6.612   2.072   2.204 -1.0868 -0.5580 -0.6821
  918MOL0     O23819   6.639   2.005   2.084  0.0882  0.0880  0.0861
  918MOL0     C23820   6.767   2.016   2.036 -0.6550 -0.3493  0.1432
  918MOL0     C23821   6.789   1.950   1.910  0.2355  0.4056  0.5417
  918MOL0     C23822   6.920   1.932   1.864 -0.0251 -0.8163 -0.0310
  918MOL0     C23823   7.031   1.990   1.932 -0.1772 -0.0101  1.1308
  918MOL0     C23824   7.164   1.974   1.882 -1.0402  0.4604  0.6024
  918MOL0     O23825   7.175   1.899   1.770 -0.0448  0.0684 -0.0776
  918MOL0     C23826   7.304   1.867   1.734  0.1562  0.8312 -0.4001
  918MOL0     C23827   7.376   1.931   1.631  0.5794 -0.0653 -0.2276
  918MOL0     C23828   7.505   1.893   1.599  0.3067 -0.0550 -0.6854
  918MOL0     C23829   7.574   1.796   1.666 -0.7880 -0.3307  0.3580
  918MOL0     O23830   7.703   1.784   1.632 -0.3856  0.6797 -0.0181
  918MOL0     C23831   7.795   1.734   1.729  0.4291  0.1539  0.0766
  918MOL0     C23832   7.935   1.781   1.678  0.4617 -0.4478 -0.8637
  918MOL0     C23833   8.010   1.653   1.648 -0.0549 -0.2935  0.4795
  918MOL0     C23834   8.154   1.689   1.604 -0.0750 -0.0013  0.0960
  918MOL0     C23835   8.237   1.565   1.596 -1.0240 -0.5358  0.8117
  918MOL0     C23836   8.388   1.601   1.556 -0.4530 -0.2695  0.4869
  918MOL0     C23837   8.393   1.681   1.421  0.0686 -0.1253 -0.4093
  918MOL0     C23838   8.527   1.666   1.348  0.0530 -0.0403 -0.4379
  918MOL0    Cl23839   8.565   1.491   1.318 -0.2547  0.5749 -0.2226
  918MOL0     C23840   7.504   1.729   1.772 -0.0178  0.2251 -0.4538
  918MOL0     C23841   7.372   1.753   1.796 -0.0361  0.0951  0.1288
  918MOL0     O23842   7.263   2.034   1.935 -0.1931  0.5157  0.5876
  918MOL0     C23843   7.008   2.061   2.054  1.6270 -0.3240  0.4602
  918MOL0     C23844   6.879   2.064   2.111  0.4103 -0.2535 -0.4931
  918MOL0     N23845   6.318   1.937   2.505  0.7932 -0.0753 -0.3492
  918MOL0     N23846   6.250   1.909   2.609 -0.1617 -0.1208 -0.3467
  918MOL0     C23847   5.234   1.443   3.209  0.4837  0.0863  0.1422
  918MOL0     C23848   5.114   1.426   3.280 -0.5788 -0.2996 -0.4662
  918MOL0     C23849   4.740   1.542   3.519 -0.0100 -0.4537  0.3496
  918MOL0     C23850   4.633   1.509   3.440  0.3117  0.2994  0.4786
  918MOL0     C23851   4.504   1.467   3.497 -0.5512 -0.2134  0.5710
  918MOL0     C23852   4.491   1.471   3.627 -0.7409  0.2855  0.7112
  918MOL0     O23853   4.381   1.421   3.692 -0.5079  0.4266 -0.8072
  918MOL0     C23854   4.271   1.352   3.629  1.0321  0.5037  0.7168
  918MOL0     C23855   4.170   1.457   3.568 -0.0358 -0.0731 -0.6770
  918MOL0     C23856   4.074   1.386   3.468 -0.3471 -0.6481  0.3254
  918MOL0     C23857   3.950   1.479   3.427 -0.0716  0.1686  0.5417
  918MOL0     C23858   3.927   1.613   3.485  0.3854 -0.0745  0.0769
  918MOL0     C23859   3.902   1.721   3.532 -0.1523 -0.2494 -0.6493
  918MOL0     C23860   4.590   1.519   3.708  0.0805  0.5278  0.5748
  918MOL0     C23861   4.715   1.550   3.656 -0.5503  0.0635 -0.2090
  918MOL0     C23862   4.824   1.586   3.763  0.5798  0.3347 -0.0516
  918MOL0     H23863   4.944   1.704   3.176  0.4058  0.1535  0.2007
  918MOL0     H23864   5.132   1.724   3.034 -0.6923 -0.4697 -0.5937
  918MOL0     H23865   5.519   1.448   3.088  0.2424  0.9832 -0.7132
  918MOL0     H23866   5.391   1.393   2.975 -0.1777 -0.4553  0.2194
  918MOL0     H23867   5.478   1.610   2.841 -0.0879  0.9063  0.6861
  918MOL0     H23868   5.527   1.440   2.816 -3.3322  0.1086  0.6688
  918MOL0     H23869   5.710   1.460   2.983 -1.0042 -0.7090 -1.3545
  918MOL0     H23870   5.664   1.628   3.020 -1.9211 -0.9029 -0.7302
  918MOL0     H23871   5.777   1.514   2.764  2.4942  0.1923  0.3372
  918MOL0     H23872   5.733   1.688   2.770  0.3635  0.1096 -1.0443
  918MOL0     H23873   5.912   1.737   2.922 -3.6118 -0.6361  1.9650
  918MOL0     H23874   5.918   1.574   2.989 -0.1407  0.6329  1.0972
  918MOL0     H23875   6.107   1.635   2.875 -0.6825  0.5316  0.9947
  918MOL0     H23876   6.036   1.489   2.802 -0.9092  0.1840 -1.3731
  918MOL0     H23877   5.948   1.637   2.617 -0.5779  1.0774 -0.2043
  918MOL0     H23878   6.130   1.628   2.642 -1.0805 -2.9992  0.0433
  918MOL0     H23879   5.923   1.837   2.646 -0.5166  2.0186  1.0134
  918MOL0     H23880   6.044   1.859   2.775  0.0448  1.1830 -1.0333
  918MOL0     H23881   6.034   1.828   2.382  0.1536 -1.7108  1.4993
  918MOL0     H23882   6.190   1.862   2.204 -2.9110  1.1807  0.7184
  918MOL0     H23883   6.212   2.033   2.217  2.2329  1.5604  0.1947
  918MOL0     H23884   6.457   1.853   2.254  0.2572  1.4189  3.0919
  918MOL0     H23885   6.405   1.908   2.098  0.2325 -1.1708  0.4306
  918MOL0     H23886   6.442   2.092   2.333 -0.8066  1.4332  0.3246
  918MOL0     H23887   6.421   2.135   2.155 -0.2577 -0.0180  0.1963
  918MOL0     H23888   6.662   2.027   2.290 -1.4711  4.2406  2.3871
  918MOL0     H23889   6.649   2.175   2.204 -2.5273 -0.0265 -1.0101
  918MOL0     H23890   6.710   1.917   1.844  3.2675 -1.9911 -2.2422
  918MOL0     H23891   6.930   1.873   1.773 -1.2297  0.3083 -0.9418
  918MOL0     H23892   7.341   2.011   1.567  3.1551 -0.0677 -1.7730
  918MOL0     H23893   7.544   1.956   1.520 -1.9646  1.0972 -0.9556
  918MOL0     H23894   7.770   1.762   1.831  0.4672 -2.4092  0.8728
  918MOL0     H23895   7.796   1.624   1.723  1.5033  0.1680 -0.2017
  918MOL0     H23896   7.926   1.840   1.586 -0.6990  0.9054  0.0547
  918MOL0     H23897   7.984   1.847   1.750 -2.1771  0.5542  0.1352
  918MOL0     H23898   8.003   1.601   1.744  2.0231  1.2684  1.5783
  918MOL0     H23899   7.964   1.597   1.567  0.3771  0.9891 -0.7107
  918MOL0     H23900   8.202   1.765   1.666 -0.9084  0.9742 -0.4142
  918MOL0     H23901   8.148   1.742   1.508  0.1922 -1.6335 -0.8594
  918MOL0     H23902   8.181   1.507   1.522 -1.5505  1.8626 -0.7910
  918MOL0     H23903   8.232   1.504   1.687  0.0652 -0.3369  1.0178
  918MOL0     H23904   8.426   1.651   1.645  4.2097 -1.8361 -0.3372
  918MOL0     H23905   8.459   1.517   1.554  1.7843  1.4702 -2.6832
  918MOL0     H23906   8.359   1.783   1.443  1.2492  0.1223  0.3239
  918MOL0     H23907   8.323   1.629   1.355 -1.9468 -0.0815  1.5717
  918MOL0     H23908   8.518   1.709   1.248 -1.3326 -0.8019 -0.6653
  918MOL0     H23909   8.600   1.724   1.407 -5.3078  3.6609  3.6253
  918MOL0     H23910   7.562   1.679   1.849 -1.0648 -0.6394 -0.2008
  918MOL0     H23911   7.322   1.713   1.884  0.2683 -1.3118 -0.3185
  918MOL0     H23912   7.080   2.099   2.126 -0.8031 -0.2951  3.0519
  918MOL0     H23913   6.853   2.099   2.210 -1.7662 -0.7515 -0.8426
  918MOL0     H23914   5.319   1.376   3.198  0.1173 -0.0054 -3.2509
  918MOL0     H23915   5.108   1.333   3.334  0.9481  0.3092  0.7943
  918MOL0     H23916   4.645   1.496   3.333  0.1635  2.6148  0.1189
  918MOL0     H23917   4.415   1.449   3.437 -0.6876 -1.4009  1.1008
  918MOL0     H23918   4.201   1.300   3.696 -1.1814 -1.4690 -2.7849
  918MOL0     H23919   4.302   1.271   3.562  0.6223  0.0500  1.0677
  918MOL0     H23920   4.226   1.540   3.523  3.1099 -2.6550 -1.9529
  918MOL0     H23921   4.116   1.501   3.652  1.5656  2.2153 -0.7453
  918MOL0     H23922   4.025   1.298   3.511 -3.2287  1.0457  0.8035
  918MOL0     H23923   4.128   1.355   3.378 -0.3559  1.0121 -0.2922
  918MOL0     H23924   3.968   1.491   3.320  1.1701 -0.6149  0.6472
  918MOL0     H23925   3.856   1.423   3.417  0.1399 -0.0840 -0.1044
  918MOL0     H23926   3.888   1.822   3.565  0.7747 -0.6757  1.1732
  918MOL0     H23927   4.563   1.525   3.813 -0.0501  1.6802  0.4919
  918MOL0     H23928   4.915   1.626   3.717 -0.5658  1.7061 -1.2580
  918MOL0     H23929   4.780   1.669   3.820  0.3063  1.3117 -1.5931
  918MOL0     H23930   4.842   1.496   3.822 -0.6553  0.3193  0.3309
  919MOL0     O23931   2.125   9.013   9.716 -0.3975  0.2451  0.2859
  919MOL0     C23932   2.192   8.919   9.752 -0.0737  0.5251 -0.6761
  919MOL0     O23933   2.146   8.801   9.803  0.3306  0.8745  0.3320
  919MOL0     C23934   2.008   8.777   9.811 -0.3822  1.2794  0.5793
  919MOL0     C23935   1.937   8.739   9.701  0.0767 -0.3928  0.1528
  919MOL0     C23936   1.808   8.694   9.717  0.0858 -0.4220  0.0910
  919MOL0     C23937   1.746   8.696   9.841  0.1894 -0.1871 -0.8561
  919MOL0     O23938   1.611   8.653   9.861 -0.5465 -0.1478  0.1708
  919MOL0     C23939   1.549   8.575   9.753  0.3073  0.8713 -0.4530
  919MOL0     C23940   1.429   8.502   9.810  0.1270 -0.1891  0.1154
  919MOL0     C23941   1.357   8.435   9.696 -0.4709  0.5755  1.4700
  919MOL0     C23942   1.227   8.381   9.756  0.1054  0.3065 -0.4009
  919MOL0     C23943   1.162   8.289   9.644 -0.0833  0.1558  0.4330
  919MOL0     C23944   1.058   8.195   9.710  0.3807  0.1350  0.5620
  919MOL0     C23945   0.913   8.252   9.718  0.0886  0.3109  0.3015
  919MOL0     C23946   0.843   8.284   9.583  0.2357 -0.6730 -0.3704
  919MOL0     N23947   0.821   8.160   9.498 -0.4613  0.1207  0.0872
  919MOL0     C23948   0.753   8.048   9.537 -0.5058  0.3731  0.0696
  919MOL0     C23949   0.775   7.951   9.446  0.4531 -0.1578 -1.1143
  919MOL0     C23950   0.719   7.816   9.447  0.5596  0.3258  0.4747
  919MOL0     C23951   0.821   7.725   9.383 -0.1238  0.7227 -0.4594
  919MOL0     C23952   0.785   7.577   9.380 -0.0670  0.2981  0.5676
  919MOL0     C23953   0.806   7.491   9.501  0.0130 -0.3562 -0.3696
  919MOL0     O23954   0.911   7.546   9.575  0.5523 -0.6540 -0.4194
  919MOL0     C23955   1.041   7.508   9.550  0.1604 -0.1543 -0.4720
  919MOL0     C23956   1.124   7.550   9.651 -0.2806 -0.7471 -0.1141
  919MOL0     C23957   1.262   7.524   9.641 -0.2509 -0.0153  0.4463
  919MOL0     C23958   1.324   7.445   9.544  0.7209 -0.4003  0.2813
  919MOL0     C23959   1.470   7.426   9.532  0.5767  0.0149  0.0748
  919MOL0     O23960   1.514   7.339   9.434 -0.2105 -0.5785  0.0998
  919MOL0     C23961   1.647   7.339   9.403 -0.7576  0.6240 -0.4070
  919MOL0     C23962   1.683   7.365   9.276 -0.6300  0.1902  0.6205
  919MOL0     C23963   1.819   7.381   9.250  0.3603 -0.7485 -0.0240
  919MOL0     C23964   1.917   7.376   9.339 -1.2509  0.0316  0.0081
  919MOL0     O23965   2.053   7.404   9.321  0.1244 -0.2103  0.8149
  919MOL0     C23966   2.092   7.543   9.307  1.2048  0.6666 -0.8927
  919MOL0     C23967   2.217   7.550   9.231  0.0498  0.3284  0.1453
  919MOL0     C23968   2.315   7.439   9.273 -0.9911 -0.1401  0.3548
  919MOL0     C23969   2.445   7.459   9.194 -0.2254 -0.0964  0.3385
  919MOL0     C23970   2.524   7.325   9.181 -0.4744  0.3398  0.4429
  919MOL0     C23971   2.475   7.219   9.083  0.1455 -0.3427 -0.7673
  919MOL0     C23972   2.567   7.093   9.076 -0.2776  0.8830  0.1521
  919MOL0     C23973   2.490   6.977   9.004 -0.1531  0.0603 -0.6089
  919MOL0    Cl23974   2.602   6.838   8.979 -0.0772 -0.1714 -0.3751
  919MOL0     C23975   1.881   7.342   9.466  0.0094 -0.0354 -0.6350
  919MOL0     C23976   1.745   7.330   9.502  0.2903  0.0228  1.2427
  919MOL0     O23977   1.536   7.494   9.611 -1.8250 -0.5416 -0.0223
  919MOL0     C23978   1.233   7.392   9.441  0.3971 -0.1836  0.1893
  919MOL0     C23979   1.095   7.418   9.446  0.9519  0.2650 -0.4708
  919MOL0     N23980   0.867   8.004   9.349  0.5719  0.5096 -0.7621
  919MOL0     N23981   0.889   8.128   9.379  0.2100  0.3520  0.4631
  919MOL0     C23982   1.821   8.738   9.951 -1.2558 -0.4237  0.3055
  919MOL0     C23983   1.954   8.777   9.935  0.1330  0.0938  0.4816
  919MOL0     C23984   2.334   8.948   9.765  0.4295  0.1231  0.0493
  919MOL0     C23985   2.424   8.924   9.663  0.8633  0.4530 -0.3815
  919MOL0     C23986   2.559   8.944   9.677 -0.0588 -0.5066  0.5423
  919MOL0     C23987   2.619   8.975   9.802  0.8777 -0.8423 -0.5153
  919MOL0     O23988   2.752   8.983   9.814 -0.4287 -0.6908  0.0632
  919MOL0     C23989   2.813   9.010   9.946 -0.2309 -0.7538  0.3389
  919MOL0     C23990   2.966   9.009   9.936  0.5515 -0.6147 -0.3074
  919MOL0     C23991   3.021   8.870   9.923 -0.1794 -0.2252 -0.6360
  919MOL0     C23992   3.170   8.871   9.924 -0.1725 -0.4018 -0.4809
  919MOL0     C23993   3.239   8.741   9.902  0.2718 -0.0922  0.5843
  919MOL0     C23994   3.291   8.634   9.876  0.0743 -0.3934 -0.3277
  919MOL0     C23995   2.530   9.006   9.911 -0.0313 -0.6111  0.4225
  919MOL0     C23996   2.388   8.987   9.898  0.4051  0.4442 -0.0700
  919MOL0     C23997   2.291   9.018  10.010  0.0902 -0.0519  0.1870
  919MOL0     H23998   1.981   8.733   9.603  0.7891 -0.5985  0.4824
  919MOL0     H23999   1.754   8.646   9.636 -0.6245 -1.4478  1.1228
  919MOL0     H24000   1.526   8.626   9.659  0.4291 -0.6088 -1.3230
  919MOL0     H24001   1.628   8.504   9.724  1.0307  0.3507  2.4419
  919MOL0     H24002   1.361   8.569   9.862  0.7782  0.5362  0.0600
  919MOL0     H24003   1.470   8.419   9.869  5.1196  0.7793 -1.4394
  919MOL0     H24004   1.419   8.354   9.656 -1.7097  0.4215 -0.2334
  919MOL0     H24005   1.343   8.506   9.615 -3.9270  0.3665  1.7267
  919MOL0     H24006   1.250   8.333   9.851 -0.4956  0.6649 -0.0702
  919MOL0     H24007   1.154   8.462   9.768 -0.2333  0.2100 -1.6519
  919MOL0     H24008   1.129   8.362   9.569 -1.3108 -0.5379  0.2606
  919MOL0     H24009   1.239   8.227   9.599 -0.8246 -0.1340 -0.4621
  919MOL0     H24010   1.060   8.108   9.643 -0.0444 -0.3230  1.1430
  919MOL0     H24011   1.092   8.163   9.809  0.9891 -0.5725  0.1421
  919MOL0     H24012   0.912   8.352   9.763 -3.9265  0.5429  0.0797
  919MOL0     H24013   0.850   8.186   9.778  2.5489 -1.3154  1.2368
  919MOL0     H24014   0.748   8.336   9.599  0.6042  0.4556 -1.6702
  919MOL0     H24015   0.911   8.346   9.525 -0.5326 -0.1115 -0.6908
  919MOL0     H24016   0.689   8.032   9.624 -0.7660 -1.6608 -0.4421
  919MOL0     H24017   0.705   7.786   9.552  0.5850 -0.1924  0.3337
  919MOL0     H24018   0.628   7.818   9.388 -1.2413 -2.7720  2.8615
  919MOL0     H24019   0.827   7.757   9.278  0.6940 -0.0757 -0.6674
  919MOL0     H24020   0.920   7.732   9.430 -0.2348  0.2898 -0.1503
  919MOL0     H24021   0.847   7.538   9.299 -0.1928  1.0651  0.0969
  919MOL0     H24022   0.683   7.560   9.346 -1.3681  0.3021  4.0759
  919MOL0     H24023   0.824   7.383   9.489 -0.0349 -0.6107  1.5890
  919MOL0     H24024   0.722   7.504   9.570  1.8653  0.2851  1.8784
  919MOL0     H24025   1.089   7.610   9.734  3.2025  2.4219 -0.6285
  919MOL0     H24026   1.329   7.567   9.715 -1.7524  0.9386  1.2931
  919MOL0     H24027   1.618   7.394   9.194 -1.3705  0.8795  1.4272
  919MOL0     H24028   1.849   7.423   9.155 -1.4675  0.0447 -0.3032
  919MOL0     H24029   2.014   7.606   9.263  1.4662  1.7364  0.1319
  919MOL0     H24030   2.105   7.588   9.406 -2.8117  1.2695 -0.4450
  919MOL0     H24031   2.189   7.543   9.125  0.9829  1.2746 -0.1794
  919MOL0     H24032   2.256   7.651   9.243  0.0426  0.7447 -2.6118
  919MOL0     H24033   2.335   7.457   9.379  1.8786  0.8910 -0.2564
  919MOL0     H24034   2.278   7.341   9.244 -0.2994 -0.2020 -0.3449
  919MOL0     H24035   2.495   7.537   9.251 -2.3694  0.0000  2.2404
  919MOL0     H24036   2.426   7.498   9.094 -0.5204 -0.0665  0.4035
  919MOL0     H24037   2.533   7.283   9.282 -1.2156 -0.6977  0.0912
  919MOL0     H24038   2.626   7.354   9.156  0.0618 -0.5328  1.5156
  919MOL0     H24039   2.374   7.195   9.116 -1.5276  3.7918 -2.1314
  919MOL0     H24040   2.464   7.266   8.985  1.7822  2.4142  0.2589
  919MOL0     H24041   2.597   7.046   9.170 -4.0888 -1.7805  0.2826
  919MOL0     H24042   2.656   7.120   9.018  0.1235  2.5257  1.4570
  919MOL0     H24043   2.410   6.948   9.072  0.8091 -1.6346 -0.1230
  919MOL0     H24044   2.453   7.010   8.907  1.2196  1.6082 -0.6563
  919MOL0     H24045   1.955   7.333   9.546  0.1481 -1.1180 -0.8667
  919MOL0     H24046   1.714   7.313   9.605 -2.4043 -2.8559  0.1121
  919MOL0     H24047   1.277   7.324   9.369  4.7537  3.0024 -0.5240
  919MOL0     H24048   1.039   7.378   9.362  2.3979  1.7685 -2.2348
  919MOL0     H24049   1.772   8.758  10.046  0.2020 -0.9935  1.2262
  919MOL0     H24050   2.006   8.814  10.022 -0.3896  0.6194  0.5787
  919MOL0     H24051   2.394   8.885   9.566  0.5382 -0.5481  0.1117
  919MOL0     H24052   2.620   8.943   9.587 -0.9556 -0.8083 -0.0728
  919MOL0     H24053   2.780   8.932  10.015 -2.5326  0.2876  0.5261
  919MOL0     H24054   2.780   9.104   9.992 -2.1942 -1.6170  0.8308
  919MOL0     H24055   2.999   9.056  10.029  0.0849 -0.0642 -0.4074
  919MOL0     H24056   3.007   9.067   9.853  2.1022 -3.3223 -1.5634
  919MOL0     H24057   2.987   8.820   9.832  0.9515  0.6909 -1.5956
  919MOL0     H24058   2.997   8.803  10.007 -3.2758 -0.3005 -1.4853
  919MOL0     H24059   3.215   8.940   9.853  4.4202  0.4392  2.8251
  919MOL0     H24060   3.201   8.901  10.024 -1.0637 -2.7805  0.5989
  919MOL0     H24061   3.330   8.540   9.843 -1.0467 -0.8452 -0.4014
  919MOL0     H24062   2.575   9.030  10.007 -1.2925  0.6914  0.7179
  919MOL0     H24063   2.192   8.980   9.983  1.0162 -0.6436 -2.7122
  919MOL0     H24064   2.328   8.971  10.101 -1.5931 -0.4296  0.7200
  919MOL0     H24065   2.291   9.127  10.022  0.8340 -0.1113  0.7932
  920MOL0     O24066   2.455   9.801   0.715  0.2658  0.1705 -0.1811
  920MOL0     C24067   2.392   9.767   0.820 -0.2259  0.2607  0.5406
  920MOL0     O24068   2.451   9.775   0.939  0.1211  0.6274  0.5937
  920MOL0     C24069   2.546   9.868   0.957 -0.0681  0.6194  0.3732
  920MOL0     C24070   2.515   9.996   0.997  0.2666 -0.7258 -0.1501
  920MOL0     C24071   2.623  10.091   1.017  0.4386  0.4073  0.3810
  920MOL0     C24072   2.755  10.059   0.992 -0.0105 -0.1044  0.5534
  920MOL0     O24073   2.844  10.154   1.026  0.4324  0.0352  0.4362
  920MOL0     C24074   2.987  10.134   1.021 -0.1319  0.5373 -1.0169
  920MOL0     C24075   3.060  10.247   1.105 -0.4555  0.5656 -0.5916
  920MOL0     C24076   3.086  10.179   1.248 -0.6515 -0.6383  0.3957
  920MOL0     C24077   3.213  10.231   1.317  0.6266  0.1110 -0.8027
  920MOL0     C24078   3.333  10.199   1.236 -0.7433 -0.2395  0.0216
  920MOL0     C24079   3.440  10.111   1.300 -1.0767  0.0915  0.7332
  920MOL0     C24080   3.533  10.183   1.395 -0.4557 -0.1847  0.1338
  920MOL0     C24081   3.642  10.080   1.448  0.0390  0.2686 -0.1468
  920MOL0     N24082   3.749  10.142   1.529 -0.9303  0.3793 -0.2574
  920MOL0     C24083   3.874  10.186   1.484  0.2998 -0.2813 -0.0054
  920MOL0     C24084   3.936  10.244   1.587 -0.0754  0.4411 -0.1624
  920MOL0     C24085   4.073  10.300   1.572  0.0447 -0.0176  0.1144
  920MOL0     C24086   4.170  10.211   1.663 -0.6507  0.7093 -0.5286
  920MOL0     C24087   4.217  10.084   1.586 -0.7469  0.0649  0.0614
  920MOL0     C24088   4.311  10.004   1.684  0.0392  0.1966 -0.4424
  920MOL0     O24089   4.446  10.052   1.679 -0.5841  0.1902  0.2636
  920MOL0     C24090   4.547   9.973   1.731 -0.1792  0.2349  0.2041
  920MOL0     C24091   4.673  10.025   1.727  0.4729 -0.5681  1.0335
  920MOL0     C24092   4.781   9.963   1.788  1.4701 -1.0905  0.7632
  920MOL0     C24093   4.768   9.848   1.863 -0.3749 -0.1815  0.0338
  920MOL0     C24094   4.869   9.784   1.940  0.2122 -0.1849  0.7043
  920MOL0     O24095   4.994   9.812   1.912  0.2953  0.1770 -0.6623
  920MOL0     C24096   5.102   9.748   1.963  0.3591  0.2963  0.0954
  920MOL0     C24097   5.209   9.826   2.006 -0.0053 -0.0766  0.4912
  920MOL0     C24098   5.327   9.765   2.050  0.1768 -0.3786  0.3510
  920MOL0     C24099   5.329   9.624   2.061 -0.9477  0.6896  0.1093
  920MOL0     O24100   5.441   9.554   2.111  0.1576  0.1699 -0.0325
  920MOL0     C24101   5.562   9.617   2.153  0.7220  0.6335  0.4364
  920MOL0     C24102   5.672   9.513   2.185  0.5519 -0.0720  0.3905
  920MOL0     C24103   5.805   9.568   2.251  0.8117 -0.7943 -0.2371
  920MOL0     C24104   5.905   9.638   2.151 -0.6487  0.6817 -0.3374
  920MOL0     C24105   6.023   9.677   2.235 -1.0199 -0.0440 -0.3184
  920MOL0     C24106   6.119   9.563   2.271  0.4073 -1.0313 -0.1412
  920MOL0     C24107   6.233   9.602   2.365  1.5519  0.1299 -0.1999
  920MOL0     C24108   6.291   9.472   2.408 -0.5466  0.9216  0.6898
  920MOL0    Cl24109   6.387   9.496   2.550  0.4058  0.0081 -0.1728
  920MOL0     C24110   5.220   9.552   2.033 -0.0958 -0.2138 -0.1488
  920MOL0     C24111   5.106   9.604   1.970 -0.2661  0.1684 -0.7421
  920MOL0     O24112   4.836   9.715   2.031 -0.3957  0.0267 -0.4206
  920MOL0     C24113   4.638   9.789   1.855  0.4043  0.0251  0.4044
  920MOL0     C24114   4.528   9.856   1.798  0.7194  0.3894  0.5658
  920MOL0     N24115   3.848  10.225   1.700 -0.0405  0.8214 -0.9706
  920MOL0     N24116   3.734  10.172   1.661 -0.4759  0.0812 -0.4860
  920MOL0     C24117   2.787   9.922   0.967  0.4382  0.6869 -0.4674
  920MOL0     C24118   2.688   9.825   0.949  1.4558 -0.3248 -0.2466
  920MOL0     C24119   2.249   9.737   0.818  0.6084 -0.4536 -0.0386
  920MOL0     C24120   2.182   9.744   0.936 -0.1386 -0.2110 -0.0177
  920MOL0     C24121   2.043   9.712   0.939  0.2336 -0.4685 -0.6397
  920MOL0     C24122   1.977   9.665   0.825  0.5340 -0.6283  0.7790
  920MOL0     O24123   1.842   9.643   0.844  0.3528  0.0281 -0.1102
  920MOL0     C24124   1.781   9.546   0.762 -0.1398 -0.0189  0.5226
  920MOL0     C24125   1.635   9.510   0.809 -0.6058  0.2255  0.4638
  920MOL0     C24126   1.541   9.626   0.824  0.5937  0.2509  0.6318
  920MOL0     C24127   1.519   9.691   0.682  0.5769  0.0254  0.6174
  920MOL0     C24128   1.406   9.790   0.697 -0.5577  0.5438  0.3152
  920MOL0     C24129   1.305   9.862   0.691  0.6457  0.5779 -0.1421
  920MOL0     C24130   2.044   9.666   0.706 -0.1165  0.1577 -0.3550
  920MOL0     C24131   2.184   9.693   0.700  0.8945 -0.6166 -0.1978
  920MOL0     C24132   2.252   9.671   0.569  0.6303 -0.6334 -0.4103
  920MOL0     H24133   2.413  10.031   1.009 -0.1163 -1.8998  0.1180
  920MOL0     H24134   2.602  10.190   1.057  0.0498  0.5926 -0.2736
  920MOL0     H24135   3.022  10.034   1.049 -2.2720  0.3399  1.3223
  920MOL0     H24136   3.026  10.141   0.919  1.4257 -1.2929 -0.6086
  920MOL0     H24137   3.005  10.340   1.121 -0.2043  0.4323  1.1815
  920MOL0     H24138   3.157  10.278   1.063  0.3630  0.5957  1.2450
  920MOL0     H24139   3.095  10.070   1.245  1.3992 -0.5526  1.5613
  920MOL0     H24140   2.992  10.192   1.303 -2.5700 -2.7045 -2.1113
  920MOL0     H24141   3.201  10.340   1.322 -0.4190 -0.0206 -0.0912
  920MOL0     H24142   3.212  10.174   1.410  0.8502 -0.3848 -1.1025
  920MOL0     H24143   3.300  10.150   1.144  0.2877 -1.9394  0.5362
  920MOL0     H24144   3.386  10.292   1.209 -0.3604 -1.0442 -2.2821
  920MOL0     H24145   3.391  10.027   1.351 -0.2692 -1.5279 -1.0726
  920MOL0     H24146   3.498  10.065   1.220 -3.1476 -1.6472  0.1361
  920MOL0     H24147   3.469  10.218   1.477 -0.9839 -2.4744  0.7765
  920MOL0     H24148   3.586  10.266   1.346  2.8120 -1.4199  1.2641
  920MOL0     H24149   3.596   9.996   1.502  1.1340  1.7843  3.5054
  920MOL0     H24150   3.696  10.035   1.365  1.0931  0.5569  0.3674
  920MOL0     H24151   3.921  10.175   1.387  2.7298  1.3556  0.8887
  920MOL0     H24152   4.103  10.299   1.467 -3.9148  1.2417 -1.2021
  920MOL0     H24153   4.080  10.406   1.595  0.3404  0.1392 -0.6808
  920MOL0     H24154   4.257  10.269   1.692 -0.3542  1.0774 -2.0978
  920MOL0     H24155   4.122  10.185   1.758 -1.4293  3.7537 -0.0089
  920MOL0     H24156   4.266  10.123   1.496  0.3544  2.3984  1.5700
  920MOL0     H24157   4.135  10.017   1.560  0.8991 -0.7977 -3.6029
  920MOL0     H24158   4.301   9.898   1.660  0.3395  0.2223 -0.6829
  920MOL0     H24159   4.280  10.024   1.788 -2.3919 -0.5618 -0.9630
  920MOL0     H24160   4.686  10.114   1.667  0.4148 -1.1784  0.0923
  920MOL0     H24161   4.879  10.007   1.778  1.2001 -0.8684 -1.1662
  920MOL0     H24162   5.194   9.934   1.997  0.4587 -0.1077 -1.0474
  920MOL0     H24163   5.411   9.821   2.088  0.3337  0.5976 -1.3175
  920MOL0     H24164   5.602   9.688   2.080 -0.1786  0.0236 -0.6821
  920MOL0     H24165   5.553   9.671   2.248  0.6664  0.4362  0.5415
  920MOL0     H24166   5.617   9.444   2.249 -1.5940 -1.1604 -2.4329
  920MOL0     H24167   5.688   9.467   2.087 -2.8515 -0.5554 -0.0514
  920MOL0     H24168   5.776   9.640   2.329  2.8678  0.9585 -1.0071
  920MOL0     H24169   5.848   9.491   2.316 -2.3903 -2.7073 -0.1623
  920MOL0     H24170   5.854   9.727   2.114 -2.1646  0.8257  1.8948
  920MOL0     H24171   5.937   9.568   2.073  1.3469  1.3578 -0.1885
  920MOL0     H24172   5.984   9.712   2.332  1.4010  2.3171 -0.0825
  920MOL0     H24173   6.083   9.759   2.196  1.8517 -1.9305 -0.1368
  920MOL0     H24174   6.058   9.490   2.325 -1.1337 -1.3445 -2.1737
  920MOL0     H24175   6.156   9.521   2.178  1.0127  3.0443 -1.9348
  920MOL0     H24176   6.191   9.655   2.452 -1.3034  0.4069 -1.6315
  920MOL0     H24177   6.292   9.671   2.305 -2.2839  2.0267 -2.1185
  920MOL0     H24178   6.209   9.405   2.438 -0.6046 -0.9545 -2.9928
  920MOL0     H24179   6.340   9.435   2.317 -3.6254  0.5520 -0.9763
  920MOL0     H24180   5.233   9.446   2.052 -0.8582 -0.6651 -1.9087
  920MOL0     H24181   5.021   9.548   1.933  0.3141  0.1949 -2.1491
  920MOL0     H24182   4.628   9.689   1.894 -0.6120 -1.1916 -2.6620
  920MOL0     H24183   4.430   9.811   1.812  1.5555 -1.4227  0.9777
  920MOL0     H24184   2.887   9.880   0.961 -0.7790 -2.3051 -2.5258
  920MOL0     H24185   2.710   9.721   0.929  0.0192 -1.1485  2.1523
  920MOL0     H24186   2.233   9.778   1.025 -0.3295 -1.6196  0.6559
  920MOL0     H24187   1.986   9.723   1.031 -0.2094 -1.4159 -0.7893
  920MOL0     H24188   1.840   9.454   0.767 -0.7565 -0.5185 -0.8026
  920MOL0     H24189   1.788   9.577   0.657  2.0881 -1.8354  0.0475
  920MOL0     H24190   1.638   9.465   0.909 -1.4612  0.7924  0.7580
  920MOL0     H24191   1.593   9.447   0.730  1.4150 -0.5656 -0.0468
  920MOL0     H24192   1.589   9.705   0.883 -0.5618  2.7051 -1.5271
  920MOL0     H24193   1.447   9.594   0.870  2.1569 -2.7210  2.0580
  920MOL0     H24194   1.606   9.742   0.641  1.0273 -2.4661 -1.7902
  920MOL0     H24195   1.484   9.612   0.615 -1.9506  2.4238 -1.1003
  920MOL0     H24196   1.224   9.930   0.707  1.7329  1.4695  2.1127
  920MOL0     H24197   2.000   9.622   0.618  2.5889  0.2590 -1.8870
  920MOL0     H24198   2.265   9.770   0.525 -1.2764  1.8031  3.9175
  920MOL0     H24199   2.345   9.617   0.586  0.9266 -0.1596 -0.5184
  920MOL0     H24200   2.187   9.616   0.499  1.7439 -2.0671 -0.3601
  921MOL0     O24201  10.894  10.868   7.879 -0.9324 -0.0970  0.6569
  921MOL0     C24202  10.950  10.972   7.909 -0.4044 -0.6231 -0.4199
  921MOL0     O24203  11.085  10.984   7.927  0.4344 -0.3031 -0.1714
  921MOL0     C24204  11.166  10.877   7.888 -0.1585  0.1265 -0.1031
  921MOL0     C24205  11.141  10.740   7.918  0.0470 -0.1050 -0.9432
  921MOL0     C24206  11.212  10.639   7.859  0.3913 -0.7813 -0.0640
  921MOL0     C24207  11.318  10.673   7.771 -0.7107  0.1513 -0.9007
  921MOL0     O24208  11.393  10.565   7.723 -0.6533 -0.3631  0.5205
  921MOL0     C24209  11.494  10.579   7.618 -0.0465  0.0849 -0.6562
  921MOL0     C24210  11.630  10.606   7.684 -0.4847  0.2047 -0.4571
  921MOL0     C24211  11.739  10.640   7.576  0.1543  0.3040 -0.0064
  921MOL0     C24212  11.776  10.515   7.498  0.1089  0.2041  0.4110
  921MOL0     C24213  11.876  10.542   7.377 -0.5614 -0.5812  0.3772
  921MOL0     C24214  12.025  10.570   7.418 -0.0179  0.4611 -0.6962
  921MOL0     C24215  12.111  10.584   7.295  0.0615  0.3982  0.1826
  921MOL0     C24216  12.259  10.551   7.324  0.0692 -0.0297  0.2931
  921MOL0     N24217  12.340  10.557   7.202 -0.2807  0.2201 -0.6766
  921MOL0     C24218  12.401  10.446   7.144 -0.7016 -0.4497 -0.0183
  921MOL0     C24219  12.453  10.500   7.031  0.3129 -0.2191 -0.4215
  921MOL0     C24220  12.529  10.416   6.923 -0.1397 -0.7036  0.2436
  921MOL0     C24221  12.679  10.405   6.943 -0.2368 -0.4164  0.3001
  921MOL0     C24222  12.734  10.533   6.882  0.6796 -0.1193  0.0361
  921MOL0     C24223  12.883  10.529   6.898  0.4112  0.1795 -0.4655
  921MOL0     O24224  12.946  10.436   6.809  0.3275  0.3606 -0.8997
  921MOL0     C24225  13.087  10.450   6.807 -0.1782  0.4880  0.6606
  921MOL0     C24226  13.163  10.547   6.865 -0.1759  0.2760 -0.4381
  921MOL0     C24227  13.303  10.550   6.838  0.1588 -0.0985 -0.2037
  921MOL0     C24228  13.366  10.451   6.766 -0.2873 -0.0373  0.1296
  921MOL0     C24229  13.519  10.449   6.753  0.3537 -0.5774  0.3651
  921MOL0     O24230  13.563  10.396   6.636 -0.2505 -0.1546  0.1018
  921MOL0     C24231  13.691  10.351   6.611  0.1427  0.5091 -0.6724
  921MOL0     C24232  13.698  10.248   6.515 -0.1102  0.1719  0.0312
  921MOL0     C24233  13.822  10.187   6.483  0.3347 -0.9571 -0.1204
  921MOL0     C24234  13.940  10.239   6.539  0.1496 -0.2124  0.5490
  921MOL0     O24235  14.052  10.165   6.497  0.2598 -0.1375  0.0041
  921MOL0     C24236  14.151  10.262   6.463 -0.0339  0.3536 -0.6994
  921MOL0     C24237  14.241  10.210   6.352  0.0733 -0.8845 -1.1379
  921MOL0     C24238  14.168  10.142   6.243  0.3884 -0.6572 -0.2559
  921MOL0     C24239  14.053  10.219   6.173 -0.0589  1.1478 -0.4595
  921MOL0     C24240  13.979  10.121   6.079  0.2938  0.2505 -0.0142
  921MOL0     C24241  13.847  10.177   6.019  0.3806 -0.5656 -0.0315
  921MOL0     C24242  13.791  10.085   5.904 -0.2174 -0.7576  0.9088
  921MOL0     C24243  13.758   9.939   5.939  0.2744 -0.2828  0.1820
  921MOL0    Cl24244  13.639   9.919   6.077  0.1594 -0.2853  0.1033
  921MOL0     C24245  13.931  10.349   6.630 -0.8415  0.3407 -0.6919
  921MOL0     C24246  13.812  10.400   6.669 -0.1824  0.3544  0.1263
  921MOL0     O24247  13.595  10.487   6.840  0.6767 -0.5629 -0.5151
  921MOL0     C24248  13.280  10.358   6.706  0.7178 -0.1784 -0.1983
  921MOL0     C24249  13.143  10.356   6.725 -0.1617 -0.2028 -0.0380
  921MOL0     N24250  12.427  10.635   7.032 -1.1350  0.2562 -0.9353
  921MOL0     N24251  12.360  10.672   7.130  1.2408 -0.1898 -0.0182
  921MOL0     C24252  11.356  10.805   7.749 -0.3652 -0.1432 -0.7282
  921MOL0     C24253  11.279  10.903   7.812 -0.3495 -0.8403 -0.0474
  921MOL0     C24254  10.863  11.089   7.954  0.2208 -0.2165  0.2940
  921MOL0     C24255  10.935  11.212   7.949  0.6407  0.1538 -0.4101
  921MOL0     C24256  10.867  11.340   7.991 -0.1835 -0.1437 -0.1222
  921MOL0     C24257  10.735  11.345   8.026 -0.0106 -0.2153 -0.4117
  921MOL0     O24258  10.683  11.472   8.061 -0.1509  0.6005 -0.5207
  921MOL0     C24259  10.551  11.485   8.095  0.0636  0.0341 -0.3813
  921MOL0     C24260  10.537  11.463   8.247  0.5324  0.2456  0.3977
  921MOL0     C24261  10.609  11.563   8.334  0.1437  0.4801 -0.1824
  921MOL0     C24262  10.600  11.527   8.479 -0.1169 -0.0898 -0.0163
  921MOL0     C24263  10.467  11.532   8.536 -0.3981 -0.1016 -0.5816
  921MOL0     C24264  10.363  11.553   8.596  0.0827 -0.0473 -0.4114
  921MOL0     C24265  10.672  11.223   8.041 -0.4957 -0.6747  1.1527
  921MOL0     C24266  10.729  11.100   7.995  0.2444  1.1240 -0.0252
  921MOL0     C24267  10.637  10.980   7.980  0.0697  0.8929  0.2493
  921MOL0     H24268  11.059  10.722   7.986 -0.7557  0.6178 -1.6997
  921MOL0     H24269  11.181  10.539   7.888  1.4876 -0.6115  1.9096
  921MOL0     H24270  11.500  10.491   7.554  1.2586  1.0828 -1.9800
  921MOL0     H24271  11.474  10.662   7.549  0.1020  0.4559 -0.2615
  921MOL0     H24272  11.661  10.513   7.731 -1.2959 -0.2110 -0.7289
  921MOL0     H24273  11.641  10.684   7.760  1.1997  1.6194 -2.0134
  921MOL0     H24274  11.827  10.685   7.622  2.0867  0.5045 -3.6011
  921MOL0     H24275  11.697  10.716   7.509 -2.9320  2.3377  3.7952
  921MOL0     H24276  11.817  10.438   7.564 -1.6975 -0.3668  0.9374
  921MOL0     H24277  11.682  10.483   7.453  0.6323  0.7356 -1.1021
  921MOL0     H24278  11.862  10.460   7.307 -4.1909 -0.6885  1.0144
  921MOL0     H24279  11.849  10.633   7.322 -1.1111 -0.4117  0.9127
  921MOL0     H24280  12.034  10.660   7.479 -1.0661  1.1648 -1.5268
  921MOL0     H24281  12.070  10.489   7.477  0.4305  1.2044 -0.0086
  921MOL0     H24282  12.098  10.689   7.269 -0.7418  0.3016  0.1827
  921MOL0     H24283  12.079  10.511   7.220  0.9618  0.1084  0.0657
  921MOL0     H24284  12.290  10.614   7.408  0.4476 -1.6282  1.4001
  921MOL0     H24285  12.261  10.445   7.353 -0.5237 -1.1034 -3.0528
  921MOL0     H24286  12.409  10.340   7.167  1.6497 -0.1323  0.9408
  921MOL0     H24287  12.491  10.314   6.926 -1.0565 -0.3557  0.9879
  921MOL0     H24288  12.505  10.449   6.821 -2.3120 -1.0563  0.6084
  921MOL0     H24289  12.700  10.397   7.050  0.9314 -0.5815  0.0704
  921MOL0     H24290  12.719  10.317   6.892  0.0866  0.5830 -1.2257
  921MOL0     H24291  12.686  10.617   6.934  1.7754  1.1082 -0.8745
  921MOL0     H24292  12.711  10.535   6.775  1.4116 -1.6177 -0.1699
  921MOL0     H24293  12.913  10.515   7.003 -3.5323 -1.9947  0.6030
  921MOL0     H24294  12.918  10.626   6.863 -0.4662  0.3193 -0.9584
  921MOL0     H24295  13.122  10.628   6.926  0.0101  0.5008 -0.6084
  921MOL0     H24296  13.365  10.622   6.891 -0.3767 -0.6207  1.1601
  921MOL0     H24297  13.607  10.214   6.466 -0.5951 -1.5308  1.9171
  921MOL0     H24298  13.826  10.104   6.414  0.4641 -2.8053  1.9939
  921MOL0     H24299  14.111  10.357   6.429  2.4093  1.8619  0.3362
  921MOL0     H24300  14.225  10.268   6.543  0.5693 -3.1659 -0.8438
  921MOL0     H24301  14.307  10.287   6.310  0.3417  0.7896  2.0692
  921MOL0     H24302  14.307  10.133   6.393  0.2138  0.1338  0.6879
  921MOL0     H24303  14.236  10.114   6.162  0.2635 -0.8821 -0.2829
  921MOL0     H24304  14.126  10.051   6.287  0.9024 -0.5632  0.4557
  921MOL0     H24305  14.090  10.310   6.124 -0.7586  1.4442 -0.4494
  921MOL0     H24306  13.978  10.248   6.247  1.3808 -0.7493  1.8803
  921MOL0     H24307  13.971  10.025   6.130  0.1743  1.6604  2.8599
  921MOL0     H24308  14.042  10.105   5.992  0.5102  2.0952 -0.2557
  921MOL0     H24309  13.777  10.186   6.102  0.6431 -1.2984  0.2749
  921MOL0     H24310  13.864  10.279   5.983 -2.9968 -0.8890 -3.1808
  921MOL0     H24311  13.860  10.114   5.824 -2.5973  1.6116 -0.4743
  921MOL0     H24312  13.696  10.132   5.878 -0.1445 -1.0022  0.1825
  921MOL0     H24313  13.724   9.880   5.854 -0.1076  0.2738 -0.0539
  921MOL0     H24314  13.855   9.891   5.960 -0.3548 -0.9866  1.7109
  921MOL0     H24315  14.021  10.390   6.674 -0.2494 -2.3049  0.7414
  921MOL0     H24316  13.807  10.484   6.738 -1.0621 -0.0716  0.6035
  921MOL0     H24317  13.335  10.276   6.662  0.9768  0.6111 -1.4173
  921MOL0     H24318  13.080  10.284   6.674 -2.0168  1.2816  0.0521
  921MOL0     H24319  11.443  10.836   7.691  0.6779 -1.7744 -0.0860
  921MOL0     H24320  11.306  11.008   7.812 -1.4356 -0.5389  0.6706
  921MOL0     H24321  11.043  11.215   7.939  0.8071 -2.5030  0.0068
  921MOL0     H24322  10.922  11.433   8.002 -1.3077  0.5306  0.0354
  921MOL0     H24323  10.487  11.411   8.046  1.3568  0.0347 -2.2049
  921MOL0     H24324  10.508  11.584   8.074 -1.2030 -0.0528  1.5662
  921MOL0     H24325  10.567  11.360   8.267 -4.7443 -2.0456 -1.6009
  921MOL0     H24326  10.432  11.454   8.275  0.6096 -2.4812  0.0450
  921MOL0     H24327  10.563  11.662   8.321 -1.7613 -0.1772  1.0062
  921MOL0     H24328  10.717  11.559   8.317  0.8174  1.7193  3.0580
  921MOL0     H24329  10.657  11.434   8.494  0.9752  0.7412  1.2062
  921MOL0     H24330  10.662  11.600   8.532 -1.9105  1.1114  0.5168
  921MOL0     H24331  10.275  11.553   8.657  0.2540  2.1272 -0.0979
  921MOL0     H24332  10.572  11.222   8.084 -0.8298  2.7273  0.7451
  921MOL0     H24333  10.637  10.921   8.072 -1.5434  1.8775  0.9283
  921MOL0     H24334  10.532  11.012   7.970 -0.3780 -0.3661  0.7280
  921MOL0     H24335  10.653  10.913   7.894 -2.3855 -1.1042  1.2023
  922MOL0     O24336   1.984   2.304   6.896  0.3019  0.2635 -0.2582
  922MOL0     C24337   2.000   2.424   6.894  0.3363  0.0327  0.5906
  922MOL0     O24338   1.896   2.512   6.875  0.1609  0.5350  0.2922
  922MOL0     C24339   1.774   2.448   6.872  0.5752 -1.1860  0.2814
  922MOL0     C24340   1.716   2.427   6.745  0.0854 -0.1011 -0.5943
  922MOL0     C24341   1.586   2.378   6.737 -0.2252  0.2402  0.5329
  922MOL0     C24342   1.510   2.348   6.852 -1.3705 -0.3769 -0.1523
  922MOL0     O24343   1.382   2.297   6.847 -0.1203 -0.3045  0.3041
  922MOL0     C24344   1.357   2.170   6.918 -0.5973  0.4151  0.4018
  922MOL0     C24345   1.251   2.202   7.029  0.7907  0.5407 -0.6590
  922MOL0     C24346   1.105   2.215   6.980  0.0646  0.2381 -0.3354
  922MOL0     C24347   1.042   2.075   6.948  0.0045  0.1410  0.4606
  922MOL0     C24348   0.916   2.080   6.868 -0.6085 -0.1449  0.1829
  922MOL0     C24349   0.856   1.943   6.855  0.1018  0.3214  0.1946
  922MOL0     C24350   0.735   1.934   6.772  0.5176  0.4406 -0.1334
  922MOL0     C24351   0.750   1.877   6.633 -0.0974  0.1131 -0.1330
  922MOL0     N24352   0.626   1.818   6.591 -0.2321 -0.5863  0.2376
  922MOL0     C24353   0.502   1.874   6.610 -0.1656 -0.3365 -0.5314
  922MOL0     C24354   0.411   1.778   6.592 -0.4856 -0.6945  0.0506
  922MOL0     C24355   0.269   1.770   6.623 -0.3459 -0.1854  0.0535
  922MOL0     C24356   0.191   1.809   6.504  0.3189  0.4643  0.3097
  922MOL0     C24357   0.048   1.831   6.527  0.9211  0.0131 -0.3376
  922MOL0     C24358  -0.039   1.734   6.608  0.6249  0.3619  0.2164
  922MOL0     O24359  -0.011   1.748   6.746 -0.6709  0.1317  0.4630
  922MOL0     C24360  -0.094   1.680   6.827  0.2696  0.3395 -0.5556
  922MOL0     C24361  -0.211   1.598   6.796 -0.0089 -0.6452 -0.6553
  922MOL0     C24362  -0.282   1.546   6.905 -0.1671 -0.0187  0.9145
  922MOL0     C24363  -0.256   1.568   7.038  0.0561  0.0050 -0.3726
  922MOL0     C24364  -0.351   1.524   7.152 -0.0269 -0.6610  0.9081
  922MOL0     O24365  -0.484   1.501   7.129  0.0420 -0.9726 -0.4489
  922MOL0     C24366  -0.581   1.478   7.227 -0.0716 -0.3612 -0.8166
  922MOL0     C24367  -0.592   1.554   7.349  0.3052  0.2308  0.6050
  922MOL0     C24368  -0.702   1.525   7.439  0.2911  0.4101 -0.7619
  922MOL0     C24369  -0.789   1.423   7.413  0.0129  0.8779  0.3121
  922MOL0     O24370  -0.899   1.391   7.484  0.0898 -0.1832 -0.5157
  922MOL0     C24371  -0.906   1.445   7.623 -1.2893  0.6914 -0.2466
  922MOL0     C24372  -1.014   1.380   7.713  1.2010 -0.8949 -0.2750
  922MOL0     C24373  -1.030   1.450   7.844  0.0812 -0.1768  0.2305
  922MOL0     C24374  -1.076   1.357   7.948 -0.4119 -0.3008 -0.3313
  922MOL0     C24375  -1.089   1.441   8.078  0.2894 -0.1324  0.4510
  922MOL0     C24376  -1.111   1.349   8.201  0.4819  1.1428  0.9681
  922MOL0     C24377  -0.988   1.256   8.247 -0.2679 -0.6445  0.0680
  922MOL0     C24378  -1.026   1.185   8.385 -0.2620  0.2745 -0.2714
  922MOL0    Cl24379  -1.024   1.306   8.520 -0.1620 -0.1026  0.0873
  922MOL0     C24380  -0.785   1.361   7.289  0.0670  0.2146  0.2060
  922MOL0     C24381  -0.684   1.383   7.195  0.1212  0.0256  0.3610
  922MOL0     O24382  -0.294   1.499   7.259  0.1032  0.0402  0.8425
  922MOL0     C24383  -0.135   1.633   7.063 -0.1034 -0.2547  0.3946
  922MOL0     C24384  -0.059   1.691   6.959  0.1774 -0.1469 -0.0521
  922MOL0     N24385   0.489   1.661   6.572  0.6892 -0.3282 -0.1079
  922MOL0     N24386   0.616   1.689   6.562 -0.5930 -0.1456  0.1445
  922MOL0     C24387   1.558   2.376   6.979  0.5653 -0.2117 -0.0149
  922MOL0     C24388   1.693   2.425   6.991 -0.0147  0.3535  0.6240
  922MOL0     C24389   2.133   2.462   6.928 -0.3982  0.1051  1.0474
  922MOL0     C24390   2.242   2.371   6.918  0.1956 -0.9192  0.3420
  922MOL0     C24391   2.373   2.414   6.944 -0.1724 -0.3515 -0.4795
  922MOL0     C24392   2.409   2.550   6.984  0.2979  0.0877 -0.4430
  922MOL0     O24393   2.544   2.575   7.018  0.0465  0.1690 -0.0132
  922MOL0     C24394   2.577   2.719   7.010 -0.0160 -0.9480 -0.3533
  922MOL0     C24395   2.722   2.742   7.033 -0.4244  0.1769 -0.2198
  922MOL0     C24396   2.795   2.678   7.145  0.4397 -0.7510 -0.6152
  922MOL0     C24397   2.935   2.746   7.162 -0.0585  0.2704  0.1743
  922MOL0     C24398   3.015   2.664   7.257  0.3867  0.5299 -0.6879
  922MOL0     C24399   3.083   2.597   7.333 -0.2676  0.0988 -0.0855
  922MOL0     C24400   2.305   2.643   6.982  0.2605 -0.3263 -0.1004
  922MOL0     C24401   2.173   2.595   6.963  0.1044 -0.0113 -0.0776
  922MOL0     C24402   2.066   2.688   7.009 -0.4006 -0.3288 -0.4118
  922MOL0     H24403   1.773   2.449   6.656  2.0728  0.5749  0.7740
  922MOL0     H24404   1.544   2.348   6.641  0.8128 -0.5797  0.3141
  922MOL0     H24405   1.314   2.096   6.850  0.6889 -1.6853  1.7435
  922MOL0     H24406   1.454   2.132   6.952 -1.3882 -1.7788  0.3396
  922MOL0     H24407   1.294   2.287   7.083  2.0444 -0.6526  0.3044
  922MOL0     H24408   1.246   2.119   7.100 -5.1318  0.7844 -0.3272
  922MOL0     H24409   1.102   2.272   6.886 -0.0004  1.2429  0.2518
  922MOL0     H24410   1.051   2.269   7.059  0.0744  0.4218 -0.4528
  922MOL0     H24411   1.115   2.029   6.880 -0.6570 -0.3084  0.0444
  922MOL0     H24412   1.040   2.022   7.043  0.6012  2.0212  1.5831
  922MOL0     H24413   0.845   2.144   6.923  1.2494  1.7475  0.4946
  922MOL0     H24414   0.926   2.120   6.767  0.0632  0.8558  0.6247
  922MOL0     H24415   0.929   1.869   6.819  0.6008  1.0804 -0.3956
  922MOL0     H24416   0.834   1.913   6.957  2.5168  2.5217  1.4687
  922MOL0     H24417   0.679   2.027   6.763 -0.0685 -0.0489 -1.9270
  922MOL0     H24418   0.670   1.866   6.829 -1.4386  1.3881 -1.1336
  922MOL0     H24419   0.776   1.958   6.565 -1.1755 -1.1383 -2.1659
  922MOL0     H24420   0.829   1.802   6.629 -1.2625 -1.0965 -1.9122
  922MOL0     H24421   0.479   1.970   6.656 -2.3423 -1.4916  0.9605
  922MOL0     H24422   0.240   1.665   6.633 -0.8571 -0.2690 -1.8703
  922MOL0     H24423   0.242   1.827   6.712 -0.1397  0.8447 -0.5243
  922MOL0     H24424   0.235   1.900   6.462 -1.4021  0.5534 -1.4213
  922MOL0     H24425   0.209   1.736   6.424 -2.9576  0.7672 -0.8552
  922MOL0     H24426  -0.006   1.845   6.433 -0.9967 -2.0616  0.3669
  922MOL0     H24427   0.040   1.931   6.572 -4.8076 -0.3555  0.1685
  922MOL0     H24428  -0.029   1.635   6.561 -0.6893  0.7499 -0.9299
  922MOL0     H24429  -0.143   1.765   6.597  0.5757  0.3539  0.6610
  922MOL0     H24430  -0.251   1.598   6.695 -2.2456 -0.7449  0.1941
  922MOL0     H24431  -0.374   1.492   6.883 -0.2570  0.2831  0.5506
  922MOL0     H24432  -0.526   1.634   7.381 -1.3450  0.3494  4.2160
  922MOL0     H24433  -0.700   1.594   7.523  1.5423 -0.7903  0.2365
  922MOL0     H24434  -0.813   1.410   7.670 -0.4967  0.6179 -1.7965
  922MOL0     H24435  -0.901   1.554   7.620  2.5535  0.6590 -3.9332
  922MOL0     H24436  -1.111   1.386   7.662  1.2698 -0.0678 -0.3267
  922MOL0     H24437  -0.984   1.276   7.725  3.4075 -0.0067  3.3632
  922MOL0     H24438  -0.929   1.482   7.868  1.1925 -0.1404 -3.7421
  922MOL0     H24439  -1.092   1.538   7.820 -0.8764 -0.7458  0.5889
  922MOL0     H24440  -1.000   1.280   7.966 -1.0252 -0.6986  0.6098
  922MOL0     H24441  -1.168   1.306   7.920  0.5407 -1.6146 -1.1708
  922MOL0     H24442  -1.176   1.506   8.068 -0.2863 -1.1051 -1.4762
  922MOL0     H24443  -0.994   1.496   8.081 -0.1834  0.6842  0.7542
  922MOL0     H24444  -1.129   1.414   8.287 -3.7521 -0.6615  1.6874
  922MOL0     H24445  -1.204   1.292   8.195  0.7658  0.5214  2.2860
  922MOL0     H24446  -0.903   1.324   8.261 -1.1392  0.6399 -0.6878
  922MOL0     H24447  -0.984   1.182   8.166 -0.2770  0.0328 -0.5567
  922MOL0     H24448  -1.131   1.158   8.372 -0.5440  1.5726 -0.8584
  922MOL0     H24449  -0.977   1.089   8.407 -1.0537  0.0364  0.5105
  922MOL0     H24450  -0.859   1.282   7.278 -1.1381  1.6677 -4.0788
  922MOL0     H24451  -0.685   1.325   7.103 -0.1737 -1.1773  1.0873
  922MOL0     H24452  -0.099   1.651   7.164  0.9573 -3.5901  0.7192
  922MOL0     H24453   0.033   1.741   6.985  0.3506 -1.6925  2.7831
  922MOL0     H24454   1.504   2.369   7.072  2.0175  0.4952  0.9216
  922MOL0     H24455   1.724   2.445   7.093  0.9168 -3.5220  1.2715
  922MOL0     H24456   2.229   2.266   6.893 -1.4500 -1.3375  2.6909
  922MOL0     H24457   2.454   2.344   6.927  0.3600  0.5983 -2.0746
  922MOL0     H24458   2.522   2.770   7.089 -0.0357  2.2366 -2.2416
  922MOL0     H24459   2.537   2.763   6.918 -1.4170 -1.4378 -0.0057
  922MOL0     H24460   2.736   2.851   7.040  0.2290  0.8783 -6.6537
  922MOL0     H24461   2.776   2.727   6.939 -1.3881 -1.0059 -0.6109
  922MOL0     H24462   2.811   2.572   7.121  2.1093 -0.1820 -2.2050
  922MOL0     H24463   2.730   2.688   7.233  0.2941 -0.8128 -0.7129
  922MOL0     H24464   2.989   2.755   7.068 -0.2366  4.5369  0.3009
  922MOL0     H24465   2.923   2.846   7.204 -3.0079 -0.2147  0.6961
  922MOL0     H24466   3.142   2.527   7.390 -1.2348 -0.0810  0.7197
  922MOL0     H24467   2.319   2.749   6.996  0.4821 -0.6551  2.7953
  922MOL0     H24468   1.991   2.635   7.068 -0.8034  0.7560  0.0747
  922MOL0     H24469   2.108   2.776   7.060  1.5196 -1.6149  0.3708
  922MOL0     H24470   2.010   2.728   6.924  1.9251  2.7152 -0.7005
  923MOL0     O24471   7.917   0.560   8.587 -0.4376 -0.0162  0.8832
  923MOL0     C24472   7.903   0.671   8.528 -0.2386  0.1931 -1.0373
  923MOL0     O24473   7.785   0.724   8.499  0.0455  0.1885  0.5782
  923MOL0     C24474   7.668   0.672   8.556  0.7814  0.3766  0.0624
  923MOL0     C24475   7.551   0.707   8.487 -0.0841  0.5546 -0.7717
  923MOL0     C24476   7.431   0.642   8.529  0.5706  0.1216 -1.0589
  923MOL0     C24477   7.423   0.574   8.652  0.4145  0.2600 -0.0374
  923MOL0     O24478   7.295   0.529   8.680 -0.8891 -0.6379  0.1992
  923MOL0     C24479   7.221   0.619   8.764  0.2614 -0.1944 -0.4330
  923MOL0     C24480   7.136   0.533   8.855  0.0681 -0.6694 -0.3595
  923MOL0     C24481   7.217   0.463   8.960 -0.6428  0.6109  0.3269
  923MOL0     C24482   7.130   0.351   9.024  0.0561 -0.1943 -0.4255
  923MOL0     C24483   7.189   0.304   9.153  0.2238 -0.9622  0.4125
  923MOL0     C24484   7.155   0.410   9.262 -0.6860 -0.0709  0.4022
  923MOL0     C24485   7.200   0.359   9.398  0.4030  0.1350 -0.1748
  923MOL0     C24486   7.117   0.416   9.525 -0.0028  0.3013  0.2131
  923MOL0     N24487   7.135   0.564   9.543 -0.5531  0.1136  0.3678
  923MOL0     C24488   7.243   0.609   9.616 -0.2415 -0.1187 -0.4799
  923MOL0     C24489   7.247   0.744   9.593  0.2300 -0.0119 -0.5844
  923MOL0     C24490   7.352   0.837   9.645  0.2285 -0.2319  0.3335
  923MOL0     C24491   7.478   0.836   9.549 -0.5147  0.4418 -0.0766
  923MOL0     C24492   7.588   0.742   9.583  0.1736  0.6089 -0.2893
  923MOL0     C24493   7.706   0.780   9.505  1.2288  0.3804 -0.8938
  923MOL0     O24494   7.771   0.900   9.561 -0.8260  0.1886  0.6007
  923MOL0     C24495   7.886   0.930   9.494 -1.1675  0.2878  0.3248
  923MOL0     C24496   7.954   0.844   9.400 -0.5315  0.1172 -0.8572
  923MOL0     C24497   8.078   0.879   9.342 -0.4081  0.4943 -0.2310
  923MOL0     C24498   8.138   1.008   9.378  0.0132 -0.7116  0.6353
  923MOL0     C24499   8.266   1.047   9.324 -0.1935 -0.1702 -0.2082
  923MOL0     O24500   8.309   1.169   9.361 -0.3576  0.8173  0.6441
  923MOL0     C24501   8.417   1.203   9.283  0.6660 -0.0361 -0.5488
  923MOL0     C24502   8.404   1.248   9.153 -0.2983  0.0230  0.5759
  923MOL0     C24503   8.512   1.309   9.088  0.4167 -0.1888  0.1561
  923MOL0     C24504   8.632   1.330   9.159  0.0300  0.9967  0.2597
  923MOL0     O24505   8.748   1.386   9.106 -0.1027  0.1534 -0.0154
  923MOL0     C24506   8.765   1.372   8.966  0.1783 -0.4842 -0.0253
  923MOL0     C24507   8.906   1.411   8.928 -0.2065  0.0348 -0.0560
  923MOL0     C24508   8.922   1.556   8.881  0.0522  0.3633 -0.1587
  923MOL0     C24509   9.067   1.561   8.823  0.8245  0.6592  0.0853
  923MOL0     C24510   9.103   1.691   8.751 -0.1066 -0.1660 -0.4651
  923MOL0     C24511   9.234   1.706   8.663 -0.2439  0.3307  0.5910
  923MOL0     C24512   9.352   1.645   8.737  0.2216 -1.1529 -0.0252
  923MOL0     C24513   9.488   1.700   8.690 -0.4414  0.4413  0.2990
  923MOL0    Cl24514   9.627   1.626   8.783 -0.3318 -0.5768  0.0732
  923MOL0     C24515   8.642   1.286   9.294 -0.6833  0.0865  0.1357
  923MOL0     C24516   8.540   1.215   9.353  0.0076 -0.2273  0.3766
  923MOL0     O24517   8.337   0.963   9.273  0.5980  0.4958  0.7393
  923MOL0     C24518   8.077   1.089   9.476  0.9591  0.4899 -0.2172
  923MOL0     C24519   7.955   1.049   9.530 -0.1643 -0.5409  0.0334
  923MOL0     N24520   7.130   0.773   9.524 -0.5524  0.3885 -0.2486
  923MOL0     N24521   7.069   0.665   9.480 -0.6419 -0.2583  0.3029
  923MOL0     C24522   7.540   0.544   8.723 -0.0819  0.6904  0.2673
  923MOL0     C24523   7.654   0.595   8.672 -0.3200  0.0107 -0.3201
  923MOL0     C24524   8.024   0.757   8.492  0.5865 -0.3017 -0.2580
  923MOL0     C24525   8.006   0.889   8.428 -0.2279  0.3239  0.0415
  923MOL0     C24526   8.105   0.976   8.396  0.4245  0.7830 -0.6339
  923MOL0     C24527   8.237   0.927   8.412 -0.2896  0.3283 -0.7913
  923MOL0     O24528   8.345   1.000   8.368 -0.4415 -0.2825 -0.3329
  923MOL0     C24529   8.326   1.123   8.311  0.1300 -0.3627 -0.1907
  923MOL0     C24530   8.460   1.184   8.286 -1.2258  0.0276 -0.6762
  923MOL0     C24531   8.452   1.330   8.246 -0.5060  0.2150  0.1231
  923MOL0     C24532   8.598   1.366   8.208 -0.0324 -0.1252 -0.3497
  923MOL0     C24533   8.633   1.330   8.069  0.4412  0.6008 -0.2387
  923MOL0     C24534   8.646   1.311   7.949  0.0345  0.0541 -0.4625
  923MOL0     C24535   8.257   0.796   8.466 -0.0289 -0.5115  0.1221
  923MOL0     C24536   8.155   0.716   8.509  0.9275  1.0799 -0.2751
  923MOL0     C24537   8.200   0.581   8.561  0.3452  0.0843 -0.2088
  923MOL0     H24538   7.562   0.763   8.395  1.5257  0.6215 -0.5585
  923MOL0     H24539   7.340   0.656   8.471 -0.9669 -0.0378  1.1917
  923MOL0     H24540   7.278   0.688   8.827  1.7131 -1.6010 -0.1300
  923MOL0     H24541   7.148   0.675   8.705 -1.4922 -2.8674 -0.9543
  923MOL0     H24542   7.100   0.453   8.790 -2.0040 -1.0258  1.1158
  923MOL0     H24543   7.055   0.587   8.905  1.5563 -0.1348  1.6186
  923MOL0     H24544   7.244   0.540   9.032 -0.6288  1.7802 -0.8984
  923MOL0     H24545   7.301   0.413   8.912  0.1800  1.2406  1.0927
  923MOL0     H24546   7.030   0.393   9.041 -0.3130 -0.5111 -1.7051
  923MOL0     H24547   7.121   0.261   8.962  3.9295 -0.3749 -0.9582
  923MOL0     H24548   7.142   0.208   9.178 -0.2157 -1.3817 -1.7559
  923MOL0     H24549   7.297   0.289   9.143  0.3268  0.9066 -2.2295
  923MOL0     H24550   7.194   0.512   9.260  0.9421 -0.6851 -0.3582
  923MOL0     H24551   7.046   0.421   9.260 -0.8024 -0.5843  2.2404
  923MOL0     H24552   7.304   0.390   9.415  0.8253 -1.9572  1.4832
  923MOL0     H24553   7.190   0.250   9.403 -2.0441  0.2038 -1.8720
  923MOL0     H24554   7.010   0.399   9.508  0.2571 -0.9925 -0.2657
  923MOL0     H24555   7.146   0.362   9.616  1.1800  0.5220 -0.0118
  923MOL0     H24556   7.311   0.548   9.675  1.6827  1.0752 -1.3693
  923MOL0     H24557   7.309   0.937   9.648  3.3674  1.2145  1.8050
  923MOL0     H24558   7.377   0.815   9.749 -2.7102 -0.9634  0.9622
  923MOL0     H24559   7.442   0.795   9.454  0.1432  2.4657 -1.2435
  923MOL0     H24560   7.514   0.935   9.520 -0.0342 -0.1254 -1.5121
  923MOL0     H24561   7.544   0.647   9.549 -0.6919  1.2516 -1.0415
  923MOL0     H24562   7.601   0.747   9.691 -2.8322 -1.2844  0.2785
  923MOL0     H24563   7.682   0.789   9.399 -4.1225 -0.1900  0.0083
  923MOL0     H24564   7.775   0.696   9.517 -0.6378 -1.0057  0.8675
  923MOL0     H24565   7.920   0.746   9.369  1.9272 -1.1157  0.1215
  923MOL0     H24566   8.121   0.805   9.274 -1.1625  0.1933 -0.3890
  923MOL0     H24567   8.312   1.234   9.096  0.2247  0.0284 -0.2917
  923MOL0     H24568   8.488   1.332   8.985  0.4159 -1.2833 -0.0991
  923MOL0     H24569   8.744   1.270   8.931  1.1612 -0.4915 -0.6368
  923MOL0     H24570   8.696   1.439   8.915 -1.4025  0.3816  3.0185
  923MOL0     H24571   8.976   1.380   9.006 -2.8521 -0.8868  2.1591
  923MOL0     H24572   8.947   1.351   8.847  0.1511  2.2895 -1.6404
  923MOL0     H24573   8.834   1.584   8.822 -2.4968  2.4279  4.1416
  923MOL0     H24574   8.921   1.633   8.958 -1.0130  1.1883 -0.9770
  923MOL0     H24575   9.073   1.483   8.746 -0.9346 -0.6806  1.2357
  923MOL0     H24576   9.143   1.539   8.897  0.5521  0.7827  0.4045
  923MOL0     H24577   9.105   1.762   8.834 -0.8645 -1.4344  0.6883
  923MOL0     H24578   9.017   1.706   8.686  0.4311  1.1267 -0.8951
  923MOL0     H24579   9.230   1.653   8.567  4.0190  2.2313 -0.8690
  923MOL0     H24580   9.265   1.810   8.654  0.9510 -0.0080  0.6871
  923MOL0     H24581   9.358   1.536   8.730  2.6586 -1.0539 -0.2309
  923MOL0     H24582   9.337   1.671   8.842 -1.9939  2.0433 -0.9657
  923MOL0     H24583   9.490   1.690   8.581 -2.3023  2.1572  0.0441
  923MOL0     H24584   9.489   1.808   8.710  0.5692  0.2527  1.3734
  923MOL0     H24585   8.741   1.307   9.335 -0.6369 -1.4107  0.8480
  923MOL0     H24586   8.560   1.169   9.450  0.8255 -0.7588 -0.0352
  923MOL0     H24587   8.128   1.176   9.514  0.9649  0.9419 -1.2381
  923MOL0     H24588   7.917   1.110   9.612  0.8236 -0.9781  0.8415
  923MOL0     H24589   7.537   0.482   8.812  2.1294 -3.7099 -2.3315
  923MOL0     H24590   7.741   0.569   8.732 -1.3351 -0.4508  0.9888
  923MOL0     H24591   7.905   0.922   8.405  0.1438  0.0348 -2.1939
  923MOL0     H24592   8.070   1.070   8.354 -4.2187  0.3356  1.6745
  923MOL0     H24593   8.267   1.191   8.373  0.7415 -1.4205  1.6162
  923MOL0     H24594   8.277   1.118   8.213  1.9938 -0.4654 -1.1534
  923MOL0     H24595   8.514   1.118   8.217 -0.3522 -0.9163  0.8406
  923MOL0     H24596   8.511   1.182   8.383 -2.5313 -2.0779  0.0254
  923MOL0     H24597   8.403   1.399   8.315 -2.0034  0.7968 -1.4335
  923MOL0     H24598   8.380   1.331   8.163 -3.7494 -0.9285  2.7255
  923MOL0     H24599   8.603   1.475   8.210 -1.9482 -0.0196  1.0890
  923MOL0     H24600   8.671   1.324   8.278 -0.6672  1.5302  1.3749
  923MOL0     H24601   8.639   1.303   7.842 -2.7220  0.3280 -0.3854
  923MOL0     H24602   8.361   0.765   8.474 -0.3324 -1.2810  1.5785
  923MOL0     H24603   8.307   0.587   8.581  0.4041  2.7314 -0.9861
  923MOL0     H24604   8.160   0.551   8.658 -2.0647 -0.0029 -1.1575
  923MOL0     H24605   8.195   0.502   8.485  2.7338 -2.1100  1.7215
  924MOL0     O24606   0.492  10.498  10.003  0.4268  0.2452  1.1214
  924MOL0     C24607   0.443  10.454   9.896  0.4394 -0.0481 -0.5603
  924MOL0     O24608   0.520  10.412   9.793 -0.5198  0.1471 -0.0772
  924MOL0     C24609   0.655  10.412   9.809  0.2113  0.0739  0.0038
  924MOL0     C24610   0.735  10.334   9.900  0.7350 -0.8642 -0.2188
  924MOL0     C24611   0.870  10.362   9.933 -0.8011  0.0964 -0.1532
  924MOL0     C24612   0.940  10.460   9.869  0.4645 -0.1456 -0.4113
  924MOL0     O24613   1.072  10.502   9.895  0.2097  0.6387 -0.3210
  924MOL0     C24614   1.154  10.440  10.006 -0.9679 -0.0917 -0.0741
  924MOL0     C24615   1.298  10.493   9.999  0.3811  0.9193  0.4511
  924MOL0     C24616   1.385  10.430  10.113 -0.1658 -0.0365 -0.4995
  924MOL0     C24617   1.525  10.486  10.102  0.4378 -0.1167 -0.9766
  924MOL0     C24618   1.621  10.420  10.205 -0.9966  0.1336  0.0398
  924MOL0     C24619   1.762  10.481  10.176  0.3798  0.2990 -0.6019
  924MOL0     C24620   1.846  10.403  10.281  0.1770  0.3748 -0.0336
  924MOL0     C24621   1.989  10.443  10.266  0.2006 -0.1943 -0.8086
  924MOL0     N24622   2.069  10.349  10.345  0.8711  0.2504  0.0959
  924MOL0     C24623   2.069  10.341  10.476 -0.1981  0.3862 -0.7656
  924MOL0     C24624   2.146  10.237  10.510 -0.6993  0.2325  0.5665
  924MOL0     C24625   2.175  10.190  10.656  0.1172 -0.8068  0.3193
  924MOL0     C24626   2.161  10.043  10.683  0.9055  0.0276  0.4073
  924MOL0     C24627   2.236   9.996  10.806 -0.6911 -0.2787  0.3294
  924MOL0     C24628   2.392   9.998  10.787  0.0071  0.8764 -0.2123
  924MOL0     O24629   2.426   9.903  10.884 -0.4674  0.5785  0.3092
  924MOL0     C24630   2.558   9.861  10.894 -0.0485  0.1902 -0.3302
  924MOL0     C24631   2.673   9.937  10.867 -0.1287 -0.4228 -0.1602
  924MOL0     C24632   2.802   9.879  10.882  0.4364 -0.4091 -0.3798
  924MOL0     C24633   2.815   9.737  10.913  0.0470  0.5753 -0.7263
  924MOL0     C24634   2.946   9.673  10.929 -1.2116  0.6006  0.4475
  924MOL0     O24635   3.045   9.764  10.933 -0.0694 -0.2420  0.0315
  924MOL0     C24636   3.167   9.718  10.978 -0.1640  0.5594 -0.1547
  924MOL0     C24637   3.260   9.656  10.891  0.5625  0.0117  1.1903
  924MOL0     C24638   3.384   9.617  10.938 -0.0434 -0.6891 -0.5778
  924MOL0     C24639   3.425   9.654  11.069 -0.9738  0.1595  1.4506
  924MOL0     O24640   3.538   9.603  11.127  0.0277  0.1034 -0.2530
  924MOL0     C24641   3.647   9.562  11.044  0.0416 -0.3527 -0.4690
  924MOL0     C24642   3.770   9.554  11.136 -0.0672  0.0300 -0.6661
  924MOL0     C24643   3.889   9.486  11.061 -0.2308  0.3407  0.5680
  924MOL0     C24644   3.999   9.456  11.160 -0.2532  0.1674  0.1728
  924MOL0     C24645   4.112   9.359  11.115  0.5393  0.3811 -0.1618
  924MOL0     C24646   4.223   9.348  11.226  0.4630  0.4534  0.3362
  924MOL0     C24647   4.330   9.252  11.176 -0.1498  0.2889 -0.3088
  924MOL0     C24648   4.423   9.218  11.296 -0.6262 -0.4081 -0.4476
  924MOL0    Cl24649   4.530   9.357  11.328 -0.2039 -0.0142  0.1431
  924MOL0     C24650   3.338   9.714  11.148  0.5477  0.0547  0.4240
  924MOL0     C24651   3.211   9.749  11.108  0.1692  0.6272  0.0476
  924MOL0     O24652   2.958   9.549  10.922 -0.3629  0.0563 -0.7947
  924MOL0     C24653   2.702   9.663  10.931  0.5672  1.1622  0.2279
  924MOL0     C24654   2.575   9.720  10.925 -0.9625 -0.0710  0.4074
  924MOL0     N24655   2.196  10.188  10.388  0.6220 -0.4482  0.0561
  924MOL0     N24656   2.155  10.268  10.297 -0.7259 -0.3262  0.0817
  924MOL0     C24657   0.869  10.533   9.771 -0.2823  0.4814  0.2036
  924MOL0     C24658   0.736  10.510   9.743  1.2709 -0.3498  0.3087
  924MOL0     C24659   0.300  10.472   9.873  0.0356  0.1618  0.3487
  924MOL0     C24660   0.214  10.488   9.977 -0.8345 -0.5703  0.5157
  924MOL0     C24661   0.079  10.503   9.967 -0.9765  0.6042 -0.8733
  924MOL0     C24662   0.021  10.503   9.838 -0.0082  0.1526 -0.6505
  924MOL0     O24663  -0.119  10.500   9.821 -0.5595  0.6863  0.0475
  924MOL0     C24664  -0.178  10.630   9.803  0.4246 -0.1416  0.1083
  924MOL0     C24665  -0.183  10.673   9.654 -0.9368  0.3584 -0.8912
  924MOL0     C24666  -0.220  10.554   9.559  0.3669 -0.5416 -0.3834
  924MOL0     C24667  -0.215  10.591   9.412  0.0767  0.5550 -0.3708
  924MOL0     C24668  -0.323  10.689   9.387  0.3149 -0.7172  0.1260
  924MOL0     C24669  -0.421  10.757   9.361  0.1727  0.0260  0.0561
  924MOL0     C24670   0.100  10.507   9.722 -0.1429 -0.1821  0.3393
  924MOL0     C24671   0.239  10.494   9.745  0.1948  0.8012  0.4786
  924MOL0     C24672   0.317  10.522   9.623 -0.1469  0.1706  0.5897
  924MOL0     H24673   0.697  10.248   9.953 -3.3651 -0.0314 -1.4334
  924MOL0     H24674   0.921  10.303  10.009  0.1909  2.1598  0.8718
  924MOL0     H24675   1.116  10.458  10.107 -1.6512 -2.1976  0.0873
  924MOL0     H24676   1.176  10.333   9.997  1.4742  0.2375  0.9593
  924MOL0     H24677   1.287  10.600  10.019 -0.0116  0.7871  0.9401
  924MOL0     H24678   1.327  10.466   9.897 -5.2984 -4.3012 -0.3971
  924MOL0     H24679   1.389  10.323  10.090  1.0964  0.1471 -1.2117
  924MOL0     H24680   1.343  10.440  10.214 -0.9534  1.0148 -0.9142
  924MOL0     H24681   1.556  10.460  10.000 -0.0840 -1.8367 -0.7234
  924MOL0     H24682   1.519  10.595  10.110 -0.2383 -0.2282  0.2014
  924MOL0     H24683   1.592  10.425  10.311  0.9740 -0.6324  0.6653
  924MOL0     H24684   1.635  10.315  10.180 -1.6852  0.1398 -0.3909
  924MOL0     H24685   1.801  10.455  10.077 -0.4788 -0.2704 -0.8000
  924MOL0     H24686   1.754  10.589  10.192  1.7148  0.0667  2.3419
  924MOL0     H24687   1.845  10.297  10.255  0.1501  0.2726  0.3819
  924MOL0     H24688   1.803  10.419  10.380 -2.5173  1.2851 -1.2641
  924MOL0     H24689   2.010  10.430  10.159 -0.1902 -2.2478 -0.6764
  924MOL0     H24690   2.001  10.544  10.305  1.7014 -0.8443  0.5146
  924MOL0     H24691   2.020  10.409  10.546  0.4581 -0.8503  0.9427
  924MOL0     H24692   2.279  10.222  10.672  0.0662 -0.3747 -0.1546
  924MOL0     H24693   2.112  10.247  10.725  0.0175 -1.4732  0.7789
  924MOL0     H24694   2.053  10.033  10.696  0.8807  0.8406  0.9168
  924MOL0     H24695   2.199   9.974  10.607  2.8404  1.3297  0.1327
  924MOL0     H24696   2.216   9.890  10.827  0.6850 -0.0726  3.1294
  924MOL0     H24697   2.206  10.050  10.896  1.0709  0.8170  0.3002
  924MOL0     H24698   2.435  10.094  10.815 -0.3493  1.3491 -1.2445
  924MOL0     H24699   2.430   9.962  10.691  3.6632 -0.1358  1.4351
  924MOL0     H24700   2.659  10.044  10.855  1.6691 -0.2888 -1.5163
  924MOL0     H24701   2.886   9.948  10.878  0.0702 -0.0016 -1.5643
  924MOL0     H24702   3.228   9.623  10.792 -1.6382 -1.3480  2.2759
  924MOL0     H24703   3.450   9.565  10.869  1.9015  1.3631 -0.3860
  924MOL0     H24704   3.626   9.461  11.009  2.2416 -0.2999 -2.1582
  924MOL0     H24705   3.661   9.626  10.956 -1.6844 -0.0466 -0.5527
  924MOL0     H24706   3.800   9.655  11.165 -1.3746 -0.4306  2.7007
  924MOL0     H24707   3.732   9.498  11.222 -4.2798  3.7066  0.1971
  924MOL0     H24708   3.855   9.393  11.014  0.0682  0.5302 -0.0278
  924MOL0     H24709   3.919   9.553  10.980  0.5016 -0.0366  0.5215
  924MOL0     H24710   3.952   9.411  11.248  0.8778 -2.4479 -0.4442
  924MOL0     H24711   4.047   9.546  11.199 -0.2325 -0.0667  0.6997
  924MOL0     H24712   4.153   9.402  11.023  1.3208 -2.3013 -1.1408
  924MOL0     H24713   4.056   9.266  11.108 -0.7580  1.1495 -0.3119
  924MOL0     H24714   4.268   9.446  11.242  0.5393  0.4361  0.2246
  924MOL0     H24715   4.179   9.319  11.322  0.5015 -1.5442 -0.1894
  924MOL0     H24716   4.388   9.287  11.090 -0.8894 -1.8053 -1.7553
  924MOL0     H24717   4.282   9.166  11.129  0.4448 -0.1614 -0.1112
  924MOL0     H24718   4.361   9.206  11.386  0.2149  2.7594  0.6786
  924MOL0     H24719   4.488   9.130  11.292 -0.4342 -0.4677  2.1555
  924MOL0     H24720   3.370   9.746  11.247  2.3368  1.7740 -0.6266
  924MOL0     H24721   3.147   9.807  11.174  0.8273  0.1990  1.0659
  924MOL0     H24722   2.713   9.558  10.955  1.9737  0.8778 -1.5140
  924MOL0     H24723   2.484   9.670  10.956 -0.9811  1.0025  2.1787
  924MOL0     H24724   0.921  10.614   9.722 -0.5571  0.4011 -0.2349
  924MOL0     H24725   0.680  10.563   9.667 -1.4616 -1.4110  1.4160
  924MOL0     H24726   0.255  10.487  10.078  0.5770 -2.8131  0.0017
  924MOL0     H24727   0.024  10.498  10.060  2.8761 -2.1627  1.5621
  924MOL0     H24728  -0.116  10.699   9.860  0.7672  0.5486 -1.0699
  924MOL0     H24729  -0.278  10.619   9.846  0.7411  1.0039  1.1869
  924MOL0     H24730  -0.080  10.705   9.634 -1.4256  2.9050  0.2925
  924MOL0     H24731  -0.250  10.759   9.646  2.2290  2.9425 -2.2334
  924MOL0     H24732  -0.321  10.525   9.589  1.1598 -1.6454  1.3694
  924MOL0     H24733  -0.151  10.470   9.571  0.2748 -0.4773  0.7078
  924MOL0     H24734  -0.117  10.625   9.377 -0.2028  1.9236  0.1224
  924MOL0     H24735  -0.235  10.501   9.354  0.0552 -0.8214  1.6616
  924MOL0     H24736  -0.505  10.823   9.351 -1.8841 -2.3952  0.3956
  924MOL0     H24737   0.056  10.508   9.623  0.4284 -2.7754 -0.0034
  924MOL0     H24738   0.379  10.433   9.610 -1.0057 -0.2330 -1.0824
  924MOL0     H24739   0.264  10.541   9.529  4.3759 -0.1920 -2.3545
  924MOL0     H24740   0.371  10.616   9.628 -2.1878  1.4565 -0.1437
  925MOL0     O24741   1.635   9.101   4.044  0.4622  0.3745  0.1912
  925MOL0     C24742   1.675   9.157   3.944 -0.5618  0.1615  0.7310
  925MOL0     O24743   1.614   9.155   3.821  0.1108  0.4171 -0.0570
  925MOL0     C24744   1.496   9.088   3.792 -0.1047  0.2280 -0.4157
  925MOL0     C24745   1.448   9.111   3.669  0.3696  0.1254  0.0290
  925MOL0     C24746   1.326   9.050   3.626 -0.0923  0.6674 -0.4161
  925MOL0     C24747   1.248   8.978   3.711  0.5445 -0.2930  0.7486
  925MOL0     O24748   1.131   8.933   3.664 -0.4742  0.4755  0.3232
  925MOL0     C24749   1.038   8.866   3.756 -0.3954  0.7065  0.4100
  925MOL0     C24750   0.913   8.825   3.680  0.0363 -1.6328 -0.3823
  925MOL0     C24751   0.807   8.924   3.735 -0.4734 -0.6126  0.5388
  925MOL0     C24752   0.681   8.944   3.649 -0.2415 -0.2508  0.8489
  925MOL0     C24753   0.618   9.088   3.644 -0.6242  0.0784 -0.7030
  925MOL0     C24754   0.492   9.078   3.558  0.2555  0.3369  0.2651
  925MOL0     C24755   0.417   9.200   3.535 -0.7048 -0.3726  0.4463
  925MOL0     C24756   0.364   9.272   3.660 -0.6652 -0.7256 -0.2197
  925MOL0     N24757   0.263   9.376   3.616 -0.7355  0.1174 -0.3846
  925MOL0     C24758   0.124   9.364   3.616  0.2647  0.1777  0.3103
  925MOL0     C24759   0.082   9.478   3.551 -0.0300  0.1543  0.0789
  925MOL0     C24760  -0.057   9.525   3.524 -0.0958  0.3853 -0.1540
  925MOL0     C24761  -0.148   9.557   3.647 -0.0588 -0.0979 -0.2267
  925MOL0     C24762  -0.088   9.668   3.735  0.6483 -0.3716  0.0478
  925MOL0     C24763  -0.000   9.617   3.855  0.0930 -0.3523 -0.4752
  925MOL0     O24764  -0.044   9.494   3.898 -0.2424  0.1747  0.7952
  925MOL0     C24765   0.039   9.427   3.984  0.5056  0.3873  0.3292
  925MOL0     C24766   0.144   9.485   4.052 -0.5809  0.7254  0.2501
  925MOL0     C24767   0.218   9.399   4.135  1.0565 -0.7656  0.3542
  925MOL0     C24768   0.181   9.265   4.155 -0.8141  0.1548  0.2715
  925MOL0     C24769   0.258   9.182   4.259  0.1177  0.5456 -0.0682
  925MOL0     O24770   0.373   9.243   4.312  0.8223  0.1305  0.5876
  925MOL0     C24771   0.410   9.187   4.433  0.0982 -0.7089 -0.1374
  925MOL0     C24772   0.322   9.162   4.544 -0.2112  0.1193 -0.9543
  925MOL0     C24773   0.382   9.104   4.664  0.9051  0.1305  0.6488
  925MOL0     C24774   0.519   9.069   4.679 -0.3945  0.4045  0.0831
  925MOL0     O24775   0.555   8.995   4.788 -0.6040  0.4172  0.1935
  925MOL0     C24776   0.687   8.957   4.809 -0.6130  0.2703  0.5853
  925MOL0     C24777   0.787   9.079   4.828  0.0766  0.1640 -0.7224
  925MOL0     C24778   0.929   9.032   4.832 -0.0993  0.1555  0.1157
  925MOL0     C24779   1.030   9.146   4.844  0.0348 -0.8332  0.5589
  925MOL0     C24780   1.170   9.108   4.883 -0.4767  0.2069 -0.2258
  925MOL0     C24781   1.254   9.221   4.921  0.8309 -0.0461  0.1730
  925MOL0     C24782   1.343   9.281   4.818  0.3722 -0.5682  0.7658
  925MOL0     C24783   1.437   9.380   4.881  0.6563  0.0122 -0.5842
  925MOL0    Cl24784   1.548   9.305   4.995  0.2114  0.3113  0.0620
  925MOL0     C24785   0.602   9.101   4.567 -0.3853  0.6551 -0.0193
  925MOL0     C24786   0.552   9.163   4.451  0.7481 -0.5222  0.2174
  925MOL0     O24787   0.211   9.069   4.286  0.7179  0.7506  0.2298
  925MOL0     C24788   0.071   9.212   4.091 -0.0131 -0.9151 -0.3456
  925MOL0     C24789   0.002   9.292   3.997 -0.0444 -0.0343 -0.6433
  925MOL0     N24790   0.195   9.557   3.514  0.5522  0.5441 -0.1363
  925MOL0     N24791   0.301   9.488   3.547 -0.0647 -0.2159  0.0092
  925MOL0     C24792   1.308   8.941   3.831 -0.5806 -0.1666  0.6369
  925MOL0     C24793   1.431   8.985   3.873  0.6190 -0.3242  0.2987
  925MOL0     C24794   1.799   9.247   3.945 -0.2024  0.3903 -0.4777
  925MOL0     C24795   1.834   9.315   3.831 -0.2877  0.4040  0.9309
  925MOL0     C24796   1.946   9.399   3.820 -0.1007 -0.3273  0.4262
  925MOL0     C24797   2.015   9.434   3.931 -0.5598  0.0925  0.0482
  925MOL0     O24798   2.105   9.538   3.946  0.1045 -0.2004  0.7667
  925MOL0     C24799   2.162   9.591   3.823 -0.1422  0.4553 -0.4942
  925MOL0     C24800   2.247   9.488   3.753  0.8350  0.4027 -0.6585
  925MOL0     C24801   2.307   9.540   3.624 -1.0350  0.1330  0.5018
  925MOL0     C24802   2.397   9.444   3.556 -0.5157  0.2766  0.2017
  925MOL0     C24803   2.313   9.353   3.473  0.3687 -0.8024  0.5805
  925MOL0     C24804   2.234   9.285   3.405  0.3392 -0.0296  0.4718
  925MOL0     C24805   1.975   9.372   4.051  0.7838 -0.4420 -0.5360
  925MOL0     C24806   1.881   9.269   4.068  0.3277  1.1484 -0.0839
  925MOL0     C24807   1.868   9.215   4.207  0.4178  0.1277 -0.2686
  925MOL0     H24808   1.516   9.174   3.612  2.1054 -1.8788 -0.2370
  925MOL0     H24809   1.290   9.060   3.524  2.4075  2.0532 -1.2733
  925MOL0     H24810   1.081   8.773   3.795  1.7251  0.4429 -2.2222
  925MOL0     H24811   1.030   8.940   3.836 -0.1570  0.8615  0.2921
  925MOL0     H24812   0.889   8.721   3.704 -2.2236 -1.4567 -1.5360
  925MOL0     H24813   0.928   8.824   3.571  0.5319 -0.7299 -0.3304
  925MOL0     H24814   0.848   9.024   3.754 -0.5838 -0.4802  0.0919
  925MOL0     H24815   0.784   8.876   3.831 -2.9379  1.8585  1.3130
  925MOL0     H24816   0.698   8.914   3.545 -2.5533 -0.8976  0.6080
  925MOL0     H24817   0.603   8.874   3.680 -1.9077 -0.2787 -2.8000
  925MOL0     H24818   0.591   9.125   3.743  0.3303  0.8216 -0.7081
  925MOL0     H24819   0.687   9.160   3.598  0.8778 -1.7489 -1.4354
  925MOL0     H24820   0.520   9.045   3.458  0.7328  0.0784  0.4757
  925MOL0     H24821   0.427   9.001   3.600 -0.8381  1.7984  1.3472
  925MOL0     H24822   0.336   9.177   3.465  0.8857 -0.8912 -1.3247
  925MOL0     H24823   0.480   9.271   3.479 -1.7882  0.1490 -0.1470
  925MOL0     H24824   0.313   9.197   3.722 -0.6809 -1.0312 -0.5907
  925MOL0     H24825   0.437   9.327   3.720  0.4548  0.6132 -2.6695
  925MOL0     H24826   0.058   9.284   3.648 -0.6600  0.4380 -0.8418
  925MOL0     H24827  -0.061   9.618   3.466 -1.2142  0.5145  0.0916
  925MOL0     H24828  -0.112   9.457   3.459 -2.2871  1.4264  0.4852
  925MOL0     H24829  -0.238   9.594   3.596  0.5672 -0.8172 -1.9249
  925MOL0     H24830  -0.170   9.467   3.705  2.1403  0.3765  1.4485
  925MOL0     H24831  -0.175   9.719   3.778  1.0574 -0.7073  1.2979
  925MOL0     H24832  -0.024   9.731   3.672  1.5350 -2.9213 -1.7518
  925MOL0     H24833  -0.000   9.691   3.937 -1.3452  0.8831 -1.5252
  925MOL0     H24834   0.104   9.619   3.822  0.5656  0.7484  0.9700
  925MOL0     H24835   0.164   9.591   4.043  0.8123  0.3600 -1.7959
  925MOL0     H24836   0.302   9.440   4.189  1.3324  1.9697 -1.8706
  925MOL0     H24837   0.218   9.191   4.547 -0.0903  0.5402 -0.8116
  925MOL0     H24838   0.304   9.082   4.736  0.4391 -0.5658 -0.0485
  925MOL0     H24839   0.697   8.896   4.899 -0.1978  2.2321  1.9256
  925MOL0     H24840   0.712   8.895   4.722 -0.1048  1.0536  0.1583
  925MOL0     H24841   0.781   9.154   4.748 -0.5486 -0.4166 -1.2324
  925MOL0     H24842   0.773   9.131   4.923  1.5271  0.3884 -0.6182
  925MOL0     H24843   0.943   8.970   4.921 -0.1418  3.0048  2.2436
  925MOL0     H24844   0.940   8.970   4.742  2.0955  3.6330 -2.2339
  925MOL0     H24845   0.996   9.223   4.913  1.0389 -0.8817  1.1199
  925MOL0     H24846   1.040   9.195   4.746 -3.0399  0.7649  0.9240
  925MOL0     H24847   1.205   9.055   4.794 -4.2005 -3.1082 -0.0024
  925MOL0     H24848   1.170   9.034   4.964 -1.4985  1.6792  1.1775
  925MOL0     H24849   1.188   9.298   4.965  0.8379  1.4935 -2.3406
  925MOL0     H24850   1.306   9.180   5.008 -0.7873 -0.7499  0.8676
  925MOL0     H24851   1.289   9.340   4.744 -0.2501 -0.0621  1.6011
  925MOL0     H24852   1.392   9.202   4.761 -0.1188  0.5066 -1.2313
  925MOL0     H24853   1.496   9.425   4.800  1.4146  0.2673  0.0962
  925MOL0     H24854   1.382   9.458   4.934  2.5958  0.5262  0.7598
  925MOL0     H24855   0.704   9.065   4.559 -0.1919  1.1746  0.0892
  925MOL0     H24856   0.617   9.182   4.366  3.0743 -4.1327  0.9592
  925MOL0     H24857   0.047   9.108   4.108  0.6603 -1.1072 -0.5053
  925MOL0     H24858  -0.079   9.245   3.943 -1.9148  2.7926 -0.5173
  925MOL0     H24859   1.250   8.873   3.892 -2.0642 -0.7433 -1.3313
  925MOL0     H24860   1.469   8.962   3.973 -0.1286 -0.1876  0.6180
  925MOL0     H24861   1.782   9.289   3.739  1.4118 -0.5696  0.2041
  925MOL0     H24862   1.975   9.441   3.724  0.3341 -0.4032  0.5246
  925MOL0     H24863   2.227   9.673   3.853 -1.4934  1.5788 -0.5306
  925MOL0     H24864   2.084   9.638   3.762 -2.4423 -3.3786 -0.8322
  925MOL0     H24865   2.188   9.399   3.727 -0.4768  0.7296  1.0658
  925MOL0     H24866   2.332   9.465   3.818 -0.5678 -1.6687  0.5744
  925MOL0     H24867   2.374   9.619   3.658 -1.7172  1.1298 -0.4094
  925MOL0     H24868   2.223   9.572   3.561 -0.4651  0.7632  0.0513
  925MOL0     H24869   2.465   9.501   3.492 -0.1085 -0.2098  0.1931
  925MOL0     H24870   2.452   9.384   3.629 -0.2425  0.1623 -0.0965
  925MOL0     H24871   2.177   9.219   3.343 -0.0455  0.1116  0.6715
  925MOL0     H24872   2.020   9.410   4.142 -0.7615  0.7008 -0.2051
  925MOL0     H24873   1.773   9.252   4.247  1.5277 -0.3049  2.9983
  925MOL0     H24874   1.864   9.106   4.210 -0.6997  0.1759  2.3668
  925MOL0     H24875   1.958   9.246   4.260  2.2745 -1.5227 -2.3098
  926MOL0     O24876   2.926   4.309   6.420 -0.4499  0.4155 -0.2237
  926MOL0     C24877   2.870   4.394   6.484  0.1155 -0.2674  0.3998
  926MOL0     O24878   2.932   4.496   6.548 -0.4292 -0.2730  0.4235
  926MOL0     C24879   3.070   4.503   6.574 -0.1434 -0.4163  0.3706
  926MOL0     C24880   3.132   4.391   6.627 -0.8402  0.3172  0.3996
  926MOL0     C24881   3.263   4.400   6.679 -0.5110 -0.2590 -0.4014
  926MOL0     C24882   3.339   4.512   6.662  0.0399  0.1526  0.6633
  926MOL0     O24883   3.470   4.513   6.696 -0.8688 -0.7219  0.9117
  926MOL0     C24884   3.569   4.555   6.596  1.0831  0.3878  0.3295
  926MOL0     C24885   3.648   4.672   6.654  0.1569  0.1101  0.4675
  926MOL0     C24886   3.588   4.810   6.628 -0.3251  0.1625  0.0069
  926MOL0     C24887   3.688   4.916   6.665 -0.9183  0.4966 -0.9584
  926MOL0     C24888   3.639   5.056   6.631 -1.2371 -0.0321  0.1723
  926MOL0     C24889   3.751   5.165   6.635 -0.5671  0.2329  0.2172
  926MOL0     C24890   3.695   5.305   6.607 -0.6829 -0.1427 -0.2210
  926MOL0     C24891   3.681   5.343   6.463  0.1945 -0.1381  0.2411
  926MOL0     N24892   3.825   5.367   6.412  0.4746 -0.1804 -0.2267
  926MOL0     C24893   3.897   5.484   6.421  0.8229  0.9578 -0.8546
  926MOL0     C24894   4.010   5.469   6.362  0.1783 -0.5054 -0.0499
  926MOL0     C24895   4.119   5.569   6.356 -0.2275 -1.1582  0.2887
  926MOL0     C24896   4.194   5.579   6.484  0.2933 -0.3062  0.7551
  926MOL0     C24897   4.333   5.649   6.465  0.2126 -0.0192  0.4203
  926MOL0     C24898   4.403   5.667   6.594 -0.1097  0.2351 -0.6758
  926MOL0     O24899   4.502   5.564   6.612 -0.1056  0.1650 -0.3288
  926MOL0     C24900   4.632   5.594   6.576 -0.8154  0.4240  0.7382
  926MOL0     C24901   4.731   5.511   6.639 -0.2291  0.0546  0.2343
  926MOL0     C24902   4.869   5.531   6.635 -0.2590 -0.1073 -0.2295
  926MOL0     C24903   4.912   5.647   6.560  0.1078  0.4882  0.2902
  926MOL0     C24904   5.060   5.678   6.543  0.8184 -1.1818 -0.5467
  926MOL0     O24905   5.079   5.802   6.492 -0.5633 -0.4688  0.0379
  926MOL0     C24906   5.213   5.850   6.489 -0.8602 -0.1244  0.0561
  926MOL0     C24907   5.275   5.908   6.375 -0.1738 -0.0444 -0.9368
  926MOL0     C24908   5.391   5.984   6.384 -0.2403 -0.0721  0.0959
  926MOL0     C24909   5.459   6.010   6.508 -0.0075  1.1616 -0.0193
  926MOL0     O24910   5.568   6.091   6.504 -0.2386  0.0278 -0.1243
  926MOL0     C24911   5.660   6.087   6.609 -0.4969 -0.2306  0.1000
  926MOL0     C24912   5.765   6.195   6.550 -0.1274  0.1872  0.2559
  926MOL0     C24913   5.898   6.173   6.625 -1.3143 -0.1682 -0.0881
  926MOL0     C24914   6.010   6.236   6.540 -0.2424  0.1145 -0.3561
  926MOL0     C24915   6.158   6.225   6.597  0.4896 -0.5682 -0.1489
  926MOL0     C24916   6.258   6.318   6.528 -0.6571 -0.2691 -0.6855
  926MOL0     C24917   6.393   6.304   6.610 -0.6108 -0.1649  0.0392
  926MOL0     C24918   6.516   6.355   6.522 -0.5281  0.4568 -0.1176
  926MOL0    Cl24919   6.508   6.530   6.495  0.6589 -0.1023  0.3120
  926MOL0     C24920   5.402   5.945   6.619 -0.6527 -0.2139 -0.0566
  926MOL0     C24921   5.292   5.868   6.605  0.0370  0.1720 -0.6809
  926MOL0     O24922   5.143   5.604   6.593  0.6177 -0.5429 -0.0253
  926MOL0     C24923   4.817   5.723   6.485 -0.0539 -0.3435  0.0565
  926MOL0     C24924   4.683   5.700   6.498  0.3913  0.3108 -1.7898
  926MOL0     N24925   3.995   5.346   6.308  0.1529  0.2495  0.3007
  926MOL0     N24926   3.894   5.280   6.352 -0.5607  0.3259 -0.0164
  926MOL0     C24927   3.280   4.625   6.604 -0.3328 -0.3912  0.4945
  926MOL0     C24928   3.146   4.622   6.566 -0.5703 -0.5073 -0.4574
  926MOL0     C24929   2.723   4.385   6.500  0.2270  0.3260 -0.1627
  926MOL0     C24930   2.658   4.439   6.618 -0.4035 -0.2839 -0.4159
  926MOL0     C24931   2.525   4.419   6.636 -0.3414 -0.1245  0.1186
  926MOL0     C24932   2.442   4.356   6.537  0.6826  0.5087 -0.3824
  926MOL0     O24933   2.307   4.334   6.562  0.5094  0.1927  0.6091
  926MOL0     C24934   2.222   4.293   6.457  0.2694  0.7400 -0.5188
  926MOL0     C24935   2.075   4.304   6.500 -0.8086  0.6145  0.0038
  926MOL0     C24936   1.985   4.290   6.382  0.0568  0.0817 -0.0518
  926MOL0     C24937   1.842   4.286   6.424 -0.0048 -0.4602  0.2773
  926MOL0     C24938   1.751   4.244   6.318 -0.4386 -0.3528 -0.2799
  926MOL0     C24939   1.674   4.196   6.237  0.2654 -0.4845  0.3635
  926MOL0     C24940   2.505   4.311   6.425  0.7087 -0.2583 -0.2464
  926MOL0     C24941   2.640   4.318   6.400 -0.5848 -0.7133 -0.7058
  926MOL0     C24942   2.691   4.247   6.275 -0.6169 -0.0605  0.5598
  926MOL0     H24943   3.092   4.291   6.638 -0.4265  0.2200  1.0797
  926MOL0     H24944   3.307   4.307   6.713 -0.4707 -0.8570 -2.0430
  926MOL0     H24945   3.632   4.466   6.586  0.8939  0.3143 -0.2533
  926MOL0     H24946   3.523   4.586   6.502  1.0527 -0.4941  0.0412
  926MOL0     H24947   3.743   4.672   6.600 -0.3944  2.2139 -0.6309
  926MOL0     H24948   3.664   4.671   6.762  1.2426 -1.3285  0.3174
  926MOL0     H24949   3.513   4.819   6.707  0.3292 -1.5730  0.9065
  926MOL0     H24950   3.540   4.818   6.530 -0.2397  1.2200  0.0411
  926MOL0     H24951   3.724   4.920   6.768  0.7206  0.3423 -1.4878
  926MOL0     H24952   3.779   4.912   6.604  0.7563  1.3685  1.3057
  926MOL0     H24953   3.605   5.061   6.527 -0.1819 -0.7611 -0.2250
  926MOL0     H24954   3.556   5.078   6.699 -0.8109 -2.4830  1.6213
  926MOL0     H24955   3.795   5.173   6.735  0.4963  1.1293 -0.3159
  926MOL0     H24956   3.830   5.146   6.562 -0.1209 -0.6134  0.9000
  926MOL0     H24957   3.766   5.373   6.656 -1.2658 -2.1378  3.8593
  926MOL0     H24958   3.601   5.323   6.661 -0.0424  0.9036  0.5688
  926MOL0     H24959   3.636   5.267   6.398  1.3979 -1.0443  0.4392
  926MOL0     H24960   3.618   5.431   6.451  0.4046 -0.2639 -2.3057
  926MOL0     H24961   3.858   5.572   6.470 -0.5166  0.1461 -0.4036
  926MOL0     H24962   4.191   5.551   6.276  1.0684 -0.6683  1.3000
  926MOL0     H24963   4.070   5.664   6.335 -0.5922 -1.6199 -1.0340
  926MOL0     H24964   4.132   5.617   6.566  0.1515 -0.1866  0.5912
  926MOL0     H24965   4.219   5.474   6.505 -1.4811 -0.4889  2.1612
  926MOL0     H24966   4.311   5.748   6.424 -1.2974 -1.0956 -1.5385
  926MOL0     H24967   4.392   5.598   6.388 -0.4115  1.1672 -0.8928
  926MOL0     H24968   4.327   5.672   6.673  1.9956  3.4152  1.3983
  926MOL0     H24969   4.446   5.767   6.609  3.8172 -1.5902  1.7072
  926MOL0     H24970   4.681   5.427   6.686  0.8969  0.0614  1.5029
  926MOL0     H24971   4.936   5.460   6.682  1.0210 -0.8686 -2.9978
  926MOL0     H24972   5.214   5.903   6.285  2.0701 -2.0481 -2.4607
  926MOL0     H24973   5.419   6.035   6.292 -1.0754  0.9990  0.4073
  926MOL0     H24974   5.615   6.125   6.701 -1.6432  2.7096 -1.5449
  926MOL0     H24975   5.709   5.989   6.622  0.7666  0.3479 -0.0973
  926MOL0     H24976   5.777   6.178   6.443 -0.7982  1.3639 -0.0336
  926MOL0     H24977   5.730   6.299   6.558 -0.5835  0.2081 -1.5834
  926MOL0     H24978   5.898   6.224   6.722 -2.8685  0.4017 -0.3553
  926MOL0     H24979   5.937   6.071   6.636  2.3498  0.9826 -1.0621
  926MOL0     H24980   5.982   6.342   6.544 -3.1223 -0.5855  0.4287
  926MOL0     H24981   6.002   6.201   6.437 -1.1308  1.3142 -0.7282
  926MOL0     H24982   6.198   6.125   6.579  0.9148 -0.0725 -2.3041
  926MOL0     H24983   6.154   6.239   6.705 -0.7393  0.9523 -0.3603
  926MOL0     H24984   6.267   6.284   6.424 -2.1455 -0.5822 -0.7395
  926MOL0     H24985   6.222   6.421   6.523  0.2890  0.0266 -2.6949
  926MOL0     H24986   6.415   6.199   6.632  3.6786  0.0536 -2.0671
  926MOL0     H24987   6.393   6.359   6.704 -1.3733  0.0051 -0.0545
  926MOL0     H24988   6.616   6.336   6.564 -0.7433  0.9690  0.6463
  926MOL0     H24989   6.509   6.287   6.436 -1.1355  1.3387 -0.7776
  926MOL0     H24990   5.441   5.954   6.720  3.0308  1.4081 -1.4314
  926MOL0     H24991   5.242   5.842   6.698  0.0373  1.1965 -0.3887
  926MOL0     H24992   4.845   5.799   6.413 -1.3622 -0.6151 -0.7705
  926MOL0     H24993   4.624   5.775   6.447  0.8008  2.0348  0.1258
  926MOL0     H24994   3.335   4.715   6.579 -1.7154  0.1302 -0.8154
  926MOL0     H24995   3.102   4.706   6.514 -3.7699 -1.3887  0.6065
  926MOL0     H24996   2.718   4.486   6.696 -1.5810 -0.9153  0.9063
  926MOL0     H24997   2.481   4.463   6.725  0.2384  3.5794 -1.2249
  926MOL0     H24998   2.230   4.187   6.430  1.1640  0.5410  0.4375
  926MOL0     H24999   2.240   4.367   6.378 -2.1243 -0.6459 -2.5166
  926MOL0     H25000   2.053   4.400   6.548 -1.2624 -0.6266  2.4543
  926MOL0     H25001   2.058   4.228   6.577  1.0213 -2.4383 -2.3472
  926MOL0     H25002   2.019   4.200   6.329 -3.3502 -3.3095  2.9656
  926MOL0     H25003   2.003   4.369   6.308  0.7661 -0.8838 -0.9508
  926MOL0     H25004   1.843   4.218   6.509  0.8639  1.3049  1.7557
  926MOL0     H25005   1.809   4.385   6.456 -1.9572 -0.4276 -1.5696
  926MOL0     H25006   1.609   4.146   6.167  0.3754 -3.3022  2.0972
  926MOL0     H25007   2.444   4.267   6.346  2.6181  2.0253 -3.2282
  926MOL0     H25008   2.620   4.226   6.194  0.3495  2.0507 -0.9216
  926MOL0     H25009   2.779   4.292   6.229  0.8860 -2.5710  0.8116
  926MOL0     H25010   2.719   4.144   6.301  0.2340  0.0198 -0.0274
  927MOL0     O25011   4.103   1.195   7.819  0.7443  0.3457  0.0150
  927MOL0     C25012   4.066   1.192   7.703 -0.3936  0.1436 -0.3372
  927MOL0     O25013   4.148   1.179   7.589 -0.3158  0.1962 -0.5496
  927MOL0     C25014   4.283   1.178   7.604 -0.0170 -0.1469  0.3945
  927MOL0     C25015   4.345   1.299   7.618 -0.0415 -0.6076  0.7370
  927MOL0     C25016   4.492   1.304   7.620  0.8612  0.0460  0.4447
  927MOL0     C25017   4.561   1.188   7.631  0.7203  0.0631  0.0971
  927MOL0     O25018   4.700   1.185   7.608  0.4240 -0.6650  0.0877
  927MOL0     C25019   4.769   1.085   7.681 -0.8544 -0.2814  0.4609
  927MOL0     C25020   4.915   1.098   7.684  0.0184 -0.7947 -0.4072
  927MOL0     C25021   4.994   1.003   7.773  0.3765  0.1054 -0.0535
  927MOL0     C25022   5.135   1.015   7.733  0.3334  0.0668  0.4415
  927MOL0     C25023   5.229   0.936   7.828  0.0891  0.5214 -0.0076
  927MOL0     C25024   5.238   0.784   7.797  0.1273 -0.4303  0.3510
  927MOL0     C25025   5.358   0.721   7.871 -0.6124  0.6443 -1.3237
  927MOL0     C25026   5.507   0.755   7.837 -0.4818 -0.5631  0.4916
  927MOL0     N25027   5.582   0.783   7.955  0.3203 -0.4793 -0.2518
  927MOL0     C25028   5.674   0.711   8.022  0.7809  0.8830  0.6566
  927MOL0     C25029   5.708   0.775   8.133 -0.6325 -0.0620  0.7195
  927MOL0     C25030   5.830   0.742   8.219  0.3141 -0.1978 -0.0290
  927MOL0     C25031   5.957   0.745   8.141 -0.1353  0.4667  0.0873
  927MOL0     C25032   6.078   0.736   8.241  0.6572 -0.2670 -0.0321
  927MOL0     C25033   6.208   0.747   8.165 -0.5976 -0.0151 -0.4427
  927MOL0     O25034   6.317   0.740   8.262 -0.5158  0.5663 -0.4693
  927MOL0     C25035   6.413   0.644   8.248 -0.1260  0.1015 -0.4778
  927MOL0     C25036   6.374   0.508   8.243 -0.9233  0.8081  0.5577
  927MOL0     C25037   6.466   0.409   8.232 -0.1206 -0.1928  0.4618
  927MOL0     C25038   6.608   0.435   8.233  0.3962 -0.2754  0.6489
  927MOL0     C25039   6.707   0.329   8.234  0.0082  0.1240  0.7936
  927MOL0     O25040   6.678   0.202   8.284 -0.3824  0.3648 -0.3704
  927MOL0     C25041   6.778   0.114   8.268 -0.4624 -0.1665 -0.4343
  927MOL0     C25042   6.869   0.076   8.355 -0.2359 -0.1011 -0.5168
  927MOL0     C25043   6.965  -0.032   8.335 -0.0918  0.1052  0.3133
  927MOL0     C25044   6.950  -0.106   8.223 -0.5035  0.6164 -0.3728
  927MOL0     O25045   7.024  -0.219   8.215  0.2188 -0.0198  0.7510
  927MOL0     C25046   7.127  -0.203   8.105  0.0504 -0.5447 -0.3611
  927MOL0     C25047   7.184  -0.336   8.067 -0.2420  0.5773  0.0043
  927MOL0     C25048   7.312  -0.335   7.980 -1.0877 -0.4807  0.4218
  927MOL0     C25049   7.351  -0.483   7.937  0.3867  0.2045 -0.2246
  927MOL0     C25050   7.459  -0.478   7.827 -0.1780  0.1846 -0.5632
  927MOL0     C25051   7.594  -0.409   7.859 -0.3110  0.7638  0.5555
  927MOL0     C25052   7.710  -0.483   7.793 -0.0490  0.5051  0.2272
  927MOL0     C25053   7.846  -0.421   7.843 -0.1421  0.3377  0.7385
  927MOL0    Cl25054   7.848  -0.240   7.831  0.2230  0.0107 -0.0172
  927MOL0     C25055   6.865  -0.062   8.122 -0.2175 -0.5972  0.2053
  927MOL0     C25056   6.784   0.053   8.145  0.8704  0.1770 -1.0235
  927MOL0     O25057   6.821   0.366   8.195  0.5946  0.2425 -0.3478
  927MOL0     C25058   6.643   0.573   8.232 -1.0353  0.3745  0.1286
  927MOL0     C25059   6.551   0.677   8.244  0.3677 -0.1318  0.5421
  927MOL0     N25060   5.643   0.898   8.134  1.0904 -0.1435 -0.8225
  927MOL0     N25061   5.568   0.898   8.024 -0.7137 -0.7131 -0.8780
  927MOL0     C25062   4.496   1.063   7.626  0.0409 -0.5554 -0.0196
  927MOL0     C25063   4.359   1.057   7.613  0.0238 -0.4910 -0.1293
  927MOL0     C25064   3.923   1.195   7.673  0.8741 -0.7352 -0.4091
  927MOL0     C25065   3.877   1.201   7.538 -0.4124  0.1574 -0.1824
  927MOL0     C25066   3.743   1.211   7.506 -0.1529  0.5150 -0.4885
  927MOL0     C25067   3.651   1.243   7.607 -0.5570 -0.4456  0.2698
  927MOL0     O25068   3.515   1.253   7.588 -0.1627  0.5329 -0.1086
  927MOL0     C25069   3.464   1.250   7.453  0.0618 -0.7765  0.0639
  927MOL0     C25070   3.311   1.256   7.452  0.2568 -0.2479 -0.7041
  927MOL0     C25071   3.245   1.307   7.326  0.2001  0.0104  0.8167
  927MOL0     C25072   3.099   1.344   7.328 -0.5114  0.9586  0.0711
  927MOL0     C25073   3.024   1.221   7.367 -0.7715 -0.5253  0.7628
  927MOL0     C25074   2.957   1.135   7.405 -0.1987  0.0527  0.1233
  927MOL0     C25075   3.701   1.251   7.735  0.2532  0.4681  0.3802
  927MOL0     C25076   3.829   1.224   7.773  0.0612  0.9443 -0.5717
  927MOL0     C25077   3.843   1.251   7.913 -0.4493  0.1838 -0.0900
  927MOL0     H25078   4.293   1.394   7.607  0.0848 -0.5560  0.5782
  927MOL0     H25079   4.546   1.397   7.605  1.4711 -0.3221  0.3288
  927MOL0     H25080   4.735   1.084   7.785  0.5848 -0.1182  0.9531
  927MOL0     H25081   4.752   0.990   7.630 -0.7436  0.9495 -2.0515
  927MOL0     H25082   4.947   1.196   7.720  0.0736 -1.2234  0.7213
  927MOL0     H25083   4.943   1.085   7.579  3.5866  0.3218  0.2744
  927MOL0     H25084   4.962   0.898   7.769 -1.7564  0.4492  3.5626
  927MOL0     H25085   4.986   1.034   7.877 -0.1194 -2.0521  0.6111
  927MOL0     H25086   5.141   0.971   7.633  1.1871 -0.1352  0.5700
  927MOL0     H25087   5.174   1.117   7.725  0.5969 -0.1737 -2.0723
  927MOL0     H25088   5.330   0.973   7.810 -0.7560  2.4306 -1.0929
  927MOL0     H25089   5.193   0.957   7.929  2.6354 -1.6750  1.4751
  927MOL0     H25090   5.141   0.735   7.811 -1.6952  3.0483  1.0161
  927MOL0     H25091   5.265   0.778   7.691  0.8078 -1.2791  0.5617
  927MOL0     H25092   5.356   0.615   7.845 -1.4731  0.8293 -2.0630
  927MOL0     H25093   5.344   0.722   7.980 -0.4098 -1.8948 -1.2167
  927MOL0     H25094   5.556   0.679   7.775  3.3138 -1.1815  3.8467
  927MOL0     H25095   5.512   0.841   7.770 -2.6917 -0.5951  0.2064
  927MOL0     H25096   5.725   0.619   7.994  0.3140  0.7387  0.2680
  927MOL0     H25097   5.840   0.817   8.299 -1.8677  0.2551 -0.1254
  927MOL0     H25098   5.811   0.647   8.271 -1.2277  0.0551 -0.0966
  927MOL0     H25099   5.961   0.655   8.080 -1.0507 -0.7085  1.6956
  927MOL0     H25100   5.959   0.836   8.080 -2.8605  1.3333  1.1405
  927MOL0     H25101   6.069   0.651   8.309 -0.6385  0.6236  0.9518
  927MOL0     H25102   6.067   0.822   8.307  0.2698 -0.2623 -0.1007
  927MOL0     H25103   6.202   0.840   8.109 -1.0292 -0.1757 -0.6709
  927MOL0     H25104   6.218   0.665   8.093  1.0774  1.1474 -1.5959
  927MOL0     H25105   6.269   0.490   8.265 -0.7363  1.8539  2.6181
  927MOL0     H25106   6.423   0.310   8.245 -1.8000  0.5486  0.7707
  927MOL0     H25107   6.871   0.129   8.449  2.7778  2.8572 -2.0636
  927MOL0     H25108   7.023  -0.062   8.422 -0.7271  1.7461  1.3573
  927MOL0     H25109   7.088  -0.171   8.008  0.3507 -2.5578 -1.2071
  927MOL0     H25110   7.198  -0.127   8.139 -1.8573  0.6678  1.0971
  927MOL0     H25111   7.215  -0.396   8.153  1.3171 -1.9856 -2.1727
  927MOL0     H25112   7.101  -0.401   8.041  0.7024 -1.5569  1.9399
  927MOL0     H25113   7.299  -0.270   7.894  0.0407  0.2002  0.7472
  927MOL0     H25114   7.398  -0.298   8.036 -1.9318  1.7770  0.3268
  927MOL0     H25115   7.269  -0.546   7.900 -0.9820  1.0747  1.1717
  927MOL0     H25116   7.399  -0.531   8.022 -0.2018  0.9910  0.5676
  927MOL0     H25117   7.419  -0.430   7.737 -1.8918 -1.1314 -0.5586
  927MOL0     H25118   7.475  -0.583   7.798  1.5558  0.3159 -0.1895
  927MOL0     H25119   7.585  -0.303   7.834 -0.9412  0.8582  1.1647
  927MOL0     H25120   7.604  -0.393   7.967  1.1846  1.7652  0.3171
  927MOL0     H25121   7.694  -0.485   7.685 -0.4980 -1.0501  0.2957
  927MOL0     H25122   7.706  -0.586   7.831 -3.3677  1.2446  2.2531
  927MOL0     H25123   7.862  -0.436   7.951  0.1184  1.2351  0.8345
  927MOL0     H25124   7.935  -0.463   7.795 -0.0901  0.3325  0.8388
  927MOL0     H25125   6.845  -0.121   8.032 -1.1751 -0.2452  0.1674
  927MOL0     H25126   6.718   0.083   8.064  0.2851  2.3605  0.1776
  927MOL0     H25127   6.748   0.591   8.213 -0.3768 -3.7429 -1.0091
  927MOL0     H25128   6.578   0.781   8.233  1.8287 -0.6374 -1.2086
  927MOL0     H25129   4.550   0.969   7.629  1.6578  0.3584  0.8163
  927MOL0     H25130   4.302   0.968   7.587  0.2455 -0.2858 -1.4232
  927MOL0     H25131   3.940   1.191   7.450 -0.7013  4.0056 -0.9849
  927MOL0     H25132   3.704   1.206   7.404  0.5836 -2.0277 -0.7072
  927MOL0     H25133   3.495   1.165   7.391  0.8998  0.8758 -1.9107
  927MOL0     H25134   3.504   1.337   7.400 -0.6986 -0.9997 -0.9124
  927MOL0     H25135   3.273   1.324   7.529 -1.4243  0.3952 -2.0465
  927MOL0     H25136   3.271   1.155   7.469 -1.3046  0.4746  0.1335
  927MOL0     H25137   3.268   1.245   7.239  0.6687  2.0727 -0.6040
  927MOL0     H25138   3.291   1.405   7.312 -0.3374  0.7428  3.5097
  927MOL0     H25139   3.077   1.430   7.391 -2.0319  1.0468 -0.5296
  927MOL0     H25140   3.076   1.359   7.222 -0.0661 -0.7830 -0.3058
  927MOL0     H25141   2.897   1.056   7.446  0.0347  0.3318  1.0378
  927MOL0     H25142   3.627   1.257   7.815 -0.4076 -1.2425 -0.0719
  927MOL0     H25143   3.757   1.274   7.978 -0.4169 -2.4214  0.9952
  927MOL0     H25144   3.887   1.160   7.954 -0.8734 -0.0336 -0.1068
  927MOL0     H25145   3.909   1.337   7.925  1.9251 -1.6018  0.3071
  928MOL0     O25146   0.231   4.646   1.668 -0.4313 -0.0453 -0.1734
  928MOL0     C25147   0.247   4.713   1.566 -0.3317 -0.1511 -0.4198
  928MOL0     O25148   0.358   4.736   1.489 -0.1420  0.8387 -0.4955
  928MOL0     C25149   0.481   4.713   1.545 -0.0203  0.0348 -0.2135
  928MOL0     C25150   0.511   4.597   1.620  0.0917 -1.0202  0.4515
  928MOL0     C25151   0.637   4.570   1.667 -0.6912  0.9281 -1.0082
  928MOL0     C25152   0.737   4.666   1.649 -0.5894 -0.0354  0.3209
  928MOL0     O25153   0.867   4.637   1.702  0.3203  0.0166  0.7127
  928MOL0     C25154   0.885   4.695   1.833  0.9304 -0.0795  0.3155
  928MOL0     C25155   1.013   4.657   1.910  0.0791  0.3615 -0.2250
  928MOL0     C25156   1.137   4.685   1.829  0.1049  0.0809 -0.5892
  928MOL0     C25157   1.272   4.636   1.898  0.6184 -0.8351 -0.3264
  928MOL0     C25158   1.351   4.534   1.812 -0.7924 -0.0254 -0.1028
  928MOL0     C25159   1.483   4.508   1.872  0.0940 -0.5634 -0.2082
  928MOL0     C25160   1.567   4.425   1.779  0.0481  0.9129  0.2201
  928MOL0     C25161   1.716   4.423   1.820 -0.0341  0.5303  0.1458
  928MOL0     N25162   1.728   4.342   1.944 -0.9602 -0.3246 -0.3234
  928MOL0     C25163   1.734   4.378   2.076 -0.8258  0.2895 -0.1962
  928MOL0     C25164   1.741   4.259   2.151  0.1841 -0.8025  0.8164
  928MOL0     C25165   1.723   4.247   2.300 -0.1658 -0.4668 -0.2228
  928MOL0     C25166   1.850   4.291   2.363  0.2344  0.7354  0.0568
  928MOL0     C25167   1.967   4.190   2.346  0.9181 -0.0293 -0.1673
  928MOL0     C25168   2.100   4.255   2.394 -0.2713  1.0660  0.6303
  928MOL0     O25169   2.190   4.143   2.418 -0.0202  0.2909  0.1893
  928MOL0     C25170   2.318   4.187   2.441  0.5563 -0.4623 -0.1020
  928MOL0     C25171   2.356   4.294   2.524 -0.9333 -0.5532  0.1343
  928MOL0     C25172   2.495   4.340   2.523  0.3414  0.2395 -0.3761
  928MOL0     C25173   2.597   4.265   2.462  0.6017 -0.8875  0.9806
  928MOL0     C25174   2.736   4.307   2.457 -0.0339  0.1785  0.4356
  928MOL0     O25175   2.749   4.420   2.521 -0.0185  0.0323  0.1974
  928MOL0     C25176   2.877   4.468   2.528  0.1369 -0.1201 -0.2696
  928MOL0     C25177   2.974   4.398   2.602  0.1232  0.4014  0.3994
  928MOL0     C25178   3.105   4.447   2.627 -0.0227  0.8260  0.5803
  928MOL0     C25179   3.134   4.573   2.571 -0.4843  0.2547 -0.0420
  928MOL0     O25180   3.265   4.624   2.579  0.2095  0.3356  1.0636
  928MOL0     C25181   3.339   4.601   2.459  0.3343  0.0845  0.3051
  928MOL0     C25182   3.478   4.636   2.513 -0.0748  0.9761 -0.3549
  928MOL0     C25183   3.575   4.644   2.396  0.0748  0.7649  0.2559
  928MOL0     C25184   3.706   4.699   2.447 -0.5267  0.7892  0.3120
  928MOL0     C25185   3.807   4.729   2.342 -0.0881 -0.2294  0.0676
  928MOL0     C25186   3.938   4.796   2.383 -0.0668 -1.1093  0.0530
  928MOL0     C25187   3.993   4.875   2.265  0.2973  0.0872  0.0791
  928MOL0     C25188   4.141   4.902   2.286 -0.0859 -1.0938 -0.7648
  928MOL0    Cl25189   4.158   5.040   2.397  0.5484 -0.1367  0.3525
  928MOL0     C25190   3.044   4.645   2.489  0.2257 -0.4074 -0.0816
  928MOL0     C25191   2.917   4.589   2.470 -0.1890 -0.1487  0.0381
  928MOL0     O25192   2.822   4.236   2.404  0.0777  0.1937  0.3820
  928MOL0     C25193   2.547   4.158   2.382 -1.8032 -0.3018 -0.5626
  928MOL0     C25194   2.414   4.120   2.371 -0.0414 -0.1787 -0.5831
  928MOL0     N25195   1.722   4.156   2.063  0.2652 -0.2456  0.5497
  928MOL0     N25196   1.735   4.208   1.944  0.4317 -0.6613  0.0078
  928MOL0     C25197   0.709   4.784   1.585  0.0089  0.3615  0.4482
  928MOL0     C25198   0.580   4.809   1.537  0.1371 -1.1408 -1.0109
  928MOL0     C25199   0.125   4.772   1.501 -0.4572  0.5697  0.5611
  928MOL0     C25200   0.133   4.909   1.469  0.2854  0.1451 -0.4426
  928MOL0     C25201   0.024   4.976   1.407 -0.3329 -0.2555  0.5262
  928MOL0     C25202  -0.095   4.914   1.398 -0.0919  0.6381  0.1766
  928MOL0     O25203  -0.203   4.995   1.351  0.3960  0.1907 -0.5346
  928MOL0     C25204  -0.340   4.950   1.312 -1.5039  0.7376 -0.2231
  928MOL0     C25205  -0.426   4.950   1.429 -0.2117 -0.3688  0.1151
  928MOL0     C25206  -0.568   4.903   1.389  0.5039  0.5456  0.9187
  928MOL0     C25207  -0.661   4.882   1.514  0.0711  0.5499  0.2018
  928MOL0     C25208  -0.788   4.820   1.473 -0.4099  0.1100 -0.4944
  928MOL0     C25209  -0.901   4.773   1.441  0.0273 -0.4459 -0.4511
  928MOL0     C25210  -0.111   4.780   1.449  0.7466  0.1905 -0.1075
  928MOL0     C25211   0.001   4.706   1.494  0.7456  0.6621 -1.0475
  928MOL0     C25212  -0.019   4.561   1.527  0.4790 -0.3723 -0.3511
  928MOL0     H25213   0.431   4.524   1.627 -1.9084  1.1889  2.5714
  928MOL0     H25214   0.660   4.482   1.727  2.8835  1.5000 -1.3477
  928MOL0     H25215   0.873   4.803   1.827 -2.3047 -0.4297 -1.5203
  928MOL0     H25216   0.806   4.657   1.898  0.6004 -2.2764 -1.2662
  928MOL0     H25217   1.011   4.548   1.915  3.2612  0.1721 -1.2159
  928MOL0     H25218   1.012   4.707   2.008  0.4734 -1.1878  0.6061
  928MOL0     H25219   1.150   4.791   1.808  2.9403  0.4613  2.2465
  928MOL0     H25220   1.123   4.638   1.731 -0.6184  0.8640 -0.8745
  928MOL0     H25221   1.325   4.730   1.917 -3.3758  1.6742 -0.3059
  928MOL0     H25222   1.250   4.590   1.995 -2.1994 -0.2582 -0.5989
  928MOL0     H25223   1.296   4.439   1.810 -0.8283 -0.0330  0.6984
  928MOL0     H25224   1.368   4.564   1.709  0.5403  2.5609  0.7914
  928MOL0     H25225   1.533   4.604   1.885 -1.3437  0.2601 -0.6285
  928MOL0     H25226   1.473   4.469   1.974  0.0468 -0.2523 -0.0941
  928MOL0     H25227   1.554   4.450   1.674 -2.5185 -1.8025 -0.2616
  928MOL0     H25228   1.524   4.324   1.778 -0.0219  0.7682  3.5891
  928MOL0     H25229   1.775   4.377   1.740 -1.1724  0.7459 -0.8451
  928MOL0     H25230   1.757   4.522   1.840  0.2215  0.1796  1.4949
  928MOL0     H25231   1.747   4.477   2.118 -0.0999  1.5304 -3.1374
  928MOL0     H25232   1.643   4.306   2.345  0.3121 -0.4647  0.6427
  928MOL0     H25233   1.708   4.140   2.320  1.1162 -0.4545  0.9592
  928MOL0     H25234   1.886   4.390   2.333  0.7072  0.5990  0.1680
  928MOL0     H25235   1.840   4.296   2.471 -0.0687  1.1480  0.0112
  928MOL0     H25236   1.988   4.148   2.247  2.0884 -1.1318  0.5089
  928MOL0     H25237   1.950   4.112   2.420  0.6082  0.4829  0.3108
  928MOL0     H25238   2.086   4.315   2.484 -0.8018  0.1658  1.1564
  928MOL0     H25239   2.146   4.314   2.314 -0.2847  1.2761  0.7765
  928MOL0     H25240   2.288   4.351   2.587  1.6936 -0.2441  2.9563
  928MOL0     H25241   2.511   4.432   2.578 -0.0305  1.2266 -1.8714
  928MOL0     H25242   2.936   4.301   2.634  1.0561 -1.8002 -4.2205
  928MOL0     H25243   3.174   4.392   2.690 -0.0655 -0.0101 -0.0817
  928MOL0     H25244   3.328   4.497   2.429  1.8792 -0.0499  0.1501
  928MOL0     H25245   3.307   4.665   2.376 -1.1976 -0.5887  0.3290
  928MOL0     H25246   3.468   4.733   2.562 -0.0292  0.3454  0.9612
  928MOL0     H25247   3.513   4.563   2.588  2.2855 -0.3688 -2.5828
  928MOL0     H25248   3.584   4.547   2.346 -1.9771  1.1308 -0.9345
  928MOL0     H25249   3.525   4.713   2.328  0.4578  0.7071 -0.0889
  928MOL0     H25250   3.751   4.640   2.527  1.1063 -0.0759 -1.1755
  928MOL0     H25251   3.684   4.788   2.506  1.2774  0.5366  1.4245
  928MOL0     H25252   3.754   4.789   2.268  0.9679 -1.7391 -2.0155
  928MOL0     H25253   3.835   4.637   2.289 -2.8992  0.3450 -2.7027
  928MOL0     H25254   3.924   4.866   2.465 -1.4648 -1.4849  0.1565
  928MOL0     H25255   4.008   4.725   2.430  1.2192  0.9125  1.3463
  928MOL0     H25256   3.946   4.974   2.257  2.6432  1.2719  0.1055
  928MOL0     H25257   3.983   4.823   2.170  5.7540 -1.8887  0.2307
  928MOL0     H25258   4.199   4.819   2.326 -1.8750 -1.0839  2.1580
  928MOL0     H25259   4.186   4.925   2.189  0.6345 -2.4887 -0.7788
  928MOL0     H25260   3.074   4.740   2.447  1.1121  0.1086  1.6129
  928MOL0     H25261   2.841   4.653   2.426  0.1336 -0.4678 -1.0130
  928MOL0     H25262   2.618   4.098   2.325  1.1505 -0.0166  2.4760
  928MOL0     H25263   2.393   4.039   2.302  0.6470 -0.1629 -0.8113
  928MOL0     H25264   0.781   4.864   1.574 -0.4812  0.7181 -0.1994
  928MOL0     H25265   0.559   4.908   1.499 -0.6222 -1.2356 -0.8476
  928MOL0     H25266   0.226   4.964   1.460  0.1183  0.2182 -2.0628
  928MOL0     H25267   0.024   5.072   1.356 -3.7343 -0.2238  0.3326
  928MOL0     H25268  -0.343   4.850   1.269  0.2051  0.6568 -0.2339
  928MOL0     H25269  -0.378   5.025   1.241 -2.0114  2.1340  1.4614
  928MOL0     H25270  -0.424   5.052   1.468  0.1720 -1.1379  2.2849
  928MOL0     H25271  -0.381   4.881   1.501  1.8446  0.2499 -0.5101
  928MOL0     H25272  -0.564   4.801   1.349  1.2696 -0.1469  2.6880
  928MOL0     H25273  -0.611   4.965   1.310  1.6268 -1.9693 -1.8650
  928MOL0     H25274  -0.610   4.821   1.589 -0.2099  1.0778  0.8360
  928MOL0     H25275  -0.675   4.973   1.573 -0.1704  1.4820 -1.2342
  928MOL0     H25276  -0.992   4.720   1.425 -1.0828  1.3747 -0.4499
  928MOL0     H25277  -0.211   4.738   1.447  0.2265  1.2382 -3.2225
  928MOL0     H25278   0.069   4.511   1.485 -0.5357  0.2475 -3.4394
  928MOL0     H25279  -0.031   4.538   1.633  1.2431  0.1551 -0.1399
  928MOL0     H25280  -0.109   4.529   1.474  1.2574  0.0573 -2.0059
  929MOL0     O25281   9.873   8.600   9.144 -0.0369  0.1698 -0.2422
  929MOL0     C25282   9.762   8.649   9.113  0.9313 -0.8453 -0.1208
  929MOL0     O25283   9.741   8.781   9.109 -0.0864  0.8474  0.3382
  929MOL0     C25284   9.804   8.869   9.190  0.2044 -0.1288 -0.3765
  929MOL0     C25285   9.940   8.902   9.174 -0.3651  0.2770 -0.6234
  929MOL0     C25286   9.994   9.002   9.250 -0.0196  0.3304  0.3744
  929MOL0     C25287   9.925   9.066   9.348 -1.3648  0.4508 -0.5768
  929MOL0     O25288  10.003   9.151   9.425 -0.8182  0.2110 -0.3074
  929MOL0     C25289   9.954   9.178   9.559 -0.1233  0.7441  0.2818
  929MOL0     C25290   9.883   9.312   9.560 -0.6662 -0.4994 -1.0429
  929MOL0     C25291   9.804   9.328   9.692 -0.8796  0.9480  0.1559
  929MOL0     C25292   9.730   9.452   9.697  0.0920 -0.2634 -0.3366
  929MOL0     C25293   9.827   9.572   9.711 -0.3619 -0.3232 -0.0811
  929MOL0     C25294   9.750   9.700   9.708 -0.4180 -0.1397  0.2767
  929MOL0     C25295   9.854   9.817   9.701  1.4570  0.5591  0.5365
  929MOL0     C25296   9.778   9.952   9.671 -0.7312  0.9423 -0.7823
  929MOL0     N25297   9.671   9.970   9.769  0.4973 -0.2869 -0.4403
  929MOL0     C25298   9.676  10.032   9.891 -0.3003  0.4297 -0.3845
  929MOL0     C25299   9.551  10.026   9.933  1.0520 -0.7268 -0.7295
  929MOL0     C25300   9.490  10.092  10.056  0.1216  1.3108 -0.2937
  929MOL0     C25301   9.402   9.997  10.135 -0.3119  0.0423  0.1966
  929MOL0     C25302   9.332  10.089  10.240 -0.0505  0.1603 -0.3698
  929MOL0     C25303   9.250  10.005  10.325  0.2732 -0.5182  0.5733
  929MOL0     O25304   9.163  10.080  10.421  0.3733  0.5962  0.5685
  929MOL0     C25305   9.226  10.141  10.528  0.3980  0.0881 -0.0429
  929MOL0     C25306   9.144  10.236  10.598  0.3570 -0.2440  0.2715
  929MOL0     C25307   9.208  10.319  10.698 -0.0362  0.7328 -0.2086
  929MOL0     C25308   9.337  10.299  10.731  0.2791 -0.0823 -0.2052
  929MOL0     C25309   9.400  10.388  10.834 -0.3661  0.5891  0.4663
  929MOL0     O25310   9.528  10.346  10.875 -0.0002 -0.0983  0.7015
  929MOL0     C25311   9.600  10.411  10.976  0.7606  0.6358  0.0324
  929MOL0     C25312   9.733  10.382  10.980  0.0606 -0.1750 -0.3063
  929MOL0     C25313   9.825  10.454  11.058  0.4216  0.4623  0.3552
  929MOL0     C25314   9.769  10.543  11.159 -0.3414  0.6044 -0.4831
  929MOL0     O25315   9.848  10.629  11.230  0.4624  0.0164  0.4361
  929MOL0     C25316   9.989  10.591  11.252  0.7796 -0.7995 -0.5173
  929MOL0     C25317  10.096  10.635  11.148  0.4628 -0.4148 -0.2809
  929MOL0     C25318  10.230  10.578  11.153  0.8229 -0.3637  0.1792
  929MOL0     C25319  10.291  10.591  11.292 -0.9212  0.3448  0.4851
  929MOL0     C25320  10.447  10.589  11.282  1.5819 -0.6226  0.5285
  929MOL0     C25321  10.515  10.575  11.419 -0.0602  0.1783 -0.6090
  929MOL0     C25322  10.663  10.600  11.429 -0.3587  0.3265  0.1824
  929MOL0     C25323  10.685  10.752  11.414 -0.2148 -0.8399  0.0268
  929MOL0    Cl25324  10.603  10.839  11.544 -0.1442 -0.5530 -0.2876
  929MOL0     C25325   9.635  10.571  11.162  0.0928  0.7152 -0.6281
  929MOL0     C25326   9.549  10.504  11.066 -0.0040  0.2729 -1.2141
  929MOL0     O25327   9.355  10.497  10.864 -0.0093 -0.1938 -0.4331
  929MOL0     C25328   9.406  10.191  10.663 -0.3337 -0.5315 -0.5898
  929MOL0     C25329   9.358  10.116  10.561 -0.8410  0.1821 -0.1187
  929MOL0     N25330   9.469   9.972   9.837 -0.2160 -0.3948 -0.2414
  929MOL0     N25331   9.538   9.938   9.735 -0.4613  0.8952 -0.5788
  929MOL0     C25332   9.787   9.039   9.366  0.1850 -0.4799  0.4079
  929MOL0     C25333   9.729   8.936   9.288 -0.3542 -1.4378  0.2670
  929MOL0     C25334   9.653   8.561   9.093 -0.4454 -0.0399  0.1376
  929MOL0     C25335   9.542   8.584   9.170  0.4453 -0.0335 -0.4931
  929MOL0     C25336   9.421   8.505   9.150 -0.3509  0.1742 -0.0975
  929MOL0     C25337   9.408   8.394   9.066  0.8107 -0.4075  0.0024
  929MOL0     O25338   9.302   8.312   9.035 -0.5797  0.1538 -0.3903
  929MOL0     C25339   9.184   8.336   9.100  0.2926 -0.8773  0.1654
  929MOL0     C25340   9.087   8.226   9.079 -0.0926  0.5638  0.2658
  929MOL0     C25341   9.133   8.087   9.133  0.4426 -0.3574 -0.2666
  929MOL0     C25342   9.016   7.990   9.167 -0.4499 -0.3581 -0.4487
  929MOL0     C25343   8.914   8.046   9.253 -0.0632  0.5346 -0.3043
  929MOL0     C25344   8.838   8.085   9.342  0.5477 -0.3753  0.3212
  929MOL0     C25345   9.521   8.367   8.992 -0.1570  0.3572  0.0995
  929MOL0     C25346   9.640   8.451   9.001  0.6520 -0.6004  0.4045
  929MOL0     C25347   9.755   8.433   8.908 -0.2479  0.8351 -0.5137
  929MOL0     H25348   9.993   8.860   9.090  0.7638  0.5203 -0.0507
  929MOL0     H25349  10.099   9.025   9.231 -0.1265  2.2931  1.9130
  929MOL0     H25350   9.897   9.093   9.597  0.3239  0.5006  0.4093
  929MOL0     H25351  10.035   9.175   9.632 -0.5223 -0.2053  0.7069
  929MOL0     H25352   9.819   9.327   9.473  0.0869  2.2282 -1.2355
  929MOL0     H25353   9.954   9.395   9.556 -1.6073  0.5823  1.7533
  929MOL0     H25354   9.880   9.325   9.772 -0.8194  0.3951  0.0799
  929MOL0     H25355   9.735   9.247   9.716  1.1552 -0.4807  1.5260
  929MOL0     H25356   9.665   9.468   9.610 -0.5079  1.0943  0.3389
  929MOL0     H25357   9.664   9.451   9.783  0.2884  1.7672 -0.1170
  929MOL0     H25358   9.879   9.569   9.807 -0.3786 -0.1480 -0.0668
  929MOL0     H25359   9.896   9.583   9.628 -0.2933  0.4907  0.0766
  929MOL0     H25360   9.686   9.700   9.620  2.0444 -0.5539 -1.6226
  929MOL0     H25361   9.688   9.724   9.795  1.0362  1.6506  0.8965
  929MOL0     H25362   9.923   9.802   9.617 -0.5389 -1.7060 -0.8544
  929MOL0     H25363   9.902   9.834   9.798 -1.3545 -0.8627  2.3052
  929MOL0     H25364   9.854  10.029   9.675 -0.6011  0.8010  2.4110
  929MOL0     H25365   9.737   9.959   9.570  2.0837 -2.8274 -2.4200
  929MOL0     H25366   9.755  10.072   9.954  0.4584  0.3236 -1.2573
  929MOL0     H25367   9.566  10.135  10.123  1.7997  2.2123 -2.6258
  929MOL0     H25368   9.431  10.174  10.015 -1.2453  0.8144  0.6395
  929MOL0     H25369   9.334   9.943  10.068 -1.7863 -0.2395  1.8353
  929MOL0     H25370   9.465   9.924  10.188  1.1346 -0.9823 -2.7521
  929MOL0     H25371   9.276  10.170  10.192 -1.4896  0.5605  1.8397
  929MOL0     H25372   9.401  10.147  10.301 -0.0334 -0.5935  0.3472
  929MOL0     H25373   9.321   9.942  10.381 -0.0636  1.1823  3.0733
  929MOL0     H25374   9.173   9.957  10.264  0.2784  0.2555 -0.0501
  929MOL0     H25375   9.042  10.257  10.569 -0.9082 -0.8917  3.7573
  929MOL0     H25376   9.164  10.404  10.748 -0.4370 -0.5157  1.6573
  929MOL0     H25377   9.770  10.299  10.920 -1.8632 -1.6612  0.4581
  929MOL0     H25378   9.930  10.428  11.042  0.2508  0.6036 -1.1667
  929MOL0     H25379  10.019  10.643  11.343  1.8897  0.7706 -1.7231
  929MOL0     H25380   9.983  10.486  11.282 -1.4938 -0.4525  0.4100
  929MOL0     H25381  10.060  10.621  11.045 -1.7020  0.5316  0.2985
  929MOL0     H25382  10.102  10.742  11.167  0.5567 -0.8582  2.5125
  929MOL0     H25383  10.220  10.472  11.127  2.8414 -0.6065  0.2732
  929MOL0     H25384  10.299  10.629  11.085  0.6501 -0.9372 -0.4425
  929MOL0     H25385  10.263  10.510  11.359  0.9507 -0.3904  0.4557
  929MOL0     H25386  10.266  10.688  11.335  0.4996  1.1678 -0.4507
  929MOL0     H25387  10.471  10.679  11.224 -0.7149 -0.3719 -0.1479
  929MOL0     H25388  10.474  10.507  11.216 -0.1505 -1.0106  0.2526
  929MOL0     H25389  10.468  10.630  11.502 -1.6102 -0.9892 -0.6650
  929MOL0     H25390  10.517  10.471  11.451  1.1964  1.0298  2.4618
  929MOL0     H25391  10.708  10.541  11.349 -2.8345 -0.7116 -0.5287
  929MOL0     H25392  10.709  10.572  11.524 -2.1568 -1.2425  0.6399
  929MOL0     H25393  10.793  10.764  11.425 -0.2764 -0.3784  0.1196
  929MOL0     H25394  10.654  10.801  11.321  0.0250  2.4965  1.5610
  929MOL0     H25395   9.590  10.643  11.229  1.0306 -1.4138  2.4881
  929MOL0     H25396   9.443  10.527  11.079 -0.2922 -1.3027 -0.4553
  929MOL0     H25397   9.510  10.182  10.694 -0.1794 -0.3389 -1.0407
  929MOL0     H25398   9.413  10.035  10.514 -3.0017 -1.3946 -0.0800
  929MOL0     H25399   9.720   9.085   9.438 -0.9734 -1.6336  0.1015
  929MOL0     H25400   9.622   8.920   9.297 -0.9214  1.6609  0.0499
  929MOL0     H25401   9.531   8.669   9.237 -2.9006 -0.4621 -0.3148
  929MOL0     H25402   9.340   8.529   9.218 -0.6939  1.9037 -1.0553
  929MOL0     H25403   9.131   8.417   9.049  1.1588 -0.8596 -0.7642
  929MOL0     H25404   9.203   8.365   9.204  0.5036  1.7613 -0.5281
  929MOL0     H25405   9.070   8.211   8.972  2.4691 -1.6664  0.0548
  929MOL0     H25406   8.994   8.260   9.125  0.0375  1.3814 -0.0618
  929MOL0     H25407   9.173   8.099   9.234  0.8857  2.9810 -0.7367
  929MOL0     H25408   9.211   8.036   9.076  0.3379  1.3628 -2.0422
  929MOL0     H25409   8.964   7.955   9.077 -1.1782 -0.7437  0.1105
  929MOL0     H25410   9.063   7.900   9.209 -1.4830 -1.1839 -1.0431
  929MOL0     H25411   8.776   8.123   9.421  0.6327 -0.5477  0.4710
  929MOL0     H25412   9.508   8.285   8.921 -0.9567  0.7514 -0.2304
  929MOL0     H25413   9.741   8.344   8.845  0.8667 -1.7186  2.5771
  929MOL0     H25414   9.758   8.517   8.839  0.5364  1.2923  0.0532
  929MOL0     H25415   9.850   8.433   8.962  0.6572 -0.0973 -2.0110
  930MOL0     O25416   1.071   7.544  10.337 -0.6318  0.9892 -0.2679
  930MOL0     C25417   1.076   7.462  10.437 -0.3483 -0.1593  0.3076
  930MOL0     O25418   1.195   7.431  10.508 -0.3641 -0.7396 -0.2254
  930MOL0     C25419   1.313   7.495  10.491 -0.1342 -0.4085 -0.3776
  930MOL0     C25420   1.325   7.630  10.511  0.1021 -0.4566  0.5095
  930MOL0     C25421   1.454   7.695  10.507 -0.2156 -0.4008  0.0438
  930MOL0     C25422   1.568   7.619  10.470 -0.8851  0.4012 -0.6231
  930MOL0     O25423   1.694   7.688  10.462  0.1931  0.3250  0.9997
  930MOL0     C25424   1.794   7.623  10.381 -0.4429  0.4093  0.2189
  930MOL0     C25425   1.909   7.718  10.353 -0.3251 -0.0349 -0.0767
  930MOL0     C25426   1.867   7.853  10.316 -0.2674 -0.4238 -0.1249
  930MOL0     C25427   1.984   7.932  10.247 -0.2259 -0.2402  0.2393
  930MOL0     C25428   2.078   8.006  10.347  0.2213 -0.0464 -0.0312
  930MOL0     C25429   2.146   8.112  10.275 -0.8113  0.3161  0.1656
  930MOL0     C25430   2.270   8.175  10.355 -0.4371  0.4782 -0.2891
  930MOL0     C25431   2.396   8.093  10.357 -0.5777 -0.8499  0.4533
  930MOL0     N25432   2.513   8.160  10.420  0.4921  0.1595 -0.0524
  930MOL0     C25433   2.608   8.098  10.501  0.5146  0.9862  0.8410
  930MOL0     C25434   2.710   8.185  10.512 -0.1632 -0.2454  0.4850
  930MOL0     C25435   2.838   8.172  10.579 -1.3843 -0.2859  0.6551
  930MOL0     C25436   2.942   8.104  10.482 -0.0938 -0.1582  0.3410
  930MOL0     C25437   2.920   7.949  10.491  0.2853 -0.1274  0.4185
  930MOL0     C25438   3.017   7.882  10.396 -0.4379 -0.2818 -0.3997
  930MOL0     O25439   3.141   7.909  10.464 -0.3178  0.0107  0.5710
  930MOL0     C25440   3.255   7.851  10.405 -0.6296  0.0546  1.0608
  930MOL0     C25441   3.374   7.862  10.477  0.2763  0.6786  0.5462
  930MOL0     C25442   3.498   7.809  10.429  0.3597 -0.2255  0.1993
  930MOL0     C25443   3.498   7.745  10.307  0.0935 -0.3183 -0.1312
  930MOL0     C25444   3.617   7.683  10.251 -0.5777 -0.1904 -0.5472
  930MOL0     O25445   3.740   7.727  10.301 -0.7491  0.7900  0.1650
  930MOL0     C25446   3.861   7.668  10.268 -0.2930 -0.0662 -0.3414
  930MOL0     C25447   3.979   7.751  10.269 -0.2582  0.6128 -0.5548
  930MOL0     C25448   4.101   7.685  10.246  0.3828 -0.8450 -0.5512
  930MOL0     C25449   4.112   7.551  10.226 -0.3686  0.5598  0.2803
  930MOL0     O25450   4.234   7.483  10.204  0.3600  0.0206 -0.3610
  930MOL0     C25451   4.325   7.553  10.117 -1.1162  0.1907  0.0374
  930MOL0     C25452   4.301   7.562   9.964  0.3122 -0.2892 -0.0081
  930MOL0     C25453   4.276   7.418   9.908  0.1575  0.0602 -0.4010
  930MOL0     C25454   4.224   7.413   9.760 -0.6408 -0.1299  0.3122
  930MOL0     C25455   4.117   7.507   9.722  0.0724 -0.4963  0.2699
  930MOL0     C25456   3.996   7.498   9.815  0.4444 -0.3098 -0.2702
  930MOL0     C25457   3.890   7.595   9.771  0.5083 -0.1609  0.1587
  930MOL0     C25458   3.780   7.604   9.876  0.6507 -0.0391 -0.4361
  930MOL0    Cl25459   3.645   7.727   9.831  0.2751 -0.1286 -0.3960
  930MOL0     C25460   3.993   7.478  10.216 -0.4139  0.0558  0.6884
  930MOL0     C25461   3.870   7.532  10.231  0.3458  0.1856  0.5070
  930MOL0     O25462   3.602   7.602  10.161  0.0640  0.7041  0.2233
  930MOL0     C25463   3.380   7.740  10.237 -0.0245  0.4902  0.0104
  930MOL0     C25464   3.258   7.789  10.283  0.4228  0.1643 -0.4207
  930MOL0     N25465   2.666   8.307  10.460 -0.0505  0.3797 -0.2476
  930MOL0     N25466   2.556   8.287  10.399  0.0059  0.0746 -0.1358
  930MOL0     C25467   1.550   7.489  10.436  0.3267  0.8886  1.0019
  930MOL0     C25468   1.424   7.425  10.447  0.6893 -1.1245  0.1281
  930MOL0     C25469   0.968   7.367  10.456 -0.4772 -0.0420 -0.3188
  930MOL0     C25470   0.909   7.371  10.584  0.0725 -0.0236  1.4061
  930MOL0     C25471   0.796   7.290  10.613 -0.7346 -0.5265 -0.7021
  930MOL0     C25472   0.745   7.200  10.516 -0.0326 -0.5338 -0.6831
  930MOL0     O25473   0.635   7.132  10.558 -0.2884 -0.0234  0.2675
  930MOL0     C25474   0.577   7.035  10.467  0.5205 -1.0076 -0.2474
  930MOL0     C25475   0.655   6.907  10.470  0.2014 -0.2292  0.1581
  930MOL0     C25476   0.619   6.805  10.361 -0.5742  0.4376 -0.3752
  930MOL0     C25477   0.477   6.747  10.351 -0.0900 -0.0208 -0.2348
  930MOL0     C25478   0.373   6.843  10.318  0.5526  0.3310 -0.3941
  930MOL0     C25479   0.291   6.931  10.292  0.2298  0.0972 -0.1333
  930MOL0     C25480   0.798   7.208  10.383 -0.2736  0.7206  0.3836
  930MOL0     C25481   0.908   7.283  10.355 -0.3477 -0.8086  0.2736
  930MOL0     C25482   0.987   7.275  10.222 -0.2785  0.5014 -0.2271
  930MOL0     H25483   1.238   7.689  10.537  0.5284  1.1419 -1.4084
  930MOL0     H25484   1.460   7.803  10.508  0.4510 -0.2919 -3.4739
  930MOL0     H25485   1.830   7.532  10.429 -0.2837  0.4606  0.1975
  930MOL0     H25486   1.736   7.606  10.289  0.1992  1.5517 -0.4221
  930MOL0     H25487   1.958   7.682  10.262  1.2458  1.1878  0.2562
  930MOL0     H25488   1.993   7.731  10.421  0.2497  2.5024 -1.1373
  930MOL0     H25489   1.835   7.913  10.401  2.5017 -0.8174  1.3250
  930MOL0     H25490   1.787   7.853  10.241 -2.7871 -0.5114  2.4058
  930MOL0     H25491   2.035   7.870  10.172 -2.4811  0.2665 -1.8121
  930MOL0     H25492   1.930   8.004  10.185 -0.3895 -1.7464 -1.4649
  930MOL0     H25493   2.016   8.055  10.423 -3.0588  0.8493 -3.0025
  930MOL0     H25494   2.143   7.935  10.399 -2.3173 -3.6966 -1.3472
  930MOL0     H25495   2.173   8.067  10.179 -0.6216  0.0971  0.3220
  930MOL0     H25496   2.078   8.194  10.251 -1.8208 -0.5222  0.0991
  930MOL0     H25497   2.245   8.201  10.458  2.3552  0.4859  0.4724
  930MOL0     H25498   2.303   8.268  10.307 -1.6240  0.6172 -0.8630
  930MOL0     H25499   2.377   8.003  10.417  0.8551 -0.0832  2.1296
  930MOL0     H25500   2.429   8.072  10.255 -1.5431  0.5209 -0.1698
  930MOL0     H25501   2.596   7.997  10.538  2.4350  0.8522  1.1957
  930MOL0     H25502   2.874   8.272  10.604 -1.9408  0.0631  0.0936
  930MOL0     H25503   2.835   8.119  10.675 -1.5258  0.0981  0.8613
  930MOL0     H25504   2.933   8.151  10.383  3.4370  1.8288  0.7960
  930MOL0     H25505   3.040   8.138  10.515  0.1511  0.6620 -1.1315
  930MOL0     H25506   2.819   7.929  10.452  1.3651 -1.3147 -2.0003
  930MOL0     H25507   2.937   7.908  10.591 -1.5688 -0.6129  0.5749
  930MOL0     H25508   3.014   7.931  10.298 -0.3097 -0.7733 -0.6475
  930MOL0     H25509   3.012   7.773  10.400 -0.3205 -0.2628  0.9043
  930MOL0     H25510   3.363   7.912  10.573  3.3126  2.7074 -0.0124
  930MOL0     H25511   3.587   7.800  10.490  2.5690 -1.9663 -3.0061
  930MOL0     H25512   3.968   7.859  10.272  2.6048  1.0258 -1.6725
  930MOL0     H25513   4.193   7.740  10.264 -0.3508  0.1256  0.3643
  930MOL0     H25514   4.350   7.657  10.139  2.3320 -0.0483 -1.9700
  930MOL0     H25515   4.426   7.512  10.128 -1.5839 -1.2464 -0.7708
  930MOL0     H25516   4.221   7.633   9.941 -1.2558 -2.3651 -1.2722
  930MOL0     H25517   4.386   7.599   9.907 -0.8871 -0.7237 -2.1905
  930MOL0     H25518   4.373   7.368   9.920  1.3183  2.6677  2.2879
  930MOL0     H25519   4.209   7.369   9.978  1.1592 -0.1178  0.4521
  930MOL0     H25520   4.196   7.308   9.745  0.7353 -0.3453 -0.9818
  930MOL0     H25521   4.306   7.435   9.691 -1.1609  0.4434 -0.1344
  930MOL0     H25522   4.087   7.495   9.618 -0.0501  1.3493  0.0492
  930MOL0     H25523   4.148   7.612   9.717 -0.4462 -0.3801 -2.9729
  930MOL0     H25524   3.957   7.397   9.801  2.7360 -1.2304 -0.5153
  930MOL0     H25525   4.015   7.513   9.922 -0.9600 -1.7518  0.2262
  930MOL0     H25526   3.853   7.560   9.674  2.8117 -1.2533 -0.3896
  930MOL0     H25527   3.931   7.695   9.757  4.8224 -1.7711 -0.1707
  930MOL0     H25528   3.737   7.506   9.895  1.2691 -0.0159  1.3118
  930MOL0     H25529   3.813   7.633   9.976  0.5026 -1.5193  0.0625
  930MOL0     H25530   4.007   7.373  10.189  0.0194  0.8415 -2.5959
  930MOL0     H25531   3.786   7.463  10.228 -1.2311  2.0288  0.0025
  930MOL0     H25532   3.363   7.693  10.140 -2.6080  0.8500  0.2068
  930MOL0     H25533   3.168   7.781  10.223 -0.6484 -1.5766  1.2592
  930MOL0     H25534   1.634   7.429  10.402 -0.2512  1.2555 -1.2621
  930MOL0     H25535   1.423   7.318  10.431  4.7726 -1.3659  0.4097
  930MOL0     H25536   0.933   7.444  10.661  2.8705  0.5733  0.0921
  930MOL0     H25537   0.740   7.302  10.706 -0.5922  0.2212 -0.7031
  930MOL0     H25538   0.573   7.075  10.366 -0.9479  2.5101  1.0454
  930MOL0     H25539   0.479   7.015  10.511  1.8236 -1.1634  2.8103
  930MOL0     H25540   0.636   6.865  10.569  1.8604  1.6178  1.3380
  930MOL0     H25541   0.760   6.936  10.467  0.3727 -0.8915 -1.2803
  930MOL0     H25542   0.691   6.723  10.366  1.3609  2.0974  0.6688
  930MOL0     H25543   0.638   6.863  10.271  0.2715 -0.1980 -0.6156
  930MOL0     H25544   0.480   6.663  10.282  1.2750  1.0337 -1.5427
  930MOL0     H25545   0.454   6.711  10.452 -0.4398  0.5967 -0.0849
  930MOL0     H25546   0.205   6.992  10.277  1.7366  2.2826 -0.2475
  930MOL0     H25547   0.765   7.136  10.309 -0.1817  0.2048  0.8418
  930MOL0     H25548   1.011   7.368  10.170  0.3147  2.1996  2.8533
  930MOL0     H25549   1.083   7.227  10.243 -2.0633 -3.1145  0.4239
  930MOL0     H25550   0.935   7.208  10.153 -0.2866  3.0998 -2.9636
  931MOL0     O25551   5.085   2.060   2.832  0.1476 -0.0106 -0.7165
  931MOL0     C25552   5.105   2.065   2.953 -0.1772 -0.4424 -0.0741
  931MOL0     O25553   5.213   2.101   3.012  0.2754 -0.9114  0.1089
  931MOL0     C25554   5.335   2.092   2.945 -0.1657 -0.3229 -0.5695
  931MOL0     C25555   5.386   2.207   2.882  0.0564  0.0713  0.4450
  931MOL0     C25556   5.498   2.193   2.808  0.4105  0.1924  0.4423
  931MOL0     C25557   5.578   2.081   2.809  0.7097  0.1308 -1.0116
  931MOL0     O25558   5.690   2.072   2.743  0.1275  0.7547  0.0624
  931MOL0     C25559   5.800   2.149   2.789  0.1699 -0.7659  0.0042
  931MOL0     C25560   5.909   2.168   2.678  0.6011  0.5732 -0.2778
  931MOL0     C25561   6.012   2.280   2.720  0.0558  0.3356 -0.8194
  931MOL0     C25562   6.154   2.249   2.659  0.4434 -0.5140 -0.7513
  931MOL0     C25563   6.153   2.240   2.513 -0.2615  0.1299  0.1806
  931MOL0     C25564   6.117   2.374   2.447  0.2473 -0.5275 -0.3792
  931MOL0     C25565   6.144   2.359   2.302 -0.3995 -0.4256 -0.3370
  931MOL0     C25566   6.071   2.469   2.218  0.2211  0.6516 -0.3533
  931MOL0     N25567   5.926   2.457   2.229 -0.2825  0.9608 -0.8743
  931MOL0     C25568   5.848   2.368   2.160 -0.0900  0.0167 -0.1030
  931MOL0     C25569   5.720   2.410   2.179  0.3642 -0.3282 -0.3086
  931MOL0     C25570   5.592   2.344   2.126 -0.4381 -0.2124  0.0156
  931MOL0     C25571   5.570   2.216   2.200  0.1446  0.1009  1.1376
  931MOL0     C25572   5.532   2.242   2.344 -0.7445  0.3652 -0.3477
  931MOL0     C25573   5.452   2.127   2.392 -0.7724  0.2686 -0.0767
  931MOL0     O25574   5.322   2.105   2.327 -0.7531 -0.1550 -0.0605
  931MOL0     C25575   5.220   2.184   2.380 -0.4496  0.2747 -0.4697
  931MOL0     C25576   5.176   2.287   2.298 -0.0608 -0.3462 -0.0100
  931MOL0     C25577   5.067   2.372   2.341  0.0066 -0.3764 -0.1215
  931MOL0     C25578   5.003   2.347   2.461 -0.4837 -0.0532  0.5726
  931MOL0     C25579   4.889   2.429   2.504 -0.7706 -0.0047 -0.8198
  931MOL0     O25580   4.808   2.375   2.600 -0.6471 -0.3864 -0.5484
  931MOL0     C25581   4.698   2.444   2.637  0.0010  0.4953  0.0577
  931MOL0     C25582   4.681   2.583   2.665 -0.3046 -0.6096  0.9982
  931MOL0     C25583   4.552   2.633   2.675  0.4013  0.7225  0.2111
  931MOL0     C25584   4.441   2.551   2.672  0.0239  0.3570 -0.7895
  931MOL0     O25585   4.315   2.615   2.674  0.6090 -0.9454  0.1357
  931MOL0     C25586   4.193   2.535   2.663 -0.9876  0.3315  0.2774
  931MOL0     C25587   4.066   2.622   2.660  0.5276 -0.3649 -0.1889
  931MOL0     C25588   3.993   2.629   2.795 -0.2264  0.1843 -0.8018
  931MOL0     C25589   3.840   2.624   2.771 -0.0745  0.2096 -0.4264
  931MOL0     C25590   3.771   2.647   2.906  0.1316  0.3502  0.0515
  931MOL0     C25591   3.616   2.608   2.920  0.6445 -0.3504 -0.4058
  931MOL0     C25592   3.533   2.734   2.919 -0.9358 -0.2939 -0.7523
  931MOL0     C25593   3.381   2.718   2.917 -0.7709  0.5752  0.0425
  931MOL0    Cl25594   3.327   2.628   2.761 -0.5464 -0.0850 -0.0798
  931MOL0     C25595   4.458   2.412   2.659 -0.3521 -0.2082  0.8094
  931MOL0     C25596   4.588   2.358   2.645 -0.2261 -0.1470  0.7156
  931MOL0     O25597   4.881   2.544   2.457 -0.1198  0.5126  0.0068
  931MOL0     C25598   5.053   2.237   2.540 -0.3732 -0.5330  0.2349
  931MOL0     C25599   5.156   2.156   2.502 -0.7079 -0.9163  0.0628
  931MOL0     N25600   5.722   2.513   2.270 -0.2147  0.0211  0.8130
  931MOL0     N25601   5.842   2.533   2.309 -0.4277 -0.3275 -0.0770
  931MOL0     C25602   5.527   1.966   2.878  0.4731 -0.3141  0.2777
  931MOL0     C25603   5.401   1.969   2.937  0.7118 -0.1325  0.0684
  931MOL0     C25604   4.998   2.036   3.055 -0.2256  0.2577  0.5982
  931MOL0     C25605   5.028   2.051   3.194  0.7022  0.6534 -0.7542
  931MOL0     C25606   4.925   2.021   3.289  0.5768 -0.2178  0.6118
  931MOL0     C25607   4.800   1.971   3.252  0.1830  0.6048  0.2823
  931MOL0     O25608   4.726   1.940   3.363 -0.4018 -0.1943  0.1300
  931MOL0     C25609   4.585   1.915   3.341 -0.8007  0.0995 -0.1966
  931MOL0     C25610   4.525   1.883   3.479 -0.7538 -0.6477  0.4192
  931MOL0     C25611   4.374   1.843   3.477  0.4779  0.2800 -0.0960
  931MOL0     C25612   4.314   1.806   3.615 -1.1185 -0.7069  0.1312
  931MOL0     C25613   4.329   1.920   3.706  0.2721 -0.9216 -0.1547
  931MOL0     C25614   4.367   2.012   3.782  0.2304 -0.2607 -0.1021
  931MOL0     C25615   4.768   1.970   3.118 -0.1346 -0.3815  0.4527
  931MOL0     C25616   4.859   2.005   3.019 -0.3028  0.2344 -0.0081
  931MOL0     C25617   4.807   2.007   2.880 -0.5812 -0.2520  0.3012
  931MOL0     H25618   5.333   2.302   2.878 -1.3830 -0.7245 -2.2735
  931MOL0     H25619   5.534   2.281   2.755 -1.1301 -0.1953 -1.3717
  931MOL0     H25620   5.780   2.251   2.825  2.8278  0.6192 -2.0442
  931MOL0     H25621   5.847   2.092   2.869  2.5985  1.4762  0.3180
  931MOL0     H25622   5.869   2.191   2.579  0.3304  0.3804 -0.2151
  931MOL0     H25623   5.967   2.076   2.670  1.7647  1.0378  2.0559
  931MOL0     H25624   6.020   2.278   2.829 -0.1515 -0.4223 -0.8100
  931MOL0     H25625   5.976   2.375   2.681 -0.8315 -0.9506 -3.3778
  931MOL0     H25626   6.221   2.333   2.681  0.1927 -0.2243 -1.1051
  931MOL0     H25627   6.183   2.162   2.720  1.5799  0.8049  0.6796
  931MOL0     H25628   6.255   2.212   2.488 -0.1036  1.4242 -0.7113
  931MOL0     H25629   6.090   2.159   2.476 -2.8985  0.9302  2.5595
  931MOL0     H25630   6.007   2.382   2.450  0.1826 -1.6956  1.2809
  931MOL0     H25631   6.160   2.459   2.501 -1.6633  0.2568  0.0033
  931MOL0     H25632   6.108   2.266   2.257 -0.8018 -1.1084  1.3139
  931MOL0     H25633   6.252   2.369   2.295 -0.4362  0.4666  0.1860
  931MOL0     H25634   6.114   2.564   2.252  1.8442 -0.7411  1.7666
  931MOL0     H25635   6.095   2.454   2.112  1.1569  2.8357 -0.4915
  931MOL0     H25636   5.884   2.289   2.095 -0.3500 -0.5820  0.4667
  931MOL0     H25637   5.504   2.405   2.148 -0.1150  0.2545  0.0518
  931MOL0     H25638   5.610   2.330   2.019 -1.7807  0.1619 -0.2757
  931MOL0     H25639   5.500   2.145   2.154  1.2711 -0.7563  0.7020
  931MOL0     H25640   5.666   2.164   2.195  0.1996  0.3529 -2.7412
  931MOL0     H25641   5.485   2.337   2.372  1.9157  1.3590  1.0824
  931MOL0     H25642   5.617   2.241   2.412 -1.9746  0.5689  1.2757
  931MOL0     H25643   5.436   2.144   2.499  1.7892 -0.0216  0.4160
  931MOL0     H25644   5.518   2.040   2.387  2.6291  2.5387  1.5335
  931MOL0     H25645   5.239   2.307   2.212  1.1288  0.1172  0.9434
  931MOL0     H25646   5.033   2.452   2.276 -2.1411 -0.1363  1.1971
  931MOL0     H25647   4.766   2.649   2.676 -1.2065  0.4469  1.8238
  931MOL0     H25648   4.540   2.740   2.684  0.8519  1.0230 -2.0686
  931MOL0     H25649   4.200   2.479   2.569 -1.0706  2.8953 -1.3609
  931MOL0     H25650   4.187   2.467   2.748  0.0067  0.5320  0.5224
  931MOL0     H25651   4.083   2.717   2.610  1.7744 -1.1242 -1.2757
  931MOL0     H25652   3.995   2.573   2.592 -1.4715  0.0915  1.4656
  931MOL0     H25653   4.016   2.539   2.854 -1.4448  0.0407 -0.5259
  931MOL0     H25654   4.030   2.715   2.852 -1.4602 -0.6209  1.3384
  931MOL0     H25655   3.811   2.523   2.741 -1.4336 -0.0583  1.6307
  931MOL0     H25656   3.818   2.700   2.695 -1.8433  1.7926  1.5581
  931MOL0     H25657   3.781   2.745   2.953  1.4212 -1.1002  3.0328
  931MOL0     H25658   3.821   2.578   2.974 -2.5606  1.8124  3.8880
  931MOL0     H25659   3.591   2.538   2.840 -0.1643 -0.3149 -0.2005
  931MOL0     H25660   3.607   2.559   3.018 -1.1425 -0.7494 -0.7289
  931MOL0     H25661   3.579   2.791   2.838 -1.2424  1.7298  0.4314
  931MOL0     H25662   3.552   2.774   3.019  0.6908 -3.0759  0.1619
  931MOL0     H25663   3.344   2.665   3.005 -0.6776 -0.3370 -0.4513
  931MOL0     H25664   3.335   2.817   2.914 -1.5713  0.2658  1.2870
  931MOL0     H25665   4.372   2.346   2.656  0.4020 -1.2018 -2.3776
  931MOL0     H25666   4.594   2.251   2.628 -0.3571 -0.5484  2.9079
  931MOL0     H25667   4.999   2.208   2.630 -1.8994 -0.8401 -0.7495
  931MOL0     H25668   5.200   2.073   2.557 -1.4548 -0.6711  1.0650
  931MOL0     H25669   5.583   1.875   2.893  0.8592  0.1154  1.5961
  931MOL0     H25670   5.359   1.885   2.992 -1.9792  1.2999  0.3912
  931MOL0     H25671   5.129   2.073   3.229 -0.4407  0.9496  2.6638
  931MOL0     H25672   4.946   2.035   3.394 -0.6996 -1.5009  1.0757
  931MOL0     H25673   4.568   1.829   3.276 -2.3769  1.5521 -1.7955
  931MOL0     H25674   4.539   2.002   3.294 -0.9259 -1.3588 -2.9905
  931MOL0     H25675   4.556   1.964   3.546  0.9471  0.4029 -1.5409
  931MOL0     H25676   4.572   1.800   3.531 -1.1679 -1.1942 -0.0682
  931MOL0     H25677   4.348   1.754   3.420 -3.8801  0.2135  1.6292
  931MOL0     H25678   4.316   1.924   3.432 -0.1510 -0.2650 -0.2803
  931MOL0     H25679   4.211   1.769   3.607 -1.7356  1.1492 -1.4711
  931MOL0     H25680   4.373   1.727   3.661 -0.8303  0.2837  1.5350
  931MOL0     H25681   4.401   2.078   3.859  0.4928  0.2963 -0.6891
  931MOL0     H25682   4.669   1.936   3.087  0.1459 -1.2704  0.5129
  931MOL0     H25683   4.824   2.109   2.844 -0.2227  0.3043  1.9337
  931MOL0     H25684   4.847   1.925   2.821 -1.9217 -1.4326  0.9692
  931MOL0     H25685   4.699   1.992   2.873 -0.3818 -0.9118 -2.5436
  932MOL0     O25686  10.053   0.403   9.120 -0.3523 -0.6403  0.0529
  932MOL0     C25687   9.951   0.334   9.107 -0.3307  0.5093 -0.5872
  932MOL0     O25688   9.953   0.208   9.052 -0.4329 -0.5311 -0.1498
  932MOL0     C25689  10.078   0.147   9.032  0.0951  0.3063 -0.1348
  932MOL0     C25690  10.117   0.048   9.123 -0.2059 -0.0434 -0.4483
  932MOL0     C25691  10.247  -0.007   9.115  0.2365  0.6283  1.2791
  932MOL0     C25692  10.339   0.053   9.026 -0.3835 -0.1376 -0.5180
  932MOL0     O25693  10.467   0.012   9.021  0.7060  0.4280  0.2691
  932MOL0     C25694  10.554   0.063   8.925 -0.6947 -0.4292 -0.3674
  932MOL0     C25695  10.694   0.013   8.954 -0.0594  0.2168  0.5840
  932MOL0     C25696  10.797   0.089   8.879 -0.2863 -0.1698  0.8772
  932MOL0     C25697  10.941   0.022   8.898  0.1570  0.8202  0.2245
  932MOL0     C25698  11.051   0.095   8.822 -0.6312  0.4705  0.0496
  932MOL0     C25699  11.191   0.011   8.805 -0.0813 -0.6359  0.2891
  932MOL0     C25700  11.306   0.098   8.800 -0.0381 -0.5002  0.4858
  932MOL0     C25701  11.310   0.183   8.673  0.5478 -0.2129 -0.0960
  932MOL0     N25702  11.451   0.207   8.627 -0.1148  0.3827  1.0674
  932MOL0     C25703  11.566   0.224   8.700 -0.3522 -0.6146 -0.0224
  932MOL0     C25704  11.662   0.183   8.616 -0.0757  0.2509  0.1512
  932MOL0     C25705  11.808   0.155   8.653 -1.1699  0.6096  0.1562
  932MOL0     C25706  11.814   0.071   8.777 -0.0990 -0.6404  0.0618
  932MOL0     C25707  11.952   0.022   8.821 -0.8676  0.3175 -0.4223
  932MOL0     C25708  12.027   0.137   8.891  0.2160  0.3478  0.2821
  932MOL0     O25709  12.145   0.073   8.938  0.2081 -0.3684 -0.7203
  932MOL0     C25710  12.259   0.143   8.961 -0.0587 -0.5744 -0.2317
  932MOL0     C25711  12.281   0.282   8.955 -0.7451 -0.1529  0.4912
  932MOL0     C25712  12.418   0.325   8.987  0.4804  0.3330 -0.2580
  932MOL0     C25713  12.521   0.240   9.034 -0.1082  0.1847  0.1422
  932MOL0     C25714  12.656   0.292   9.063  0.6372  0.9318 -0.2274
  932MOL0     O25715  12.756   0.204   9.041 -0.4442 -0.1257 -0.4839
  932MOL0     C25716  12.883   0.234   9.088  0.1522  0.1683  0.4818
  932MOL0     C25717  12.977   0.178   9.003 -0.1458  0.3069  0.6428
  932MOL0     C25718  13.110   0.204   9.024  0.4323  0.4727 -0.2374
  932MOL0     C25719  13.145   0.283   9.128  0.6284 -0.3192  0.7196
  932MOL0     O25720  13.275   0.293   9.152 -0.2071  0.1035  0.0406
  932MOL0     C25721  13.323   0.370   9.252 -0.1055  0.1934 -0.3636
  932MOL0     C25722  13.475   0.331   9.266 -0.0565 -0.4681 -0.3731
  932MOL0     C25723  13.571   0.388   9.158  0.4810  0.2115 -0.5366
  932MOL0     C25724  13.716   0.338   9.174  0.3325 -0.0231  0.1458
  932MOL0     C25725  13.814   0.407   9.081 -0.3455  0.5692  0.3330
  932MOL0     C25726  13.953   0.336   9.099  0.6462  0.7228  0.4159
  932MOL0     C25727  13.986   0.234   8.993 -0.7570 -0.0717 -0.1249
  932MOL0     C25728  14.125   0.184   9.012  0.0712  0.1054  0.0354
  932MOL0    Cl25729  14.143   0.059   8.886 -0.1906 -0.1545 -0.3666
  932MOL0     C25730  13.049   0.332   9.221 -0.3216  0.1156 -0.3977
  932MOL0     C25731  12.911   0.313   9.204  0.0448  0.8672 -0.3159
  932MOL0     O25732  12.663   0.408   9.099 -0.5692  1.2548  0.2207
  932MOL0     C25733  12.483   0.108   9.051  0.1134 -0.2805  0.5325
  932MOL0     C25734  12.356   0.060   9.001  0.6136  0.0978  0.5943
  932MOL0     N25735  11.613   0.167   8.487 -0.1448  1.2223 -0.2649
  932MOL0     N25736  11.486   0.175   8.497 -0.2299 -0.0694  0.2932
  932MOL0     C25737  10.293   0.158   8.945 -0.7877 -0.6319 -0.0757
  932MOL0     C25738  10.160   0.199   8.940 -0.6166 -0.6920 -0.0907
  932MOL0     C25739   9.816   0.380   9.156 -0.9880 -0.0476 -0.0569
  932MOL0     C25740   9.701   0.331   9.096  0.1183  0.0960 -0.1068
  932MOL0     C25741   9.574   0.380   9.149  0.3194  0.2721  0.2674
  932MOL0     C25742   9.574   0.487   9.234  0.2762  0.2820  0.5812
  932MOL0     O25743   9.445   0.534   9.263  0.5473  0.2424 -0.2652
  932MOL0     C25744   9.420   0.657   9.329  0.0722 -0.4839 -0.2833
  932MOL0     C25745   9.270   0.674   9.378 -0.4868  0.0049  0.1812
  932MOL0     C25746   9.246   0.565   9.487  0.4434 -0.4322  0.4188
  932MOL0     C25747   9.093   0.530   9.495 -0.6433  0.2272 -0.1764
  932MOL0     C25748   9.020   0.624   9.582  0.3917 -0.5490  0.7392
  932MOL0     C25749   8.956   0.710   9.636  0.1191  0.3845 -1.0658
  932MOL0     C25750   9.687   0.539   9.285  0.3002 -0.2455  1.1291
  932MOL0     C25751   9.811   0.483   9.256  0.3796 -0.8541  0.2186
  932MOL0     C25752   9.919   0.542   9.344 -0.2325  0.0161  0.1163
  932MOL0     H25753  10.043   0.019   9.196 -0.1205 -0.2291 -0.4341
  932MOL0     H25754  10.272  -0.091   9.179  1.1577  1.6705  2.3611
  932MOL0     H25755  10.517   0.052   8.822  0.1602  0.2398 -0.7552
  932MOL0     H25756  10.559   0.171   8.939 -0.1845 -0.3879 -0.8337
  932MOL0     H25757  10.701  -0.095   8.943 -0.9294  0.1891  0.2638
  932MOL0     H25758  10.715   0.038   9.059  1.1547  0.4652  0.2937
  932MOL0     H25759  10.791   0.192   8.914  1.4564  0.2476  0.0516
  932MOL0     H25760  10.770   0.083   8.773 -0.5791  0.8531  0.8903
  932MOL0     H25761  10.953   0.001   9.005 -1.7808  0.6308  0.4504
  932MOL0     H25762  10.938  -0.067   8.834  0.3962  0.5410  0.5972
  932MOL0     H25763  11.017   0.110   8.719 -3.0418  1.6995  0.9692
  932MOL0     H25764  11.076   0.192   8.866 -0.0726  0.1352  0.4824
  932MOL0     H25765  11.203  -0.062   8.885 -0.8338 -1.1229 -0.0281
  932MOL0     H25766  11.180  -0.048   8.713  0.9101  2.2277 -1.7949
  932MOL0     H25767  11.397   0.037   8.802  0.2054 -0.1229  1.0225
  932MOL0     H25768  11.313   0.161   8.889  2.5031 -0.0654  0.0494
  932MOL0     H25769  11.254   0.137   8.591  0.9397 -1.7239  0.4671
  932MOL0     H25770  11.253   0.272   8.700  1.1027  0.2309 -0.3601
  932MOL0     H25771  11.577   0.249   8.805 -3.6246 -1.3184  0.5965
  932MOL0     H25772  11.855   0.112   8.564 -1.5633 -0.6932  0.5571
  932MOL0     H25773  11.869   0.244   8.671  1.2206 -0.5525 -1.7250
  932MOL0     H25774  11.769   0.122   8.863 -2.5500 -3.8255  0.8331
  932MOL0     H25775  11.760  -0.022   8.760  1.0539 -1.0098 -1.8689
  932MOL0     H25776  12.009  -0.013   8.734  3.1325  2.2098  1.1739
  932MOL0     H25777  11.936  -0.061   8.890 -2.1651  0.4503 -0.5467
  932MOL0     H25778  11.966   0.173   8.974  1.0058 -0.2308  1.1406
  932MOL0     H25779  12.043   0.211   8.812 -1.5597 -0.1645 -0.6097
  932MOL0     H25780  12.206   0.357   8.935 -0.5909  0.1500  1.0345
  932MOL0     H25781  12.430   0.432   8.980 -1.5525  0.5895 -0.3603
  932MOL0     H25782  12.951   0.104   8.928 -0.0362  0.8075  0.1017
  932MOL0     H25783  13.191   0.169   8.960  1.0953 -1.3221  1.4660
  932MOL0     H25784  13.307   0.474   9.224  1.4583  0.5982  0.1250
  932MOL0     H25785  13.278   0.346   9.349 -2.6021  3.2344 -0.6354
  932MOL0     H25786  13.508   0.370   9.363  1.8485 -1.4182 -0.5993
  932MOL0     H25787  13.486   0.223   9.263 -1.6504 -0.7133  0.9669
  932MOL0     H25788  13.539   0.356   9.058  2.6599  0.9018 -1.5134
  932MOL0     H25789  13.562   0.496   9.174 -1.5704 -0.0647  0.5046
  932MOL0     H25790  13.719   0.229   9.168 -0.2800 -0.0636  0.4997
  932MOL0     H25791  13.741   0.370   9.276 -0.5760  0.2944  0.2769
  932MOL0     H25792  13.825   0.512   9.108 -1.8653  0.7201  0.4594
  932MOL0     H25793  13.784   0.395   8.977 -1.5757  0.3475  0.7041
  932MOL0     H25794  14.027   0.415   9.085  2.1371 -0.7994 -0.6606
  932MOL0     H25795  13.973   0.303   9.202  4.3340 -0.0991 -0.4275
  932MOL0     H25796  13.972   0.281   8.895 -2.7556  1.1631  0.6830
  932MOL0     H25797  13.918   0.148   8.987  0.5568 -1.1490 -0.0498
  932MOL0     H25798  14.198   0.264   8.997  0.0414 -0.3694 -3.8659
  932MOL0     H25799  14.144   0.135   9.108 -0.6362 -1.1011 -0.4200
  932MOL0     H25800  13.077   0.386   9.311  0.1282  0.9618 -1.0298
  932MOL0     H25801  12.844   0.344   9.284 -0.4290  0.9343 -0.7312
  932MOL0     H25802  12.545   0.034   9.101 -0.0595 -0.5720  0.3153
  932MOL0     H25803  12.335  -0.046   9.008 -3.1842  0.7633  1.2914
  932MOL0     H25804  10.358   0.219   8.883 -0.7898  2.6988  2.8998
  932MOL0     H25805  10.121   0.280   8.880  0.5101  0.7853  1.1057
  932MOL0     H25806   9.709   0.246   9.029 -0.7726 -0.7709  0.8433
  932MOL0     H25807   9.485   0.326   9.118  1.5503 -2.7948  1.7105
  932MOL0     H25808   9.447   0.730   9.253  1.6152 -2.9294 -2.2552
  932MOL0     H25809   9.488   0.671   9.413  1.5153 -0.9059 -1.3364
  932MOL0     H25810   9.202   0.663   9.293 -0.1609 -1.0231  0.0377
  932MOL0     H25811   9.245   0.775   9.412 -2.2324 -0.4131  0.2531
  932MOL0     H25812   9.275   0.601   9.586 -0.8617 -0.2548  0.7533
  932MOL0     H25813   9.305   0.480   9.451  2.0735  0.9357 -0.2811
  932MOL0     H25814   9.050   0.549   9.396 -0.7474  0.8322 -0.0207
  932MOL0     H25815   9.070   0.431   9.535 -2.6847  1.1761  1.2027
  932MOL0     H25816   8.913   0.786   9.698 -0.1334  0.2250 -1.0439
  932MOL0     H25817   9.687   0.627   9.349  0.1007  1.8028 -1.4870
  932MOL0     H25818   9.889   0.511   9.444  0.1569 -2.3553 -0.4396
  932MOL0     H25819  10.015   0.490   9.333 -0.1293  0.2072  0.1033
  932MOL0     H25820   9.939   0.650   9.334 -1.4131  0.1249 -1.3651
  933MOL0     O25821   0.428   0.506  10.290 -0.3071  0.1261  0.3915
  933MOL0     C25822   0.341   0.557  10.213 -0.7433  0.4095  1.0303
  933MOL0     O25823   0.235   0.482  10.169  0.3069 -0.2890  0.0421
  933MOL0     C25824   0.251   0.351  10.133  0.8882 -0.2996 -0.1144
  933MOL0     C25825   0.138   0.264  10.134  0.1010 -0.4465 -0.7138
  933MOL0     C25826   0.138   0.138  10.089  0.0949  0.2744  0.3736
  933MOL0     C25827   0.262   0.084  10.057 -0.1905  0.6732 -0.5280
  933MOL0     O25828   0.283  -0.050  10.030  0.0918  0.2025 -0.1945
  933MOL0     C25829   0.176  -0.136  10.008 -0.4454  0.4896  0.4447
  933MOL0     C25830   0.230  -0.254   9.944 -0.0012 -0.5558  0.0551
  933MOL0     C25831   0.322  -0.333  10.037  0.3252  0.2860 -0.3195
  933MOL0     C25832   0.363  -0.464   9.960 -0.2978  0.1151  0.6226
  933MOL0     C25833   0.482  -0.455   9.857  0.5342  0.8118  0.1358
  933MOL0     C25834   0.606  -0.380   9.911  0.6310  0.0884 -0.5431
  933MOL0     C25835   0.670  -0.448  10.032  0.6101 -0.8809 -0.6759
  933MOL0     C25836   0.749  -0.576  10.013 -0.9009 -0.0888  0.2011
  933MOL0     N25837   0.797  -0.602  10.145 -0.1042  0.1274 -0.0074
  933MOL0     C25838   0.714  -0.664  10.246 -0.9591 -0.2966  0.6486
  933MOL0     C25839   0.792  -0.666  10.361 -0.0977 -0.1694 -0.5596
  933MOL0     C25840   0.767  -0.739  10.491 -0.7536 -0.6710 -0.6329
  933MOL0     C25841   0.874  -0.843  10.542  0.7903  0.2441 -0.1634
  933MOL0     C25842   0.819  -0.959  10.628  0.1333  0.1366  0.2837
  933MOL0     C25843   0.824  -1.101  10.550 -0.2585  0.0106 -0.2295
  933MOL0     O25844   0.755  -1.088  10.420  0.0572  0.3583  0.6975
  933MOL0     C25845   0.620  -1.079  10.421  0.2947  0.2934  0.7133
  933MOL0     C25846   0.562  -1.016  10.309  0.0702 -0.4492 -0.0492
  933MOL0     C25847   0.421  -1.000  10.308 -0.1818  0.0371  0.4431
  933MOL0     C25848   0.336  -1.044  10.407  0.1530 -0.5387  0.3579
  933MOL0     C25849   0.186  -1.012  10.399 -0.0066 -0.0832 -0.4154
  933MOL0     O25850   0.120  -1.021  10.524  0.0276 -0.1881  0.0712
  933MOL0     C25851  -0.011  -0.978  10.509  0.4815 -0.7598 -0.2580
  933MOL0     C25852  -0.113  -1.049  10.453  0.3966 -0.1137 -0.0172
  933MOL0     C25853  -0.241  -0.994  10.441  0.2584 -0.6194 -0.2856
  933MOL0     C25854  -0.268  -0.865  10.482 -0.5848  0.3885  0.3445
  933MOL0     O25855  -0.396  -0.828  10.469  0.3890  0.3248 -0.3108
  933MOL0     C25856  -0.450  -0.697  10.494 -0.5779 -0.2628 -0.1320
  933MOL0     C25857  -0.595  -0.698  10.446 -0.1751  0.1256  0.4855
  933MOL0     C25858  -0.659  -0.561  10.476 -0.3600  0.7427 -1.0409
  933MOL0     C25859  -0.803  -0.561  10.448 -0.5104  0.2879  1.0669
  933MOL0     C25860  -0.875  -0.440  10.506 -0.4112  0.1813 -0.7807
  933MOL0     C25861  -1.011  -0.422  10.441 -0.2441  0.6181 -0.1707
  933MOL0     C25862  -1.096  -0.295  10.481  0.2532 -0.4041 -0.4539
  933MOL0     C25863  -1.218  -0.253  10.398 -0.4405 -0.5910 -0.0878
  933MOL0    Cl25864  -1.306  -0.134  10.495  0.1236 -0.1317 -0.2535
  933MOL0     C25865  -0.165  -0.788  10.535  0.0025  0.6412  0.2672
  933MOL0     C25866  -0.043  -0.847  10.559 -0.9621 -0.0120  0.0356
  933MOL0     O25867   0.136  -0.988  10.290 -0.3544  0.3155 -0.2316
  933MOL0     C25868   0.393  -1.110  10.516  0.2637  0.1222 -0.1305
  933MOL0     C25869   0.533  -1.127  10.524 -0.2136 -0.3382 -1.0806
  933MOL0     N25870   0.918  -0.609  10.325  0.3108 -0.1583  0.2269
  933MOL0     N25871   0.917  -0.565  10.198  0.1157  0.6421  0.0827
  933MOL0     C25872   0.380   0.163  10.057 -0.1164  0.6892 -0.0710
  933MOL0     C25873   0.373   0.301  10.079 -0.4660 -0.1365 -0.4508
  933MOL0     C25874   0.329   0.700  10.198 -0.2761  0.2622 -0.0542
  933MOL0     C25875   0.202   0.756  10.192 -0.4467 -0.1425  0.5836
  933MOL0     C25876   0.185   0.894  10.175 -0.2366  0.4882  0.9362
  933MOL0     C25877   0.300   0.977  10.163  0.4488  1.1578  0.4956
  933MOL0     O25878   0.284   1.109  10.118 -0.1688 -0.7811 -0.1553
  933MOL0     C25879   0.163   1.163  10.058  0.1098  0.2869 -1.1712
  933MOL0     C25880   0.150   1.105   9.915  0.5494 -0.5392  0.3168
  933MOL0     C25881   0.033   1.169   9.828  0.1950 -0.5576 -0.1800
  933MOL0     C25882   0.064   1.166   9.679 -0.0735 -1.1709 -0.2721
  933MOL0     C25883   0.061   1.030   9.633 -0.1102  0.1033  0.3819
  933MOL0     C25884   0.053   0.922   9.580 -0.3447  0.0825  0.7043
  933MOL0     C25885   0.428   0.915  10.163 -0.0641  0.8871  0.2488
  933MOL0     C25886   0.447   0.776  10.186  0.0614  0.6201 -0.1009
  933MOL0     C25887   0.586   0.710  10.200  0.3246 -0.0375 -0.6744
  933MOL0     H25888   0.041   0.298  10.169  0.0261 -1.9973  0.7179
  933MOL0     H25889   0.050   0.075  10.083  1.4239 -1.5119 -2.7466
  933MOL0     H25890   0.126  -0.157  10.103  0.2063  0.1818  0.7314
  933MOL0     H25891   0.104  -0.094   9.937  0.5047 -2.1657 -2.3651
  933MOL0     H25892   0.277  -0.223   9.850 -1.4789  0.6976 -0.3269
  933MOL0     H25893   0.151  -0.324   9.914  0.6046  0.3567 -4.4974
  933MOL0     H25894   0.264  -0.362  10.125  0.3909 -0.5026 -0.5223
  933MOL0     H25895   0.408  -0.284  10.082 -0.2558  0.3752  0.7188
  933MOL0     H25896   0.404  -0.529  10.039  0.7240  1.5643  1.3257
  933MOL0     H25897   0.277  -0.518   9.920 -1.1741 -0.1635  2.7364
  933MOL0     H25898   0.507  -0.558   9.834 -0.8127  0.3923  0.4383
  933MOL0     H25899   0.451  -0.406   9.764 -1.3083  1.0211  0.8198
  933MOL0     H25900   0.682  -0.379   9.831  1.5187  1.2802  0.2876
  933MOL0     H25901   0.579  -0.278   9.939  0.9684 -0.0585  0.3496
  933MOL0     H25902   0.590  -0.473  10.102 -0.7280 -1.0095 -2.1913
  933MOL0     H25903   0.725  -0.370  10.087  0.4522 -0.9251 -0.4521
  933MOL0     H25904   0.693  -0.662   9.975 -0.8150 -0.5002  0.9809
  933MOL0     H25905   0.833  -0.566   9.944  0.5707 -0.0558  1.9282
  933MOL0     H25906   0.620  -0.708  10.215 -0.2959 -0.0852 -1.8796
  933MOL0     H25907   0.755  -0.664  10.569 -0.0962 -0.2696 -0.9135
  933MOL0     H25908   0.679  -0.800  10.469  0.5646 -2.1464 -2.1034
  933MOL0     H25909   0.934  -0.877  10.457 -0.5611  2.6461 -2.2590
  933MOL0     H25910   0.945  -0.794  10.609 -2.3200  1.5412  2.4590
  933MOL0     H25911   0.717  -0.939  10.664 -0.2274  1.1827 -1.2112
  933MOL0     H25912   0.877  -0.964  10.721 -0.3173  2.4358  0.7673
  933MOL0     H25913   0.791  -1.183  10.614 -0.3038 -0.2309 -0.5624
  933MOL0     H25914   0.931  -1.120  10.536  0.0692 -1.0645  2.9314
  933MOL0     H25915   0.631  -0.976  10.235  0.5640 -0.9219  0.1452
  933MOL0     H25916   0.383  -0.947  10.221  0.7225  2.7622  1.5962
  933MOL0     H25917  -0.084  -1.145  10.413  2.5967  0.7794 -0.6797
  933MOL0     H25918  -0.326  -1.049  10.404  0.4180 -1.1382  0.1090
  933MOL0     H25919  -0.452  -0.682  10.603 -2.2513  0.1946 -0.2053
  933MOL0     H25920  -0.390  -0.620  10.445 -0.0357 -0.3583  0.3723
  933MOL0     H25921  -0.593  -0.717  10.338 -1.7684 -0.0100  0.4576
  933MOL0     H25922  -0.653  -0.779  10.490 -2.0412  0.1344 -1.8030
  933MOL0     H25923  -0.647  -0.543  10.583  1.7614  0.2915 -1.1515
  933MOL0     H25924  -0.621  -0.477  10.417 -1.0110  2.6134  1.0522
  933MOL0     H25925  -0.852  -0.652  10.484 -2.1871  0.7775  0.1189
  933MOL0     H25926  -0.818  -0.570  10.340 -1.6470 -0.6131  1.2856
  933MOL0     H25927  -0.817  -0.352  10.474 -2.0035  1.6407  0.1405
  933MOL0     H25928  -0.896  -0.452  10.613 -0.4372  1.4861 -0.6206
  933MOL0     H25929  -0.989  -0.425  10.334 -0.1175  0.5629 -0.1415
  933MOL0     H25930  -1.077  -0.505  10.466 -1.2969  0.2157 -3.6806
  933MOL0     H25931  -1.021  -0.216  10.485  2.2017 -2.0341  5.6512
  933MOL0     H25932  -1.125  -0.308  10.585 -0.9840  3.5552 -0.1234
  933MOL0     H25933  -1.182  -0.217  10.301 -0.4809  0.7933  0.3924
  933MOL0     H25934  -1.276  -0.344  10.383 -2.1074  0.4795 -0.4604
  933MOL0     H25935  -0.174  -0.681  10.553  2.4770  0.9366  0.1606
  933MOL0     H25936   0.039  -0.796  10.609 -1.2014 -0.5347  0.9801
  933MOL0     H25937   0.332  -1.136  10.602 -1.9283  1.8056 -1.0762
  933MOL0     H25938   0.577  -1.172  10.612  1.7269  2.8424 -0.2404
  933MOL0     H25939   0.473   0.112  10.034 -1.4908 -1.1098 -2.0028
  933MOL0     H25940   0.459   0.366  10.070 -1.2652  1.6251  2.8495
  933MOL0     H25941   0.110   0.703  10.215 -1.1250  0.4901 -0.6002
  933MOL0     H25942   0.080   0.917  10.187 -0.8240 -1.4145 -0.0972
  933MOL0     H25943   0.156   1.272  10.071  2.0846  0.3277 -0.0831
  933MOL0     H25944   0.080   1.124  10.118 -1.2957  1.0977 -2.5215
  933MOL0     H25945   0.119   1.000   9.918  0.8374 -0.7108 -1.7385
  933MOL0     H25946   0.248   1.120   9.868 -0.1578  0.2741 -0.9332
  933MOL0     H25947   0.033   1.275   9.853 -0.6009 -0.8500  1.1448
  933MOL0     H25948  -0.065   1.125   9.849 -1.5296  1.4065 -3.3321
  933MOL0     H25949  -0.008   1.222   9.621  1.6318  0.4579 -0.9200
  933MOL0     H25950   0.162   1.213   9.662 -0.0213 -0.9758  0.5331
  933MOL0     H25951   0.054   0.829   9.527  1.3944  0.7499 -0.5183
  933MOL0     H25952   0.519   0.973  10.166  0.8810 -0.5906  1.0505
  933MOL0     H25953   0.656   0.775  10.146  0.9663 -2.0867 -2.4443
  933MOL0     H25954   0.621   0.707  10.304  0.4164  2.0980 -0.5912
  933MOL0     H25955   0.594   0.612  10.153  0.9614  1.0362 -2.9745
  934MOL0     O25956   8.604   4.099   5.848  0.5618  0.2115 -0.6060
  934MOL0     C25957   8.629   3.993   5.793 -0.6128  1.0240  0.7726
  934MOL0     O25958   8.752   3.929   5.791  0.2524  0.2578 -0.2080
  934MOL0     C25959   8.870   4.001   5.813 -0.2079 -0.1752 -0.2888
  934MOL0     C25960   8.899   4.123   5.745 -0.9762 -0.4552 -0.5767
  934MOL0     C25961   9.012   4.199   5.783 -0.3320 -0.1309  0.5394
  934MOL0     C25962   9.115   4.141   5.869  0.0022 -0.6919 -0.1042
  934MOL0     O25963   9.236   4.191   5.889 -0.2542  0.1676  0.5663
  934MOL0     C25964   9.231   4.326   5.931 -0.2484  0.3555 -0.3866
  934MOL0     C25965   9.361   4.351   6.008 -0.5456 -0.4402  1.3237
  934MOL0     C25966   9.483   4.358   5.917 -0.1917 -0.1690  0.0166
  934MOL0     C25967   9.607   4.375   6.005  0.0174 -0.1084 -0.2953
  934MOL0     C25968   9.737   4.362   5.932 -0.0770 -1.0245  0.0217
  934MOL0     C25969   9.861   4.367   6.040 -0.5642  0.0834  0.3127
  934MOL0     C25970   9.996   4.310   5.991  0.0124  0.4280  0.2435
  934MOL0     C25971  10.077   4.402   5.900 -0.1470  0.1382 -0.5794
  934MOL0     N25972  10.220   4.359   5.911 -0.0457  0.0998  0.2171
  934MOL0     C25973  10.268   4.237   5.866  0.3043  0.8881  0.2600
  934MOL0     C25974  10.400   4.241   5.881 -0.6037 -0.3207  0.8642
  934MOL0     C25975  10.489   4.129   5.831 -0.7599 -0.0385 -0.1337
  934MOL0     C25976  10.624   4.132   5.913 -0.5294 -0.1206 -0.3414
  934MOL0     C25977  10.724   4.031   5.857 -0.4183 -0.1699  0.4572
  934MOL0     C25978  10.856   4.034   5.940 -0.1983 -0.2144  0.4431
  934MOL0     O25979  10.938   3.922   5.915  0.0680 -0.3515 -0.0072
  934MOL0     C25980  11.067   3.925   5.970  0.5589 -0.0229 -0.7318
  934MOL0     C25981  11.156   3.821   5.931 -0.3353 -0.2451  0.1060
  934MOL0     C25982  11.283   3.820   5.976 -0.9143  0.3243 -1.1625
  934MOL0     C25983  11.335   3.921   6.064  0.3645 -0.4684 -0.3290
  934MOL0     C25984  11.478   3.934   6.100  0.2755 -0.6392 -0.2804
  934MOL0     O25985  11.545   3.822   6.074  0.5756 -0.3880  0.3133
  934MOL0     C25986  11.672   3.828   6.118  0.5512  0.2913  0.0839
  934MOL0     C25987  11.781   3.817   6.024 -0.2218 -0.5259  0.1776
  934MOL0     C25988  11.911   3.840   6.067 -0.1953 -0.4143 -0.4632
  934MOL0     C25989  11.944   3.847   6.208  0.2252  0.2661 -0.0855
  934MOL0     O25990  12.074   3.837   6.242  0.3475 -0.2881 -0.4507
  934MOL0     C25991  12.114   3.932   6.335 -0.9070 -0.7508 -0.3900
  934MOL0     C25992  12.259   3.882   6.364 -0.2852  0.4100 -0.8000
  934MOL0     C25993  12.347   3.879   6.235  0.1536  0.0880 -0.0881
  934MOL0     C25994  12.493   3.842   6.272 -0.4785 -0.3115 -0.6473
  934MOL0     C25995  12.583   3.828   6.152  0.3604  0.3469  0.6251
  934MOL0     C25996  12.706   3.742   6.192  1.0802 -0.0206 -0.1447
  934MOL0     C25997  12.793   3.810   6.308 -1.3120  0.0726  0.9396
  934MOL0     C25998  12.912   3.709   6.333 -0.0062  0.1431  0.3595
  934MOL0    Cl25999  13.023   3.702   6.192  0.0246 -0.2171 -0.3286
  934MOL0     C26000  11.840   3.841   6.301 -0.0785  0.0369  0.0084
  934MOL0     C26001  11.710   3.832   6.253 -0.4749 -0.8551 -1.1620
  934MOL0     O26002  11.529   4.033   6.159  0.4513 -0.2699  0.0973
  934MOL0     C26003  11.250   4.025   6.108  0.0404 -0.1201 -0.3413
  934MOL0     C26004  11.122   4.027   6.054  0.0337  0.5364  0.8518
  934MOL0     N26005  10.429   4.355   5.952 -0.4932 -0.0449 -0.0486
  934MOL0     N26006  10.329   4.421   5.976  1.2769 -0.5381  0.6307
  934MOL0     C26007   9.083   4.022   5.930  0.8612  0.4421  0.0361
  934MOL0     C26008   8.961   3.954   5.902 -0.4326 -0.5369 -0.2389
  934MOL0     C26009   8.522   3.913   5.730  0.4093 -0.3102  0.0147
  934MOL0     C26010   8.533   3.772   5.719 -0.3935  0.9452 -0.4314
  934MOL0     C26011   8.436   3.695   5.652 -0.4029 -0.2838  0.1226
  934MOL0     C26012   8.320   3.755   5.600 -0.2020 -0.6886 -0.3061
  934MOL0     O26013   8.228   3.671   5.528 -0.4833 -0.2151  0.0388
  934MOL0     C26014   8.129   3.739   5.450  0.6381  0.9339  0.5538
  934MOL0     C26015   8.036   3.628   5.388  0.2238 -0.8643 -0.8977
  934MOL0     C26016   7.922   3.689   5.298 -0.3057 -1.0633 -0.2081
  934MOL0     C26017   7.813   3.771   5.377 -0.0623  0.0150 -0.9234
  934MOL0     C26018   7.702   3.812   5.293  0.0436  0.3338  0.4985
  934MOL0     C26019   7.608   3.848   5.222 -0.1729  1.3909 -0.8014
  934MOL0     C26020   8.309   3.891   5.602 -0.1163 -0.0518  0.4135
  934MOL0     C26021   8.408   3.974   5.664 -0.3607  0.7689  0.5763
  934MOL0     C26022   8.408   4.119   5.644 -0.0969  0.0182 -0.3681
  934MOL0     H26023   8.845   4.154   5.657  1.1049 -0.0743 -1.7720
  934MOL0     H26024   9.027   4.288   5.722 -0.3306 -1.9848 -2.3375
  934MOL0     H26025   9.229   4.381   5.836  0.4654  0.0292 -0.5967
  934MOL0     H26026   9.149   4.355   5.998 -0.3474 -1.3691  0.2694
  934MOL0     H26027   9.390   4.273   6.079  0.9199 -1.2317 -0.0764
  934MOL0     H26028   9.354   4.445   6.063  0.7636  1.7327 -1.8782
  934MOL0     H26029   9.466   4.434   5.840 -3.0674  1.5574  2.1594
  934MOL0     H26030   9.500   4.263   5.865  1.2254  0.0240  0.0784
  934MOL0     H26031   9.604   4.463   6.070  1.0062 -2.0181  2.4974
  934MOL0     H26032   9.597   4.300   6.083  1.7774 -1.1507 -1.0118
  934MOL0     H26033   9.744   4.267   5.880  1.0594 -1.5375  1.0379
  934MOL0     H26034   9.743   4.441   5.857 -1.9728 -0.3679  0.5235
  934MOL0     H26035   9.867   4.470   6.077  1.8564 -0.2035  0.8764
  934MOL0     H26036   9.834   4.302   6.124 -0.9116 -0.4267 -0.1876
  934MOL0     H26037   9.976   4.217   5.938  5.0349  1.1890 -3.6134
  934MOL0     H26038  10.049   4.285   6.084  0.6333 -2.0605 -0.7037
  934MOL0     H26039  10.030   4.382   5.803  0.7124  1.7182 -1.3540
  934MOL0     H26040  10.062   4.505   5.934 -0.2217  0.6117 -1.9971
  934MOL0     H26041  10.218   4.150   5.826 -1.1337  0.5263  2.5956
  934MOL0     H26042  10.426   4.042   5.852 -1.0646  0.5633  1.6548
  934MOL0     H26043  10.498   4.136   5.723  0.9682 -0.2730 -0.0226
  934MOL0     H26044  10.672   4.230   5.907  2.3118 -1.4383 -0.6099
  934MOL0     H26045  10.601   4.113   6.018  2.2477  2.6346  0.9328
  934MOL0     H26046  10.740   4.061   5.753 -1.5635 -0.4557  0.1834
  934MOL0     H26047  10.676   3.933   5.856 -0.9111  0.0374  1.8661
  934MOL0     H26048  10.829   4.048   6.045 -0.8793 -0.9474  0.3784
  934MOL0     H26049  10.920   4.117   5.909  0.8233 -1.2478 -0.2776
  934MOL0     H26050  11.118   3.746   5.864 -1.9706  1.1908 -0.6550
  934MOL0     H26051  11.340   3.735   5.941 -3.0535 -1.3570 -0.8016
  934MOL0     H26052  11.769   3.786   5.921  1.5322  0.7930 -0.4745
  934MOL0     H26053  11.990   3.829   5.994 -1.5588 -0.5365 -1.9933
  934MOL0     H26054  12.125   4.032   6.293  1.0394 -0.3294  0.9790
  934MOL0     H26055  12.045   3.939   6.420 -1.8611  1.1881 -1.2554
  934MOL0     H26056  12.304   3.943   6.442  1.0619 -0.5623 -0.7879
  934MOL0     H26057  12.252   3.783   6.409  1.0769 -0.3348 -2.1519
  934MOL0     H26058  12.316   3.796   6.171 -3.0044 -0.2895  1.7540
  934MOL0     H26059  12.339   3.980   6.195 -2.9330  0.4798  1.2556
  934MOL0     H26060  12.489   3.756   6.339  0.0013  0.5276  0.4940
  934MOL0     H26061  12.532   3.927   6.328  1.8898 -0.9064 -1.2632
  934MOL0     H26062  12.612   3.925   6.110  0.1001  0.2614  0.2460
  934MOL0     H26063  12.530   3.781   6.069  0.8276  0.0166  0.5075
  934MOL0     H26064  12.662   3.649   6.229 -0.4637 -0.3794 -2.6131
  934MOL0     H26065  12.764   3.718   6.102  0.0845  1.7568 -1.3269
  934MOL0     H26066  12.729   3.819   6.397 -4.1384 -0.0060 -0.9670
  934MOL0     H26067  12.832   3.905   6.269 -2.7653  0.1492 -0.3949
  934MOL0     H26068  12.976   3.731   6.419  1.1124 -3.3121  0.5626
  934MOL0     H26069  12.866   3.614   6.361  1.4237 -0.3225  1.2386
  934MOL0     H26070  11.864   3.829   6.406  1.3909 -1.2942 -0.4276
  934MOL0     H26071  11.641   3.843   6.335  0.5344  2.9706 -0.6525
  934MOL0     H26072  11.287   4.107   6.170 -1.9856  1.5118 -1.1687
  934MOL0     H26073  11.064   4.115   6.084 -1.2785  0.1904 -0.5597
  934MOL0     H26074   9.154   3.969   5.992  1.7900  0.7501 -0.7364
  934MOL0     H26075   8.931   3.860   5.949  0.8437 -0.0516  1.6512
  934MOL0     H26076   8.617   3.724   5.770 -1.8154 -3.0984 -1.4874
  934MOL0     H26077   8.455   3.592   5.622 -1.2627 -0.3824 -0.1389
  934MOL0     H26078   8.177   3.795   5.369 -0.0540 -0.8580 -1.1898
  934MOL0     H26079   8.070   3.805   5.514 -1.5318 -0.6186  0.2574
  934MOL0     H26080   7.991   3.565   5.465  1.5853 -0.7467  0.0322
  934MOL0     H26081   8.105   3.571   5.325  3.0582  0.3951  0.8456
  934MOL0     H26082   7.863   3.617   5.241  0.6239 -0.6639 -1.7169
  934MOL0     H26083   7.968   3.747   5.217  1.5616 -0.4254  1.2324
  934MOL0     H26084   7.771   3.717   5.462 -0.9539 -0.5850 -1.7214
  934MOL0     H26085   7.860   3.865   5.405 -2.3819  0.6303  1.3261
  934MOL0     H26086   7.542   3.878   5.143 -0.9162  0.2908 -0.6228
  934MOL0     H26087   8.220   3.939   5.562  0.6154 -0.1275 -1.4169
  934MOL0     H26088   8.413   4.169   5.741 -1.0674  1.1982 -0.9044
  934MOL0     H26089   8.495   4.151   5.585 -0.5439 -2.9700 -2.9485
  934MOL0     H26090   8.319   4.149   5.588  1.7504  1.4592 -2.6972
  935MOL0     O26091   1.716  11.029   6.843  0.1687 -0.5247 -0.1724
  935MOL0     C26092   1.661  10.982   6.737 -0.3951  0.2001  0.3073
  935MOL0     O26093   1.736  10.924   6.634 -0.2487  0.0524  0.1819
  935MOL0     C26094   1.873  10.931   6.630 -0.0018  0.9048 -0.0634
  935MOL0     C26095   1.954  10.814   6.639  0.3176 -1.0996 -0.4212
  935MOL0     C26096   2.091  10.829   6.631  0.9158 -0.4187  0.0373
  935MOL0     C26097   2.147  10.959   6.617 -0.2481  0.2250 -0.9610
  935MOL0     O26098   2.287  10.988   6.607  0.5701 -0.0485  0.3147
  935MOL0     C26099   2.378  10.891   6.565 -0.1348  0.3052 -0.1786
  935MOL0     C26100   2.442  10.818   6.689  0.6765  0.3122  0.3905
  935MOL0     C26101   2.572  10.756   6.651 -0.9917 -0.7313 -0.4048
  935MOL0     C26102   2.661  10.728   6.766  0.0048  0.4443 -0.5765
  935MOL0     C26103   2.795  10.676   6.708  0.5653 -0.1110  0.1661
  935MOL0     C26104   2.881  10.653   6.826 -0.8598  0.2293 -0.2006
  935MOL0     C26105   3.030  10.671   6.809  0.1453  0.5952  0.1449
  935MOL0     C26106   3.107  10.630   6.942 -0.6041  0.1678 -0.4386
  935MOL0     N26107   3.171  10.741   6.997 -0.2931  0.9797  0.1939
  935MOL0     C26108   3.132  10.818   7.107 -0.1243 -0.3450 -0.3255
  935MOL0     C26109   3.232  10.912   7.131  0.5207  0.6660  0.8074
  935MOL0     C26110   3.242  11.012   7.240 -0.2459 -0.7284  0.7074
  935MOL0     C26111   3.176  11.140   7.193 -0.2291 -0.3452  0.2596
  935MOL0     C26112   3.229  11.204   7.069 -0.0055 -0.8408 -0.3715
  935MOL0     C26113   3.376  11.233   7.054 -0.0235  0.1213  0.8129
  935MOL0     O26114   3.406  11.308   6.934 -0.2147  0.0938  0.6315
  935MOL0     C26115   3.536  11.337   6.905  0.7996  0.4530 -0.5881
  935MOL0     C26116   3.641  11.297   6.974  0.1576 -0.0083  0.1716
  935MOL0     C26117   3.772  11.316   6.928  0.1402  0.6467 -0.5695
  935MOL0     C26118   3.801  11.387   6.812 -0.3338  0.3434  1.1172
  935MOL0     C26119   3.944  11.398   6.777 -0.6128 -0.4145 -0.0222
  935MOL0     O26120   4.032  11.326   6.853  0.3657  0.1745 -0.0864
  935MOL0     C26121   4.161  11.348   6.826 -0.6613  0.4765 -0.5933
  935MOL0     C26122   4.243  11.449   6.888  0.1409  0.3439 -0.2440
  935MOL0     C26123   4.376  11.469   6.848  0.0447 -0.4340 -0.5922
  935MOL0     C26124   4.431  11.386   6.757  0.4924  0.7221  1.2294
  935MOL0     O26125   4.557  11.404   6.712  0.3575  0.0276  0.6846
  935MOL0     C26126   4.648  11.290   6.698 -0.0071 -0.4762 -0.0001
  935MOL0     C26127   4.789  11.330   6.661 -0.1517 -0.0430  1.0217
  935MOL0     C26128   4.791  11.438   6.557  0.1317  0.0393  0.0175
  935MOL0     C26129   4.930  11.474   6.509  0.3132 -0.2643 -0.1216
  935MOL0     C26130   4.934  11.607   6.428 -0.3950  0.3691 -0.7707
  935MOL0     C26131   4.902  11.588   6.284 -0.3646 -0.7888 -0.4228
  935MOL0     C26132   4.998  11.499   6.213 -0.6163 -0.4016  0.0846
  935MOL0     C26133   4.978  11.500   6.062 -0.2012 -0.3201 -0.5990
  935MOL0    Cl26134   4.823  11.419   6.024  0.3072 -0.0760  0.0002
  935MOL0     C26135   4.355  11.286   6.693  0.6557 -0.2833  1.2357
  935MOL0     C26136   4.219  11.270   6.727 -0.0552 -0.4831 -0.8196
  935MOL0     O26137   3.976  11.477   6.685  0.1676  0.0751  0.6024
  935MOL0     C26138   3.689  11.435   6.737 -0.3755  0.4441 -0.5006
  935MOL0     C26139   3.557  11.412   6.782 -0.2687  0.2473  0.2722
  935MOL0     N26140   3.333  10.879   7.039  0.1330 -0.3638 -0.2802
  935MOL0     N26141   3.301  10.779   6.969  0.0467 -0.3084  0.1832
  935MOL0     C26142   2.073  11.071   6.605 -0.8732  0.3136  0.4235
  935MOL0     C26143   1.935  11.058   6.618 -0.4584 -0.4757 -0.0519
  935MOL0     C26144   1.523  10.944   6.734 -0.1849  0.1183 -0.2635
  935MOL0     C26145   1.463  10.928   6.853 -0.6075 -0.3925 -0.8604
  935MOL0     C26146   1.322  10.907   6.870 -0.1029 -0.5129  0.5416
  935MOL0     C26147   1.241  10.902   6.758 -0.1702  0.2271  0.2565
  935MOL0     O26148   1.111  10.866   6.777  0.3022 -0.9960  0.0304
  935MOL0     C26149   1.038  10.831   6.661 -0.7883  0.4446 -0.6444
  935MOL0     C26150   0.899  10.773   6.707  0.6570 -0.2669 -0.3384
  935MOL0     C26151   0.909  10.638   6.771  0.1969  0.3545  0.6322
  935MOL0     C26152   0.781  10.551   6.782  0.7141  0.0854  0.4043
  935MOL0     C26153   0.736  10.498   6.647 -0.8347  0.2569 -0.2677
  935MOL0     C26154   0.686  10.457   6.547  0.0394 -0.5306 -0.1787
  935MOL0     C26155   1.307  10.910   6.633  0.7162 -0.8583 -0.4534
  935MOL0     C26156   1.443  10.940   6.617  0.7986  0.3737  0.0449
  935MOL0     C26157   1.497  10.971   6.483  0.2346  0.3463 -0.8692
  935MOL0     H26158   1.900  10.721   6.654 -0.9098 -0.0131  3.0373
  935MOL0     H26159   2.158  10.744   6.629  2.5049  0.8036 -0.5160
  935MOL0     H26160   2.344  10.818   6.491  0.6149  1.0001 -1.2399
  935MOL0     H26161   2.460  10.945   6.516 -0.8485  0.7497 -0.9235
  935MOL0     H26162   2.371  10.744   6.728  0.4000 -0.6632 -1.8056
  935MOL0     H26163   2.459  10.891   6.768 -0.3425 -1.2406  2.1362
  935MOL0     H26164   2.629  10.835   6.602 -1.2875 -1.9235 -2.8120
  935MOL0     H26165   2.567  10.672   6.582  0.5301 -0.1023 -1.3109
  935MOL0     H26166   2.679  10.815   6.830 -0.1530 -0.2827  0.4855
  935MOL0     H26167   2.621  10.652   6.834  1.2391 -1.0352 -1.4344
  935MOL0     H26168   2.777  10.588   6.644 -3.5827  1.5282 -1.2655
  935MOL0     H26169   2.846  10.755   6.652  0.6977 -0.4675 -0.2218
  935MOL0     H26170   2.861  10.721   6.910  1.7259 -1.0928  1.6343
  935MOL0     H26171   2.865  10.553   6.868 -2.3540  0.6367  0.2738
  935MOL0     H26172   3.053  10.773   6.778 -0.5534  0.5670 -0.4932
  935MOL0     H26173   3.054  10.604   6.726 -0.9495  1.2180 -0.6846
  935MOL0     H26174   3.053  10.577   7.021  1.8930 -2.4693 -0.3232
  935MOL0     H26175   3.178  10.551   6.915 -0.8592 -1.2106  2.5394
  935MOL0     H26176   3.034  10.821   7.152  0.2270  2.2312  0.4187
  935MOL0     H26177   3.200  10.969   7.331  3.6868 -0.6177  2.7971
  935MOL0     H26178   3.348  11.027   7.263 -0.0631 -2.9127  1.5077
  935MOL0     H26179   3.071  11.136   7.164  0.0653  2.6678 -1.6279
  935MOL0     H26180   3.185  11.207   7.279  0.1068  1.9373 -1.4681
  935MOL0     H26181   3.181  11.301   7.058 -1.1234 -1.3053  0.2726
  935MOL0     H26182   3.199  11.140   6.986 -0.3806  0.1868 -1.0387
  935MOL0     H26183   3.435  11.141   7.051 -0.1850  0.0424 -0.7075
  935MOL0     H26184   3.414  11.295   7.136  2.0761 -0.0202 -0.0010
  935MOL0     H26185   3.625  11.240   7.065 -5.8781 -1.1171 -1.1018
  935MOL0     H26186   3.854  11.281   6.990 -0.8512  2.0705  1.6627
  935MOL0     H26187   4.211  11.506   6.975 -0.6343  2.4469 -1.8233
  935MOL0     H26188   4.441  11.546   6.890  0.4789 -1.9558  1.7288
  935MOL0     H26189   4.631  11.230   6.788  1.1337  2.4267  2.3217
  935MOL0     H26190   4.608  11.222   6.623  0.4095 -1.4430  0.6378
  935MOL0     H26191   4.837  11.382   6.744  0.3220  2.1235 -0.5438
  935MOL0     H26192   4.841  11.240   6.628 -2.7329 -1.0985 -0.4994
  935MOL0     H26193   4.728  11.397   6.478  1.9567  2.6159 -3.0307
  935MOL0     H26194   4.743  11.523   6.606 -0.5390 -1.5576  2.3146
  935MOL0     H26195   4.978  11.390   6.458 -1.3630 -1.1684 -0.2820
  935MOL0     H26196   4.991  11.485   6.599 -1.8825  1.1318  1.3149
  935MOL0     H26197   5.038  11.641   6.430 -0.0717 -0.5905 -0.9584
  935MOL0     H26198   4.864  11.683   6.465 -0.9201 -0.5144  0.0722
  935MOL0     H26199   4.799  11.552   6.282 -1.1848  1.3862 -1.7800
  935MOL0     H26200   4.917  11.684   6.234  0.0939 -1.2309 -1.1473
  935MOL0     H26201   4.993  11.396   6.251 -0.1237  0.0468  1.4227
  935MOL0     H26202   5.101  11.526   6.234  0.0112 -1.3650 -1.5590
  935MOL0     H26203   4.978  11.602   6.024  2.5542  0.0795  0.2833
  935MOL0     H26204   5.059  11.457   6.003 -0.3224 -2.3142  0.5948
  935MOL0     H26205   4.395  11.223   6.615  0.6471  0.7227  0.3912
  935MOL0     H26206   4.150  11.200   6.680 -2.2668 -1.9301  4.0138
  935MOL0     H26207   3.714  11.508   6.661  0.6779  0.7161  0.0796
  935MOL0     H26208   3.469  11.447   6.728  0.3952  0.8900 -0.4184
  935MOL0     H26209   2.127  11.165   6.595  1.4269 -0.8525  1.0984
  935MOL0     H26210   1.886  11.155   6.606 -0.9532 -0.8995 -1.8178
  935MOL0     H26211   1.526  10.918   6.940  1.3428 -3.0157 -2.4108
  935MOL0     H26212   1.277  10.889   6.968 -2.5921 -0.0893 -0.4501
  935MOL0     H26213   1.097  10.753   6.612  1.6887  1.4620  0.5760
  935MOL0     H26214   1.022  10.920   6.600 -1.0600  1.9449  1.4749
  935MOL0     H26215   0.825  10.775   6.626 -0.3658  0.6016  0.5838
  935MOL0     H26216   0.847  10.842   6.774 -0.9488  0.3179 -2.0917
  935MOL0     H26217   0.945  10.650   6.873  1.8792 -3.3459  0.6448
  935MOL0     H26218   0.994  10.581   6.733  0.6503  0.2782  1.7169
  935MOL0     H26219   0.791  10.473   6.858 -1.2180 -1.9427 -1.2721
  935MOL0     H26220   0.705  10.623   6.812  0.9352  0.4657  0.0617
  935MOL0     H26221   0.647  10.404   6.463 -0.4447 -0.5365  0.0452
  935MOL0     H26222   1.249  10.913   6.541  0.4330  0.0403 -0.2551
  935MOL0     H26223   1.422  10.981   6.405 -2.4894 -2.8201  1.0872
  935MOL0     H26224   1.559  11.062   6.481  1.3951 -0.3805  0.4214
  935MOL0     H26225   1.554  10.881   6.459  0.7168  0.0278  1.2157
  936MOL0     O26226   6.725   0.769   7.922  1.1634 -0.3700 -0.1628
  936MOL0     C26227   6.743   0.720   7.813  0.4459  0.4155  0.2279
  936MOL0     O26228   6.862   0.661   7.775 -0.8025 -0.0740  0.7466
  936MOL0     C26229   6.962   0.666   7.870 -0.3683  0.7356  0.0689
  936MOL0     C26230   6.967   0.595   7.989  0.2386  0.3691 -0.4256
  936MOL0     C26231   7.071   0.601   8.073  0.1290  0.8946 -0.1873
  936MOL0     C26232   7.185   0.681   8.036  1.0552  0.7090 -0.3345
  936MOL0     O26233   7.284   0.677   8.120  0.0166  0.4660 -1.0100
  936MOL0     C26234   7.396   0.591   8.092 -0.3052 -0.4158 -0.3694
  936MOL0     C26235   7.460   0.587   7.943  0.0829  0.2718  0.0317
  936MOL0     C26236   7.592   0.516   7.917  0.2172  0.1513 -0.1360
  936MOL0     C26237   7.611   0.512   7.761  0.1176  0.0463 -0.1657
  936MOL0     C26238   7.727   0.420   7.737  0.3025 -0.7612  0.0511
  936MOL0     C26239   7.789   0.429   7.598 -0.6507 -0.4106  0.2802
  936MOL0     C26240   7.920   0.345   7.594  0.6010  0.1781 -0.6534
  936MOL0     C26241   8.031   0.412   7.686  0.1524 -0.1261  0.0768
  936MOL0     N26242   8.155   0.334   7.667  0.0812 -0.0817  0.3951
  936MOL0     C26243   8.269   0.364   7.587  0.2607  0.3298  0.6080
  936MOL0     C26244   8.337   0.249   7.561 -0.7636 -0.5418 -0.0634
  936MOL0     C26245   8.439   0.228   7.449  0.1288  0.3111  0.9334
  936MOL0     C26246   8.579   0.270   7.487 -0.5587  0.1671  0.2562
  936MOL0     C26247   8.638   0.176   7.595  0.9710 -0.6068  0.2308
  936MOL0     C26248   8.771   0.217   7.639 -0.1711 -0.2941  0.5313
  936MOL0     O26249   8.820   0.139   7.745 -0.0279 -0.2520  0.0906
  936MOL0     C26250   8.954   0.151   7.776 -0.5513  0.6797  0.1265
  936MOL0     C26251   8.997   0.085   7.888 -0.7136  0.4954 -0.7240
  936MOL0     C26252   9.137   0.090   7.917  0.0515 -0.4379  0.8063
  936MOL0     C26253   9.228   0.170   7.845 -0.1127 -0.0975  0.8309
  936MOL0     C26254   9.367   0.181   7.883  0.5586  0.2855  0.3302
  936MOL0     O26255   9.440   0.284   7.835 -0.0017 -0.2376 -0.2674
  936MOL0     C26256   9.567   0.292   7.888  0.0620 -0.3218 -0.0965
  936MOL0     C26257   9.682   0.279   7.809 -0.2861  0.1442 -0.4759
  936MOL0     C26258   9.810   0.290   7.865  0.4229  0.0801  0.6826
  936MOL0     C26259   9.835   0.316   7.999  0.4855  0.1164 -0.1595
  936MOL0     O26260   9.967   0.323   8.047 -0.2997 -0.3607  0.7184
  936MOL0     C26261  10.004   0.350   8.186  0.1752 -0.7342  0.3438
  936MOL0     C26262  10.162   0.340   8.196  0.0147 -0.2358  0.3057
  936MOL0     C26263  10.234   0.474   8.149 -0.0180 -0.2097 -0.0176
  936MOL0     C26264  10.270   0.564   8.275  0.4158  0.9760  0.2289
  936MOL0     C26265  10.333   0.695   8.229  0.3234 -1.1332  0.6315
  936MOL0     C26266  10.456   0.669   8.139 -0.2788 -0.2198  0.1648
  936MOL0     C26267  10.546   0.796   8.104  0.4429  0.6105  0.1040
  936MOL0     C26268  10.457   0.895   8.025 -0.2186  0.3234  0.0876
  936MOL0    Cl26269  10.499   1.070   8.057 -0.2313 -0.1907  0.3832
  936MOL0     C26270   9.727   0.351   8.076  0.2132 -0.2681 -0.4121
  936MOL0     C26271   9.594   0.347   8.020  0.1873  0.7547  0.1942
  936MOL0     O26272   9.401   0.103   7.978 -0.0199 -0.6248  0.1981
  936MOL0     C26273   9.184   0.245   7.735 -0.0171  0.3526  0.1431
  936MOL0     C26274   9.048   0.233   7.702 -0.9691  0.5081  0.8116
  936MOL0     N26275   8.280   0.153   7.650  0.1940  0.3676  0.1089
  936MOL0     N26276   8.181   0.203   7.711 -0.5109  0.0769  0.2636
  936MOL0     C26277   7.188   0.747   7.913  0.3615  0.1138 -0.3276
  936MOL0     C26278   7.078   0.736   7.835 -0.0193  0.4606  0.1293
  936MOL0     C26279   6.631   0.708   7.725 -0.2822  0.3211  1.0158
  936MOL0     C26280   6.648   0.645   7.595 -0.2017 -0.2700 -0.2432
  936MOL0     C26281   6.541   0.633   7.510  0.1722 -0.8573  0.0214
  936MOL0     C26282   6.416   0.679   7.531  0.3508 -0.6112  0.2886
  936MOL0     O26283   6.311   0.667   7.455  0.4747 -0.3879 -0.1691
  936MOL0     C26284   6.312   0.564   7.349  0.2563 -0.0901  0.5560
  936MOL0     C26285   6.172   0.547   7.294  0.4296  0.1638 -0.5317
  936MOL0     C26286   6.087   0.465   7.398  0.3628  0.2917  0.1961
  936MOL0     C26287   5.953   0.423   7.335  0.5098  0.2289 -0.2596
  936MOL0     C26288   5.863   0.539   7.316 -0.6046 -0.7640 -1.3617
  936MOL0     C26289   5.812   0.649   7.305 -0.0145 -0.9566  0.0357
  936MOL0     C26290   6.399   0.743   7.657  1.0155  0.1146  0.1275
  936MOL0     C26291   6.496   0.751   7.754 -0.3526 -0.1821 -0.6924
  936MOL0     C26292   6.456   0.836   7.884 -0.2145 -0.2283 -0.2412
  936MOL0     H26293   6.877   0.539   8.015 -1.4381  2.0730 -2.2176
  936MOL0     H26294   7.063   0.539   8.162 -1.1346  1.7693  0.3379
  936MOL0     H26295   7.488   0.615   8.146  1.8851 -2.3816 -2.9710
  936MOL0     H26296   7.375   0.493   8.134  2.6659 -0.0442  2.4238
  936MOL0     H26297   7.474   0.686   7.898  1.3982  0.2423  0.3238
  936MOL0     H26298   7.381   0.539   7.885  0.5075 -0.3828 -0.0163
  936MOL0     H26299   7.577   0.413   7.952  1.2172 -0.4363 -1.3732
  936MOL0     H26300   7.671   0.572   7.969 -2.8222  1.1508  3.8911
  936MOL0     H26301   7.526   0.469   7.706  1.3077 -0.0625 -1.9924
  936MOL0     H26302   7.621   0.614   7.724 -2.7158  0.7280  0.6476
  936MOL0     H26303   7.793   0.449   7.819 -1.8174 -2.7948  2.6971
  936MOL0     H26304   7.691   0.319   7.759 -1.3143  0.1910  2.1603
  936MOL0     H26305   7.710   0.390   7.532 -2.2560 -0.0421  1.9020
  936MOL0     H26306   7.814   0.531   7.568 -0.3401 -0.6232 -0.1933
  936MOL0     H26307   7.954   0.344   7.490 -2.4004  0.2260 -1.7404
  936MOL0     H26308   7.912   0.243   7.631 -0.0159  0.8615  1.2343
  936MOL0     H26309   8.054   0.514   7.655  3.0471 -1.3092 -2.2759
  936MOL0     H26310   8.005   0.412   7.792 -0.9412 -0.3117 -0.1804
  936MOL0     H26311   8.275   0.460   7.536  0.8099  0.0064  0.0595
  936MOL0     H26312   8.450   0.128   7.406  2.1813 -0.1759  2.4222
  936MOL0     H26313   8.411   0.298   7.370 -0.6208 -2.1267 -1.0872
  936MOL0     H26314   8.649   0.276   7.403 -1.3902  2.8395 -0.3418
  936MOL0     H26315   8.571   0.371   7.528  1.3461  0.6693 -0.4658
  936MOL0     H26316   8.645   0.075   7.552 -0.2622 -2.3713  3.7715
  936MOL0     H26317   8.570   0.166   7.680 -0.0652 -0.6603 -0.5952
  936MOL0     H26318   8.767   0.322   7.672 -0.5834  0.2180 -1.0468
  936MOL0     H26319   8.831   0.206   7.549 -2.3253  1.0541 -1.1895
  936MOL0     H26320   8.930   0.027   7.949 -0.4602 -1.5159 -2.2578
  936MOL0     H26321   9.175   0.029   7.998 -0.9407 -0.4681  1.2711
  936MOL0     H26322   9.670   0.265   7.702 -0.1320  0.6092 -0.5554
  936MOL0     H26323   9.894   0.275   7.798 -0.1473 -0.1452  0.0039
  936MOL0     H26324   9.961   0.442   8.226 -1.5668 -1.5112  0.3421
  936MOL0     H26325   9.958   0.270   8.244 -0.4163 -0.9990 -0.4581
  936MOL0     H26326  10.200   0.313   8.295 -1.8549 -0.8532  0.8828
  936MOL0     H26327  10.180   0.255   8.130 -1.0903 -0.6228  0.4912
  936MOL0     H26328  10.326   0.450   8.096  0.4262  2.4888 -0.6045
  936MOL0     H26329  10.165   0.530   8.085  0.6939 -2.8220 -3.2872
  936MOL0     H26330  10.346   0.514   8.336  0.8726 -1.0918 -1.8973
  936MOL0     H26331  10.179   0.583   8.331 -0.9317 -2.8214 -0.4098
  936MOL0     H26332  10.356   0.757   8.316 -1.4252 -2.6328  2.2421
  936MOL0     H26333  10.250   0.752   8.187  0.8091 -0.5348  0.4809
  936MOL0     H26334  10.524   0.601   8.191  0.4260 -0.4356 -1.0090
  936MOL0     H26335  10.433   0.628   8.041 -0.7853  2.0881 -0.7487
  936MOL0     H26336  10.630   0.766   8.041  1.2981 -0.8004  1.8343
  936MOL0     H26337  10.573   0.845   8.198  2.5894 -0.8785  0.3404
  936MOL0     H26338  10.491   0.870   7.924  1.4383 -0.7299  0.8585
  936MOL0     H26339  10.351   0.871   8.030 -0.2773  0.3877 -0.7354
  936MOL0     H26340   9.747   0.371   8.180  1.4905 -0.1350 -0.6766
  936MOL0     H26341   9.510   0.375   8.084  0.4337  2.0580 -0.0070
  936MOL0     H26342   9.238   0.307   7.663 -1.1238  0.0428 -0.9872
  936MOL0     H26343   9.014   0.303   7.627 -1.8910  0.6282  1.3308
  936MOL0     H26344   7.278   0.799   7.884 -0.0565  0.1678 -1.5590
  936MOL0     H26345   7.090   0.776   7.735  2.1287 -0.6048 -0.0932
  936MOL0     H26346   6.744   0.596   7.578  0.5800  1.2217 -0.2576
  936MOL0     H26347   6.559   0.582   7.416 -1.9031 -0.3000 -0.7216
  936MOL0     H26348   6.350   0.467   7.382 -0.0251 -0.4620 -0.1777
  936MOL0     H26349   6.376   0.601   7.268 -0.2042 -0.3279  0.0715
  936MOL0     H26350   6.177   0.497   7.197  1.5750 -1.2970  0.2450
  936MOL0     H26351   6.129   0.647   7.278  0.4690  0.3567  0.4780
  936MOL0     H26352   6.079   0.516   7.494 -1.5207 -0.0575  0.2651
  936MOL0     H26353   6.136   0.369   7.419 -1.8174 -1.0109 -0.3192
  936MOL0     H26354   5.971   0.387   7.233 -0.3458  0.0025 -0.3331
  936MOL0     H26355   5.904   0.349   7.399 -0.8859  1.1150 -0.2594
  936MOL0     H26356   5.759   0.739   7.283 -2.0123 -2.3257 -1.0095
  936MOL0     H26357   6.302   0.789   7.675  0.8172 -0.4422  0.4887
  936MOL0     H26358   6.355   0.879   7.886  1.2442  3.4262  1.3246
  936MOL0     H26359   6.470   0.788   7.981 -0.7240 -0.9161 -0.4958
  936MOL0     H26360   6.520   0.924   7.888 -0.4401 -0.0944  0.6051
  937MOL0     O26361   3.707   7.154   4.446 -0.0745  0.3850  0.7452
  937MOL0     C26362   3.679   7.046   4.493  0.1249 -0.7648 -0.1988
  937MOL0     O26363   3.761   6.975   4.568  0.0269  0.3738 -0.1569
  937MOL0     C26364   3.885   7.018   4.589  0.4521  0.4769  0.5555
  937MOL0     C26365   3.997   6.970   4.527  0.5390  1.4358 -0.0814
  937MOL0     C26366   4.122   7.019   4.564 -0.3230 -0.1001  0.0836
  937MOL0     C26367   4.132   7.107   4.673  0.6135 -0.3764 -0.0843
  937MOL0     O26368   4.257   7.159   4.707  0.0017  0.6191 -0.2052
  937MOL0     C26369   4.281   7.219   4.836 -0.5984  0.8437  0.4780
  937MOL0     C26370   4.430   7.252   4.853  0.3660 -0.3941  0.0905
  937MOL0     C26371   4.531   7.144   4.836 -0.6155 -0.4786 -0.1127
  937MOL0     C26372   4.674   7.199   4.864  0.5257  0.0208  0.0011
  937MOL0     C26373   4.790   7.111   4.813  0.0039  0.2665  0.2486
  937MOL0     C26374   4.924   7.170   4.866  0.2265 -1.5087 -0.3209
  937MOL0     C26375   4.952   7.207   5.013  0.0582  0.8559 -0.6022
  937MOL0     C26376   5.076   7.289   5.033  0.2736 -0.2669 -0.7379
  937MOL0     N26377   5.187   7.248   4.961 -0.5232 -0.3913  0.2214
  937MOL0     C26378   5.267   7.128   4.986  0.5857  0.0684 -0.0611
  937MOL0     C26379   5.377   7.142   4.907 -0.5523  0.2833 -0.4913
  937MOL0     C26380   5.482   7.038   4.875  0.0561  0.5840  0.3333
  937MOL0     C26381   5.580   7.017   4.990 -0.0084  0.4512 -0.2918
  937MOL0     C26382   5.627   7.152   5.037  0.7032  0.9710  0.1397
  937MOL0     C26383   5.755   7.144   5.111  0.6450 -0.4605 -0.0250
  937MOL0     O26384   5.862   7.136   5.016  0.3537 -0.0123  0.5130
  937MOL0     C26385   5.990   7.155   5.062  0.1308 -0.4456  0.1533
  937MOL0     C26386   6.019   7.143   5.207 -0.1158 -0.5877  0.6908
  937MOL0     C26387   6.154   7.150   5.241 -0.1413 -0.4171 -0.3777
  937MOL0     C26388   6.259   7.172   5.142 -0.0364 -0.1306 -0.6434
  937MOL0     C26389   6.407   7.180   5.191 -0.2348 -0.0219  0.5058
  937MOL0     O26390   6.443   7.156   5.325  0.1136  0.4401 -0.3245
  937MOL0     C26391   6.577   7.168   5.371  0.0059 -0.4822 -0.1915
  937MOL0     C26392   6.687   7.136   5.285  0.8861  0.5304  0.4903
  937MOL0     C26393   6.817   7.150   5.339  0.5096  0.9538  0.7626
  937MOL0     C26394   6.836   7.175   5.476 -0.1604 -0.1193  0.1163
  937MOL0     O26395   6.956   7.156   5.534  0.1281  0.1628  0.3181
  937MOL0     C26396   7.063   7.209   5.456 -0.0995  0.5610  0.1418
  937MOL0     C26397   7.178   7.224   5.550  0.4522 -0.2259  0.2680
  937MOL0     C26398   7.151   7.311   5.678 -0.9812 -0.1247  0.2919
  937MOL0     C26399   7.284   7.304   5.763  1.3059  0.5353  0.5530
  937MOL0     C26400   7.258   7.349   5.911 -0.7111 -0.2297 -0.0388
  937MOL0     C26401   7.390   7.349   5.994 -0.1219 -0.2096  0.4676
  937MOL0     C26402   7.433   7.208   6.039  0.3394 -0.4590  0.0171
  937MOL0     C26403   7.565   7.214   6.119 -1.0662 -0.5607 -0.2471
  937MOL0    Cl26404   7.703   7.234   6.012 -0.1451  0.0229  0.0893
  937MOL0     C26405   6.723   7.199   5.557  0.2090 -0.3408 -0.0074
  937MOL0     C26406   6.596   7.205   5.503 -0.0915 -0.1822 -0.0520
  937MOL0     O26407   6.490   7.222   5.112 -0.1087 -0.1657  0.2280
  937MOL0     C26408   6.228   7.177   5.012 -0.2714 -0.5834 -1.1346
  937MOL0     C26409   6.096   7.162   4.973  0.3373 -0.3204 -0.0224
  937MOL0     N26410   5.365   7.251   4.819  0.1168 -0.5124 -0.3969
  937MOL0     N26411   5.249   7.310   4.854 -0.3308  0.7785  0.1163
  937MOL0     C26412   4.019   7.139   4.746 -0.0126 -0.6869  0.4182
  937MOL0     C26413   3.889   7.099   4.704 -0.1658  1.0545 -0.8589
  937MOL0     C26414   3.541   6.999   4.452 -0.1217  0.0492  0.3002
  937MOL0     C26415   3.449   7.102   4.412 -0.3874  0.7778 -0.1032
  937MOL0     C26416   3.313   7.072   4.375  0.6731  0.2331 -0.2559
  937MOL0     C26417   3.263   6.951   4.397 -0.2243 -0.7419  1.2929
  937MOL0     O26418   3.130   6.933   4.351 -0.2091  0.2970  0.8599
  937MOL0     C26419   3.065   6.808   4.372 -0.2191  0.1019 -1.4943
  937MOL0     C26420   2.916   6.839   4.361 -0.5013  0.5310  0.5084
  937MOL0     C26421   2.838   6.716   4.295 -0.4238  0.0570 -0.2952
  937MOL0     C26422   2.682   6.731   4.295  0.3043  0.6366  0.4226
  937MOL0     C26423   2.633   6.853   4.244 -1.0504 -0.2124 -0.1966
  937MOL0     C26424   2.591   6.961   4.215 -0.0088 -0.0891  0.2787
  937MOL0     C26425   3.350   6.845   4.439  0.0468 -0.1747  0.5592
  937MOL0     C26426   3.489   6.867   4.461  0.1369  0.0998 -0.2553
  937MOL0     C26427   3.576   6.738   4.484 -0.2794 -0.2476  0.0642
  937MOL0     H26428   3.986   6.885   4.461  1.9992 -0.0762  1.4807
  937MOL0     H26429   4.212   6.976   4.520  0.9592  1.3182  1.2096
  937MOL0     H26430   4.231   7.316   4.842  0.6853  1.7587 -2.0789
  937MOL0     H26431   4.243   7.155   4.916 -2.7047 -0.5327 -1.4537
  937MOL0     H26432   4.438   7.296   4.953 -1.9944  0.7476 -0.1684
  937MOL0     H26433   4.454   7.324   4.775 -1.0239  0.0339  0.0331
  937MOL0     H26434   4.528   7.112   4.731 -0.4900 -0.3973 -0.1414
  937MOL0     H26435   4.521   7.067   4.913 -1.8094  0.5274  0.7921
  937MOL0     H26436   4.680   7.300   4.822 -1.0925  1.3386  2.6379
  937MOL0     H26437   4.683   7.210   4.973  2.8594  0.3273 -0.1827
  937MOL0     H26438   4.776   7.009   4.850  4.5129 -1.0254 -0.9278
  937MOL0     H26439   4.781   7.113   4.704  0.3587  0.4009  0.2180
  937MOL0     H26440   5.008   7.110   4.827  0.1204 -0.2129 -2.7228
  937MOL0     H26441   4.925   7.264   4.810 -1.4364 -1.1782  0.1589
  937MOL0     H26442   4.963   7.108   5.058  1.7196  0.9635 -0.7138
  937MOL0     H26443   4.872   7.264   5.061  0.3207  0.9493 -0.2737
  937MOL0     H26444   5.052   7.390   4.999 -1.2311  0.8142  3.0215
  937MOL0     H26445   5.093   7.280   5.141 -0.4549  1.4315 -0.4509
  937MOL0     H26446   5.241   7.045   5.051 -0.7905 -0.5867 -1.3998
  937MOL0     H26447   5.432   6.947   4.841  3.3274 -0.9348 -0.8120
  937MOL0     H26448   5.545   7.085   4.798  1.0667 -1.8704 -0.4188
  937MOL0     H26449   5.519   6.970   5.068 -1.2178  1.9925 -0.2707
  937MOL0     H26450   5.666   6.951   4.974  0.1542  0.5339  0.2038
  937MOL0     H26451   5.554   7.208   5.095 -2.1933  0.0991 -2.4068
  937MOL0     H26452   5.648   7.211   4.948  0.7064 -0.9414 -1.2065
  937MOL0     H26453   5.752   7.065   5.186 -1.1250  1.0656  1.6412
  937MOL0     H26454   5.762   7.234   5.173  2.0545 -1.3310  1.1488
  937MOL0     H26455   5.943   7.124   5.282 -0.3805 -1.1844  0.2810
  937MOL0     H26456   6.186   7.140   5.344 -2.3007  0.8736  0.4993
  937MOL0     H26457   6.679   7.108   5.181 -0.6061  0.2553  0.6528
  937MOL0     H26458   6.904   7.125   5.279 -0.8343 -0.0755 -0.8657
  937MOL0     H26459   7.100   7.138   5.381  1.7227  1.1452  0.4307
  937MOL0     H26460   7.047   7.304   5.405 -0.1996 -0.4177 -1.7422
  937MOL0     H26461   7.191   7.128   5.600  0.9184 -1.1185 -1.4963
  937MOL0     H26462   7.270   7.255   5.500 -0.2752  1.0895 -0.3103
  937MOL0     H26463   7.140   7.414   5.642  2.3340 -0.2796 -1.6148
  937MOL0     H26464   7.062   7.287   5.736 -0.4529  0.7006  1.4748
  937MOL0     H26465   7.357   7.363   5.707  0.2349  0.2670 -1.2019
  937MOL0     H26466   7.317   7.201   5.776 -1.9826 -0.3589  3.3299
  937MOL0     H26467   7.186   7.277   5.950 -1.3649 -0.6593 -1.9561
  937MOL0     H26468   7.218   7.451   5.919  1.1829  0.4301  2.0505
  937MOL0     H26469   7.471   7.395   5.936 -1.8559 -0.4633 -2.3768
  937MOL0     H26470   7.377   7.414   6.081 -2.8596 -2.1198  1.6404
  937MOL0     H26471   7.454   7.142   5.955  0.7776 -1.3886  0.8439
  937MOL0     H26472   7.361   7.150   6.098  1.5181 -2.4989 -0.4857
  937MOL0     H26473   7.559   7.293   6.194 -1.4336 -0.2368 -0.6097
  937MOL0     H26474   7.571   7.112   6.160 -0.7207 -0.9721 -1.2959
  937MOL0     H26475   6.745   7.213   5.662  2.2532  0.3129 -0.4876
  937MOL0     H26476   6.515   7.224   5.573  0.3382 -2.6655  1.2483
  937MOL0     H26477   6.301   7.196   4.934  1.5797 -2.4433  0.0624
  937MOL0     H26478   6.075   7.152   4.867  0.7464 -0.7430 -0.0657
  937MOL0     H26479   4.021   7.201   4.835  1.9912  1.8846 -1.2844
  937MOL0     H26480   3.795   7.117   4.755  0.2779 -0.2078  0.4889
  937MOL0     H26481   3.474   7.207   4.399 -1.3776  0.9095 -1.1224
  937MOL0     H26482   3.251   7.155   4.342 -1.6567 -1.8319 -1.4682
  937MOL0     H26483   3.084   6.778   4.475 -3.3806  0.6758 -0.6364
  937MOL0     H26484   3.111   6.740   4.300  0.3355  0.1418 -1.1808
  937MOL0     H26485   2.905   6.913   4.282  0.7625 -0.9271 -1.1142
  937MOL0     H26486   2.875   6.874   4.456  0.1436  0.0072  0.9979
  937MOL0     H26487   2.860   6.635   4.365 -1.3115  1.8720  2.2204
  937MOL0     H26488   2.872   6.698   4.192  0.8305  4.2801 -0.7842
  937MOL0     H26489   2.642   6.645   4.241 -1.7901  1.1301  1.1040
  937MOL0     H26490   2.640   6.721   4.396 -3.5953 -1.0093 -1.1931
  937MOL0     H26491   2.555   7.056   4.179 -0.7493 -0.2648  0.5362
  937MOL0     H26492   3.323   6.742   4.459  1.4955 -0.5837  0.5607
  937MOL0     H26493   3.635   6.718   4.395  0.9113  1.2889  0.4542
  937MOL0     H26494   3.645   6.744   4.569  0.3189 -2.4438 -0.2313
  937MOL0     H26495   3.516   6.652   4.514  2.9425 -3.6934 -2.5291
  938MOL0     O26496   0.787   7.606   4.286  0.3378 -0.3431 -0.6920
  938MOL0     C26497   0.802   7.701   4.369 -0.0920  0.3254 -0.5912
  938MOL0     O26498   0.921   7.750   4.401 -0.0235  0.2028  1.0115
  938MOL0     C26499   1.027   7.677   4.364 -0.3461  0.6938 -0.2281
  938MOL0     C26500   1.082   7.699   4.237 -0.2695 -0.8465  0.7749
  938MOL0     C26501   1.198   7.650   4.194 -0.0870 -0.0790  0.5206
  938MOL0     C26502   1.277   7.569   4.278  0.3491  0.8135 -0.7882
  938MOL0     O26503   1.396   7.534   4.218  0.0179 -0.1404 -0.0198
  938MOL0     C26504   1.505   7.506   4.308  0.4215  0.0332  0.2116
  938MOL0     C26505   1.615   7.443   4.228  0.2339  0.1620 -0.6958
  938MOL0     C26506   1.734   7.427   4.326  0.6040 -0.9912  0.5561
  938MOL0     C26507   1.843   7.349   4.267 -0.3823 -0.2426  0.5914
  938MOL0     C26508   1.967   7.444   4.272 -0.0290  0.4146  0.2978
  938MOL0     C26509   2.079   7.370   4.191  1.2775  0.3092 -0.4602
  938MOL0     C26510   2.217   7.429   4.210 -0.4538  0.3650 -0.9871
  938MOL0     C26511   2.311   7.340   4.131  0.6870  0.2780 -0.0777
  938MOL0     N26512   2.449   7.344   4.177  0.1740  0.7766  0.2777
  938MOL0     C26513   2.496   7.271   4.282 -0.1655 -0.1150  0.7172
  938MOL0     C26514   2.621   7.320   4.298  0.1490 -0.4223  0.2956
  938MOL0     C26515   2.713   7.274   4.405  0.4221 -0.0630  0.4251
  938MOL0     C26516   2.841   7.356   4.436 -0.4097  0.3774 -0.1515
  938MOL0     C26517   2.951   7.319   4.334 -0.4415 -0.3362  0.2270
  938MOL0     C26518   3.080   7.389   4.370  0.3244 -0.5473  0.3992
  938MOL0     O26519   3.139   7.348   4.498 -0.2011 -0.5566 -0.2671
  938MOL0     C26520   3.265   7.383   4.539 -0.9599 -0.0692 -0.7891
  938MOL0     C26521   3.361   7.447   4.458  0.0732 -0.0431  0.1427
  938MOL0     C26522   3.487   7.476   4.507  0.2646 -0.8659  0.0270
  938MOL0     C26523   3.535   7.434   4.629 -0.1331  0.7525  0.2538
  938MOL0     C26524   3.665   7.472   4.678 -0.0312  0.9414 -0.1422
  938MOL0     O26525   3.734   7.543   4.591  0.2321  0.2993 -0.0076
  938MOL0     C26526   3.866   7.546   4.601  0.0349  0.6107  0.1295
  938MOL0     C26527   3.928   7.661   4.657  0.0603  0.5484 -0.4956
  938MOL0     C26528   4.071   7.663   4.681  0.4676  0.3975  0.0967
  938MOL0     C26529   4.144   7.557   4.643  0.1541  0.2772  0.2196
  938MOL0     O26530   4.276   7.563   4.662 -0.0960  0.4964  0.2870
  938MOL0     C26531   4.358   7.491   4.567 -0.9400  0.2841 -0.1545
  938MOL0     C26532   4.503   7.549   4.587  0.0506  0.0241  0.0758
  938MOL0     C26533   4.504   7.683   4.512 -0.5145  1.0294  0.5209
  938MOL0     C26534   4.649   7.736   4.519 -0.8676  0.6603 -0.4374
  938MOL0     C26535   4.647   7.865   4.445 -0.3743 -0.0645  0.1040
  938MOL0     C26536   4.785   7.940   4.465 -0.0830 -0.3327 -0.2596
  938MOL0     C26537   4.767   8.096   4.466 -0.2160  0.1606  0.3909
  938MOL0     C26538   4.698   8.140   4.597  0.3118 -0.5517 -0.2809
  938MOL0    Cl26539   4.817   8.170   4.719 -0.2149  0.1837  0.0000
  938MOL0     C26540   4.080   7.444   4.596  0.0397  0.2867  0.5573
  938MOL0     C26541   3.945   7.437   4.579  0.3950  0.5919 -0.0114
  938MOL0     O26542   3.695   7.436   4.791 -0.2719 -0.1746  0.2372
  938MOL0     C26543   3.440   7.352   4.707  0.1092 -0.4648  0.1930
  938MOL0     C26544   3.312   7.334   4.666  0.1924  0.3595  0.6055
  938MOL0     N26545   2.653   7.398   4.200  0.3251  0.2010 -0.7038
  938MOL0     N26546   2.556   7.408   4.118 -0.9206 -0.1292  0.6635
  938MOL0     C26547   1.217   7.533   4.403 -0.9668  0.1705 -0.3255
  938MOL0     C26548   1.093   7.587   4.447  0.4402  0.9330  0.1328
  938MOL0     C26549   0.687   7.762   4.449  0.2960  0.0815 -0.5827
  938MOL0     C26550   0.718   7.873   4.531 -0.1315  0.3123  0.5018
  938MOL0     C26551   0.623   7.952   4.595  0.8695 -0.4440 -0.2537
  938MOL0     C26552   0.484   7.911   4.593 -0.9165  0.3826  0.2929
  938MOL0     O26553   0.385   7.981   4.657  0.1503 -0.5801 -0.0102
  938MOL0     C26554   0.422   8.082   4.754 -0.4448 -0.2671 -0.7709
  938MOL0     C26555   0.322   8.132   4.848  0.3003  0.2218  0.0432
  938MOL0     C26556   0.179   8.158   4.782  0.7599  0.1568  0.3242
  938MOL0     C26557   0.055   8.192   4.865 -0.2007 -0.4004 -0.2919
  938MOL0     C26558   0.065   8.309   4.947  0.0670 -0.2105  0.0954
  938MOL0     C26559   0.076   8.422   5.006  1.3458 -0.1544  0.2113
  938MOL0     C26560   0.458   7.797   4.510  0.4782  0.1742  0.4421
  938MOL0     C26561   0.554   7.713   4.446 -0.1812 -0.8205  0.1954
  938MOL0     C26562   0.510   7.590   4.362  0.9348 -1.0080  0.2864
  938MOL0     H26563   1.026   7.761   4.167 -1.4585 -1.4521  1.1550
  938MOL0     H26564   1.213   7.681   4.091 -0.1971 -0.5566  0.3552
  938MOL0     H26565   1.530   7.603   4.351 -1.9527  0.7319  0.1291
  938MOL0     H26566   1.478   7.439   4.390  0.7122 -2.3710 -1.5564
  938MOL0     H26567   1.637   7.507   4.142 -1.4776  1.5059 -0.1764
  938MOL0     H26568   1.589   7.343   4.194  0.4120 -0.1902  0.1685
  938MOL0     H26569   1.686   7.367   4.405 -3.2188  0.5133 -0.3995
  938MOL0     H26570   1.761   7.529   4.355  1.1301 -1.1428  0.6068
  938MOL0     H26571   1.876   7.265   4.328  3.1253 -0.0612 -0.8314
  938MOL0     H26572   1.824   7.322   4.163  0.9619 -1.3803  0.6083
  938MOL0     H26573   1.949   7.544   4.231 -0.9378 -0.2390 -0.9267
  938MOL0     H26574   1.993   7.458   4.377  0.2990 -1.6358  0.5272
  938MOL0     H26575   2.059   7.263   4.206 -0.7982  0.6349 -0.5855
  938MOL0     H26576   2.051   7.387   4.087 -1.6213  0.9210  0.3323
  938MOL0     H26577   2.244   7.427   4.316 -3.9803 -1.0677  0.0313
  938MOL0     H26578   2.227   7.529   4.168 -1.3035  0.6497 -0.5173
  938MOL0     H26579   2.274   7.237   4.133  0.3276  0.4052  2.5146
  938MOL0     H26580   2.318   7.383   4.030  0.6917  1.1926  0.3067
  938MOL0     H26581   2.450   7.196   4.345 -2.2212  1.0402  0.6618
  938MOL0     H26582   2.651   7.272   4.495  1.0109 -1.4979  0.8257
  938MOL0     H26583   2.732   7.167   4.399 -2.6391 -0.7317  0.7104
  938MOL0     H26584   2.826   7.464   4.424 -0.0304  0.2854 -1.6449
  938MOL0     H26585   2.867   7.344   4.541  2.5470 -0.6710 -0.9144
  938MOL0     H26586   2.925   7.355   4.234 -2.2171  0.6796  1.0077
  938MOL0     H26587   2.987   7.216   4.334 -0.3349 -0.3026  0.8258
  938MOL0     H26588   3.071   7.497   4.355 -1.3648 -0.6567  0.5284
  938MOL0     H26589   3.152   7.362   4.292 -0.4185  0.2112 -0.5730
  938MOL0     H26590   3.341   7.487   4.358 -2.8632 -1.5550  0.0289
  938MOL0     H26591   3.539   7.553   4.451  0.3865 -2.5073 -2.2270
  938MOL0     H26592   3.874   7.741   4.706  0.3728 -0.0231  0.8183
  938MOL0     H26593   4.132   7.739   4.729  0.8501  0.1065  0.0663
  938MOL0     H26594   4.359   7.385   4.591  1.7062  0.4919  0.9071
  938MOL0     H26595   4.328   7.511   4.463  0.8699 -2.5010 -1.3275
  938MOL0     H26596   4.526   7.574   4.691  0.0165 -0.7247  0.2719
  938MOL0     H26597   4.581   7.478   4.557  1.6083  2.0263 -0.8060
  938MOL0     H26598   4.483   7.670   4.405  2.1498  2.0214 -0.1994
  938MOL0     H26599   4.434   7.756   4.552  0.9954  1.4673  2.4835
  938MOL0     H26600   4.723   7.669   4.474 -1.1849 -1.1551  1.5375
  938MOL0     H26601   4.670   7.766   4.622 -1.8408  0.6014 -0.2096
  938MOL0     H26602   4.558   7.922   4.474 -2.5632 -1.0688 -3.8856
  938MOL0     H26603   4.628   7.849   4.339 -0.5766  1.2824 -0.0890
  938MOL0     H26604   4.852   7.907   4.545  2.4293  0.7285 -1.7693
  938MOL0     H26605   4.844   7.908   4.378 -3.3141 -1.5876 -2.1741
  938MOL0     H26606   4.700   8.120   4.383 -1.3167  1.9048  1.7304
  938MOL0     H26607   4.859   8.149   4.437 -0.7258  0.4047 -0.8368
  938MOL0     H26608   4.653   8.237   4.574 -0.0273 -0.6942 -0.2303
  938MOL0     H26609   4.625   8.068   4.634 -0.7866 -0.5725 -2.3407
  938MOL0     H26610   4.130   7.357   4.556 -1.2143 -0.4084  0.4626
  938MOL0     H26611   3.901   7.344   4.546 -0.4210  0.7665  0.5499
  938MOL0     H26612   3.483   7.309   4.797 -1.3342 -3.4330 -0.4237
  938MOL0     H26613   3.245   7.278   4.730  1.0975 -0.6625  0.6862
  938MOL0     H26614   1.258   7.457   4.469 -1.7317  1.5284  1.8206
  938MOL0     H26615   1.053   7.562   4.545 -0.1971 -0.9060 -0.5353
  938MOL0     H26616   0.822   7.904   4.537  0.5867 -1.9558  0.8540
  938MOL0     H26617   0.650   8.050   4.634 -1.9676  0.8089 -1.1985
  938MOL0     H26618   0.453   8.174   4.703  1.0003  0.1859  0.8189
  938MOL0     H26619   0.496   8.034   4.818 -3.8641 -4.1593  0.7413
  938MOL0     H26620   0.360   8.224   4.893  1.4366  0.9891 -2.3449
  938MOL0     H26621   0.310   8.055   4.925 -1.4906 -0.2167 -0.6126
  938MOL0     H26622   0.148   8.074   4.720  0.7391  1.6556 -1.7844
  938MOL0     H26623   0.179   8.243   4.714  0.0771  0.7990  1.0968
  938MOL0     H26624  -0.030   8.219   4.802  0.6609  3.1147 -0.1429
  938MOL0     H26625   0.030   8.103   4.923  1.8425  0.5223  2.2097
  938MOL0     H26626   0.092   8.509   5.066  0.3082 -0.4484  0.9516
  938MOL0     H26627   0.355   7.772   4.487  0.0433  2.0217  0.2025
  938MOL0     H26628   0.578   7.508   4.386 -1.0988 -2.9960 -0.4228
  938MOL0     H26629   0.406   7.573   4.392  0.5540  0.3546 -0.1652
  938MOL0     H26630   0.525   7.614   4.257  0.9718  1.0655  0.7143
  939MOL0     O26631   0.156   6.188   7.799  0.3391 -0.2811 -0.2814
  939MOL0     C26632   0.134   6.076   7.756 -0.3497 -0.1452  0.8055
  939MOL0     O26633   0.235   5.984   7.729 -0.1913 -0.6941 -0.0985
  939MOL0     C26634   0.366   6.037   7.763 -0.2033  0.4069 -0.9506
  939MOL0     C26635   0.418   6.025   7.890  0.2464  1.1154  0.0967
  939MOL0     C26636   0.552   6.065   7.915  0.1514  0.0251  0.3022
  939MOL0     C26637   0.637   6.118   7.814  0.4245 -0.1988  0.0705
  939MOL0     O26638   0.762   6.164   7.849  0.0818  0.3974  0.7132
  939MOL0     C26639   0.873   6.168   7.754  0.6420 -0.2201  0.8089
  939MOL0     C26640   0.979   6.240   7.830  0.3121  0.2843 -0.7563
  939MOL0     C26641   1.110   6.238   7.750  0.4445  0.5912  0.2624
  939MOL0     C26642   1.233   6.290   7.824  1.3866 -0.4654 -1.0071
  939MOL0     C26643   1.335   6.330   7.723 -0.3866 -0.3633  1.1473
  939MOL0     C26644   1.456   6.385   7.792 -0.3733  0.5454 -0.1715
  939MOL0     C26645   1.543   6.463   7.693  0.1014  0.6219 -0.0332
  939MOL0     C26646   1.661   6.542   7.744  0.5284  0.1379  0.0100
  939MOL0     N26647   1.749   6.595   7.643 -0.0333 -0.3162 -0.2803
  939MOL0     C26648   1.883   6.591   7.657 -0.1188 -0.0544  0.3310
  939MOL0     C26649   1.928   6.610   7.528  0.5293 -1.2886 -0.0058
  939MOL0     C26650   2.072   6.611   7.490  0.1579 -0.7324 -0.1587
  939MOL0     C26651   2.145   6.740   7.538 -0.6763 -0.5493 -0.2393
  939MOL0     C26652   2.160   6.757   7.694  0.1483 -0.0008 -0.0117
  939MOL0     C26653   2.254   6.876   7.720 -0.6903 -0.4119  0.1373
  939MOL0     O26654   2.381   6.855   7.661  0.1584  0.0909  0.1755
  939MOL0     C26655   2.470   6.797   7.746 -0.7092  1.6729  0.0682
  939MOL0     C26656   2.456   6.750   7.872 -0.8623  0.3410  0.0009
  939MOL0     C26657   2.565   6.709   7.957 -0.4229 -0.5780  0.4276
  939MOL0     C26658   2.696   6.706   7.906  0.6724 -0.5021 -0.0947
  939MOL0     C26659   2.817   6.664   7.972  0.1876  0.2519 -0.7262
  939MOL0     O26660   2.939   6.704   7.916  1.1966 -0.4380  0.6403
  939MOL0     C26661   3.059   6.724   7.984 -0.0275  0.7180 -0.1602
  939MOL0     C26662   3.179   6.734   7.908  0.1651  0.5024  0.5850
  939MOL0     C26663   3.301   6.744   7.967  0.3383 -0.2013  0.4139
  939MOL0     C26664   3.316   6.759   8.101  0.0471 -0.1476  0.2657
  939MOL0     O26665   3.447   6.770   8.151  0.1159  0.1374 -0.8468
  939MOL0     C26666   3.467   6.856   8.265  0.1222  0.2156 -0.4545
  939MOL0     C26667   3.605   6.852   8.307 -0.9420  0.0903  0.3345
  939MOL0     C26668   3.632   6.932   8.438 -0.1299 -1.0508 -0.5083
  939MOL0     C26669   3.785   6.961   8.468 -0.3635 -0.0087  0.0276
  939MOL0     C26670   3.815   7.007   8.611 -0.1658 -0.1517 -0.3607
  939MOL0     C26671   3.758   7.146   8.638 -0.7755  0.0288  0.9121
  939MOL0     C26672   3.799   7.179   8.775  0.4300 -0.4914 -0.6147
  939MOL0     C26673   3.725   7.306   8.816 -0.3793 -0.6545 -0.7018
  939MOL0    Cl26674   3.817   7.450   8.765  0.0098 -0.3138  0.4600
  939MOL0     C26675   3.202   6.771   8.173  0.6376 -1.0096 -0.0317
  939MOL0     C26676   3.077   6.745   8.121 -0.2331 -0.1174 -0.2052
  939MOL0     O26677   2.806   6.602   8.076 -0.1942  0.1271 -0.0555
  939MOL0     C26678   2.707   6.743   7.773 -0.2018 -0.4484  0.3086
  939MOL0     C26679   2.600   6.787   7.695 -0.7682  0.1731  0.1375
  939MOL0     N26680   1.823   6.640   7.448 -0.3883  1.0073 -0.0645
  939MOL0     N26681   1.710   6.619   7.511  0.1187 -0.0845 -0.2607
  939MOL0     C26682   0.588   6.122   7.679  0.6385 -0.4566 -0.2448
  939MOL0     C26683   0.451   6.075   7.662  0.1972 -0.5699  0.1601
  939MOL0     C26684  -0.012   6.048   7.712 -0.1074 -0.2023 -0.8652
  939MOL0     C26685  -0.111   6.114   7.786  0.2087  0.3000 -0.8740
  939MOL0     C26686  -0.244   6.093   7.750 -0.2867 -0.4183 -0.2442
  939MOL0     C26687  -0.287   5.997   7.655 -0.4797  0.1448  0.0445
  939MOL0     O26688  -0.420   5.973   7.623 -0.5744  0.0867 -0.0036
  939MOL0     C26689  -0.470   5.955   7.486  0.0370 -0.4551 -1.0785
  939MOL0     C26690  -0.622   5.982   7.500 -0.0082  0.0325 -1.4171
  939MOL0     C26691  -0.703   5.977   7.365  0.4017 -0.3943 -0.3139
  939MOL0     C26692  -0.851   6.013   7.377 -0.1399  0.2964  0.2469
  939MOL0     C26693  -0.872   6.137   7.451 -0.5149 -0.2554 -0.5321
  939MOL0     C26694  -0.882   6.239   7.514  0.6399  0.4760 -0.0410
  939MOL0     C26695  -0.184   5.938   7.586 -0.3726 -0.0528 -0.1086
  939MOL0     C26696  -0.052   5.955   7.621  0.2235  0.4011  0.3588
  939MOL0     C26697   0.040   5.864   7.548 -0.1619  0.7050  0.0704
  939MOL0     H26698   0.352   5.992   7.970  1.9899  1.9013  1.9390
  939MOL0     H26699   0.593   6.067   8.016 -1.0269  0.7759  0.7903
  939MOL0     H26700   0.908   6.069   7.723  1.3773  0.7512 -1.6997
  939MOL0     H26701   0.847   6.221   7.663 -0.7650  0.1517  1.4038
  939MOL0     H26702   1.006   6.194   7.926  0.3562  0.2037 -0.8075
  939MOL0     H26703   0.952   6.345   7.843  0.4284  0.0498  2.0077
  939MOL0     H26704   1.085   6.306   7.668 -0.5345  0.8018  0.7226
  939MOL0     H26705   1.147   6.143   7.712  0.4105  1.5015 -2.2146
  939MOL0     H26706   1.212   6.373   7.891  3.5090 -2.5918  2.5956
  939MOL0     H26707   1.272   6.215   7.894 -0.1497  0.9701  1.5153
  939MOL0     H26708   1.359   6.244   7.661 -0.8032 -1.0306  1.8828
  939MOL0     H26709   1.296   6.404   7.653 -1.9783 -2.0758  0.1454
  939MOL0     H26710   1.416   6.457   7.865 -0.1147  2.1748 -1.5581
  939MOL0     H26711   1.510   6.301   7.836 -0.4529 -1.1478 -3.1141
  939MOL0     H26712   1.473   6.539   7.655 -1.1073 -0.2653  0.3628
  939MOL0     H26713   1.574   6.400   7.610 -0.1310 -0.2837  0.5611
  939MOL0     H26714   1.628   6.628   7.804  0.3635  3.3565 -4.2755
  939MOL0     H26715   1.727   6.472   7.796  0.5380 -0.5236 -0.8726
  939MOL0     H26716   1.945   6.566   7.743  1.8204 -0.9805 -1.2805
  939MOL0     H26717   2.132   6.527   7.527  1.7367  1.2207  2.0634
  939MOL0     H26718   2.083   6.622   7.382 -2.0472  0.3575 -0.3329
  939MOL0     H26719   2.245   6.740   7.493 -1.7955  1.2753 -2.9814
  939MOL0     H26720   2.108   6.833   7.493  1.1769 -0.8993 -2.7594
  939MOL0     H26721   2.210   6.666   7.728  0.4587 -0.3384 -1.3380
  939MOL0     H26722   2.067   6.778   7.748 -1.0346 -2.7958 -0.7924
  939MOL0     H26723   2.273   6.908   7.822  2.5383  1.4501 -0.8814
  939MOL0     H26724   2.235   6.973   7.674 -2.7828  0.7003  3.0516
  939MOL0     H26725   2.358   6.746   7.919 -0.1580 -1.0566  1.4332
  939MOL0     H26726   2.535   6.662   8.051  1.0782 -0.7618  0.8441
  939MOL0     H26727   3.169   6.721   7.800 -0.9781 -1.8992  0.8970
  939MOL0     H26728   3.381   6.736   7.895 -0.6425  0.7472 -0.8300
  939MOL0     H26729   3.439   6.961   8.250  0.2108  0.3469  0.2594
  939MOL0     H26730   3.403   6.825   8.347  0.8361  3.0575  1.3068
  939MOL0     H26731   3.639   6.749   8.322  0.3114  0.7125  2.1143
  939MOL0     H26732   3.664   6.898   8.227 -1.8316  2.3714  0.9105
  939MOL0     H26733   3.576   7.026   8.430 -1.5201 -1.4791  2.4746
  939MOL0     H26734   3.589   6.876   8.522 -1.2520 -0.2105 -0.4919
  939MOL0     H26735   3.815   7.035   8.393  0.5625  0.2543  0.6435
  939MOL0     H26736   3.849   6.876   8.443  3.0288  2.4870 -0.4488
  939MOL0     H26737   3.924   7.016   8.621 -0.2068  0.2169 -0.2297
  939MOL0     H26738   3.770   6.937   8.682 -0.0124 -0.2479 -0.3555
  939MOL0     H26739   3.801   7.216   8.566 -0.3937 -1.3030 -0.2027
  939MOL0     H26740   3.650   7.156   8.623 -0.7426  0.5735  1.0149
  939MOL0     H26741   3.907   7.180   8.792  0.2426  0.9128  0.6813
  939MOL0     H26742   3.757   7.110   8.848  2.5001  1.7469  2.9568
  939MOL0     H26743   3.623   7.312   8.778 -1.0350 -0.7204  0.9757
  939MOL0     H26744   3.718   7.310   8.925 -1.6987 -1.4313 -0.7516
  939MOL0     H26745   3.222   6.789   8.278  2.0578  0.5547 -0.5319
  939MOL0     H26746   2.993   6.752   8.190 -0.7874  1.6095 -1.0042
  939MOL0     H26747   2.806   6.732   7.730  0.3210 -2.0503  1.8371
  939MOL0     H26748   2.621   6.823   7.595 -0.9702 -2.9963 -1.1622
  939MOL0     H26749   0.644   6.148   7.590  1.0894 -0.7972 -0.0654
  939MOL0     H26750   0.405   6.068   7.564  2.3615 -0.6526 -0.9054
  939MOL0     H26751  -0.090   6.191   7.859 -1.9927 -0.6264  0.8490
  939MOL0     H26752  -0.330   6.143   7.794  0.6362  1.5291 -0.5466
  939MOL0     H26753  -0.446   5.852   7.462  1.5615 -1.3616  3.3376
  939MOL0     H26754  -0.429   6.028   7.416 -1.3388  1.1032 -0.3345
  939MOL0     H26755  -0.652   6.071   7.557 -3.6646 -0.5857 -2.1475
  939MOL0     H26756  -0.663   5.898   7.556  1.4095  0.5444  0.4757
  939MOL0     H26757  -0.702   5.879   7.316 -0.2425 -0.6338  0.1368
  939MOL0     H26758  -0.661   6.048   7.293 -0.5670  0.3284 -0.1840
  939MOL0     H26759  -0.894   6.016   7.277 -2.7302 -1.2730  1.2093
  939MOL0     H26760  -0.893   5.932   7.438 -1.0697  1.4633  1.2093
  939MOL0     H26761  -0.899   6.328   7.572 -4.5638 -0.5370  0.5002
  939MOL0     H26762  -0.201   5.858   7.515 -3.3803 -0.0731  0.4919
  939MOL0     H26763  -0.005   5.831   7.454  2.5963 -3.0310 -0.1423
  939MOL0     H26764   0.130   5.917   7.516 -0.2596  2.0010  1.7983
  939MOL0     H26765   0.076   5.772   7.594 -0.2808  0.3014 -0.6206
  940MOL0     O26766   5.984   5.090   4.227  0.1236 -0.0713  0.1020
  940MOL0     C26767   5.910   5.003   4.176 -0.9334  0.3838 -1.6098
  940MOL0     O26768   5.926   4.950   4.048 -0.4504 -1.0841  0.2414
  940MOL0     C26769   6.052   4.971   3.987  0.8075  0.3864  0.2829
  940MOL0     C26770   6.168   4.942   4.069 -0.2512 -0.1544  0.3737
  940MOL0     C26771   6.293   4.971   4.020 -0.0761  0.4377  0.2964
  940MOL0     C26772   6.310   5.036   3.900 -0.6324  0.5254  0.1165
  940MOL0     O26773   6.445   5.061   3.870 -0.0442 -0.0210 -0.3930
  940MOL0     C26774   6.469   5.146   3.761  0.1184 -0.6994  0.3789
  940MOL0     C26775   6.615   5.147   3.747 -0.3047 -0.6968  0.1668
  940MOL0     C26776   6.675   5.250   3.651  1.1723  0.4739 -0.6505
  940MOL0     C26777   6.813   5.300   3.686  0.1457  0.4312 -0.2719
  940MOL0     C26778   6.869   5.391   3.577 -0.5833  0.4407  0.6365
  940MOL0     C26779   7.007   5.446   3.626  0.0573 -0.3412  0.5154
  940MOL0     C26780   7.076   5.519   3.509  0.6271 -0.4869 -0.3044
  940MOL0     C26781   7.217   5.561   3.542  0.6529  0.0365 -0.7810
  940MOL0     N26782   7.282   5.614   3.425  0.1635 -0.0299 -0.1465
  940MOL0     C26783   7.293   5.747   3.400  0.9226 -0.9266 -0.0406
  940MOL0     C26784   7.388   5.763   3.304 -0.0358  0.1993 -0.3777
  940MOL0     C26785   7.439   5.894   3.247  0.5057  0.1009 -0.2618
  940MOL0     C26786   7.585   5.873   3.202  0.1307  0.7341 -0.2847
  940MOL0     C26787   7.636   6.003   3.132 -0.9353 -0.4633  0.4416
  940MOL0     C26788   7.787   5.996   3.126 -0.5293 -0.3890  0.0809
  940MOL0     O26789   7.828   6.031   3.266 -0.1539  0.6524  0.1310
  940MOL0     C26790   7.959   6.090   3.285  0.0102  0.7799  0.8491
  940MOL0     C26791   8.069   6.076   3.200  0.2877  0.5980 -0.4760
  940MOL0     C26792   8.191   6.138   3.236 -0.2782  0.0548 -0.5312
  940MOL0     C26793   8.211   6.213   3.356  0.2207  0.6960  1.3785
  940MOL0     C26794   8.334   6.297   3.388  0.1415 -0.2283  0.5205
  940MOL0     O26795   8.425   6.313   3.293 -0.2252  0.8311 -0.2057
  940MOL0     C26796   8.538   6.380   3.328  0.2659 -0.1123 -0.4266
  940MOL0     C26797   8.536   6.505   3.396 -0.7288  0.0125  0.7219
  940MOL0     C26798   8.650   6.589   3.415 -0.3054 -0.4789 -0.3155
  940MOL0     C26799   8.775   6.542   3.361  0.4617 -0.4952  0.3489
  940MOL0     O26800   8.878   6.629   3.365 -0.3706  0.1477  0.4983
  940MOL0     C26801   9.012   6.596   3.314  0.4986  0.3345 -0.1705
  940MOL0     C26802   9.116   6.707   3.331 -0.5645 -0.0616  0.4932
  940MOL0     C26803   9.257   6.651   3.335 -0.4539 -0.0192 -0.5298
  940MOL0     C26804   9.369   6.767   3.338 -0.6276  0.1645 -0.4200
  940MOL0     C26805   9.510   6.714   3.313 -0.2399  0.3718  0.2866
  940MOL0     C26806   9.626   6.804   3.343  0.0517 -0.1690  0.1675
  940MOL0     C26807   9.757   6.766   3.263  0.8586 -0.1853 -0.2271
  940MOL0     C26808   9.753   6.810   3.121 -0.2352  0.5164 -0.5941
  940MOL0    Cl26809   9.927   6.814   3.057 -0.3209  0.2296  0.2321
  940MOL0     C26810   8.775   6.423   3.293  0.2426 -0.1579 -0.2475
  940MOL0     C26811   8.663   6.343   3.273  0.1091  0.2166 -0.5669
  940MOL0     O26812   8.341   6.346   3.498  0.1622 -0.4500  0.2937
  940MOL0     C26813   8.100   6.224   3.439 -0.2655 -0.4268  1.1245
  940MOL0     C26814   7.981   6.167   3.399 -0.1721 -0.1175 -0.0808
  940MOL0     N26815   7.421   5.631   3.273 -0.6352 -0.8444 -0.3861
  940MOL0     N26816   7.367   5.539   3.345 -0.2395  0.7986 -0.4498
  940MOL0     C26817   6.197   5.056   3.818 -0.5089 -0.0168  0.2941
  940MOL0     C26818   6.070   5.018   3.859  1.4127 -0.2700 -0.7997
  940MOL0     C26819   5.786   4.942   4.247 -0.2101 -0.0675 -0.0240
  940MOL0     C26820   5.738   4.809   4.215 -1.1344 -0.1473 -0.1169
  940MOL0     C26821   5.630   4.745   4.272  0.9045 -0.1318  0.2937
  940MOL0     C26822   5.567   4.815   4.382 -0.0135  0.0069 -0.7589
  940MOL0     O26823   5.461   4.763   4.450 -0.3940 -0.4072  0.5319
  940MOL0     C26824   5.404   4.642   4.404 -0.3371 -0.3680  0.4133
  940MOL0     C26825   5.273   4.630   4.479  0.4708  0.1528 -0.4252
  940MOL0     C26826   5.283   4.662   4.626 -0.2259  0.8864  0.0500
  940MOL0     C26827   5.234   4.560   4.727  0.2449  0.1949  0.6863
  940MOL0     C26828   5.306   4.434   4.718 -0.5822 -0.5880  0.3376
  940MOL0     C26829   5.366   4.330   4.701 -0.6437 -0.4282 -0.2555
  940MOL0     C26830   5.611   4.948   4.411 -0.6086 -0.6952  0.6965
  940MOL0     C26831   5.715   5.013   4.349  0.2392  0.5654  0.5839
  940MOL0     C26832   5.732   5.158   4.370 -0.1124 -0.5172  0.5791
  940MOL0     H26833   6.160   4.899   4.168 -2.6215 -1.0110 -0.1235
  940MOL0     H26834   6.385   4.960   4.077  2.1545  1.6849 -2.7632
  940MOL0     H26835   6.420   5.114   3.669 -0.6625  4.0167 -1.1363
  940MOL0     H26836   6.435   5.248   3.780  0.6184 -0.6171  0.8654
  940MOL0     H26837   6.643   5.048   3.710  0.4284 -0.4302 -0.0064
  940MOL0     H26838   6.653   5.175   3.846 -0.6444 -1.6223  0.5710
  940MOL0     H26839   6.602   5.331   3.651 -0.9045 -1.3045 -0.7936
  940MOL0     H26840   6.665   5.193   3.558 -1.3133  1.0072 -0.7678
  940MOL0     H26841   6.796   5.361   3.775 -2.5991 -1.8321  0.9020
  940MOL0     H26842   6.880   5.215   3.706  1.7757  1.6672 -0.2140
  940MOL0     H26843   6.890   5.331   3.488 -1.9122  1.9721 -0.7878
  940MOL0     H26844   6.797   5.471   3.553  0.6987  1.6604  0.7367
  940MOL0     H26845   6.987   5.509   3.714  2.7408  1.1439  0.1800
  940MOL0     H26846   7.067   5.364   3.665  0.9488  0.5082  0.9906
  940MOL0     H26847   7.010   5.604   3.493 -0.4417 -1.1825  0.2882
  940MOL0     H26848   7.085   5.465   3.414  2.4950  1.3415 -1.2424
  940MOL0     H26849   7.229   5.637   3.620  0.3285 -0.1737 -0.5240
  940MOL0     H26850   7.271   5.477   3.589  1.4622  2.5384  3.2819
  940MOL0     H26851   7.243   5.827   3.454  2.7762  0.0605  0.2929
  940MOL0     H26852   7.378   5.924   3.160 -0.6812 -1.2882  0.0393
  940MOL0     H26853   7.434   5.967   3.328 -2.1679 -0.8125  0.5245
  940MOL0     H26854   7.641   5.830   3.286 -0.4584  0.9907  0.2497
  940MOL0     H26855   7.577   5.807   3.116 -0.7605  1.3511 -0.6990
  940MOL0     H26856   7.595   6.090   3.185 -1.2962 -1.3030  1.5802
  940MOL0     H26857   7.590   6.001   3.033 -0.0521 -0.3636  0.0210
  940MOL0     H26858   7.832   6.063   3.052  0.6257 -0.3169  0.8221
  940MOL0     H26859   7.825   5.895   3.106 -0.4153 -0.5151  0.8915
  940MOL0     H26860   8.062   6.025   3.104  2.5484 -1.5757  0.4232
  940MOL0     H26861   8.281   6.132   3.175  0.1574  3.1283 -0.3539
  940MOL0     H26862   8.445   6.541   3.443 -0.7631 -0.2530  0.8628
  940MOL0     H26863   8.651   6.689   3.458  0.7645  0.4261 -2.3206
  940MOL0     H26864   9.046   6.510   3.373 -1.6436 -0.1296  0.4984
  940MOL0     H26865   9.008   6.579   3.207  3.1965 -1.6359 -0.0449
  940MOL0     H26866   9.107   6.782   3.251 -2.3334 -1.3221 -0.5763
  940MOL0     H26867   9.102   6.759   3.426  0.2698  1.3520 -0.1298
  940MOL0     H26868   9.262   6.594   3.429 -1.1556 -0.0725 -0.5207
  940MOL0     H26869   9.266   6.598   3.240 -1.8774  1.1705 -1.3699
  940MOL0     H26870   9.367   6.826   3.429 -1.5040 -1.1231  0.4327
  940MOL0     H26871   9.352   6.834   3.253  1.3245 -1.6512 -2.3946
  940MOL0     H26872   9.511   6.692   3.206 -0.2550 -3.0184  0.8707
  940MOL0     H26873   9.522   6.621   3.369 -0.7001  1.6654  2.7289
  940MOL0     H26874   9.607   6.911   3.340  0.5199 -0.0980 -3.1601
  940MOL0     H26875   9.652   6.776   3.446 -0.6311  1.2460  0.7438
  940MOL0     H26876   9.784   6.660   3.271  0.8783 -0.3196 -1.7998
  940MOL0     H26877   9.840   6.820   3.310  1.1442 -1.3498  0.6660
  940MOL0     H26878   9.689   6.747   3.059 -1.2277 -0.6615  1.5204
  940MOL0     H26879   9.705   6.909   3.112 -1.1730  0.6647  3.8308
  940MOL0     H26880   8.864   6.398   3.236  0.8496 -0.0585  0.6297
  940MOL0     H26881   8.677   6.251   3.217  0.3432 -1.6263  2.3015
  940MOL0     H26882   8.106   6.277   3.533  1.7602 -1.7657  1.8204
  940MOL0     H26883   7.901   6.184   3.470  0.6088  2.1262  0.3391
  940MOL0     H26884   6.205   5.105   3.721 -0.0612  0.0172  0.3466
  940MOL0     H26885   5.988   5.038   3.791  1.9709  0.7678 -1.2027
  940MOL0     H26886   5.794   4.748   4.144  3.1646  2.3577  0.7627
  940MOL0     H26887   5.605   4.643   4.246 -0.0531  0.0275  0.5412
  940MOL0     H26888   5.469   4.554   4.411  1.0744  0.5699 -0.3662
  940MOL0     H26889   5.374   4.645   4.299  1.0119 -2.7763 -0.1352
  940MOL0     H26890   5.226   4.532   4.468  0.9889 -0.2708  0.9706
  940MOL0     H26891   5.210   4.707   4.434  1.1994  1.5187  0.8105
  940MOL0     H26892   5.229   4.756   4.638 -1.0122  0.7727 -2.1840
  940MOL0     H26893   5.387   4.680   4.658 -0.0647  0.8647 -0.4598
  940MOL0     H26894   5.244   4.596   4.830 -0.7728  0.3932  0.7302
  940MOL0     H26895   5.132   4.537   4.694 -0.6469  3.1762  1.0519
  940MOL0     H26896   5.404   4.231   4.684 -0.4673  0.0302 -3.0252
  940MOL0     H26897   5.555   5.004   4.486  0.1477  1.5867 -0.3624
  940MOL0     H26898   5.737   5.209   4.273 -0.4862  0.6337  1.1415
  940MOL0     H26899   5.650   5.200   4.430 -0.1664 -0.4342  0.4489
  940MOL0     H26900   5.822   5.186   4.426 -0.8639 -0.3100  1.7404
  941MOL0     O26901  10.708   7.453  10.531  0.2834 -0.2469 -0.0439
  941MOL0     C26902  10.586   7.450  10.550 -0.2428  0.1329 -0.5407
  941MOL0     O26903  10.509   7.562  10.547  0.8855 -0.1796  0.0082
  941MOL0     C26904  10.567   7.688  10.530 -0.6212 -0.7893 -0.8582
  941MOL0     C26905  10.589   7.779  10.634 -0.0120  0.5679 -0.0699
  941MOL0     C26906  10.624   7.916  10.609 -0.9585  0.4643 -0.3377
  941MOL0     C26907  10.641   7.965  10.481  0.1778 -0.1406  0.3132
  941MOL0     O26908  10.680   8.102  10.462 -0.1350  0.2721  0.2273
  941MOL0     C26909  10.698   8.135  10.321 -0.3860 -0.2943  0.3583
  941MOL0     C26910  10.722   8.286  10.315 -0.1283 -0.4368 -0.1387
  941MOL0     C26911  10.830   8.346  10.414  0.2377 -0.5875 -0.2949
  941MOL0     C26912  10.979   8.308  10.395  0.6305  0.3461 -0.0507
  941MOL0     C26913  11.072   8.380  10.494 -0.0742  0.0467  0.3339
  941MOL0     C26914  11.218   8.375  10.453 -0.0387  0.1182 -0.6541
  941MOL0     C26915  11.315   8.400  10.561 -0.3764 -0.0601  0.1316
  941MOL0     C26916  11.322   8.541  10.616  0.5436 -0.6043 -0.3213
  941MOL0     N26917  11.456   8.578  10.657 -0.0426  1.1202 -0.4231
  941MOL0     C26918  11.491   8.627  10.778  0.3008  0.6255 -0.6090
  941MOL0     C26919  11.620   8.641  10.773 -0.8986 -0.2696  0.0068
  941MOL0     C26920  11.704   8.695  10.890 -0.0251 -0.6567  0.2976
  941MOL0     C26921  11.840   8.627  10.917 -0.3780  0.0947  0.8553
  941MOL0     C26922  11.811   8.497  10.991  0.0915  0.1355  0.0496
  941MOL0     C26923  11.931   8.412  11.035 -0.9305 -0.2397  0.1841
  941MOL0     O26924  12.001   8.500  11.128 -0.0772 -0.6050 -0.0392
  941MOL0     C26925  12.100   8.448  11.205 -0.0515 -1.2616  0.5838
  941MOL0     C26926  12.178   8.543  11.276 -0.7200 -0.9044 -0.6573
  941MOL0     C26927  12.291   8.502  11.350 -0.4726 -0.1419  1.0073
  941MOL0     C26928  12.331   8.366  11.341  0.0541  0.4140  0.4314
  941MOL0     C26929  12.446   8.327  11.429 -1.0931  0.3629  0.6433
  941MOL0     O26930  12.519   8.219  11.391  0.5239  0.0807  0.1505
  941MOL0     C26931  12.649   8.218  11.432 -0.8237 -0.2753 -0.4455
  941MOL0     C26932  12.742   8.314  11.380 -0.4143  0.5152 -0.1334
  941MOL0     C26933  12.877   8.294  11.408  0.6454 -0.0231 -0.1814
  941MOL0     C26934  12.923   8.185  11.476 -0.2647  0.0918  0.4622
  941MOL0     O26935  13.062   8.182  11.498 -0.6647  0.1660 -0.2038
  941MOL0     C26936  13.098   8.211  11.634 -0.5181  0.8272  0.1869
  941MOL0     C26937  13.249   8.200  11.657 -0.0371  0.0812 -0.0081
  941MOL0     C26938  13.325   8.311  11.589  0.1975  0.4972 -0.1402
  941MOL0     C26939  13.464   8.321  11.663 -0.0436  0.2831  0.6135
  941MOL0     C26940  13.553   8.417  11.585  0.2261  0.3716 -0.0933
  941MOL0     C26941  13.672   8.446  11.671  0.7433 -1.0939  0.0158
  941MOL0     C26942  13.745   8.328  11.744 -0.1424  0.1621 -0.6959
  941MOL0     C26943  13.893   8.362  11.759  0.7612  0.2724 -0.6194
  941MOL0    Cl26944  13.934   8.478  11.892  0.4015  0.2392  0.5267
  941MOL0     C26945  12.839   8.087  11.521 -0.3466  0.3689  0.5282
  941MOL0     C26946  12.699   8.110  11.507 -0.5965 -0.3327  0.1436
  941MOL0     O26947  12.483   8.408  11.513 -0.0469  0.0972  0.0155
  941MOL0     C26948  12.261   8.273  11.259 -0.1827  0.4957  0.6996
  941MOL0     C26949  12.145   8.315  11.196  0.0809 -0.3328 -0.7805
  941MOL0     N26950  11.674   8.611  10.647  0.5096  0.2979 -0.9983
  941MOL0     N26951  11.574   8.558  10.584 -0.2511  0.4515 -0.4537
  941MOL0     C26952  10.613   7.875  10.375 -0.0851  0.1417 -0.4148
  941MOL0     C26953  10.581   7.738  10.397 -0.2134  0.4529  0.1375
  941MOL0     C26954  10.530   7.329  10.621 -0.4188  0.0324  0.0740
  941MOL0     C26955  10.614   7.222  10.630 -0.0575  1.2009 -0.5453
  941MOL0     C26956  10.573   7.105  10.690 -0.1418 -0.7386  0.2031
  941MOL0     C26957  10.448   7.085  10.739  0.2969 -0.1735 -0.0736
  941MOL0     O26958  10.424   6.955  10.797 -0.6316  0.0395  0.8736
  941MOL0     C26959  10.318   6.941  10.889  0.9855 -0.4967 -0.1772
  941MOL0     C26960  10.186   6.911  10.823 -0.3424  0.3257 -0.6972
  941MOL0     C26961  10.066   6.896  10.918 -1.5971 -0.1293 -0.3794
  941MOL0     C26962   9.940   6.897  10.827 -0.5228  0.2219  0.2334
  941MOL0     C26963   9.900   6.767  10.767 -0.1382 -0.0675 -0.0083
  941MOL0     C26964   9.854   6.666  10.708 -0.2704 -0.2816  0.7153
  941MOL0     C26965  10.364   7.199  10.740  0.6754  0.6981 -0.1605
  941MOL0     C26966  10.400   7.324  10.680 -0.5750 -0.3310 -0.1052
  941MOL0     C26967  10.314   7.442  10.715  0.1536  0.7332  0.1560
  941MOL0     H26968  10.561   7.749  10.734 -3.0978 -0.9277 -1.2432
  941MOL0     H26969  10.636   7.984  10.693 -2.3893 -0.1904  0.4221
  941MOL0     H26970  10.766   8.073  10.262 -2.0238 -1.0514 -0.8222
  941MOL0     H26971  10.600   8.133  10.272  0.7837 -2.1728 -2.1283
  941MOL0     H26972  10.624   8.334  10.313  0.0567 -0.0741 -1.1806
  941MOL0     H26973  10.758   8.311  10.215  0.9878  1.3204  0.6508
  941MOL0     H26974  10.805   8.317  10.517  1.1816 -0.5885 -0.0566
  941MOL0     H26975  10.829   8.455  10.403 -0.8657 -0.2380  2.3961
  941MOL0     H26976  10.989   8.199  10.401 -2.4363 -0.2566 -2.9823
  941MOL0     H26977  11.007   8.333  10.293 -1.4650  2.0158 -0.2933
  941MOL0     H26978  11.034   8.483  10.489  0.3545  0.2136  0.5447
  941MOL0     H26979  11.056   8.343  10.596 -3.2761  0.3109  0.0444
  941MOL0     H26980  11.230   8.275  10.410  0.5952 -0.4591  0.8023
  941MOL0     H26981  11.233   8.451  10.376 -0.3944  1.7753  0.8616
  941MOL0     H26982  11.416   8.385  10.521 -0.5476  1.8716 -1.1599
  941MOL0     H26983  11.292   8.323  10.636 -1.0369  0.9292  0.9782
  941MOL0     H26984  11.299   8.617  10.542  0.8536  2.3893  2.4331
  941MOL0     H26985  11.250   8.542  10.699  0.3860  0.4922 -0.4630
  941MOL0     H26986  11.431   8.648  10.867  0.8366  2.7908 -0.7000
  941MOL0     H26987  11.733   8.799  10.873 -1.8126 -0.6409 -3.8623
  941MOL0     H26988  11.644   8.682  10.980  1.3101 -1.8860  1.0596
  941MOL0     H26989  11.902   8.600  10.831  0.0754 -2.8863  2.0034
  941MOL0     H26990  11.902   8.705  10.963  0.2468  0.7353 -1.0155
  941MOL0     H26991  11.751   8.433  10.926  1.2188 -0.9069  0.0083
  941MOL0     H26992  11.745   8.508  11.077 -2.0353 -1.1700 -1.3239
  941MOL0     H26993  11.989   8.377  10.949 -2.6492 -0.6905 -0.8318
  941MOL0     H26994  11.895   8.320  11.081 -1.5812 -0.7459 -1.2904
  941MOL0     H26995  12.143   8.645  11.271 -1.3318 -1.0678  0.0859
  941MOL0     H26996  12.360   8.575  11.391  1.1197 -0.6874 -0.5499
  941MOL0     H26997  12.704   8.395  11.318 -1.3158  0.0574 -0.1986
  941MOL0     H26998  12.949   8.370  11.379  0.1903  0.6155  0.3337
  941MOL0     H26999  13.066   8.308  11.675 -0.7083  1.2077 -0.8370
  941MOL0     H27000  13.068   8.132  11.703  1.4785 -1.3179 -1.2477
  941MOL0     H27001  13.265   8.213  11.765 -0.1736 -3.0806  0.5009
  941MOL0     H27002  13.291   8.102  11.630 -0.2398 -0.3123  1.0462
  941MOL0     H27003  13.345   8.280  11.486  0.0344 -1.6521  0.4283
  941MOL0     H27004  13.266   8.403  11.599  1.5907  1.1589  3.2893
  941MOL0     H27005  13.512   8.224  11.679  0.7912  0.3787 -1.0672
  941MOL0     H27006  13.446   8.360  11.764 -2.3260  0.6885  0.0888
  941MOL0     H27007  13.498   8.511  11.572 -1.9586 -0.7821  0.2884
  941MOL0     H27008  13.581   8.370  11.490  0.3712 -2.1447  1.1096
  941MOL0     H27009  13.742   8.499  11.606  0.4458 -0.5621  0.1242
  941MOL0     H27010  13.647   8.518  11.749 -0.0876 -1.3038 -0.0461
  941MOL0     H27011  13.735   8.230  11.697  1.5226 -0.6359  0.5250
  941MOL0     H27012  13.698   8.332  11.842 -1.1252  2.3735 -1.1937
  941MOL0     H27013  13.941   8.272  11.799 -1.1469 -0.3771  0.3185
  941MOL0     H27014  13.934   8.398  11.665 -0.3055  2.1701 -0.4061
  941MOL0     H27015  12.881   8.004  11.577 -0.0074 -1.1603 -1.8605
  941MOL0     H27016  12.623   8.047  11.551  0.8858 -0.2420  3.0129
  941MOL0     H27017  12.300   8.171  11.261  0.4030  0.6416 -1.3756
  941MOL0     H27018  12.082   8.244  11.144  0.4326 -1.4772  0.2880
  941MOL0     H27019  10.626   7.895  10.269  2.9897  1.4335  0.0843
  941MOL0     H27020  10.562   7.670  10.315  2.5749  0.7036 -0.8102
  941MOL0     H27021  10.720   7.219  10.607 -0.2791  0.8955 -1.5768
  941MOL0     H27022  10.649   7.028  10.707  2.0796  1.2227 -0.3352
  941MOL0     H27023  10.300   7.036  10.941  0.2796 -0.6118 -0.1944
  941MOL0     H27024  10.353   6.871  10.965  0.3399  0.8300  1.4084
  941MOL0     H27025  10.201   6.815  10.774  0.7331  0.7915 -1.3328
  941MOL0     H27026  10.166   6.986  10.745 -2.1041  0.3737 -0.2489
  941MOL0     H27027  10.070   6.982  10.985  1.6269  1.2466 -2.1088
  941MOL0     H27028  10.057   6.805  10.977  0.8418 -2.0694 -2.7380
  941MOL0     H27029   9.847   6.924  10.877 -1.0287  0.8575 -1.0042
  941MOL0     H27030   9.959   6.972  10.750  2.7968  1.4933  2.0669
  941MOL0     H27031   9.843   6.589  10.634 -0.4724  0.6535 -0.2490
  941MOL0     H27032  10.269   7.194  10.793  2.2870 -2.7902  2.8614
  941MOL0     H27033  10.277   7.495  10.627 -3.7395  0.2903  1.3686
  941MOL0     H27034  10.235   7.419  10.787  0.9760 -0.6799  0.6656
  941MOL0     H27035  10.366   7.515  10.778 -0.9318  0.0095  1.9636
  942MOL0     O27036   8.266   9.209   9.935  0.5521 -0.0369  0.4388
  942MOL0     C27037   8.325   9.102   9.923 -0.0308 -0.7502 -1.2410
  942MOL0     O27038   8.269   8.983   9.968 -0.2834 -0.0471  0.2354
  942MOL0     C27039   8.138   8.990  10.009 -0.6083  0.1910 -0.2170
  942MOL0     C27040   8.102   8.979  10.141 -0.4383  0.2098 -0.1557
  942MOL0     C27041   7.968   8.985  10.193  0.0653 -0.1931 -0.3292
  942MOL0     C27042   7.861   8.984  10.100 -0.4936 -0.0029  0.1927
  942MOL0     O27043   7.736   8.998  10.145 -1.0859 -0.8160  0.4243
  942MOL0     C27044   7.629   9.029  10.059 -0.0998  0.4556 -0.0108
  942MOL0     C27045   7.510   8.953  10.112  0.1735 -0.5971  0.0251
  942MOL0     C27046   7.381   8.986  10.033  0.7779 -0.2936  0.1542
  942MOL0     C27047   7.328   9.129  10.066  0.4577  0.2621 -0.3338
  942MOL0     C27048   7.192   9.144   9.989  0.2445 -0.3032 -0.1540
  942MOL0     C27049   7.105   9.259  10.048 -0.2590  0.5513 -0.3375
  942MOL0     C27050   7.005   9.300   9.946 -0.3196 -0.1481 -0.2345
  942MOL0     C27051   6.892   9.380   9.999  0.4729  0.2716 -0.2823
  942MOL0     N27052   6.928   9.500  10.076 -0.1563  0.7641  0.2299
  942MOL0     C27053   6.896   9.623  10.058 -0.5739 -0.0281  0.1037
  942MOL0     C27054   6.935   9.705  10.164  0.2311  0.3985 -0.5751
  942MOL0     C27055   6.900   9.848  10.165 -0.5954 -0.6771  0.1729
  942MOL0     C27056   7.016   9.936  10.112  0.9115 -0.2590 -0.6793
  942MOL0     C27057   7.012  10.075  10.162 -0.1977  0.7077 -1.0441
  942MOL0     C27058   7.133  10.151  10.103 -0.3877 -0.0685  0.4899
  942MOL0     O27059   7.120  10.290  10.127 -0.1316  0.1220 -0.2680
  942MOL0     C27060   7.216  10.377  10.087 -0.1459  0.1706  0.3021
  942MOL0     C27061   7.335  10.355  10.017  0.1572  0.0625  0.1013
  942MOL0     C27062   7.421  10.462   9.977 -0.1309  0.5058  0.6910
  942MOL0     C27063   7.383  10.596   9.997 -0.7807  0.1555 -0.0239
  942MOL0     C27064   7.464  10.713   9.947  0.4280  0.6357  0.5031
  942MOL0     O27065   7.591  10.671   9.916  0.2405 -0.4676 -0.2107
  942MOL0     C27066   7.681  10.763   9.865 -0.8382  0.7948 -0.1969
  942MOL0     C27067   7.740  10.729   9.751  0.0967 -0.4010  0.1025
  942MOL0     C27068   7.813  10.827   9.679 -0.4768 -0.1480 -0.0166
  942MOL0     C27069   7.847  10.952   9.731 -0.6807  0.6874 -0.6142
  942MOL0     O27070   7.942  11.027   9.669 -0.2627  0.1093  0.0711
  942MOL0     C27071   8.056  10.962   9.608  0.1609  0.1500  0.3431
  942MOL0     C27072   8.137  11.085   9.565  0.7669  0.7475  0.3625
  942MOL0     C27073   8.279  11.047   9.500  0.4625 -1.2402  0.5186
  942MOL0     C27074   8.353  11.182   9.475  0.2978  0.7292 -0.3041
  942MOL0     C27075   8.463  11.154   9.382 -0.7193  0.0680 -0.2966
  942MOL0     C27076   8.547  11.272   9.350  0.7364 -0.2691 -0.6761
  942MOL0     C27077   8.691  11.231   9.322  0.1528 -0.2658 -0.7807
  942MOL0     C27078   8.777  11.355   9.302  0.8406  0.1645 -0.3477
  942MOL0    Cl27079   8.754  11.422   9.138 -0.0371 -0.5242 -0.1215
  942MOL0     C27080   7.795  10.980   9.858 -0.2754  0.6808  0.7557
  942MOL0     C27081   7.717  10.894   9.925  0.6664  1.1862 -0.0425
  942MOL0     O27082   7.424  10.830   9.948 -1.1803 -0.1346 -0.2208
  942MOL0     C27083   7.269  10.621  10.077  0.3281 -0.3833  0.0748
  942MOL0     C27084   7.195  10.514  10.123 -0.8391  0.1239 -0.2679
  942MOL0     N27085   7.016   9.627  10.244  0.6743  0.4030 -0.3062
  942MOL0     N27086   7.007   9.506  10.193 -0.6238 -0.2802  0.3068
  942MOL0     C27087   7.901   8.963   9.958 -0.7356 -0.0724 -0.7672
  942MOL0     C27088   8.037   8.975   9.917 -0.6573  0.0244  0.0881
  942MOL0     C27089   8.474   9.096   9.888 -0.5046 -0.7200 -0.2908
  942MOL0     C27090   8.562   9.028   9.973  0.1186 -0.1896 -0.4503
  942MOL0     C27091   8.695   9.028   9.959  0.3041 -0.0652  0.3408
  942MOL0     C27092   8.751   9.109   9.857 -0.0496 -0.6236  0.5881
  942MOL0     O27093   8.888   9.100   9.852 -0.3721 -0.0244  0.1632
  942MOL0     C27094   8.949   9.222   9.809 -1.1592  0.6157 -0.6142
  942MOL0     C27095   9.103   9.209   9.800  0.5228 -0.0964 -0.6314
  942MOL0     C27096   9.155   9.337   9.739  0.6841  0.3625  0.0319
  942MOL0     C27097   9.295   9.367   9.773  0.3289  0.1102  0.0175
  942MOL0     C27098   9.330   9.506   9.738 -0.7237 -0.2348 -0.3460
  942MOL0     C27099   9.371   9.608   9.687  1.2576  0.2531 -0.2560
  942MOL0     C27100   8.670   9.183   9.770  0.6753 -0.2991  0.2875
  942MOL0     C27101   8.526   9.176   9.784 -0.3316 -0.4628  0.2895
  942MOL0     C27102   8.436   9.231   9.685 -0.8061 -0.3715  1.4566
  942MOL0     H27103   8.189   8.973  10.206 -1.2580 -1.4393  0.8531
  942MOL0     H27104   7.947   8.984  10.300  0.4489 -1.1297 -0.2519
  942MOL0     H27105   7.603   9.135  10.055  0.1207  0.4965 -0.4281
  942MOL0     H27106   7.646   8.985   9.960  1.3930 -0.2405  0.5279
  942MOL0     H27107   7.488   8.971  10.218 -0.2379  1.8063 -0.4076
  942MOL0     H27108   7.532   8.847  10.098 -2.2092 -1.3660  1.5574
  942MOL0     H27109   7.308   8.911  10.064  2.1276 -0.4706  3.4046
  942MOL0     H27110   7.399   8.967   9.927  0.1522 -1.0628  0.1791
  942MOL0     H27111   7.303   9.145  10.171 -1.4069 -0.2444 -0.6600
  942MOL0     H27112   7.392   9.210  10.031 -0.4229 -0.2473 -3.4356
  942MOL0     H27113   7.215   9.190   9.893  0.0586  2.3746  0.9624
  942MOL0     H27114   7.144   9.047   9.975 -2.2000  0.8998 -0.6661
  942MOL0     H27115   7.055   9.222  10.138  0.7719 -0.7076 -0.2663
  942MOL0     H27116   7.169   9.344  10.075  1.7129 -1.3336  1.2586
  942MOL0     H27117   6.963   9.213   9.895 -0.1476  0.6621 -1.8268
  942MOL0     H27118   7.056   9.351   9.864 -1.6607 -1.5540 -2.0297
  942MOL0     H27119   6.818   9.412   9.925 -0.8703 -0.0598  0.8545
  942MOL0     H27120   6.841   9.307  10.062  2.0183  1.3470  2.3813
  942MOL0     H27121   6.836   9.654   9.973  0.7251  2.6037  0.0457
  942MOL0     H27122   6.809   9.863  10.106  0.6992  1.4508 -1.4102
  942MOL0     H27123   6.879   9.871  10.270 -0.8306  3.7451 -0.6409
  942MOL0     H27124   7.112   9.892  10.140  1.0221  1.6121  2.2720
  942MOL0     H27125   7.001   9.944  10.004  2.5156  2.9399 -0.7944
  942MOL0     H27126   7.011  10.078  10.272  1.4474 -4.3217 -0.6219
  942MOL0     H27127   6.916  10.113  10.126 -0.9340  1.4986  1.5010
  942MOL0     H27128   7.151  10.138   9.996  0.5236 -0.0739  0.6398
  942MOL0     H27129   7.220  10.118  10.160 -1.2618 -1.6081  0.9820
  942MOL0     H27130   7.354  10.252   9.990 -1.0658  0.1235 -1.0579
  942MOL0     H27131   7.512  10.441   9.922 -0.3098 -2.8003  1.4707
  942MOL0     H27132   7.719  10.628   9.717  1.6778 -0.4216 -0.9253
  942MOL0     H27133   7.855  10.795   9.584 -1.0608  0.9842 -0.6711
  942MOL0     H27134   8.114  10.905   9.680 -0.0871  0.0813  0.4890
  942MOL0     H27135   8.023  10.896   9.528 -3.4124 -0.1681  1.8820
  942MOL0     H27136   8.080  11.153   9.501  1.2111 -1.0384 -2.0783
  942MOL0     H27137   8.155  11.136   9.660  3.6929 -1.4096  1.1126
  942MOL0     H27138   8.343  10.985   9.563  2.2261  2.8658  3.1680
  942MOL0     H27139   8.252  11.000   9.405 -2.0780  4.1151 -1.8130
  942MOL0     H27140   8.382  11.214   9.576 -0.7861 -0.7173  0.5142
  942MOL0     H27141   8.279  11.253   9.439 -1.7328 -0.5952  1.0712
  942MOL0     H27142   8.420  11.106   9.293  0.8786 -1.1676 -0.4445
  942MOL0     H27143   8.520  11.072   9.426 -0.1320 -1.2096 -3.1737
  942MOL0     H27144   8.501  11.310   9.258  2.5727 -0.0076 -1.5407
  942MOL0     H27145   8.543  11.345   9.431 -0.3271 -1.8797  0.8028
  942MOL0     H27146   8.702  11.168   9.233  0.0606  1.3722 -2.0070
  942MOL0     H27147   8.729  11.191   9.416 -0.8777 -0.9985 -0.6621
  942MOL0     H27148   8.745  11.432   9.373 -1.3278 -0.8701 -0.1177
  942MOL0     H27149   8.883  11.335   9.321  0.1974 -3.5714 -0.0204
  942MOL0     H27150   7.825  11.071   9.908  0.5850  1.6942 -1.4675
  942MOL0     H27151   7.687  10.919  10.025 -0.8126  0.3862 -0.2625
  942MOL0     H27152   7.238  10.716  10.119 -0.3634 -1.8350  3.1148
  942MOL0     H27153   7.117  10.529  10.197 -2.0830 -1.4442 -1.1995
  942MOL0     H27154   7.829   8.949   9.878 -0.8421 -0.9392 -0.5267
  942MOL0     H27155   8.076   8.975   9.815  4.4544  1.9608  1.7404
  942MOL0     H27156   8.515   8.974  10.054  2.0377 -0.2483  0.6972
  942MOL0     H27157   8.765   8.981  10.028  0.3508  0.3006  0.5406
  942MOL0     H27158   8.922   9.308   9.870  0.1396  0.7635 -0.2305
  942MOL0     H27159   8.913   9.233   9.706 -3.9307 -3.1273 -0.2498
  942MOL0     H27160   9.136   9.119   9.746  2.7776  1.5831 -2.2666
  942MOL0     H27161   9.137   9.196   9.903 -2.2101 -0.9923  0.2246
  942MOL0     H27162   9.094   9.423   9.766 -0.5774 -0.5638  0.2057
  942MOL0     H27163   9.141   9.331   9.630 -2.5369  0.9338  0.3201
  942MOL0     H27164   9.295   9.360   9.882 -1.1534 -2.3362 -0.0576
  942MOL0     H27165   9.374   9.295   9.751  1.5171  1.0199  1.1984
  942MOL0     H27166   9.401   9.698   9.638 -2.2800  1.6435 -0.1999
  942MOL0     H27167   8.714   9.228   9.682  0.3560 -0.7972 -0.1334
  942MOL0     H27168   8.497   9.255   9.597 -1.7527 -0.7327  0.6884
  942MOL0     H27169   8.362   9.156   9.656  0.0969 -0.9174  0.4979
  942MOL0     H27170   8.385   9.321   9.721  0.5093  0.5285  1.1546
  943MOL0     O27171   8.101  11.243   5.916  0.0099 -0.1521 -0.3632
  943MOL0     C27172   8.109  11.302   6.022  0.2846  0.1580 -0.4047
  943MOL0     O27173   8.227  11.338   6.093 -0.0734 -0.5135  0.8685
  943MOL0     C27174   8.348  11.279   6.062  0.1978 -1.5401  0.3987
  943MOL0     C27175   8.428  11.215   6.161 -0.0854  0.0160 -0.0681
  943MOL0     C27176   8.559  11.172   6.129  0.3693  1.2700 -0.0774
  943MOL0     C27177   8.601  11.180   5.998  0.4568  0.4955  0.0474
  943MOL0     O27178   8.730  11.144   5.976 -0.2792 -0.4134 -0.5979
  943MOL0     C27179   8.804  11.165   5.857 -0.6235 -0.5202 -0.5383
  943MOL0     C27180   8.950  11.103   5.878  0.0542  0.3030  0.6391
  943MOL0     C27181   9.048  11.187   5.960 -0.2123  0.6616  0.3037
  943MOL0     C27182   9.190  11.131   5.958 -0.2740  0.0094  0.5072
  943MOL0     C27183   9.278  11.194   6.067 -0.1369 -0.0805  0.6942
  943MOL0     C27184   9.424  11.164   6.033  0.4798  0.9783  0.0808
  943MOL0     C27185   9.527  11.236   6.113  0.2403 -0.4473 -0.4927
  943MOL0     C27186   9.651  11.198   6.034  0.8297 -0.0893 -0.7376
  943MOL0     N27187   9.772  11.265   6.076  0.4636 -0.4828 -0.7426
  943MOL0     C27188   9.783  11.407   6.100  0.4203  0.2858  0.1410
  943MOL0     C27189   9.913  11.420   6.137 -0.5487  0.6494  0.4707
  943MOL0     C27190   9.982  11.551   6.162 -1.1159  0.9631 -0.5085
  943MOL0     C27191  10.116  11.560   6.080  0.5912 -0.5918 -0.6835
  943MOL0     C27192  10.206  11.661   6.160  0.7186  0.7021  0.0387
  943MOL0     C27193  10.350  11.665   6.119 -0.1355 -0.3040 -0.7043
  943MOL0     O27194  10.416  11.760   6.212  0.6541 -0.1449 -0.0342
  943MOL0     C27195  10.548  11.747   6.218 -0.8299  0.0647 -0.4347
  943MOL0     C27196  10.623  11.636   6.240  0.5434 -0.2673 -0.2609
  943MOL0     C27197  10.762  11.644   6.248  0.0832 -0.7043 -0.0449
  943MOL0     C27198  10.834  11.763   6.235 -0.4843 -0.6772  0.8340
  943MOL0     C27199  10.984  11.775   6.250  0.2749  0.1222  0.3226
  943MOL0     O27200  11.030  11.903   6.222 -0.1744  0.1915  0.3804
  943MOL0     C27201  11.164  11.934   6.236  0.4502 -0.5017 -0.7545
  943MOL0     C27202  11.184  12.074   6.232 -0.3387  0.0466  0.3592
  943MOL0     C27203  11.317  12.124   6.222  0.5250  0.4883 -0.3234
  943MOL0     C27204  11.422  12.035   6.231  0.4816 -0.4056  0.0889
  943MOL0     O27205  11.542  12.085   6.229 -0.1471 -0.2338 -0.5925
  943MOL0     C27206  11.583  12.114   6.367  0.2408  0.0222  0.6510
  943MOL0     C27207  11.682  12.235   6.357 -0.3745 -0.1626  0.3890
  943MOL0     C27208  11.736  12.274   6.493  0.1412  0.3076 -0.1564
  943MOL0     C27209  11.810  12.411   6.486  0.2867  0.0949 -0.0278
  943MOL0     C27210  11.842  12.467   6.622  0.8350 -0.1330  0.5746
  943MOL0     C27211  11.887  12.618   6.644  0.2683  0.2269  0.6184
  943MOL0     C27212  11.910  12.631   6.798  0.1455  0.0446  1.2005
  943MOL0     C27213  12.001  12.753   6.827 -0.6054 -1.1763 -0.3190
  943MOL0    Cl27214  12.163  12.724   6.762 -0.3585  0.2605 -0.2218
  943MOL0     C27215  11.401  11.902   6.252  0.2605 -0.6354 -0.9512
  943MOL0     C27216  11.272  11.848   6.272  0.5931 -0.0225  0.4430
  943MOL0     O27217  11.040  11.678   6.290  0.3817 -0.0919  0.1664
  943MOL0     C27218  10.759  11.880   6.213  0.6252  0.1235  0.4876
  943MOL0     C27219  10.615  11.872   6.205 -0.8945  0.1071  0.0863
  943MOL0     N27220   9.978  11.296   6.137 -0.7562 -0.3200 -0.1711
  943MOL0     N27221   9.884  11.212   6.123 -0.4759 -0.0197  0.5096
  943MOL0     C27222   8.522  11.232   5.898 -0.0266  0.5073 -0.0948
  943MOL0     C27223   8.400  11.293   5.929 -0.1951 -0.5776 -0.7468
  943MOL0     C27224   7.984  11.327   6.084  0.4568 -0.4353  0.7507
  943MOL0     C27225   7.875  11.247   6.050 -0.3518 -0.4565 -0.3140
  943MOL0     C27226   7.743  11.270   6.109  0.1668  0.3093 -0.0408
  943MOL0     C27227   7.734  11.366   6.209  0.2005  0.3339 -0.2399
  943MOL0     O27228   7.607  11.370   6.264 -0.7601 -0.7533  0.3918
  943MOL0     C27229   7.566  11.456   6.372 -0.0253  0.5490 -0.4523
  943MOL0     C27230   7.431  11.411   6.428  0.6977 -0.3254  0.6020
  943MOL0     C27231   7.390  11.480   6.557  0.1886  0.4215  0.5010
  943MOL0     C27232   7.405  11.399   6.690 -0.3315  0.2890  0.4681
  943MOL0     C27233   7.548  11.383   6.721 -0.1121 -0.0330  0.5271
  943MOL0     C27234   7.661  11.362   6.771  0.5288  0.0948  0.3513
  943MOL0     C27235   7.836  11.445   6.237 -0.3010  0.3598 -0.6087
  943MOL0     C27236   7.960  11.425   6.184 -0.2628 -0.3452 -0.7243
  943MOL0     C27237   8.068  11.525   6.232  0.2662 -0.6203  0.2596
  943MOL0     H27238   8.402  11.219   6.267  1.9639 -1.2157  0.5272
  943MOL0     H27239   8.617  11.118   6.203  0.5698  0.6298 -0.6850
  943MOL0     H27240   8.769  11.105   5.772  4.5949 -3.0112 -1.3512
  943MOL0     H27241   8.822  11.270   5.834  0.7782 -0.5529  0.2869
  943MOL0     H27242   8.987  11.093   5.776  0.0107  1.3765  0.5143
  943MOL0     H27243   8.939  11.006   5.927  0.4067  0.6945  1.5108
  943MOL0     H27244   9.011  11.192   6.063 -0.2547  0.6361  0.2897
  943MOL0     H27245   9.046  11.286   5.913 -0.4661 -0.0829 -1.3345
  943MOL0     H27246   9.193  11.024   5.978 -0.2128  0.4108  2.9748
  943MOL0     H27247   9.229  11.150   5.857 -0.7905  2.3306  0.6898
  943MOL0     H27248   9.260  11.302   6.073 -1.2627 -0.2962  1.3041
  943MOL0     H27249   9.239  11.162   6.163  0.9449  1.7719  1.8146
  943MOL0     H27250   9.443  11.062   6.066  1.6433  1.1566 -0.0224
  943MOL0     H27251   9.426  11.171   5.924 -0.2926 -0.9568 -0.0897
  943MOL0     H27252   9.513  11.195   6.214 -2.0034  2.7409  0.6640
  943MOL0     H27253   9.512  11.344   6.103 -1.0227 -0.7982 -3.3572
  943MOL0     H27254   9.659  11.090   6.042 -2.1260 -0.3421 -0.2702
  943MOL0     H27255   9.640  11.228   5.930 -0.8526 -2.2074 -1.2378
  943MOL0     H27256   9.714  11.485   6.072  0.4535  0.9625  1.8134
  943MOL0     H27257   9.910  11.632   6.147 -1.6354  0.6451  0.2358
  943MOL0     H27258  10.002  11.557   6.269 -2.2559  0.4266 -0.2481
  943MOL0     H27259  10.167  11.465   6.093  0.5842 -0.2879  2.4512
  943MOL0     H27260  10.089  11.572   5.975 -3.4027  0.5843  0.2652
  943MOL0     H27261  10.196  11.638   6.266 -0.0005  1.0599  0.0551
  943MOL0     H27262  10.170  11.763   6.145  0.2599  0.5004 -0.2280
  943MOL0     H27263  10.360  11.704   6.017 -0.6389  1.0789 -0.2559
  943MOL0     H27264  10.388  11.563   6.129 -0.0578 -0.2398 -0.3133
  943MOL0     H27265  10.568  11.548   6.272  0.3190  0.3818  1.2250
  943MOL0     H27266  10.806  11.544   6.250 -1.9151 -1.6725 -1.3601
  943MOL0     H27267  11.102  12.143   6.248 -0.6442 -0.6347  1.9368
  943MOL0     H27268  11.326  12.232   6.223  1.3741  0.4272  1.0600
  943MOL0     H27269  11.492  12.135   6.425 -0.6356  0.4550 -0.8401
  943MOL0     H27270  11.637  12.033   6.416 -2.8253 -1.2445  2.2836
  943MOL0     H27271  11.767  12.221   6.290  2.3072  2.4500  2.9374
  943MOL0     H27272  11.619  12.316   6.319 -0.7846 -1.1425 -1.1201
  943MOL0     H27273  11.648  12.278   6.558  0.0427  0.0025 -0.2685
  943MOL0     H27274  11.800  12.195   6.532 -1.8000 -1.2848 -0.0479
  943MOL0     H27275  11.750  12.489   6.439  0.8595  1.3333  1.2530
  943MOL0     H27276  11.905  12.400   6.432  0.4286  3.4345 -0.6553
  943MOL0     H27277  11.917  12.401   6.666 -1.4607 -3.1190  0.4023
  943MOL0     H27278  11.758  12.444   6.689 -0.1185  0.3934 -0.4124
  943MOL0     H27279  11.968  12.654   6.581 -1.7476  0.3964 -2.0919
  943MOL0     H27280  11.811  12.688   6.607  0.9161 -0.0473 -1.3807
  943MOL0     H27281  11.967  12.542   6.826  1.4237 -0.1673 -1.6921
  943MOL0     H27282  11.812  12.636   6.846 -1.2441  2.0664 -1.5202
  943MOL0     H27283  11.964  12.845   6.780  0.2455 -0.5616  0.1883
  943MOL0     H27284  11.992  12.775   6.933 -1.5798 -1.5686 -0.3061
  943MOL0     H27285  11.496  11.850   6.250  0.8526  0.2665  1.2662
  943MOL0     H27286  11.256  11.744   6.299 -2.5317 -0.2534 -1.7138
  943MOL0     H27287  10.807  11.976   6.198  1.4860 -0.7107 -2.9986
  943MOL0     H27288  10.558  11.963   6.187  0.8847  0.8680 -2.2078
  943MOL0     H27289   8.542  11.245   5.792 -2.6509 -0.1898 -0.7433
  943MOL0     H27290   8.350  11.357   5.857 -0.8731 -2.4658 -2.0214
  943MOL0     H27291   7.898  11.162   5.986  2.8900 -0.4993  0.7419
  943MOL0     H27292   7.655  11.215   6.077  0.4245  1.4748 -2.9995
  943MOL0     H27293   7.565  11.562   6.347  2.8914  1.4435  2.6714
  943MOL0     H27294   7.647  11.446   6.444 -0.3636  3.6686  0.4983
  943MOL0     H27295   7.430  11.302   6.435  1.0879 -0.3511  0.3234
  943MOL0     H27296   7.358  11.436   6.350 -1.3651 -1.5705  2.0322
  943MOL0     H27297   7.287  11.516   6.544  0.1827  0.2160 -0.0633
  943MOL0     H27298   7.458  11.566   6.556  2.8824 -1.5893  0.3856
  943MOL0     H27299   7.363  11.456   6.773 -0.5317 -0.1113  0.6434
  943MOL0     H27300   7.356  11.302   6.689  1.1932 -0.5020  0.3244
  943MOL0     H27301   7.752  11.359   6.827 -0.1685 -0.9713  1.4782
  943MOL0     H27302   7.819  11.517   6.317 -3.2070 -2.1440  1.2630
  943MOL0     H27303   8.088  11.591   6.147 -1.9865 -1.8466 -1.3275
  943MOL0     H27304   8.027  11.585   6.314  0.8468 -0.8523  0.7298
  943MOL0     H27305   8.156  11.485   6.284  0.2681  0.2204  0.9247
  944MOL0     O27306   6.446   8.648   0.183 -0.9491  0.0269  0.2344
  944MOL0     C27307   6.408   8.755   0.225  0.5111 -0.3700  0.2282
  944MOL0     O27308   6.476   8.865   0.237  0.1011 -0.6759 -0.2310
  944MOL0     C27309   6.613   8.847   0.213  0.8019 -1.1548  0.6792
  944MOL0     C27310   6.666   8.839   0.082  0.2338  0.0054  0.2964
  944MOL0     C27311   6.803   8.828   0.053 -0.0934  0.0755 -0.6750
  944MOL0     C27312   6.887   8.831   0.168 -0.4673  0.1615  0.6403
  944MOL0     O27313   7.020   8.823   0.138 -0.2433  0.0107  0.2948
  944MOL0     C27314   7.115   8.868   0.242  0.2893  0.9729  0.2924
  944MOL0     C27315   7.257   8.840   0.197  0.1689 -0.3332 -0.3407
  944MOL0     C27316   7.319   8.963   0.141 -0.8119  0.1097  0.3405
  944MOL0     C27317   7.470   8.940   0.139 -0.4722 -0.1047  0.0915
  944MOL0     C27318   7.541   9.047   0.047  0.7115 -0.2388 -0.1509
  944MOL0     C27319   7.697   9.008   0.045 -0.3907 -1.2473 -0.4530
  944MOL0     C27320   7.768   9.132  -0.019 -0.6772 -0.8778 -0.2469
  944MOL0     C27321   7.856   9.098  -0.143 -0.0817 -0.3903 -0.1425
  944MOL0     N27322   7.932   9.213  -0.194 -0.0223 -0.1538 -0.0291
  944MOL0     C27323   7.899   9.282  -0.305  0.1208  0.0207 -0.1307
  944MOL0     C27324   7.977   9.394  -0.305 -0.8512  0.0018 -1.0087
  944MOL0     C27325   7.973   9.517  -0.392  0.5262  0.4199  0.0888
  944MOL0     C27326   8.050   9.478  -0.519 -0.2557 -0.1042  0.0931
  944MOL0     C27327   8.097   9.603  -0.590 -0.1186  0.0566 -0.2110
  944MOL0     C27328   8.218   9.591  -0.681 -0.2119 -0.2885  0.2774
  944MOL0     O27329   8.334   9.554  -0.607 -0.4001 -0.0347 -0.8314
  944MOL0     C27330   8.365   9.640  -0.502 -0.4629 -0.0115  0.6311
  944MOL0     C27331   8.353   9.598  -0.375 -0.0488 -0.0222  0.0176
  944MOL0     C27332   8.425   9.668  -0.272  0.7578 -0.4002  0.4162
  944MOL0     C27333   8.489   9.792  -0.299 -0.1622 -0.4295  0.0029
  944MOL0     C27334   8.554   9.862  -0.190 -1.0469 -0.5563 -0.3672
  944MOL0     O27335   8.581   9.806  -0.074 -0.6676 -0.4118 -0.5413
  944MOL0     C27336   8.673   9.870   0.013  0.0997  0.2161 -0.2347
  944MOL0     C27337   8.811   9.858  -0.008  0.3543 -0.1226  0.0496
  944MOL0     C27338   8.900   9.934   0.072  0.5758  0.1096  0.0309
  944MOL0     C27339   8.848  10.028   0.165 -0.8313 -0.0354 -0.1941
  944MOL0     O27340   8.941  10.107   0.227  0.0761  0.0309 -0.4358
  944MOL0     C27341   8.932  10.136   0.372  0.0953 -0.3251  0.4961
  944MOL0     C27342   9.064  10.193   0.420 -0.1473 -0.2464 -0.6074
  944MOL0     C27343   9.171  10.084   0.418  0.1327 -0.6811 -0.3466
  944MOL0     C27344   9.295  10.111   0.508  0.2547 -0.5134 -1.0314
  944MOL0     C27345   9.271  10.069   0.657 -0.4354 -0.2375  0.9948
  944MOL0     C27346   9.383  10.136   0.743 -0.3029 -0.1013  0.3540
  944MOL0     C27347   9.351  10.121   0.894 -0.1200 -0.2269  0.3843
  944MOL0     C27348   9.400  10.251   0.969 -0.0142 -0.5023 -0.7574
  944MOL0    Cl27349   9.570  10.231   1.019  0.0034  0.0099  0.3052
  944MOL0     C27350   8.713  10.028   0.194 -0.3762  0.2480 -0.6650
  944MOL0     C27351   8.627   9.956   0.115  0.0339 -0.3256  0.6693
  944MOL0     O27352   8.566   9.976  -0.218  0.2475 -0.2809 -0.6231
  944MOL0     C27353   8.493   9.835  -0.430  0.1391 -0.5040  0.5503
  944MOL0     C27354   8.430   9.763  -0.526 -0.1077  0.5092  0.5899
  944MOL0     N27355   8.056   9.388  -0.188 -0.6922  0.7557  0.1103
  944MOL0     N27356   8.035   9.279  -0.127 -0.4205 -0.4898  0.1374
  944MOL0     C27357   6.836   8.829   0.298 -0.4463  0.2792  0.0567
  944MOL0     C27358   6.701   8.834   0.321  0.3052  0.0677  0.7510
  944MOL0     C27359   6.266   8.753   0.262 -0.6560  0.7406  0.1473
  944MOL0     C27360   6.181   8.834   0.190 -0.1440  0.1381 -0.0838
  944MOL0     C27361   6.047   8.824   0.203 -0.1338  0.5172  0.6434
  944MOL0     C27362   5.991   8.739   0.294 -0.1742 -1.3486 -0.6195
  944MOL0     O27363   5.850   8.730   0.316 -0.2584  0.0631  0.2327
  944MOL0     C27364   5.768   8.756   0.196  0.0043  0.2447 -0.2673
  944MOL0     C27365   5.766   8.630   0.117  1.2071 -0.3832  0.2341
  944MOL0     C27366   5.651   8.608   0.017 -0.6315 -0.3834 -0.2144
  944MOL0     C27367   5.656   8.705  -0.104 -0.3885  0.3851 -1.2925
  944MOL0     C27368   5.780   8.674  -0.179 -0.1495 -0.2227  0.8561
  944MOL0     C27369   5.884   8.654  -0.236 -0.3225 -1.3730  0.2923
  944MOL0     C27370   6.073   8.660   0.372  0.2016  0.0224 -0.1621
  944MOL0     C27371   6.213   8.670   0.367 -0.5662  0.3254  0.5410
  944MOL0     C27372   6.297   8.592   0.460  0.4550 -0.2239  0.8702
  944MOL0     H27373   6.603   8.837  -0.006  0.9594 -0.4936 -0.2204
  944MOL0     H27374   6.841   8.813  -0.047 -0.2242  0.1019 -0.7281
  944MOL0     H27375   7.091   8.972   0.263 -1.4409  0.4265  1.1786
  944MOL0     H27376   7.114   8.809   0.334 -0.2949 -0.9487 -0.8831
  944MOL0     H27377   7.249   8.773   0.111 -0.2282  1.5659 -1.8578
  944MOL0     H27378   7.325   8.806   0.276 -0.8101  0.0180  0.6797
  944MOL0     H27379   7.300   9.051   0.203 -1.9713  0.8411 -1.0086
  944MOL0     H27380   7.280   8.988   0.042 -2.2075 -1.9767  0.2863
  944MOL0     H27381   7.506   8.923   0.242 -0.5653 -0.5239  0.0579
  944MOL0     H27382   7.488   8.842   0.095 -0.4089  0.3274 -0.8665
  944MOL0     H27383   7.501   9.053  -0.054  0.2600 -0.8584 -0.0092
  944MOL0     H27384   7.530   9.147   0.091  2.2322 -0.8495  1.7369
  944MOL0     H27385   7.731   8.992   0.148 -0.4376  0.8309 -0.0612
  944MOL0     H27386   7.703   8.918  -0.017  0.4664  0.1101 -2.4318
  944MOL0     H27387   7.810   9.190   0.064 -1.1472  2.8059 -2.3410
  944MOL0     H27388   7.695   9.204  -0.056  0.0082  0.0918  0.2418
  944MOL0     H27389   7.924   9.018  -0.115 -0.0279 -0.4407 -0.4135
  944MOL0     H27390   7.784   9.069  -0.221 -2.5424 -1.1730  2.2599
  944MOL0     H27391   7.820   9.266  -0.377 -1.2998 -1.5179  1.6724
  944MOL0     H27392   7.871   9.551  -0.414  0.2931  1.0009  1.8463
  944MOL0     H27393   8.030   9.598  -0.346  0.5652  1.4540 -1.7078
  944MOL0     H27394   8.139   9.419  -0.495 -1.4071 -1.6378  0.7924
  944MOL0     H27395   7.980   9.414  -0.574  0.6679 -2.1311  1.1559
  944MOL0     H27396   8.118   9.682  -0.516 -1.6940  0.6085 -0.3144
  944MOL0     H27397   8.013   9.640  -0.649 -0.7745  0.6148  1.0362
  944MOL0     H27398   8.221   9.690  -0.728 -3.1543 -0.4520 -0.4085
  944MOL0     H27399   8.206   9.516  -0.759 -0.0149  0.8340 -0.8636
  944MOL0     H27400   8.295   9.506  -0.370 -1.4118  0.7156 -1.5989
  944MOL0     H27401   8.430   9.619  -0.175  3.5749 -0.6352  0.2438
  944MOL0     H27402   8.852   9.795  -0.086  2.4300  3.0690 -1.7055
  944MOL0     H27403   9.008   9.937   0.058  0.8379  0.3039  1.9216
  944MOL0     H27404   8.854  10.211   0.384 -0.2574 -0.5672 -0.2541
  944MOL0     H27405   8.905  10.047   0.430  0.5648 -1.7096 -1.3222
  944MOL0     H27406   9.095  10.275   0.355 -1.5645  0.6756 -0.1465
  944MOL0     H27407   9.070  10.233   0.522  1.6505 -2.6980  0.3476
  944MOL0     H27408   9.118   9.990   0.438 -2.5387  0.1141 -2.9507
  944MOL0     H27409   9.220  10.080   0.320  1.2975  0.8061  0.1294
  944MOL0     H27410   9.331  10.213   0.493 -1.1606  0.0940 -0.5075
  944MOL0     H27411   9.379  10.060   0.460  1.1904  0.9601 -1.0538
  944MOL0     H27412   9.266   9.960   0.656 -1.5451 -0.4976 -5.0874
  944MOL0     H27413   9.174  10.106   0.692 -0.4621 -0.5026  1.2051
  944MOL0     H27414   9.475  10.081   0.720 -1.3866 -2.2562  0.9146
  944MOL0     H27415   9.390  10.241   0.714 -0.3797 -0.2284 -0.1431
  944MOL0     H27416   9.390  10.026   0.932  0.1044 -0.2072  0.2002
  944MOL0     H27417   9.244  10.119   0.917  0.2349 -1.0158  2.1251
  944MOL0     H27418   9.407  10.341   0.907 -1.9952  0.5792  0.5075
  944MOL0     H27419   9.337  10.265   1.057 -0.8910 -0.5765 -1.3563
  944MOL0     H27420   8.679  10.107   0.261  1.6072  0.1233  0.5754
  944MOL0     H27421   8.520   9.976   0.122 -0.0234  0.0323 -0.8858
  944MOL0     H27422   8.537   9.930  -0.460  0.8060 -1.2426 -0.9376
  944MOL0     H27423   8.412   9.800  -0.627  0.6253  0.1966  0.3407
  944MOL0     H27424   6.901   8.819   0.384 -2.7018  2.0246  2.0742
  944MOL0     H27425   6.656   8.830   0.420  0.5492  1.9957  0.9845
  944MOL0     H27426   6.235   8.902   0.126 -0.2942  0.4253  0.0925
  944MOL0     H27427   5.993   8.902   0.149 -0.9186  0.0868  0.7848
  944MOL0     H27428   5.798   8.843   0.136 -0.2198  0.9957  0.6823
  944MOL0     H27429   5.672   8.790   0.238 -0.8789 -0.4210 -1.6698
  944MOL0     H27430   5.773   8.544   0.183  1.9788 -1.8094 -1.6062
  944MOL0     H27431   5.862   8.644   0.066  1.6908  1.6659  1.5714
  944MOL0     H27432   5.565   8.630   0.082  0.2149 -0.8352  1.0859
  944MOL0     H27433   5.643   8.503  -0.015  1.3179 -0.0650 -1.9419
  944MOL0     H27434   5.564   8.698  -0.162 -2.0316  2.4844  0.8882
  944MOL0     H27435   5.653   8.807  -0.066  0.5201 -0.4425  1.1914
  944MOL0     H27436   5.972   8.662  -0.295 -0.0088  1.6226  1.0232
  944MOL0     H27437   6.022   8.602   0.448  0.9195 -0.7770 -0.2771
  944MOL0     H27438   6.350   8.660   0.528 -2.7563  0.4716  2.9184
  944MOL0     H27439   6.229   8.527   0.518 -1.1280  0.2701 -0.3689
  944MOL0     H27440   6.363   8.524   0.405  0.0221  0.0717 -0.0347
  945MOL0     O27441   0.562   8.258   9.865 -0.5711 -0.3066 -0.3479
  945MOL0     C27442   0.563   8.192   9.972 -0.3771  0.4376  0.4634
  945MOL0     O27443   0.661   8.202  10.064  0.8460  0.5204 -0.4648
  945MOL0     C27444   0.755   8.290  10.071 -0.3486 -0.3921  0.4315
  945MOL0     C27445   0.888   8.243  10.061 -0.2679 -0.8621  0.4397
  945MOL0     C27446   0.996   8.333  10.062 -0.4046  0.3580  0.1351
  945MOL0     C27447   0.972   8.471  10.060  0.9350 -0.7440  0.5809
  945MOL0     O27448   1.067   8.570  10.040  0.9382  0.7288  0.5987
  945MOL0     C27449   1.197   8.562  10.092  0.3351 -0.4410  0.0109
  945MOL0     C27450   1.204   8.556  10.248 -0.0305  0.1515 -1.1196
  945MOL0     C27451   1.338   8.489  10.301 -0.7145 -0.3016 -0.1255
  945MOL0     C27452   1.354   8.511  10.453  0.3633  0.3668 -0.1377
  945MOL0     C27453   1.487   8.480  10.518  0.3400 -1.0887 -0.2269
  945MOL0     C27454   1.482   8.516  10.665  0.1391 -0.4148 -0.1577
  945MOL0     C27455   1.576   8.441  10.754 -0.0232  0.0828 -0.0543
  945MOL0     C27456   1.550   8.478  10.899  0.0930  0.9441  0.8648
  945MOL0     N27457   1.651   8.437  10.993 -0.0744 -0.1771  0.2728
  945MOL0     C27458   1.668   8.316  11.042  0.9211 -0.5083 -0.4612
  945MOL0     C27459   1.795   8.307  11.079 -0.6587 -0.3923 -0.0252
  945MOL0     C27460   1.853   8.175  11.130 -0.1604 -0.4815 -0.5605
  945MOL0     C27461   1.967   8.191  11.232 -0.5026  0.3244 -0.7618
  945MOL0     C27462   2.103   8.197  11.167  0.1719 -0.1192 -0.0939
  945MOL0     C27463   2.209   8.148  11.263 -0.4408  0.4405 -0.3007
  945MOL0     O27464   2.332   8.203  11.211  0.2018  0.8285  0.2128
  945MOL0     C27465   2.448   8.180  11.289  0.4387 -0.2750  0.2476
  945MOL0     C27466   2.448   8.112  11.409  0.5326  0.2960  0.0254
  945MOL0     C27467   2.562   8.102  11.486 -0.4360 -0.1103  0.3652
  945MOL0     C27468   2.682   8.158  11.435 -0.6990 -0.5810 -0.3897
  945MOL0     C27469   2.808   8.153  11.502 -1.3060  0.3466  0.1932
  945MOL0     O27470   2.914   8.157  11.426 -0.3331  0.1693  0.2371
  945MOL0     C27471   3.042   8.157  11.465 -0.7778 -0.3279 -0.0003
  945MOL0     C27472   3.094   8.121  11.589 -0.4000  0.5867  0.1108
  945MOL0     C27473   3.235   8.097  11.612  0.3493 -0.9501 -0.0111
  945MOL0     C27474   3.324   8.131  11.505 -0.3391 -0.4714 -0.5644
  945MOL0     O27475   3.459   8.103  11.525 -0.7482  0.3870 -0.2157
  945MOL0     C27476   3.558   8.124  11.423  0.1654  0.2229  0.8459
  945MOL0     C27477   3.690   8.109  11.496  0.1159  0.0854  0.5852
  945MOL0     C27478   3.807   8.087  11.397 -0.0629 -0.6094  0.5009
  945MOL0     C27479   3.942   8.073  11.467  0.2164  0.1378 -0.7394
  945MOL0     C27480   4.046   8.022  11.365 -0.2052  0.3793 -0.1749
  945MOL0     C27481   4.186   8.036  11.420 -0.1338  0.3083 -0.0138
  945MOL0     C27482   4.292   8.021  11.317  1.1507  0.6163 -0.0056
  945MOL0     C27483   4.429   8.051  11.369  0.2174  0.1853 -0.5017
  945MOL0    Cl27484   4.447   8.231  11.404  0.2946 -0.4312  0.0703
  945MOL0     C27485   3.266   8.176  11.389 -0.0392 -0.3983  0.3522
  945MOL0     C27486   3.130   8.189  11.365  0.6156 -0.2211  0.1768
  945MOL0     O27487   2.805   8.155  11.626  0.1562  0.5008  0.1978
  945MOL0     C27488   2.677   8.226  11.312 -0.4440  0.6351 -0.9334
  945MOL0     C27489   2.565   8.240  11.241  0.3277 -0.6657 -0.1896
  945MOL0     N27490   1.858   8.429  11.067  0.4979 -0.4179  0.7998
  945MOL0     N27491   1.767   8.508  11.014  0.7293  0.1336  0.1581
  945MOL0     C27492   0.835   8.512  10.068  0.0170 -0.3996  0.1895
  945MOL0     C27493   0.727   8.430  10.080 -0.3513  0.1439 -0.0861
  945MOL0     C27494   0.459   8.080   9.991  0.1720 -0.4878  0.2856
  945MOL0     C27495   0.346   8.089   9.895 -0.9517 -0.3975 -0.1190
  945MOL0     C27496   0.244   7.987   9.903  0.0095  0.4801  0.1400
  945MOL0     C27497   0.250   7.881   9.996 -0.3288  0.2646  0.1251
  945MOL0     O27498   0.154   7.779   9.981  0.1069 -0.9202  0.4809
  945MOL0     C27499   0.150   7.671  10.077  0.2447  0.2038 -0.1696
  945MOL0     C27500   0.082   7.549  10.023  0.1657  0.2040 -0.2123
  945MOL0     C27501  -0.064   7.575   9.979  0.2780 -0.0446  0.3210
  945MOL0     C27502  -0.135   7.445   9.926 -0.4944  0.7099 -0.2499
  945MOL0     C27503  -0.251   7.454   9.843 -0.7775 -0.4677 -1.4075
  945MOL0     C27504  -0.342   7.468   9.765  0.3116 -1.1434  0.0826
  945MOL0     C27505   0.364   7.876  10.085  0.3371 -1.1831 -0.1761
  945MOL0     C27506   0.465   7.971  10.083  0.3674 -0.7165  0.4950
  945MOL0     C27507   0.570   7.977  10.190 -0.5821  0.0667 -0.4483
  945MOL0     H27508   0.925   8.142  10.047  0.0013 -0.4775 -2.0751
  945MOL0     H27509   1.098   8.297  10.061 -0.4776  0.0074 -2.5837
  945MOL0     H27510   1.267   8.487  10.055  2.5720  0.9869  1.0741
  945MOL0     H27511   1.243   8.656  10.058  1.4124 -1.3003 -0.9941
  945MOL0     H27512   1.125   8.495  10.293  0.4094 -0.1449 -0.7441
  945MOL0     H27513   1.193   8.654  10.295 -3.8063 -1.2266  1.3058
  945MOL0     H27514   1.417   8.547  10.252  0.0788 -0.4285  0.9774
  945MOL0     H27515   1.340   8.382  10.280 -0.4833 -0.2129 -0.5869
  945MOL0     H27516   1.328   8.614  10.482 -2.6375 -0.1105 -0.8092
  945MOL0     H27517   1.273   8.452  10.497 -0.5545  1.0288 -0.8913
  945MOL0     H27518   1.513   8.375  10.507  2.8305 -0.6152  0.6186
  945MOL0     H27519   1.579   8.528  10.485  0.1132  1.0256  1.8801
  945MOL0     H27520   1.505   8.623  10.673  1.6488 -0.8484  2.7348
  945MOL0     H27521   1.381   8.509  10.705  0.3079  1.0754  0.6230
  945MOL0     H27522   1.679   8.470  10.732 -0.3924 -0.4134 -2.8199
  945MOL0     H27523   1.568   8.333  10.740 -1.1951  0.2489 -0.7981
  945MOL0     H27524   1.547   8.587  10.909 -1.1554  0.8303  2.0390
  945MOL0     H27525   1.451   8.443  10.928  0.6029 -0.1687  1.3416
  945MOL0     H27526   1.593   8.237  11.046 -3.3832  3.1466  3.3101
  945MOL0     H27527   1.777   8.111  11.176 -0.6517 -2.4444 -3.7985
  945MOL0     H27528   1.886   8.128  11.037  3.2467  0.1589  0.1756
  945MOL0     H27529   1.945   8.278  11.296 -1.0058  0.4101 -1.0477
  945MOL0     H27530   1.958   8.098  11.289 -1.4197  0.1301 -1.2091
  945MOL0     H27531   2.124   8.299  11.132 -1.8077  0.7533  1.0789
  945MOL0     H27532   2.107   8.120  11.090  3.0824 -0.3598  0.1805
  945MOL0     H27533   2.219   8.039  11.262  0.6364  0.4283  2.7953
  945MOL0     H27534   2.193   8.199  11.358  1.5765  0.8263 -0.1331
  945MOL0     H27535   2.352   8.074  11.442  1.0080 -0.8151  0.1710
  945MOL0     H27536   2.563   8.049  11.581  1.4881  0.9563  0.9925
  945MOL0     H27537   3.033   8.076  11.667  1.2658 -1.0845  0.5011
  945MOL0     H27538   3.266   8.058  11.709 -1.7428  1.0507  1.5852
  945MOL0     H27539   3.546   8.052  11.343  1.9588 -0.7922  1.4406
  945MOL0     H27540   3.557   8.223  11.376  2.3428 -0.7663 -1.5253
  945MOL0     H27541   3.712   8.203  11.548  1.4138 -0.8372  1.7976
  945MOL0     H27542   3.682   8.027  11.568  0.8225 -1.4219 -0.9663
  945MOL0     H27543   3.795   8.003  11.329 -3.2391 -2.0725  2.6336
  945MOL0     H27544   3.822   8.175  11.334  0.8357 -1.9203 -1.1916
  945MOL0     H27545   3.934   8.002  11.550 -0.7669  0.6065 -0.4205
  945MOL0     H27546   3.971   8.170  11.509 -0.0201  0.3040 -0.9575
  945MOL0     H27547   4.031   8.088  11.279  1.4251  2.8188  1.3121
  945MOL0     H27548   4.024   7.918  11.338  1.6505  0.4484 -2.2948
  945MOL0     H27549   4.190   8.137  11.464 -2.0840 -0.0221  1.0408
  945MOL0     H27550   4.208   7.966  11.501  0.7402  0.5163 -0.0524
  945MOL0     H27551   4.276   8.097  11.239  3.2927  1.9785  0.7974
  945MOL0     H27552   4.289   7.923  11.269  0.1063  1.3742 -1.5917
  945MOL0     H27553   4.458   8.001  11.461  0.5556 -0.1471 -0.7831
  945MOL0     H27554   4.507   8.034  11.295  0.8755  1.0652 -0.0259
  945MOL0     H27555   3.336   8.178  11.306  0.8346 -1.6030  1.0296
  945MOL0     H27556   3.105   8.214  11.262  0.9058 -0.1861  0.1156
  945MOL0     H27557   2.764   8.286  11.288  2.3547 -2.2453  1.1494
  945MOL0     H27558   2.554   8.295  11.148 -0.3291 -1.0517 -0.3461
  945MOL0     H27559   0.814   8.618  10.059 -2.9408 -0.9791 -1.1853
  945MOL0     H27560   0.628   8.472  10.086 -0.8601 -0.6530 -1.9875
  945MOL0     H27561   0.335   8.173   9.828  0.2681  2.2110  2.7038
  945MOL0     H27562   0.163   7.998   9.832  1.4017  1.1793 -1.3958
  945MOL0     H27563   0.115   7.706  10.175  1.1978  0.2179  0.1747
  945MOL0     H27564   0.246   7.625  10.100 -0.6902 -1.2338  1.0835
  945MOL0     H27565   0.074   7.481  10.109 -3.0105  1.6979  0.8628
  945MOL0     H27566   0.137   7.494   9.946  0.6286 -0.6823  0.7206
  945MOL0     H27567  -0.060   7.647   9.896 -2.4868  0.6811  0.7247
  945MOL0     H27568  -0.127   7.619  10.056 -0.4872  0.4931 -0.5835
  945MOL0     H27569  -0.064   7.381   9.873  0.0252 -0.2293  1.4789
  945MOL0     H27570  -0.158   7.377  10.009  2.7956 -1.2957 -0.8152
  945MOL0     H27571  -0.424   7.478   9.698  1.7739  0.4759 -1.5665
  945MOL0     H27572   0.368   7.795  10.158 -2.8297 -0.6256  0.7783
  945MOL0     H27573   0.543   8.054  10.263 -0.8470  0.8214 -1.3307
  945MOL0     H27574   0.568   7.874  10.228 -1.3918  0.3950  0.4709
  945MOL0     H27575   0.670   7.996  10.151 -2.5853  3.1953 -4.8278
  946MOL0     O27576   3.592  11.263   3.466  0.3579  0.7327  0.1486
  946MOL0     C27577   3.548  11.156   3.417  0.4795  0.5253  0.1484
  946MOL0     O27578   3.620  11.049   3.372  0.3305 -0.4921 -0.6414
  946MOL0     C27579   3.756  11.066   3.389  0.5457  0.0760  1.1568
  946MOL0     C27580   3.824  11.060   3.508  0.0475  0.4527 -0.2276
  946MOL0     C27581   3.964  11.039   3.510  1.1688 -0.7937  0.8858
  946MOL0     C27582   4.036  11.057   3.384  0.3229 -0.7119 -0.4665
  946MOL0     O27583   4.175  11.049   3.388  1.1744 -0.1879 -0.2483
  946MOL0     C27584   4.242  10.982   3.493  0.6120  1.2552 -0.4189
  946MOL0     C27585   4.367  10.910   3.445  0.4045  0.7916  0.0891
  946MOL0     C27586   4.461  11.010   3.373  0.2286 -0.3055  0.1736
  946MOL0     C27587   4.583  10.944   3.306  0.4610  0.0025 -0.3983
  946MOL0     C27588   4.657  11.049   3.237 -1.1612 -0.3960 -0.9145
  946MOL0     C27589   4.599  11.075   3.096  0.1237 -0.1529  0.3502
  946MOL0     C27590   4.651  11.212   3.031  0.8442  0.4812 -0.1212
  946MOL0     C27591   4.792  11.211   2.974 -0.0047 -0.2667 -1.6737
  946MOL0     N27592   4.888  11.205   3.084 -0.9686 -0.8610  0.1177
  946MOL0     C27593   4.906  11.287   3.200  0.3361  0.6984  0.1160
  946MOL0     C27594   5.018  11.226   3.253  0.2546 -0.6588 -0.3784
  946MOL0     C27595   5.072  11.254   3.389 -0.0281 -0.7271 -0.3929
  946MOL0     C27596   5.228  11.257   3.393  0.6637  1.1790  0.1411
  946MOL0     C27597   5.289  11.367   3.316 -0.3531 -0.1401 -0.0796
  946MOL0     C27598   5.348  11.312   3.178  0.4250 -0.0185 -0.5513
  946MOL0     O27599   5.440  11.408   3.123  0.7433 -0.2918 -0.1316
  946MOL0     C27600   5.575  11.413   3.167  0.1224 -0.1316 -0.2005
  946MOL0     C27601   5.638  11.323   3.254  0.2213 -0.2805 -0.1453
  946MOL0     C27602   5.769  11.331   3.300 -0.0608 -0.2084  0.1483
  946MOL0     C27603   5.847  11.425   3.239  0.0709  0.3600  0.5400
  946MOL0     C27604   6.000  11.433   3.270 -0.0139 -0.2689 -0.7792
  946MOL0     O27605   6.055  11.343   3.356  0.1921 -0.1530 -0.1452
  946MOL0     C27606   6.187  11.363   3.397  0.5401 -0.3415 -0.1968
  946MOL0     C27607   6.205  11.433   3.521 -0.0928  0.4347  0.2564
  946MOL0     C27608   6.336  11.453   3.566 -0.2775  0.5396 -0.4412
  946MOL0     C27609   6.444  11.414   3.499 -0.7888  0.1578  0.8434
  946MOL0     O27610   6.565  11.453   3.543  0.4701  0.1047 -0.6041
  946MOL0     C27611   6.674  11.474   3.448 -0.2068 -0.2735  0.0412
  946MOL0     C27612   6.802  11.500   3.520  0.3234  0.6499  0.2066
  946MOL0     C27613   6.802  11.645   3.574 -0.0246  0.4042 -0.5512
  946MOL0     C27614   6.948  11.665   3.636  0.2208 -0.4089  0.0726
  946MOL0     C27615   6.975  11.802   3.704  0.5222  0.2498 -0.6963
  946MOL0     C27616   7.129  11.805   3.741 -0.2642 -0.2268 -0.0572
  946MOL0     C27617   7.150  11.947   3.794 -0.0263 -0.2655 -0.0139
  946MOL0     C27618   7.295  11.977   3.801  0.3471  0.3177  0.1760
  946MOL0    Cl27619   7.317  12.113   3.910  0.1304  0.0724 -0.3098
  946MOL0     C27620   6.425  11.353   3.375 -0.3340  0.0754  0.4374
  946MOL0     C27621   6.299  11.328   3.323  1.1610 -0.0620 -0.3407
  946MOL0     O27622   6.058  11.527   3.218 -0.1120 -0.0380 -0.3292
  946MOL0     C27623   5.791  11.514   3.143  0.1512  1.0494  0.1174
  946MOL0     C27624   5.649  11.505   3.109 -0.3308  0.3089  0.2684
  946MOL0     N27625   5.067  11.132   3.175 -0.6112 -0.0030  0.4659
  946MOL0     N27626   4.987  11.114   3.070 -0.5153 -0.2941 -0.3234
  946MOL0     C27627   3.969  11.068   3.263  0.3409 -0.3900  0.0471
  946MOL0     C27628   3.826  11.063   3.265  0.9784 -0.6664 -0.9080
  946MOL0     C27629   3.401  11.148   3.397 -0.2372  0.4341 -0.4722
  946MOL0     C27630   3.327  11.268   3.369 -0.4422 -0.2991  0.5330
  946MOL0     C27631   3.190  11.267   3.360  0.4340 -0.1315  0.4052
  946MOL0     C27632   3.112  11.149   3.374 -0.4024  0.4143  0.7850
  946MOL0     O27633   2.980  11.134   3.356  0.4318 -0.0572  0.1890
  946MOL0     C27634   2.898  11.253   3.352  1.1428 -0.6699  0.7034
  946MOL0     C27635   2.749  11.214   3.396 -0.6616 -0.2153 -0.0271
  946MOL0     C27636   2.678  11.141   3.282  0.1100 -0.2089 -0.2776
  946MOL0     C27637   2.535  11.115   3.314  0.1538  0.9977 -0.4696
  946MOL0     C27638   2.479  11.044   3.199  0.6861 -0.1931 -0.6868
  946MOL0     C27639   2.424  10.983   3.105 -0.1521 -0.2395 -0.0334
  946MOL0     C27640   3.183  11.040   3.412  0.0855  0.7046  0.6960
  946MOL0     C27641   3.323  11.035   3.427  0.5347 -0.0747  0.0283
  946MOL0     C27642   3.375  10.914   3.491  1.0549  0.0676  0.4479
  946MOL0     H27643   3.760  11.048   3.595 -0.7115  3.8966 -0.1663
  946MOL0     H27644   4.017  11.039   3.605  2.5329  0.6470  0.1690
  946MOL0     H27645   4.262  11.047   3.578 -0.4210  0.5860  0.3565
  946MOL0     H27646   4.174  10.911   3.540  0.4585 -0.1779 -2.6552
  946MOL0     H27647   4.335  10.825   3.385 -1.3979  1.6403 -0.2274
  946MOL0     H27648   4.417  10.864   3.531  0.2861  1.6571  0.6366
  946MOL0     H27649   4.504  11.083   3.442  1.9738  0.1043 -1.2855
  946MOL0     H27650   4.411  11.069   3.295  0.7224  2.1346  1.5872
  946MOL0     H27651   4.645  10.884   3.374 -0.1057 -0.5312 -0.3412
  946MOL0     H27652   4.549  10.877   3.226  2.7446 -0.3606 -1.1476
  946MOL0     H27653   4.667  11.144   3.289  0.1838 -0.1541 -1.5852
  946MOL0     H27654   4.761  11.017   3.230 -0.5396  1.1538  0.6003
  946MOL0     H27655   4.624  10.990   3.031 -4.4851 -0.3415 -1.5295
  946MOL0     H27656   4.490  11.074   3.104 -0.0499  0.9263 -1.4013
  946MOL0     H27657   4.658  11.288   3.109  2.5389 -0.7143  0.9529
  946MOL0     H27658   4.584  11.247   2.951  0.7301 -0.3173 -0.3819
  946MOL0     H27659   4.805  11.128   2.905 -2.9960 -1.4290 -0.9967
  946MOL0     H27660   4.811  11.307   2.925  1.0616 -0.6124 -1.9565
  946MOL0     H27661   4.829  11.356   3.232 -1.9067 -2.1302  1.2634
  946MOL0     H27662   5.033  11.342   3.442  0.7615 -0.4735 -0.2157
  946MOL0     H27663   5.034  11.180   3.459  4.0787 -0.7841  2.1409
  946MOL0     H27664   5.256  11.263   3.499 -0.0927  1.0841  0.3553
  946MOL0     H27665   5.264  11.162   3.352 -0.1292  1.2779 -0.8219
  946MOL0     H27666   5.366  11.416   3.376  0.1800 -1.1124  0.0514
  946MOL0     H27667   5.223  11.447   3.282  3.2362  1.5024 -4.3030
  946MOL0     H27668   5.269  11.292   3.106  0.8360  1.6793 -1.5437
  946MOL0     H27669   5.398  11.215   3.179 -0.8996 -0.7158 -1.1498
  946MOL0     H27670   5.582  11.234   3.282 -1.3376  0.1284 -1.7843
  946MOL0     H27671   5.807  11.262   3.375  1.1947  0.7459  0.4321
  946MOL0     H27672   6.124  11.463   3.586  0.2374 -0.6440  1.1945
  946MOL0     H27673   6.343  11.490   3.668 -1.5513 -0.3522 -0.0031
  946MOL0     H27674   6.691  11.380   3.395 -0.5089  0.9545 -2.3548
  946MOL0     H27675   6.653  11.557   3.381 -0.6041  1.2840  2.0098
  946MOL0     H27676   6.813  11.439   3.610 -0.4569  0.0357 -0.1099
  946MOL0     H27677   6.886  11.496   3.450 -1.6734 -0.3376 -2.2788
  946MOL0     H27678   6.794  11.719   3.494  3.5625  0.9547 -0.5646
  946MOL0     H27679   6.736  11.668   3.659  0.9512  2.8898 -0.3646
  946MOL0     H27680   7.025  11.651   3.560 -0.5414  1.6318 -1.1503
  946MOL0     H27681   6.963  11.585   3.709  1.1141  0.6950  1.1502
  946MOL0     H27682   6.918  11.818   3.795 -1.0786 -0.0791 -1.6033
  946MOL0     H27683   6.949  11.874   3.626  2.8585 -0.9501 -2.7406
  946MOL0     H27684   7.157  11.728   3.813  0.7893  0.4543  0.2753
  946MOL0     H27685   7.195  11.814   3.654 -1.3001  4.2310 -0.6110
  946MOL0     H27686   7.106  11.946   3.894  0.4349  0.3657  0.2034
  946MOL0     H27687   7.105  12.018   3.724 -0.5444 -3.2946 -3.0419
  946MOL0     H27688   7.348  11.893   3.847 -0.8557  0.4355  1.8720
  946MOL0     H27689   7.333  11.997   3.700  1.3596  0.8656  0.6429
  946MOL0     H27690   6.502  11.313   3.310 -0.0821 -0.8861  1.2909
  946MOL0     H27691   6.281  11.267   3.235 -2.0980 -0.6440  0.5920
  946MOL0     H27692   5.846  11.595   3.097  0.9251 -0.0283 -0.8826
  946MOL0     H27693   5.593  11.567   3.040 -0.4329  1.4394  1.3291
  946MOL0     H27694   4.032  11.081   3.176 -3.0239  1.1426 -2.3857
  946MOL0     H27695   3.769  11.051   3.174 -0.6675 -4.9562  0.4364
  946MOL0     H27696   3.373  11.366   3.353 -0.5091 -0.5177 -1.1530
  946MOL0     H27697   3.149  11.360   3.324 -0.4713 -1.3919 -2.0276
  946MOL0     H27698   2.902  11.296   3.251  2.2742 -0.3893  0.8504
  946MOL0     H27699   2.939  11.325   3.423  0.6811 -0.2402  0.5422
  946MOL0     H27700   2.694  11.305   3.424 -3.2498 -1.9219  0.8010
  946MOL0     H27701   2.741  11.153   3.487  0.1885  1.9365  1.6050
  946MOL0     H27702   2.733  11.047   3.268  0.8863  0.4134 -1.5113
  946MOL0     H27703   2.686  11.201   3.191 -1.5998 -1.2656 -1.1793
  946MOL0     H27704   2.537  11.044   3.397  0.6072  0.5383 -0.8778
  946MOL0     H27705   2.474  11.203   3.338 -2.8373 -1.0372 -0.0638
  946MOL0     H27706   2.381  10.935   3.020  0.8368  1.0832 -1.3276
  946MOL0     H27707   3.128  10.947   3.425  1.9508 -0.3922  1.1121
  946MOL0     H27708   3.423  10.944   3.585  0.4392 -0.2319  0.8625
  946MOL0     H27709   3.295  10.842   3.508  1.9251 -0.4103  2.8857
  946MOL0     H27710   3.442  10.865   3.420 -1.5872  0.2736 -2.3930
  947MOL0     O27711   0.157   0.523  10.942 -0.4177  0.6827  0.0175
  947MOL0     C27712   0.186   0.434  10.860  0.4479 -0.3279  0.6937
  947MOL0     O27713   0.280   0.342  10.872 -0.5531  0.3986  0.1792
  947MOL0     C27714   0.372   0.357  10.977 -0.7758 -0.3959  0.2095
  947MOL0     C27715   0.501   0.395  10.945 -0.0715  0.6249  0.4785
  947MOL0     C27716   0.604   0.414  11.038 -0.3676  0.0279  0.9412
  947MOL0     C27717   0.582   0.398  11.176 -0.5131 -1.1481 -0.4261
  947MOL0     O27718   0.687   0.392  11.271  0.0923 -0.3013  0.4657
  947MOL0     C27719   0.801   0.482  11.241 -0.0566  0.5929 -0.2655
  947MOL0     C27720   0.894   0.508  11.364  0.7388  0.3832  0.6924
  947MOL0     C27721   0.991   0.381  11.379 -0.7855 -0.0213  0.4272
  947MOL0     C27722   1.042   0.352  11.520 -0.0520 -0.0145 -0.3478
  947MOL0     C27723   1.137   0.234  11.527  0.0529  0.2342  0.1426
  947MOL0     C27724   1.201   0.225  11.675  0.1803 -0.8638 -0.2650
  947MOL0     C27725   1.284   0.098  11.690  0.3435  0.1582  0.8808
  947MOL0     C27726   1.198  -0.007  11.760 -0.0620  0.4662 -0.0663
  947MOL0     N27727   1.270  -0.133  11.791 -0.2935  0.0993 -0.9485
  947MOL0     C27728   1.288  -0.244  11.714 -0.1501  0.4809 -0.4331
  947MOL0     C27729   1.351  -0.334  11.797 -0.5057  0.0020 -0.3840
  947MOL0     C27730   1.394  -0.479  11.772 -0.2817  0.3794 -0.1304
  947MOL0     C27731   1.547  -0.481  11.756  0.8518 -0.7822  0.9992
  947MOL0     C27732   1.592  -0.625  11.749  0.1252 -0.3879  0.7192
  947MOL0     C27733   1.743  -0.629  11.750 -0.4351 -0.1994 -0.2524
  947MOL0     O27734   1.783  -0.762  11.769  0.6807  0.3176  0.0139
  947MOL0     C27735   1.909  -0.792  11.717  1.1024 -0.1425 -0.0397
  947MOL0     C27736   1.928  -0.914  11.645  0.4358  0.4526 -0.4572
  947MOL0     C27737   2.051  -0.943  11.586  0.2832  0.0139  0.5149
  947MOL0     C27738   2.153  -0.857  11.599 -1.1471 -0.5853 -0.3918
  947MOL0     C27739   2.290  -0.887  11.548  0.2173 -0.5206 -0.4973
  947MOL0     O27740   2.379  -0.785  11.565  0.1893 -0.2776 -0.4289
  947MOL0     C27741   2.508  -0.787  11.521 -0.0966 -1.2717  0.6366
  947MOL0     C27742   2.597  -0.904  11.505 -0.0046 -0.3296 -0.0745
  947MOL0     C27743   2.721  -0.888  11.450  0.1493  0.2136 -0.2265
  947MOL0     C27744   2.765  -0.762  11.404 -0.2254  0.3116  0.1032
  947MOL0     O27745   2.897  -0.758  11.355  0.1628  0.0091 -0.8437
  947MOL0     C27746   2.956  -0.635  11.335 -0.3372  0.8957 -0.4679
  947MOL0     C27747   3.111  -0.653  11.315  0.1160  0.7254  0.3093
  947MOL0     C27748   3.188  -0.541  11.390 -0.4722 -0.3015 -0.2961
  947MOL0     C27749   3.340  -0.569  11.388 -0.5766  0.8451  0.0919
  947MOL0     C27750   3.429  -0.446  11.419  0.0436  0.0005 -0.9170
  947MOL0     C27751   3.579  -0.479  11.388 -0.5993  0.3693 -0.9947
  947MOL0     C27752   3.666  -0.364  11.439 -0.2560  0.3674  0.3803
  947MOL0     C27753   3.809  -0.414  11.456 -0.7432 -0.1362  0.0357
  947MOL0    Cl27754   3.863  -0.496  11.301 -0.0730  0.5873 -0.1632
  947MOL0     C27755   2.689  -0.650  11.440 -0.6084 -0.2234 -0.3228
  947MOL0     C27756   2.556  -0.662  11.489 -0.1734 -0.1560 -0.1752
  947MOL0     O27757   2.312  -0.995  11.487  0.6403 -0.0838  0.2993
  947MOL0     C27758   2.134  -0.729  11.674  0.3297 -0.4677  0.3932
  947MOL0     C27759   2.011  -0.703  11.737  0.4556  0.5055 -0.6403
  947MOL0     N27760   1.380  -0.271  11.922 -0.1519 -0.2646  1.0963
  947MOL0     N27761   1.326  -0.155  11.916 -0.5704 -0.0075 -0.0826
  947MOL0     C27762   0.453   0.350  11.201 -0.1402  0.0975  0.3537
  947MOL0     C27763   0.343   0.325  11.113  0.0955 -0.2496  0.0772
  947MOL0     C27764   0.106   0.435  10.740 -0.7251  0.4026  0.2860
  947MOL0     C27765   0.172   0.415  10.619 -0.0961  0.1239  0.2925
  947MOL0     C27766   0.097   0.392  10.501  0.9534 -0.3639 -0.6186
  947MOL0     C27767  -0.039   0.401  10.494 -0.2855  0.8649  0.3682
  947MOL0     O27768  -0.097   0.388  10.370 -0.0091 -0.8241  0.1298
  947MOL0     C27769  -0.232   0.437  10.343 -0.0764  0.7079 -0.5437
  947MOL0     C27770  -0.237   0.580  10.298  0.2307 -0.5806  0.0263
  947MOL0     C27771  -0.182   0.592  10.150 -0.6517 -0.8955  0.4683
  947MOL0     C27772  -0.186   0.743  10.127  0.0205  0.3252  0.2975
  947MOL0     C27773  -0.181   0.752   9.983 -0.7953 -0.4960 -0.4928
  947MOL0     C27774  -0.170   0.758   9.863 -0.7846  0.1403  0.6751
  947MOL0     C27775  -0.110   0.422  10.615  0.0383 -0.7818  0.0987
  947MOL0     C27776  -0.037   0.453  10.739 -0.5811 -0.2926  0.5629
  947MOL0     C27777  -0.115   0.492  10.860 -0.3364  0.4535 -0.5475
  947MOL0     H27778   0.529   0.423  10.844  0.4160 -0.0038  0.4293
  947MOL0     H27779   0.705   0.435  11.004 -0.0913 -0.0029  1.7344
  947MOL0     H27780   0.862   0.440  11.160  1.6729 -1.4320  1.9416
  947MOL0     H27781   0.774   0.580  11.200  4.1615  0.8815 -2.9497
  947MOL0     H27782   0.837   0.522  11.456  1.2157  0.2508  1.0143
  947MOL0     H27783   0.946   0.603  11.348 -0.7275  1.1832  0.4433
  947MOL0     H27784   1.079   0.407  11.319 -0.4995  3.0256  1.9845
  947MOL0     H27785   0.962   0.280  11.348  1.3886 -1.0175  1.4137
  947MOL0     H27786   1.100   0.440  11.547  0.7502 -0.4755 -0.5520
  947MOL0     H27787   0.954   0.341  11.584  0.2245  2.9510  0.6976
  947MOL0     H27788   1.076   0.145  11.512  2.7763 -1.4982 -1.7184
  947MOL0     H27789   1.212   0.246  11.448 -0.6535  2.4815 -0.2510
  947MOL0     H27790   1.265   0.312  11.689  2.3772 -2.0607 -2.1749
  947MOL0     H27791   1.125   0.231  11.753  0.9890 -0.1038  0.4859
  947MOL0     H27792   1.370   0.121  11.753 -0.5742  2.3870  1.3825
  947MOL0     H27793   1.308   0.044  11.598  2.5528 -3.8085  3.4836
  947MOL0     H27794   1.173   0.032  11.859  0.9463  1.1780 -0.0758
  947MOL0     H27795   1.108  -0.037  11.706  1.1068 -3.9134  0.0547
  947MOL0     H27796   1.257  -0.261  11.611 -0.0013  1.3027 -0.6179
  947MOL0     H27797   1.362  -0.539  11.858 -0.1985 -2.2204 -1.7851
  947MOL0     H27798   1.346  -0.526  11.686  0.0982 -0.0414 -0.1149
  947MOL0     H27799   1.565  -0.425  11.664  3.5924  1.6420  2.8328
  947MOL0     H27800   1.596  -0.433  11.841  1.7072 -0.5243  0.3750
  947MOL0     H27801   1.544  -0.672  11.663  3.6859 -1.3826 -0.9115
  947MOL0     H27802   1.551  -0.674  11.837 -1.7903 -2.2928 -1.1191
  947MOL0     H27803   1.785  -0.567  11.829 -0.9297 -2.8197  2.2213
  947MOL0     H27804   1.786  -0.594  11.656  2.4399  1.1410  1.4240
  947MOL0     H27805   1.845  -0.984  11.649 -0.1246  1.1784  2.0848
  947MOL0     H27806   2.060  -1.032  11.524 -0.2765 -0.0398  0.5125
  947MOL0     H27807   2.561  -1.004  11.526 -1.3551  0.1453 -0.0275
  947MOL0     H27808   2.780  -0.975  11.425 -1.2416 -1.3612  1.6117
  947MOL0     H27809   2.917  -0.587  11.244 -2.5324 -1.7266 -1.0292
  947MOL0     H27810   2.943  -0.576  11.426  2.0056  0.2334  0.3787
  947MOL0     H27811   3.134  -0.750  11.360 -1.7202  1.3558  2.8574
  947MOL0     H27812   3.121  -0.659  11.207 -0.8026  0.0491  0.2507
  947MOL0     H27813   3.163  -0.440  11.356 -0.0189 -0.1757 -0.2738
  947MOL0     H27814   3.166  -0.546  11.496 -1.0747  1.7569 -0.2877
  947MOL0     H27815   3.366  -0.591  11.284  1.0823  0.0728  0.6342
  947MOL0     H27816   3.362  -0.657  11.449 -1.0137  1.1164  0.6532
  947MOL0     H27817   3.417  -0.437  11.527 -1.7158 -5.3269 -0.3996
  947MOL0     H27818   3.389  -0.362  11.362 -3.0992 -1.1662 -0.6513
  947MOL0     H27819   3.609  -0.572  11.437  2.2602  2.9650  2.7446
  947MOL0     H27820   3.595  -0.490  11.280  2.1267 -2.9136 -0.4196
  947MOL0     H27821   3.624  -0.337  11.537 -1.1420 -1.1413  0.4416
  947MOL0     H27822   3.665  -0.281  11.368 -0.3477  1.0117  1.1159
  947MOL0     H27823   3.874  -0.328  11.470  0.0168 -0.0345 -3.2478
  947MOL0     H27824   3.818  -0.485  11.539  3.9431  0.6735  0.4900
  947MOL0     H27825   2.728  -0.549  11.429 -2.3588  0.4544 -0.8041
  947MOL0     H27826   2.494  -0.577  11.515 -0.9309 -0.0458 -2.1756
  947MOL0     H27827   2.210  -0.653  11.689  1.3974 -2.0176  3.7968
  947MOL0     H27828   1.992  -0.612  11.793 -0.7764 -0.6263  0.8565
  947MOL0     H27829   0.444   0.311  11.302  1.0735 -0.2595  0.3351
  947MOL0     H27830   0.248   0.289  11.152 -0.0998  1.7038  1.5665
  947MOL0     H27831   0.277   0.389  10.626 -0.5316 -2.2367 -0.9232
  947MOL0     H27832   0.153   0.361  10.413  2.2505 -1.4519  0.5539
  947MOL0     H27833  -0.295   0.434  10.432  0.7862 -1.2435  0.0629
  947MOL0     H27834  -0.271   0.370  10.265 -2.6207  1.8747 -0.3521
  947MOL0     H27835  -0.167   0.635  10.361  1.8160  0.1084 -2.2074
  947MOL0     H27836  -0.338   0.619  10.315  0.5503  0.2411  0.0873
  947MOL0     H27837  -0.247   0.539  10.080 -0.9758  2.5634 -2.1375
  947MOL0     H27838  -0.080   0.553  10.150  0.0789  0.8134 -1.2021
  947MOL0     H27839  -0.282   0.782  10.162 -0.3851  0.0991 -0.5589
  947MOL0     H27840  -0.109   0.804  10.175 -2.0200  1.7472  1.9324
  947MOL0     H27841  -0.184   0.774   9.758 -0.2678  0.8395  0.7079
  947MOL0     H27842  -0.216   0.436  10.628 -0.6063  1.4172 -5.1171
  947MOL0     H27843  -0.080   0.580  10.915  1.8827 -2.1418  2.5394
  947MOL0     H27844  -0.222   0.505  10.837 -0.4215  0.5028 -0.1399
  947MOL0     H27845  -0.104   0.415  10.936  0.0604  1.8450  0.8606
  948MOL0     O27846   3.495   0.637   1.418  0.1037  0.1672  0.1579
  948MOL0     C27847   3.428   0.567   1.495  0.9455 -0.6612 -0.2924
  948MOL0     O27848   3.485   0.479   1.586  0.3224  0.6611 -0.1832
  948MOL0     C27849   3.621   0.485   1.596 -1.0029 -0.6097 -0.8895
  948MOL0     C27850   3.691   0.539   1.707 -0.0299 -0.2536 -0.0510
  948MOL0     C27851   3.831   0.546   1.703  0.1821 -0.4227 -0.0647
  948MOL0     C27852   3.910   0.494   1.602 -0.9593 -0.1965 -0.9638
  948MOL0     O27853   4.046   0.525   1.630  0.0912  0.0179 -0.1207
  948MOL0     C27854   4.146   0.468   1.547 -0.9325 -0.0979 -0.3599
  948MOL0     C27855   4.288   0.506   1.591  0.4238 -0.0963 -0.4710
  948MOL0     C27856   4.388   0.398   1.549  0.1851 -0.7766 -0.9043
  948MOL0     C27857   4.517   0.479   1.538 -0.6756  0.0359  0.1429
  948MOL0     C27858   4.635   0.384   1.529  0.5843  0.0492 -0.7247
  948MOL0     C27859   4.771   0.446   1.507  0.2747  0.3817 -0.7603
  948MOL0     C27860   4.892   0.353   1.537  0.0268  0.1943  0.2828
  948MOL0     C27861   4.895   0.248   1.422 -0.1776 -0.7671  0.0876
  948MOL0     N27862   5.005   0.152   1.454  0.4120  0.0015  0.1111
  948MOL0     C27863   5.133   0.183   1.466 -0.2635  0.3936 -0.4862
  948MOL0     C27864   5.189   0.075   1.512 -0.5716 -0.1182  0.1655
  948MOL0     C27865   5.336   0.063   1.550 -0.1844  0.7979  0.2517
  948MOL0     C27866   5.348   0.012   1.694  0.6597  0.3443 -0.1611
  948MOL0     C27867   5.488   0.021   1.763 -0.2530  0.3433  0.3435
  948MOL0     C27868   5.584  -0.067   1.684 -0.6085 -0.1537  0.7650
  948MOL0     O27869   5.696  -0.101   1.759 -0.2335 -0.4911 -0.1769
  948MOL0     C27870   5.792  -0.174   1.698  0.3834 -0.3104 -0.2571
  948MOL0     C27871   5.917  -0.180   1.763 -0.1313  0.5922  0.0405
  948MOL0     C27872   6.023  -0.246   1.708  0.2973  0.4418 -0.5539
  948MOL0     C27873   6.004  -0.327   1.596  0.3081  0.6325  0.1531
  948MOL0     C27874   6.114  -0.406   1.539 -0.4188 -0.0395  0.0042
  948MOL0     O27875   6.228  -0.418   1.611 -0.1040  0.0989 -0.2055
  948MOL0     C27876   6.337  -0.497   1.583 -0.1246 -0.7565 -0.4759
  948MOL0     C27877   6.450  -0.449   1.649 -0.1811 -0.5623  0.1517
  948MOL0     C27878   6.577  -0.499   1.622  0.0621  0.1279 -0.1657
  948MOL0     C27879   6.583  -0.615   1.543  0.0894 -0.7193  0.3667
  948MOL0     O27880   6.702  -0.682   1.555 -0.3987  0.0171  0.1789
  948MOL0     C27881   6.723  -0.798   1.484  0.7893  0.0914  0.0175
  948MOL0     C27882   6.856  -0.842   1.551  0.0863  0.2818 -0.0972
  948MOL0     C27883   6.984  -0.759   1.534  0.3442 -0.2630 -0.2979
  948MOL0     C27884   7.025  -0.777   1.395 -0.3258 -0.0657  0.0700
  948MOL0     C27885   7.119  -0.670   1.332 -0.2804 -0.3835  0.4525
  948MOL0     C27886   7.212  -0.712   1.209 -0.1048 -0.7518 -0.4818
  948MOL0     C27887   7.301  -0.592   1.183  0.5275  0.4405  0.1858
  948MOL0     C27888   7.387  -0.620   1.062  0.3326  0.0751  0.4044
  948MOL0    Cl27889   7.483  -0.468   1.029 -0.0557 -0.1211 -0.4191
  948MOL0     C27890   6.460  -0.668   1.483 -0.3968 -0.4942  0.6911
  948MOL0     C27891   6.346  -0.606   1.499 -0.1498 -0.3360 -0.4114
  948MOL0     O27892   6.093  -0.460   1.425 -0.2311  0.4780 -0.2362
  948MOL0     C27893   5.878  -0.328   1.532 -1.0495 -1.0176 -0.3716
  948MOL0     C27894   5.775  -0.248   1.578  1.2115  0.1955 -0.6623
  948MOL0     N27895   5.101  -0.027   1.520  0.6533  0.2592  0.5477
  948MOL0     N27896   4.986   0.023   1.487 -1.1536 -0.3019  0.6994
  948MOL0     C27897   3.846   0.434   1.495 -0.1457 -0.3286  0.4321
  948MOL0     C27898   3.699   0.429   1.490 -0.4289  0.2028 -0.0621
  948MOL0     C27899   3.276   0.585   1.510 -0.1284 -0.9481  0.1499
  948MOL0     C27900   3.204   0.512   1.611  0.3087  0.0285 -0.4876
  948MOL0     C27901   3.063   0.512   1.609  0.1064 -0.4139 -0.0242
  948MOL0     C27902   2.988   0.578   1.520  0.3160 -0.2477  0.6108
  948MOL0     O27903   2.853   0.558   1.522 -0.0084 -0.0562  0.3585
  948MOL0     C27904   2.759   0.659   1.473 -0.2004 -0.1784 -0.1220
  948MOL0     C27905   2.665   0.583   1.374  0.3590 -0.3478 -0.2747
  948MOL0     C27906   2.745   0.537   1.248  0.2718 -0.0117  0.1692
  948MOL0     C27907   2.632   0.470   1.158 -0.5487  0.4893 -0.4998
  948MOL0     C27908   2.688   0.441   1.025  0.3330 -0.0556  0.4829
  948MOL0     C27909   2.734   0.410   0.911 -0.0053 -0.5539 -0.4610
  948MOL0     C27910   3.054   0.654   1.425  0.6132 -0.1528  0.1446
  948MOL0     C27911   3.197   0.662   1.421 -1.0595  0.4554 -0.4452
  948MOL0     C27912   3.257   0.755   1.318  0.2555 -0.2767  0.0905
  948MOL0     H27913   3.640   0.588   1.790 -0.4076  1.0692 -1.0236
  948MOL0     H27914   3.886   0.599   1.779  1.1586 -0.8875 -0.4241
  948MOL0     H27915   4.137   0.359   1.546 -0.1412 -0.2107  1.0686
  948MOL0     H27916   4.128   0.512   1.449 -0.4660  0.3724 -0.2390
  948MOL0     H27917   4.291   0.507   1.701  2.1339  1.3865 -0.4982
  948MOL0     H27918   4.316   0.609   1.567  2.3662 -0.2776  0.7854
  948MOL0     H27919   4.365   0.351   1.453  3.3858 -3.0128 -0.7450
  948MOL0     H27920   4.399   0.316   1.621  0.5567 -0.4189 -0.5458
  948MOL0     H27921   4.516   0.540   1.447  1.6420  0.5407  0.3804
  948MOL0     H27922   4.530   0.542   1.626 -1.0140 -0.1920  0.3582
  948MOL0     H27923   4.639   0.320   1.617 -0.3106  0.8947 -0.0370
  948MOL0     H27924   4.609   0.322   1.443 -4.7170 -1.7999  1.7697
  948MOL0     H27925   4.779   0.494   1.409  1.7961  0.4257 -0.6419
  948MOL0     H27926   4.779   0.530   1.576  0.6933  1.5753 -2.2244
  948MOL0     H27927   4.880   0.314   1.639 -1.5346  0.3235  0.1705
  948MOL0     H27928   4.985   0.410   1.529 -0.1874  0.5055  0.0016
  948MOL0     H27929   4.801   0.196   1.405 -0.7135 -0.7982  2.7054
  948MOL0     H27930   4.927   0.309   1.337 -0.9618  1.1933  1.1352
  948MOL0     H27931   5.179   0.280   1.448 -1.0478  0.8679 -0.0023
  948MOL0     H27932   5.399   0.003   1.484  0.1103  0.7595  0.5690
  948MOL0     H27933   5.377   0.161   1.525 -0.9259  0.0944 -4.8497
  948MOL0     H27934   5.279   0.074   1.752 -0.4074 -1.1501  0.2265
  948MOL0     H27935   5.310  -0.091   1.702 -2.5083  1.4816  1.1872
  948MOL0     H27936   5.486  -0.015   1.867  0.2611 -0.3352  0.1326
  948MOL0     H27937   5.513   0.127   1.768 -2.9878  1.2737 -2.4470
  948MOL0     H27938   5.612  -0.019   1.590 -0.5723 -0.6207  0.5348
  948MOL0     H27939   5.535  -0.162   1.661  2.9611 -2.2538  1.1052
  948MOL0     H27940   5.924  -0.123   1.855  0.8875  0.6973 -0.0965
  948MOL0     H27941   6.112  -0.255   1.768 -0.0216 -0.4986 -0.2004
  948MOL0     H27942   6.437  -0.369   1.720  1.7135 -1.5771  1.7535
  948MOL0     H27943   6.670  -0.459   1.660  1.0416  0.2151 -2.4504
  948MOL0     H27944   6.642  -0.871   1.493  1.7421 -1.4957 -3.1288
  948MOL0     H27945   6.731  -0.782   1.377  0.4130 -0.5993 -0.1233
  948MOL0     H27946   6.844  -0.854   1.659 -2.0225 -2.4812 -0.5354
  948MOL0     H27947   6.874  -0.948   1.533  0.5270  0.0588  1.5517
  948MOL0     H27948   6.964  -0.656   1.564  0.5356 -0.2188 -0.3225
  948MOL0     H27949   7.054  -0.806   1.604 -1.5304 -1.3238  0.9320
  948MOL0     H27950   6.938  -0.790   1.330  0.3032  0.5488 -0.9369
  948MOL0     H27951   7.073  -0.873   1.371  0.2206  1.2884 -5.6566
  948MOL0     H27952   7.187  -0.639   1.412  1.5965 -0.2064 -1.1285
  948MOL0     H27953   7.058  -0.585   1.299 -0.7425 -1.1946 -0.8229
  948MOL0     H27954   7.278  -0.792   1.244 -0.0809 -1.3460 -1.8368
  948MOL0     H27955   7.153  -0.748   1.125 -1.0588 -0.2595 -0.0393
  948MOL0     H27956   7.358  -0.567   1.273  0.8987  2.0372 -0.4573
  948MOL0     H27957   7.240  -0.503   1.170 -0.1440  0.1601  1.2707
  948MOL0     H27958   7.459  -0.700   1.081 -0.5824 -1.1477 -1.0447
  948MOL0     H27959   7.324  -0.644   0.976 -0.1073 -0.8885  0.9749
  948MOL0     H27960   6.462  -0.763   1.430 -1.8412 -1.0871  1.6296
  948MOL0     H27961   6.252  -0.640   1.457 -0.9883  1.7129 -0.3158
  948MOL0     H27962   5.857  -0.390   1.446 -2.0382  1.5691 -2.1322
  948MOL0     H27963   5.680  -0.242   1.525  1.7610 -0.6918 -1.8116
  948MOL0     H27964   3.901   0.383   1.417 -1.3023 -0.2504 -0.4683
  948MOL0     H27965   3.650   0.388   1.403  0.0907  1.4223 -0.9491
  948MOL0     H27966   3.254   0.447   1.682 -0.2805  1.2544  1.0891
  948MOL0     H27967   3.025   0.454   1.692  2.3927 -2.4757 -0.2993
  948MOL0     H27968   2.813   0.739   1.422 -1.7045 -0.5479 -2.4441
  948MOL0     H27969   2.705   0.700   1.559 -1.4209  0.2172 -1.0456
  948MOL0     H27970   2.594   0.663   1.352 -0.0979 -1.0542 -1.4462
  948MOL0     H27971   2.613   0.498   1.419  0.3021 -0.0359  0.2600
  948MOL0     H27972   2.820   0.468   1.287  1.4230  0.9530 -0.2872
  948MOL0     H27973   2.784   0.625   1.196  0.8801 -1.5830 -2.1833
  948MOL0     H27974   2.612   0.372   1.202  0.7432 -1.0697 -3.1137
  948MOL0     H27975   2.539   0.527   1.167 -0.2936  0.7810  0.4586
  948MOL0     H27976   2.767   0.399   0.810  2.2640  0.5307  0.0883
  948MOL0     H27977   2.994   0.698   1.346 -0.8513 -1.5386  0.4305
  948MOL0     H27978   3.327   0.824   1.367  1.9085 -0.5379 -1.7469
  948MOL0     H27979   3.322   0.696   1.252  0.9931 -0.5166  1.0033
  948MOL0     H27980   3.172   0.810   1.277 -0.0642  0.6990  1.9697
  949MOL0     O27981   5.956   4.415   9.927 -0.4381 -0.2703  0.1211
  949MOL0     C27982   5.902   4.307   9.920 -0.6121  0.1128 -0.4717
  949MOL0     O27983   5.957   4.187   9.956  0.4947  0.5377  0.1372
  949MOL0     C27984   6.085   4.181  10.001 -0.5759 -0.6068 -0.1155
  949MOL0     C27985   6.113   4.100  10.112  0.6095 -0.5921  0.2649
  949MOL0     C27986   6.250   4.082  10.164  0.4894 -0.2659  0.0995
  949MOL0     C27987   6.356   4.135  10.086 -0.3604  0.0233 -0.2830
  949MOL0     O27988   6.486   4.101  10.099  0.5369 -0.2673  0.5075
  949MOL0     C27989   6.524   4.052  10.226  0.5363  0.9332  0.9085
  949MOL0     C27990   6.676   4.048  10.241 -0.6696  0.5582 -0.4648
  949MOL0     C27991   6.747   4.180  10.208 -0.5128 -0.1269 -0.0155
  949MOL0     C27992   6.890   4.186  10.256  0.6553  0.3027  0.5240
  949MOL0     C27993   6.961   4.312  10.210 -0.2098 -0.3154 -0.1060
  949MOL0     C27994   6.965   4.336  10.062 -0.3888 -0.0317 -0.6870
  949MOL0     C27995   7.039   4.474  10.045  0.9692  0.2455 -0.0045
  949MOL0     C27996   7.074   4.501   9.900 -0.9343  0.4379  0.5119
  949MOL0     N27997   7.158   4.620   9.881 -0.6281  0.4792 -0.7047
  949MOL0     C27998   7.293   4.611   9.916  0.6903 -0.1778  0.2377
  949MOL0     C27999   7.332   4.739   9.892 -0.3921 -0.3859  0.1185
  949MOL0     C28000   7.472   4.800   9.908 -0.5124 -0.1705 -0.3388
  949MOL0     C28001   7.587   4.710   9.897 -0.2677  1.0936 -0.7994
  949MOL0     C28002   7.713   4.788   9.932 -0.3509  0.4305  0.2202
  949MOL0     C28003   7.848   4.715   9.900 -0.5514 -0.0646 -0.0237
  949MOL0     O28004   7.953   4.813   9.930 -0.4128  0.2172  0.6585
  949MOL0     C28005   8.082   4.767   9.891 -0.3895  0.4431 -0.7240
  949MOL0     C28006   8.115   4.625   9.888  0.0709 -0.1002 -0.0034
  949MOL0     C28007   8.240   4.578   9.855 -0.5606  0.5954  0.5442
  949MOL0     C28008   8.347   4.666   9.819 -0.0598  0.1278  0.4995
  949MOL0     C28009   8.478   4.611   9.773  0.5619  0.2326 -0.5158
  949MOL0     O28010   8.483   4.472   9.760  0.4769  0.4573  0.2022
  949MOL0     C28011   8.603   4.397   9.745  1.4599 -0.5135 -0.5282
  949MOL0     C28012   8.725   4.434   9.801 -0.1205  0.5761 -0.7660
  949MOL0     C28013   8.835   4.348   9.798 -0.0778  0.3401  0.1092
  949MOL0     C28014   8.828   4.222   9.738 -0.0247  0.7448  0.5465
  949MOL0     O28015   8.930   4.137   9.775 -0.0606  0.7989 -0.7858
  949MOL0     C28016   8.998   4.072   9.665  0.2283  0.4144 -1.7774
  949MOL0     C28017   9.138   4.033   9.715  0.8222 -0.6235  0.4585
  949MOL0     C28018   9.221   3.975   9.601  1.3618  0.0174  0.7249
  949MOL0     C28019   9.357   3.919   9.656  0.3048 -0.0904  0.3469
  949MOL0     C28020   9.414   3.844   9.541 -0.2025  0.4075  0.1145
  949MOL0     C28021   9.558   3.795   9.579 -0.3374  0.4173  0.1826
  949MOL0     C28022   9.607   3.715   9.459 -0.2428 -0.3499 -0.0731
  949MOL0     C28023   9.742   3.642   9.485 -0.0411  0.5355 -0.0906
  949MOL0    Cl28024   9.856   3.775   9.509  0.3696 -0.4079 -0.4135
  949MOL0     C28025   8.707   4.188   9.683 -0.0124 -0.0434 -0.0364
  949MOL0     C28026   8.595   4.277   9.690  0.1441  0.1642  0.3795
  949MOL0     O28027   8.572   4.682   9.767  0.2280 -0.8665 -0.2983
  949MOL0     C28028   8.321   4.800   9.825  1.1018 -0.2654 -0.4499
  949MOL0     C28029   8.191   4.853   9.867 -1.0957 -0.6684 -0.4883
  949MOL0     N28030   7.222   4.813   9.845  0.2158 -0.1339 -0.4079
  949MOL0     N28031   7.115   4.744   9.839 -0.8923  0.2742  0.4287
  949MOL0     C28032   6.326   4.212   9.972  0.0880  0.3898 -0.4310
  949MOL0     C28033   6.193   4.227   9.929  0.7161 -0.7307  0.1166
  949MOL0     C28034   5.759   4.301   9.891 -0.0846  0.2226 -0.6878
  949MOL0     C28035   5.702   4.408   9.819  0.1847  0.4648 -0.0485
  949MOL0     C28036   5.570   4.421   9.777 -0.5805 -1.1090 -0.1810
  949MOL0     C28037   5.486   4.312   9.804  0.9717  0.5621 -0.5642
  949MOL0     O28038   5.356   4.296   9.761  0.2174 -0.4262 -0.1367
  949MOL0     C28039   5.304   4.394   9.674 -0.1576 -0.0330 -0.7051
  949MOL0     C28040   5.152   4.361   9.644  0.1505  0.0043  0.5738
  949MOL0     C28041   5.137   4.263   9.521 -0.3376  1.1388 -0.4967
  949MOL0     C28042   5.006   4.178   9.531  0.9318  0.2143 -0.1804
  949MOL0     C28043   5.007   4.072   9.428  0.2758 -0.4398  0.7714
  949MOL0     C28044   5.027   3.992   9.334 -1.0288  0.4740 -1.2504
  949MOL0     C28045   5.535   4.202   9.877 -0.9700  0.6131  0.2845
  949MOL0     C28046   5.669   4.194   9.930 -0.4563 -0.5997  0.0060
  949MOL0     C28047   5.706   4.089  10.029  0.0383  0.9441  0.1333
  949MOL0     H28048   6.038   4.061  10.180  1.0727  1.8570  2.3533
  949MOL0     H28049   6.271   4.019  10.249 -1.0297  0.6948  1.2377
  949MOL0     H28050   6.478   4.113  10.305  0.1844  0.6811  0.8964
  949MOL0     H28051   6.492   3.949  10.239  0.8861  0.3271 -2.3387
  949MOL0     H28052   6.706   3.977  10.164 -3.3179  0.4597 -1.5265
  949MOL0     H28053   6.701   4.012  10.341  1.5882  0.0216 -1.1757
  949MOL0     H28054   6.678   4.251  10.253 -1.0978 -0.7637  0.1187
  949MOL0     H28055   6.750   4.203  10.101  0.9129 -2.6199 -0.5938
  949MOL0     H28056   6.883   4.201  10.364 -1.0923  2.7984  0.1437
  949MOL0     H28057   6.948   4.099  10.224 -2.5649 -1.5551 -0.7116
  949MOL0     H28058   6.901   4.398  10.241  0.7114  1.0508 -1.9208
  949MOL0     H28059   7.063   4.322  10.248  0.0534  0.7810 -1.0297
  949MOL0     H28060   7.017   4.257  10.006 -0.9546 -1.3337  0.5731
  949MOL0     H28061   6.864   4.346  10.021 -0.6982  4.2508  0.6366
  949MOL0     H28062   7.134   4.480  10.099  0.3496  2.7452  0.9614
  949MOL0     H28063   6.977   4.560  10.071 -0.5369 -1.0459  0.8497
  949MOL0     H28064   7.134   4.417   9.864 -0.3727  1.0262  0.0562
  949MOL0     H28065   6.985   4.498   9.835  0.5010 -1.2650 -1.5356
  949MOL0     H28066   7.355   4.527   9.945  2.8113  1.6832  1.3861
  949MOL0     H28067   7.482   4.862   9.818 -2.4473 -2.7478 -2.5251
  949MOL0     H28068   7.486   4.854  10.001 -0.1628 -1.7753  0.5705
  949MOL0     H28069   7.577   4.625   9.966 -0.2375  2.6193  1.1902
  949MOL0     H28070   7.600   4.675   9.794  0.2575 -0.2030 -0.3146
  949MOL0     H28071   7.721   4.822  10.036  2.4736  2.8603 -0.6704
  949MOL0     H28072   7.712   4.871   9.862  0.4303  2.9011  2.9508
  949MOL0     H28073   7.852   4.685   9.795  1.1204 -0.2069  0.0551
  949MOL0     H28074   7.853   4.622   9.956 -1.6820 -1.2775 -1.8259
  949MOL0     H28075   8.039   4.553   9.918 -0.4958  0.0015 -1.1454
  949MOL0     H28076   8.263   4.473   9.870  2.6948  1.4389  2.4340
  949MOL0     H28077   8.736   4.534   9.842 -0.4523  0.2791  0.0737
  949MOL0     H28078   8.918   4.403   9.841 -1.1102  2.8712 -0.9748
  949MOL0     H28079   8.937   3.982   9.654 -0.8573  0.3518  2.8384
  949MOL0     H28080   9.022   4.136   9.579  1.5112  1.9262 -0.3635
  949MOL0     H28081   9.186   4.126   9.745 -0.1830  1.3741 -3.5080
  949MOL0     H28082   9.122   3.967   9.801 -1.0885 -0.0303  0.6093
  949MOL0     H28083   9.162   3.897   9.553  0.1498  2.0909 -1.3863
  949MOL0     H28084   9.241   4.050   9.524 -1.1236  0.0224 -0.0094
  949MOL0     H28085   9.337   3.849   9.738 -1.5906  1.5211  1.3503
  949MOL0     H28086   9.419   4.003   9.690 -0.9201  0.6016  0.9565
  949MOL0     H28087   9.422   3.915   9.458  1.5106  0.1888  0.0679
  949MOL0     H28088   9.343   3.763   9.524 -0.2618 -0.3369  3.2016
  949MOL0     H28089   9.617   3.884   9.600  0.6911  0.3975 -2.3198
  949MOL0     H28090   9.556   3.732   9.669 -2.2558 -0.3415 -0.3383
  949MOL0     H28091   9.621   3.780   9.371 -3.1991 -2.3551 -2.2215
  949MOL0     H28092   9.530   3.643   9.432  0.4471 -1.2809  0.4073
  949MOL0     H28093   9.743   3.582   9.576 -0.0544 -1.3224 -1.2594
  949MOL0     H28094   9.758   3.571   9.403  0.1417  2.3363 -1.6790
  949MOL0     H28095   8.698   4.094   9.630 -0.4317  0.5519 -1.0350
  949MOL0     H28096   8.502   4.243   9.646  1.0471 -0.8283 -0.8202
  949MOL0     H28097   8.399   4.875   9.816  1.5666 -0.6949 -0.0688
  949MOL0     H28098   8.172   4.960   9.868  0.7054 -0.2849  1.4149
  949MOL0     H28099   6.405   4.234   9.900 -0.1131 -2.1054 -1.5132
  949MOL0     H28100   6.178   4.256   9.826 -1.5739  0.4809  0.7166
  949MOL0     H28101   5.773   4.485   9.789  2.2027 -0.9255  0.9327
  949MOL0     H28102   5.540   4.500   9.709  1.7848  0.4723  0.4888
  949MOL0     H28103   5.361   4.405   9.581 -1.7255 -0.5205 -1.7730
  949MOL0     H28104   5.304   4.491   9.723  0.0817 -0.1176 -0.5385
  949MOL0     H28105   5.107   4.458   9.619  4.0116  2.1117  1.0153
  949MOL0     H28106   5.102   4.316   9.731 -2.7315  1.7336 -0.0600
  949MOL0     H28107   5.225   4.198   9.521 -2.1898 -1.6260 -3.2011
  949MOL0     H28108   5.140   4.313   9.424  0.8351  0.1065 -1.0164
  949MOL0     H28109   4.995   4.130   9.629  2.2653 -0.9418 -0.5696
  949MOL0     H28110   4.915   4.238   9.519  0.0312 -1.1132 -0.2514
  949MOL0     H28111   5.051   3.932   9.248 -0.2191 -1.3523  0.1820
  949MOL0     H28112   5.476   4.113   9.896 -0.8698  0.4470 -0.1739
  949MOL0     H28113   5.752   4.146  10.110  0.5827 -0.3817  0.8014
  949MOL0     H28114   5.619   4.039  10.073 -0.6320  1.8797 -0.1065
  949MOL0     H28115   5.776   4.012   9.994 -1.7279 -0.1166 -1.2596
  950MOL0     O28116   3.312   3.317  10.726 -0.0259 -0.0698  0.0950
  950MOL0     C28117   3.280   3.357  10.612 -0.6168  0.0337 -0.1907
  950MOL0     O28118   3.365   3.422  10.525 -0.2245  0.6569 -0.5854
  950MOL0     C28119   3.492   3.442  10.561 -0.4972 -0.3848  0.1729
  950MOL0     C28120   3.542   3.572  10.565 -0.5449 -0.9728  0.4733
  950MOL0     C28121   3.680   3.599  10.581 -0.6454  0.1424 -0.3164
  950MOL0     C28122   3.773   3.496  10.585  0.7199 -0.6136 -0.5855
  950MOL0     O28123   3.900   3.526  10.617 -0.2292  0.2768 -0.6668
  950MOL0     C28124   3.999   3.471  10.530  0.2493 -0.0864 -0.4093
  950MOL0     C28125   4.120   3.558  10.498 -0.3373 -0.0150  0.0213
  950MOL0     C28126   4.087   3.669  10.394 -0.1189  0.4866 -0.4680
  950MOL0     C28127   4.202   3.768  10.351  0.1121  0.0613 -0.3530
  950MOL0     C28128   4.247   3.862  10.473 -0.0475 -0.0929 -0.1525
  950MOL0     C28129   4.356   3.953  10.424  0.6217  0.1168 -0.5753
  950MOL0     C28130   4.488   3.886  10.369 -0.3573 -0.8387  0.1815
  950MOL0     C28131   4.566   3.782  10.469 -0.2947 -0.7296  0.3313
  950MOL0     N28132   4.603   3.852  10.591 -0.1556 -0.9137  0.0245
  950MOL0     C28133   4.655   3.983  10.588 -0.0237  0.1336  0.1743
  950MOL0     C28134   4.682   4.002  10.728  0.2896  0.6054 -0.0128
  950MOL0     C28135   4.752   4.134  10.774  0.6418 -1.0581 -0.3913
  950MOL0     C28136   4.891   4.166  10.720  0.3616  0.6066 -0.2025
  950MOL0     C28137   4.970   4.255  10.813 -0.8998 -0.5010  0.6623
  950MOL0     C28138   4.912   4.396  10.819  0.2383  0.2146 -0.8492
  950MOL0     O28139   4.967   4.480  10.927 -0.4821 -0.2261  0.1643
  950MOL0     C28140   5.092   4.519  10.925 -1.1918  0.0070 -0.0792
  950MOL0     C28141   5.190   4.498  10.823 -0.1772 -0.5217 -0.2002
  950MOL0     C28142   5.318   4.549  10.839 -0.6631 -0.3804  0.5453
  950MOL0     C28143   5.358   4.625  10.950 -0.5383  0.5403  0.0105
  950MOL0     C28144   5.488   4.688  10.960  0.3160  0.0913  0.3478
  950MOL0     O28145   5.565   4.694  10.850  0.2843 -0.7897 -0.7173
  950MOL0     C28146   5.695   4.734  10.844  0.1465  1.0507  0.1574
  950MOL0     C28147   5.777   4.679  10.744 -0.3256 -0.6548 -0.2767
  950MOL0     C28148   5.911   4.713  10.735 -0.7371 -0.2247 -0.2740
  950MOL0     C28149   5.965   4.790  10.835  0.1969 -0.0743  0.3058
  950MOL0     O28150   6.100   4.815  10.842  0.1783  0.5301  0.2086
  950MOL0     C28151   6.168   4.831  10.960  0.2537  0.8301  0.0038
  950MOL0     C28152   6.319   4.831  10.941 -0.7158 -0.0410 -0.9755
  950MOL0     C28153   6.365   4.914  10.821 -0.1081  0.2168  0.5457
  950MOL0     C28154   6.515   4.923  10.826 -0.1304 -0.0456  0.4022
  950MOL0     C28155   6.563   4.988  10.696  0.8185  0.7004 -0.0776
  950MOL0     C28156   6.714   4.983  10.679 -0.3285  0.3718  0.1663
  950MOL0     C28157   6.751   5.056  10.561  0.2469  0.0630  0.5698
  950MOL0     C28158   6.862   5.154  10.586 -0.3237  0.1384 -0.5377
  950MOL0    Cl28159   6.930   5.204  10.425 -0.5491  0.2020  0.3815
  950MOL0     C28160   5.881   4.840  10.937 -0.1795 -0.0450  0.1646
  950MOL0     C28161   5.746   4.814  10.944 -0.0360  0.3260 -1.0664
  950MOL0     O28162   5.513   4.723  11.073 -0.0121  0.4129 -0.3100
  950MOL0     C28163   5.260   4.646  11.049 -0.2599 -0.2997  0.9588
  950MOL0     C28164   5.126   4.595  11.035 -0.0779  0.3322  0.3188
  950MOL0     N28165   4.658   3.882  10.794 -0.9211 -0.2227  0.0417
  950MOL0     N28166   4.601   3.803  10.717 -0.1792 -0.2404  0.4571
  950MOL0     C28167   3.721   3.365  10.571  0.1511  0.3576 -0.3840
  950MOL0     C28168   3.581   3.337  10.556 -0.8526 -0.0743 -0.5193
  950MOL0     C28169   3.137   3.357  10.559 -0.3724  0.2524 -0.5811
  950MOL0     C28170   3.112   3.389  10.424 -0.0665 -0.0266 -0.4206
  950MOL0     C28171   2.987   3.398  10.369  0.0432  0.0210  0.1770
  950MOL0     C28172   2.881   3.368  10.446  0.2840  0.2193  1.4849
  950MOL0     O28173   2.756   3.380  10.383 -0.9735 -0.7349 -0.0027
  950MOL0     C28174   2.641   3.400  10.466  0.6945  0.8468  0.2258
  950MOL0     C28175   2.519   3.411  10.368 -0.1685  0.3100  0.0980
  950MOL0     C28176   2.512   3.286  10.279  0.1290 -0.5958 -0.5056
  950MOL0     C28177   2.394   3.283  10.194 -0.2061 -0.8411  0.4400
  950MOL0     C28178   2.279   3.222  10.266 -0.2994  0.4078 -0.0351
  950MOL0     C28179   2.192   3.162  10.326 -0.0473  0.3092  0.2514
  950MOL0     C28180   2.900   3.322  10.574 -0.3539 -0.2758 -0.2228
  950MOL0     C28181   3.029   3.317  10.637 -0.4328 -0.2817  0.4804
  950MOL0     C28182   3.045   3.256  10.774  0.7016 -0.3088  0.1091
  950MOL0     H28183   3.466   3.649  10.560  2.3592  2.2078  1.2059
  950MOL0     H28184   3.710   3.703  10.579  0.4550 -0.1712 -1.0414
  950MOL0     H28185   4.037   3.382  10.581 -2.7512  0.1804  2.6732
  950MOL0     H28186   3.956   3.441  10.434  3.6916  1.8249 -2.7807
  950MOL0     H28187   4.197   3.493  10.456 -0.3577 -0.7890  1.1225
  950MOL0     H28188   4.158   3.610  10.587 -0.3161 -1.2752  0.7692
  950MOL0     H28189   4.008   3.734  10.432 -0.0051 -0.7412  2.0508
  950MOL0     H28190   4.054   3.621  10.301 -0.1466 -1.6847  0.6079
  950MOL0     H28191   4.293   3.722  10.313  0.6254 -0.3024  1.2253
  950MOL0     H28192   4.158   3.832  10.274 -0.9153 -3.1248 -2.6302
  950MOL0     H28193   4.160   3.914  10.515  2.0515  2.0082  1.8922
  950MOL0     H28194   4.297   3.806  10.553  2.4165  3.0782  0.7463
  950MOL0     H28195   4.310   4.017  10.348  1.9029  1.1956 -0.4659
  950MOL0     H28196   4.379   4.019  10.508  0.2698 -1.3119  0.6795
  950MOL0     H28197   4.552   3.972  10.347 -3.1938  2.2343  3.0119
  950MOL0     H28198   4.460   3.844  10.271 -1.6621  2.1280 -0.8214
  950MOL0     H28199   4.506   3.693  10.490 -0.9384 -0.2359  0.6033
  950MOL0     H28200   4.663   3.755  10.427  0.4151  2.1112 -0.0401
  950MOL0     H28201   4.678   4.050  10.505  0.6028 -1.0026 -0.6116
  950MOL0     H28202   4.683   4.218  10.767 -0.0519 -1.6805 -1.2259
  950MOL0     H28203   4.768   4.120  10.881  1.8922  0.8798 -0.2742
  950MOL0     H28204   4.941   4.069  10.716 -1.7168 -0.4887 -2.2320
  950MOL0     H28205   4.877   4.217  10.624  0.4549 -1.7378 -1.5420
  950MOL0     H28206   5.072   4.271  10.777 -1.5667  1.5491 -0.4506
  950MOL0     H28207   4.972   4.223  10.918  0.9326 -2.2064  0.1669
  950MOL0     H28208   4.803   4.397  10.825  0.3192  0.1235  1.0135
  950MOL0     H28209   4.930   4.437  10.719 -2.6003 -0.1188 -1.6065
  950MOL0     H28210   5.170   4.445  10.731 -0.0939  1.1630 -1.2357
  950MOL0     H28211   5.386   4.544  10.755 -1.9460  2.4483 -0.7735
  950MOL0     H28212   5.729   4.613  10.672  1.7110 -3.0068  0.4261
  950MOL0     H28213   5.970   4.655  10.665 -0.6587 -0.4867  0.0102
  950MOL0     H28214   6.146   4.931  10.998 -0.7012  0.7818 -0.4012
  950MOL0     H28215   6.129   4.758  11.032  0.5360 -0.1127 -0.7715
  950MOL0     H28216   6.367   4.874  11.029 -0.2232 -2.0800 -0.1999
  950MOL0     H28217   6.357   4.728  10.940  0.2401  0.1560  2.2406
  950MOL0     H28218   6.318   4.869  10.732 -0.8962 -1.3980  1.7216
  950MOL0     H28219   6.341   5.020  10.835  3.4178  1.1439  0.3604
  950MOL0     H28220   6.556   4.823  10.843 -0.0927  0.2238  2.0759
  950MOL0     H28221   6.525   4.988  10.914 -3.9939  1.2986  0.0487
  950MOL0     H28222   6.509   5.083  10.694 -2.8822 -1.1102  2.7119
  950MOL0     H28223   6.525   4.924  10.617 -0.1005  0.5173  0.4926
  950MOL0     H28224   6.755   5.033  10.767  1.9922 -0.2575 -0.4863
  950MOL0     H28225   6.756   4.884  10.663  3.0214  1.8137 -0.7724
  950MOL0     H28226   6.673   5.124  10.526  1.9338  2.8187  1.8412
  950MOL0     H28227   6.770   4.978  10.487 -0.3142 -1.4709  1.9873
  950MOL0     H28228   6.826   5.246  10.632 -1.2158  0.2395 -1.4165
  950MOL0     H28229   6.924   5.091  10.651 -1.8465  0.1140  0.9569
  950MOL0     H28230   5.927   4.901  11.015  1.8731  0.8624 -1.6392
  950MOL0     H28231   5.687   4.867  11.019 -0.3881 -1.8798  0.3048
  950MOL0     H28232   5.285   4.720  11.124  3.0820  2.5191 -2.4774
  950MOL0     H28233   5.055   4.630  11.110 -1.7608  2.3931 -2.0630
  950MOL0     H28234   3.794   3.285  10.578  0.1074  0.1991 -1.5099
  950MOL0     H28235   3.541   3.237  10.542 -1.1367  0.0272 -0.4444
  950MOL0     H28236   3.192   3.428  10.362  1.9623 -3.1466  0.0314
  950MOL0     H28237   2.977   3.439  10.269  1.8879 -1.9957 -0.9477
  950MOL0     H28238   2.635   3.485  10.535  0.2993 -1.3688  3.0582
  950MOL0     H28239   2.637   3.308  10.524  2.0029 -0.1290 -1.1486
  950MOL0     H28240   2.534   3.495  10.299 -0.5899 -2.4742 -3.7535
  950MOL0     H28241   2.428   3.427  10.426  1.3239  3.0028  1.8728
  950MOL0     H28242   2.513   3.199  10.345  1.6076 -1.5535 -1.7337
  950MOL0     H28243   2.606   3.286  10.224  0.6195  1.0824  0.2521
  950MOL0     H28244   2.370   3.388  10.176  1.3064 -0.6809 -0.9499
  950MOL0     H28245   2.420   3.236  10.098 -0.2008  0.9726 -0.5005
  950MOL0     H28246   2.113   3.118  10.382  3.1420 -2.5854  2.9454
  950MOL0     H28247   2.821   3.281  10.636  0.0852 -3.7989 -1.7556
  950MOL0     H28248   3.091   3.325  10.845  0.2755  1.2577 -1.0743
  950MOL0     H28249   2.950   3.230  10.823  0.4135  2.2096  1.0393
  950MOL0     H28250   3.097   3.160  10.780  1.9091  0.4205  2.4159
  951MOL0     O28251   8.726   2.138   3.512  0.1213  0.4461 -0.6782
  951MOL0     C28252   8.778   2.196   3.417  0.9857  0.9463  0.3284
  951MOL0     O28253   8.715   2.287   3.331 -0.9211 -0.4392  0.6128
  951MOL0     C28254   8.580   2.297   3.325  1.1685 -0.2764  0.0664
  951MOL0     C28255   8.499   2.304   3.443  0.5145 -0.8805  0.0528
  951MOL0     C28256   8.367   2.314   3.430  0.8811 -0.1697 -0.1434
  951MOL0     C28257   8.304   2.308   3.299 -0.1373 -0.1130 -0.0757
  951MOL0     O28258   8.163   2.319   3.311 -0.6914 -0.0419  0.1164
  951MOL0     C28259   8.097   2.337   3.183 -0.2633 -0.1107  0.4533
  951MOL0     C28260   7.958   2.370   3.220  0.5590 -0.0502  0.3290
  951MOL0     C28261   7.884   2.397   3.087 -0.3585 -0.6089  0.3083
  951MOL0     C28262   7.748   2.467   3.118  1.0905 -0.2863  0.4489
  951MOL0     C28263   7.640   2.448   3.004  0.9302  0.1035 -0.5051
  951MOL0     C28264   7.588   2.307   2.963  0.0600  0.5249 -0.2910
  951MOL0     C28265   7.524   2.224   3.084  0.1169  0.0980  0.9335
  951MOL0     C28266   7.468   2.088   3.047 -0.2690 -1.6059  0.2973
  951MOL0     N28267   7.326   2.095   2.988 -0.0878 -0.4423 -0.1054
  951MOL0     C28268   7.205   2.101   3.061  0.1462 -0.2378 -0.9440
  951MOL0     C28269   7.104   2.089   2.969  0.2658 -0.3757 -0.0431
  951MOL0     C28270   6.962   2.078   3.009  0.7850 -0.4509 -0.0364
  951MOL0     C28271   6.906   2.192   3.100  0.2564 -0.6162  0.8975
  951MOL0     C28272   6.926   2.336   3.038  0.5727 -0.4175  0.4645
  951MOL0     C28273   6.875   2.439   3.147 -0.2792 -0.5514 -0.0092
  951MOL0     O28274   6.908   2.565   3.094  0.0570  0.6905  0.5303
  951MOL0     C28275   7.037   2.610   3.125 -0.3081 -0.2754 -0.3059
  951MOL0     C28276   7.134   2.623   3.024 -0.5583 -0.1639 -0.6077
  951MOL0     C28277   7.263   2.668   3.057  0.1603 -0.0588 -0.4900
  951MOL0     C28278   7.295   2.706   3.192 -0.2514 -0.2044  0.6698
  951MOL0     C28279   7.425   2.756   3.215  0.3550  0.2450 -0.0147
  951MOL0     O28280   7.502   2.787   3.110  0.2172 -0.0264  0.1251
  951MOL0     C28281   7.632   2.825   3.116  0.4976 -0.5880 -0.4919
  951MOL0     C28282   7.709   2.789   3.002 -0.1597 -0.5473  0.7620
  951MOL0     C28283   7.846   2.829   3.010 -0.4721  0.3263 -0.8830
  951MOL0     C28284   7.910   2.893   3.121 -0.5040  0.3136  0.7287
  951MOL0     O28285   8.046   2.916   3.131  0.8350 -0.2870  0.1271
  951MOL0     C28286   8.139   2.857   3.040  0.9969 -0.6128 -0.4338
  951MOL0     C28287   8.277   2.898   3.082 -0.1591 -0.1997  0.2961
  951MOL0     C28288   8.310   2.831   3.217  0.0469 -0.1121 -0.0601
  951MOL0     C28289   8.454   2.832   3.260 -0.3581 -0.5816  0.7493
  951MOL0     C28290   8.473   2.754   3.393  0.5038  0.5896  1.0636
  951MOL0     C28291   8.614   2.766   3.442 -0.4145 -0.8491  0.6498
  951MOL0     C28292   8.716   2.685   3.357 -0.0291 -0.1756 -0.3007
  951MOL0     C28293   8.838   2.778   3.332 -0.6357 -0.1835  0.2149
  951MOL0    Cl28294   8.925   2.830   3.486  0.2078  0.0780 -0.1731
  951MOL0     C28295   7.826   2.916   3.223  0.1047 -0.4236 -0.0737
  951MOL0     C28296   7.694   2.887   3.220  0.3343  0.7279 -0.1323
  951MOL0     O28297   7.454   2.767   3.336  0.5074  0.3036 -0.1368
  951MOL0     C28298   7.193   2.687   3.290  0.8971  0.4234 -0.1614
  951MOL0     C28299   7.064   2.647   3.255 -0.2920 -0.5586 -0.6718
  951MOL0     N28300   7.167   2.080   2.844  0.8792 -0.3585 -0.1584
  951MOL0     N28301   7.300   2.086   2.854  0.1492  0.1188 -0.5919
  951MOL0     C28302   8.391   2.296   3.187 -0.3858  0.7531 -0.4284
  951MOL0     C28303   8.526   2.297   3.198  0.4781 -1.1917 -0.0343
  951MOL0     C28304   8.916   2.153   3.398 -0.3520 -0.0587 -1.0205
  951MOL0     C28305   8.942   2.016   3.426 -0.3561  0.4061  0.2300
  951MOL0     C28306   9.076   1.972   3.418  0.0730 -0.6927 -0.1021
  951MOL0     C28307   9.181   2.059   3.393 -0.5656  0.2694  0.2390
  951MOL0     O28308   9.307   2.009   3.407  0.7757 -1.4376 -0.2191
  951MOL0     C28309   9.410   2.053   3.313  0.7147 -0.0504 -0.1577
  951MOL0     C28310   9.499   2.149   3.393 -0.3560 -0.0443  0.2594
  951MOL0     C28311   9.594   2.079   3.489  0.0917 -0.4408  0.2679
  951MOL0     C28312   9.683   2.181   3.570 -0.2962  0.0702  0.5989
  951MOL0     C28313   9.806   2.223   3.508 -0.2415  0.0716  0.2133
  951MOL0     C28314   9.915   2.274   3.481  0.1843  1.0637  0.7600
  951MOL0     C28315   9.151   2.195   3.365 -0.7236 -1.0753 -0.2751
  951MOL0     C28316   9.020   2.245   3.368  1.1277 -0.1307  0.5409
  951MOL0     C28317   8.994   2.396   3.351  0.2449  0.1262 -0.0009
  951MOL0     H28318   8.541   2.313   3.543  1.6827 -1.0077 -0.4076
  951MOL0     H28319   8.301   2.315   3.517  0.7466  0.3504 -0.2530
  951MOL0     H28320   8.141   2.417   3.123 -2.4845 -0.8471 -2.3735
  951MOL0     H28321   8.096   2.253   3.112  0.3377 -0.0839  0.4020
  951MOL0     H28322   7.943   2.452   3.291 -0.4908 -0.3774  0.4954
  951MOL0     H28323   7.925   2.281   3.273 -2.3365  1.6990  1.7370
  951MOL0     H28324   7.867   2.301   3.036  3.4578 -1.2198 -0.0894
  951MOL0     H28325   7.938   2.462   3.017 -0.1576  0.4249  1.3915
  951MOL0     H28326   7.708   2.439   3.215  0.8911 -1.3331  0.0765
  951MOL0     H28327   7.773   2.574   3.122 -1.8920  0.6042 -1.4481
  951MOL0     H28328   7.555   2.501   3.048  0.5943 -1.0188  0.2181
  951MOL0     H28329   7.674   2.494   2.910 -1.5299 -1.4200 -2.2747
  951MOL0     H28330   7.510   2.319   2.887  0.2942 -0.8265 -0.7644
  951MOL0     H28331   7.668   2.247   2.919  0.6432  0.8830  0.2475
  951MOL0     H28332   7.442   2.281   3.131 -1.2113 -0.9744 -0.0015
  951MOL0     H28333   7.599   2.203   3.160 -0.1143  3.1043  2.1768
  951MOL0     H28334   7.538   2.041   2.977  0.0763  0.2271 -0.6732
  951MOL0     H28335   7.472   2.030   3.139  2.2467  1.0746  2.0683
  951MOL0     H28336   7.209   2.119   3.167  0.6994 -2.7172 -0.4854
  951MOL0     H28337   6.894   2.079   2.923  0.4710  2.3744  0.1635
  951MOL0     H28338   6.959   1.991   3.076  2.0379  0.2020  0.8912
  951MOL0     H28339   6.797   2.185   3.111 -0.2440  1.6731 -1.5363
  951MOL0     H28340   6.961   2.172   3.192  0.3994 -1.4919  0.6302
  951MOL0     H28341   6.873   2.352   2.944  2.4798 -0.4690 -0.6647
  951MOL0     H28342   7.034   2.349   3.032  0.6205 -1.2836 -0.8795
  951MOL0     H28343   6.921   2.414   3.244  2.2542  0.7467 -0.7656
  951MOL0     H28344   6.768   2.433   3.168 -0.5268 -0.2419 -1.1448
  951MOL0     H28345   7.115   2.603   2.919 -1.5852  0.9612 -0.6581
  951MOL0     H28346   7.327   2.671   2.969 -1.7274  0.5000 -1.9132
  951MOL0     H28347   7.661   2.756   2.911 -2.3763  1.4722  1.0692
  951MOL0     H28348   7.904   2.816   2.919 -3.9823  1.1085 -3.4508
  951MOL0     H28349   8.125   2.749   3.033 -1.1683 -0.4137 -0.0755
  951MOL0     H28350   8.138   2.899   2.939  1.4878  0.7764  0.1182
  951MOL0     H28351   8.355   2.860   3.015  1.3728 -0.8934  2.3655
  951MOL0     H28352   8.277   3.007   3.092 -3.9820  0.3708 -3.2530
  951MOL0     H28353   8.248   2.877   3.295 -0.9651  0.2612 -1.0587
  951MOL0     H28354   8.273   2.728   3.215 -0.9225  0.1604  1.6868
  951MOL0     H28355   8.492   2.934   3.260  1.3557 -1.1769 -0.2067
  951MOL0     H28356   8.508   2.772   3.186 -0.1109 -1.7639  1.8554
  951MOL0     H28357   8.450   2.649   3.371 -2.0341  1.6228 -1.9126
  951MOL0     H28358   8.407   2.790   3.472 -0.7161  1.2704 -0.2212
  951MOL0     H28359   8.642   2.869   3.466  3.1576 -2.1790  3.0673
  951MOL0     H28360   8.632   2.724   3.542  0.6157 -0.2526  0.7316
  951MOL0     H28361   8.687   2.656   3.256  0.0505 -0.0092 -0.3725
  951MOL0     H28362   8.748   2.600   3.418 -1.5549  0.3508  1.3181
  951MOL0     H28363   8.904   2.711   3.276 -1.5302 -0.0693 -1.0157
  951MOL0     H28364   8.810   2.861   3.266  0.3428  1.0808  1.3198
  951MOL0     H28365   7.857   2.967   3.313 -1.2312 -1.0009  0.7343
  951MOL0     H28366   7.633   2.902   3.308  1.1702 -0.9716  0.7925
  951MOL0     H28367   7.210   2.707   3.395  1.1846 -1.5851  0.2188
  951MOL0     H28368   6.998   2.627   3.339  0.9501  1.5959  0.9223
  951MOL0     H28369   8.334   2.288   3.094 -1.7058  0.1339  0.3981
  951MOL0     H28370   8.585   2.291   3.106  0.1618  0.6222 -0.3903
  951MOL0     H28371   8.861   1.948   3.450 -2.2497  1.5917 -2.3318
  951MOL0     H28372   9.075   1.864   3.428 -0.2499 -0.5887  1.2947
  951MOL0     H28373   9.363   2.104   3.229 -0.7545  1.0646  1.2846
  951MOL0     H28374   9.469   1.970   3.274  0.3122  0.1732 -1.2822
  951MOL0     H28375   9.451   2.230   3.449  1.1116  0.0558  1.4519
  951MOL0     H28376   9.567   2.199   3.324 -1.8393  1.5668 -0.1121
  951MOL0     H28377   9.650   1.997   3.444  1.3880  0.8573 -0.5685
  951MOL0     H28378   9.526   2.029   3.560 -0.1159 -0.8581 -0.2174
  951MOL0     H28379   9.629   2.273   3.593 -1.9516 -0.5316 -0.6734
  951MOL0     H28380   9.708   2.135   3.666  2.5964 -0.7539 -0.4384
  951MOL0     H28381  10.008   2.306   3.438  1.1462 -2.3152  0.0145
  951MOL0     H28382   9.228   2.268   3.343 -3.0486  2.0926  1.3587
  951MOL0     H28383   8.937   2.441   3.433  1.9134 -0.6872  1.6714
  951MOL0     H28384   9.087   2.449   3.330 -1.7726  3.0525 -2.5853
  951MOL0     H28385   8.937   2.416   3.259  2.2482  1.4218 -1.0507
  952MOL0     O28386   0.165   2.549   0.199 -0.3792 -0.7074  0.2632
  952MOL0     C28387   0.154   2.518   0.081 -0.0751  0.2990  0.1789
  952MOL0     O28388   0.231   2.546  -0.025  0.3592 -0.3294 -0.3608
  952MOL0     C28389   0.357   2.581  -0.015 -1.1363  0.5541  0.2481
  952MOL0     C28390   0.398   2.715  -0.051  0.9036  0.1362 -0.2259
  952MOL0     C28391   0.528   2.759  -0.026 -0.0983  0.5012 -0.0223
  952MOL0     C28392   0.616   2.669   0.041  0.3049 -0.5223 -0.1103
  952MOL0     O28393   0.745   2.692   0.071  0.0126  0.3430  0.5283
  952MOL0     C28394   0.801   2.825   0.058 -0.2703 -1.0990  0.1151
  952MOL0     C28395   0.865   2.841  -0.077  0.1287  0.8899  0.3465
  952MOL0     C28396   0.925   2.989  -0.078  0.3581 -0.2330  0.1538
  952MOL0     C28397   0.994   3.014  -0.212 -1.3014 -0.1385  0.1251
  952MOL0     C28398   1.054   3.154  -0.225 -0.9266  0.4914 -0.7928
  952MOL0     C28399   1.174   3.197  -0.142  0.0476  1.0504 -0.2952
  952MOL0     C28400   1.283   3.084  -0.135 -0.1832  0.5877 -0.9464
  952MOL0     C28401   1.350   3.027  -0.260 -0.6005 -0.1197  0.1237
  952MOL0     N28402   1.436   2.906  -0.227  0.0105 -0.2445 -0.9583
  952MOL0     C28403   1.431   2.787  -0.282  0.1702  0.5705 -0.0113
  952MOL0     C28404   1.536   2.718  -0.239 -0.2530 -0.0505  0.5606
  952MOL0     C28405   1.579   2.577  -0.286 -0.4345 -0.0615 -0.2505
  952MOL0     C28406   1.700   2.577  -0.379 -1.0214  0.9541  0.6272
  952MOL0     C28407   1.836   2.595  -0.307  0.5753  0.3236 -0.0826
  952MOL0     C28408   1.948   2.527  -0.380 -0.1811 -0.0601 -0.0993
  952MOL0     O28409   2.079   2.548  -0.319 -0.3235  0.4103  0.8937
  952MOL0     C28410   2.184   2.529  -0.412 -0.1986 -0.1369 -0.5246
  952MOL0     C28411   2.174   2.426  -0.507  0.1385 -0.2402  0.4771
  952MOL0     C28412   2.276   2.408  -0.595  0.4488 -0.4798 -0.2041
  952MOL0     C28413   2.391   2.494  -0.595 -0.3799 -0.3462 -0.2141
  952MOL0     C28414   2.504   2.463  -0.691 -0.3304  0.2513 -0.1246
  952MOL0     O28415   2.615   2.540  -0.701 -0.4524 -0.8858 -1.1489
  952MOL0     C28416   2.732   2.480  -0.746 -0.1487  0.3271 -0.3225
  952MOL0     C28417   2.813   2.407  -0.656  0.2258  0.0887  0.1873
  952MOL0     C28418   2.933   2.353  -0.704  0.4355  0.3403 -0.2213
  952MOL0     C28419   2.973   2.378  -0.840  0.5417 -0.3256  0.3010
  952MOL0     O28420   3.089   2.335  -0.893 -0.1995 -0.0227  0.3754
  952MOL0     C28421   3.107   2.191  -0.873  0.4242  0.3229 -0.4929
  952MOL0     C28422   3.244   2.163  -0.813 -0.1654  0.5984 -0.2739
  952MOL0     C28423   3.353   2.214  -0.896 -0.0533 -0.5497  0.1621
  952MOL0     C28424   3.478   2.133  -0.896 -0.6188 -0.2031  0.9151
  952MOL0     C28425   3.571   2.165  -1.012 -0.1204 -0.4681  0.0113
  952MOL0     C28426   3.701   2.086  -1.012  0.8920 -0.2908 -0.6338
  952MOL0     C28427   3.796   2.122  -1.122  0.9347  0.2350  0.3586
  952MOL0     C28428   3.937   2.061  -1.110 -0.0734  0.2916  0.0421
  952MOL0    Cl28429   4.054   2.176  -1.046 -0.1004 -0.2638  0.0714
  952MOL0     C28430   2.895   2.463  -0.921 -0.0682  0.1879  0.5144
  952MOL0     C28431   2.773   2.513  -0.876 -0.1955  0.2642 -1.0554
  952MOL0     O28432   2.487   2.361  -0.751  0.4022 -0.2960  0.1975
  952MOL0     C28433   2.395   2.606  -0.511  0.1231  1.1570 -0.0609
  952MOL0     C28434   2.291   2.618  -0.418  0.3028  0.5531  0.0055
  952MOL0     N28435   1.599   2.799  -0.154 -0.2764  0.4089 -0.4300
  952MOL0     N28436   1.546   2.916  -0.149 -0.2361 -0.0568  0.7211
  952MOL0     C28437   0.577   2.544   0.082  0.0395 -0.8119 -0.2363
  952MOL0     C28438   0.449   2.504   0.055 -0.4277  0.5403 -0.0440
  952MOL0     C28439   0.043   2.425   0.049 -0.0094  0.3637  0.1074
  952MOL0     C28440   0.063   2.305  -0.025  0.1933  0.1868  0.0735
  952MOL0     C28441  -0.047   2.220  -0.041  1.3606  0.3167 -0.5818
  952MOL0     C28442  -0.175   2.249   0.005  0.1774  0.7748 -0.0266
  952MOL0     O28443  -0.273   2.155  -0.026  0.4403  0.3965  0.4637
  952MOL0     C28444  -0.351   2.105   0.083  0.3163  0.8976 -0.2862
  952MOL0     C28445  -0.484   2.176   0.114  0.3797  0.5664 -0.1601
  952MOL0     C28446  -0.587   2.091   0.200 -0.4687 -0.0141 -0.6327
  952MOL0     C28447  -0.625   1.952   0.147 -0.5743  0.4255 -0.2477
  952MOL0     C28448  -0.682   1.966   0.008  0.5885  0.5563 -0.0521
  952MOL0     C28449  -0.733   1.991  -0.102 -0.2256  0.5653  0.5223
  952MOL0     C28450  -0.196   2.363   0.074 -0.5983 -0.5312 -0.5140
  952MOL0     C28451  -0.092   2.455   0.090 -0.0720  0.3314 -0.3673
  952MOL0     C28452  -0.128   2.584   0.163 -0.0415  0.0364  0.3010
  952MOL0     H28453   0.332   2.786  -0.100  0.0865  0.8915  1.8492
  952MOL0     H28454   0.560   2.856  -0.062 -0.5955  0.2965 -1.0307
  952MOL0     H28455   0.723   2.902   0.067  0.5627 -0.1803 -0.3583
  952MOL0     H28456   0.886   2.835   0.125 -1.4662  1.2982  1.4078
  952MOL0     H28457   0.787   2.817  -0.149  0.0477  0.0735  0.6948
  952MOL0     H28458   0.945   2.767  -0.090 -1.3742 -0.6297 -0.6922
  952MOL0     H28459   0.994   2.997   0.007  0.3441 -3.4623  0.6001
  952MOL0     H28460   0.843   3.060  -0.063 -2.5441 -3.4326  0.7292
  952MOL0     H28461   1.080   2.949  -0.231  1.1984  2.7939  0.6122
  952MOL0     H28462   0.916   2.999  -0.287  0.2601 -0.8579 -1.4145
  952MOL0     H28463   1.071   3.171  -0.332 -0.2573 -3.1143 -1.3702
  952MOL0     H28464   0.971   3.215  -0.190  0.6402  2.3550 -0.1125
  952MOL0     H28465   1.206   3.291  -0.186  1.5275  0.1454 -1.2124
  952MOL0     H28466   1.141   3.220  -0.040  0.0967  3.6377 -0.8059
  952MOL0     H28467   1.235   3.001  -0.083  0.7460  0.0227 -0.9676
  952MOL0     H28468   1.361   3.124  -0.070 -0.2767  0.1236 -0.5393
  952MOL0     H28469   1.274   2.993  -0.331 -0.0819  0.4469 -0.7262
  952MOL0     H28470   1.402   3.114  -0.300 -2.5120 -0.0910 -2.5701
  952MOL0     H28471   1.360   2.739  -0.349  0.9348 -2.0947  0.9533
  952MOL0     H28472   1.595   2.510  -0.201  0.8622  1.5705  0.8884
  952MOL0     H28473   1.498   2.539  -0.348 -1.3070 -1.8362  1.8349
  952MOL0     H28474   1.707   2.476  -0.420 -0.5261  1.2773 -0.1167
  952MOL0     H28475   1.692   2.653  -0.458  4.0699  1.5710  0.3697
  952MOL0     H28476   1.832   2.560  -0.204  0.5838  0.2168 -0.1181
  952MOL0     H28477   1.862   2.700  -0.296  0.9601  0.3740 -1.3062
  952MOL0     H28478   1.948   2.561  -0.484 -0.5485 -0.9375 -0.3989
  952MOL0     H28479   1.924   2.420  -0.385  0.8449 -0.4369  2.0147
  952MOL0     H28480   2.096   2.351  -0.505 -1.3636  1.2758  1.1430
  952MOL0     H28481   2.276   2.314  -0.650  1.4108 -1.5413  1.5306
  952MOL0     H28482   2.783   2.385  -0.554 -0.9224 -0.9758 -0.3436
  952MOL0     H28483   2.994   2.291  -0.639 -1.3228 -0.1533  1.0090
  952MOL0     H28484   3.027   2.135  -0.824 -1.6425  0.6840 -3.2188
  952MOL0     H28485   3.114   2.153  -0.975 -1.1717  2.8326 -1.6090
  952MOL0     H28486   3.246   2.207  -0.713 -2.3255 -3.4767  1.7852
  952MOL0     H28487   3.254   2.055  -0.803 -0.4133  0.5209 -0.8396
  952MOL0     H28488   3.315   2.231  -0.997 -0.5444  3.3442  0.8319
  952MOL0     H28489   3.381   2.313  -0.858  0.8517 -0.5167 -0.5728
  952MOL0     H28490   3.459   2.026  -0.901  0.9847 -0.5018  0.5418
  952MOL0     H28491   3.531   2.157  -0.802 -0.1904  2.5625  0.0721
  952MOL0     H28492   3.599   2.271  -1.015 -0.0318 -0.4752  0.5239
  952MOL0     H28493   3.515   2.147  -1.105 -1.7524 -1.2147  1.0849
  952MOL0     H28494   3.750   2.104  -0.916  2.9179  1.0409 -1.8246
  952MOL0     H28495   3.676   1.981  -1.029 -0.4018  0.0477 -0.8711
  952MOL0     H28496   3.817   2.229  -1.129 -0.3162  0.3983 -1.6567
  952MOL0     H28497   3.753   2.092  -1.218 -0.0487  2.9011 -0.1098
  952MOL0     H28498   3.947   1.973  -1.045  2.6587  1.4740  1.3989
  952MOL0     H28499   3.959   2.035  -1.214 -2.1499  2.3930 -1.0171
  952MOL0     H28500   2.934   2.475  -1.021 -0.5099  3.3550  0.6235
  952MOL0     H28501   2.707   2.563  -0.946  1.4623  0.0250 -2.8684
  952MOL0     H28502   2.469   2.684  -0.515  0.0904  1.1725 -0.4406
  952MOL0     H28503   2.296   2.696  -0.343  3.6321  0.3572  0.1732
  952MOL0     H28504   0.656   2.488   0.131  3.3631  2.0661 -1.8466
  952MOL0     H28505   0.425   2.404   0.089  0.6058  0.6054  0.9460
  952MOL0     H28506   0.162   2.284  -0.063 -0.1051 -1.3586  0.0883
  952MOL0     H28507  -0.039   2.120  -0.083  0.5132 -0.2707  0.5893
  952MOL0     H28508  -0.293   2.099   0.175 -2.5065  0.9010  1.5899
  952MOL0     H28509  -0.376   2.002   0.058  2.3858  0.2304  0.2456
  952MOL0     H28510  -0.536   2.199   0.020  2.7345 -2.9763 -2.6020
  952MOL0     H28511  -0.455   2.263   0.173  0.4132  1.5778 -1.6320
  952MOL0     H28512  -0.679   2.149   0.214  0.3177  1.5169 -1.5351
  952MOL0     H28513  -0.547   2.086   0.302  3.0948 -1.0854 -1.9565
  952MOL0     H28514  -0.542   1.881   0.136  0.1671  1.2998 -0.3831
  952MOL0     H28515  -0.699   1.910   0.217  0.9553 -1.2173  0.4697
  952MOL0     H28516  -0.775   2.017  -0.196  0.3240  0.9698  0.3789
  952MOL0     H28517  -0.296   2.385   0.111  0.0999 -1.0154  1.7832
  952MOL0     H28518  -0.063   2.658   0.114 -2.3891  1.1793 -1.2700
  952MOL0     H28519  -0.224   2.622   0.129 -0.0623 -0.3959 -0.1474
  952MOL0     H28520  -0.107   2.583   0.270  0.1001  0.1180  0.2742
  953MOL0     O28521   0.439   5.537   6.020 -0.5460 -0.1172  0.8814
  953MOL0     C28522   0.385   5.430   5.985 -0.2960 -0.3204  0.2057
  953MOL0     O28523   0.452   5.307   5.989  0.1500 -0.4110 -0.5735
  953MOL0     C28524   0.590   5.310   5.972  0.3150  0.5554  0.4865
  953MOL0     C28525   0.684   5.314   6.076 -0.4256  0.4159  0.8365
  953MOL0     C28526   0.824   5.317   6.047 -0.4761  0.0823  0.6120
  953MOL0     C28527   0.870   5.312   5.915  0.3958 -0.0968  0.4315
  953MOL0     O28528   1.006   5.308   5.900  0.0584  0.1550 -0.3383
  953MOL0     C28529   1.055   5.288   5.767 -0.3979  0.0682 -0.4246
  953MOL0     C28530   1.204   5.264   5.765  0.3524 -0.3251  0.7465
  953MOL0     C28531   1.280   5.396   5.796 -0.2495  0.2216 -0.3590
  953MOL0     C28532   1.433   5.401   5.758  0.0206  0.3527  0.7645
  953MOL0     C28533   1.496   5.516   5.826  0.7050  1.3077  0.0471
  953MOL0     C28534   1.650   5.513   5.812 -0.3987 -0.5538 -0.3311
  953MOL0     C28535   1.699   5.544   5.667  0.5547 -0.0774 -0.1397
  953MOL0     C28536   1.849   5.592   5.662 -0.4582 -0.4685  0.3669
  953MOL0     N28537   1.935   5.495   5.725 -0.4588 -0.7053 -0.2898
  953MOL0     C28538   1.956   5.357   5.682 -0.5483 -0.3130 -0.0870
  953MOL0     C28539   2.029   5.295   5.784  0.6644 -0.6507  1.3723
  953MOL0     C28540   2.075   5.147   5.783  0.3045 -0.0013  0.0191
  953MOL0     C28541   2.201   5.137   5.688 -0.0012  0.7668 -0.3034
  953MOL0     C28542   2.294   5.016   5.716  0.1014 -0.3947 -0.5154
  953MOL0     C28543   2.422   5.019   5.630  0.1141 -0.0513 -0.6197
  953MOL0     O28544   2.495   4.909   5.676 -0.4211  0.3601 -0.0896
  953MOL0     C28545   2.605   4.868   5.611 -0.4382  0.2129 -0.2048
  953MOL0     C28546   2.683   4.957   5.539 -0.2144  0.9557 -0.1135
  953MOL0     C28547   2.782   4.905   5.463  0.4266  0.2059 -0.1634
  953MOL0     C28548   2.806   4.772   5.457 -0.0237 -0.0503  0.1732
  953MOL0     C28549   2.930   4.737   5.391 -0.3637  0.4759  0.5629
  953MOL0     O28550   3.006   4.843   5.331  0.1375  0.1441 -0.2327
  953MOL0     C28551   3.139   4.823   5.303 -0.9062 -0.3659  0.4090
  953MOL0     C28552   3.228   4.924   5.323  0.0529 -0.0904  0.9852
  953MOL0     C28553   3.368   4.916   5.278  0.1744 -0.8905 -0.1030
  953MOL0     C28554   3.415   4.802   5.213  1.1358 -1.1606  0.1839
  953MOL0     O28555   3.536   4.780   5.165 -0.0212  0.2891 -0.5442
  953MOL0     C28556   3.623   4.890   5.154 -0.3484 -0.4697  0.4634
  953MOL0     C28557   3.759   4.851   5.091  0.1261  0.3872  0.4289
  953MOL0     C28558   3.852   4.963   5.067  0.3484 -0.8363 -0.3696
  953MOL0     C28559   3.983   4.923   5.006  0.5464  0.1797  0.0700
  953MOL0     C28560   4.082   5.041   4.992 -0.6200 -0.2659 -1.1448
  953MOL0     C28561   4.209   4.995   4.934 -0.4495  0.6686 -0.8256
  953MOL0     C28562   4.316   5.109   4.917 -0.3077 -0.8558 -0.3235
  953MOL0     C28563   4.460   5.052   4.882  0.3726 -0.0747  0.3135
  953MOL0    Cl28564   4.467   5.000   4.709 -0.6478  0.1919  0.3773
  953MOL0     C28565   3.327   4.691   5.210 -0.0662  0.0227  0.8666
  953MOL0     C28566   3.191   4.705   5.250 -0.1346  0.4229  0.1358
  953MOL0     O28567   2.962   4.620   5.393 -0.4543 -1.1528  0.0986
  953MOL0     C28568   2.723   4.682   5.525 -0.6385 -0.1510  0.2083
  953MOL0     C28569   2.625   4.730   5.604  0.2956 -0.5612 -0.4801
  953MOL0     N28570   2.038   5.386   5.889 -0.1356 -0.3085 -0.2786
  953MOL0     N28571   1.991   5.502   5.852 -0.3743  0.2872  0.4455
  953MOL0     C28572   0.778   5.309   5.803 -0.5291  0.6026 -0.4168
  953MOL0     C28573   0.640   5.320   5.841  0.1834  0.1757 -0.4060
  953MOL0     C28574   0.244   5.437   5.947  0.2362 -0.0884  0.5905
  953MOL0     C28575   0.186   5.312   5.913  0.0990 -1.2391  0.4221
  953MOL0     C28576   0.048   5.307   5.863 -0.6644 -0.3186 -0.7868
  953MOL0     C28577  -0.034   5.425   5.866 -0.2707 -0.3734  0.3365
  953MOL0     O28578  -0.168   5.433   5.830  0.2528  0.0956 -0.6475
  953MOL0     C28579  -0.242   5.327   5.763  0.3258  0.5101 -0.4073
  953MOL0     C28580  -0.379   5.359   5.724  0.3330 -0.0946 -0.2083
  953MOL0     C28581  -0.462   5.420   5.843  0.0188 -0.5104  0.4347
  953MOL0     C28582  -0.603   5.391   5.818 -0.8684 -0.6908  0.1601
  953MOL0     C28583  -0.682   5.441   5.929  0.3535 -0.4553 -0.1172
  953MOL0     C28584  -0.737   5.499   6.024 -0.1386 -0.0945  1.0275
  953MOL0     C28585   0.025   5.540   5.904 -0.1364  0.2988 -0.7065
  953MOL0     C28586   0.159   5.550   5.937 -0.7304  0.1631  0.5327
  953MOL0     C28587   0.203   5.686   5.981 -0.0665 -0.6412  0.1683
  953MOL0     H28588   0.650   5.303   6.179 -2.2953 -3.7584 -0.0460
  953MOL0     H28589   0.899   5.315   6.126  1.6223 -0.1891 -1.2851
  953MOL0     H28590   1.005   5.207   5.713  1.7649 -1.5141 -0.2294
  953MOL0     H28591   1.034   5.372   5.701 -0.3901 -0.5627 -1.2523
  953MOL0     H28592   1.223   5.235   5.661  0.2716  0.9522  0.3617
  953MOL0     H28593   1.227   5.182   5.834 -0.5569  1.0587  2.7871
  953MOL0     H28594   1.276   5.397   5.905  0.7380 -1.1436 -0.2844
  953MOL0     H28595   1.234   5.491   5.768 -1.3532 -0.4745 -0.9697
  953MOL0     H28596   1.473   5.303   5.785 -2.3999 -1.8652 -2.7174
  953MOL0     H28597   1.463   5.393   5.653 -0.5135 -3.4394  0.7608
  953MOL0     H28598   1.459   5.611   5.787  1.9753  2.1193  0.7372
  953MOL0     H28599   1.469   5.495   5.930 -2.3414 -2.7455 -1.3052
  953MOL0     H28600   1.683   5.591   5.881  0.7834 -0.3497 -1.0957
  953MOL0     H28601   1.690   5.420   5.855 -0.3365 -0.1188  0.5859
  953MOL0     H28602   1.636   5.624   5.628  1.6782  2.1279  2.2852
  953MOL0     H28603   1.691   5.464   5.593 -1.8165  0.9472 -1.0773
  953MOL0     H28604   1.873   5.588   5.556  1.3494 -1.9120  0.7771
  953MOL0     H28605   1.865   5.692   5.703 -3.3987 -0.4170  1.6676
  953MOL0     H28606   1.911   5.321   5.590 -2.7936  1.3996  0.2337
  953MOL0     H28607   2.089   5.116   5.887  1.1903 -1.4260 -0.4910
  953MOL0     H28608   1.993   5.084   5.746  0.4782 -0.3660  0.2482
  953MOL0     H28609   2.163   5.130   5.585 -2.7048  0.9658  0.5856
  953MOL0     H28610   2.264   5.225   5.701  3.5668 -1.6168 -0.2623
  953MOL0     H28611   2.242   4.925   5.686  0.7965  0.2268 -4.1092
  953MOL0     H28612   2.331   5.006   5.819  0.6619  3.4081 -0.1951
  953MOL0     H28613   2.482   5.110   5.646 -0.9402  1.0322 -2.5625
  953MOL0     H28614   2.388   5.012   5.527 -0.9642 -1.4096 -0.2070
  953MOL0     H28615   2.665   5.064   5.537 -2.5111  0.6836  1.6434
  953MOL0     H28616   2.844   4.976   5.409 -0.7965  1.1022 -0.4098
  953MOL0     H28617   3.191   5.016   5.366  0.2005 -0.1345  1.2093
  953MOL0     H28618   3.432   5.001   5.299  2.1225 -2.4048  0.3877
  953MOL0     H28619   3.580   4.968   5.092  0.8810  1.7804  2.2616
  953MOL0     H28620   3.645   4.934   5.252 -2.7212  1.0016  0.4077
  953MOL0     H28621   3.804   4.775   5.155  1.8046  0.1327 -0.9669
  953MOL0     H28622   3.732   4.810   4.993 -0.5949 -1.6312  1.4074
  953MOL0     H28623   3.799   5.045   5.017 -0.8029 -1.1956  0.2253
  953MOL0     H28624   3.877   5.004   5.165  1.5523 -0.0490 -0.9861
  953MOL0     H28625   3.969   4.878   4.907  1.8321 -1.3685  0.5550
  953MOL0     H28626   4.030   4.855   5.077  1.8057  2.1042  1.1543
  953MOL0     H28627   4.114   5.095   5.082 -1.7875 -1.1122 -0.1937
  953MOL0     H28628   4.057   5.119   4.919  2.5270  1.2040 -0.8263
  953MOL0     H28629   4.249   4.925   5.007 -0.2344 -1.2248 -2.6595
  953MOL0     H28630   4.188   4.944   4.839  1.1180 -1.3741 -0.1521
  953MOL0     H28631   4.323   5.150   5.019 -0.4662 -2.6802  0.4660
  953MOL0     H28632   4.285   5.190   4.852  1.1358 -1.4735 -1.8533
  953MOL0     H28633   4.541   5.121   4.905 -1.2903  1.1057  3.1501
  953MOL0     H28634   4.469   4.964   4.947 -1.1468 -1.2530 -0.9693
  953MOL0     H28635   3.358   4.600   5.162  1.9604  0.9734  0.2675
  953MOL0     H28636   3.130   4.617   5.235 -0.9222  0.4572  2.6612
  953MOL0     H28637   2.738   4.574   5.525 -2.9989 -0.5451 -1.1151
  953MOL0     H28638   2.570   4.658   5.663  0.3477  0.0186  0.3106
  953MOL0     H28639   0.811   5.304   5.700  0.9583 -1.6835  0.1022
  953MOL0     H28640   0.578   5.331   5.752  0.5937  0.9852 -0.6084
  953MOL0     H28641   0.241   5.219   5.920 -0.2619 -1.8059 -2.5817
  953MOL0     H28642   0.011   5.210   5.833 -1.0715 -1.0090  1.7422
  953MOL0     H28643  -0.250   5.239   5.829 -1.8153  2.0190  1.5038
  953MOL0     H28644  -0.188   5.285   5.678  1.8083 -1.3175  1.3192
  953MOL0     H28645  -0.431   5.267   5.698 -1.9928  0.3313  2.3824
  953MOL0     H28646  -0.382   5.424   5.636  0.0171 -1.1772 -1.0177
  953MOL0     H28647  -0.436   5.525   5.862  1.9919 -1.1445  1.5008
  953MOL0     H28648  -0.443   5.365   5.935  2.1432  0.9992  0.9729
  953MOL0     H28649  -0.643   5.442   5.730 -2.3435 -0.3817  0.9779
  953MOL0     H28650  -0.625   5.284   5.815  1.0580 -1.1925  2.1182
  953MOL0     H28651  -0.781   5.551   6.106 -1.6462 -2.1135  1.6007
  953MOL0     H28652  -0.038   5.624   5.876  2.0542  2.6908  1.0880
  953MOL0     H28653   0.249   5.667   6.079  2.0699  0.8700 -0.4671
  953MOL0     H28654   0.276   5.716   5.906 -1.2743 -2.6274 -1.9142
  953MOL0     H28655   0.121   5.758   5.992 -0.6712 -0.7408 -2.9186
  954MOL0     O28656  10.559  10.256  10.284 -0.1525 -0.3577  0.9164
  954MOL0     C28657  10.559  10.354  10.207  1.1341  0.5722  0.2950
  954MOL0     O28658  10.662  10.388  10.128 -0.0232  0.6250 -0.2224
  954MOL0     C28659  10.768  10.304  10.114 -0.0159  0.2103 -0.9079
  954MOL0     C28660  10.879  10.374  10.076  0.8151 -0.8495  0.2494
  954MOL0     C28661  11.004  10.315  10.046 -0.4862  0.4103 -0.5028
  954MOL0     C28662  11.019  10.176  10.066  0.8395  0.2596  0.2270
  954MOL0     O28663  11.126  10.098  10.026  1.2016  0.3024 -0.3401
  954MOL0     C28664  11.252  10.157   9.990  0.3595  0.3400 -0.0006
  954MOL0     C28665  11.342  10.042   9.937  0.1309 -0.1660  0.1917
  954MOL0     C28666  11.481  10.085   9.890 -0.2871  0.8245 -0.4376
  954MOL0     C28667  11.563   9.983   9.802 -0.7361 -0.0803 -0.9919
  954MOL0     C28668  11.708  10.050   9.779 -0.0326 -0.4892  0.0183
  954MOL0     C28669  11.798   9.952   9.712  0.1806  0.1447 -0.0046
  954MOL0     C28670  11.936  10.010   9.674  0.0008 -0.9140  0.2945
  954MOL0     C28671  11.932  10.106   9.552  0.8536 -0.5067 -0.5506
  954MOL0     N28672  12.074  10.137   9.520  0.0812 -0.0035  0.1697
  954MOL0     C28673  12.157  10.237   9.564  0.8009 -0.3447 -0.2846
  954MOL0     C28674  12.273  10.206   9.527  0.0616  0.3102  0.5907
  954MOL0     C28675  12.395  10.285   9.552 -0.4958 -0.1203  0.7929
  954MOL0     C28676  12.506  10.197   9.617  0.5552  0.5753 -1.1594
  954MOL0     C28677  12.458  10.139   9.753  0.1034 -0.0589  0.4490
  954MOL0     C28678  12.573  10.073   9.829  0.7299 -0.6790  0.2456
  954MOL0     O28679  12.671  10.173   9.855 -0.0011  0.4620 -1.0374
  954MOL0     C28680  12.795  10.137   9.900 -0.4974 -0.7249 -0.4664
  954MOL0     C28681  12.818  10.031   9.992  0.1243  0.5239  0.1113
  954MOL0     C28682  12.936  10.004  10.043  0.1496  0.4237  0.1857
  954MOL0     C28683  13.053  10.087  10.012 -0.0456 -0.6341 -0.1408
  954MOL0     C28684  13.191  10.041  10.044 -0.8619 -0.3576  1.0476
  954MOL0     O28685  13.210   9.911  10.083  0.0786 -0.4169 -0.1540
  954MOL0     C28686  13.334   9.855  10.097  0.1911 -0.0577 -0.6556
  954MOL0     C28687  13.440   9.913  10.175  0.4205  0.1975 -0.4691
  954MOL0     C28688  13.567   9.850  10.194  0.0649 -0.6816  0.0865
  954MOL0     C28689  13.585   9.732  10.123  0.4573  0.0500  0.0798
  954MOL0     O28690  13.708   9.677  10.148 -0.2983  0.3936  0.0824
  954MOL0     C28691  13.768   9.610  10.039 -0.2221 -0.4930 -0.5407
  954MOL0     C28692  13.910   9.576  10.083 -0.7911  0.1098 -0.3377
  954MOL0     C28693  14.009   9.531   9.967 -0.6080 -0.7652  0.1744
  954MOL0     C28694  13.948   9.450   9.856 -0.5475 -0.1641  0.6072
  954MOL0     C28695  14.056   9.362   9.773  0.0345 -0.1419  0.4644
  954MOL0     C28696  14.134   9.450   9.676  0.5756 -0.0632 -0.5682
  954MOL0     C28697  14.252   9.367   9.623  0.0651 -0.1233 -0.1754
  954MOL0     C28698  14.344   9.447   9.534 -0.4840  0.1315  0.3552
  954MOL0    Cl28699  14.444   9.332   9.424 -0.2445 -0.0122  0.5180
  954MOL0     C28700  13.488   9.673  10.043  0.3598  0.0916 -0.8092
  954MOL0     C28701  13.362   9.736  10.034 -0.2464  0.7623 -0.9448
  954MOL0     O28702  13.283  10.116  10.012  0.2417 -0.6098 -0.4155
  954MOL0     C28703  13.032  10.203   9.938  0.1048  0.3969  0.2596
  954MOL0     C28704  12.904  10.225   9.881 -0.5242 -0.2104  0.0854
  954MOL0     N28705  12.277  10.083   9.461 -0.7441  0.3574 -0.1119
  954MOL0     N28706  12.156  10.044   9.466 -0.0955  0.0643  0.2288
  954MOL0     C28707  10.909  10.103  10.115  0.4294  0.8087 -0.2227
  954MOL0     C28708  10.788  10.163  10.133  0.3063 -0.0743  0.2008
  954MOL0     C28709  10.431  10.440  10.204 -0.0332 -0.2764 -0.9364
  954MOL0     C28710  10.404  10.516  10.095  0.1736 -0.6109  0.0799
  954MOL0     C28711  10.294  10.601  10.086  0.7771  1.0976 -0.6209
  954MOL0     C28712  10.201  10.600  10.190 -0.2184  0.4822 -0.3498
  954MOL0     O28713  10.082  10.665  10.192 -0.2064 -1.3633 -0.2013
  954MOL0     C28714   9.998  10.645  10.084  0.2890 -0.7281 -0.5440
  954MOL0     C28715   9.864  10.715  10.108  0.5211 -0.2347 -0.1867
  954MOL0     C28716   9.794  10.713   9.966 -0.8958 -0.4782  0.5629
  954MOL0     C28717   9.646  10.717   9.980 -0.1441  0.3670 -0.0141
  954MOL0     C28718   9.600  10.595  10.049  0.1224 -0.2767  0.8556
  954MOL0     C28719   9.553  10.503  10.106 -0.5377  0.5287  0.3699
  954MOL0     C28720  10.219  10.520  10.303 -0.2521 -0.1057 -0.5141
  954MOL0     C28721  10.341  10.444  10.316  0.6544  0.3457  0.5699
  954MOL0     C28722  10.350  10.358  10.444  0.0690 -0.5101 -0.2250
  954MOL0     H28723  10.867  10.482  10.067  3.3367 -0.5386 -0.0893
  954MOL0     H28724  11.091  10.368  10.008 -0.2682  0.1966 -0.3087
  954MOL0     H28725  11.241  10.230   9.909  0.5419 -0.8248 -1.1162
  954MOL0     H28726  11.306  10.204  10.073 -0.3362  0.4528  0.3894
  954MOL0     H28727  11.290   9.982   9.862 -0.2286  0.1264  0.1974
  954MOL0     H28728  11.369   9.977  10.021 -0.7807  0.8949  1.3708
  954MOL0     H28729  11.544  10.113   9.975  2.3247 -1.9959 -1.2925
  954MOL0     H28730  11.463  10.170   9.823 -0.9399  0.2021 -1.0700
  954MOL0     H28731  11.576   9.897   9.869 -0.6659  0.6208 -0.0786
  954MOL0     H28732  11.519   9.941   9.711  1.3232 -0.6207 -1.7776
  954MOL0     H28733  11.694  10.138   9.716 -0.4548 -0.2809  0.4017
  954MOL0     H28734  11.758  10.079   9.871 -0.0370  2.7605 -0.8905
  954MOL0     H28735  11.803   9.864   9.777  0.7497  2.7226  3.7729
  954MOL0     H28736  11.752   9.923   9.617 -0.2053  0.6160  0.0358
  954MOL0     H28737  12.002   9.932   9.634 -0.3287 -1.6611  1.1693
  954MOL0     H28738  11.979  10.058   9.762  0.0420  0.6640 -0.5478
  954MOL0     H28739  11.883  10.059   9.466  0.1138 -0.9809  0.1259
  954MOL0     H28740  11.883  10.202   9.572  4.3025  1.7015 -1.6761
  954MOL0     H28741  12.111  10.315   9.624  0.1210  0.9802 -2.4217
  954MOL0     H28742  12.426  10.334   9.459 -0.5805 -4.2995 -1.6831
  954MOL0     H28743  12.370  10.370   9.617 -1.1426  0.2879  0.0209
  954MOL0     H28744  12.536  10.121   9.544 -2.1532 -1.9423  0.1522
  954MOL0     H28745  12.595  10.256   9.638 -0.7224  1.6838  1.6274
  954MOL0     H28746  12.376  10.067   9.744  0.2409 -0.0379 -1.4123
  954MOL0     H28747  12.440  10.228   9.814  1.6482  1.8871 -1.7179
  954MOL0     H28748  12.608   9.989   9.768  1.3373 -0.2580  0.0020
  954MOL0     H28749  12.550  10.028   9.926  1.8017 -0.6358  0.5324
  954MOL0     H28750  12.744   9.953  10.008  1.4327 -0.8440 -0.3601
  954MOL0     H28751  12.960   9.913  10.097  3.3649 -1.0095 -3.2223
  954MOL0     H28752  13.412  10.008  10.218  0.0425 -0.3026  0.4266
  954MOL0     H28753  13.641   9.894  10.259 -0.9003 -0.6687  1.2165
  954MOL0     H28754  13.715   9.515  10.027 -0.1253 -0.5640 -0.4018
  954MOL0     H28755  13.773   9.670   9.947  1.4846 -0.9913 -0.8134
  954MOL0     H28756  13.948   9.661  10.142  0.2201 -1.9318  2.1524
  954MOL0     H28757  13.895   9.489  10.148  0.3433  0.6380  0.6957
  954MOL0     H28758  14.056   9.621   9.927 -2.3025  0.8286  1.5726
  954MOL0     H28759  14.086   9.467  10.011  0.7038 -1.5266 -2.9329
  954MOL0     H28760  13.905   9.521   9.784  0.7611  3.2335  2.9383
  954MOL0     H28761  13.871   9.381   9.891 -0.8733 -2.5106 -3.9767
  954MOL0     H28762  13.997   9.293   9.713 -0.6352  0.6105  0.2483
  954MOL0     H28763  14.127   9.310   9.838  1.0298  1.5393  0.7774
  954MOL0     H28764  14.072   9.501   9.601  0.2447 -1.2751 -1.1366
  954MOL0     H28765  14.178   9.530   9.736  0.4061 -1.0919  0.9696
  954MOL0     H28766  14.212   9.281   9.569  0.0619 -2.2541  2.9938
  954MOL0     H28767  14.321   9.329   9.698  2.7834 -1.5258 -3.1470
  954MOL0     H28768  14.289   9.513   9.467  0.6137 -0.4422 -1.1669
  954MOL0     H28769  14.414   9.508   9.590 -0.3778 -0.2350  0.6283
  954MOL0     H28770  13.489   9.572  10.002 -1.5743 -1.4170  2.4350
  954MOL0     H28771  13.285   9.687   9.974  2.1676 -0.7221 -3.0610
  954MOL0     H28772  13.114  10.269   9.913 -0.9956  2.1404  1.0891
  954MOL0     H28773  12.887  10.306   9.810  0.0552 -0.1505  0.0136
  954MOL0     H28774  10.935   9.998  10.127  3.3710  1.3024 -1.3313
  954MOL0     H28775  10.700  10.107  10.162 -0.3083  1.0674  0.5973
  954MOL0     H28776  10.471  10.512  10.009  0.5189  2.4496  0.1089
  954MOL0     H28777  10.278  10.658   9.995 -1.8367  0.9598 -0.3452
  954MOL0     H28778   9.981  10.538  10.071  1.6161 -1.0140 -0.0875
  954MOL0     H28779  10.033  10.680   9.986  0.3180 -1.6625 -0.8757
  954MOL0     H28780   9.876  10.819  10.141  0.6505 -1.0569  2.5937
  954MOL0     H28781   9.805  10.673  10.191  0.4002  0.5913  0.1526
  954MOL0     H28782   9.828  10.623   9.913 -0.1883 -0.6885  1.3511
  954MOL0     H28783   9.832  10.795   9.904 -0.7047 -1.5891 -0.8583
  954MOL0     H28784   9.616  10.811  10.029 -2.3405  0.9951 -2.3730
  954MOL0     H28785   9.601  10.724   9.881 -0.5271  1.5055  0.2167
  954MOL0     H28786   9.517  10.420  10.163 -1.1470 -0.4439 -1.3462
  954MOL0     H28787  10.148  10.514  10.385 -0.7315  1.4857 -0.8007
  954MOL0     H28788  10.276  10.381  10.521  1.2128 -1.1236  1.1063
  954MOL0     H28789  10.338  10.251  10.425  0.7032 -0.3498 -1.6077
  954MOL0     H28790  10.448  10.374  10.490  0.2280 -1.9098 -0.0271
  955MOL0     O28791   7.896   0.103   2.396  0.1962  0.6203 -0.2636
  955MOL0     C28792   7.832   0.142   2.494 -0.1852  0.1584 -0.6610
  955MOL0     O28793   7.880   0.234   2.584 -0.5999  0.2258 -0.2810
  955MOL0     C28794   8.016   0.269   2.602  0.9555  0.1524 -0.6158
  955MOL0     C28795   8.125   0.190   2.548 -0.8206 -0.6681 -0.7704
  955MOL0     C28796   8.258   0.223   2.585 -0.2291  0.0304  0.0494
  955MOL0     C28797   8.290   0.345   2.654  0.4764 -0.2785 -0.6920
  955MOL0     O28798   8.416   0.391   2.676 -0.7255 -0.3782 -0.0069
  955MOL0     C28799   8.537   0.315   2.639  0.9546 -0.0049 -0.6192
  955MOL0     C28800   8.649   0.410   2.668  0.3919  0.1934  0.5286
  955MOL0     C28801   8.780   0.338   2.666  0.4994  0.7752  0.6770
  955MOL0     C28802   8.903   0.431   2.679 -0.1808 -0.4755 -0.8808
  955MOL0     C28803   9.040   0.365   2.698 -0.1120 -0.0731 -0.2965
  955MOL0     C28804   9.064   0.274   2.574  0.2268  0.6550  0.0759
  955MOL0     C28805   9.205   0.213   2.563 -0.0671 -0.7798  0.2290
  955MOL0     C28806   9.251   0.138   2.683  0.1828  0.2013 -0.1392
  955MOL0     N28807   9.349   0.031   2.641 -0.1903  0.4702  0.1981
  955MOL0     C28808   9.342  -0.106   2.661 -0.1609  0.3481  0.6396
  955MOL0     C28809   9.460  -0.156   2.628  0.0435 -0.1864 -0.0128
  955MOL0     C28810   9.499  -0.303   2.635  0.3539 -0.9859 -0.5431
  955MOL0     C28811   9.458  -0.389   2.515  0.3107  0.0644 -0.4590
  955MOL0     C28812   9.479  -0.333   2.372  0.1710 -0.3807 -0.8216
  955MOL0     C28813   9.627  -0.286   2.349  0.0124  0.3691  0.3405
  955MOL0     O28814   9.636  -0.230   2.221  0.0266  0.6683 -0.2814
  955MOL0     C28815   9.760  -0.204   2.168 -1.1262  0.4867 -0.4303
  955MOL0     C28816   9.883  -0.237   2.232 -0.1197 -0.0675 -0.7891
  955MOL0     C28817   9.993  -0.171   2.184  0.9028  0.7489 -0.1475
  955MOL0     C28818   9.989  -0.095   2.063  0.3044 -0.5671 -0.2202
  955MOL0     C28819  10.104  -0.041   2.000 -0.0343 -0.0883 -0.4469
  955MOL0     O28820  10.225  -0.094   2.037  0.9365  0.1408  0.1343
  955MOL0     C28821  10.339  -0.020   2.016 -0.3518 -0.6208  0.6173
  955MOL0     C28822  10.427  -0.080   1.928 -0.5745 -0.2590  0.1751
  955MOL0     C28823  10.545  -0.015   1.890 -0.4752  0.0726 -0.1510
  955MOL0     C28824  10.565   0.120   1.926 -0.2096  0.3213 -0.8455
  955MOL0     O28825  10.666   0.199   1.877 -0.9403 -0.0297  0.0688
  955MOL0     C28826  10.720   0.181   1.746  0.0357  0.7571 -0.4359
  955MOL0     C28827  10.821   0.280   1.723 -0.0081 -0.0974  0.9024
  955MOL0     C28828  10.856   0.291   1.571  0.6393 -0.4339  0.2233
  955MOL0     C28829  10.996   0.357   1.535 -0.2113 -0.0475  0.2169
  955MOL0     C28830  11.006   0.495   1.592 -0.3262 -0.5135  0.4999
  955MOL0     C28831  11.118   0.576   1.538 -0.0881 -0.4195  0.3537
  955MOL0     C28832  11.114   0.713   1.599  0.3314  0.4985 -0.7174
  955MOL0     C28833  11.226   0.806   1.562 -0.1586 -0.2357  0.0504
  955MOL0    Cl28834  11.388   0.759   1.616 -0.0933  0.4708  0.6269
  955MOL0     C28835  10.479   0.177   2.017  0.1923 -0.2669 -0.1509
  955MOL0     C28836  10.368   0.106   2.065 -0.3466  0.5600 -0.7117
  955MOL0     O28837  10.101   0.050   1.924  0.3183 -0.4444  0.2733
  955MOL0     C28838   9.872  -0.084   1.996 -0.0631  0.3359  0.2842
  955MOL0     C28839   9.755  -0.152   2.039 -0.0040 -1.1362 -0.5813
  955MOL0     N28840   9.543  -0.054   2.598 -0.0358 -0.4012 -0.3354
  955MOL0     N28841   9.478   0.066   2.600 -0.0920  0.5110 -1.3643
  955MOL0     C28842   8.182   0.421   2.694  0.3876  0.6013  0.3086
  955MOL0     C28843   8.047   0.385   2.678 -0.6316  0.4292 -0.3745
  955MOL0     C28844   7.688   0.095   2.505 -0.2118 -0.2706 -0.5579
  955MOL0     C28845   7.643  -0.013   2.432 -0.0686 -0.2653 -0.1277
  955MOL0     C28846   7.521  -0.066   2.433  0.7328 -0.5822 -0.2319
  955MOL0     C28847   7.427  -0.013   2.523  1.0812 -0.0591 -1.0039
  955MOL0     O28848   7.303  -0.078   2.530 -0.5750 -0.2695  0.2963
  955MOL0     C28849   7.185  -0.000   2.504 -0.8128  0.0849 -0.8594
  955MOL0     C28850   7.058  -0.071   2.534 -0.1047 -0.5774 -0.2082
  955MOL0     C28851   6.950   0.014   2.460 -0.4654  0.2031 -1.2496
  955MOL0     C28852   6.806  -0.033   2.513 -0.5989 -0.5624  0.2086
  955MOL0     C28853   6.706  -0.001   2.413  0.7056  0.0306  0.0313
  955MOL0     C28854   6.629   0.016   2.315 -0.0023  1.2236 -0.2822
  955MOL0     C28855   7.456   0.105   2.598  0.4154  0.0826  0.1449
  955MOL0     C28856   7.590   0.152   2.599 -1.2626  0.7466 -0.3953
  955MOL0     C28857   7.621   0.249   2.701  0.1057  0.5856 -0.6845
  955MOL0     H28858   8.102   0.102   2.489 -0.0951 -0.5078 -1.2990
  955MOL0     H28859   8.337   0.162   2.540  0.2074  0.3793  0.3335
  955MOL0     H28860   8.554   0.222   2.693 -0.7833 -0.8745 -1.4660
  955MOL0     H28861   8.528   0.289   2.533 -1.7836  0.1363 -0.4994
  955MOL0     H28862   8.639   0.449   2.770  1.5599  0.0291  0.7164
  955MOL0     H28863   8.653   0.496   2.600  2.2029 -1.0677 -1.0743
  955MOL0     H28864   8.787   0.285   2.571  3.1055  2.1335  0.0216
  955MOL0     H28865   8.780   0.266   2.747  0.3572 -1.6807 -1.3842
  955MOL0     H28866   8.907   0.493   2.589  1.9122  3.2321  1.4601
  955MOL0     H28867   8.889   0.499   2.764 -4.4089 -1.7540 -0.3367
  955MOL0     H28868   9.107   0.450   2.711 -0.3574  0.3181 -1.4528
  955MOL0     H28869   9.047   0.303   2.787 -1.2709  1.0648  0.6263
  955MOL0     H28870   8.994   0.190   2.569  2.7181 -1.5414 -0.2756
  955MOL0     H28871   9.058   0.340   2.486 -1.4764  1.3885  0.7104
  955MOL0     H28872   9.278   0.287   2.531  1.3592 -0.8480  3.0070
  955MOL0     H28873   9.194   0.141   2.481 -1.7703  0.1180 -0.3869
  955MOL0     H28874   9.300   0.208   2.752  2.6647  0.6859 -2.2555
  955MOL0     H28875   9.169   0.090   2.736  1.0423  0.7194  1.7625
  955MOL0     H28876   9.259  -0.165   2.700 -1.1541  0.1040 -1.6479
  955MOL0     H28877   9.608  -0.305   2.648  0.1854 -2.6994  0.8403
  955MOL0     H28878   9.454  -0.353   2.721 -2.3030 -1.4968 -2.1012
  955MOL0     H28879   9.512  -0.484   2.525  0.3945  0.1502 -0.0520
  955MOL0     H28880   9.351  -0.404   2.530  0.1513  0.1845 -1.4476
  955MOL0     H28881   9.409  -0.251   2.355 -1.6486 -1.9332 -1.2233
  955MOL0     H28882   9.450  -0.408   2.298  0.4477 -0.3963 -0.9139
  955MOL0     H28883   9.692  -0.374   2.356 -2.2416 -1.3164  1.2857
  955MOL0     H28884   9.660  -0.213   2.423  0.0114  1.5033 -0.7490
  955MOL0     H28885   9.890  -0.285   2.329  1.7275 -0.7650 -1.2237
  955MOL0     H28886  10.085  -0.157   2.238  0.7160  2.7799 -0.2800
  955MOL0     H28887  10.401  -0.170   1.872 -0.8512  0.7488 -1.3664
  955MOL0     H28888  10.604  -0.070   1.817 -0.3474 -1.3300  0.9643
  955MOL0     H28889  10.762   0.081   1.734 -0.0395  0.6767 -0.0236
  955MOL0     H28890  10.641   0.196   1.672 -0.8810 -1.4779 -0.0016
  955MOL0     H28891  10.796   0.383   1.750 -0.8335  0.4702 -1.6865
  955MOL0     H28892  10.901   0.244   1.788 -0.3169 -1.3267  0.6214
  955MOL0     H28893  10.852   0.189   1.531  1.1034 -0.1451 -0.5719
  955MOL0     H28894  10.771   0.346   1.529  1.5805  0.0035 -1.1955
  955MOL0     H28895  11.014   0.352   1.428  1.9976 -0.9455  0.5700
  955MOL0     H28896  11.071   0.297   1.588 -1.2020 -1.5460 -0.0170
  955MOL0     H28897  11.008   0.494   1.702 -1.5185  0.5751  0.5563
  955MOL0     H28898  10.917   0.553   1.567  0.7010  0.9950  0.2072
  955MOL0     H28899  11.215   0.531   1.562  0.7832  1.2534  0.1084
  955MOL0     H28900  11.117   0.586   1.429  0.6196  1.8718  0.5140
  955MOL0     H28901  11.120   0.698   1.707 -1.3232 -2.6452 -0.9338
  955MOL0     H28902  11.019   0.761   1.574  0.6395  1.4909 -0.0434
  955MOL0     H28903  11.231   0.814   1.453 -1.3111 -1.0231 -0.0730
  955MOL0     H28904  11.206   0.908   1.598 -0.5690  0.1591 -1.2374
  955MOL0     H28905  10.493   0.275   2.062  0.2541 -1.2253  2.0369
  955MOL0     H28906  10.295   0.146   2.135 -2.9339 -1.0863 -2.2951
  955MOL0     H28907   9.874  -0.020   1.909  1.1462  1.5126  1.1487
  955MOL0     H28908   9.662  -0.135   1.987  0.3733  0.8355 -0.6636
  955MOL0     H28909   8.200   0.509   2.753 -2.2321  1.2662  0.2595
  955MOL0     H28910   7.970   0.452   2.717 -0.6166 -0.0412  0.4638
  955MOL0     H28911   7.706  -0.058   2.356 -1.9628 -1.1313 -1.2843
  955MOL0     H28912   7.480  -0.150   2.377 -0.1931  0.2224 -0.7926
  955MOL0     H28913   7.188   0.026   2.397  1.9534  0.9028 -0.6622
  955MOL0     H28914   7.192   0.094   2.559 -0.6260 -0.6107  0.3364
  955MOL0     H28915   7.041  -0.069   2.642 -2.0083  2.6430 -0.4469
  955MOL0     H28916   7.049  -0.175   2.503 -1.3665  0.1831 -2.6988
  955MOL0     H28917   6.950  -0.017   2.356 -1.0659 -0.6494 -1.0023
  955MOL0     H28918   6.952   0.124   2.457  1.4655  0.2371 -0.4073
  955MOL0     H28919   6.795  -0.142   2.518  1.3003 -0.7465  3.5054
  955MOL0     H28920   6.783   0.010   2.611  2.2339 -1.0531  1.1950
  955MOL0     H28921   6.558   0.022   2.235  0.6699 -1.3011 -1.1499
  955MOL0     H28922   7.390   0.117   2.684  0.9821 -4.2976  1.4519
  955MOL0     H28923   7.529   0.285   2.748  0.6492  0.5852  0.3889
  955MOL0     H28924   7.670   0.204   2.787 -2.5802 -2.4170 -0.5477
  955MOL0     H28925   7.674   0.338   2.666 -0.2271  1.9908  2.1453
  956MOL0     O28926   5.315  10.488   3.974  0.0019 -0.2220 -0.1915
  956MOL0     C28927   5.283  10.606   3.957  0.1977  0.2516  1.0671
  956MOL0     O28928   5.372  10.705   3.925 -0.0199  0.2878 -0.6643
  956MOL0     C28929   5.502  10.687   3.947  0.7664 -0.0745 -0.4422
  956MOL0     C28930   5.594  10.710   3.846  0.6458  0.0157  0.2511
  956MOL0     C28931   5.732  10.695   3.862 -0.4832 -0.4716 -0.4525
  956MOL0     C28932   5.784  10.678   3.991  0.1300 -0.0888  0.2335
  956MOL0     O28933   5.919  10.661   4.015  0.1413 -0.0344 -0.2420
  956MOL0     C28934   6.005  10.640   3.905  0.6003  0.0554  0.0979
  956MOL0     C28935   6.148  10.630   3.944 -0.0591 -0.0846  0.2190
  956MOL0     C28936   6.197  10.756   4.010 -0.1014  0.0934  0.0272
  956MOL0     C28937   6.350  10.766   4.006  0.3420  0.1464  0.8351
  956MOL0     C28938   6.413  10.887   4.073 -0.3842  0.9237 -0.0318
  956MOL0     C28939   6.561  10.918   4.036  1.1927  0.2167  0.9512
  956MOL0     C28940   6.609  11.060   4.065 -0.0922  0.4918 -0.2353
  956MOL0     C28941   6.597  11.106   4.211  0.2013 -0.2816  0.0456
  956MOL0     N28942   6.700  11.046   4.297 -0.2190  0.0839 -0.2870
  956MOL0     C28943   6.822  11.105   4.317  0.9321 -0.6977  0.1035
  956MOL0     C28944   6.883  11.030   4.416  0.0981  0.1324  0.1080
  956MOL0     C28945   7.030  11.051   4.459  0.4948 -0.8191  0.2612
  956MOL0     C28946   7.119  10.987   4.357  0.0003 -0.3608  0.2129
  956MOL0     C28947   7.267  10.986   4.394  0.3879  0.2809 -0.3634
  956MOL0     C28948   7.351  10.922   4.285  0.1263 -0.9126  0.7917
  956MOL0     O28949   7.495  10.950   4.315  0.1185  0.8101  0.5142
  956MOL0     C28950   7.575  10.965   4.201 -0.3404  0.3658  0.4538
  956MOL0     C28951   7.671  11.062   4.210  0.1752 -0.8858  0.0665
  956MOL0     C28952   7.760  11.091   4.110 -0.1287 -0.0435  0.1336
  956MOL0     C28953   7.738  11.032   3.983 -0.0162  0.0937 -0.3481
  956MOL0     C28954   7.829  11.045   3.869  0.1581  1.4845 -0.4137
  956MOL0     O28955   7.945  11.115   3.895  0.4382 -0.0331 -0.2113
  956MOL0     C28956   8.061  11.109   3.824  0.4631 -0.4290  0.0784
  956MOL0     C28957   8.144  11.223   3.838  0.0575 -0.9548 -0.0366
  956MOL0     C28958   8.275  11.221   3.782  0.0388 -0.1272  0.4797
  956MOL0     C28959   8.316  11.116   3.702  0.5326 -0.3374 -0.1862
  956MOL0     O28960   8.439  11.119   3.655  0.1255 -0.3144  0.3663
  956MOL0     C28961   8.489  11.024   3.557  0.0386 -0.1076 -0.8967
  956MOL0     C28962   8.618  11.084   3.493 -0.4581 -0.0811 -1.1061
  956MOL0     C28963   8.702  10.977   3.428 -0.0805  0.0803  0.6099
  956MOL0     C28964   8.794  11.037   3.329 -0.3226  0.3168  0.6199
  956MOL0     C28965   8.908  10.945   3.275  0.1226 -0.8899  0.6838
  956MOL0     C28966   8.950  11.015   3.143  0.5372 -0.1538  0.4872
  956MOL0     C28967   9.076  10.951   3.091  0.0052  1.1328 -0.6590
  956MOL0     C28968   9.122  11.002   2.953  0.2834 -0.8659 -0.2452
  956MOL0    Cl28969   9.292  10.951   2.935  0.3645  0.0884  0.5972
  956MOL0     C28970   8.224  11.006   3.680  0.9231 -0.4728 -0.5311
  956MOL0     C28971   8.097  10.999   3.745 -0.5173  0.1548 -0.5521
  956MOL0     O28972   7.809  10.977   3.765 -0.3803  0.6418  0.3138
  956MOL0     C28973   7.637  10.931   3.976 -0.2450  0.0674  1.0085
  956MOL0     C28974   7.558  10.896   4.083 -0.3635  0.9231  0.1738
  956MOL0     N28975   6.794  10.930   4.450 -0.4350 -0.4023  0.1230
  956MOL0     N28976   6.690  10.943   4.389 -0.2307  0.1914  0.3974
  956MOL0     C28977   5.702  10.659   4.102  0.5698 -0.3576  0.2705
  956MOL0     C28978   5.561  10.670   4.076 -0.4359  0.1305  0.3480
  956MOL0     C28979   5.135  10.626   3.969  0.3909 -1.1627  0.0497
  956MOL0     C28980   5.058  10.523   4.013  0.0959  0.3006  0.3186
  956MOL0     C28981   4.926  10.532   4.042 -0.3698 -0.6274 -0.2840
  956MOL0     C28982   4.862  10.659   4.042 -0.0449  0.6238 -0.3288
  956MOL0     O28983   4.731  10.681   4.073  0.0830  0.4753 -0.4903
  956MOL0     C28984   4.641  10.574   4.084  0.3547  0.9331 -0.1226
  956MOL0     C28985   4.496  10.627   4.095 -0.3977  0.0778 -0.9395
  956MOL0     C28986   4.396  10.517   4.109  0.7069  0.1677  0.0435
  956MOL0     C28987   4.254  10.572   4.090 -0.5729  0.1242 -0.1249
  956MOL0     C28988   4.226  10.672   4.198 -0.1682 -0.1034 -0.4763
  956MOL0     C28989   4.231  10.750   4.285 -0.1560 -0.1780 -0.3440
  956MOL0     C28990   4.940  10.768   4.010 -0.0791  0.2127 -0.4575
  956MOL0     C28991   5.075  10.753   3.983 -0.4975 -0.4492 -1.3899
  956MOL0     C28992   5.141  10.894   3.971  0.6162  0.9127 -0.3078
  956MOL0     H28993   5.559  10.742   3.748 -0.0176 -2.6746 -0.4531
  956MOL0     H28994   5.796  10.719   3.778 -1.0746 -2.3457 -1.5064
  956MOL0     H28995   5.976  10.541   3.868  1.7619  0.3230 -1.6441
  956MOL0     H28996   5.988  10.717   3.828 -0.7244  1.5920  1.8291
  956MOL0     H28997   6.194  10.626   3.844  0.6058  1.7583  0.4203
  956MOL0     H28998   6.161  10.537   4.000  1.4556 -0.2477 -0.3381
  956MOL0     H28999   6.183  10.744   4.118  2.7458  2.6427  0.8188
  956MOL0     H29000   6.139  10.847   3.986  1.1367  1.6332  2.4751
  956MOL0     H29001   6.397  10.674   4.043  2.7292 -0.0038 -2.1159
  956MOL0     H29002   6.381  10.765   3.901 -1.1666  1.4945  0.3324
  956MOL0     H29003   6.349  10.976   4.061  0.8578  2.2270  2.3558
  956MOL0     H29004   6.396  10.865   4.179 -0.4234 -0.1891 -0.2602
  956MOL0     H29005   6.637  10.857   4.086  3.5716 -0.1131 -2.7382
  956MOL0     H29006   6.578  10.901   3.930 -0.4351  1.2137  0.4907
  956MOL0     H29007   6.552  11.119   3.992  2.5137  1.3922 -1.6472
  956MOL0     H29008   6.716  11.067   4.043 -0.3485 -0.2259 -1.8478
  956MOL0     H29009   6.619  11.213   4.221  2.0975 -0.8081  2.6640
  956MOL0     H29010   6.498  11.079   4.247  1.8713  0.3233  6.3464
  956MOL0     H29011   6.860  11.195   4.269 -1.5426 -0.0412 -0.7706
  956MOL0     H29012   7.052  11.158   4.470 -0.7143  0.0444 -3.7293
  956MOL0     H29013   7.046  11.000   4.554  1.4609 -1.0274  0.0004
  956MOL0     H29014   7.087  10.884   4.338  0.9381 -0.3439 -1.7421
  956MOL0     H29015   7.113  11.029   4.257 -1.4945  3.1276  1.6211
  956MOL0     H29016   7.287  10.932   4.487  0.6641 -0.0292 -0.6005
  956MOL0     H29017   7.305  11.088   4.398  0.6025  0.3240 -2.4198
  956MOL0     H29018   7.322  10.959   4.186 -5.9708 -3.8769  1.0266
  956MOL0     H29019   7.324  10.817   4.272  0.3562 -0.8790 -0.0358
  956MOL0     H29020   7.692  11.111   4.304 -0.5779 -1.6597  0.6565
  956MOL0     H29021   7.844  11.157   4.130  0.8951 -1.9802  2.5946
  956MOL0     H29022   8.125  11.305   3.907  0.2126  1.0940 -2.2984
  956MOL0     H29023   8.341  11.305   3.801 -0.3878  1.5738 -4.1262
  956MOL0     H29024   8.511  10.929   3.607 -0.4434  1.8574  3.6224
  956MOL0     H29025   8.415  11.004   3.479 -0.3087 -0.6873 -0.4356
  956MOL0     H29026   8.586  11.163   3.423 -0.2229 -0.3353 -1.5010
  956MOL0     H29027   8.673  11.122   3.579  1.2613  2.1248 -3.0354
  956MOL0     H29028   8.776  10.941   3.500  0.7217  2.1324  0.8642
  956MOL0     H29029   8.644  10.893   3.388  1.3737  0.1630 -1.9331
  956MOL0     H29030   8.844  11.121   3.379  1.4831 -0.8378  0.8839
  956MOL0     H29031   8.738  11.083   3.248  0.4385  1.4486  0.7018
  956MOL0     H29032   8.871  10.847   3.245 -2.5112  0.4479 -0.7801
  956MOL0     H29033   8.988  10.938   3.349 -0.7551 -1.5280  1.6079
  956MOL0     H29034   8.877  11.003   3.063 -0.7795 -2.1842  1.8840
  956MOL0     H29035   8.961  11.121   3.165  0.4378  0.3081 -1.5256
  956MOL0     H29036   9.068  10.842   3.091  2.6246  0.8575  0.5045
  956MOL0     H29037   9.163  10.978   3.152  0.5244 -5.0381  2.0324
  956MOL0     H29038   9.070  10.946   2.874 -0.3462 -1.2226  0.4205
  956MOL0     H29039   9.114  11.111   2.956 -0.4651 -0.9415  1.7274
  956MOL0     H29040   8.256  10.920   3.621  3.3927  0.0145 -0.0178
  956MOL0     H29041   8.041  10.907   3.729 -0.2067  0.0583 -1.1090
  956MOL0     H29042   7.642  10.870   3.886  0.1642 -1.4922  2.0580
  956MOL0     H29043   7.501  10.804   4.080 -0.7123  1.1581 -0.8217
  956MOL0     H29044   5.743  10.614   4.192 -0.3973 -0.2988  0.7546
  956MOL0     H29045   5.497  10.652   4.162 -0.8561  1.7010  0.3917
  956MOL0     H29046   5.093  10.420   4.009  1.3439  0.7064  0.1115
  956MOL0     H29047   4.864  10.444   4.055 -1.7689  0.7236  3.5570
  956MOL0     H29048   4.662  10.517   4.175 -2.2369  2.7707  1.7840
  956MOL0     H29049   4.630  10.515   3.993 -0.9949 -1.1896  1.3206
  956MOL0     H29050   4.470  10.688   4.008  0.0019 -0.1650 -1.2336
  956MOL0     H29051   4.489  10.683   4.189  1.0754 -0.0146 -0.7552
  956MOL0     H29052   4.400  10.459   4.202  1.0791 -0.3579 -0.2904
  956MOL0     H29053   4.421  10.446   4.029  0.2814 -0.2125  0.2401
  956MOL0     H29054   4.260  10.629   3.997  0.2730  1.2768  0.6232
  956MOL0     H29055   4.185  10.487   4.079  2.0012 -2.1601  0.3442
  956MOL0     H29056   4.231  10.825   4.362  0.1311 -3.0056  2.6265
  956MOL0     H29057   4.908  10.871   4.011  0.3264  0.3540  1.3641
  956MOL0     H29058   5.234  10.899   4.029 -0.0059  2.2037  0.6428
  956MOL0     H29059   5.170  10.910   3.867 -2.7211  1.5101 -1.2643
  956MOL0     H29060   5.072  10.969   4.011 -1.3533 -1.1188  0.3912
  957MOL0     O29061   2.277   2.786   7.984  0.5858  0.3260 -0.3827
  957MOL0     C29062   2.218   2.806   7.880  0.5987  0.2190 -0.4826
  957MOL0     O29063   2.276   2.845   7.760  0.2795  0.1244  0.1894
  957MOL0     C29064   2.410   2.860   7.759  0.1210  0.3873  0.7328
  957MOL0     C29065   2.476   2.979   7.714  0.4514  0.0275 -0.4677
  957MOL0     C29066   2.611   2.981   7.716  0.3319  0.0508 -0.0031
  957MOL0     C29067   2.688   2.868   7.760 -0.2606 -0.2751 -0.0465
  957MOL0     O29068   2.823   2.858   7.758  0.0541 -0.1218 -0.0250
  957MOL0     C29069   2.895   2.923   7.652 -0.1701  0.0100  0.2530
  957MOL0     C29070   3.043   2.881   7.655 -0.7855  0.2357 -0.1329
  957MOL0     C29071   3.099   2.917   7.516  0.5725  0.3568 -0.3560
  957MOL0     C29072   3.262   2.909   7.505 -0.1715  0.6552  0.2829
  957MOL0     C29073   3.301   2.918   7.359  0.1860 -0.3077  0.6882
  957MOL0     C29074   3.438   2.852   7.332 -0.8231  0.1530 -0.0131
  957MOL0     C29075   3.490   2.888   7.198  0.3980  0.3494 -0.3020
  957MOL0     C29076   3.639   2.850   7.183 -0.7038 -0.3801  0.8907
  957MOL0     N29077   3.709   2.928   7.079  0.0822  0.0980  0.5458
  957MOL0     C29078   3.706   2.894   6.942 -0.0659 -0.3828 -0.7020
  957MOL0     C29079   3.810   2.965   6.883 -0.2950 -0.0907  0.1420
  957MOL0     C29080   3.829   2.967   6.732 -0.6319 -0.5258 -0.3071
  957MOL0     C29081   3.802   2.832   6.662  0.2579 -0.2069  0.8164
  957MOL0     C29082   3.878   2.712   6.712 -0.4797 -0.1272  0.1462
  957MOL0     C29083   4.027   2.725   6.696 -0.3460  1.0339  0.3289
  957MOL0     O29084   4.090   2.606   6.750  0.0619 -0.5372  0.1686
  957MOL0     C29085   4.224   2.613   6.797 -0.1075  0.2518 -0.2140
  957MOL0     C29086   4.311   2.730   6.776  0.3986  0.3884  0.1523
  957MOL0     C29087   4.445   2.727   6.819  0.9291 -0.7765 -0.0199
  957MOL0     C29088   4.502   2.615   6.872  0.1207 -0.5374  0.7350
  957MOL0     C29089   4.635   2.608   6.920 -1.3889  0.2166  0.0337
  957MOL0     O29090   4.694   2.738   6.911  0.1029 -0.2459 -0.8544
  957MOL0     C29091   4.793   2.771   6.995  0.7949 -0.0267  0.1883
  957MOL0     C29092   4.893   2.857   6.952 -0.9633  0.2708 -0.6946
  957MOL0     C29093   5.005   2.900   7.034  0.0577 -0.0722 -0.2393
  957MOL0     C29094   5.033   2.837   7.146 -0.4318  0.1127  0.6027
  957MOL0     O29095   5.157   2.865   7.209  0.5275  0.5314 -0.3336
  957MOL0     C29096   5.201   2.774   7.311  0.9018  0.1076  0.0533
  957MOL0     C29097   5.335   2.816   7.371  0.5608  0.5757  0.7186
  957MOL0     C29098   5.438   2.862   7.258  0.2060 -0.3996 -0.0139
  957MOL0     C29099   5.567   2.916   7.320 -0.8395 -0.5505  0.4815
  957MOL0     C29100   5.678   2.893   7.234 -0.4869 -0.4514  0.5250
  957MOL0     C29101   5.817   2.935   7.291 -0.2875  0.2813 -0.2555
  957MOL0     C29102   5.929   2.886   7.198 -0.4819 -0.1149  0.8512
  957MOL0     C29103   6.063   2.909   7.279 -0.3577  0.1129  0.4519
  957MOL0    Cl29104   6.197   2.873   7.175 -0.5936 -0.5778  0.3227
  957MOL0     C29105   4.940   2.743   7.192  1.0987  0.1483 -0.7002
  957MOL0     C29106   4.822   2.708   7.119  0.0796 -0.4066 -1.0933
  957MOL0     O29107   4.696   2.505   6.952  0.0635  0.2804 -0.2699
  957MOL0     C29108   4.419   2.502   6.904 -0.0814  0.0090  0.0295
  957MOL0     C29109   4.280   2.502   6.859 -0.6066  0.4379  0.1804
  957MOL0     N29110   3.872   3.046   6.978 -0.4954  0.8356 -0.8264
  957MOL0     N29111   3.806   3.023   7.095  0.2538  0.1753  0.7839
  957MOL0     C29112   2.623   2.747   7.791  0.3856 -0.1339  0.2762
  957MOL0     C29113   2.483   2.749   7.802  0.1619 -0.0859 -0.1836
  957MOL0     C29114   2.070   2.787   7.886 -0.1302  0.5178 -0.2678
  957MOL0     C29115   2.014   2.806   8.011  0.4925  0.4558  0.8910
  957MOL0     C29116   1.878   2.797   8.036  0.6649  0.3574 -1.1334
  957MOL0     C29117   1.791   2.770   7.934 -0.5052  0.2343 -0.0750
  957MOL0     O29118   1.658   2.755   7.967 -0.4904 -0.2222 -0.3219
  957MOL0     C29119   1.584   2.650   7.911  0.0810  0.4096  0.3742
  957MOL0     C29120   1.514   2.689   7.781  1.0760  1.1723 -0.2054
  957MOL0     C29121   1.448   2.825   7.794  0.5306 -0.7556 -0.3798
  957MOL0     C29122   1.354   2.855   7.670 -0.4765 -1.1608 -0.1433
  957MOL0     C29123   1.364   2.995   7.636  1.1505 -0.1951 -0.1478
  957MOL0     C29124   1.373   3.116   7.615 -0.2021  0.5531  0.5604
  957MOL0     C29125   1.850   2.749   7.805  0.1805 -0.5410  0.0291
  957MOL0     C29126   1.988   2.754   7.774 -0.1392 -0.2574  0.0127
  957MOL0     C29127   2.033   2.737   7.632 -0.4425  1.2133  0.6812
  957MOL0     H29128   2.419   3.063   7.677 -0.0677 -0.1307 -0.0322
  957MOL0     H29129   2.649   3.077   7.683 -1.7640  0.4703 -1.3734
  957MOL0     H29130   2.845   2.903   7.557  1.0156  1.6053 -0.7612
  957MOL0     H29131   2.893   3.031   7.669  2.6386 -0.1745  2.4884
  957MOL0     H29132   3.051   2.772   7.667 -2.0657  0.1129 -0.2724
  957MOL0     H29133   3.082   2.929   7.745  0.5719 -0.0302 -0.5514
  957MOL0     H29134   3.090   3.025   7.499 -2.0607  0.2140 -0.1993
  957MOL0     H29135   3.043   2.862   7.440  1.0181 -2.0924  0.9970
  957MOL0     H29136   3.320   2.978   7.567  0.3359 -0.2615  0.8579
  957MOL0     H29137   3.284   2.808   7.541 -0.9273  0.2976 -0.2247
  957MOL0     H29138   3.223   2.874   7.295 -1.9432 -0.1804  3.0252
  957MOL0     H29139   3.292   3.019   7.319  0.4946 -0.6614 -0.3094
  957MOL0     H29140   3.510   2.898   7.400  1.1097  1.2403 -2.6326
  957MOL0     H29141   3.433   2.743   7.345 -1.6012  0.3696  1.8962
  957MOL0     H29142   3.492   2.995   7.177  2.6121  0.7035  1.3223
  957MOL0     H29143   3.428   2.836   7.124 -1.8451 -0.8803  2.2604
  957MOL0     H29144   3.689   2.863   7.279  2.0158 -1.6092 -0.2660
  957MOL0     H29145   3.632   2.744   7.160 -1.3132  0.2625 -2.3815
  957MOL0     H29146   3.631   2.835   6.890 -0.3375 -0.6170 -0.0528
  957MOL0     H29147   3.773   3.051   6.690  0.5529  0.9403  0.9330
  957MOL0     H29148   3.933   2.999   6.720 -0.7425  0.4373  1.0650
  957MOL0     H29149   3.696   2.810   6.681  1.0132 -1.1955  5.0483
  957MOL0     H29150   3.814   2.840   6.554  0.4029  2.5563  0.9682
  957MOL0     H29151   3.852   2.626   6.650  1.8009 -0.2474 -0.7153
  957MOL0     H29152   3.854   2.703   6.819 -0.4228  5.5941  0.9764
  957MOL0     H29153   4.057   2.821   6.741  2.0889  0.6807 -0.4089
  957MOL0     H29154   4.052   2.736   6.591 -0.2229  0.3578  0.2848
  957MOL0     H29155   4.265   2.816   6.729 -2.1789 -1.6948 -1.4062
  957MOL0     H29156   4.492   2.823   6.801 -1.9150  0.7738  0.1781
  957MOL0     H29157   4.875   2.915   6.862 -2.6711 -0.9044 -1.1688
  957MOL0     H29158   5.067   2.984   7.003  0.6338 -0.5917 -0.5069
  957MOL0     H29159   5.131   2.782   7.394  0.1713 -2.8971 -0.1497
  957MOL0     H29160   5.201   2.667   7.286 -0.4241  0.4644 -1.7587
  957MOL0     H29161   5.310   2.899   7.437 -0.8983 -0.8883  2.1102
  957MOL0     H29162   5.373   2.728   7.424  0.6443 -0.2256 -0.6132
  957MOL0     H29163   5.460   2.781   7.188  0.8345 -1.3892  1.2861
  957MOL0     H29164   5.392   2.941   7.198 -1.5956 -0.1431  1.6082
  957MOL0     H29165   5.593   2.869   7.415 -3.9830 -0.8624  1.2780
  957MOL0     H29166   5.553   3.023   7.335 -1.2670  0.0010 -2.9211
  957MOL0     H29167   5.664   2.951   7.142 -0.2251  0.1180  0.8339
  957MOL0     H29168   5.694   2.790   7.203  0.1065 -0.0435 -0.6099
  957MOL0     H29169   5.826   3.044   7.296  2.0494  0.3068 -2.5540
  957MOL0     H29170   5.836   2.892   7.389 -0.2170  0.9622  0.0333
  957MOL0     H29171   5.921   2.939   7.103  0.6804 -1.6694 -0.1637
  957MOL0     H29172   5.937   2.779   7.177  1.2622 -0.0674  1.1388
  957MOL0     H29173   6.074   3.006   7.329 -1.5063 -0.5057  1.9946
  957MOL0     H29174   6.069   2.839   7.363  4.4869  2.3675  2.3473
  957MOL0     H29175   4.957   2.686   7.283  0.3354  1.8871  0.5781
  957MOL0     H29176   4.763   2.630   7.166  1.2594 -0.6541  0.0373
  957MOL0     H29177   4.463   2.409   6.939  0.3580 -0.1041 -0.7963
  957MOL0     H29178   4.224   2.410   6.863  2.9042 -1.9539 -0.8950
  957MOL0     H29179   2.682   2.662   7.822  0.1857 -0.3273  0.1273
  957MOL0     H29180   2.431   2.658   7.830 -1.6102  0.2497 -2.1484
  957MOL0     H29181   2.072   2.822   8.101  2.7667  0.5320 -0.4827
  957MOL0     H29182   1.845   2.801   8.139  1.0648 -0.7891 -0.9418
  957MOL0     H29183   1.514   2.603   7.981 -1.2866 -0.3116 -1.4090
  957MOL0     H29184   1.652   2.566   7.892  1.1418  0.8794  1.9080
  957MOL0     H29185   1.439   2.612   7.762  2.5843 -0.3997 -0.0481
  957MOL0     H29186   1.591   2.693   7.703  1.1271  1.0963 -0.1594
  957MOL0     H29187   1.524   2.902   7.804  2.2266 -2.3509 -0.3305
  957MOL0     H29188   1.380   2.833   7.879 -0.7464  1.3652 -1.5195
  957MOL0     H29189   1.385   2.809   7.575  0.9571 -0.6228  0.0392
  957MOL0     H29190   1.250   2.827   7.687 -1.4310  1.0955 -1.7387
  957MOL0     H29191   1.385   3.223   7.610  0.5498  0.4974  0.9336
  957MOL0     H29192   1.779   2.732   7.725 -0.0354 -0.0949  0.1211
  957MOL0     H29193   2.028   2.832   7.578 -1.2205  0.0709 -1.3764
  957MOL0     H29194   2.133   2.694   7.631 -0.6131  0.8152  0.5763
  957MOL0     H29195   1.970   2.663   7.581  1.7514 -1.4463  1.5957
  958MOL0     O29196   4.813   4.741   9.980  0.1465 -0.0225  0.6869
  958MOL0     C29197   4.877   4.724   9.874 -0.5599 -0.0181 -0.0406
  958MOL0     O29198   4.821   4.696   9.752 -0.5240  0.1986 -0.0633
  958MOL0     C29199   4.681   4.676   9.747  0.0174  0.1217 -0.5726
  958MOL0     C29200   4.620   4.551   9.744  1.0359  0.2809 -0.8219
  958MOL0     C29201   4.480   4.538   9.730  0.3580 -0.0141 -0.2787
  958MOL0     C29202   4.402   4.653   9.721 -0.9254  0.0864  0.0284
  958MOL0     O29203   4.272   4.649   9.725  0.3056  0.7018 -0.2440
  958MOL0     C29204   4.198   4.522   9.741 -0.6431 -0.0911  0.3198
  958MOL0     C29205   4.048   4.563   9.749 -0.5055 -0.0500 -1.5458
  958MOL0     C29206   3.977   4.607   9.625  0.5627 -0.3349  0.0547
  958MOL0     C29207   4.026   4.743   9.582 -0.4679 -0.1332 -0.9231
  958MOL0     C29208   3.919   4.803   9.483 -0.1551  0.1766  0.3145
  958MOL0     C29209   3.970   4.927   9.411 -0.0390 -0.9312 -0.3571
  958MOL0     C29210   3.864   4.992   9.317 -0.5760 -0.6552 -0.3103
  958MOL0     C29211   3.805   4.911   9.198  0.8523  0.6516  0.2740
  958MOL0     N29212   3.911   4.880   9.101  0.0903  0.6821 -0.5256
  958MOL0     C29213   3.959   4.964   9.004 -0.2471 -0.4519  0.2599
  958MOL0     C29214   4.049   4.889   8.936 -0.1729 -0.4671  1.1886
  958MOL0     C29215   4.131   4.927   8.814 -0.9458 -0.5041 -0.6539
  958MOL0     C29216   4.255   5.000   8.854  0.0767 -1.3450 -0.3001
  958MOL0     C29217   4.362   5.020   8.745 -0.0787  0.0165 -0.3952
  958MOL0     C29218   4.474   5.119   8.782 -0.2823 -0.4836  0.5423
  958MOL0     O29219   4.550   5.064   8.897  0.1535 -0.3223 -0.0348
  958MOL0     C29220   4.686   5.082   8.920  0.2474  0.6737  0.2886
  958MOL0     C29221   4.771   5.158   8.833  1.0544  0.8095 -0.2950
  958MOL0     C29222   4.908   5.168   8.863 -0.3932  0.2581 -0.2591
  958MOL0     C29223   4.961   5.113   8.983 -0.2508  0.2257  0.3100
  958MOL0     C29224   5.105   5.105   9.013 -0.0707  0.1177 -0.2061
  958MOL0     O29225   5.193   5.151   8.918  0.3278  0.2529  0.6274
  958MOL0     C29226   5.327   5.167   8.941 -0.4813 -0.0294  0.0551
  958MOL0     C29227   5.417   5.106   8.848  0.3553  0.2601  0.7910
  958MOL0     C29228   5.560   5.124   8.855  0.2606 -0.6860 -0.5524
  958MOL0     C29229   5.608   5.207   8.960  0.1868 -0.0268 -0.1517
  958MOL0     O29230   5.745   5.226   8.974  0.2746  0.1058 -0.2148
  958MOL0     C29231   5.789   5.363   9.002  0.3766 -0.1549  0.7220
  958MOL0     C29232   5.934   5.380   8.976  0.9262 -0.4325  0.2432
  958MOL0     C29233   6.021   5.300   9.072  0.4430  0.1074 -0.8403
  958MOL0     C29234   6.156   5.350   9.081 -0.3653 -0.0729 -0.6767
  958MOL0     C29235   6.223   5.346   9.225  0.3499  0.6416 -0.0484
  958MOL0     C29236   6.355   5.438   9.234  0.2855 -0.8852 -0.1820
  958MOL0     C29237   6.457   5.402   9.121  0.2353  0.1320 -0.6739
  958MOL0     C29238   6.600   5.453   9.143  0.2528 -0.7312  0.1569
  958MOL0    Cl29239   6.689   5.379   9.288 -0.2185 -0.3164 -0.0052
  958MOL0     C29240   5.517   5.268   9.051  0.9711 -0.0341 -0.4116
  958MOL0     C29241   5.377   5.242   9.047  0.7073 -0.1336  0.5955
  958MOL0     O29242   5.133   5.055   9.119 -0.3407  0.6359 -0.2243
  958MOL0     C29243   4.872   5.054   9.068 -0.3543  0.9148  0.1515
  958MOL0     C29244   4.741   5.035   9.035 -0.0490 -0.1891 -0.7176
  958MOL0     N29245   4.064   4.768   8.994  0.4761  0.4254 -1.6270
  958MOL0     N29246   3.976   4.760   9.096  0.1243 -0.0402  0.1472
  958MOL0     C29247   4.462   4.777   9.705 -0.4067  0.1916  0.0540
  958MOL0     C29248   4.603   4.789   9.717  0.0459 -0.4846 -0.3515
  958MOL0     C29249   5.021   4.762   9.862 -0.0644  0.4232 -0.1170
  958MOL0     C29250   5.076   4.764   9.730  0.4939 -0.5965  0.1657
  958MOL0     C29251   5.210   4.797   9.705  0.5252  0.3438  0.1977
  958MOL0     C29252   5.292   4.829   9.810 -0.3501  0.0860 -0.6527
  958MOL0     O29253   5.426   4.852   9.786 -0.1576 -0.7797  0.5127
  958MOL0     C29254   5.487   4.852   9.659  1.1155 -0.2953  0.2343
  958MOL0     C29255   5.627   4.909   9.667  0.4807  0.1625  0.0167
  958MOL0     C29256   5.723   4.809   9.744 -0.4103 -0.2203 -0.3125
  958MOL0     C29257   5.861   4.869   9.751  0.2969  0.0015 -0.4876
  958MOL0     C29258   5.941   4.799   9.849  0.2094  0.7979 -0.0530
  958MOL0     C29259   5.991   4.730   9.936  0.0471 -1.3573  0.4219
  958MOL0     C29260   5.250   4.832   9.941  0.5130  1.1292 -0.2826
  958MOL0     C29261   5.114   4.810   9.966  0.5690  0.3902 -0.4966
  958MOL0     C29262   5.077   4.792  10.113 -0.2064  0.0716  0.8731
  958MOL0     H29263   4.673   4.462   9.776  0.3371  0.6828  1.6883
  958MOL0     H29264   4.434   4.441   9.745  1.1185  0.1197  4.2681
  958MOL0     H29265   4.213   4.463   9.651 -4.4147  2.2103 -2.1051
  958MOL0     H29266   4.232   4.474   9.834  0.4837 -2.8722 -1.4104
  958MOL0     H29267   4.029   4.619   9.840  0.1239  0.2459 -1.5964
  958MOL0     H29268   3.999   4.469   9.776 -1.0590 -0.0973 -2.6175
  958MOL0     H29269   3.873   4.625   9.653  0.2897  0.6130 -1.4828
  958MOL0     H29270   3.986   4.538   9.541  1.9370  0.1356 -0.2091
  958MOL0     H29271   4.050   4.810   9.665  2.1346 -2.8772  0.7619
  958MOL0     H29272   4.129   4.732   9.546 -0.3941  3.1450 -2.0691
  958MOL0     H29273   3.896   4.723   9.411  1.6866 -1.1278  1.0865
  958MOL0     H29274   3.831   4.816   9.546 -0.0065 -1.6861  0.9743
  958MOL0     H29275   4.007   4.997   9.487  2.0769 -2.6758  0.3452
  958MOL0     H29276   4.055   4.898   9.348  1.7058  0.2197  1.3537
  958MOL0     H29277   3.910   5.086   9.283 -3.4857  1.1440  0.4055
  958MOL0     H29278   3.787   5.038   9.379  0.6159  5.4592 -2.5674
  958MOL0     H29279   3.771   4.815   9.238  0.6629 -0.0657 -1.5542
  958MOL0     H29280   3.720   4.965   9.154  1.0563  0.4444 -0.3793
  958MOL0     H29281   3.934   5.067   8.983 -1.1218 -0.5955  0.5903
  958MOL0     H29282   4.154   4.848   8.741  1.2607  1.9250 -2.7713
  958MOL0     H29283   4.085   5.007   8.755 -0.1519 -0.1240 -0.7701
  958MOL0     H29284   4.219   5.096   8.892  2.7474 -0.4217  0.0754
  958MOL0     H29285   4.313   4.959   8.937 -0.8898 -0.2186  0.9793
  958MOL0     H29286   4.303   5.055   8.660  2.0368  1.4331 -1.3623
  958MOL0     H29287   4.407   4.925   8.714 -0.4131  0.2815 -1.7396
  958MOL0     H29288   4.428   5.213   8.814 -1.0193 -0.6671  0.0514
  958MOL0     H29289   4.543   5.122   8.697 -1.7641 -0.8972 -0.7179
  958MOL0     H29290   4.729   5.202   8.743  0.6827 -0.5570 -0.8213
  958MOL0     H29291   4.973   5.221   8.795 -1.0976  0.5923 -0.6866
  958MOL0     H29292   5.390   5.060   8.753 -0.8049  2.4790 -0.0449
  958MOL0     H29293   5.630   5.078   8.786  0.1796 -1.4364 -0.1462
  958MOL0     H29294   5.727   5.430   8.942 -1.0667  0.0300  2.3432
  958MOL0     H29295   5.779   5.395   9.106  1.5695  2.6310  0.0784
  958MOL0     H29296   5.958   5.350   8.873 -2.2476  0.6247 -0.9158
  958MOL0     H29297   5.963   5.485   8.980  0.7595  0.1319 -5.1504
  958MOL0     H29298   5.982   5.305   9.174  0.5356 -0.2256 -0.7861
  958MOL0     H29299   6.013   5.195   9.042 -2.3020  0.3064 -1.0962
  958MOL0     H29300   6.169   5.452   9.042 -1.2427  0.8709  1.3433
  958MOL0     H29301   6.218   5.291   9.014  0.3270 -1.0214  0.7505
  958MOL0     H29302   6.242   5.240   9.244  2.6186  0.8579 -0.7909
  958MOL0     H29303   6.154   5.385   9.301  0.7874  0.2568  0.5566
  958MOL0     H29304   6.323   5.542   9.239 -0.8623 -1.2821  1.3519
  958MOL0     H29305   6.401   5.416   9.331  0.1974  0.9397  0.2976
  958MOL0     H29306   6.413   5.423   9.023  0.3184 -1.9174 -1.1973
  958MOL0     H29307   6.474   5.294   9.123  0.6514  0.2044  0.2361
  958MOL0     H29308   6.660   5.421   9.057  0.0363  0.3600 -0.4173
  958MOL0     H29309   6.607   5.562   9.151  0.2475 -0.6994 -0.2437
  958MOL0     H29310   5.540   5.325   9.140  1.0793 -2.0684  0.9374
  958MOL0     H29311   5.311   5.282   9.123 -0.2414 -1.2416  0.3914
  958MOL0     H29312   4.912   5.008   9.158  0.3583  2.7442  0.8211
  958MOL0     H29313   4.677   4.981   9.104  2.1098  0.6872  2.1455
  958MOL0     H29314   4.399   4.863   9.688  0.4447  0.6698 -0.8190
  958MOL0     H29315   4.652   4.885   9.705  0.8907 -0.5564  2.0245
  958MOL0     H29316   5.017   4.741   9.641 -0.3871  4.2324 -0.7927
  958MOL0     H29317   5.247   4.811   9.604  0.0072 -0.6891 -0.1520
  958MOL0     H29318   5.434   4.915   9.587 -0.4596 -2.1464 -0.3051
  958MOL0     H29319   5.475   4.752   9.617  0.4883 -1.4043  2.8618
  958MOL0     H29320   5.615   5.009   9.711  1.5292 -0.1488  1.0806
  958MOL0     H29321   5.662   4.924   9.564  1.7339 -0.7574  0.2884
  958MOL0     H29322   5.737   4.717   9.686 -0.3422 -0.0354 -0.5909
  958MOL0     H29323   5.691   4.779   9.844  1.6106  1.7733  1.0274
  958MOL0     H29324   5.901   4.865   9.649  0.8701  2.1051 -0.3826
  958MOL0     H29325   5.856   4.974   9.779 -3.1488 -0.3451  0.6237
  958MOL0     H29326   6.039   4.674  10.014  1.4423 -1.3136 -0.3694
  958MOL0     H29327   5.322   4.846  10.021  0.2521 -1.9675  0.6438
  958MOL0     H29328   5.006   4.710  10.131  0.5606 -0.5883  0.9333
  958MOL0     H29329   5.163   4.765  10.174  0.9987  0.0390 -0.7537
  958MOL0     H29330   5.049   4.893  10.144 -0.8642 -0.6797  2.8943
  959MOL0     O29331   5.914  10.502   5.693 -0.3652  0.0024 -0.2407
  959MOL0     C29332   5.841  10.570   5.623 -0.2428 -0.3024 -0.5028
  959MOL0     O29333   5.883  10.683   5.549  0.1573 -0.0614 -0.4586
  959MOL0     C29334   6.011  10.709   5.556 -0.2594 -1.0926  0.2800
  959MOL0     C29335   6.065  10.786   5.655  0.0374  0.0948 -0.1272
  959MOL0     C29336   6.204  10.807   5.672 -0.4361  0.1518 -0.5386
  959MOL0     C29337   6.299  10.746   5.588 -0.0597 -0.0243 -0.5578
  959MOL0     O29338   6.429  10.781   5.609 -0.3314 -0.3886 -0.0093
  959MOL0     C29339   6.541  10.726   5.535  0.2056 -0.6641  0.6397
  959MOL0     C29340   6.585  10.597   5.601 -0.0235 -0.1260 -0.5512
  959MOL0     C29341   6.704  10.537   5.530 -0.3352 -0.1048 -0.3675
  959MOL0     C29342   6.794  10.458   5.619  0.3456 -0.6289 -0.9500
  959MOL0     C29343   6.765  10.315   5.599  0.0047  0.5813  0.1634
  959MOL0     C29344   6.833  10.231   5.692 -0.0046 -0.2606 -0.4131
  959MOL0     C29345   6.983  10.226   5.657  0.3804  0.2354 -0.3273
  959MOL0     C29346   7.052  10.114   5.733 -0.4012 -0.4404  0.3675
  959MOL0     N29347   7.181  10.057   5.698 -0.5901 -0.1204  0.1020
  959MOL0     C29348   7.290  10.135   5.659  0.1554  1.2116  0.1482
  959MOL0     C29349   7.391  10.043   5.639  0.7022  0.5418  0.0001
  959MOL0     C29350   7.536  10.064   5.591 -0.4430  0.0139 -0.6456
  959MOL0     C29351   7.565   9.982   5.471 -0.4323 -0.1403  0.0523
  959MOL0     C29352   7.706  10.000   5.413 -0.2932 -0.8100 -0.0555
  959MOL0     C29353   7.806   9.933   5.505  0.1276 -0.0070  0.5002
  959MOL0     O29354   7.940   9.926   5.449  0.0553  0.2872 -0.3320
  959MOL0     C29355   7.982   9.825   5.361 -0.7796  0.3449 -0.2678
  959MOL0     C29356   8.111   9.838   5.309 -0.0250 -0.1718  0.2148
  959MOL0     C29357   8.155   9.747   5.209 -0.5277  0.1557  0.7046
  959MOL0     C29358   8.064   9.663   5.152 -0.2524 -0.7218  0.5723
  959MOL0     C29359   8.098   9.571   5.045 -1.0254  0.5377 -0.5998
  959MOL0     O29360   8.241   9.558   5.005 -0.7461 -0.1244 -0.0398
  959MOL0     C29361   8.274   9.498   4.892  0.4727  0.1094  0.4042
  959MOL0     C29362   8.233   9.551   4.773  0.8522  0.4187 -0.0091
  959MOL0     C29363   8.266   9.481   4.661  1.0492 -0.7529  0.1515
  959MOL0     C29364   8.347   9.366   4.656  0.5929  0.7497 -0.2553
  959MOL0     O29365   8.365   9.302   4.531 -0.0906  0.3183  0.0909
  959MOL0     C29366   8.498   9.323   4.471 -0.1766 -0.2700  0.0109
  959MOL0     C29367   8.498   9.454   4.386 -0.3630 -0.5002  0.4801
  959MOL0     C29368   8.575   9.566   4.461 -0.1981  1.0288 -0.7568
  959MOL0     C29369   8.723   9.530   4.485 -0.1284  0.9358 -0.3424
  959MOL0     C29370   8.807   9.471   4.362  0.1005 -0.4153 -0.0937
  959MOL0     C29371   8.796   9.550   4.229 -0.0862  0.3232 -0.7475
  959MOL0     C29372   8.825   9.699   4.235  0.1823  0.4757  0.2974
  959MOL0     C29373   8.957   9.731   4.179 -0.3751  0.0038 -0.2011
  959MOL0    Cl29374   9.005   9.894   4.216 -0.4839 -0.0458  0.1956
  959MOL0     C29375   8.396   9.317   4.775  0.8542  0.3429 -0.0189
  959MOL0     C29376   8.355   9.379   4.896 -0.8796  0.2476 -0.3816
  959MOL0     O29377   8.002   9.519   4.991  0.2753 -1.1129 -0.5555
  959MOL0     C29378   7.933   9.656   5.207  0.0075 -0.2431 -0.4184
  959MOL0     C29379   7.896   9.733   5.309  0.0318 -0.1949 -0.0523
  959MOL0     N29380   7.344   9.920   5.683  0.1210  0.9615  0.7656
  959MOL0     N29381   7.222   9.924   5.715 -0.2791  0.1166  0.5294
  959MOL0     C29382   6.243  10.655   5.484 -0.1009 -0.8237 -1.0287
  959MOL0     C29383   6.101  10.645   5.470 -0.8686 -0.2434  0.7387
  959MOL0     C29384   5.691  10.534   5.620 -0.2818  0.1248 -0.0202
  959MOL0     C29385   5.596  10.635   5.574 -0.1356  0.3874 -0.8174
  959MOL0     C29386   5.461  10.607   5.574 -0.1129 -0.1565 -0.0168
  959MOL0     C29387   5.417  10.479   5.592  0.7466  0.3245 -0.2750
  959MOL0     O29388   5.291  10.448   5.570  0.3111  0.7806  0.3548
  959MOL0     C29389   5.207  10.437   5.685 -0.3770 -0.1392 -0.6034
  959MOL0     C29390   5.058  10.470   5.656  0.9302 -0.5571 -0.6773
  959MOL0     C29391   5.002  10.399   5.532  0.3136  1.1719 -0.5106
  959MOL0     C29392   4.851  10.371   5.544 -0.0677 -0.0885  0.2193
  959MOL0     C29393   4.797  10.305   5.421  0.4693  0.1497 -0.1525
  959MOL0     C29394   4.752  10.280   5.312 -0.1361 -0.0449 -0.3978
  959MOL0     C29395   5.502  10.378   5.636 -0.1691  0.4850  0.3443
  959MOL0     C29396   5.641  10.400   5.644  0.1675 -0.5799 -0.7790
  959MOL0     C29397   5.726  10.280   5.684 -0.6640 -0.3005  0.8376
  959MOL0     H29398   5.995  10.825   5.727 -1.7496 -0.4897 -1.4880
  959MOL0     H29399   6.247  10.867   5.752 -0.6270  1.0414 -1.0816
  959MOL0     H29400   6.508  10.715   5.431  0.9703 -2.0361  0.5113
  959MOL0     H29401   6.620  10.801   5.534 -1.2799  1.2092  4.5960
  959MOL0     H29402   6.498  10.532   5.604 -1.4784  1.7421 -0.4479
  959MOL0     H29403   6.617  10.628   5.701  1.4722 -0.9859 -0.7325
  959MOL0     H29404   6.764  10.617   5.485  0.3037  0.0866  0.7694
  959MOL0     H29405   6.672  10.480   5.443 -0.9939 -0.5129  0.1297
  959MOL0     H29406   6.899  10.482   5.600  1.0215 -1.6289  1.1817
  959MOL0     H29407   6.776  10.481   5.724 -1.2913  2.0236 -1.7041
  959MOL0     H29408   6.660  10.289   5.616  0.5829 -1.6562  0.6703
  959MOL0     H29409   6.791  10.281   5.498 -2.6077 -1.1651 -0.0273
  959MOL0     H29410   6.809  10.260   5.795  0.8917  2.9291 -0.9988
  959MOL0     H29411   6.786  10.135   5.675 -1.9918  0.8170 -1.2649
  959MOL0     H29412   7.030  10.322   5.680 -1.0730  0.6557  1.1579
  959MOL0     H29413   6.996  10.210   5.550 -2.2426 -0.6827 -0.5991
  959MOL0     H29414   7.072  10.152   5.834  0.9203  0.1936 -0.1134
  959MOL0     H29415   6.983  10.031   5.751 -0.2353 -0.4503  0.9999
  959MOL0     H29416   7.296  10.241   5.639  1.4978  0.7967 -2.0654
  959MOL0     H29417   7.553  10.169   5.566  0.7719  0.1407  0.5737
  959MOL0     H29418   7.609  10.045   5.671 -2.9926  2.1737  2.4639
  959MOL0     H29419   7.550   9.879   5.504  2.3166 -0.5678  0.2498
  959MOL0     H29420   7.484   9.992   5.399 -1.6450  1.3463  1.5261
  959MOL0     H29421   7.721  10.108   5.399  2.4476 -1.0960 -0.0361
  959MOL0     H29422   7.714   9.953   5.315  2.2834 -1.5573  0.4265
  959MOL0     H29423   7.777   9.833   5.536  2.0697 -0.1411  2.0810
  959MOL0     H29424   7.806  10.009   5.584 -0.3777  0.4929  0.0328
  959MOL0     H29425   8.177   9.917   5.343  0.9136 -0.4323 -0.9304
  959MOL0     H29426   8.260   9.760   5.184 -0.4820  3.3264  2.1166
  959MOL0     H29427   8.171   9.639   4.766 -1.1630 -0.9443 -0.0487
  959MOL0     H29428   8.222   9.508   4.566  3.1111  0.0329 -0.6278
  959MOL0     H29429   8.577   9.326   4.546  0.7542 -0.8787 -0.9030
  959MOL0     H29430   8.510   9.233   4.410 -3.7530  0.1992 -1.6451
  959MOL0     H29431   8.549   9.445   4.290  0.3820 -0.1408  0.8424
  959MOL0     H29432   8.394   9.487   4.371 -0.5673 -0.8705  1.0317
  959MOL0     H29433   8.576   9.658   4.401  2.1061  1.5160 -0.1000
  959MOL0     H29434   8.521   9.592   4.553  0.3653  2.5071 -0.8134
  959MOL0     H29435   8.738   9.460   4.568  0.8620  1.3367 -0.1632
  959MOL0     H29436   8.777   9.620   4.518  0.4007  0.2618  0.6978
  959MOL0     H29437   8.779   9.368   4.340 -1.0390  0.3725 -2.7747
  959MOL0     H29438   8.911   9.469   4.396 -0.1745  2.3357  1.1489
  959MOL0     H29439   8.848   9.501   4.147 -0.0983  0.1122 -0.6307
  959MOL0     H29440   8.693   9.542   4.194 -0.7911  0.8179  1.0569
  959MOL0     H29441   8.819   9.730   4.340 -1.0925  0.5108  0.2200
  959MOL0     H29442   8.755   9.760   4.178 -2.2500 -0.3870  2.1975
  959MOL0     H29443   9.028   9.658   4.219  1.0027  1.1885 -0.4027
  959MOL0     H29444   8.949   9.717   4.071  3.1527 -2.0450 -0.3649
  959MOL0     H29445   8.466   9.235   4.782  1.3992  0.7707 -0.3211
  959MOL0     H29446   8.399   9.338   4.986 -1.2900 -0.8685 -0.6722
  959MOL0     H29447   7.857   9.591   5.165 -1.7346  1.3953  0.0289
  959MOL0     H29448   7.794   9.732   5.347  0.9173 -1.5491  2.5674
  959MOL0     H29449   6.307  10.606   5.412  2.0275 -0.5016  0.5413
  959MOL0     H29450   6.061  10.592   5.384  1.2890 -0.5255 -0.1635
  959MOL0     H29451   5.623  10.737   5.548  1.5165 -0.0368 -0.9028
  959MOL0     H29452   5.392  10.686   5.549  0.9202  0.7128 -0.1801
  959MOL0     H29453   5.245  10.510   5.758 -2.2310 -0.8008  1.1158
  959MOL0     H29454   5.224  10.336   5.724  0.6493 -0.3279 -1.4876
  959MOL0     H29455   5.054  10.579   5.645  0.6238  0.1849  4.3107
  959MOL0     H29456   5.001  10.439   5.744 -0.9036 -2.1859 -2.3307
  959MOL0     H29457   5.056  10.304   5.520  0.2452  1.0117  0.3929
  959MOL0     H29458   5.023  10.452   5.438  1.0097 -0.0893 -1.1029
  959MOL0     H29459   4.842  10.310   5.634  1.8957  1.0705  1.2675
  959MOL0     H29460   4.792  10.462   5.559 -1.1362 -0.6578 -0.3937
  959MOL0     H29461   4.707  10.257   5.218  1.1203  1.3087 -1.3839
  959MOL0     H29462   5.465  10.279   5.659  1.0259 -0.3691 -1.2951
  959MOL0     H29463   5.739  10.281   5.793  0.4299 -0.6672  0.7282
  959MOL0     H29464   5.676  10.192   5.642  0.6039 -1.2174  1.1857
  959MOL0     H29465   5.825  10.286   5.637 -0.5419  2.4774  1.2793
  960MOL0     O29466   6.166   7.191   5.622 -0.1419 -0.4023 -0.3461
  960MOL0     C29467   6.105   7.085   5.626 -1.2186  0.3191 -0.4927
  960MOL0     O29468   6.164   6.965   5.662  0.4141  0.2073 -0.0021
  960MOL0     C29469   6.299   6.963   5.705  0.0501  0.7470 -0.0805
  960MOL0     C29470   6.401   6.892   5.628  0.0027  0.5360 -0.2008
  960MOL0     C29471   6.535   6.893   5.662  0.0011 -0.1412 -0.6919
  960MOL0     C29472   6.572   6.961   5.785  0.0827  0.5209  1.1696
  960MOL0     O29473   6.700   6.974   5.829  0.0595  0.3217 -0.1699
  960MOL0     C29474   6.802   6.925   5.744  0.3748 -0.4160  0.1210
  960MOL0     C29475   6.945   6.968   5.791  0.0249 -0.0319 -0.1034
  960MOL0     C29476   7.064   6.878   5.752 -0.2789  0.0523 -0.5161
  960MOL0     C29477   7.189   6.901   5.842 -0.7671  0.0135 -0.0798
  960MOL0     C29478   7.301   6.811   5.785  0.4233  0.2431 -0.9656
  960MOL0     C29479   7.426   6.810   5.870 -0.1052  0.1368 -0.4036
  960MOL0     C29480   7.405   6.748   6.010  0.2991  0.6280  0.2698
  960MOL0     C29481   7.520   6.669   6.072 -0.4372  0.1036  0.8579
  960MOL0     N29482   7.637   6.759   6.102 -0.5966  0.1341 -0.1385
  960MOL0     C29483   7.749   6.778   6.018 -0.0348  1.2609 -0.3409
  960MOL0     C29484   7.829   6.854   6.094 -1.1630 -0.4765  0.6412
  960MOL0     C29485   7.972   6.895   6.038  0.7876  0.0053 -0.5154
  960MOL0     C29486   8.083   6.845   6.124 -0.3209  0.6663 -0.4960
  960MOL0     C29487   8.209   6.922   6.091  0.1098 -0.3213 -0.0766
  960MOL0     C29488   8.324   6.883   6.178  0.4327  0.3003 -0.2731
  960MOL0     O29489   8.361   6.748   6.159 -1.0384  0.3918 -0.4453
  960MOL0     C29490   8.482   6.712   6.216 -0.3951 -0.7930 -0.9486
  960MOL0     C29491   8.549   6.806   6.296 -0.7544  0.4430  0.0067
  960MOL0     C29492   8.675   6.758   6.360  0.2692 -1.0223  0.2445
  960MOL0     C29493   8.723   6.625   6.333  0.0995 -0.5096 -0.6041
  960MOL0     C29494   8.845   6.571   6.409 -0.2526 -0.4535  1.1968
  960MOL0     O29495   8.852   6.432   6.418 -0.9559  0.2803 -0.2610
  960MOL0     C29496   8.958   6.378   6.486 -0.4931 -1.4917 -0.5061
  960MOL0     C29497   8.937   6.300   6.602 -0.0952  0.2207  0.6869
  960MOL0     C29498   9.043   6.242   6.681  0.0125  0.0285  0.6128
  960MOL0     C29499   9.178   6.252   6.631  0.2879  0.7451 -0.3394
  960MOL0     O29500   9.276   6.175   6.695 -0.8365  0.0637  0.7744
  960MOL0     C29501   9.363   6.256   6.770 -0.6572 -0.4290 -0.8697
  960MOL0     C29502   9.425   6.174   6.877  0.5185  0.3884 -0.1801
  960MOL0     C29503   9.520   6.250   6.965 -0.6350  0.5028 -0.0544
  960MOL0     C29504   9.598   6.157   7.058 -0.4229 -0.1090  0.0395
  960MOL0     C29505   9.736   6.211   7.083 -0.7536  0.0745 -0.2996
  960MOL0     C29506   9.729   6.344   7.156  0.0270  0.2494  0.2961
  960MOL0     C29507   9.868   6.397   7.193 -0.9962 -1.0986 -0.1286
  960MOL0     C29508   9.965   6.436   7.074  0.0304  0.1101 -0.4232
  960MOL0    Cl29509   9.868   6.549   6.968 -0.0315 -0.0485 -0.0741
  960MOL0     C29510   9.197   6.326   6.511 -0.2022  0.6308 -0.3215
  960MOL0     C29511   9.091   6.390   6.446  0.1083  0.1350  0.3293
  960MOL0     O29512   8.926   6.652   6.449 -0.2753  0.1771 -0.1632
  960MOL0     C29513   8.651   6.539   6.250  0.0963 -0.1919  0.9734
  960MOL0     C29514   8.533   6.584   6.196  0.3862 -0.5446  0.7272
  960MOL0     N29515   7.764   6.885   6.210 -0.0229 -0.0702  0.0024
  960MOL0     N29516   7.638   6.842   6.209  0.3429  0.0144  0.1095
  960MOL0     C29517   6.467   7.013   5.864  0.8660 -1.1541 -0.1164
  960MOL0     C29518   6.335   7.022   5.821 -0.0479 -0.1177  0.2354
  960MOL0     C29519   5.968   7.074   5.572 -1.1499 -0.1069  0.0439
  960MOL0     C29520   5.907   7.196   5.594  0.5334  0.0721 -0.3995
  960MOL0     C29521   5.777   7.213   5.550 -0.7099 -0.4555  0.3075
  960MOL0     C29522   5.714   7.113   5.481  0.0059 -0.4603 -1.3405
  960MOL0     O29523   5.591   7.145   5.421  0.4854  0.0080  0.0884
  960MOL0     C29524   5.503   7.040   5.414 -0.7796  0.1433 -0.4244
  960MOL0     C29525   5.370   7.083   5.351 -0.0394 -0.2541 -0.3452
  960MOL0     C29526   5.303   7.212   5.395 -0.4066  0.1155  0.0040
  960MOL0     C29527   5.182   7.192   5.500 -0.3258 -0.3466 -0.9154
  960MOL0     C29528   5.064   7.124   5.451  0.5598 -0.1359  0.7702
  960MOL0     C29529   4.957   7.073   5.418  0.5441 -0.9585 -0.2204
  960MOL0     C29530   5.775   6.988   5.480  0.0070  0.6688 -0.0092
  960MOL0     C29531   5.907   6.966   5.512  0.6443  0.0874 -0.3313
  960MOL0     C29532   5.977   6.833   5.478  0.2986  0.7713 -0.1067
  960MOL0     H29533   6.363   6.833   5.545  3.1678 -1.5519 -0.3673
  960MOL0     H29534   6.608   6.842   5.600  0.6518  1.2316 -1.0853
  960MOL0     H29535   6.790   6.817   5.744  1.0208 -0.5100  1.6042
  960MOL0     H29536   6.796   6.957   5.639 -0.1675 -2.0636 -0.3850
  960MOL0     H29537   6.940   6.978   5.899  1.0592  0.6868 -0.1078
  960MOL0     H29538   6.955   7.072   5.760  0.5589 -0.9046 -3.2295
  960MOL0     H29539   7.084   6.902   5.647  0.4373 -0.7107 -0.5597
  960MOL0     H29540   7.024   6.776   5.762 -0.3541 -0.1375 -2.3643
  960MOL0     H29541   7.226   7.003   5.842  0.2192 -0.3250 -0.9830
  960MOL0     H29542   7.171   6.881   5.948  2.3163  2.2616  1.0022
  960MOL0     H29543   7.268   6.706   5.784  1.2011 -0.0314 -2.9695
  960MOL0     H29544   7.325   6.842   5.683  0.0360  2.9944 -0.2845
  960MOL0     H29545   7.504   6.747   5.825 -0.3802 -1.9797  1.8637
  960MOL0     H29546   7.473   6.908   5.885  2.8424 -0.6177 -3.3554
  960MOL0     H29547   7.336   6.663   6.009  2.0068 -0.8151 -0.7424
  960MOL0     H29548   7.363   6.826   6.074  2.0734  0.8071  1.2685
  960MOL0     H29549   7.483   6.617   6.161 -2.0597 -2.9791 -1.4501
  960MOL0     H29550   7.557   6.594   6.002  0.3401 -0.4472  1.8292
  960MOL0     H29551   7.767   6.729   5.923  0.7104 -2.3898  1.5049
  960MOL0     H29552   7.987   6.868   5.933  2.1276  1.6808 -0.8011
  960MOL0     H29553   7.975   7.004   6.044  0.5530  0.0600 -1.2639
  960MOL0     H29554   8.062   6.849   6.231  2.5432  0.9591  0.1450
  960MOL0     H29555   8.100   6.738   6.105 -1.8975  0.8686 -3.7734
  960MOL0     H29556   8.200   7.030   6.096 -1.1413 -0.3516 -1.2449
  960MOL0     H29557   8.243   6.914   5.987  0.0509 -0.6954 -0.0700
  960MOL0     H29558   8.309   6.891   6.286  0.4809 -3.9650  0.2222
  960MOL0     H29559   8.409   6.948   6.154  2.7274 -1.5746  2.0943
  960MOL0     H29560   8.517   6.907   6.319  2.1893  0.9725  2.4885
  960MOL0     H29561   8.731   6.824   6.427 -2.7410  1.3134  0.6701
  960MOL0     H29562   8.833   6.273   6.617  0.4532 -3.8036 -1.3751
  960MOL0     H29563   9.011   6.181   6.765 -5.5259 -1.2884 -2.0324
  960MOL0     H29564   9.444   6.300   6.711  0.8962  0.0030  1.4546
  960MOL0     H29565   9.300   6.333   6.815 -1.3835 -2.6463  2.2117
  960MOL0     H29566   9.344   6.135   6.939  0.5346  1.0407  0.2595
  960MOL0     H29567   9.479   6.090   6.833  3.2687  2.3589 -0.8466
  960MOL0     H29568   9.583   6.304   6.893  0.5197 -0.9379 -0.1721
  960MOL0     H29569   9.462   6.325   7.020 -2.1437 -0.5677 -0.1241
  960MOL0     H29570   9.618   6.059   7.013  2.4748  1.0745 -1.5315
  960MOL0     H29571   9.550   6.147   7.155 -1.0436 -2.0414 -0.4151
  960MOL0     H29572   9.789   6.209   6.988 -0.2920 -0.3188 -0.0372
  960MOL0     H29573   9.790   6.149   7.155 -0.6349 -0.7236 -1.0657
  960MOL0     H29574   9.676   6.424   7.103 -1.3666 -0.1474  1.0458
  960MOL0     H29575   9.664   6.327   7.242 -0.9695 -0.9683 -0.6554
  960MOL0     H29576   9.913   6.324   7.261 -0.7238  2.0613  3.3583
  960MOL0     H29577   9.853   6.491   7.247  1.8478 -0.6066 -0.0285
  960MOL0     H29578  10.055   6.478   7.119 -2.1786  2.1503  2.5051
  960MOL0     H29579   9.983   6.344   7.018  1.9416 -1.1069  2.0065
  960MOL0     H29580   9.304   6.330   6.489  0.0830  2.6411  1.0868
  960MOL0     H29581   9.111   6.441   6.352 -1.4643 -0.3539 -0.3154
  960MOL0     H29582   8.669   6.436   6.224 -2.8729 -0.5617 -0.1022
  960MOL0     H29583   8.476   6.519   6.131 -0.3234 -0.6290  1.4265
  960MOL0     H29584   6.493   7.061   5.959  1.7760 -0.3120 -0.7672
  960MOL0     H29585   6.260   7.086   5.866 -1.6049  1.1970 -3.7709
  960MOL0     H29586   5.946   7.282   5.648  0.1131  1.5970 -2.4091
  960MOL0     H29587   5.713   7.301   5.559 -2.3447 -1.5470 -0.2476
  960MOL0     H29588   5.494   6.996   5.514  1.4909 -0.1989 -0.3196
  960MOL0     H29589   5.552   6.959   5.359  0.5776 -1.2645  2.5778
  960MOL0     H29590   5.297   7.003   5.366  1.2910 -1.7785 -1.5212
  960MOL0     H29591   5.385   7.096   5.243 -0.1039 -0.4111 -0.3731
  960MOL0     H29592   5.262   7.270   5.312 -1.1296  1.8235  1.4858
  960MOL0     H29593   5.376   7.284   5.434 -1.3104 -0.3208  2.6527
  960MOL0     H29594   5.224   7.128   5.579 -0.7622 -0.5523 -0.8503
  960MOL0     H29595   5.159   7.287   5.548 -0.0599  0.9866 -3.2679
  960MOL0     H29596   4.861   7.034   5.392 -0.1124 -0.3712  1.2121
  960MOL0     H29597   5.730   6.907   5.423 -3.1404  1.5693  1.0156
  960MOL0     H29598   5.917   6.770   5.412 -1.4907  0.3373  1.8193
  960MOL0     H29599   6.074   6.852   5.431  0.1609  2.2113  0.1490
  960MOL0     H29600   5.984   6.783   5.575 -0.4342  0.6970 -0.0883
  961MOL0     O29601   0.177   7.779   5.831 -0.8790  0.2020 -0.1616
  961MOL0     C29602   0.177   7.657   5.847  0.6745 -0.1058  0.1752
  961MOL0     O29603   0.279   7.569   5.831 -0.1368  0.0015 -0.2959
  961MOL0     C29604   0.389   7.613   5.761 -0.4405  0.3337  0.1087
  961MOL0     C29605   0.393   7.598   5.620  0.0902 -0.5004  0.0244
  961MOL0     C29606   0.498   7.662   5.542  0.1849 -0.5631  0.4444
  961MOL0     C29607   0.607   7.716   5.619  1.0106  0.7067 -0.4607
  961MOL0     O29608   0.708   7.780   5.558  0.5299  0.4605  0.8068
  961MOL0     C29609   0.837   7.744   5.606 -0.1610 -0.4473 -0.0875
  961MOL0     C29610   0.926   7.802   5.494  0.2446  0.6699  0.1048
  961MOL0     C29611   1.080   7.764   5.504  0.6056 -0.1288 -1.2014
  961MOL0     C29612   1.168   7.850   5.415 -0.4781 -0.6025 -0.1397
  961MOL0     C29613   1.150   7.813   5.270  0.0276  0.0433 -1.1265
  961MOL0     C29614   1.222   7.904   5.177 -0.2530 -1.2795  1.0174
  961MOL0     C29615   1.379   7.886   5.191  0.6075  0.3329 -0.4183
  961MOL0     C29616   1.456   7.991   5.114  0.0849 -0.0271 -0.4301
  961MOL0     N29617   1.582   7.920   5.065  1.0384 -0.0548  0.4479
  961MOL0     C29618   1.706   7.989   5.061  0.2005 -0.1233  0.3992
  961MOL0     C29619   1.785   7.912   4.979 -0.6418  0.0129  0.9494
  961MOL0     C29620   1.936   7.933   4.961  0.9356 -0.0622  0.0158
  961MOL0     C29621   1.973   8.078   4.951 -0.0256 -0.0466  0.1241
  961MOL0     C29622   2.111   8.099   4.893 -0.4618 -0.9776 -0.3632
  961MOL0     C29623   2.127   8.264   4.916 -0.4456 -0.5133  0.8796
  961MOL0     O29624   2.257   8.299   4.872  0.3375 -0.1754 -0.0718
  961MOL0     C29625   2.304   8.428   4.898 -0.6699  0.1450 -0.4447
  961MOL0     C29626   2.219   8.538   4.924 -0.2205  0.2092  0.2002
  961MOL0     C29627   2.275   8.673   4.934  0.2604 -0.4401  0.0640
  961MOL0     C29628   2.417   8.689   4.948  0.7751 -0.1192  0.6636
  961MOL0     C29629   2.465   8.820   4.969 -0.6964 -0.2861 -0.2176
  961MOL0     O29630   2.604   8.838   4.960 -0.3015  0.0153 -0.1702
  961MOL0     C29631   2.669   8.964   4.942 -0.8235  0.4277  0.2226
  961MOL0     C29632   2.615   9.082   4.889  0.2675  0.5746  0.3020
  961MOL0     C29633   2.694   9.197   4.890  0.6322 -0.9579 -0.7522
  961MOL0     C29634   2.831   9.197   4.919 -0.8679  0.6256  0.4770
  961MOL0     O29635   2.903   9.309   4.889 -0.0346  0.6699  0.4689
  961MOL0     C29636   3.021   9.334   4.966 -0.0043  0.3540  0.3481
  961MOL0     C29637   3.082   9.460   4.895  0.4232 -0.3278 -0.0651
  961MOL0     C29638   3.189   9.530   4.987 -0.3867 -0.6573  0.0077
  961MOL0     C29639   3.318   9.439   4.987  0.5871 -0.0901 -0.0218
  961MOL0     C29640   3.447   9.518   5.018 -0.0912 -1.2029 -0.5471
  961MOL0     C29641   3.473   9.646   4.927 -0.3332  0.3154 -1.2539
  961MOL0     C29642   3.615   9.689   4.925  0.2317 -1.2019  1.0701
  961MOL0     C29643   3.644   9.784   5.043  0.5389  0.2710  0.3244
  961MOL0    Cl29644   3.562   9.936   4.990 -0.1348 -0.4317  0.2045
  961MOL0     C29645   2.879   9.074   4.973 -0.2118 -0.4478  0.1803
  961MOL0     C29646   2.801   8.955   4.975 -0.4454  0.7451 -0.3759
  961MOL0     O29647   2.388   8.918   4.977  0.7633  0.5910  0.2444
  961MOL0     C29648   2.502   8.576   4.930 -0.0131  0.1845 -0.4391
  961MOL0     C29649   2.446   8.451   4.905  0.2866  0.8464 -0.2933
  961MOL0     N29650   1.709   7.805   4.932  0.0313  0.0253  0.2065
  961MOL0     N29651   1.587   7.809   4.986 -0.2896 -0.3533 -0.0530
  961MOL0     C29652   0.597   7.720   5.755  0.5378 -0.0219 -0.3652
  961MOL0     C29653   0.496   7.670   5.831  0.1198 -0.5451  0.0561
  961MOL0     C29654   0.045   7.599   5.891  0.4507 -0.0836  0.4721
  961MOL0     C29655  -0.067   7.656   5.825  0.6204 -0.2703  0.8682
  961MOL0     C29656  -0.194   7.606   5.852  0.1562  0.1259  0.3063
  961MOL0     C29657  -0.210   7.497   5.938 -0.1232 -0.1248 -0.3810
  961MOL0     O29658  -0.330   7.433   5.954  0.4222  0.1501 -0.1269
  961MOL0     C29659  -0.448   7.495   5.896 -0.2724 -0.4220 -0.0833
  961MOL0     C29660  -0.569   7.423   5.931  0.4735  0.0448  1.2101
  961MOL0     C29661  -0.694   7.494   5.870 -0.4420  0.3523 -1.4057
  961MOL0     C29662  -0.811   7.424   5.939  0.1482  0.3130  0.2283
  961MOL0     C29663  -0.921   7.457   5.850 -0.1345  0.3461 -0.0631
  961MOL0     C29664  -1.021   7.471   5.774 -0.6636 -0.8706  0.3858
  961MOL0     C29665  -0.098   7.440   6.006 -0.1415  0.0666  0.4660
  961MOL0     C29666   0.029   7.492   5.982 -0.3076  0.0369 -0.0446
  961MOL0     C29667   0.148   7.430   6.057  0.3784  0.1435  0.5428
  961MOL0     H29668   0.305   7.559   5.570 -0.2534  0.0441  0.1890
  961MOL0     H29669   0.494   7.675   5.435 -0.4987 -1.1456  0.3949
  961MOL0     H29670   0.862   7.794   5.700 -0.4462 -1.1791  0.3885
  961MOL0     H29671   0.848   7.635   5.612 -0.7182 -0.6081 -1.5617
  961MOL0     H29672   0.914   7.910   5.503 -0.8475  0.4385  2.1705
  961MOL0     H29673   0.885   7.766   5.399  0.9860 -1.8098  0.6338
  961MOL0     H29674   1.089   7.658   5.478 -0.9233 -0.0109 -2.3198
  961MOL0     H29675   1.111   7.782   5.607  2.3608  1.5732 -1.9635
  961MOL0     H29676   1.151   7.958   5.414 -0.8160 -0.6161 -2.6803
  961MOL0     H29677   1.272   7.833   5.443 -0.1240  0.8873 -0.4760
  961MOL0     H29678   1.196   7.715   5.253  2.4338  0.5282  1.7201
  961MOL0     H29679   1.043   7.816   5.248 -0.9837 -0.2322  2.9631
  961MOL0     H29680   1.188   7.890   5.074 -0.2943  0.7685  0.7114
  961MOL0     H29681   1.195   8.008   5.196  2.2671 -0.3717  0.0743
  961MOL0     H29682   1.399   7.788   5.147 -0.1393 -0.3930  0.7786
  961MOL0     H29683   1.409   7.888   5.296  1.9937 -0.3446 -0.7806
  961MOL0     H29684   1.403   8.032   5.028  0.4135 -0.4770 -0.8537
  961MOL0     H29685   1.478   8.075   5.180 -0.8906  0.6868 -0.9902
  961MOL0     H29686   1.744   8.072   5.121 -0.0188 -0.1640  0.5964
  961MOL0     H29687   1.976   7.891   5.054 -0.5449  1.7574  1.5590
  961MOL0     H29688   1.974   7.883   4.872  1.1395  1.0916 -0.5634
  961MOL0     H29689   1.899   8.126   4.886  2.9911  1.2400 -2.5952
  961MOL0     H29690   1.962   8.119   5.052 -1.0830 -0.8511  0.3555
  961MOL0     H29691   2.109   8.066   4.789 -0.4636 -1.2944 -0.2662
  961MOL0     H29692   2.182   8.041   4.952  0.5664  0.0724 -0.5421
  961MOL0     H29693   2.114   8.293   5.021 -0.1628 -1.0606  1.0682
  961MOL0     H29694   2.053   8.313   4.852  0.5119 -0.3838 -0.1672
  961MOL0     H29695   2.113   8.515   4.934  0.5263 -3.1030  2.1990
  961MOL0     H29696   2.219   8.763   4.957  0.7959 -0.5338  1.8584
  961MOL0     H29697   2.512   9.082   4.857  0.4319 -1.3866 -0.3073
  961MOL0     H29698   2.648   9.293   4.866 -3.0111 -1.3505  3.3229
  961MOL0     H29699   3.011   9.322   5.074  2.6429 -1.5688  0.4718
  961MOL0     H29700   3.091   9.252   4.952 -0.6467 -0.3697  1.2440
  961MOL0     H29701   3.107   9.453   4.788  0.9510  0.8403 -0.0339
  961MOL0     H29702   3.001   9.532   4.913  0.5040 -0.3317  0.3100
  961MOL0     H29703   3.220   9.628   4.950  1.0681 -0.7452  0.9169
  961MOL0     H29704   3.138   9.544   5.083  0.6761  1.1384  0.3666
  961MOL0     H29705   3.334   9.398   4.887 -3.8206 -0.2479 -0.8818
  961MOL0     H29706   3.295   9.347   5.042 -1.2337 -1.2165 -2.4464
  961MOL0     H29707   3.536   9.455   5.023  1.5010  1.0016  1.7906
  961MOL0     H29708   3.444   9.570   5.115  0.9091  1.1813 -1.7153
  961MOL0     H29709   3.451   9.623   4.822 -1.6659 -0.3074 -0.8612
  961MOL0     H29710   3.403   9.723   4.962  0.5247 -0.0417  1.5419
  961MOL0     H29711   3.635   9.747   4.834  0.1604 -1.0910  1.1244
  961MOL0     H29712   3.684   9.605   4.927  1.5222 -0.1668  1.6453
  961MOL0     H29713   3.602   9.749   5.138 -0.0126  2.5379  0.9883
  961MOL0     H29714   3.750   9.809   5.047  1.2261 -2.0416 -1.1662
  961MOL0     H29715   2.987   9.071   4.989 -0.0570  3.0825  0.4156
  961MOL0     H29716   2.853   8.865   5.006 -0.3081  0.2132 -2.0581
  961MOL0     H29717   2.607   8.604   4.936 -0.9790  4.1793  0.8679
  961MOL0     H29718   2.520   8.372   4.898 -2.4371 -1.9874  0.5210
  961MOL0     H29719   0.686   7.764   5.799  0.5159 -1.4316  1.1987
  961MOL0     H29720   0.507   7.664   5.939  1.6918 -0.2947 -0.0656
  961MOL0     H29721  -0.055   7.726   5.744  1.5847 -0.6649  0.6540
  961MOL0     H29722  -0.280   7.653   5.805 -2.1038 -2.0046  2.0547
  961MOL0     H29723  -0.450   7.485   5.787  0.1010  3.2390 -0.5367
  961MOL0     H29724  -0.456   7.595   5.939 -2.0771 -0.4466 -0.3018
  961MOL0     H29725  -0.578   7.428   6.040  1.5908 -0.1741  1.3171
  961MOL0     H29726  -0.574   7.321   5.893 -1.3948  0.5195  0.0190
  961MOL0     H29727  -0.689   7.477   5.762 -1.4990  0.2574 -1.4491
  961MOL0     H29728  -0.698   7.601   5.891 -0.5390 -0.1057  1.2701
  961MOL0     H29729  -0.801   7.316   5.948 -3.1386 -0.0422  0.7989
  961MOL0     H29730  -0.835   7.460   6.040  1.4784  0.3352  0.5562
  961MOL0     H29731  -1.100   7.478   5.703  1.9326  0.3239 -2.6144
  961MOL0     H29732  -0.109   7.353   6.070 -0.6315  0.6812  1.2400
  961MOL0     H29733   0.234   7.396   5.999 -1.6528 -1.3918 -1.7690
  961MOL0     H29734   0.193   7.499   6.130  1.6882  2.8343 -2.5691
  961MOL0     H29735   0.111   7.344   6.114 -0.2973  0.0380 -0.0369
  962MOL0     O29736   2.403   0.126   5.856 -0.0994  0.4481 -0.4972
  962MOL0     C29737   2.373   0.242   5.835  0.2972  0.0521  0.3908
  962MOL0     O29738   2.466   0.348   5.834  0.9593 -0.0758 -0.4505
  962MOL0     C29739   2.600   0.316   5.836  0.0415 -0.0669  0.0733
  962MOL0     C29740   2.674   0.289   5.721  0.7239  0.1351  0.1845
  962MOL0     C29741   2.812   0.250   5.727  0.3758 -0.7051  0.0974
  962MOL0     C29742   2.868   0.227   5.856 -0.6390  0.8940  0.1262
  962MOL0     O29743   3.002   0.203   5.878  0.6250  0.9208 -0.0706
  962MOL0     C29744   3.078   0.124   5.792 -0.2241 -0.1296  0.7055
  962MOL0     C29745   3.203   0.065   5.852 -0.9677 -0.2586 -0.0328
  962MOL0     C29746   3.286  -0.011   5.745  0.6806 -0.5259 -0.5561
  962MOL0     C29747   3.428  -0.052   5.793 -0.4736  0.3973 -0.7777
  962MOL0     C29748   3.516   0.065   5.848  0.5159  0.1998 -0.2392
  962MOL0     C29749   3.664   0.023   5.838 -0.5546 -0.7145 -0.2448
  962MOL0     C29750   3.766   0.132   5.887  0.1636  0.1217 -0.6009
  962MOL0     C29751   3.778   0.252   5.783 -0.3406 -0.4187 -0.6006
  962MOL0     N29752   3.832   0.205   5.654  0.2802 -0.1488 -1.0152
  962MOL0     C29753   3.961   0.164   5.628  0.3427  0.2316 -0.6185
  962MOL0     C29754   3.955   0.126   5.491  0.2535 -0.4366 -1.0796
  962MOL0     C29755   4.074   0.102   5.415 -1.2114  0.3198  0.1761
  962MOL0     C29756   4.081  -0.040   5.368 -0.4946 -0.7142  0.1301
  962MOL0     C29757   4.110  -0.142   5.480 -0.5361  0.3123  0.8406
  962MOL0     C29758   4.120  -0.284   5.414 -0.1759 -0.4557  0.1743
  962MOL0     O29759   4.194  -0.368   5.504 -0.2890 -0.4611  0.0695
  962MOL0     C29760   4.335  -0.373   5.498  1.0840  0.7014 -0.0239
  962MOL0     C29761   4.390  -0.488   5.562  0.0278  0.3219  0.4860
  962MOL0     C29762   4.532  -0.501   5.563  0.1047  0.0815 -0.3349
  962MOL0     C29763   4.612  -0.413   5.489  0.1146 -0.5115 -0.1233
  962MOL0     C29764   4.752  -0.442   5.474  0.2194 -0.7077 -0.9268
  962MOL0     O29765   4.837  -0.333   5.451 -0.0268  0.8555  0.3069
  962MOL0     C29766   4.974  -0.337   5.474  0.3164  0.4484  0.1627
  962MOL0     C29767   5.038  -0.405   5.578  0.0729  0.3125 -0.4476
  962MOL0     C29768   5.172  -0.386   5.596 -1.0104  0.3355 -0.7866
  962MOL0     C29769   5.255  -0.293   5.519 -0.7507  0.5203 -0.0254
  962MOL0     O29770   5.386  -0.291   5.559  0.4949  0.2089 -0.3541
  962MOL0     C29771   5.461  -0.173   5.519 -0.4865  0.5970  0.4693
  962MOL0     C29772   5.597  -0.187   5.583  0.5617 -0.5415  0.0138
  962MOL0     C29773   5.598  -0.121   5.724 -0.1217 -0.3234 -0.7918
  962MOL0     C29774   5.728  -0.136   5.793  0.7364  0.4777  0.5606
  962MOL0     C29775   5.847  -0.074   5.710 -0.2658  0.1684  0.9255
  962MOL0     C29776   5.972  -0.075   5.788  0.0890 -0.2544  0.4690
  962MOL0     C29777   6.081  -0.003   5.711 -0.3749 -0.2408  0.6962
  962MOL0     C29778   6.207   0.020   5.792 -0.1780 -1.0246  0.3484
  962MOL0    Cl29779   6.341  -0.091   5.743 -0.6162  0.2789  0.0268
  962MOL0     C29780   5.192  -0.228   5.412  0.7776  0.8077 -0.8901
  962MOL0     C29781   5.052  -0.252   5.394  0.6801 -0.1453  1.0076
  962MOL0     O29782   4.790  -0.554   5.490 -0.3709 -0.2757  0.5844
  962MOL0     C29783   4.552  -0.300   5.433 -0.1121  0.9730  0.2088
  962MOL0     C29784   4.413  -0.281   5.437  0.5455  0.0158  0.1107
  962MOL0     N29785   3.818   0.132   5.452 -0.7297 -0.6506 -0.2478
  962MOL0     N29786   3.748   0.177   5.549  0.2226 -0.0380  0.3521
  962MOL0     C29787   2.790   0.254   5.971 -0.8590  0.3888 -0.4036
  962MOL0     C29788   2.654   0.296   5.962 -0.3371 -0.2831 -0.2115
  962MOL0     C29789   2.231   0.271   5.798  0.4896  0.1272  0.3678
  962MOL0     C29790   2.211   0.384   5.718  0.1113  0.0549 -0.1393
  962MOL0     C29791   2.090   0.416   5.660 -0.8342  0.2300 -0.1829
  962MOL0     C29792   1.976   0.329   5.676  1.0439 -0.4527 -0.6509
  962MOL0     O29793   1.867   0.363   5.596 -0.4215  0.1787 -0.4368
  962MOL0     C29794   1.743   0.289   5.611 -0.4313 -0.3619  0.4780
  962MOL0     C29795   1.653   0.346   5.720  0.0158  0.0677 -0.0380
  962MOL0     C29796   1.515   0.297   5.701  0.3031  0.4710  0.1680
  962MOL0     C29797   1.445   0.371   5.597  0.2620 -0.4126 -0.8758
  962MOL0     C29798   1.296   0.357   5.606 -0.2613  0.1175  0.5962
  962MOL0     C29799   1.177   0.344   5.610 -0.0546  0.4100 -0.3300
  962MOL0     C29800   1.992   0.218   5.757 -0.4851  0.3731  0.0766
  962MOL0     C29801   2.116   0.189   5.824 -0.8432 -0.0318  0.7903
  962MOL0     C29802   2.117   0.053   5.891 -0.1161  0.7238 -1.3592
  962MOL0     H29803   2.624   0.301   5.626 -0.2377 -0.3640  0.6073
  962MOL0     H29804   2.873   0.242   5.637 -0.9793 -2.7297 -0.7073
  962MOL0     H29805   3.015   0.049   5.743 -0.8449  1.2548 -0.7081
  962MOL0     H29806   3.113   0.191   5.713  1.6671 -0.4305  1.2294
  962MOL0     H29807   3.185   0.014   5.947 -0.5001 -2.2135 -0.9568
  962MOL0     H29808   3.264   0.154   5.874 -0.5798 -0.3523 -0.7032
  962MOL0     H29809   3.288   0.059   5.661 -2.0320 -3.4059 -3.2935
  962MOL0     H29810   3.227  -0.096   5.712  0.5809  0.3711 -2.8618
  962MOL0     H29811   3.413  -0.133   5.865 -0.2307  2.4874  1.7365
  962MOL0     H29812   3.482  -0.095   5.708 -1.0607  0.0283 -0.9681
  962MOL0     H29813   3.498   0.151   5.783 -1.1034  0.0454 -0.0296
  962MOL0     H29814   3.481   0.077   5.951  0.2530 -1.2331 -0.1349
  962MOL0     H29815   3.675  -0.064   5.904  0.8634  0.6258  1.4000
  962MOL0     H29816   3.688  -0.006   5.736  1.1468  0.7548 -0.3103
  962MOL0     H29817   3.866   0.088   5.889 -0.1373 -0.7305 -2.1642
  962MOL0     H29818   3.735   0.162   5.987  1.5026 -1.4904  0.3515
  962MOL0     H29819   3.676   0.287   5.766 -0.3858 -1.7726 -3.6825
  962MOL0     H29820   3.839   0.334   5.821  0.7988 -0.4690 -2.2295
  962MOL0     H29821   4.047   0.172   5.693  0.6749  1.8058 -1.2219
  962MOL0     H29822   4.066   0.154   5.319 -1.9681 -1.2384 -0.6472
  962MOL0     H29823   4.165   0.135   5.467 -2.9149  3.2194  1.5696
  962MOL0     H29824   3.982  -0.059   5.328 -1.5321  3.0066  0.5558
  962MOL0     H29825   4.153  -0.056   5.288 -3.0176 -3.2702 -1.8223
  962MOL0     H29826   4.025  -0.144   5.550 -0.5713 -1.3248  0.7940
  962MOL0     H29827   4.205  -0.122   5.530  0.6746 -0.5244 -1.0333
  962MOL0     H29828   4.161  -0.278   5.312  1.4065  1.1035  0.8439
  962MOL0     H29829   4.017  -0.321   5.412 -0.1274 -0.5556 -0.6644
  962MOL0     H29830   4.331  -0.557   5.623 -2.4441  0.2077 -1.8715
  962MOL0     H29831   4.584  -0.571   5.628  1.3613  0.8983 -0.4224
  962MOL0     H29832   4.994  -0.471   5.651  2.0382 -1.1181 -0.4800
  962MOL0     H29833   5.224  -0.450   5.668 -1.2510 -0.7691 -1.5635
  962MOL0     H29834   5.473  -0.190   5.411 -2.7444 -2.5614  0.5427
  962MOL0     H29835   5.408  -0.081   5.542 -1.3971 -0.2607  2.0017
  962MOL0     H29836   5.620  -0.294   5.578 -0.9962 -0.8495 -1.6121
  962MOL0     H29837   5.668  -0.139   5.516 -0.1652 -1.7603 -1.7203
  962MOL0     H29838   5.576  -0.014   5.723 -0.5456 -0.4036 -0.4162
  962MOL0     H29839   5.522  -0.162   5.791  0.4435  0.7822  0.5779
  962MOL0     H29840   5.739  -0.244   5.801 -1.9327 -0.0020 -0.9539
  962MOL0     H29841   5.726  -0.092   5.894  3.8553  3.4540 -0.4901
  962MOL0     H29842   5.814   0.027   5.685 -2.2910 -1.0866 -2.1991
  962MOL0     H29843   5.853  -0.135   5.619 -0.7794 -1.3236  1.8634
  962MOL0     H29844   5.951  -0.024   5.883  1.6346  5.0379 -1.6811
  962MOL0     H29845   6.000  -0.181   5.790  2.6290  0.3195 -0.7830
  962MOL0     H29846   6.047   0.097   5.682  0.1006  0.3639  2.1113
  962MOL0     H29847   6.100  -0.041   5.610 -0.0297 -0.4888  0.8524
  962MOL0     H29848   6.238   0.124   5.775 -0.9883 -0.7347  0.5629
  962MOL0     H29849   6.185   0.014   5.899 -0.2560 -1.9655  0.2902
  962MOL0     H29850   5.247  -0.166   5.342  2.3704 -1.9938 -2.2974
  962MOL0     H29851   5.005  -0.199   5.311 -2.0765 -3.5835  0.0904
  962MOL0     H29852   4.608  -0.222   5.382 -0.7307  1.7863  0.7406
  962MOL0     H29853   4.371  -0.191   5.392  2.8372  0.2236 -1.7705
  962MOL0     H29854   2.831   0.245   6.071 -0.7844  2.0617 -0.2483
  962MOL0     H29855   2.595   0.305   6.053 -3.0968  2.5435 -2.0735
  962MOL0     H29856   2.283   0.461   5.689 -1.2246  1.0188 -1.0166
  962MOL0     H29857   2.083   0.502   5.594  2.3932  0.5054 -0.2995
  962MOL0     H29858   1.756   0.183   5.633  0.3920 -0.6146 -1.0884
  962MOL0     H29859   1.695   0.302   5.513 -0.6874  1.0612  0.7673
  962MOL0     H29860   1.644   0.454   5.715 -0.3742 -0.0006 -1.3605
  962MOL0     H29861   1.690   0.320   5.820  0.5126  1.8437  0.2649
  962MOL0     H29862   1.460   0.300   5.795  0.5040 -0.8853  0.3516
  962MOL0     H29863   1.516   0.190   5.677  0.1513  0.0866  1.7530
  962MOL0     H29864   1.465   0.479   5.594 -1.9523  0.2715  2.8352
  962MOL0     H29865   1.470   0.327   5.500  0.2668 -1.1220 -0.5577
  962MOL0     H29866   1.071   0.338   5.618  0.1021 -2.8905  1.0893
  962MOL0     H29867   1.911   0.147   5.769 -0.6906  0.6109  0.1199
  962MOL0     H29868   2.131   0.066   5.999 -1.2314  0.0928 -1.1114
  962MOL0     H29869   2.020   0.001   5.897  1.3278 -2.4069 -3.1084
  962MOL0     H29870   2.190  -0.011   5.842 -1.1581 -1.3907 -0.2937
  963MOL0     O29871   1.701   0.629   9.855 -0.0774  1.0790  0.1300
  963MOL0     C29872   1.669   0.584   9.962  0.3585  0.8931  0.2539
  963MOL0     O29873   1.748   0.510  10.039 -0.2450  0.0906 -0.1559
  963MOL0     C29874   1.879   0.480  10.010  0.4968 -0.6536 -0.2485
  963MOL0     C29875   1.910   0.345  10.005  0.3687 -0.2825  0.8305
  963MOL0     C29876   2.048   0.316   9.992 -0.4225  0.2281  0.4664
  963MOL0     C29877   2.148   0.413   9.978  0.0772  0.2569  0.3325
  963MOL0     O29878   2.276   0.372   9.955  0.0327 -1.0830  0.1547
  963MOL0     C29879   2.375   0.475   9.984  0.0484  0.0320 -0.2797
  963MOL0     C29880   2.520   0.418   9.982  0.1914 -0.2692  0.5491
  963MOL0     C29881   2.565   0.376   9.843 -0.0922  0.5848 -0.8213
  963MOL0     C29882   2.715   0.364   9.819  0.1484 -0.9722  0.5953
  963MOL0     C29883   2.753   0.244   9.733  0.1220 -0.3055  0.4320
  963MOL0     C29884   2.904   0.232   9.711  0.1657  0.0204 -0.1863
  963MOL0     C29885   2.954   0.086   9.721  0.4371  0.1414  0.1293
  963MOL0     C29886   3.106   0.083   9.700 -0.4150 -0.4139  0.2151
  963MOL0     N29887   3.143   0.151   9.572  0.3791 -0.5229  0.4448
  963MOL0     C29888   3.111   0.105   9.444 -1.2481  0.2160  0.0066
  963MOL0     C29889   3.187   0.183   9.368 -0.1021  0.7536 -0.1295
  963MOL0     C29890   3.200   0.166   9.218  0.1843  0.5548 -0.0247
  963MOL0     C29891   3.337   0.190   9.165 -0.1135  0.1566 -0.3537
  963MOL0     C29892   3.433   0.087   9.213 -0.8950  0.3234 -0.0585
  963MOL0     C29893   3.564   0.106   9.148 -0.7208 -0.5754 -0.2525
  963MOL0     O29894   3.642  -0.017   9.147  0.4410  0.2185 -0.2743
  963MOL0     C29895   3.763  -0.019   9.091 -0.1178 -0.0124  0.0380
  963MOL0     C29896   3.795  -0.134   9.036 -0.1698 -0.1365  0.1118
  963MOL0     C29897   3.926  -0.149   8.988  0.3053  0.0610  0.0044
  963MOL0     C29898   4.020  -0.043   8.976 -0.1404  0.1510 -0.0278
  963MOL0     C29899   4.155  -0.057   8.923 -0.7696  0.5366  0.4519
  963MOL0     O29900   4.239   0.052   8.920 -0.8062 -0.3962 -0.2755
  963MOL0     C29901   4.371   0.039   8.888 -0.4743  0.3473  0.4465
  963MOL0     C29902   4.419   0.121   8.787  0.2731 -0.1453 -0.2300
  963MOL0     C29903   4.559   0.116   8.750  0.5135 -0.4782  0.1434
  963MOL0     C29904   4.647   0.022   8.805 -0.0215  0.4633 -0.1523
  963MOL0     O29905   4.780   0.007   8.765  0.0597  0.2105  0.1822
  963MOL0     C29906   4.823  -0.122   8.719 -0.3943 -0.4900 -0.5184
  963MOL0     C29907   4.964  -0.120   8.653  0.5272 -0.6264 -0.4570
  963MOL0     C29908   5.071  -0.103   8.754  0.1790  0.7796 -0.2863
  963MOL0     C29909   5.211  -0.061   8.702  0.1726  0.2429 -0.3764
  963MOL0     C29910   5.323  -0.060   8.801 -0.7917  0.4480  0.6713
  963MOL0     C29911   5.450  -0.020   8.731 -0.2311 -0.3305 -0.3897
  963MOL0     C29912   5.583  -0.049   8.807 -0.2967 -0.0572 -0.2901
  963MOL0     C29913   5.697   0.008   8.727  0.8071  0.3976  0.0467
  963MOL0    Cl29914   5.841  -0.042   8.811  0.4858  0.0905 -0.3706
  963MOL0     C29915   4.593  -0.068   8.906 -0.0371 -0.3584 -0.1461
  963MOL0     C29916   4.457  -0.058   8.938  0.2573 -0.0166  0.7070
  963MOL0     O29917   4.177  -0.166   8.874  0.0585 -0.7469  0.4566
  963MOL0     C29918   3.974   0.084   9.019 -0.5216  0.8000 -0.1261
  963MOL0     C29919   3.847   0.095   9.079 -0.4842  0.2319  0.5759
  963MOL0     N29920   3.251   0.283   9.440 -0.3988 -0.1648 -0.5012
  963MOL0     N29921   3.222   0.262   9.564 -0.2275  0.0791  0.2521
  963MOL0     C29922   2.111   0.546   9.977  0.6028 -0.1862  0.1828
  963MOL0     C29923   1.978   0.581   9.997  0.6126 -0.0547  0.8668
  963MOL0     C29924   1.535   0.615  10.026  0.3516  0.1777 -0.7299
  963MOL0     C29925   1.498   0.567  10.150 -0.6128  0.7416  0.0086
  963MOL0     C29926   1.376   0.582  10.205 -0.0513  0.0968 -0.0440
  963MOL0     C29927   1.277   0.639  10.133  0.3134 -0.5571 -0.2459
  963MOL0     O29928   1.140   0.647  10.173  0.0960  0.1762 -0.3619
  963MOL0     C29929   1.064   0.537  10.212 -0.3578  0.1837 -0.5238
  963MOL0     C29930   0.984   0.481  10.097  0.0097 -0.1148 -0.4587
  963MOL0     C29931   0.887   0.376  10.144 -0.5296  0.6785  0.2759
  963MOL0     C29932   0.831   0.282  10.026  0.9433  0.0860 -0.0697
  963MOL0     C29933   0.742   0.352   9.936 -0.1518  0.0501  0.2972
  963MOL0     C29934   0.662   0.399   9.855 -0.5193  0.7996  0.5198
  963MOL0     C29935   1.305   0.706  10.017 -0.0969  0.2086 -0.3736
  963MOL0     C29936   1.429   0.700   9.962 -0.6164  0.6882 -0.5700
  963MOL0     C29937   1.460   0.786   9.851  0.6759 -0.2566  0.9202
  963MOL0     H29938   1.830   0.271  10.009 -0.8133  0.8954  0.0315
  963MOL0     H29939   2.073   0.213   9.965 -2.5842 -0.0451 -0.7617
  963MOL0     H29940   2.366   0.549   9.904 -1.6313 -1.7608 -1.8537
  963MOL0     H29941   2.352   0.521  10.080  1.9533  1.3125 -0.3816
  963MOL0     H29942   2.519   0.333  10.051  3.5328  0.1118  1.2173
  963MOL0     H29943   2.595   0.485  10.027  0.4450  0.5412 -1.0206
  963MOL0     H29944   2.518   0.444   9.771  0.3608  2.2482  0.3819
  963MOL0     H29945   2.508   0.283   9.832  0.3851  0.2917 -0.8171
  963MOL0     H29946   2.733   0.455   9.762 -0.8971 -0.1518  1.5351
  963MOL0     H29947   2.779   0.370   9.908  1.8775 -3.8743 -0.3020
  963MOL0     H29948   2.714   0.155   9.784  1.3813 -1.8279 -1.1507
  963MOL0     H29949   2.701   0.249   9.637  0.9523 -1.7319 -0.1234
  963MOL0     H29950   2.936   0.285   9.621  0.9853  1.2823  0.8077
  963MOL0     H29951   2.950   0.278   9.799  0.0716 -1.0762  0.4612
  963MOL0     H29952   2.904   0.029   9.642  1.1632  0.8100 -0.8408
  963MOL0     H29953   2.936   0.039   9.818  1.0756 -0.1925  0.0983
  963MOL0     H29954   3.166   0.125   9.781  1.2919 -1.7809 -0.2845
  963MOL0     H29955   3.132  -0.023   9.705 -0.9543 -0.4850  2.6245
  963MOL0     H29956   3.063   0.013   9.413 -0.8282 -0.4229  1.2368
  963MOL0     H29957   3.185   0.059   9.200 -1.1542  0.1191  3.0363
  963MOL0     H29958   3.129   0.223   9.156 -1.1815  0.5279  1.4580
  963MOL0     H29959   3.336   0.185   9.055 -0.8464  0.0872 -0.3473
  963MOL0     H29960   3.371   0.293   9.176 -0.6999  0.4136 -0.9031
  963MOL0     H29961   3.404  -0.014   9.185 -1.0537 -0.2531  2.0587
  963MOL0     H29962   3.444   0.103   9.321 -1.1165  1.9455 -0.2478
  963MOL0     H29963   3.616   0.192   9.191 -1.1477 -0.4084 -0.0626
  963MOL0     H29964   3.554   0.135   9.043 -2.0529  2.8040  0.6757
  963MOL0     H29965   3.727  -0.218   9.044 -1.4172  0.7966 -0.3027
  963MOL0     H29966   3.961  -0.247   8.958 -0.0270  0.1049 -0.5505
  963MOL0     H29967   4.342   0.185   8.744  1.1530  0.2852 -1.2244
  963MOL0     H29968   4.604   0.187   8.680  0.7248  2.1490  2.7762
  963MOL0     H29969   4.834  -0.184   8.808  2.8782  3.5197  2.2631
  963MOL0     H29970   4.752  -0.154   8.642 -0.8672 -0.7270  0.0083
  963MOL0     H29971   4.982  -0.212   8.597  0.7281  0.5946 -2.5018
  963MOL0     H29972   4.966  -0.042   8.576 -1.4706 -1.0234 -0.9706
  963MOL0     H29973   5.046  -0.021   8.822 -1.5057 -0.0752  0.1732
  963MOL0     H29974   5.081  -0.192   8.816  2.9788  1.7899  0.8674
  963MOL0     H29975   5.208   0.042   8.667  2.0120 -0.0719 -1.5652
  963MOL0     H29976   5.240  -0.126   8.619  1.0237 -2.2902  1.7368
  963MOL0     H29977   5.327  -0.161   8.843 -1.2586 -1.5070 -3.4535
  963MOL0     H29978   5.300   0.017   8.874 -2.3475  0.9511 -0.3007
  963MOL0     H29979   5.468  -0.079   8.640  0.1090 -0.3733 -0.2973
  963MOL0     H29980   5.450   0.088   8.713 -0.5729 -0.0857  0.9714
  963MOL0     H29981   5.606  -0.155   8.816  0.3186 -0.2468 -3.1292
  963MOL0     H29982   5.568  -0.009   8.907 -3.7196 -2.4052  0.3058
  963MOL0     H29983   5.687  -0.023   8.623  2.1553 -0.6919  0.2138
  963MOL0     H29984   5.690   0.117   8.727 -0.0681  0.3743  1.5210
  963MOL0     H29985   4.654  -0.142   8.956 -0.8987 -0.8117  0.2650
  963MOL0     H29986   4.412  -0.105   9.025  3.4640 -1.8585  1.5398
  963MOL0     H29987   4.042   0.168   9.014  1.5187 -0.5576  2.3483
  963MOL0     H29988   3.814   0.187   9.127 -1.6503  0.4856 -0.6521
  963MOL0     H29989   2.176   0.633   9.976 -0.2890  0.5051  0.4872
  963MOL0     H29990   1.953   0.686  10.008 -0.5749 -0.1802 -0.3568
  963MOL0     H29991   1.563   0.500  10.205 -2.5102  0.2041  1.7537
  963MOL0     H29992   1.350   0.528  10.295 -3.0402 -0.6660 -1.2329
  963MOL0     H29993   0.990   0.569  10.286  2.6475 -0.3902  2.9937
  963MOL0     H29994   1.127   0.460  10.257 -0.0556  0.5639 -0.2883
  963MOL0     H29995   1.045   0.452  10.011  2.8166  0.5571  1.1715
  963MOL0     H29996   0.921   0.565  10.065 -1.0699 -0.3985  0.8501
  963MOL0     H29997   0.815   0.407  10.220 -2.0654 -0.8934 -0.4769
  963MOL0     H29998   0.943   0.297  10.196 -3.0281 -1.8130 -0.6110
  963MOL0     H29999   0.911   0.231   9.971 -1.6181 -1.4886 -2.6488
  963MOL0     H30000   0.778   0.207  10.085  2.7131  1.1542  3.1200
  963MOL0     H30001   0.584   0.428   9.787 -0.1502  1.0647  0.2062
  963MOL0     H30002   1.229   0.772   9.978 -1.0629 -1.7944 -2.0512
  963MOL0     H30003   1.374   0.853   9.836 -0.5609 -2.0388 -0.2990
  963MOL0     H30004   1.546   0.849   9.876 -0.3354 -0.0971  4.6652
  963MOL0     H30005   1.476   0.717   9.768  0.0810  0.1856  0.4236
  964MOL0     O30006   7.747   4.336   8.533  0.1065 -0.1642  0.4429
  964MOL0     C30007   7.733   4.345   8.415 -0.1085  0.2821 -0.1307
  964MOL0     O30008   7.834   4.357   8.329  0.2536  0.7253  0.2075
  964MOL0     C30009   7.965   4.372   8.392  0.4008  0.1934 -0.2072
  964MOL0     C30010   7.998   4.479   8.470 -0.3496  0.1310  0.3882
  964MOL0     C30011   8.128   4.493   8.524 -0.2431  0.0444  0.1399
  964MOL0     C30012   8.222   4.387   8.496  0.3778 -0.8290 -0.2722
  964MOL0     O30013   8.359   4.384   8.531  0.6386 -0.0759  0.1279
  964MOL0     C30014   8.402   4.494   8.609  0.4017  0.0194 -0.3287
  964MOL0     C30015   8.525   4.436   8.686 -0.2342 -0.4115 -0.1247
  964MOL0     C30016   8.632   4.380   8.597 -1.1146 -0.3760  0.3193
  964MOL0     C30017   8.753   4.345   8.676  1.3164  0.4357 -0.5770
  964MOL0     C30018   8.862   4.285   8.577 -0.5399 -0.0234  0.2783
  964MOL0     C30019   8.990   4.286   8.667 -0.5622  0.0961 -0.1820
  964MOL0     C30020   9.103   4.249   8.568  0.5648  0.6176  0.4135
  964MOL0     C30021   9.219   4.171   8.637 -0.0956 -0.3352  0.6278
  964MOL0     N30022   9.318   4.112   8.544  0.4223 -0.4015 -0.6436
  964MOL0     C30023   9.288   4.053   8.424 -0.1223  0.9587 -0.1511
  964MOL0     C30024   9.409   4.019   8.378 -0.0450 -0.1170  0.1674
  964MOL0     C30025   9.414   3.969   8.232 -0.1460 -1.0219 -1.1722
  964MOL0     C30026   9.478   3.827   8.221 -0.4401  0.0991 -0.3646
  964MOL0     C30027   9.490   3.813   8.067 -0.9091  0.6261  0.5687
  964MOL0     C30028   9.477   3.669   8.009 -0.0961 -0.2593  0.6726
  964MOL0     O30029   9.503   3.664   7.865  0.4161 -0.0953 -0.2023
  964MOL0     C30030   9.629   3.697   7.824  0.2586  0.3492 -0.5182
  964MOL0     C30031   9.638   3.707   7.690  0.8867  0.1288  0.0679
  964MOL0     C30032   9.754   3.749   7.624  0.0144 -0.4307  0.5079
  964MOL0     C30033   9.873   3.781   7.699  0.5515 -0.2325  0.2307
  964MOL0     C30034   9.993   3.839   7.633  0.7552 -0.2435  0.2458
  964MOL0     O30035  10.082   3.900   7.718  0.5232  0.1497  0.0221
  964MOL0     C30036  10.214   3.917   7.674  1.0050 -0.7718  0.1481
  964MOL0     C30037  10.277   3.863   7.558 -0.5605 -0.4343 -0.5733
  964MOL0     C30038  10.414   3.887   7.541 -0.2106  0.1146 -1.2853
  964MOL0     C30039  10.489   3.954   7.640  0.1230  0.5358  0.3242
  964MOL0     O30040  10.624   3.958   7.643  0.1450  0.1739 -0.1404
  964MOL0     C30041  10.701   3.853   7.579  0.9732  0.3514 -0.1169
  964MOL0     C30042  10.691   3.735   7.672 -0.4140  0.7614 -0.0637
  964MOL0     C30043  10.775   3.744   7.800 -0.0930  0.4456  0.6575
  964MOL0     C30044  10.746   3.617   7.880  0.2775  0.0185  0.0556
  964MOL0     C30045  10.775   3.631   8.033 -0.5035 -0.2192 -0.8186
  964MOL0     C30046  10.922   3.638   8.061  0.2868 -0.2862 -0.2179
  964MOL0     C30047  10.953   3.611   8.213  0.1223  0.3011  1.4418
  964MOL0     C30048  11.040   3.699   8.286 -1.1202 -0.9072 -0.5710
  964MOL0    Cl30049  11.035   3.656   8.455  0.4690 -0.0001  0.6011
  964MOL0     C30050  10.424   4.009   7.745 -0.1907  0.2701  1.1238
  964MOL0     C30051  10.285   4.004   7.755  0.1553 -0.1892 -0.5347
  964MOL0     O30052   9.996   3.844   7.510 -0.4861  0.8119  0.3395
  964MOL0     C30053   9.870   3.758   7.836 -0.7499  0.1126  0.2465
  964MOL0     C30054   9.750   3.715   7.903 -0.3365 -0.5393  0.0129
  964MOL0     N30055   9.508   4.065   8.453  0.0373  0.0610  0.4060
  964MOL0     N30056   9.453   4.119   8.555  0.2645  0.3831  0.3538
  964MOL0     C30057   8.189   4.286   8.409  0.4537 -0.0942 -0.6331
  964MOL0     C30058   8.065   4.280   8.364  0.0980 -0.0107  0.2074
  964MOL0     C30059   7.591   4.314   8.373 -0.2024  0.4264 -0.3556
  964MOL0     C30060   7.496   4.306   8.476  0.1351  0.5738  0.6934
  964MOL0     C30061   7.365   4.265   8.452  0.8363  0.2700  0.0569
  964MOL0     C30062   7.326   4.252   8.314  0.4730  0.0746  0.9915
  964MOL0     O30063   7.200   4.222   8.261 -0.6385  0.2917  0.7757
  964MOL0     C30064   7.106   4.155   8.359  0.3865  0.3201 -0.4369
  964MOL0     C30065   6.973   4.128   8.299  0.6890  0.6999 -0.2450
  964MOL0     C30066   7.002   4.013   8.193  0.2307 -0.2344 -0.7089
  964MOL0     C30067   6.864   3.973   8.139 -0.3489 -0.1437 -0.6708
  964MOL0     C30068   6.799   3.889   8.240 -0.0836 -0.0981  0.4171
  964MOL0     C30069   6.761   3.798   8.313  0.2866 -0.2521  0.5504
  964MOL0     C30070   7.414   4.270   8.214 -0.3361 -0.1523  0.2790
  964MOL0     C30071   7.546   4.310   8.234  0.0457  0.5344 -0.6826
  964MOL0     C30072   7.633   4.336   8.112 -0.2852  0.3738 -0.2078
  964MOL0     H30073   7.915   4.547   8.488  0.2668  1.7611 -2.2764
  964MOL0     H30074   8.149   4.573   8.595 -0.3718 -0.1173  0.3639
  964MOL0     H30075   8.434   4.583   8.555  1.6803 -0.9277 -1.1812
  964MOL0     H30076   8.333   4.521   8.690 -4.1407 -3.8267 -2.3892
  964MOL0     H30077   8.499   4.360   8.761 -1.0161  0.2717  0.3273
  964MOL0     H30078   8.557   4.518   8.751 -1.1641 -0.5427  0.5284
  964MOL0     H30079   8.662   4.460   8.529  0.6001 -1.0525  0.2332
  964MOL0     H30080   8.610   4.290   8.539 -1.5636  0.2106 -0.4453
  964MOL0     H30081   8.797   4.435   8.719 -1.2968  2.3771 -1.6982
  964MOL0     H30082   8.721   4.285   8.762 -1.3093  2.9478  0.3433
  964MOL0     H30083   8.840   4.188   8.531 -0.6984  0.0659  0.1637
  964MOL0     H30084   8.869   4.355   8.493  1.1139  0.4825  0.8093
  964MOL0     H30085   9.018   4.379   8.718 -1.1082  0.7587 -1.0467
  964MOL0     H30086   8.982   4.209   8.744 -1.0144 -0.1396 -0.4629
  964MOL0     H30087   9.125   4.338   8.508 -1.3976  0.5933 -0.4312
  964MOL0     H30088   9.053   4.179   8.499 -0.5575 -2.1036  3.7205
  964MOL0     H30089   9.262   4.237   8.712 -1.9405  0.3206  1.1556
  964MOL0     H30090   9.170   4.088   8.689 -1.2810 -0.8729 -1.2505
  964MOL0     H30091   9.193   4.030   8.378 -0.9360  1.1287  1.3648
  964MOL0     H30092   9.313   3.959   8.190 -0.9486 -1.6412  0.7738
  964MOL0     H30093   9.467   4.046   8.176  1.4627  0.0256  1.6048
  964MOL0     H30094   9.576   3.822   8.270 -1.9478 -2.0075  2.7255
  964MOL0     H30095   9.410   3.753   8.264  2.1835 -1.0224  2.1959
  964MOL0     H30096   9.581   3.861   8.031  0.9878 -2.4131  0.9601
  964MOL0     H30097   9.402   3.855   8.018 -0.9086 -0.7722 -0.6996
  964MOL0     H30098   9.375   3.638   8.035  0.1448 -0.0700  1.9383
  964MOL0     H30099   9.550   3.603   8.058 -0.5596 -1.6809 -0.4922
  964MOL0     H30100   9.551   3.698   7.625 -0.2434  3.7555  0.8247
  964MOL0     H30101   9.746   3.756   7.516  2.6674  0.5306  0.2989
  964MOL0     H30102  10.236   3.787   7.491  1.4313 -2.0841 -0.0249
  964MOL0     H30103  10.460   3.851   7.450  0.5842  0.9120 -1.2219
  964MOL0     H30104  10.662   3.835   7.479 -1.2866 -1.1883  0.9388
  964MOL0     H30105  10.804   3.887   7.568  1.8237 -2.2934 -1.1722
  964MOL0     H30106  10.587   3.705   7.686 -0.3787 -0.5770 -2.1846
  964MOL0     H30107  10.727   3.649   7.614 -1.4384 -0.3361  0.8974
  964MOL0     H30108  10.880   3.754   7.771  0.9612  2.2226  4.4063
  964MOL0     H30109  10.754   3.833   7.860 -0.6112  1.4202 -0.9127
  964MOL0     H30110  10.789   3.535   7.822 -2.6822  0.0270 -2.3798
  964MOL0     H30111  10.638   3.601   7.877  0.0495  1.4616 -0.0367
  964MOL0     H30112  10.734   3.543   8.083 -1.0562 -0.4479 -1.6583
  964MOL0     H30113  10.734   3.719   8.083  0.1074  1.8023 -3.5977
  964MOL0     H30114  10.978   3.568   7.998  2.0276  2.4150 -1.8697
  964MOL0     H30115  10.958   3.736   8.028  2.2669  0.1288  2.7564
  964MOL0     H30116  10.987   3.507   8.211 -0.9200 -0.1479 -2.7832
  964MOL0     H30117  10.862   3.618   8.272 -0.8025  1.7596 -0.0634
  964MOL0     H30118  11.143   3.679   8.256 -0.8650  0.7081 -0.8624
  964MOL0     H30119  11.010   3.803   8.272  1.8367  0.2614  1.0361
  964MOL0     H30120  10.485   4.061   7.819 -0.1535  1.1813  0.4763
  964MOL0     H30121  10.240   4.049   7.843  0.6709  1.1938 -0.9483
  964MOL0     H30122   9.960   3.770   7.896 -1.0029  0.8111  0.4956
  964MOL0     H30123   9.747   3.689   8.009  1.8208  1.1048  0.5448
  964MOL0     H30124   8.265   4.217   8.374 -1.0264 -2.5200  0.6647
  964MOL0     H30125   8.033   4.199   8.298  1.4213 -1.7280  1.5733
  964MOL0     H30126   7.520   4.314   8.582  1.9039 -0.7242  0.4290
  964MOL0     H30127   7.298   4.261   8.538 -0.4658  1.9848 -0.8221
  964MOL0     H30128   7.090   4.227   8.440 -2.3283  2.4194 -2.6588
  964MOL0     H30129   7.146   4.057   8.387 -0.0420 -1.3362 -4.8355
  964MOL0     H30130   6.945   4.210   8.233 -0.7554 -0.5460 -1.2556
  964MOL0     H30131   6.889   4.118   8.368 -0.4404 -1.0605 -1.7689
  964MOL0     H30132   7.053   3.929   8.242 -2.8826 -1.1085  1.3035
  964MOL0     H30133   7.071   4.047   8.115 -2.3215  1.3169 -2.4280
  964MOL0     H30134   6.797   4.059   8.128 -2.6727 -1.8018 -0.3370
  964MOL0     H30135   6.877   3.912   8.048  2.7572  0.8472 -1.0017
  964MOL0     H30136   6.721   3.721   8.376  1.0828 -2.8017 -1.8908
  964MOL0     H30137   7.377   4.254   8.113  2.2345  0.9869 -0.9374
  964MOL0     H30138   7.693   4.427   8.121  0.5898 -0.3207  1.2164
  964MOL0     H30139   7.708   4.258   8.095 -2.1009 -1.6064  0.4301
  964MOL0     H30140   7.569   4.347   8.024 -1.0042  1.6165  0.4342
  965MOL0     O30141   5.942   2.707   4.487  0.4443 -0.2117  0.5625
  965MOL0     C30142   5.919   2.688   4.370  0.0286  0.1889  0.2865
  965MOL0     O30143   6.011   2.690   4.268 -0.0091  0.0672 -0.0950
  965MOL0     C30144   6.146   2.684   4.285 -0.0123  0.1226  0.7777
  965MOL0     C30145   6.217   2.707   4.168 -0.7298  0.1462  0.2665
  965MOL0     C30146   6.350   2.676   4.155 -0.1365 -0.0852 -0.2186
  965MOL0     C30147   6.422   2.647   4.275  0.4014  0.1025  0.8539
  965MOL0     O30148   6.551   2.606   4.281  0.0641 -0.2342  1.2869
  965MOL0     C30149   6.630   2.599   4.160 -0.2970 -0.5171 -0.1808
  965MOL0     C30150   6.763   2.564   4.201 -0.3701 -0.1874 -0.0090
  965MOL0     C30151   6.856   2.545   4.080 -0.8259 -0.8533  0.2226
  965MOL0     C30152   7.007   2.566   4.122  0.5525 -0.0952 -0.3586
  965MOL0     C30153   7.098   2.501   4.012 -0.3857  0.1076 -0.4279
  965MOL0     C30154   7.247   2.544   4.035 -0.1818  0.2497  0.0791
  965MOL0     C30155   7.339   2.484   3.930 -0.1535  0.8152  0.4238
  965MOL0     C30156   7.386   2.352   3.987 -0.7260 -0.2102  0.1138
  965MOL0     N30157   7.500   2.291   3.919 -0.1027 -0.0967  0.2778
  965MOL0     C30158   7.623   2.350   3.898 -0.6090 -0.4670 -0.1643
  965MOL0     C30159   7.700   2.253   3.854 -0.3837  0.1222  0.7907
  965MOL0     C30160   7.842   2.279   3.804 -0.0943 -0.5611  0.0772
  965MOL0     C30161   7.909   2.159   3.746 -0.1503 -0.1038  0.2989
  965MOL0     C30162   8.058   2.163   3.753  0.5788  0.4792  0.2077
  965MOL0     C30163   8.120   2.019   3.737  0.1324 -0.1014 -0.8642
  965MOL0     O30164   8.107   1.978   3.600  0.0533  0.3816 -0.5746
  965MOL0     C30165   8.216   1.908   3.552 -0.7396 -0.2669  0.2779
  965MOL0     C30166   8.204   1.775   3.529 -0.3608  0.3992 -0.4619
  965MOL0     C30167   8.295   1.697   3.463 -0.2236  0.2704  0.9334
  965MOL0     C30168   8.422   1.748   3.428 -0.4044 -0.7278 -0.1202
  965MOL0     C30169   8.527   1.665   3.374  0.2532  1.4494  0.2258
  965MOL0     O30170   8.646   1.722   3.350 -0.0330  0.1315  0.4959
  965MOL0     C30171   8.757   1.640   3.346  0.4505  0.4470  0.0816
  965MOL0     C30172   8.846   1.648   3.450  0.9399 -0.1515 -0.3198
  965MOL0     C30173   8.973   1.594   3.448 -0.0871  1.0789 -0.2154
  965MOL0     C30174   9.008   1.511   3.336  0.0852 -0.1583 -0.0217
  965MOL0     O30175   9.137   1.461   3.332  0.1886 -0.8684  0.2449
  965MOL0     C30176   9.178   1.378   3.222  0.4889  0.1384  0.1270
  965MOL0     C30177   9.319   1.327   3.242 -0.1435  0.6408  0.5331
  965MOL0     C30178   9.317   1.215   3.346  0.8167 -0.2326  0.1735
  965MOL0     C30179   9.456   1.169   3.386  0.3990 -0.9211  0.1096
  965MOL0     C30180   9.469   1.039   3.472  0.5094  0.0629  0.2697
  965MOL0     C30181   9.607   1.027   3.534  0.2508 -0.3753  0.3123
  965MOL0     C30182   9.615   0.892   3.608 -0.7835  0.6393 -0.4500
  965MOL0     C30183   9.721   0.883   3.719 -0.9508 -0.6659  0.1322
  965MOL0    Cl30184   9.686   0.990   3.857 -0.4415  0.2812 -0.1936
  965MOL0     C30185   8.907   1.484   3.237  0.6908  0.6990  0.6095
  965MOL0     C30186   8.787   1.555   3.246  0.5853  0.2685  0.1635
  965MOL0     O30187   8.495   1.542   3.361  0.1245 -0.0809 -0.4529
  965MOL0     C30188   8.446   1.889   3.464  0.9173  0.8843  0.4340
  965MOL0     C30189   8.343   1.958   3.521  0.4303  0.1004  0.1447
  965MOL0     N30190   7.625   2.137   3.843 -0.1606 -0.3237 -0.8318
  965MOL0     N30191   7.507   2.159   3.885  0.0436  0.1899  0.8119
  965MOL0     C30192   6.356   2.653   4.403  0.6354  0.2986  0.1501
  965MOL0     C30193   6.217   2.658   4.402  0.4037  0.3369 -0.1281
  965MOL0     C30194   5.774   2.688   4.324 -0.2149 -0.2473 -0.6869
  965MOL0     C30195   5.752   2.732   4.190 -0.7978  0.3650 -1.0525
  965MOL0     C30196   5.622   2.719   4.138  0.3597 -0.6706 -0.0915
  965MOL0     C30197   5.514   2.666   4.209 -0.7901 -0.6452 -0.8195
  965MOL0     O30198   5.392   2.630   4.164 -0.5035  0.0800 -0.2179
  965MOL0     C30199   5.349   2.673   4.033  0.1204  0.3037 -0.2046
  965MOL0     C30200   5.269   2.565   3.963  0.6149 -0.5025  0.5367
  965MOL0     C30201   5.365   2.463   3.903 -0.7655  0.2900  0.8768
  965MOL0     C30202   5.307   2.374   3.785 -0.1695 -0.9229 -0.1612
  965MOL0     C30203   5.193   2.294   3.840 -0.0069 -0.0957  0.0056
  965MOL0     C30204   5.104   2.237   3.896  0.8178 -0.5948 -0.1336
  965MOL0     C30205   5.546   2.622   4.345  0.2570 -0.8424 -0.3833
  965MOL0     C30206   5.674   2.634   4.400  0.1658 -0.2694  0.4560
  965MOL0     C30207   5.684   2.564   4.539  0.0456 -0.1403  0.0523
  965MOL0     H30208   6.150   2.737   4.087 -2.0323 -1.8259  0.5369
  965MOL0     H30209   6.390   2.676   4.055  1.7717 -0.0260  0.5022
  965MOL0     H30210   6.600   2.523   4.087  1.9764 -2.0822  0.4061
  965MOL0     H30211   6.622   2.695   4.108  1.2711 -0.5285 -0.4955
  965MOL0     H30212   6.771   2.470   4.255  2.4530 -1.5027 -2.4135
  965MOL0     H30213   6.790   2.648   4.266  1.3386  0.7703 -1.8532
  965MOL0     H30214   6.841   2.616   3.998  0.5245 -1.7158 -0.7987
  965MOL0     H30215   6.843   2.446   4.036 -1.8575  0.3837 -2.5024
  965MOL0     H30216   7.025   2.671   4.146 -0.3692  0.1260 -0.6332
  965MOL0     H30217   7.021   2.515   4.218 -0.9874  1.1725  0.5770
  965MOL0     H30218   7.079   2.394   4.024 -0.9271  0.3479  1.0939
  965MOL0     H30219   7.068   2.531   3.911 -0.8884  0.8906 -0.0564
  965MOL0     H30220   7.254   2.654   4.035 -1.4886  0.3658 -1.2184
  965MOL0     H30221   7.270   2.516   4.138  0.3633 -0.9895 -0.3658
  965MOL0     H30222   7.425   2.548   3.908 -0.5919  1.5712  0.8834
  965MOL0     H30223   7.291   2.468   3.833 -1.0753  1.1227  0.8148
  965MOL0     H30224   7.409   2.363   4.093 -0.4016  2.0089 -0.1455
  965MOL0     H30225   7.297   2.289   3.976 -0.5041 -0.1413 -2.8881
  965MOL0     H30226   7.655   2.454   3.902 -1.0512 -0.3557  1.9302
  965MOL0     H30227   7.842   2.361   3.733  1.6705 -1.7222 -1.3709
  965MOL0     H30228   7.895   2.318   3.892  2.8789 -2.0974 -0.8840
  965MOL0     H30229   7.877   2.066   3.795 -0.1377 -1.1328 -1.5616
  965MOL0     H30230   7.880   2.146   3.641  2.4012  0.9412 -0.6100
  965MOL0     H30231   8.097   2.209   3.844  2.5833 -0.7897  0.0494
  965MOL0     H30232   8.096   2.229   3.675 -2.1015  2.2533  0.2845
  965MOL0     H30233   8.078   1.945   3.805 -0.5527 -2.1946 -3.3967
  965MOL0     H30234   8.224   2.024   3.771 -0.4159  0.2315  0.8412
  965MOL0     H30235   8.108   1.727   3.547 -0.3674  0.3869 -0.5256
  965MOL0     H30236   8.279   1.593   3.435  1.5375  0.6658 -2.0352
  965MOL0     H30237   8.819   1.702   3.540 -0.1110 -0.4730 -0.4331
  965MOL0     H30238   9.051   1.620   3.518 -1.2389  1.3402  1.0235
  965MOL0     H30239   9.110   1.294   3.203  0.1545  0.7933 -1.7681
  965MOL0     H30240   9.181   1.449   3.139  0.0831  1.0128  0.8541
  965MOL0     H30241   9.352   1.278   3.150  0.2080  0.1441  0.9130
  965MOL0     H30242   9.387   1.406   3.276 -1.1204  1.7253 -0.0085
  965MOL0     H30243   9.254   1.252   3.427  0.4578  2.7295 -1.2997
  965MOL0     H30244   9.250   1.134   3.317 -0.7873  0.9130  0.5349
  965MOL0     H30245   9.491   1.252   3.448 -1.4958  0.1436 -0.1680
  965MOL0     H30246   9.525   1.158   3.301 -1.6152 -2.0216 -1.4774
  965MOL0     H30247   9.444   0.957   3.404  4.1688 -0.6013 -0.4897
  965MOL0     H30248   9.393   1.042   3.551 -1.2882 -1.2157 -1.3194
  965MOL0     H30249   9.682   1.025   3.454 -0.2035  0.8610 -0.1671
  965MOL0     H30250   9.617   1.110   3.604 -1.7054 -2.1758  2.9162
  965MOL0     H30251   9.636   0.808   3.541  0.4613 -2.6545  3.6395
  965MOL0     H30252   9.516   0.874   3.651 -0.6002 -0.7756 -0.5675
  965MOL0     H30253   9.720   0.780   3.755  2.4605 -0.4518  1.2008
  965MOL0     H30254   9.819   0.891   3.670 -0.5489 -3.9119  0.1603
  965MOL0     H30255   8.929   1.417   3.155  3.7138  0.9132  1.1245
  965MOL0     H30256   8.720   1.554   3.160 -0.2540  1.3266  0.7778
  965MOL0     H30257   8.539   1.939   3.440  0.2199  1.1370 -2.0097
  965MOL0     H30258   8.367   2.060   3.547  0.8013  0.2106 -0.5962
  965MOL0     H30259   6.397   2.637   4.502  0.6530 -3.0013 -0.2832
  965MOL0     H30260   6.169   2.640   4.498  0.8058 -1.1619 -0.1959
  965MOL0     H30261   5.834   2.776   4.133  2.0628  0.7803  2.9584
  965MOL0     H30262   5.621   2.753   4.035 -1.3734 -1.7237 -0.4684
  965MOL0     H30263   5.431   2.695   3.965 -0.1157  0.8040 -0.3306
  965MOL0     H30264   5.297   2.766   4.055  0.9385  0.8160 -0.4178
  965MOL0     H30265   5.204   2.605   3.884  1.1304 -0.5112  0.1033
  965MOL0     H30266   5.197   2.513   4.027 -0.9912  1.0294  0.0445
  965MOL0     H30267   5.424   2.404   3.974  1.2458  1.6808  0.4546
  965MOL0     H30268   5.441   2.517   3.847 -0.8596  1.4405  1.8199
  965MOL0     H30269   5.280   2.441   3.703 -2.1914 -0.8236  0.5214
  965MOL0     H30270   5.387   2.306   3.757 -2.0742 -2.9963 -0.8993
  965MOL0     H30271   5.018   2.199   3.948  1.2951 -2.0527 -0.3728
  965MOL0     H30272   5.461   2.584   4.400  1.2219 -2.4967  0.0316
  965MOL0     H30273   5.785   2.522   4.541 -0.2815 -0.8904  1.2022
  965MOL0     H30274   5.681   2.637   4.621 -1.2041 -1.7407  1.4887
  965MOL0     H30275   5.607   2.490   4.562  3.0968 -2.8189  2.6698
  966MOL0     O30276   2.898   6.236   9.855  0.0256 -0.2207 -0.0810
  966MOL0     C30277   2.841   6.186   9.759  0.5268  0.3542 -0.0371
  966MOL0     O30278   2.885   6.068   9.694 -0.2383  0.2515  0.2233
  966MOL0     C30279   3.016   6.027   9.714  0.2582  1.0435 -0.1525
  966MOL0     C30280   3.102   6.001   9.608 -0.5290  0.6343 -0.0189
  966MOL0     C30281   3.233   5.976   9.633 -0.4776 -0.2808 -0.2334
  966MOL0     C30282   3.280   5.967   9.768  0.5522  1.1061 -0.3864
  966MOL0     O30283   3.411   5.938   9.797 -0.0236  0.5810 -0.3850
  966MOL0     C30284   3.454   5.878   9.924 -0.6703  0.4015 -1.0102
  966MOL0     C30285   3.611   5.881   9.929  0.2870 -0.0703 -0.6248
  966MOL0     C30286   3.683   5.793   9.826  0.5805  0.2367  0.6598
  966MOL0     C30287   3.827   5.757   9.855 -0.0595 -0.2577  0.0206
  966MOL0     C30288   3.918   5.882   9.845 -0.1411  0.8620  0.3987
  966MOL0     C30289   4.068   5.868   9.871 -0.4880 -0.4914 -0.6947
  966MOL0     C30290   4.155   5.990   9.898  0.2744 -0.4456 -0.2704
  966MOL0     C30291   4.288   5.952   9.959  0.5154 -0.1618 -0.4004
  966MOL0     N30292   4.379   5.892   9.863 -0.3070  0.7561 -0.6213
  966MOL0     C30293   4.447   5.949   9.758  0.6999 -0.1028  0.9265
  966MOL0     C30294   4.522   5.849   9.708 -0.0373 -0.2260  0.0623
  966MOL0     C30295   4.618   5.866   9.598 -0.3923  0.4031 -0.5067
  966MOL0     C30296   4.758   5.807   9.636 -0.6776  0.0547 -0.4595
  966MOL0     C30297   4.847   5.807   9.505  0.2504  0.1744 -0.5381
  966MOL0     C30298   4.963   5.703   9.509  0.3351  0.2907 -0.0450
  966MOL0     O30299   5.056   5.721   9.404 -0.4931  0.2252 -0.3422
  966MOL0     C30300   5.182   5.758   9.440 -0.0197 -0.1808  0.8660
  966MOL0     C30301   5.220   5.889   9.450 -0.9604  0.0275 -0.5686
  966MOL0     C30302   5.357   5.924   9.471  0.3181  0.0797 -0.2522
  966MOL0     C30303   5.455   5.830   9.514  0.2343 -0.1410 -0.8045
  966MOL0     C30304   5.599   5.864   9.538 -0.1382  0.0711 -0.9699
  966MOL0     O30305   5.626   6.003   9.538  0.2495 -0.6596 -0.5846
  966MOL0     C30306   5.754   6.039   9.579 -0.0466 -0.0608  0.1076
  966MOL0     C30307   5.869   6.014   9.510 -0.4031  0.9152 -0.8982
  966MOL0     C30308   5.997   6.052   9.562 -0.6671 -0.4086  0.5604
  966MOL0     C30309   6.015   6.107   9.684 -0.6663 -0.2819 -0.4819
  966MOL0     O30310   6.145   6.137   9.720 -0.2999 -0.1790 -0.2014
  966MOL0     C30311   6.159   6.188   9.851 -0.5098 -0.1980 -0.6174
  966MOL0     C30312   6.312   6.162   9.884  1.1848 -0.5151  0.2188
  966MOL0     C30313   6.387   6.263   9.802 -0.3813 -0.3959 -0.0903
  966MOL0     C30314   6.543   6.259   9.810  0.1177  0.2742  0.6016
  966MOL0     C30315   6.610   6.397   9.785  0.2926  0.6147  0.7987
  966MOL0     C30316   6.554   6.474   9.670 -0.0204  0.4231 -0.0768
  966MOL0     C30317   6.664   6.581   9.627 -0.2376 -1.0204 -0.6589
  966MOL0     C30318   6.630   6.672   9.506 -0.5120  0.4288  0.7785
  966MOL0    Cl30319   6.765   6.790   9.473 -0.2696 -0.2831  0.1708
  966MOL0     C30320   5.897   6.132   9.758 -0.1131 -0.4912  0.2002
  966MOL0     C30321   5.768   6.103   9.699  0.8447 -0.0980 -0.0727
  966MOL0     O30322   5.679   5.776   9.561 -0.4182  0.2453 -0.0508
  966MOL0     C30323   5.407   5.696   9.515  0.4384 -0.7615  0.3152
  966MOL0     C30324   5.275   5.661   9.473 -0.9924 -0.0227  1.7094
  966MOL0     N30325   4.489   5.738   9.775 -0.4120 -0.3148  0.4581
  966MOL0     N30326   4.399   5.759   9.866  0.2913 -0.4912  0.7758
  966MOL0     C30327   3.189   5.970   9.877  0.9330 -0.0735  0.2312
  966MOL0     C30328   3.053   6.004   9.847 -0.9531  0.1636  0.1356
  966MOL0     C30329   2.715   6.242   9.696 -0.4052  0.4293 -0.2663
  966MOL0     C30330   2.663   6.183   9.580  1.1781  0.1988 -0.3400
  966MOL0     C30331   2.538   6.226   9.533  0.2328 -0.5062 -0.3263
  966MOL0     C30332   2.471   6.333   9.588 -0.0921 -0.1061  0.8211
  966MOL0     O30333   2.354   6.395   9.558  0.5009  0.7848 -0.5726
  966MOL0     C30334   2.292   6.349   9.443 -0.4514 -0.2861  0.0356
  966MOL0     C30335   2.174   6.444   9.407  0.2356  0.6551  0.5487
  966MOL0     C30336   2.094   6.498   9.526  0.2490 -0.3293 -0.1163
  966MOL0     C30337   2.165   6.622   9.587  0.3735 -0.0187  0.3028
  966MOL0     C30338   2.145   6.625   9.733 -0.1081 -0.4569  0.1857
  966MOL0     C30339   2.139   6.663   9.847 -0.4333  0.0504  0.0693
  966MOL0     C30340   2.533   6.398   9.696  0.9221 -0.2285  0.3849
  966MOL0     C30341   2.642   6.350   9.767  0.1521 -0.3733 -0.6841
  966MOL0     C30342   2.692   6.423   9.887  0.8303  0.3966  0.1257
  966MOL0     H30343   3.068   6.009   9.505  4.8256  1.8553 -2.0711
  966MOL0     H30344   3.302   5.978   9.549  1.0165  1.2232  0.9541
  966MOL0     H30345   3.416   5.931  10.013  0.0378 -0.7232 -0.0049
  966MOL0     H30346   3.423   5.773   9.926 -0.8570  0.4035  2.3779
  966MOL0     H30347   3.634   5.852  10.032  2.8340  5.1260  0.5976
  966MOL0     H30348   3.643   5.984   9.914  3.1430 -0.7016  0.5105
  966MOL0     H30349   3.684   5.849   9.732  0.2120 -1.6303 -0.5241
  966MOL0     H30350   3.628   5.698   9.818  1.6435 -0.3467  0.0581
  966MOL0     H30351   3.845   5.703   9.948 -0.2876 -4.4700 -2.1456
  966MOL0     H30352   3.853   5.689   9.773 -2.1088 -0.1290 -0.8122
  966MOL0     H30353   3.910   5.941   9.753  1.8416  0.7483  0.0956
  966MOL0     H30354   3.887   5.948   9.926 -0.7984 -1.3839  2.0849
  966MOL0     H30355   4.080   5.794   9.951  1.4273  0.7065  0.2056
  966MOL0     H30356   4.115   5.816   9.788  2.1179  2.0799 -0.9879
  966MOL0     H30357   4.098   6.060   9.959 -1.8284 -0.8705 -1.6722
  966MOL0     H30358   4.169   6.038   9.801 -1.3015 -0.5325 -0.5556
  966MOL0     H30359   4.330   6.045   9.999  0.9668 -0.4171 -0.2678
  966MOL0     H30360   4.271   5.887  10.046  2.4482  1.2746  1.1611
  966MOL0     H30361   4.457   6.056   9.741  1.9303 -0.6523 -2.5551
  966MOL0     H30362   4.586   5.821   9.503  0.1675 -0.2317 -0.3950
  966MOL0     H30363   4.633   5.974   9.597 -2.4842  0.8105  1.8585
  966MOL0     H30364   4.795   5.875   9.713 -2.3003  1.2080 -0.6496
  966MOL0     H30365   4.757   5.706   9.678  1.6427 -0.4690 -1.4881
  966MOL0     H30366   4.889   5.907   9.493 -0.1057  0.1156 -2.8044
  966MOL0     H30367   4.789   5.778   9.416 -0.5598 -0.8721  0.3134
  966MOL0     H30368   4.927   5.600   9.504  0.4812  0.0175  2.7798
  966MOL0     H30369   5.021   5.705   9.601  0.8958 -2.1498 -0.2792
  966MOL0     H30370   5.153   5.971   9.427  1.1002  1.0076 -3.6742
  966MOL0     H30371   5.384   6.029   9.478 -1.6174  0.5008  2.5707
  966MOL0     H30372   5.866   5.948   9.424 -0.2701 -1.7859  1.0268
  966MOL0     H30373   6.087   6.022   9.507 -2.2275  0.8311 -2.9959
  966MOL0     H30374   6.128   6.292   9.861  0.2220  0.0102 -0.4766
  966MOL0     H30375   6.099   6.124   9.916 -0.6564  1.6715  1.1702
  966MOL0     H30376   6.342   6.190   9.986 -1.6656  1.1797  0.7039
  966MOL0     H30377   6.333   6.056   9.864 -0.9714 -1.3155  1.7754
  966MOL0     H30378   6.362   6.252   9.696 -3.8303  0.2117  0.5474
  966MOL0     H30379   6.354   6.363   9.828  0.2988 -0.2469  0.2307
  966MOL0     H30380   6.581   6.185   9.738  0.6177 -0.5002  1.6409
  966MOL0     H30381   6.570   6.225   9.910 -0.4583  0.7038  0.9018
  966MOL0     H30382   6.719   6.390   9.778  0.2033 -0.7050  0.6060
  966MOL0     H30383   6.605   6.461   9.874  1.8030  0.9764  0.6473
  966MOL0     H30384   6.547   6.406   9.585  1.7423 -1.9210  1.5147
  966MOL0     H30385   6.455   6.518   9.684 -0.9308 -0.8607 -2.0558
  966MOL0     H30386   6.760   6.535   9.604  0.0321 -1.7081  1.6283
  966MOL0     H30387   6.690   6.639   9.716  3.9456  0.1562 -2.4307
  966MOL0     H30388   6.618   6.625   9.408  1.1030 -0.4961  0.9940
  966MOL0     H30389   6.540   6.729   9.531  0.8664  3.2960 -0.3330
  966MOL0     H30390   5.912   6.170   9.859  2.4495  0.3061 -0.4158
  966MOL0     H30391   5.678   6.118   9.757  1.3658  1.0545  0.4612
  966MOL0     H30392   5.477   5.620   9.548  1.6392 -0.8453 -2.2408
  966MOL0     H30393   5.241   5.558   9.471 -0.8431 -0.0631 -0.6569
  966MOL0     H30394   3.204   5.971   9.984 -2.3110 -2.6607  0.8473
  966MOL0     H30395   2.992   6.024   9.935 -0.5782 -2.4049  1.0787
  966MOL0     H30396   2.710   6.104   9.522  0.6958  0.3318 -0.9156
  966MOL0     H30397   2.495   6.163   9.455 -0.6134  0.9711 -1.0934
  966MOL0     H30398   2.249   6.250   9.462  2.4568 -1.5295  0.6799
  966MOL0     H30399   2.353   6.353   9.352  0.2382 -1.4805  0.4184
  966MOL0     H30400   2.103   6.393   9.341  1.6028 -2.6817  1.4429
  966MOL0     H30401   2.212   6.527   9.347 -0.6341  0.2294 -0.6333
  966MOL0     H30402   2.084   6.420   9.601  0.9446  1.3651  1.8381
  966MOL0     H30403   1.994   6.521   9.489 -1.3165  0.6933  4.1923
  966MOL0     H30404   2.273   6.614   9.574  0.5813 -1.3047  2.3372
  966MOL0     H30405   2.125   6.716   9.548  0.2936 -0.0884  0.2159
  966MOL0     H30406   2.118   6.698   9.946  1.0496 -0.6929  0.6723
  966MOL0     H30407   2.475   6.478   9.740  2.3322  0.1785  1.5877
  966MOL0     H30408   2.767   6.500   9.868 -1.9748  3.6889  1.2419
  966MOL0     H30409   2.618   6.493   9.926  0.9946 -0.7629  2.7171
  966MOL0     H30410   2.713   6.359   9.974 -1.0430 -1.4246 -0.6796
  967MOL0     O30411   2.086   9.072   0.982 -0.1270 -0.1802 -0.0774
  967MOL0     C30412   2.052   8.971   0.938  0.4099  0.7948 -0.9969
  967MOL0     O30413   2.115   8.847   0.954  0.0435 -0.2195 -0.2797
  967MOL0     C30414   2.243   8.824   1.004  0.0390  0.1228 -0.0671
  967MOL0     C30415   2.289   8.693   0.995 -0.3003 -0.6912 -0.1089
  967MOL0     C30416   2.416   8.655   1.048 -0.2972 -0.9008  0.1731
  967MOL0     C30417   2.507   8.751   1.089 -0.7102 -0.6366  0.9198
  967MOL0     O30418   2.632   8.702   1.125  0.5322 -0.6138 -0.1457
  967MOL0     C30419   2.727   8.809   1.157 -0.2319  0.2602 -0.3382
  967MOL0     C30420   2.868   8.740   1.183 -0.7805  0.0847 -0.6455
  967MOL0     C30421   2.980   8.822   1.248  0.0492  0.3608 -0.5939
  967MOL0     C30422   3.111   8.737   1.266  1.3553 -0.5682  0.7294
  967MOL0     C30423   3.204   8.804   1.364 -0.8848  0.9921 -0.2968
  967MOL0     C30424   3.334   8.721   1.391 -0.1919 -1.0940 -0.9118
  967MOL0     C30425   3.451   8.760   1.296 -0.3444  0.3429  0.2790
  967MOL0     C30426   3.576   8.690   1.348 -0.3848  0.2074  0.2961
  967MOL0     N30427   3.695   8.678   1.274 -0.1869  0.0134 -0.4445
  967MOL0     C30428   3.723   8.570   1.191  0.1303  0.0776  0.1594
  967MOL0     C30429   3.850   8.573   1.162  0.4988  0.4043 -0.4323
  967MOL0     C30430   3.933   8.471   1.081  0.5204  0.0720 -0.7926
  967MOL0     C30431   4.065   8.437   1.143  0.1470 -0.5269 -0.0611
  967MOL0     C30432   4.060   8.380   1.291  0.0705 -0.3210 -0.1691
  967MOL0     C30433   4.195   8.307   1.330 -0.3654 -1.0632  1.0798
  967MOL0     O30434   4.306   8.396   1.286 -0.0855 -0.1206  0.5775
  967MOL0     C30435   4.432   8.351   1.301 -0.1346  0.0844 -0.1028
  967MOL0     C30436   4.465   8.219   1.293 -0.2830  0.5200  0.5362
  967MOL0     C30437   4.597   8.186   1.295 -0.2320  0.1441  0.4558
  967MOL0     C30438   4.696   8.267   1.339 -0.5687  0.3260  0.1333
  967MOL0     C30439   4.836   8.222   1.349 -0.3678  0.2548  0.3813
  967MOL0     O30440   4.860   8.089   1.337 -0.2060 -0.1387  0.3006
  967MOL0     C30441   4.989   8.036   1.329 -0.0732  0.4087  0.3138
  967MOL0     C30442   5.037   7.985   1.203  0.1726  0.0213  0.7767
  967MOL0     C30443   5.170   7.925   1.203 -0.0996 -0.5123 -0.5613
  967MOL0     C30444   5.240   7.909   1.320 -0.2115  0.5415 -0.5910
  967MOL0     O30445   5.365   7.852   1.308 -0.2046  0.3928  0.9714
  967MOL0     C30446   5.456   7.882   1.412 -0.5586 -0.4545 -0.3804
  967MOL0     C30447   5.593   7.816   1.386 -0.1554  0.6048  0.1482
  967MOL0     C30448   5.695   7.845   1.492  0.1863 -0.9732  0.2825
  967MOL0     C30449   5.832   7.793   1.454 -0.0192  0.3487 -0.1064
  967MOL0     C30450   5.938   7.804   1.568 -0.8011 -0.7776  0.2815
  967MOL0     C30451   6.074   7.751   1.523 -0.2045 -0.5649  1.2129
  967MOL0     C30452   6.180   7.725   1.626 -0.3018 -0.0185 -0.4766
  967MOL0     C30453   6.307   7.676   1.562 -0.0344 -0.0999 -0.1819
  967MOL0    Cl30454   6.401   7.834   1.540 -0.1378 -0.3871 -0.0376
  967MOL0     C30455   5.189   7.961   1.438 -0.5305 -0.6499  0.1946
  967MOL0     C30456   5.059   8.022   1.448 -0.6229  0.9022  0.4906
  967MOL0     O30457   4.918   8.308   1.375  0.3387  0.3618 -0.2656
  967MOL0     C30458   4.658   8.397   1.366 -0.7146 -0.3922 -0.4025
  967MOL0     C30459   4.530   8.443   1.335  0.3647  0.1424  0.9455
  967MOL0     N30460   3.904   8.681   1.231 -0.5799 -0.2622 -0.0163
  967MOL0     N30461   3.811   8.748   1.293 -0.1713  0.8665 -0.3556
  967MOL0     C30462   2.470   8.882   1.093  0.1209  0.4214  0.6272
  967MOL0     C30463   2.338   8.921   1.046  0.1853 -0.6969  0.3340
  967MOL0     C30464   1.926   8.959   0.865  0.2544 -0.4908  0.2097
  967MOL0     C30465   1.884   8.826   0.814  0.0360 -0.2878 -0.1494
  967MOL0     C30466   1.763   8.810   0.748  0.4246  0.4600 -0.1300
  967MOL0     C30467   1.671   8.918   0.733 -0.2693 -0.1624  0.0652
  967MOL0     O30468   1.554   8.891   0.668  0.2997 -0.2732 -0.2236
  967MOL0     C30469   1.471   8.993   0.614  0.5015 -0.5342  0.3586
  967MOL0     C30470   1.343   8.930   0.560 -0.4276 -0.4936 -0.1679
  967MOL0     C30471   1.223   9.023   0.542  0.1991  0.0063  0.6125
  967MOL0     C30472   1.093   8.952   0.494  0.6923 -0.2263  0.2269
  967MOL0     C30473   1.103   8.910   0.353  0.2925 -0.7688 -0.4470
  967MOL0     C30474   1.086   8.872   0.241  0.0114 -0.1542  0.4043
  967MOL0     C30475   1.700   9.039   0.800  0.4713  0.3520  0.3060
  967MOL0     C30476   1.831   9.065   0.857  0.6554  0.3927 -0.4276
  967MOL0     C30477   1.847   9.202   0.921  0.5523  0.6793 -0.8350
  967MOL0     H30478   2.220   8.621   0.952 -1.0991  1.1492 -2.1523
  967MOL0     H30479   2.454   8.554   1.050  1.9251 -0.1569 -1.1392
  967MOL0     H30480   2.744   8.889   1.085  4.5504 -0.2191 -0.0688
  967MOL0     H30481   2.689   8.845   1.253 -1.2678 -0.5457 -0.4339
  967MOL0     H30482   2.915   8.703   1.091 -0.7175  0.7451 -0.8841
  967MOL0     H30483   2.841   8.654   1.245  0.9872 -0.1615 -0.1765
  967MOL0     H30484   2.946   8.864   1.343  0.2749  1.7735 -1.1157
  967MOL0     H30485   3.011   8.904   1.183  2.1139 -1.0465 -1.5083
  967MOL0     H30486   3.088   8.634   1.298 -0.3950 -0.7907 -1.0541
  967MOL0     H30487   3.155   8.739   1.166 -3.3780 -2.0018 -1.7085
  967MOL0     H30488   3.228   8.903   1.325  1.1678  0.0505 -1.6306
  967MOL0     H30489   3.159   8.810   1.463  0.3467 -0.9513  0.4388
  967MOL0     H30490   3.368   8.730   1.494  1.8309 -3.5694 -1.2642
  967MOL0     H30491   3.300   8.618   1.376  1.7731 -1.7089 -1.4774
  967MOL0     H30492   3.481   8.866   1.301  2.6076 -0.4220  1.0293
  967MOL0     H30493   3.435   8.735   1.191  2.4404  1.6947 -0.5667
  967MOL0     H30494   3.602   8.745   1.439 -4.5837  1.5869  0.9162
  967MOL0     H30495   3.552   8.591   1.386  2.2719 -0.3954  0.5567
  967MOL0     H30496   3.662   8.485   1.163  0.9958 -1.2094  1.9515
  967MOL0     H30497   3.870   8.387   1.051  1.2105 -0.7960  0.1164
  967MOL0     H30498   3.948   8.516   0.983  0.0680  0.1056 -0.8491
  967MOL0     H30499   4.121   8.376   1.072  4.6595  2.3368  0.6419
  967MOL0     H30500   4.119   8.532   1.151 -2.7573  1.3387 -0.8883
  967MOL0     H30501   3.975   8.311   1.299 -0.0305  0.0183  2.6156
  967MOL0     H30502   4.030   8.449   1.371  0.1900 -0.6565  0.1696
  967MOL0     H30503   4.199   8.214   1.273  2.4378 -0.9757  1.0009
  967MOL0     H30504   4.178   8.279   1.434 -1.1676  0.4456  1.3860
  967MOL0     H30505   4.399   8.138   1.262 -0.7891  0.8809  0.6595
  967MOL0     H30506   4.625   8.084   1.270  0.1511 -0.0906  1.7338
  967MOL0     H30507   4.969   7.999   1.120  0.2664  0.1795  0.7258
  967MOL0     H30508   5.213   7.883   1.113  0.8934  0.4468 -0.5495
  967MOL0     H30509   5.475   7.990   1.406 -1.5072 -0.3435 -2.2517
  967MOL0     H30510   5.434   7.850   1.514 -0.1110 -1.8141 -0.6919
  967MOL0     H30511   5.577   7.709   1.369  1.1363  0.6135 -1.2804
  967MOL0     H30512   5.631   7.851   1.290 -1.5143 -1.1497 -1.0861
  967MOL0     H30513   5.708   7.953   1.500 -1.6296 -0.8282  2.1299
  967MOL0     H30514   5.662   7.800   1.586 -0.1821  1.3825  1.3501
  967MOL0     H30515   5.861   7.853   1.367 -0.9950  0.9226 -0.0422
  967MOL0     H30516   5.830   7.691   1.416  0.8184  0.5875 -0.8280
  967MOL0     H30517   5.913   7.740   1.653  2.4539 -3.6391 -0.7193
  967MOL0     H30518   5.944   7.910   1.595 -0.1234  0.5381 -4.2481
  967MOL0     H30519   6.059   7.654   1.473 -1.5573 -1.5192  3.3166
  967MOL0     H30520   6.108   7.815   1.441  2.1156 -2.3889  0.6504
  967MOL0     H30521   6.163   7.642   1.695  2.5817 -2.2545 -2.2347
  967MOL0     H30522   6.194   7.815   1.688 -0.0242 -1.5670  1.8399
  967MOL0     H30523   6.357   7.604   1.628  0.9823  0.2709 -0.5353
  967MOL0     H30524   6.290   7.624   1.468 -0.7412 -1.3373  0.5962
  967MOL0     H30525   5.240   7.957   1.533  1.6082 -1.9075 -0.9297
  967MOL0     H30526   5.027   8.063   1.544  0.7425 -2.2110  2.4248
  967MOL0     H30527   4.728   8.456   1.422  0.6992 -2.3487  0.0005
  967MOL0     H30528   4.500   8.548   1.329  0.6015  0.2180 -4.8418
  967MOL0     H30529   2.527   8.954   1.151  0.8191 -1.3148  2.2451
  967MOL0     H30530   2.320   9.028   1.042  1.5847 -0.4535  0.0899
  967MOL0     H30531   1.934   8.730   0.821 -0.0489 -0.2420  1.4009
  967MOL0     H30532   1.731   8.720   0.698  0.7395 -0.6288  1.5609
  967MOL0     H30533   1.524   9.051   0.538  1.8821 -2.3344 -0.1066
  967MOL0     H30534   1.438   9.061   0.693 -2.2918 -0.5133 -0.6990
  967MOL0     H30535   1.327   8.848   0.631  0.2976 -1.3257 -0.9272
  967MOL0     H30536   1.373   8.898   0.459 -0.8685  0.9983 -0.8031
  967MOL0     H30537   1.248   9.101   0.469 -0.6370  0.0080  0.3140
  967MOL0     H30538   1.202   9.072   0.637 -0.0376  1.3922 -0.1317
  967MOL0     H30539   1.077   8.856   0.545 -1.0114  0.0856  0.3205
  967MOL0     H30540   0.998   9.001   0.515 -0.6773 -2.4617 -0.4531
  967MOL0     H30541   1.080   8.848   0.137  1.6347 -3.0602  0.8795
  967MOL0     H30542   1.610   9.100   0.799 -1.7859 -2.7247  1.0997
  967MOL0     H30543   1.941   9.249   0.890  1.9167 -0.6349  1.0240
  967MOL0     H30544   1.757   9.263   0.908 -2.0787 -2.1760  2.0907
  967MOL0     H30545   1.840   9.183   1.029  0.8036 -0.6980 -1.0471
  968MOL0     O30546   4.957   6.966   8.114 -0.5544  0.0524 -0.0687
  968MOL0     C30547   4.900   7.057   8.169  0.3478  0.8399 -0.0931
  968MOL0     O30548   4.956   7.141   8.266  0.1516 -0.2481  0.3866
  968MOL0     C30549   5.068   7.098   8.331 -0.1056 -0.1694  0.7552
  968MOL0     C30550   5.177   7.187   8.331 -0.0772  0.0813 -0.4575
  968MOL0     C30551   5.298   7.167   8.398 -1.0617 -0.9382  0.6505
  968MOL0     C30552   5.313   7.049   8.471  0.1461 -1.0241  0.5547
  968MOL0     O30553   5.429   7.013   8.532  0.2922  0.2544  0.3848
  968MOL0     C30554   5.528   7.116   8.544 -0.8592 -0.0344  0.0993
  968MOL0     C30555   5.651   7.045   8.616  0.1334 -0.3963 -0.0007
  968MOL0     C30556   5.766   7.151   8.597  1.0983  0.0333 -0.0208
  968MOL0     C30557   5.891   7.115   8.685  0.4379 -0.4967  0.8873
  968MOL0     C30558   5.992   7.232   8.689 -0.2876 -0.3550 -1.2496
  968MOL0     C30559   6.093   7.205   8.805  0.0863  0.1515 -0.3210
  968MOL0     C30560   6.140   7.066   8.826 -0.3102 -0.2458 -0.8143
  968MOL0     C30561   6.226   6.996   8.719  0.2925  0.2378  0.1316
  968MOL0     N30562   6.352   7.053   8.691 -0.4941  0.1766 -0.4974
  968MOL0     C30563   6.393   7.112   8.574 -0.7601  0.0807 -0.1305
  968MOL0     C30564   6.525   7.137   8.593  0.0285 -0.1650  0.9396
  968MOL0     C30565   6.626   7.200   8.502 -0.5414  0.2545 -0.2747
  968MOL0     C30566   6.585   7.199   8.362  0.0894  0.1005  0.8078
  968MOL0     C30567   6.697   7.254   8.267  1.1659  0.3032 -0.0425
  968MOL0     C30568   6.808   7.157   8.227  0.0455  0.1693  0.3558
  968MOL0     O30569   6.915   7.159   8.323 -0.6945  0.2225  0.6621
  968MOL0     C30570   7.015   7.060   8.308 -0.7857  0.1791 -0.3762
  968MOL0     C30571   7.052   7.001   8.186 -0.6009  0.1135  0.2584
  968MOL0     C30572   7.169   6.917   8.175  0.0016 -0.1948  0.1838
  968MOL0     C30573   7.243   6.897   8.293 -0.0589 -0.2930  0.5615
  968MOL0     C30574   7.367   6.814   8.283  0.5754  0.6163  0.2355
  968MOL0     O30575   7.452   6.804   8.397 -0.4948 -0.3550 -0.3459
  968MOL0     C30576   7.578   6.761   8.370  0.2467 -0.0139 -0.0117
  968MOL0     C30577   7.630   6.637   8.326  1.3127  0.8956  0.0473
  968MOL0     C30578   7.767   6.614   8.312  0.1301 -0.7120 -0.2484
  968MOL0     C30579   7.859   6.715   8.345  0.8543  0.3804  0.0256
  968MOL0     O30580   7.992   6.711   8.322  0.3950 -0.5776  0.0572
  968MOL0     C30581   8.065   6.595   8.361 -0.5228 -0.2898  0.6749
  968MOL0     C30582   8.209   6.617   8.304 -0.0292  0.0926 -0.6513
  968MOL0     C30583   8.214   6.592   8.161  0.5144 -0.1267  1.1306
  968MOL0     C30584   8.356   6.602   8.101  0.4664 -0.4532 -0.9296
  968MOL0     C30585   8.448   6.479   8.131  0.1280  0.3057  0.3732
  968MOL0     C30586   8.582   6.475   8.055 -0.2662 -0.6062 -0.2519
  968MOL0     C30587   8.588   6.466   7.900  0.2815 -0.4150 -1.1845
  968MOL0     C30588   8.722   6.506   7.854  0.2509  1.0177  0.1213
  968MOL0    Cl30589   8.866   6.419   7.923  0.5388 -0.3961  0.2056
  968MOL0     C30590   7.809   6.836   8.388  0.6567 -0.4853 -0.2507
  968MOL0     C30591   7.672   6.863   8.402 -0.0220  0.5908  0.3780
  968MOL0     O30592   7.380   6.751   8.176  0.1951  0.4528 -1.0938
  968MOL0     C30593   7.206   6.956   8.413 -1.3464 -0.7472  0.4210
  968MOL0     C30594   7.103   7.043   8.418  0.5201 -0.4477 -0.1229
  968MOL0     N30595   6.558   7.101   8.722  0.1550  1.1363 -0.4774
  968MOL0     N30596   6.456   7.047   8.784  0.0819  0.1213 -0.5626
  968MOL0     C30597   5.204   6.957   8.472 -0.3549 -0.5357  0.9451
  968MOL0     C30598   5.092   6.976   8.399  0.2478  0.5017 -0.0798
  968MOL0     C30599   4.760   7.092   8.137  0.3592  0.0609  0.4014
  968MOL0     C30600   4.716   7.225   8.117 -0.5458 -0.3147  0.1108
  968MOL0     C30601   4.589   7.258   8.093  0.2223  0.1480 -0.2511
  968MOL0     C30602   4.486   7.168   8.079 -0.0624 -0.0316 -0.3758
  968MOL0     O30603   4.366   7.208   8.032 -0.1499  0.2308 -0.1822
  968MOL0     C30604   4.263   7.108   8.011  1.1090  0.9840  0.0793
  968MOL0     C30605   4.134   7.184   8.015  0.1720  0.0378 -0.1025
  968MOL0     C30606   4.020   7.109   7.946 -0.0724  0.3896  0.0681
  968MOL0     C30607   3.969   6.992   8.037  0.3942 -0.6497  0.2220
  968MOL0     C30608   3.825   6.963   8.000  0.1245  0.8126 -0.7104
  968MOL0     C30609   3.702   6.952   7.978 -0.1347  0.3747 -0.4357
  968MOL0     C30610   4.526   7.027   8.089 -0.1028 -0.1927 -0.9096
  968MOL0     C30611   4.661   6.989   8.113  0.2153  0.3656  0.2569
  968MOL0     C30612   4.682   6.838   8.109 -0.4593  0.8783  0.4415
  968MOL0     H30613   5.158   7.281   8.280  2.0865  0.0867 -1.3594
  968MOL0     H30614   5.366   7.250   8.383 -0.9324 -1.3058 -1.0766
  968MOL0     H30615   5.556   7.148   8.444 -4.7073 -1.1982 -1.5230
  968MOL0     H30616   5.502   7.196   8.614  1.2531 -0.8130  1.9103
  968MOL0     H30617   5.671   6.947   8.572 -0.7333 -0.2059 -0.8516
  968MOL0     H30618   5.638   7.025   8.723  1.4897  0.1266  0.2957
  968MOL0     H30619   5.725   7.246   8.631  1.9977 -0.0065  1.2333
  968MOL0     H30620   5.796   7.163   8.492 -0.7401 -0.5652 -0.6614
  968MOL0     H30621   5.863   7.092   8.788 -1.5926  2.0589  0.9950
  968MOL0     H30622   5.943   7.031   8.637 -2.7945 -0.5404 -3.0773
  968MOL0     H30623   6.052   7.246   8.598  1.7136  0.3583  0.0981
  968MOL0     H30624   5.939   7.326   8.704  1.0141  0.2648 -0.3683
  968MOL0     H30625   6.180   7.270   8.807  2.1027 -2.3611  2.5898
  968MOL0     H30626   6.048   7.232   8.902 -0.6403 -3.5872  0.5366
  968MOL0     H30627   6.046   7.013   8.847 -0.6811 -0.5283 -2.9584
  968MOL0     H30628   6.201   7.059   8.916 -0.7644 -0.0716 -0.4854
  968MOL0     H30629   6.250   6.893   8.746 -0.5314 -0.3648 -1.3231
  968MOL0     H30630   6.182   6.976   8.621  0.2081 -2.9606  0.7158
  968MOL0     H30631   6.344   7.129   8.479  1.4806  1.6631 -1.0913
  968MOL0     H30632   6.638   7.304   8.532  3.9546 -0.2007  0.1472
  968MOL0     H30633   6.722   7.148   8.512  0.5928  2.0572 -1.3248
  968MOL0     H30634   6.557   7.101   8.321 -0.6629  0.3982  0.5876
  968MOL0     H30635   6.497   7.263   8.345 -0.4245 -0.2738  1.9086
  968MOL0     H30636   6.734   7.341   8.322 -0.3090  1.2079 -0.4394
  968MOL0     H30637   6.645   7.290   8.178 -2.1381 -4.5959 -0.5371
  968MOL0     H30638   6.848   7.194   8.132  0.1725  1.4713  0.8944
  968MOL0     H30639   6.767   7.057   8.212  0.3703 -0.1779  1.6166
  968MOL0     H30640   7.002   7.025   8.093  3.3447  2.1709 -1.5771
  968MOL0     H30641   7.196   6.869   8.081 -0.4728  0.9573 -0.5664
  968MOL0     H30642   7.562   6.558   8.295  3.7607  0.4582 -5.3912
  968MOL0     H30643   7.799   6.527   8.257 -0.3095  0.6224 -2.7725
  968MOL0     H30644   8.057   6.581   8.469 -1.1025 -1.3920  0.5049
  968MOL0     H30645   8.030   6.501   8.316  1.6242 -1.1655  0.7534
  968MOL0     H30646   8.237   6.720   8.327 -0.9497 -0.2947  2.7308
  968MOL0     H30647   8.278   6.547   8.352  0.0538 -0.0904 -1.0345
  968MOL0     H30648   8.175   6.496   8.128  0.5124 -0.0549  0.9196
  968MOL0     H30649   8.161   6.667   8.101  2.1238 -0.4379 -0.7920
  968MOL0     H30650   8.404   6.695   8.134 -2.3500 -0.0059  2.3966
  968MOL0     H30651   8.341   6.598   7.993 -1.4802 -1.5145 -0.6684
  968MOL0     H30652   8.384   6.399   8.092  2.3240 -1.5189  0.3082
  968MOL0     H30653   8.450   6.469   8.240 -3.3605  0.1284  0.5332
  968MOL0     H30654   8.633   6.567   8.086 -0.3594 -1.0112  1.1682
  968MOL0     H30655   8.629   6.386   8.096  1.7875  0.8446  0.7304
  968MOL0     H30656   8.511   6.530   7.856  0.9666  0.3988 -1.2035
  968MOL0     H30657   8.554   6.367   7.868  0.0853 -0.8547  0.2945
  968MOL0     H30658   8.724   6.502   7.745  1.1794 -1.7008  0.1483
  968MOL0     H30659   8.727   6.612   7.878 -0.8862  1.9286 -3.1929
  968MOL0     H30660   7.872   6.922   8.406  1.3192 -1.0196 -0.0033
  968MOL0     H30661   7.629   6.962   8.415  1.1432  1.3815 -1.4593
  968MOL0     H30662   7.269   6.945   8.501 -0.2434 -2.1157 -0.4998
  968MOL0     H30663   7.081   7.095   8.511 -0.7333 -0.9389 -0.1346
  968MOL0     H30664   5.212   6.871   8.539 -2.2968 -1.6768 -0.2137
  968MOL0     H30665   5.013   6.901   8.400 -1.0277  1.7109 -2.2732
  968MOL0     H30666   4.788   7.304   8.137 -2.7545  0.9749  4.0737
  968MOL0     H30667   4.564   7.364   8.093 -1.7570 -0.2725  0.7114
  968MOL0     H30668   4.259   7.040   8.097 -0.0369 -1.6941 -1.9320
  968MOL0     H30669   4.269   7.048   7.920 -1.4350 -0.8662  0.9933
  968MOL0     H30670   4.145   7.278   7.960  1.4633  0.0434  0.1306
  968MOL0     H30671   4.119   7.207   8.121  3.1660  1.9489  0.0245
  968MOL0     H30672   4.054   7.059   7.854 -1.2432  0.8646 -0.6518
  968MOL0     H30673   3.938   7.179   7.926  0.0426  0.2010 -1.1925
  968MOL0     H30674   4.033   6.909   8.005  0.7526  0.8700 -3.5326
  968MOL0     H30675   3.973   7.015   8.144 -0.2976 -0.8008  0.2824
  968MOL0     H30676   3.601   6.945   7.944  0.4033  1.8737 -2.5857
  968MOL0     H30677   4.457   6.945   8.073 -0.3418 -0.4882  1.2840
  968MOL0     H30678   4.692   6.800   8.211  2.2252 -0.9252 -0.3936
  968MOL0     H30679   4.595   6.790   8.062 -0.3743  0.7451  0.4202
  968MOL0     H30680   4.764   6.808   8.045 -2.3965  1.1479 -2.3362
  969MOL0     O30681   1.264   6.074   8.132  0.0135 -0.6964 -0.0119
  969MOL0     C30682   1.296   6.086   8.250  0.1493 -0.0403 -0.5359
  969MOL0     O30683   1.425   6.105   8.296 -0.1040  0.2938  0.2197
  969MOL0     C30684   1.523   6.132   8.200  0.0962  0.0311 -0.2544
  969MOL0     C30685   1.548   6.069   8.077 -0.2167  0.0709  0.5653
  969MOL0     C30686   1.656   6.110   7.996  0.3419  0.2594 -0.4423
  969MOL0     C30687   1.740   6.212   8.027 -0.2971 -0.4056 -0.7005
  969MOL0     O30688   1.841   6.248   7.942 -0.1744  0.0825 -1.0107
  969MOL0     C30689   1.964   6.287   8.005 -0.2622  0.6435  0.3467
  969MOL0     C30690   2.069   6.303   7.902 -0.5328 -0.8558  0.1702
  969MOL0     C30691   2.210   6.318   7.977  0.6875 -0.3816  0.5169
  969MOL0     C30692   2.325   6.316   7.874  0.0540  0.4525 -0.2241
  969MOL0     C30693   2.462   6.336   7.943 -0.7377  0.2108  1.6210
  969MOL0     C30694   2.578   6.304   7.846 -0.6874  0.3585  0.3968
  969MOL0     C30695   2.716   6.304   7.916  1.0281  0.4273 -0.3261
  969MOL0     C30696   2.824   6.338   7.809 -0.2887  0.5292  0.6470
  969MOL0     N30697   2.964   6.307   7.858 -0.3976 -0.3506 -0.3624
  969MOL0     C30698   3.018   6.324   7.982 -0.5051  0.7310  0.2743
  969MOL0     C30699   3.152   6.303   7.962 -0.6474 -0.4860  0.2526
  969MOL0     C30700   3.259   6.330   8.059 -0.3552 -0.0502 -0.2283
  969MOL0     C30701   3.319   6.203   8.134 -0.0129  0.1159 -0.2151
  969MOL0     C30702   3.447   6.156   8.058 -0.0315  0.2073  0.3867
  969MOL0     C30703   3.491   6.018   8.116 -0.3392  0.0762 -0.5434
  969MOL0     O30704   3.523   6.021   8.252 -0.3822  0.1468 -0.2628
  969MOL0     C30705   3.598   5.915   8.309  0.5414 -0.4373 -0.1370
  969MOL0     C30706   3.636   5.935   8.438 -0.6923 -0.0380  0.6562
  969MOL0     C30707   3.718   5.843   8.503  0.1971  0.4465 -0.8914
  969MOL0     C30708   3.751   5.721   8.445 -0.4216  0.6629  0.3194
  969MOL0     C30709   3.819   5.615   8.522 -1.1724  1.1224  0.3701
  969MOL0     O30710   3.836   5.648   8.655 -0.1294  0.5691  0.7569
  969MOL0     C30711   3.922   5.569   8.732 -0.3182  0.0544  0.3286
  969MOL0     C30712   4.002   5.641   8.824  0.2555 -0.1532  0.9879
  969MOL0     C30713   4.094   5.571   8.900 -0.2612  0.6449 -0.3349
  969MOL0     C30714   4.113   5.431   8.885  0.4600 -1.5094 -0.1047
  969MOL0     O30715   4.208   5.363   8.948  0.0304 -0.6986  0.7333
  969MOL0     C30716   4.281   5.416   9.061 -0.5093  0.0910  0.1591
  969MOL0     C30717   4.205   5.380   9.191 -0.1786  0.7116 -0.5727
  969MOL0     C30718   4.177   5.232   9.221  0.0796 -0.1911 -0.0027
  969MOL0     C30719   4.318   5.151   9.241  0.6575 -0.2871  0.7171
  969MOL0     C30720   4.291   5.006   9.273 -0.9038 -0.2759 -1.2613
  969MOL0     C30721   4.413   4.911   9.265  0.5314 -0.6937  0.3508
  969MOL0     C30722   4.526   4.939   9.363  0.7208 -0.4330 -0.5211
  969MOL0     C30723   4.611   4.824   9.356 -0.8417 -0.2073 -0.2896
  969MOL0    Cl30724   4.766   4.867   9.422  0.2146  0.4141  0.1847
  969MOL0     C30725   4.035   5.369   8.798  0.2020 -0.5313 -0.0600
  969MOL0     C30726   3.933   5.429   8.727  0.5012  0.2255 -0.2232
  969MOL0     O30727   3.859   5.507   8.470  0.3180  0.0295 -0.1584
  969MOL0     C30728   3.707   5.697   8.311 -0.4049  0.3803 -1.2305
  969MOL0     C30729   3.620   5.791   8.243  0.2402  0.1966  0.5104
  969MOL0     N30730   3.173   6.271   7.835 -0.3095  0.1836 -0.6117
  969MOL0     N30731   3.064   6.274   7.769  0.1643 -0.2881  0.0848
  969MOL0     C30732   1.717   6.284   8.143  0.6379 -0.6631 -0.3138
  969MOL0     C30733   1.620   6.239   8.233  0.1049 -0.1461 -1.0714
  969MOL0     C30734   1.199   6.077   8.361  0.3713  0.3775  0.4956
  969MOL0     C30735   1.235   6.038   8.494  0.0922  0.3509 -0.4915
  969MOL0     C30736   1.142   6.037   8.600 -0.3606 -0.0478 -0.9031
  969MOL0     C30737   1.012   6.063   8.575  0.2119 -0.2138  0.0934
  969MOL0     O30738   0.905   6.066   8.662 -0.2111 -0.0760  0.0782
  969MOL0     C30739   0.905   5.993   8.782 -0.7821 -0.0745  0.5519
  969MOL0     C30740   0.772   6.014   8.848 -0.6763 -0.2521 -0.0328
  969MOL0     C30741   0.757   5.953   8.986 -0.4156  0.2547  0.0684
  969MOL0     C30742   0.616   5.965   9.057 -0.2339 -0.1454 -0.0236
  969MOL0     C30743   0.610   5.868   9.167 -0.4453 -1.1771 -0.5087
  969MOL0     C30744   0.613   5.788   9.254  0.4510  0.3029  0.3168
  969MOL0     C30745   0.974   6.105   8.449 -0.0763 -0.1334 -0.0495
  969MOL0     C30746   1.062   6.109   8.339 -0.4003 -0.0548  0.0805
  969MOL0     C30747   0.997   6.145   8.201 -0.5921 -1.2052  0.3636
  969MOL0     H30748   1.482   5.990   8.044 -0.0161  0.6834 -1.4542
  969MOL0     H30749   1.678   6.049   7.909  0.8991  1.0951 -0.9069
  969MOL0     H30750   1.944   6.386   8.046 -0.3215  0.9669 -0.4479
  969MOL0     H30751   1.997   6.209   8.074  0.3473 -0.9809 -1.6912
  969MOL0     H30752   2.055   6.392   7.841  0.9686 -0.6240  0.1076
  969MOL0     H30753   2.059   6.210   7.845 -4.2733 -0.2237 -0.4133
  969MOL0     H30754   2.224   6.234   8.045 -0.3170 -1.1281 -0.1618
  969MOL0     H30755   2.223   6.409   8.037  2.0411 -0.8004  0.8966
  969MOL0     H30756   2.327   6.212   7.839  0.5399 -0.5624  2.5542
  969MOL0     H30757   2.309   6.379   7.786 -4.3505  0.7163  0.5307
  969MOL0     H30758   2.473   6.439   7.978 -3.2515  1.0163  0.2628
  969MOL0     H30759   2.472   6.269   8.029  2.1147 -1.8358 -0.1177
  969MOL0     H30760   2.562   6.199   7.820  0.4466  0.6852 -1.8601
  969MOL0     H30761   2.565   6.369   7.759 -0.2293 -1.4620 -1.1056
  969MOL0     H30762   2.737   6.205   7.958  0.5597  0.4724  0.0184
  969MOL0     H30763   2.716   6.373   8.001  2.1007 -2.6868  2.3856
  969MOL0     H30764   2.807   6.278   7.719 -0.8697  0.7941  0.5751
  969MOL0     H30765   2.818   6.441   7.773 -0.9623  0.3493  0.2277
  969MOL0     H30766   2.977   6.366   8.073  1.7114  1.9109  0.8020
  969MOL0     H30767   3.340   6.384   8.009  3.2181 -0.6061  4.2741
  969MOL0     H30768   3.225   6.404   8.133 -0.1732  2.1255 -2.2091
  969MOL0     H30769   3.345   6.225   8.238 -2.0557  1.2756  0.1177
  969MOL0     H30770   3.249   6.121   8.154  0.0533  0.3550  1.0677
  969MOL0     H30771   3.530   6.222   8.082  0.3555 -0.3989  0.7357
  969MOL0     H30772   3.429   6.153   7.950 -3.2073  1.3818  0.7536
  969MOL0     H30773   3.576   5.989   8.053 -0.6809 -1.0441 -0.4996
  969MOL0     H30774   3.409   5.946   8.115 -0.2116 -0.0808 -0.0190
  969MOL0     H30775   3.627   6.033   8.484 -2.5906  1.0775 -1.8611
  969MOL0     H30776   3.752   5.862   8.605  1.3568 -4.2621 -0.1711
  969MOL0     H30777   3.990   5.748   8.820  3.9997  0.4007 -2.8972
  969MOL0     H30778   4.163   5.628   8.961  0.6638 -0.4511 -0.3239
  969MOL0     H30779   4.378   5.366   9.048 -0.6846 -0.0534 -0.6703
  969MOL0     H30780   4.287   5.525   9.058 -2.7497  0.3052  1.6112
  969MOL0     H30781   4.260   5.435   9.269 -3.9959  0.8890  2.2712
  969MOL0     H30782   4.106   5.425   9.180 -2.0858 -2.7771  0.8728
  969MOL0     H30783   4.114   5.222   9.310  2.5552  0.9446  2.0224
  969MOL0     H30784   4.125   5.192   9.133  1.2238  0.5751 -1.0683
  969MOL0     H30785   4.368   5.214   9.316 -0.8239  3.2685 -1.0441
  969MOL0     H30786   4.379   5.155   9.150  0.6891 -0.7600  0.7139
  969MOL0     H30787   4.207   4.977   9.209  0.7100 -1.8147 -2.8278
  969MOL0     H30788   4.260   4.996   9.377 -1.5706 -0.1608 -1.4460
  969MOL0     H30789   4.379   4.810   9.291  0.2789 -0.2225  1.9077
  969MOL0     H30790   4.448   4.919   9.161  0.8145  2.0088  0.5853
  969MOL0     H30791   4.481   4.945   9.463  1.0439  1.4074 -0.4571
  969MOL0     H30792   4.566   5.037   9.338 -2.0736  0.3614 -2.3504
  969MOL0     H30793   4.564   4.744   9.415 -0.1101 -1.3316 -1.1765
  969MOL0     H30794   4.616   4.780   9.256 -1.9789 -0.7310 -0.1293
  969MOL0     H30795   4.046   5.263   8.776 -0.0384 -0.6897  0.5557
  969MOL0     H30796   3.874   5.374   8.655 -0.4181  0.7210  0.1354
  969MOL0     H30797   3.728   5.598   8.272  1.9971 -0.2631  1.3335
  969MOL0     H30798   3.569   5.771   8.150  1.5464 -0.8339 -0.0276
  969MOL0     H30799   1.776   6.368   8.178 -2.5160  1.1755  1.0226
  969MOL0     H30800   1.606   6.274   8.334  3.2637 -0.2918 -0.4627
  969MOL0     H30801   1.337   6.009   8.517 -0.6901 -1.9301  0.3984
  969MOL0     H30802   1.174   6.006   8.699  0.9670 -0.1529 -1.3450
  969MOL0     H30803   0.982   6.039   8.844 -2.0260  0.2183  1.9477
  969MOL0     H30804   0.936   5.893   8.750 -1.3850 -0.5569  1.4156
  969MOL0     H30805   0.698   5.972   8.780  1.8065 -2.0227 -1.8602
  969MOL0     H30806   0.760   6.122   8.852  1.1662  0.0585 -1.3049
  969MOL0     H30807   0.829   6.004   9.051  0.2678 -0.5946 -0.0047
  969MOL0     H30808   0.791   5.850   8.973 -2.3907 -0.3844 -0.3817
  969MOL0     H30809   0.592   6.067   9.088  2.9048  0.4249  0.9576
  969MOL0     H30810   0.542   5.937   8.982  0.2723  1.3189 -1.1087
  969MOL0     H30811   0.615   5.723   9.339 -0.0045  1.3570  1.1593
  969MOL0     H30812   0.873   6.144   8.445  0.8580  2.3190 -2.2402
  969MOL0     H30813   0.910   6.210   8.215  1.0019  0.7208  2.0527
  969MOL0     H30814   1.064   6.215   8.149 -0.4538 -1.4327  0.2347
  969MOL0     H30815   0.977   6.059   8.137 -2.7689 -0.3378 -0.1989
  970MOL0     O30816   5.803   1.430   3.307 -0.0106  0.6084  0.4095
  970MOL0     C30817   5.861   1.485   3.394 -0.1365 -0.2873  0.4819
  970MOL0     O30818   5.997   1.473   3.405 -0.4560 -0.3896 -0.2406
  970MOL0     C30819   6.067   1.364   3.352 -0.6176 -0.1110  0.7898
  970MOL0     C30820   6.025   1.230   3.361 -0.3577 -0.5705  0.6129
  970MOL0     C30821   6.103   1.125   3.311  0.5459 -0.7163  1.1514
  970MOL0     C30822   6.221   1.151   3.238 -0.1273  0.4711 -0.2046
  970MOL0     O30823   6.309   1.059   3.185  0.4367  0.4144 -0.2106
  970MOL0     C30824   6.302   0.925   3.230 -0.1305 -0.3153  0.3012
  970MOL0     C30825   6.325   0.900   3.380  0.4489  0.0547 -0.4513
  970MOL0     C30826   6.458   0.948   3.445  0.3515  0.3863 -0.0389
  970MOL0     C30827   6.583   0.863   3.415  0.2670 -0.1397 -0.1730
  970MOL0     C30828   6.713   0.919   3.479  0.5112  0.4376  0.3295
  970MOL0     C30829   6.828   0.825   3.433 -0.4808  0.3228 -0.5427
  970MOL0     C30830   6.957   0.869   3.504 -0.0494  0.2239 -0.3313
  970MOL0     C30831   7.023   0.986   3.441  0.3014  0.1702 -0.6604
  970MOL0     N30832   7.113   0.948   3.333 -0.6162 -0.0610 -0.2282
  970MOL0     C30833   7.086   0.922   3.203  0.6133  0.1958 -0.3584
  970MOL0     C30834   7.199   0.891   3.138 -0.2286  0.6774 -0.5029
  970MOL0     C30835   7.234   0.840   3.002 -0.5899 -0.2813 -0.4535
  970MOL0     C30836   7.347   0.923   2.943 -0.2099 -0.2781  0.7502
  970MOL0     C30837   7.483   0.840   2.942 -0.0936 -0.6666 -0.5598
  970MOL0     C30838   7.603   0.919   2.888 -0.2287  0.1476 -1.0914
  970MOL0     O30839   7.724   0.835   2.904 -0.3682 -0.3143 -0.1647
  970MOL0     C30840   7.849   0.873   2.852 -0.1687  0.4714 -0.1548
  970MOL0     C30841   7.954   0.779   2.866  1.0175  0.1433  0.0470
  970MOL0     C30842   8.083   0.813   2.825  0.2551 -0.1952 -0.2750
  970MOL0     C30843   8.110   0.933   2.762  0.4084 -0.2741  0.1995
  970MOL0     C30844   8.245   0.971   2.721 -0.7550  0.4918  0.1254
  970MOL0     O30845   8.336   0.871   2.719 -0.3922  0.5645 -0.0074
  970MOL0     C30846   8.469   0.898   2.727 -0.5038  0.4998  0.0945
  970MOL0     C30847   8.566   0.814   2.670 -1.6120  0.1081  0.6293
  970MOL0     C30848   8.700   0.838   2.692 -0.5176 -0.5074 -0.4279
  970MOL0     C30849   8.739   0.936   2.786  1.1056  0.1718  0.1192
  970MOL0     O30850   8.871   0.954   2.816  0.2756 -0.0822 -0.2441
  970MOL0     C30851   8.914   0.870   2.929  0.0841  0.2658 -0.1327
  970MOL0     C30852   9.036   0.941   2.992 -0.3203 -0.4889  0.1892
  970MOL0     C30853   9.096   0.857   3.097  0.1691 -1.2757 -0.1466
  970MOL0     C30854   9.183   0.740   3.053 -1.0207 -0.3088 -0.5132
  970MOL0     C30855   9.234   0.659   3.171 -0.1561  0.3999 -0.4811
  970MOL0     C30856   9.324   0.546   3.114 -0.8452 -0.6140  0.8391
  970MOL0     C30857   9.382   0.455   3.221  0.3783  0.6312  0.1907
  970MOL0     C30858   9.478   0.352   3.173 -0.3830 -0.0914  0.7781
  970MOL0    Cl30859   9.617   0.427   3.087 -0.1107  0.1852 -0.3850
  970MOL0     C30860   8.644   1.020   2.844 -0.2008 -1.0015  0.2174
  970MOL0     C30861   8.504   1.001   2.816 -0.0546  0.6626  0.0549
  970MOL0     O30862   8.273   1.089   2.689  0.0739  0.0601  0.1559
  970MOL0     C30863   8.008   1.025   2.749 -0.3567 -0.0587  0.0832
  970MOL0     C30864   7.885   0.996   2.801 -0.0168 -0.9173 -0.4979
  970MOL0     N30865   7.301   0.909   3.232  0.3049  0.8159 -0.1848
  970MOL0     N30866   7.245   0.943   3.347 -0.5904  1.9389  0.3893
  970MOL0     C30867   6.256   1.282   3.214  0.8930 -0.1918 -0.2519
  970MOL0     C30868   6.174   1.390   3.267  1.1911  0.0223 -0.4720
  970MOL0     C30869   5.796   1.593   3.474 -1.0073 -0.4574  0.5312
  970MOL0     C30870   5.888   1.688   3.538 -0.2410 -0.6899  0.7366
  970MOL0     C30871   5.838   1.808   3.593  0.2001 -0.1973 -1.4855
  970MOL0     C30872   5.703   1.829   3.605 -0.5766  0.2025  0.1811
  970MOL0     O30873   5.655   1.936   3.680 -1.1475 -1.1932  0.0771
  970MOL0     C30874   5.526   1.949   3.744  0.0433 -0.0180  0.2134
  970MOL0     C30875   5.530   1.861   3.872  0.3982  0.0237 -0.2107
  970MOL0     C30876   5.639   1.892   3.981  0.6877 -0.5670  0.0033
  970MOL0     C30877   5.666   1.778   4.078  0.2322  0.0999 -0.4809
  970MOL0     C30878   5.534   1.743   4.133 -0.9106  0.0355 -0.4081
  970MOL0     C30879   5.423   1.720   4.180 -0.5672 -0.0019 -1.0064
  970MOL0     C30880   5.612   1.736   3.559  0.6779 -0.1679  0.2860
  970MOL0     C30881   5.655   1.618   3.479  0.4511  0.2331 -0.4110
  970MOL0     C30882   5.545   1.536   3.422  0.2784  0.2326  0.4952
  970MOL0     H30883   5.934   1.211   3.417 -0.3148 -3.5387 -0.1803
  970MOL0     H30884   6.058   1.026   3.322 -2.6024 -0.2225 -3.9683
  970MOL0     H30885   6.197   0.899   3.212 -0.2111 -0.0416  0.3711
  970MOL0     H30886   6.364   0.866   3.162  0.4664 -0.6133  1.0905
  970MOL0     H30887   6.324   0.792   3.397 -1.1098  0.3670  1.9045
  970MOL0     H30888   6.236   0.944   3.428 -0.4867 -2.3603  0.1788
  970MOL0     H30889   6.438   0.938   3.552 -1.6449 -0.3636 -0.4381
  970MOL0     H30890   6.483   1.052   3.424  0.5609  0.2657 -0.3970
  970MOL0     H30891   6.571   0.761   3.454 -2.6164  0.6301  1.2146
  970MOL0     H30892   6.601   0.849   3.308  1.7347 -2.3402  0.2893
  970MOL0     H30893   6.725   1.023   3.448  2.1222 -0.6197 -3.1183
  970MOL0     H30894   6.696   0.916   3.587  0.7922  0.6768  0.3824
  970MOL0     H30895   6.799   0.722   3.455  0.3341  0.4607  1.4076
  970MOL0     H30896   6.841   0.828   3.325  0.3841  1.3241 -0.4344
  970MOL0     H30897   7.032   0.790   3.506  0.0253  0.2827 -0.7642
  970MOL0     H30898   6.937   0.889   3.610 -0.0226 -6.2932  1.2894
  970MOL0     H30899   6.949   1.057   3.404 -0.5868  0.2587  1.1907
  970MOL0     H30900   7.074   1.042   3.520 -1.0996  1.5688 -0.7170
  970MOL0     H30901   6.987   0.926   3.159 -0.1054 -0.7976  1.1235
  970MOL0     H30902   7.252   0.733   3.006 -1.6153 -0.4775 -0.8178
  970MOL0     H30903   7.144   0.842   2.939  0.5385  1.4250 -2.1296
  970MOL0     H30904   7.326   0.944   2.838 -2.5198  1.9513  1.5659
  970MOL0     H30905   7.349   1.016   3.000 -0.3960 -0.3367  0.8521
  970MOL0     H30906   7.462   0.766   2.864  0.2154 -0.0372 -1.2513
  970MOL0     H30907   7.500   0.800   3.042 -0.1697  0.8955  0.0941
  970MOL0     H30908   7.625   1.015   2.936 -1.5320 -0.0406 -0.0639
  970MOL0     H30909   7.581   0.935   2.782  1.9792  0.0338 -1.6207
  970MOL0     H30910   7.941   0.686   2.921  1.2736  0.6753  1.0437
  970MOL0     H30911   8.171   0.753   2.849  1.3810  2.3882  2.7762
  970MOL0     H30912   8.532   0.733   2.606  0.5987  1.2282 -2.1667
  970MOL0     H30913   8.770   0.772   2.643  0.5279  1.8669 -2.3519
  970MOL0     H30914   8.840   0.863   3.009  1.5456  0.6498  1.3048
  970MOL0     H30915   8.938   0.768   2.900 -1.7875 -0.1928 -0.1780
  970MOL0     H30916   9.105   0.960   2.909  1.0828 -0.6028  1.2890
  970MOL0     H30917   9.001   1.036   3.034 -0.1527  0.0648 -0.8938
  970MOL0     H30918   9.143   0.921   3.172 -0.8813  0.1311 -0.6636
  970MOL0     H30919   9.009   0.812   3.146 -0.5310  0.8935  0.6900
  970MOL0     H30920   9.267   0.768   2.988  0.7064 -3.0074  0.3538
  970MOL0     H30921   9.129   0.669   2.990 -0.7582 -0.0425 -1.0435
  970MOL0     H30922   9.152   0.621   3.232  1.6833 -0.2654  1.7374
  970MOL0     H30923   9.283   0.732   3.236  0.4218  0.0350 -0.4937
  970MOL0     H30924   9.260   0.491   3.045  0.2315  1.7348 -2.3044
  970MOL0     H30925   9.406   0.590   3.057 -1.6040 -0.4498 -0.1627
  970MOL0     H30926   9.304   0.392   3.264  0.5034  0.6796  0.4902
  970MOL0     H30927   9.424   0.525   3.294 -1.5511  1.5486  0.4660
  970MOL0     H30928   9.508   0.291   3.258 -1.3407 -0.1855  1.0581
  970MOL0     H30929   9.432   0.289   3.096  3.6872 -1.6691 -0.6696
  970MOL0     H30930   8.672   1.104   2.906 -1.2119 -1.0617  0.7816
  970MOL0     H30931   8.426   1.059   2.865  2.3868  4.4296 -0.0786
  970MOL0     H30932   8.019   1.121   2.698  1.7109 -0.8464 -1.0517
  970MOL0     H30933   7.803   1.067   2.801  0.0523 -0.8333 -0.1221
  970MOL0     H30934   6.335   1.320   3.149  0.8521  2.1419  0.9709
  970MOL0     H30935   6.204   1.493   3.249  1.8147  0.1481  1.1340
  970MOL0     H30936   5.996   1.675   3.534 -0.3235 -1.1290 -0.5859
  970MOL0     H30937   5.899   1.880   3.648 -2.0120  0.6265  0.0184
  970MOL0     H30938   5.440   1.913   3.685  0.4400 -1.1193  0.2778
  970MOL0     H30939   5.500   2.050   3.777  1.4244  2.6363 -5.4410
  970MOL0     H30940   5.541   1.758   3.838 -1.3809  0.3231 -1.8522
  970MOL0     H30941   5.435   1.863   3.925  1.6701  2.4263  2.2873
  970MOL0     H30942   5.606   1.982   4.033  0.5181 -0.4173 -0.3589
  970MOL0     H30943   5.737   1.900   3.933  2.1883 -4.4582  2.0058
  970MOL0     H30944   5.704   1.694   4.021  3.1440 -1.3682  3.2311
  970MOL0     H30945   5.743   1.814   4.147  3.9779 -1.7302 -3.3277
  970MOL0     H30946   5.346   1.705   4.252  1.8979 -2.2384  1.3850
  970MOL0     H30947   5.508   1.765   3.566  0.3468 -0.4591 -2.3337
  970MOL0     H30948   5.516   1.582   3.327 -1.3201 -0.9724  0.3539
  970MOL0     H30949   5.583   1.438   3.393 -1.3230  0.5396 -3.1992
  970MOL0     H30950   5.460   1.518   3.489  1.0813  0.0716  1.4876
  971MOL0     O30951   6.436   0.652   2.201 -0.0668 -0.3160 -1.0133
  971MOL0     C30952   6.411   0.615   2.316  0.1898 -0.7071  0.5472
  971MOL0     O30953   6.471   0.513   2.380 -0.7035  0.4931 -0.3070
  971MOL0     C30954   6.603   0.481   2.344 -1.0328  0.2154  0.2631
  971MOL0     C30955   6.636   0.350   2.299 -0.1167 -0.4854  0.2111
  971MOL0     C30956   6.766   0.315   2.269 -0.4502 -0.4625  0.5668
  971MOL0     C30957   6.874   0.408   2.282  0.0187 -0.4199 -0.6216
  971MOL0     O30958   6.995   0.350   2.260  0.2819 -1.2190  0.3770
  971MOL0     C30959   7.108   0.422   2.297  0.5595  0.3347  1.2761
  971MOL0     C30960   7.232   0.355   2.224 -1.0636 -0.9387 -0.0481
  971MOL0     C30961   7.358   0.421   2.270 -0.5193 -0.3864  0.2024
  971MOL0     C30962   7.479   0.346   2.205 -0.1335 -1.4271 -0.4025
  971MOL0     C30963   7.610   0.411   2.246 -0.0790  0.5426  0.0113
  971MOL0     C30964   7.729   0.324   2.198 -0.2253 -0.8662  0.0838
  971MOL0     C30965   7.862   0.378   2.242 -0.1927  0.1689  0.2928
  971MOL0     C30966   7.970   0.353   2.139  0.2566  0.4264  0.4034
  971MOL0     N30967   7.966   0.457   2.040 -0.2748 -0.2617  0.0788
  971MOL0     C30968   7.894   0.464   1.916  0.5080 -0.9802 -0.5941
  971MOL0     C30969   7.921   0.587   1.871  0.0381  0.0382 -0.2449
  971MOL0     C30970   7.837   0.641   1.759 -0.0265 -0.8604  1.2475
  971MOL0     C30971   7.911   0.746   1.674 -0.0002 -0.1244  0.8858
  971MOL0     C30972   8.020   0.682   1.585 -0.1364 -0.4767 -0.0446
  971MOL0     C30973   8.109   0.790   1.525  1.0768 -0.9008 -0.4238
  971MOL0     O30974   8.184   0.724   1.424 -0.3603  0.1380  0.5576
  971MOL0     C30975   8.305   0.778   1.402 -0.1500 -0.5344  0.8861
  971MOL0     C30976   8.386   0.787   1.506 -0.1978 -0.7436 -0.8008
  971MOL0     C30977   8.506   0.848   1.493 -0.1875  0.5517 -0.1232
  971MOL0     C30978   8.555   0.900   1.371  0.5351  0.6511 -0.3795
  971MOL0     C30979   8.689   0.956   1.371 -0.2989  0.2889  0.9202
  971MOL0     O30980   8.720   1.008   1.251  0.6674  0.0157 -0.5054
  971MOL0     C30981   8.832   1.087   1.234  0.2643  0.0091  0.3315
  971MOL0     C30982   8.875   1.186   1.322 -0.2578 -0.0456 -0.6839
  971MOL0     C30983   8.990   1.257   1.300  0.0451  1.5111  0.1273
  971MOL0     C30984   9.074   1.233   1.186  0.2368 -0.5004  0.5996
  971MOL0     O30985   9.193   1.301   1.166 -0.4205  0.7353 -0.2705
  971MOL0     C30986   9.258   1.290   1.034  1.0375 -0.3488 -1.2668
  971MOL0     C30987   9.369   1.400   1.019 -0.0594  0.4298 -0.2525
  971MOL0     C30988   9.464   1.405   1.144  0.8333  0.1027  0.9654
  971MOL0     C30989   9.560   1.282   1.147  0.2313  0.9527  0.0334
  971MOL0     C30990   9.667   1.294   1.260 -0.3845  0.1843  0.0204
  971MOL0     C30991   9.739   1.426   1.249  0.3364 -0.6852  0.3903
  971MOL0     C30992   9.893   1.424   1.264  0.6415 -0.1926  0.3776
  971MOL0     C30993   9.970   1.323   1.177 -0.6179  0.1223  0.5572
  971MOL0    Cl30994  10.144   1.350   1.187  0.1629  0.2629 -0.0417
  971MOL0     C30995   9.026   1.142   1.095  0.4295  0.1224  0.7159
  971MOL0     C30996   8.912   1.065   1.123 -0.2470 -0.3383 -0.2628
  971MOL0     O30997   8.754   0.968   1.480 -0.4103  0.1299 -0.3224
  971MOL0     C30998   8.478   0.874   1.259  1.3262 -0.0335 -0.9535
  971MOL0     C30999   8.348   0.820   1.277 -0.6312 -0.1080  1.1624
  971MOL0     N31000   8.023   0.653   1.949  0.4101  0.2304  1.0500
  971MOL0     N31001   8.049   0.568   2.047 -0.7235 -0.3225  0.0645
  971MOL0     C31002   6.843   0.535   2.324 -0.4147  0.1642  1.2601
  971MOL0     C31003   6.709   0.571   2.353 -0.1625  0.7394  0.1940
  971MOL0     C31004   6.283   0.679   2.383  0.4595  0.6234 -0.2955
  971MOL0     C31005   6.266   0.661   2.520  0.2858  0.1658  0.0244
  971MOL0     C31006   6.159   0.715   2.587 -0.1215 -0.5456  0.0299
  971MOL0     C31007   6.058   0.781   2.518 -0.2371 -0.2711 -0.0140
  971MOL0     O31008   5.962   0.848   2.587  0.0516  0.1947  0.2908
  971MOL0     C31009   5.879   0.774   2.681 -0.3224 -0.2711  0.4003
  971MOL0     C31010   5.733   0.826   2.693  0.0254  0.0364 -0.7040
  971MOL0     C31011   5.652   0.802   2.569 -0.0908  0.4320 -0.1772
  971MOL0     C31012   5.593   0.664   2.575  0.3559  0.0608 -0.3404
  971MOL0     C31013   5.533   0.625   2.447  0.6908 -0.1252 -0.2280
  971MOL0     C31014   5.474   0.584   2.350  0.4232 -0.3207  0.5346
  971MOL0     C31015   6.069   0.794   2.386  0.1487  0.8463  0.5788
  971MOL0     C31016   6.185   0.753   2.313 -0.2034  0.5788  0.0028
  971MOL0     C31017   6.178   0.779   2.164 -0.0954 -0.3211 -0.1591
  971MOL0     H31018   6.557   0.276   2.307 -1.0128  0.5691  1.5745
  971MOL0     H31019   6.785   0.211   2.242  2.4323  0.2669 -0.5220
  971MOL0     H31020   7.100   0.527   2.266  1.4013  0.5056  1.5996
  971MOL0     H31021   7.126   0.410   2.404  2.5086 -1.5957  0.8231
  971MOL0     H31022   7.237   0.384   2.118  0.1474  3.0193  0.9427
  971MOL0     H31023   7.229   0.246   2.237 -0.0594 -0.6105  4.7180
  971MOL0     H31024   7.361   0.418   2.380  0.7695  2.3301  0.3198
  971MOL0     H31025   7.363   0.527   2.244  2.0775 -0.3259  0.6577
  971MOL0     H31026   7.481   0.242   2.237 -0.9150 -0.7166  2.2644
  971MOL0     H31027   7.459   0.343   2.098  0.2752 -3.0164 -0.4527
  971MOL0     H31028   7.626   0.512   2.209  2.7589 -0.5172 -2.0054
  971MOL0     H31029   7.608   0.418   2.356 -0.0813  1.3850 -0.0387
  971MOL0     H31030   7.724   0.222   2.239 -1.2793 -0.5184  0.8658
  971MOL0     H31031   7.717   0.315   2.090  0.2421 -0.4333 -0.0047
  971MOL0     H31032   7.887   0.341   2.342 -2.2374  0.3455  0.9219
  971MOL0     H31033   7.845   0.483   2.268  3.4208  0.5171  1.7234
  971MOL0     H31034   8.068   0.356   2.187  0.3185  2.0472  0.2358
  971MOL0     H31035   7.956   0.258   2.085 -0.4143  2.3425 -3.1076
  971MOL0     H31036   7.832   0.389   1.868 -0.2571 -1.3188  0.8513
  971MOL0     H31037   7.799   0.558   1.699  0.7842  0.8080 -1.7702
  971MOL0     H31038   7.744   0.680   1.801  0.5163  0.7610  1.0158
  971MOL0     H31039   7.838   0.795   1.608  0.6365  0.0566  0.3011
  971MOL0     H31040   7.960   0.821   1.736  2.1716  1.4388 -2.4449
  971MOL0     H31041   7.976   0.631   1.499 -2.6183 -0.9069  1.3941
  971MOL0     H31042   8.077   0.617   1.653  1.1842 -0.3230 -0.9701
  971MOL0     H31043   8.168   0.850   1.595  2.6824 -1.3654 -1.3355
  971MOL0     H31044   8.041   0.859   1.473  1.1817  1.0435  1.8463
  971MOL0     H31045   8.359   0.750   1.604  2.7243 -1.5345 -0.1924
  971MOL0     H31046   8.559   0.863   1.587 -0.1578 -0.9245  0.1201
  971MOL0     H31047   8.819   1.214   1.411 -1.3536  0.0110 -1.3636
  971MOL0     H31048   9.027   1.336   1.365  1.6790  2.6764 -2.0756
  971MOL0     H31049   9.306   1.192   1.025 -1.3803 -1.5791 -1.6114
  971MOL0     H31050   9.187   1.294   0.951 -1.8950 -2.0392  0.9278
  971MOL0     H31051   9.434   1.368   0.937 -0.0936 -4.7671  1.4142
  971MOL0     H31052   9.327   1.499   0.996  2.4777  1.1688 -2.1949
  971MOL0     H31053   9.521   1.499   1.137  0.7071  0.1288  0.2161
  971MOL0     H31054   9.418   1.421   1.242 -0.0862  1.6573  0.3273
  971MOL0     H31055   9.612   1.268   1.052  0.6049 -1.2675  0.5239
  971MOL0     H31056   9.498   1.198   1.176 -0.6206  2.3232  2.4932
  971MOL0     H31057   9.730   1.206   1.244  2.7903  2.2811  0.1921
  971MOL0     H31058   9.616   1.293   1.357  0.3421 -1.7014  0.4267
  971MOL0     H31059   9.721   1.468   1.150 -0.4594 -3.7510 -0.8815
  971MOL0     H31060   9.694   1.487   1.327 -4.0601 -1.2068 -1.4231
  971MOL0     H31061   9.915   1.403   1.369 -0.4772 -0.2948  0.6062
  971MOL0     H31062   9.930   1.519   1.225  0.0338  0.5972  1.6663
  971MOL0     H31063   9.952   1.219   1.208  1.0646  0.0450  1.3724
  971MOL0     H31064   9.950   1.338   1.070  3.8702  2.7471 -0.1676
  971MOL0     H31065   9.078   1.115   1.004 -0.4257  0.0750  0.2247
  971MOL0     H31066   8.865   0.997   1.053 -0.9203  0.5246 -0.6721
  971MOL0     H31067   8.515   0.894   1.159 -0.5198  0.9174 -1.5054
  971MOL0     H31068   8.291   0.796   1.188  0.0261  0.7578  0.4888
  971MOL0     H31069   6.914   0.617   2.314  0.1860 -0.4991 -0.2678
  971MOL0     H31070   6.687   0.674   2.377 -2.1611  1.0802 -2.5837
  971MOL0     H31071   6.354   0.617   2.567 -1.5825 -1.8835  1.8316
  971MOL0     H31072   6.160   0.706   2.695  0.0234 -0.0734  0.0708
  971MOL0     H31073   5.922   0.786   2.781  1.2460  0.7290 -0.3553
  971MOL0     H31074   5.875   0.667   2.663 -2.6383 -0.1293 -0.2165
  971MOL0     H31075   5.733   0.936   2.698 -2.6704  0.0395  1.9879
  971MOL0     H31076   5.680   0.793   2.782 -1.5365  1.9171 -0.8709
  971MOL0     H31077   5.716   0.810   2.481  0.4066 -1.6108 -0.0590
  971MOL0     H31078   5.576   0.879   2.554  0.5404  1.0933 -0.0469
  971MOL0     H31079   5.672   0.596   2.610 -0.3030  0.2049  1.5736
  971MOL0     H31080   5.515   0.663   2.651  0.8839  1.3053  0.2463
  971MOL0     H31081   5.413   0.557   2.266  0.8867 -1.4495  0.5429
  971MOL0     H31082   5.989   0.836   2.327 -1.6702 -1.7872  0.9663
  971MOL0     H31083   6.163   0.682   2.117  0.8189 -2.2143  3.1477
  971MOL0     H31084   6.102   0.847   2.125 -0.0874 -0.3964 -0.3062
  971MOL0     H31085   6.265   0.828   2.119 -1.3385  0.1136 -2.2409
  972MOL0     O31086   7.168   6.855   2.197 -0.0964 -0.6226 -0.2765
  972MOL0     C31087   7.081   6.839   2.111  0.5404 -0.3565 -0.7230
  972MOL0     O31088   7.089   6.867   1.971 -0.9852 -0.4035  0.2333
  972MOL0     C31089   7.210   6.912   1.923 -0.2049 -0.0291  0.2054
  972MOL0     C31090   7.219   7.041   1.858 -0.2251  0.0305  0.7068
  972MOL0     C31091   7.330   7.095   1.799  0.0286 -0.3205 -0.6574
  972MOL0     C31092   7.446   7.017   1.808 -0.1041 -0.0209  0.4207
  972MOL0     O31093   7.570   7.051   1.771  0.4135  0.5779  0.1170
  972MOL0     C31094   7.602   7.181   1.707  0.8276  0.2973 -0.8472
  972MOL0     C31095   7.750   7.193   1.718 -0.7530  0.4341 -0.3650
  972MOL0     C31096   7.824   7.127   1.594 -0.1799  0.1410 -1.0225
  972MOL0     C31097   7.974   7.158   1.598 -0.2844 -0.2957 -0.7330
  972MOL0     C31098   8.053   7.072   1.504  0.4870  0.2675 -0.1161
  972MOL0     C31099   8.200   7.080   1.508  0.1162 -1.0546 -0.5179
  972MOL0     C31100   8.252   6.996   1.397  0.3304 -0.5908  1.0690
  972MOL0     C31101   8.399   6.970   1.397 -0.0562  0.1973  0.4837
  972MOL0     N31102   8.485   7.081   1.368  0.6264 -0.1536 -0.3031
  972MOL0     C31103   8.508   7.191   1.453  0.0707 -0.6379 -0.1138
  972MOL0     C31104   8.570   7.287   1.374 -0.1545  0.0067 -0.2039
  972MOL0     C31105   8.616   7.428   1.412 -0.1684  0.3960  0.2824
  972MOL0     C31106   8.715   7.407   1.528 -0.4559  0.3255 -0.0373
  972MOL0     C31107   8.847   7.352   1.466  0.3051 -0.7035  0.4002
  972MOL0     C31108   8.928   7.451   1.385 -0.2425  1.1984 -0.2252
  972MOL0     O31109   8.940   7.581   1.453 -0.1708 -0.3563 -0.2200
  972MOL0     C31110   9.061   7.646   1.461 -0.5949 -0.5208  1.1685
  972MOL0     C31111   9.086   7.729   1.568  1.1213  0.7782 -0.6932
  972MOL0     C31112   9.206   7.797   1.578 -0.3868  0.1002  0.1226
  972MOL0     C31113   9.301   7.792   1.468 -0.5862  0.2280 -0.6617
  972MOL0     C31114   9.434   7.864   1.468 -0.4648  0.0373  0.6350
  972MOL0     O31115   9.498   7.859   1.353 -0.3475  0.5885  0.3672
  972MOL0     C31116   9.631   7.899   1.348 -0.0534 -1.1365  0.5400
  972MOL0     C31117   9.669   8.008   1.268  0.0934  0.1536 -1.2300
  972MOL0     C31118   9.807   8.030   1.251  0.1762 -0.2556  0.1524
  972MOL0     C31119   9.908   7.958   1.314 -0.0454 -0.3488 -0.5258
  972MOL0     O31120  10.037   8.003   1.297 -0.7017  0.1662  0.4360
  972MOL0     C31121  10.141   7.959   1.386 -0.2757 -0.5317  0.0093
  972MOL0     C31122  10.204   7.827   1.332 -0.5430 -0.1014  0.5389
  972MOL0     C31123  10.295   7.764   1.436 -0.2789 -0.0601 -0.2852
  972MOL0     C31124  10.433   7.847   1.445  0.0788 -0.3489  0.4538
  972MOL0     C31125  10.532   7.775   1.532  0.2958 -0.4540  0.1994
  972MOL0     C31126  10.678   7.803   1.499 -0.0836  0.3158  0.6343
  972MOL0     C31127  10.720   7.952   1.501  1.3148  0.3935  0.1952
  972MOL0     C31128  10.700   8.011   1.637  0.0685  0.9598 -0.5564
  972MOL0    Cl31129  10.807   7.939   1.762  0.0201  0.5829 -0.0531
  972MOL0     C31130   9.873   7.853   1.401 -0.1259 -0.5853 -0.0523
  972MOL0     C31131   9.730   7.830   1.416  0.4110  0.6828  0.3560
  972MOL0     O31132   9.463   7.929   1.563 -0.7227 -0.6199  0.3644
  972MOL0     C31133   9.282   7.701   1.365  1.3225  0.7946  0.8016
  972MOL0     C31134   9.166   7.627   1.362 -0.1561 -0.0782  0.1036
  972MOL0     N31135   8.578   7.235   1.243  0.4590 -0.1644  0.1156
  972MOL0     N31136   8.522   7.117   1.242 -0.0989  0.2748 -0.0086
  972MOL0     C31137   7.437   6.889   1.873 -1.0168  0.3178  0.0013
  972MOL0     C31138   7.322   6.829   1.928 -0.7437 -0.3854 -0.0902
  972MOL0     C31139   6.945   6.790   2.155 -0.7960 -0.0387  0.3278
  972MOL0     C31140   6.883   6.711   2.057 -0.0130 -0.0620  0.9621
  972MOL0     C31141   6.745   6.696   2.061  0.7480  0.4365 -0.1898
  972MOL0     C31142   6.669   6.740   2.177  0.6034  0.0613  0.3151
  972MOL0     O31143   6.533   6.722   2.159 -0.1170 -0.0187 -0.1959
  972MOL0     C31144   6.445   6.709   2.269 -0.4226 -0.2818  0.1434
  972MOL0     C31145   6.308   6.650   2.228 -0.0230  0.4418  0.5779
  972MOL0     C31146   6.242   6.727   2.109  0.1252 -0.1888  0.9695
  972MOL0     C31147   6.097   6.696   2.088  0.0875  0.1343 -0.1336
  972MOL0     C31148   6.059   6.761   1.959 -0.0840 -0.3461 -0.0846
  972MOL0     C31149   6.039   6.815   1.856  0.5417  0.0058 -0.8659
  972MOL0     C31150   6.738   6.793   2.286 -0.1681  0.8671 -0.5192
  972MOL0     C31151   6.873   6.817   2.276  0.3373 -0.6848  0.4488
  972MOL0     C31152   6.930   6.877   2.401  0.9964 -0.1022 -0.0231
  972MOL0     H31153   7.130   7.104   1.856 -1.6195 -1.8643  0.8056
  972MOL0     H31154   7.343   7.196   1.761  1.9086 -0.8523 -1.4997
  972MOL0     H31155   7.562   7.192   1.606 -0.3628 -0.0851 -0.4317
  972MOL0     H31156   7.563   7.263   1.768  1.8654 -0.4789  0.9446
  972MOL0     H31157   7.792   7.151   1.811  0.2693 -2.8903 -2.1511
  972MOL0     H31158   7.790   7.294   1.711  2.8095 -0.4345  3.5548
  972MOL0     H31159   7.780   7.179   1.508  3.1661  4.7495 -0.3268
  972MOL0     H31160   7.811   7.018   1.593  2.9012 -0.3027 -0.3894
  972MOL0     H31161   7.997   7.265   1.586  0.3733 -0.2924  0.4175
  972MOL0     H31162   8.014   7.148   1.699  1.4278  1.2363 -1.2006
  972MOL0     H31163   8.023   6.968   1.520  0.4678  0.1318 -0.9508
  972MOL0     H31164   8.023   7.105   1.404 -1.9807 -1.5091 -0.0597
  972MOL0     H31165   8.229   7.184   1.491 -0.5926 -0.5250  1.3315
  972MOL0     H31166   8.232   7.047   1.607 -0.1851 -2.6923 -0.9323
  972MOL0     H31167   8.222   7.030   1.297 -0.2666 -3.1435  0.3118
  972MOL0     H31168   8.200   6.900   1.405 -0.7081 -0.1709 -0.2333
  972MOL0     H31169   8.431   6.928   1.493 -0.3784  1.8218  1.3409
  972MOL0     H31170   8.422   6.908   1.310 -0.7607 -0.8277  1.0001
  972MOL0     H31171   8.484   7.219   1.556 -0.6159  2.7811 -1.0768
  972MOL0     H31172   8.672   7.482   1.336  3.0865 -2.4553  0.3955
  972MOL0     H31173   8.525   7.486   1.429 -0.2261  0.3009  0.2997
  972MOL0     H31174   8.719   7.505   1.576 -3.1173  1.3926 -1.7731
  972MOL0     H31175   8.670   7.336   1.599  0.8382  1.4475  1.9990
  972MOL0     H31176   8.834   7.263   1.403  0.4993 -0.3217 -0.1847
  972MOL0     H31177   8.904   7.326   1.556 -1.7354 -0.5158  1.8165
  972MOL0     H31178   8.880   7.463   1.287 -1.2054  3.1742  0.4318
  972MOL0     H31179   9.023   7.399   1.375  0.1132  2.2089 -3.5220
  972MOL0     H31180   9.015   7.743   1.649  4.5162  3.6825  2.1687
  972MOL0     H31181   9.214   7.865   1.662 -2.7844  1.5417 -0.7134
  972MOL0     H31182   9.602   8.062   1.201 -1.4657 -0.8878 -0.5458
  972MOL0     H31183   9.850   8.104   1.184  0.3988  1.7385  2.3473
  972MOL0     H31184  10.209   8.046   1.379 -2.1655  0.9814 -0.4105
  972MOL0     H31185  10.118   7.937   1.490  3.4766  2.4399  1.7302
  972MOL0     H31186  10.128   7.753   1.305 -0.6380 -0.1045  0.8188
  972MOL0     H31187  10.260   7.847   1.240 -1.5772 -0.2807 -0.1556
  972MOL0     H31188  10.246   7.759   1.533 -0.0072 -0.8078 -0.1839
  972MOL0     H31189  10.324   7.663   1.406  1.0983 -1.0981  3.8747
  972MOL0     H31190  10.416   7.949   1.479  1.4814  0.5107 -1.2582
  972MOL0     H31191  10.477   7.854   1.345 -1.2723 -1.6097 -0.2701
  972MOL0     H31192  10.507   7.669   1.524 -0.5120 -0.7374  4.2170
  972MOL0     H31193  10.516   7.806   1.636  0.5726  1.2271 -0.2322
  972MOL0     H31194  10.746   7.745   1.562  0.9457 -1.0952 -1.6432
  972MOL0     H31195  10.696   7.773   1.396  0.5698  0.9905  0.5405
  972MOL0     H31196  10.652   8.008   1.436  0.6508 -1.3007 -0.6378
  972MOL0     H31197  10.822   7.963   1.462  0.7746  0.7891 -1.1743
  972MOL0     H31198  10.717   8.119   1.633  0.3187  0.8842 -1.8330
  972MOL0     H31199  10.599   8.000   1.677  0.9273  0.5304  1.6492
  972MOL0     H31200   9.950   7.804   1.458 -1.0262  2.0298  3.7704
  972MOL0     H31201   9.699   7.755   1.487 -1.9709 -1.1767 -2.3990
  972MOL0     H31202   9.358   7.677   1.292  1.1080  0.1816  0.7746
  972MOL0     H31203   9.156   7.552   1.284 -0.5241  1.1156 -1.0330
  972MOL0     H31204   7.537   6.845   1.872  0.5869  3.4437  2.5455
  972MOL0     H31205   7.319   6.731   1.974  1.4966 -0.6500 -0.3795
  972MOL0     H31206   6.930   6.684   1.963 -2.5247 -0.7560 -0.1568
  972MOL0     H31207   6.695   6.663   1.971  0.9659  0.7381 -0.4227
  972MOL0     H31208   6.431   6.811   2.307 -0.6602  0.0699 -0.8485
  972MOL0     H31209   6.491   6.649   2.347  2.5546  0.6208 -0.7792
  972MOL0     H31210   6.240   6.645   2.314 -1.5956  1.9920 -0.4971
  972MOL0     H31211   6.319   6.547   2.194 -0.8451  0.9420 -1.3221
  972MOL0     H31212   6.295   6.706   2.015  0.0204 -0.3317  0.9415
  972MOL0     H31213   6.254   6.834   2.123  0.2600 -0.0988  0.2305
  972MOL0     H31214   6.073   6.589   2.082  3.9151 -0.9772  1.5719
  972MOL0     H31215   6.038   6.726   2.175  0.5081  0.8487 -0.0849
  972MOL0     H31216   6.035   6.876   1.768 -2.5010  3.7654  1.5328
  972MOL0     H31217   6.688   6.823   2.378  0.1427  0.3467 -0.1700
  972MOL0     H31218   6.943   6.786   2.461  1.6764 -0.6861 -1.0166
  972MOL0     H31219   7.024   6.930   2.387  1.1333 -0.2265  0.3963
  972MOL0     H31220   6.854   6.938   2.450 -1.8981 -1.1571 -2.8380
  973MOL0     O31221   6.605   3.644   1.788 -0.3667 -0.6435 -0.1545
  973MOL0     C31222   6.542   3.663   1.679 -0.3983  0.3348 -0.4421
  973MOL0     O31223   6.603   3.668   1.555  0.3136  0.4374  0.0160
  973MOL0     C31224   6.736   3.654   1.540 -0.5149  0.3282  0.7287
  973MOL0     C31225   6.785   3.551   1.463 -0.1284 -0.6109  0.3278
  973MOL0     C31226   6.923   3.546   1.457 -0.6183 -0.4286 -0.0908
  973MOL0     C31227   7.021   3.617   1.529  0.0289 -0.3193 -0.1788
  973MOL0     O31228   7.158   3.606   1.508  0.6239 -0.0698 -0.3429
  973MOL0     C31229   7.251   3.718   1.517  0.4802 -0.2409 -0.4098
  973MOL0     C31230   7.392   3.661   1.480  0.3167 -0.5145 -0.3942
  973MOL0     C31231   7.503   3.751   1.538 -0.1595 -0.2977 -0.4656
  973MOL0     C31232   7.636   3.746   1.462  0.6837  0.6872 -0.2278
  973MOL0     C31233   7.743   3.835   1.534  0.9977 -0.0759  0.0308
  973MOL0     C31234   7.877   3.814   1.464  0.1106  1.2270 -0.1244
  973MOL0     C31235   7.986   3.902   1.514  0.1226  0.6692  0.8406
  973MOL0     C31236   8.007   4.031   1.430  0.5454 -0.2854  0.3360
  973MOL0     N31237   8.132   4.089   1.472  0.2545 -0.5811 -1.0944
  973MOL0     C31238   8.150   4.209   1.538  0.9439  0.0652  0.8162
  973MOL0     C31239   8.282   4.229   1.542 -0.8730  0.8615 -0.4257
  973MOL0     C31240   8.351   4.353   1.596  0.6553 -0.2166  0.9881
  973MOL0     C31241   8.456   4.314   1.695 -0.3488  0.6913 -0.1385
  973MOL0     C31242   8.489   4.429   1.795 -0.1529  0.0510  0.0244
  973MOL0     C31243   8.617   4.405   1.876  0.0801  1.0663 -0.7592
  973MOL0     O31244   8.666   4.529   1.925  0.1499  0.7309  0.4401
  973MOL0     C31245   8.773   4.535   2.009 -0.4256  0.4398  0.0426
  973MOL0     C31246   8.828   4.425   2.080  0.1026 -0.3398 -0.5040
  973MOL0     C31247   8.920   4.448   2.184  0.3822 -0.5973  0.8005
  973MOL0     C31248   8.969   4.577   2.209 -0.2468 -0.6417 -0.1183
  973MOL0     C31249   9.086   4.598   2.299 -0.3794  0.2640  0.7181
  973MOL0     O31250   9.142   4.715   2.276  0.3142  0.5427  0.0663
  973MOL0     C31251   9.259   4.749   2.338  0.7715  0.1476  0.1388
  973MOL0     C31252   9.366   4.666   2.337 -0.2827  0.4957  0.2143
  973MOL0     C31253   9.484   4.715   2.388  0.4929  0.4384  0.1098
  973MOL0     C31254   9.496   4.843   2.439  0.0368  0.2418 -0.5267
  973MOL0     O31255   9.620   4.892   2.467  0.1767 -0.3087 -0.6106
  973MOL0     C31256   9.749   4.816   2.470 -0.9596  0.6761 -0.3500
  973MOL0     C31257   9.866   4.897   2.446 -0.4761  0.0329 -0.3282
  973MOL0     C31258   9.912   4.961   2.576  0.9753 -0.2345 -0.3074
  973MOL0     C31259  10.061   4.955   2.593 -0.7770 -0.2644  0.2243
  973MOL0     C31260  10.147   5.012   2.476  0.3415  0.4968  0.3713
  973MOL0     C31261  10.297   4.971   2.483 -0.0473  0.3143  0.1613
  973MOL0     C31262  10.368   5.045   2.599 -0.0464 -0.5151 -0.5674
  973MOL0     C31263  10.514   5.050   2.613 -0.4451  1.6317  0.2412
  973MOL0    Cl31264  10.594   5.143   2.491  0.0602  0.0672 -0.2271
  973MOL0     C31265   9.389   4.932   2.435 -1.1151 -0.3677  0.0480
  973MOL0     C31266   9.271   4.882   2.387 -0.0466 -0.4377 -0.4170
  973MOL0     O31267   9.116   4.513   2.388  1.4125  0.7216 -0.5707
  973MOL0     C31268   8.911   4.684   2.135 -0.6484  0.1964  0.1736
  973MOL0     C31269   8.810   4.662   2.038 -0.4035  0.4599 -0.8867
  973MOL0     N31270   8.348   4.114   1.493  0.0154 -0.0157 -0.4234
  973MOL0     N31271   8.254   4.032   1.447 -0.3560  0.5434 -0.8411
  973MOL0     C31272   6.969   3.714   1.619  0.3379  0.6548  0.2577
  973MOL0     C31273   6.831   3.730   1.617  0.0710  0.7903  0.1503
  973MOL0     C31274   6.399   3.695   1.688 -0.0374  0.5999 -1.2748
  973MOL0     C31275   6.338   3.706   1.812  0.1841  1.0357  0.1085
  973MOL0     C31276   6.203   3.731   1.834 -0.0075 -0.3798  0.6706
  973MOL0     C31277   6.117   3.742   1.729  0.3827 -0.2361  0.0861
  973MOL0     O31278   5.987   3.763   1.741 -0.1758 -0.0741 -0.6296
  973MOL0     C31279   5.917   3.774   1.867 -1.1738  0.7675 -0.3216
  973MOL0     C31280   5.755   3.774   1.854  0.0833  1.5829 -0.7706
  973MOL0     C31281   5.711   3.875   1.755 -1.1326 -0.1742 -0.2899
  973MOL0     C31282   5.559   3.889   1.744  0.4887 -0.5257  0.0515
  973MOL0     C31283   5.498   3.786   1.663  0.3452 -0.2837  0.0072
  973MOL0     C31284   5.439   3.706   1.587 -0.3692 -0.3858  0.7214
  973MOL0     C31285   6.172   3.733   1.602  0.1257  1.0763 -0.2223
  973MOL0     C31286   6.312   3.721   1.575  0.0003  0.1010  0.4282
  973MOL0     C31287   6.350   3.727   1.433  0.1914  0.7681  0.2496
  973MOL0     H31288   6.718   3.483   1.412 -1.3053  1.1303 -0.5452
  973MOL0     H31289   6.970   3.470   1.394  2.4884  1.2393  0.0404
  973MOL0     H31290   7.224   3.798   1.448 -0.0800  0.3515  0.4735
  973MOL0     H31291   7.251   3.772   1.613  0.0626  2.2786 -1.7546
  973MOL0     H31292   7.406   3.651   1.372  2.1162 -0.1231 -0.2144
  973MOL0     H31293   7.386   3.559   1.520 -2.0375 -0.3310 -0.0882
  973MOL0     H31294   7.518   3.720   1.642 -0.4800  2.7754  0.6018
  973MOL0     H31295   7.462   3.852   1.534 -1.2567 -0.4035  3.5910
  973MOL0     H31296   7.668   3.643   1.447 -1.7347  0.0969 -2.0167
  973MOL0     H31297   7.616   3.782   1.360  2.0834  0.7873 -0.4883
  973MOL0     H31298   7.713   3.940   1.545  1.9320  0.0340  1.7525
  973MOL0     H31299   7.751   3.792   1.634  2.7434 -0.6550 -0.3287
  973MOL0     H31300   7.914   3.713   1.483  2.1552  2.0827  0.7529
  973MOL0     H31301   7.864   3.831   1.356  2.4378  3.8968 -0.0893
  973MOL0     H31302   8.079   3.849   1.491 -1.8468 -3.4418  1.4669
  973MOL0     H31303   7.979   3.926   1.620  0.4543  0.5762  0.8860
  973MOL0     H31304   8.004   4.015   1.322 -0.4735  0.5089  0.2358
  973MOL0     H31305   7.927   4.101   1.454  0.6635  0.1649 -0.5362
  973MOL0     H31306   8.069   4.280   1.552  2.0959  1.3539  1.0781
  973MOL0     H31307   8.390   4.419   1.518 -0.3132  2.4389  2.6231
  973MOL0     H31308   8.279   4.410   1.656 -1.2993 -1.2237 -0.3058
  973MOL0     H31309   8.440   4.219   1.748 -1.1368  0.8896 -0.0080
  973MOL0     H31310   8.544   4.290   1.636 -0.6420  1.5342 -0.9379
  973MOL0     H31311   8.403   4.439   1.862 -0.6092  2.1115 -0.8094
  973MOL0     H31312   8.504   4.523   1.742  3.3033  0.1706  0.9556
  973MOL0     H31313   8.684   4.351   1.809  0.1446 -2.3705  1.7614
  973MOL0     H31314   8.611   4.344   1.967  0.6745  0.7952 -0.9018
  973MOL0     H31315   8.790   4.324   2.070 -2.1102  0.3134  0.4417
  973MOL0     H31316   8.957   4.364   2.243 -0.3066 -2.6033 -1.4727
  973MOL0     H31317   9.365   4.562   2.308 -2.4218  1.0203 -1.8091
  973MOL0     H31318   9.570   4.649   2.394 -1.2424 -1.8517  1.3884
  973MOL0     H31319   9.767   4.764   2.564  2.0515  2.8432  0.4332
  973MOL0     H31320   9.741   4.747   2.385 -2.8314  0.2153  0.1560
  973MOL0     H31321   9.938   4.827   2.403  0.0011  0.1042  0.3386
  973MOL0     H31322   9.841   4.976   2.375  0.8515  0.8018  0.0216
  973MOL0     H31323   9.865   5.059   2.580 -1.4412 -1.2583 -1.4061
  973MOL0     H31324   9.869   4.908   2.662  2.7880 -0.1700  0.6936
  973MOL0     H31325  10.099   4.853   2.601 -0.5718 -0.1306  1.0775
  973MOL0     H31326  10.088   5.011   2.683  0.0415  1.5159 -1.0575
  973MOL0     H31327  10.144   5.121   2.480  0.6737  0.5667 -0.9413
  973MOL0     H31328  10.108   4.984   2.378 -0.7830  3.2850 -0.0857
  973MOL0     H31329  10.299   4.864   2.506 -1.0087  0.5711  1.5948
  973MOL0     H31330  10.351   4.989   2.390  0.7831  0.7104  0.7069
  973MOL0     H31331  10.340   4.992   2.691  1.4994 -1.9551 -0.8819
  973MOL0     H31332  10.330   5.147   2.606 -0.1918 -0.6438  0.8266
  973MOL0     H31333  10.523   5.087   2.715 -0.2829  0.8459  0.5100
  973MOL0     H31334  10.551   4.948   2.604 -0.6728  1.6446 -1.1495
  973MOL0     H31335   9.392   5.036   2.468  2.1843 -0.9234  1.9774
  973MOL0     H31336   9.186   4.949   2.387  0.7663  0.6574  1.2049
  973MOL0     H31337   8.949   4.785   2.151 -0.6446 -0.0663  2.0364
  973MOL0     H31338   8.767   4.750   1.991  0.6193  0.6511 -1.5111
  973MOL0     H31339   7.026   3.771   1.692  0.0247 -0.1005  1.1225
  973MOL0     H31340   6.788   3.809   1.678  0.3165  2.1487 -1.3515
  973MOL0     H31341   6.393   3.695   1.906 -1.1981  2.1886  1.0939
  973MOL0     H31342   6.168   3.741   1.936  2.0002 -1.7301  1.5544
  973MOL0     H31343   5.954   3.866   1.912 -0.5081  1.2755 -1.8452
  973MOL0     H31344   5.944   3.692   1.935  0.8958  1.5853 -0.0771
  973MOL0     H31345   5.709   3.794   1.950  1.6982 -2.5731  1.1128
  973MOL0     H31346   5.716   3.676   1.823  0.1188  1.5655 -0.7615
  973MOL0     H31347   5.760   3.858   1.659  0.5959  1.0585  0.3325
  973MOL0     H31348   5.738   3.974   1.792  1.2808 -1.1904  0.9430
  973MOL0     H31349   5.518   3.887   1.845 -2.4155  0.9678 -0.9864
  973MOL0     H31350   5.537   3.982   1.691 -1.5702 -0.9189  0.1556
  973MOL0     H31351   5.395   3.636   1.519 -0.6912  0.4616  0.0269
  973MOL0     H31352   6.109   3.724   1.514  1.4679  0.5534 -1.1731
  973MOL0     H31353   6.386   3.633   1.391 -2.2651 -0.1197 -0.0620
  973MOL0     H31354   6.264   3.762   1.375 -0.4117  1.4162  1.4870
  973MOL0     H31355   6.425   3.805   1.418 -1.4505  2.2701 -0.5435
  974MOL0     O31356  10.669   3.116   3.870  0.2256  0.2264 -0.3549
  974MOL0     C31357  10.601   3.019   3.909 -0.0644 -0.7840  0.2323
  974MOL0     O31358  10.650   2.927   3.997 -0.2464 -0.3923  0.5003
  974MOL0     C31359  10.765   2.948   4.064 -0.1831  0.6544  0.7409
  974MOL0     C31360  10.776   3.028   4.180 -0.4518  0.6201  0.1785
  974MOL0     C31361  10.901   3.038   4.241 -0.4576  0.5649 -0.7215
  974MOL0     C31362  11.018   2.986   4.186 -0.4337 -0.0599 -0.7367
  974MOL0     O31363  11.134   2.979   4.263  0.2785  0.2131  0.5353
  974MOL0     C31364  11.251   3.029   4.192  0.0317 -0.3986  0.4870
  974MOL0     C31365  11.368   3.037   4.292  1.0177 -0.4848  0.3630
  974MOL0     C31366  11.436   2.900   4.308  0.9384 -0.1032  0.6239
  974MOL0     C31367  11.516   2.912   4.431  0.6695 -0.0019  0.9258
  974MOL0     C31368  11.593   2.774   4.448 -0.3743 -0.0116  0.0909
  974MOL0     C31369  11.712   2.779   4.555 -0.3252  0.4866 -0.6877
  974MOL0     C31370  11.672   2.846   4.688 -0.0277  0.1014  0.2240
  974MOL0     C31371  11.542   2.780   4.749  0.3861  0.1309 -0.7279
  974MOL0     N31372  11.581   2.658   4.831  0.1415  0.0813 -0.8217
  974MOL0     C31373  11.585   2.526   4.781 -0.5539  0.2847 -0.3430
  974MOL0     C31374  11.607   2.461   4.896 -0.1042  0.5048  0.5138
  974MOL0     C31375  11.609   2.318   4.912 -0.2460  1.1313 -0.5039
  974MOL0     C31376  11.750   2.254   4.934  0.9191 -0.5613  0.6250
  974MOL0     C31377  11.737   2.104   4.956 -0.9621  0.0503 -1.0118
  974MOL0     C31378  11.867   2.029   4.993  0.2971 -0.6984 -0.3855
  974MOL0     O31379  11.979   2.057   4.914  0.7940 -0.0679  0.3097
  974MOL0     C31380  12.094   1.991   4.950  0.6041  0.0303  0.7211
  974MOL0     C31381  12.123   1.917   5.067  0.7686  0.2492  0.6209
  974MOL0     C31382  12.249   1.847   5.089 -0.0621  0.1398  0.1515
  974MOL0     C31383  12.353   1.853   4.990  0.2230  0.4651 -0.4333
  974MOL0     C31384  12.489   1.794   5.018 -0.0157  0.3143  0.6202
  974MOL0     O31385  12.581   1.820   4.920 -0.4964  0.3676  0.8200
  974MOL0     C31386  12.708   1.762   4.929  1.7811 -1.2556 -0.3473
  974MOL0     C31387  12.764   1.693   4.827 -0.0169  0.9579 -0.3366
  974MOL0     C31388  12.895   1.637   4.839 -0.1773 -0.4870  0.7431
  974MOL0     C31389  12.976   1.680   4.943  0.7154  0.2902  0.1655
  974MOL0     O31390  13.098   1.633   4.965  0.1928 -0.3173 -0.6546
  974MOL0     C31391  13.201   1.671   4.864  0.5631 -0.7931  0.4149
  974MOL0     C31392  13.329   1.597   4.899 -0.2752  0.4219 -0.6175
  974MOL0     C31393  13.465   1.649   4.830  0.1746  0.5982  0.2206
  974MOL0     C31394  13.592   1.571   4.875 -0.5126 -0.3820 -0.6728
  974MOL0     C31395  13.616   1.577   5.025  0.6100  0.0249 -0.0856
  974MOL0     C31396  13.757   1.600   5.079 -0.0640 -0.0665  0.3364
  974MOL0     C31397  13.831   1.475   5.092  0.7821 -0.1025 -0.8318
  974MOL0     C31398  13.982   1.498   5.085 -0.7052 -0.1915 -0.6121
  974MOL0    Cl31399  14.035   1.608   5.216  0.3761 -0.2618 -0.2130
  974MOL0     C31400  12.921   1.761   5.039 -0.7601  0.5818 -0.2209
  974MOL0     C31401  12.787   1.800   5.035  0.0474 -0.4488 -0.7620
  974MOL0     O31402  12.508   1.728   5.122 -0.5842  0.3420  0.6088
  974MOL0     C31403  12.319   1.922   4.869  0.0596  0.1605  0.0610
  974MOL0     C31404  12.197   1.986   4.852 -0.0462 -0.6227  0.1488
  974MOL0     N31405  11.629   2.547   5.005 -0.2911 -0.6817  0.6491
  974MOL0     N31406  11.609   2.668   4.960 -1.4060 -0.2227  0.3040
  974MOL0     C31407  11.000   2.911   4.069  0.2937  0.1546 -0.3862
  974MOL0     C31408  10.876   2.890   4.007  0.5836  0.3176  0.2955
  974MOL0     C31409  10.461   2.997   3.866  0.4377 -0.5063  0.3402
  974MOL0     C31410  10.408   2.868   3.880 -0.7102  0.0293 -0.5891
  974MOL0     C31411  10.281   2.843   3.822  0.0247  0.4172  0.2598
  974MOL0     C31412  10.202   2.937   3.753 -0.0999  0.5521  0.5934
  974MOL0     O31413  10.080   2.892   3.709  0.2750 -0.1582  0.4201
  974MOL0     C31414  10.007   2.978   3.620 -0.3540 -0.8012 -0.0205
  974MOL0     C31415   9.911   3.068   3.699  0.8085  0.0091 -0.0268
  974MOL0     C31416   9.767   3.009   3.706 -1.4030 -0.2647 -0.4467
  974MOL0     C31417   9.768   2.898   3.817  0.4764  0.6362 -0.1332
  974MOL0     C31418   9.628   2.848   3.831 -0.3007 -0.4184 -0.9261
  974MOL0     C31419   9.512   2.808   3.833  0.0730 -0.6154  0.0905
  974MOL0     C31420  10.244   3.077   3.757 -0.4798 -0.4319  0.2787
  974MOL0     C31421  10.375   3.102   3.817 -0.2730  0.2937 -0.4720
  974MOL0     C31422  10.431   3.234   3.803 -0.4955  0.4330 -0.0119
  974MOL0     H31423  10.693   3.083   4.223  1.0222  2.3511  0.9270
  974MOL0     H31424  10.917   3.099   4.330  1.1909 -1.9639  0.8448
  974MOL0     H31425  11.284   2.969   4.107  1.1422  0.8851 -0.0218
  974MOL0     H31426  11.232   3.133   4.161 -1.4050 -0.7797  0.0037
  974MOL0     H31427  11.345   3.086   4.387  2.0817  1.1787 -0.1885
  974MOL0     H31428  11.448   3.094   4.244  0.7653 -0.6518 -0.2613
  974MOL0     H31429  11.490   2.875   4.217  0.8928  1.6928  0.0740
  974MOL0     H31430  11.359   2.822   4.317 -1.7112  2.3663  0.8983
  974MOL0     H31431  11.584   2.996   4.416  1.1913 -0.3988  1.0692
  974MOL0     H31432  11.459   2.930   4.523  0.5974 -1.4817  1.1899
  974MOL0     H31433  11.513   2.703   4.472 -0.2172 -1.2880 -2.7649
  974MOL0     H31434  11.639   2.729   4.359  1.7779 -0.5077  1.3736
  974MOL0     H31435  11.746   2.676   4.568  0.2371  0.9438  2.2607
  974MOL0     H31436  11.800   2.825   4.509 -0.6771 -0.2634 -2.1735
  974MOL0     H31437  11.646   2.945   4.650  0.1238 -1.6820 -5.5904
  974MOL0     H31438  11.748   2.835   4.765  0.6817 -2.0336 -0.7156
  974MOL0     H31439  11.512   2.850   4.827 -0.2678 -0.8670 -0.0556
  974MOL0     H31440  11.460   2.761   4.679 -1.8731  2.1913  1.1663
  974MOL0     H31441  11.565   2.480   4.685 -1.3159 -1.5217  0.6366
  974MOL0     H31442  11.554   2.283   5.000 -2.6415 -2.9120 -3.3061
  974MOL0     H31443  11.557   2.269   4.829 -1.1654 -2.0987  1.8015
  974MOL0     H31444  11.804   2.274   4.841  1.2646  2.0309  1.3108
  974MOL0     H31445  11.791   2.306   5.020 -3.3458  4.1485  0.2772
  974MOL0     H31446  11.690   2.057   4.869  0.2833  1.5020 -2.5351
  974MOL0     H31447  11.669   2.099   5.042 -0.8817 -0.4109 -0.9729
  974MOL0     H31448  11.847   1.922   4.985 -1.1285 -0.4739 -0.1932
  974MOL0     H31449  11.896   2.065   5.092  1.2023 -2.4886  0.0305
  974MOL0     H31450  12.048   1.913   5.146 -0.5367 -0.5590 -0.6120
  974MOL0     H31451  12.263   1.787   5.178  1.0979 -3.7771 -2.4292
  974MOL0     H31452  12.695   1.668   4.747  1.8348  1.8707 -2.3392
  974MOL0     H31453  12.935   1.567   4.767  0.6726 -1.0798  1.7586
  974MOL0     H31454  13.163   1.640   4.767  0.9481  0.5196 -0.1708
  974MOL0     H31455  13.208   1.780   4.871  2.7643 -0.9548  1.9835
  974MOL0     H31456  13.333   1.608   5.008  1.3965 -1.1521 -0.4784
  974MOL0     H31457  13.318   1.490   4.882 -0.8658 -0.0730  2.2404
  974MOL0     H31458  13.469   1.631   4.722  1.3597 -0.0910  0.3706
  974MOL0     H31459  13.467   1.755   4.856 -2.0265  1.0281 -1.0387
  974MOL0     H31460  13.684   1.613   4.834 -0.9342  1.1679 -0.1236
  974MOL0     H31461  13.582   1.468   4.841 -1.1478 -0.3629 -0.5657
  974MOL0     H31462  13.570   1.488   5.068 -0.3982 -0.0378 -1.2275
  974MOL0     H31463  13.555   1.661   5.062  2.0757  0.4865  1.3816
  974MOL0     H31464  13.809   1.669   5.012 -1.4544  1.1311  0.4216
  974MOL0     H31465  13.746   1.651   5.175 -4.0091 -1.7850  1.0042
  974MOL0     H31466  13.797   1.406   5.014 -0.0032 -1.5885  0.7455
  974MOL0     H31467  13.807   1.418   5.183 -2.0728  0.0176 -1.3900
  974MOL0     H31468  14.046   1.411   5.103  2.0679  1.8642  0.0848
  974MOL0     H31469  14.010   1.537   4.987  0.9756  0.6379  0.1498
  974MOL0     H31470  12.977   1.788   5.128 -0.0271  2.0026 -1.0695
  974MOL0     H31471  12.750   1.855   5.121  1.1951  0.8891 -1.0809
  974MOL0     H31472  12.399   1.937   4.798 -1.5194 -1.8539 -2.3049
  974MOL0     H31473  12.184   2.046   4.763 -1.1602  1.3907  1.6073
  974MOL0     H31474  11.086   2.860   4.027  0.7599  0.9740 -0.4383
  974MOL0     H31475  10.865   2.832   3.916  2.8953 -0.9604  0.7525
  974MOL0     H31476  10.479   2.792   3.913  2.0400  2.7613  0.3264
  974MOL0     H31477  10.247   2.741   3.806  0.5574  0.2441  0.2119
  974MOL0     H31478   9.951   2.915   3.550 -2.8768 -0.1777  1.3282
  974MOL0     H31479  10.078   3.040   3.564 -0.5047  0.1111  0.7817
  974MOL0     H31480   9.909   3.167   3.652 -0.0045  1.0254  2.0110
  974MOL0     H31481   9.942   3.099   3.799 -1.7098  0.3405  0.7153
  974MOL0     H31482   9.736   2.958   3.614 -0.1444  0.5379 -1.3321
  974MOL0     H31483   9.694   3.090   3.719 -1.3227 -0.2268 -0.2199
  974MOL0     H31484   9.843   2.830   3.776 -1.9322 -1.7672 -0.8009
  974MOL0     H31485   9.812   2.936   3.909  1.9063 -1.2546  0.0095
  974MOL0     H31486   9.414   2.765   3.824 -1.9302  2.9529  2.3649
  974MOL0     H31487  10.185   3.153   3.708  2.5267  0.9397 -1.4691
  974MOL0     H31488  10.470   3.280   3.895  1.3222  3.5802 -2.1405
  974MOL0     H31489  10.515   3.232   3.734  3.2389  0.9715  4.0923
  974MOL0     H31490  10.357   3.304   3.762 -2.2878 -0.7641  1.0328
  975MOL0     O31491   8.781   5.185   0.499  0.8541  0.2904 -0.7675
  975MOL0     C31492   8.901   5.178   0.490 -0.3221  0.5699  1.0233
  975MOL0     O31493   8.985   5.245   0.571 -0.3308 -0.7733  0.3209
  975MOL0     C31494   8.935   5.329   0.671 -0.2807 -0.7529 -0.0199
  975MOL0     C31495   8.905   5.461   0.643  0.1278  0.7886  0.4382
  975MOL0     C31496   8.838   5.541   0.736  0.4424  0.0121 -0.0680
  975MOL0     C31497   8.800   5.486   0.863  0.4080  0.5127 -0.2687
  975MOL0     O31498   8.735   5.556   0.960 -0.2664 -0.2501 -0.0637
  975MOL0     C31499   8.693   5.690   0.935  0.2969  1.0445 -0.7352
  975MOL0     C31500   8.819   5.774   0.945 -0.5324  0.1433  0.0829
  975MOL0     C31501   8.858   5.793   1.092  0.2020  0.1734 -0.2669
  975MOL0     C31502   8.986   5.867   1.091 -0.1678 -0.3286  0.7674
  975MOL0     C31503   9.058   5.869   1.227 -0.5444 -0.1353 -0.2691
  975MOL0     C31504   9.189   5.954   1.244  0.5549 -1.0103  0.2800
  975MOL0     C31505   9.180   6.100   1.191 -0.3860  0.1209  0.6762
  975MOL0     C31506   9.306   6.169   1.239 -0.6193 -0.1775 -0.1665
  975MOL0     N31507   9.331   6.297   1.171  0.1615  0.4148  0.0555
  975MOL0     C31508   9.291   6.426   1.212  0.5015  0.2483  0.1638
  975MOL0     C31509   9.317   6.502   1.109  0.2374  0.4890 -0.2611
  975MOL0     C31510   9.293   6.645   1.099 -0.3340  0.1285  0.3885
  975MOL0     C31511   9.385   6.735   1.016  0.2632  0.3427  0.3892
  975MOL0     C31512   9.530   6.721   1.078 -0.0097  0.1204  0.5797
  975MOL0     C31513   9.608   6.849   1.027 -0.3964 -0.1285  0.1121
  975MOL0     O31514   9.735   6.834   1.074  0.1468  0.1223  0.1065
  975MOL0     C31515   9.829   6.913   1.031 -0.7915 -1.0050  0.1919
  975MOL0     C31516   9.962   6.865   1.020 -0.0133 -0.2270 -0.2660
  975MOL0     C31517  10.072   6.938   0.967 -0.8289  0.0170 -0.1378
  975MOL0     C31518  10.055   7.076   0.939 -0.7103  0.2335 -0.0634
  975MOL0     C31519  10.172   7.159   0.887 -0.2939  0.1914  0.5244
  975MOL0     O31520  10.287   7.098   0.838 -0.0409  0.2963 -0.3683
  975MOL0     C31521  10.392   7.179   0.800 -1.0075  0.5011 -0.1644
  975MOL0     C31522  10.506   7.192   0.880  0.2239 -0.8083 -0.8541
  975MOL0     C31523  10.605   7.290   0.848  1.4156  0.6670 -0.6314
  975MOL0     C31524  10.586   7.367   0.729 -0.7736 -0.0359  0.5449
  975MOL0     O31525  10.684   7.455   0.697 -0.3437  0.4970 -0.8099
  975MOL0     C31526  10.791   7.487   0.789  0.6608  0.8839 -0.3953
  975MOL0     C31527  10.887   7.590   0.735 -0.4174 -0.4790  0.5809
  975MOL0     C31528  10.969   7.541   0.613  0.2896  0.2816  0.0808
  975MOL0     C31529  11.064   7.649   0.559  0.1663  0.0816  0.2649
  975MOL0     C31530  11.194   7.656   0.626 -0.0580  0.4655 -0.2121
  975MOL0     C31531  11.288   7.750   0.553  0.2178  0.2216  0.5940
  975MOL0     C31532  11.426   7.772   0.615  0.5925 -0.0222 -0.6643
  975MOL0     C31533  11.519   7.842   0.521 -0.7104 -0.0512 -0.0177
  975MOL0    Cl31534  11.642   7.929   0.614  0.0254  0.1766  0.0041
  975MOL0     C31535  10.477   7.338   0.643 -0.1784 -0.3799  0.8218
  975MOL0     C31536  10.381   7.247   0.680  0.1390 -0.0794 -0.2643
  975MOL0     O31537  10.158   7.282   0.893  0.0779 -0.0351  0.3041
  975MOL0     C31538   9.924   7.129   0.950 -0.4160 -0.0363  0.8237
  975MOL0     C31539   9.817   7.053   0.991  0.1634 -0.5366 -1.0876
  975MOL0     N31540   9.379   6.425   1.012 -0.1710 -0.7595 -0.1089
  975MOL0     N31541   9.397   6.305   1.052 -0.4589  0.3738  0.0725
  975MOL0     C31542   8.824   5.352   0.884 -0.1270 -0.2340  0.2336
  975MOL0     C31543   8.892   5.272   0.784  0.3148  0.0415  0.0720
  975MOL0     C31544   8.960   5.100   0.373 -0.6818  0.7598 -0.5114
  975MOL0     C31545   9.101   5.091   0.369  0.1705  0.0136 -0.2751
  975MOL0     C31546   9.164   5.019   0.264 -0.2072 -0.6201  0.0880
  975MOL0     C31547   9.096   4.964   0.160  0.5788  0.3903  0.2371
  975MOL0     O31548   9.157   4.902   0.062 -0.9276 -0.1807 -0.0502
  975MOL0     C31549   9.116   4.906  -0.079  0.4889  0.0898 -0.2665
  975MOL0     C31550   9.239   4.910  -0.178  0.7668  0.8124  0.0596
  975MOL0     C31551   9.303   5.046  -0.195 -0.4380  0.0778  0.0456
  975MOL0     C31552   9.405   5.045  -0.309 -0.0386  0.6627 -0.4801
  975MOL0     C31553   9.501   4.935  -0.295  0.0665 -0.0756  0.1634
  975MOL0     C31554   9.584   4.849  -0.272 -0.2768 -1.5383  0.3209
  975MOL0     C31555   8.960   4.973   0.169 -0.5726  0.3296  0.8243
  975MOL0     C31556   8.885   5.035   0.271 -0.1027  0.3178 -0.0180
  975MOL0     C31557   8.734   5.026   0.271 -0.0639 -0.2042 -0.2609
  975MOL0     H31558   8.920   5.504   0.544  0.1962  1.3121  0.6703
  975MOL0     H31559   8.813   5.643   0.712 -1.8735 -0.6175 -0.5010
  975MOL0     H31560   8.662   5.698   0.831  0.5145  2.0765 -0.7299
  975MOL0     H31561   8.612   5.725   1.000 -0.4719 -0.0951 -1.0519
  975MOL0     H31562   8.796   5.876   0.913  1.1891  0.2906 -0.8059
  975MOL0     H31563   8.903   5.736   0.886  0.1770  2.3203 -0.3915
  975MOL0     H31564   8.866   5.697   1.144  2.7975  0.3311 -0.2443
  975MOL0     H31565   8.777   5.848   1.141  0.9285  0.2190  0.9255
  975MOL0     H31566   9.055   5.834   1.012  0.8992  2.7649  0.2835
  975MOL0     H31567   8.972   5.971   1.063  1.8395 -0.2354 -0.0854
  975MOL0     H31568   8.992   5.911   1.303  1.0058  0.7056  0.6677
  975MOL0     H31569   9.084   5.772   1.272  0.5773  1.0419  1.7300
  975MOL0     H31570   9.213   5.947   1.351  1.9194 -2.2804 -0.0744
  975MOL0     H31571   9.272   5.911   1.188  0.1575 -0.2524 -0.9296
  975MOL0     H31572   9.090   6.145   1.234  0.9764  1.7599  1.9214
  975MOL0     H31573   9.178   6.106   1.082  0.5187  1.0281  0.7013
  975MOL0     H31574   9.296   6.182   1.347  1.8270  1.0419 -0.0204
  975MOL0     H31575   9.392   6.102   1.226 -0.1160  0.0667  1.6148
  975MOL0     H31576   9.230   6.449   1.299 -0.5788 -1.5957 -0.0218
  975MOL0     H31577   9.191   6.643   1.059 -0.1569 -1.7014 -0.0598
  975MOL0     H31578   9.300   6.673   1.205 -1.5495 -0.5660  0.6711
  975MOL0     H31579   9.386   6.715   0.908 -0.1480  4.5682 -0.5884
  975MOL0     H31580   9.350   6.837   1.031  0.0123  0.4546 -0.8075
  975MOL0     H31581   9.576   6.631   1.038  1.3886  2.0894 -2.6538
  975MOL0     H31582   9.530   6.722   1.188 -0.6578 -0.3450  0.5891
  975MOL0     H31583   9.554   6.944   1.034 -1.5215 -0.7337 -0.1757
  975MOL0     H31584   9.627   6.835   0.921  4.0707  1.9495  0.3999
  975MOL0     H31585   9.979   6.760   1.044 -0.2066 -0.4496 -1.0839
  975MOL0     H31586  10.166   6.887   0.954 -2.3360 -2.4662 -2.5272
  975MOL0     H31587  10.501   7.154   0.981 -0.5718 -0.0740 -0.5997
  975MOL0     H31588  10.688   7.307   0.916 -0.3524 -0.9371  2.1245
  975MOL0     H31589  10.751   7.523   0.884  1.7131 -1.1836  0.9046
  975MOL0     H31590  10.841   7.392   0.809 -1.9080 -0.6716 -0.8998
  975MOL0     H31591  10.852   7.687   0.699  3.0469  1.4897  2.0254
  975MOL0     H31592  10.961   7.614   0.812 -0.6968 -0.7565  0.9393
  975MOL0     H31593  11.032   7.458   0.643 -1.1431 -0.8947 -0.0421
  975MOL0     H31594  10.901   7.511   0.532  0.0964  1.2602 -0.1374
  975MOL0     H31595  11.007   7.742   0.562 -2.1957 -1.3190  1.8376
  975MOL0     H31596  11.083   7.631   0.452 -0.3389  3.3875 -0.4817
  975MOL0     H31597  11.240   7.557   0.631 -0.8334  0.1477  1.6077
  975MOL0     H31598  11.181   7.687   0.730 -0.9654  3.2898 -1.0921
  975MOL0     H31599  11.299   7.716   0.450 -1.0564  1.4040  0.0382
  975MOL0     H31600  11.244   7.850   0.548  0.8777  0.5752  1.6594
  975MOL0     H31601  11.470   7.674   0.633 -2.1087 -1.4287 -1.1440
  975MOL0     H31602  11.402   7.834   0.702  1.0300  2.2507 -2.0782
  975MOL0     H31603  11.563   7.776   0.446  0.0705  0.1567  0.2406
  975MOL0     H31604  11.468   7.915   0.458 -0.7008 -0.4186 -0.4487
  975MOL0     H31605  10.467   7.397   0.552 -0.9666 -1.2349  0.3440
  975MOL0     H31606  10.288   7.236   0.625 -1.6772  0.1978  2.5322
  975MOL0     H31607   9.914   7.235   0.931  0.5183 -0.1897 -0.7470
  975MOL0     H31608   9.723   7.106   1.007  0.4177 -0.4934  0.4141
  975MOL0     H31609   8.787   5.304   0.974 -1.2881 -1.6090 -0.9217
  975MOL0     H31610   8.907   5.165   0.798 -1.9684 -0.1591  1.5403
  975MOL0     H31611   9.172   5.142   0.434  0.6719 -0.7296 -0.2360
  975MOL0     H31612   9.272   5.034   0.258 -0.6159  2.5916 -3.9912
  975MOL0     H31613   9.051   4.993  -0.095 -1.3079 -0.9697  0.8845
  975MOL0     H31614   9.063   4.812  -0.098 -2.1934  1.4252  0.0576
  975MOL0     H31615   9.194   4.886  -0.275  0.9575 -3.0273  0.7641
  975MOL0     H31616   9.299   4.822  -0.154 -2.5148 -1.5619  0.2508
  975MOL0     H31617   9.360   5.071  -0.105  1.1578 -0.4051 -0.8007
  975MOL0     H31618   9.226   5.120  -0.221 -1.2661 -1.5807 -2.5107
  975MOL0     H31619   9.362   5.041  -0.409 -0.1255 -0.4602 -0.4102
  975MOL0     H31620   9.459   5.140  -0.318 -0.0938  0.8814  1.1173
  975MOL0     H31621   9.649   4.765  -0.265 -0.2390 -1.4251  1.8668
  975MOL0     H31622   8.902   4.941   0.083 -0.4864  1.1179  0.4601
  975MOL0     H31623   8.701   4.985   0.175  3.3639  1.2858 -2.2940
  975MOL0     H31624   8.702   4.968   0.358  2.0986  1.6606  1.9496
  975MOL0     H31625   8.691   5.127   0.277  2.4032  0.8895  0.4074
  976MOL0     O31626   6.709   5.596   1.212  1.0332 -0.3127 -0.2947
  976MOL0     C31627   6.646   5.504   1.166 -0.2642 -0.2720 -0.2996
  976MOL0     O31628   6.698   5.387   1.112 -0.0126  0.3155 -0.2351
  976MOL0     C31629   6.825   5.360   1.150  0.1867 -0.5572 -0.4156
  976MOL0     C31630   6.886   5.373   1.275  0.9278 -0.0971 -0.2838
  976MOL0     C31631   7.025   5.336   1.294  0.5552 -0.6666 -0.5477
  976MOL0     C31632   7.097   5.281   1.189  0.3216  0.3874  0.1134
  976MOL0     O31633   7.235   5.264   1.214  0.2913  0.4732 -0.0951
  976MOL0     C31634   7.323   5.196   1.116  0.3346 -0.6823 -0.7099
  976MOL0     C31635   7.319   5.040   1.131  0.1000  0.0521  0.8353
  976MOL0     C31636   7.364   4.985   1.258  0.1676  0.2508  0.7842
  976MOL0     C31637   7.517   5.002   1.269 -0.3907  0.0861 -0.3426
  976MOL0     C31638   7.565   4.946   1.398 -0.5569  0.1974 -0.0201
  976MOL0     C31639   7.718   4.959   1.424 -0.6497  0.8948  1.0753
  976MOL0     C31640   7.767   4.871   1.542 -0.5860 -0.1462 -0.3802
  976MOL0     C31641   7.916   4.880   1.575  0.0160 -0.2096  0.3226
  976MOL0     N31642   7.951   5.006   1.634 -0.2386 -0.5416 -0.3788
  976MOL0     C31643   7.870   5.065   1.729  0.8140  0.1329  0.7459
  976MOL0     C31644   7.948   5.152   1.794 -0.5493  0.1343  0.0651
  976MOL0     C31645   7.896   5.227   1.918  0.4494  0.3552  0.0848
  976MOL0     C31646   7.927   5.153   2.049  0.0871  0.4012  0.1113
  976MOL0     C31647   8.065   5.083   2.061  0.3296 -0.7009 -0.0089
  976MOL0     C31648   8.096   5.070   2.220  0.1366  0.0690  0.0183
  976MOL0     O31649   8.199   4.973   2.241 -0.0071 -0.5052  0.2326
  976MOL0     C31650   8.332   5.005   2.224  0.0886 -0.8351  0.0100
  976MOL0     C31651   8.415   4.900   2.242  0.1721 -0.5075  1.0872
  976MOL0     C31652   8.555   4.909   2.253  0.4171  0.6830  0.3616
  976MOL0     C31653   8.618   5.037   2.243 -1.1130 -0.2243 -0.4579
  976MOL0     C31654   8.762   5.062   2.248 -0.1534 -0.6431  0.5699
  976MOL0     O31655   8.815   5.169   2.194 -0.2559  0.5755 -0.3784
  976MOL0     C31656   8.948   5.191   2.213  0.2819  0.3986 -0.0643
  976MOL0     C31657   9.002   5.226   2.338  0.3306 -0.0687 -0.5553
  976MOL0     C31658   9.142   5.243   2.348 -0.2104 -0.0649 -0.2937
  976MOL0     C31659   9.224   5.236   2.235 -0.4378  0.1800  0.0007
  976MOL0     O31660   9.352   5.262   2.252 -0.2105 -0.1654 -0.3146
  976MOL0     C31661   9.458   5.223   2.154  0.8504 -0.0964 -0.2957
  976MOL0     C31662   9.583   5.297   2.201  0.5218 -0.8545 -0.2383
  976MOL0     C31663   9.654   5.223   2.311 -0.5450  0.1298  0.3204
  976MOL0     C31664   9.781   5.295   2.371  0.1983 -0.5203 -0.3080
  976MOL0     C31665   9.900   5.295   2.275  1.0510 -0.2706 -0.6918
  976MOL0     C31666  10.015   5.379   2.330  0.5774 -0.8377  1.0899
  976MOL0     C31667  10.133   5.365   2.232 -0.2315  0.3640 -0.0957
  976MOL0     C31668  10.250   5.452   2.271 -0.4874  0.4144 -0.0538
  976MOL0    Cl31669  10.314   5.390   2.433  0.0441 -0.4451  0.1224
  976MOL0     C31670   9.168   5.195   2.114  0.2677  0.0259  0.8377
  976MOL0     C31671   9.033   5.179   2.104 -0.3619  0.3740  0.5867
  976MOL0     O31672   8.825   4.970   2.299  0.1553 -0.1579  0.6145
  976MOL0     C31673   8.536   5.149   2.219 -0.1398  0.3129 -0.3254
  976MOL0     C31674   8.395   5.122   2.200 -0.1929  0.4545  0.6205
  976MOL0     N31675   8.071   5.145   1.729 -0.6564 -0.7417 -0.3664
  976MOL0     N31676   8.074   5.058   1.641  0.0682 -0.3150 -0.4694
  976MOL0     C31677   7.033   5.270   1.069  0.3406 -0.2340 -0.1954
  976MOL0     C31678   6.901   5.313   1.049  0.4407 -1.0483 -0.0043
  976MOL0     C31679   6.495   5.524   1.143  0.0702  0.6146  0.2162
  976MOL0     C31680   6.445   5.459   1.029  0.5509  0.0573 -0.2549
  976MOL0     C31681   6.312   5.493   0.987  0.4515 -0.2138 -0.0886
  976MOL0     C31682   6.234   5.589   1.059 -1.2567  0.0525  0.5008
  976MOL0     O31683   6.111   5.623   1.016 -0.2368  0.3378  0.2784
  976MOL0     C31684   6.082   5.609   0.873 -0.4020  0.0270  0.1044
  976MOL0     C31685   5.973   5.710   0.846 -0.7606  0.5585  1.4310
  976MOL0     C31686   5.937   5.695   0.695  0.6320  1.1538  0.0752
  976MOL0     C31687   5.838   5.803   0.652 -0.0038 -0.5062  0.3407
  976MOL0     C31688   5.805   5.797   0.506 -0.0876  0.5838 -0.1166
  976MOL0     C31689   5.782   5.781   0.388 -0.3401  0.1245 -0.4780
  976MOL0     C31690   6.289   5.649   1.169 -0.0641  0.1513  0.5168
  976MOL0     C31691   6.417   5.617   1.218  0.9136 -1.2894  0.5185
  976MOL0     C31692   6.468   5.709   1.329  0.7088 -0.0453 -0.7695
  976MOL0     H31693   6.830   5.413   1.359 -2.6561 -1.9795 -1.5872
  976MOL0     H31694   7.062   5.346   1.396  0.5486 -0.5753 -0.5544
  976MOL0     H31695   7.309   5.236   1.014 -1.9715  0.2196 -0.1095
  976MOL0     H31696   7.422   5.213   1.157 -0.2224  0.3132  0.2890
  976MOL0     H31697   7.380   4.997   1.051  1.3365  0.7947  1.3581
  976MOL0     H31698   7.215   5.008   1.119  0.5881 -0.6630 -3.0101
  976MOL0     H31699   7.352   4.876   1.268  0.1593  0.3079  1.4380
  976MOL0     H31700   7.313   5.029   1.344  1.3780  4.1038 -0.2716
  976MOL0     H31701   7.557   4.949   1.182 -1.5445  0.9834 -1.4556
  976MOL0     H31702   7.553   5.104   1.256 -0.4294  0.1337 -0.0786
  976MOL0     H31703   7.522   4.985   1.491  2.0829  0.6196  1.0941
  976MOL0     H31704   7.547   4.838   1.403 -1.1342  0.2989  0.1832
  976MOL0     H31705   7.767   4.920   1.334 -2.5836  0.7822  0.0144
  976MOL0     H31706   7.734   5.067   1.426 -2.4579  1.4439 -3.0538
  976MOL0     H31707   7.739   4.766   1.526 -2.6123 -0.1166  2.3824
  976MOL0     H31708   7.708   4.898   1.630 -1.1845  2.6885 -1.5476
  976MOL0     H31709   7.953   4.797   1.635  0.7542  1.0839  1.7314
  976MOL0     H31710   7.949   4.877   1.471 -0.1897 -1.6522  0.2770
  976MOL0     H31711   7.768   5.043   1.758 -0.9131  2.5309 -2.7163
  976MOL0     H31712   7.942   5.326   1.917  0.3962  0.3806 -1.1965
  976MOL0     H31713   7.788   5.232   1.902  0.5714 -0.3323 -1.1031
  976MOL0     H31714   7.908   5.219   2.134  3.2158 -0.7617  1.8899
  976MOL0     H31715   7.856   5.070   2.042 -0.5746  0.9737  0.0273
  976MOL0     H31716   8.148   5.126   2.005  1.1933 -1.6642  0.4834
  976MOL0     H31717   8.050   4.987   2.010  0.7890  0.2401 -2.0038
  976MOL0     H31718   8.006   5.037   2.273 -1.3597  0.7589 -1.9673
  976MOL0     H31719   8.122   5.168   2.261  2.4788  0.1453 -1.4767
  976MOL0     H31720   8.391   4.794   2.248  0.7255 -0.9236 -2.0930
  976MOL0     H31721   8.615   4.819   2.261  0.5839  0.7949  0.3787
  976MOL0     H31722   8.931   5.244   2.419  1.5049  0.0088  0.4870
  976MOL0     H31723   9.177   5.281   2.444  2.0193 -1.5652 -0.4388
  976MOL0     H31724   9.468   5.115   2.144 -1.5972 -0.8706  3.6540
  976MOL0     H31725   9.440   5.252   2.050  0.0150  2.2742  0.4481
  976MOL0     H31726   9.657   5.311   2.121  0.6028  1.5519  0.1802
  976MOL0     H31727   9.558   5.399   2.232  0.0674 -0.4352 -1.8893
  976MOL0     H31728   9.575   5.211   2.385 -0.5208 -0.1044  0.3095
  976MOL0     H31729   9.685   5.127   2.268  0.4378  1.7956 -3.0296
  976MOL0     H31730   9.804   5.240   2.463 -0.1858  2.0295  1.4095
  976MOL0     H31731   9.737   5.389   2.405  2.7210 -0.1388  2.2594
  976MOL0     H31732   9.870   5.327   2.175 -1.0772 -1.1285 -0.3780
  976MOL0     H31733   9.930   5.190   2.275 -1.5663 -1.1075 -0.3847
  976MOL0     H31734   9.992   5.486   2.338  1.3353 -0.5940  0.1852
  976MOL0     H31735  10.047   5.338   2.427  0.6126 -1.6270  0.7564
  976MOL0     H31736  10.106   5.393   2.129  2.1071  1.4883 -0.4769
  976MOL0     H31737  10.164   5.261   2.232 -1.6868 -0.1212 -1.9592
  976MOL0     H31738  10.324   5.437   2.192 -1.0455 -0.6081 -0.3974
  976MOL0     H31739  10.229   5.559   2.280  2.8935  1.1030  1.0840
  976MOL0     H31740   9.226   5.175   2.024  0.3126 -1.8365  1.2370
  976MOL0     H31741   8.984   5.168   2.008  2.2862  0.3588 -0.8850
  976MOL0     H31742   8.569   5.252   2.214 -1.4357  0.7124 -1.4217
  976MOL0     H31743   8.341   5.209   2.164 -1.8984 -1.0128 -0.5014
  976MOL0     H31744   7.093   5.239   0.983  0.3385  3.3803 -1.6948
  976MOL0     H31745   6.856   5.304   0.951  0.2859  0.3553 -0.0842
  976MOL0     H31746   6.493   5.391   0.959  0.4985 -0.6287  0.3640
  976MOL0     H31747   6.278   5.439   0.899  2.1085 -2.1384  0.3874
  976MOL0     H31748   6.054   5.507   0.847 -2.5409  0.6648 -0.3363
  976MOL0     H31749   6.167   5.643   0.813 -2.2277  2.4699 -1.3338
  976MOL0     H31750   6.001   5.813   0.868 -4.6564  1.6996  1.8023
  976MOL0     H31751   5.888   5.679   0.907  0.8765 -4.2917  1.7102
  976MOL0     H31752   5.903   5.593   0.673  2.0581  0.7386 -0.3340
  976MOL0     H31753   6.028   5.709   0.635 -0.4768 -0.0609 -1.9931
  976MOL0     H31754   5.746   5.794   0.711 -1.4040 -1.0780 -1.7773
  976MOL0     H31755   5.884   5.902   0.653  0.0745 -0.4278 -2.6624
  976MOL0     H31756   5.756   5.771   0.285  1.7659 -2.7495 -0.8414
  976MOL0     H31757   6.223   5.725   1.211  1.3782  3.2982 -2.4116
  976MOL0     H31758   6.387   5.740   1.395  0.7578  0.3480 -0.8920
  976MOL0     H31759   6.529   5.647   1.395 -3.5097 -1.0940  2.5566
  976MOL0     H31760   6.535   5.787   1.292  0.9996  0.5347  0.9177
  977MOL0     O31761  10.783   2.005   2.113  0.0069 -0.2322  0.2320
  977MOL0     C31762  10.697   1.991   2.201 -0.1877 -0.2134 -0.0337
  977MOL0     O31763  10.695   2.064   2.316  0.5429 -0.0332 -0.2544
  977MOL0     C31764  10.790   2.152   2.344  0.3901 -0.0095  0.5659
  977MOL0     C31765  10.762   2.295   2.348 -0.1128  0.2049 -0.9105
  977MOL0     C31766  10.860   2.393   2.362 -0.6113  0.0748 -0.5239
  977MOL0     C31767  10.994   2.348   2.357 -0.7809 -0.0319 -0.5668
  977MOL0     O31768  11.099   2.437   2.350 -0.0763  0.5989  0.2707
  977MOL0     C31769  11.077   2.570   2.293  0.3778  0.7204  0.7354
  977MOL0     C31770  11.213   2.640   2.300 -1.0795 -0.8165  0.1186
  977MOL0     C31771  11.328   2.562   2.231 -0.0417  0.3448 -0.5368
  977MOL0     C31772  11.471   2.611   2.272  0.0231 -0.2922  0.1119
  977MOL0     C31773  11.576   2.515   2.211 -0.0911  0.4784  0.2319
  977MOL0     C31774  11.723   2.555   2.224 -0.2204  0.0709 -1.0446
  977MOL0     C31775  11.808   2.436   2.184 -0.4890 -0.3504  0.1381
  977MOL0     C31776  11.952   2.465   2.218  0.2200  0.7564 -0.2092
  977MOL0     N31777  12.018   2.593   2.158 -0.0273  0.2038  0.0800
  977MOL0     C31778  12.118   2.661   2.230  0.8060 -0.0185  0.5564
  977MOL0     C31779  12.173   2.741   2.141  0.2545 -1.1493 -0.5869
  977MOL0     C31780  12.281   2.844   2.158 -0.8068 -0.2010  0.6119
  977MOL0     C31781  12.427   2.810   2.192  0.2979  1.0943 -0.1477
  977MOL0     C31782  12.491   2.732   2.067  0.1279 -0.4829  0.6268
  977MOL0     C31783  12.627   2.680   2.100 -0.3345  0.2386  0.1337
  977MOL0     O31784  12.686   2.790   2.170 -0.7968 -0.4093  0.4159
  977MOL0     C31785  12.819   2.776   2.194 -0.3286 -1.0148  0.4048
  977MOL0     C31786  12.883   2.905   2.226  0.1137 -0.0195  0.1596
  977MOL0     C31787  13.017   2.907   2.271 -0.4175 -0.1287 -0.2913
  977MOL0     C31788  13.092   2.786   2.276 -0.6357  1.0939 -0.7544
  977MOL0     C31789  13.239   2.784   2.314 -0.7106  0.1133 -0.1233
  977MOL0     O31790  13.308   2.908   2.314  0.4290  0.0714  0.6295
  977MOL0     C31791  13.446   2.916   2.327 -0.2351  0.2968 -0.2152
  977MOL0     C31792  13.500   3.040   2.291  0.7322  0.2838 -0.3730
  977MOL0     C31793  13.633   3.080   2.316  0.0744 -0.6398  1.1943
  977MOL0     C31794  13.719   2.988   2.366 -0.9217 -0.1715 -0.0211
  977MOL0     O31795  13.851   3.013   2.391 -0.1555  0.7293 -0.1625
  977MOL0     C31796  13.934   3.069   2.283  0.1213  0.2395 -0.4182
  977MOL0     C31797  14.078   3.029   2.310 -0.2710 -0.1971 -0.6849
  977MOL0     C31798  14.170   3.136   2.251  0.3200  0.7132  0.8207
  977MOL0     C31799  14.315   3.095   2.269 -0.4445 -0.3646  0.5558
  977MOL0     C31800  14.408   3.196   2.205 -0.4526  0.0400  0.8496
  977MOL0     C31801  14.553   3.153   2.208 -0.8853 -0.0199 -0.1790
  977MOL0     C31802  14.637   3.216   2.086  0.6252  0.1990  0.8915
  977MOL0     C31803  14.784   3.207   2.095  0.2703 -0.0913 -0.3500
  977MOL0    Cl31804  14.843   3.313   2.231 -0.5090 -0.3227  0.3221
  977MOL0     C31805  13.666   2.862   2.416 -0.2402 -0.2632  0.2733
  977MOL0     C31806  13.537   2.831   2.389 -0.0571 -0.8650  0.0624
  977MOL0     O31807  13.294   2.677   2.318  0.2054  0.3620 -0.4580
  977MOL0     C31808  13.028   2.659   2.251 -0.1157  0.1306  0.1803
  977MOL0     C31809  12.895   2.654   2.212  0.6859 -0.4318 -1.0678
  977MOL0     N31810  12.117   2.725   2.015  0.1852 -0.8378  1.1642
  977MOL0     N31811  12.010   2.649   2.033 -0.2358 -0.5548 -0.0193
  977MOL0     C31812  11.018   2.211   2.367  0.0137 -0.8516 -0.5176
  977MOL0     C31813  10.919   2.109   2.365  0.0331 -1.2976  0.3677
  977MOL0     C31814  10.575   1.903   2.175  0.0155  0.7067 -0.2224
  977MOL0     C31815  10.491   1.884   2.280  0.0020 -0.3920 -0.7744
  977MOL0     C31816  10.383   1.797   2.283 -0.2344  0.7692  0.3558
  977MOL0     C31817  10.348   1.726   2.170  0.0157  0.2700  0.1643
  977MOL0     O31818  10.239   1.643   2.184 -0.4286  0.7390  0.1341
  977MOL0     C31819  10.180   1.592   2.067 -0.0342 -0.0971  0.5132
  977MOL0     C31820  10.058   1.510   2.093  0.3788  0.2665  0.8640
  977MOL0     C31821   9.939   1.590   2.142  0.5912 -0.2475 -0.6307
  977MOL0     C31822   9.823   1.503   2.188  0.0734 -0.0457 -0.4715
  977MOL0     C31823   9.734   1.454   2.081  0.0981  0.1423 -0.4211
  977MOL0     C31824   9.659   1.412   1.997  0.0837 -0.5013  0.4754
  977MOL0     C31825  10.439   1.729   2.063 -0.6497 -1.1241 -0.3980
  977MOL0     C31826  10.549   1.825   2.064  0.7830  0.2025  0.2481
  977MOL0     C31827  10.631   1.835   1.937 -0.4427 -0.7587  0.8710
  977MOL0     H31828  10.659   2.325   2.331 -0.3168 -0.4527 -0.8655
  977MOL0     H31829  10.824   2.495   2.358 -3.1120 -0.7649 -0.6855
  977MOL0     H31830  11.042   2.558   2.190 -0.3240  1.5128  0.8694
  977MOL0     H31831  11.007   2.628   2.354 -1.1106  0.7945 -0.9547
  977MOL0     H31832  11.232   2.646   2.408  0.8206 -3.9156  0.0657
  977MOL0     H31833  11.207   2.738   2.253  2.8105  0.0980  1.2103
  977MOL0     H31834  11.321   2.575   2.123  0.8821  0.9528 -0.5371
  977MOL0     H31835  11.327   2.456   2.258 -0.0044  0.9002  1.8755
  977MOL0     H31836  11.490   2.712   2.232  1.7203 -1.2260 -1.5848
  977MOL0     H31837  11.480   2.616   2.380 -0.6548 -0.6267  0.1918
  977MOL0     H31838  11.565   2.419   2.262 -2.3594  0.3951 -0.2913
  977MOL0     H31839  11.553   2.505   2.104  0.1041 -0.3822  0.2673
  977MOL0     H31840  11.747   2.655   2.185  0.6312  1.0857  1.8537
  977MOL0     H31841  11.754   2.567   2.328  4.8788  1.7156 -2.4919
  977MOL0     H31842  11.785   2.406   2.081  0.9764 -1.9164  0.2383
  977MOL0     H31843  11.783   2.349   2.245  2.3537  0.6357  2.9488
  977MOL0     H31844  11.959   2.468   2.327  1.7093 -0.0622 -0.2558
  977MOL0     H31845  12.022   2.382   2.198 -1.2979 -0.5361 -0.3613
  977MOL0     H31846  12.147   2.651   2.334 -0.9596  1.4306  1.2375
  977MOL0     H31847  12.282   2.915   2.075 -0.5173  1.1551  1.7306
  977MOL0     H31848  12.242   2.906   2.239 -0.7211  0.7047 -0.0226
  977MOL0     H31849  12.480   2.897   2.231  2.8784  0.0786 -1.1942
  977MOL0     H31850  12.443   2.741   2.276 -1.7627 -1.0649 -1.3971
  977MOL0     H31851  12.498   2.792   1.976 -1.7994 -0.2655  0.5928
  977MOL0     H31852  12.431   2.645   2.038 -0.9224  0.1538  0.8377
  977MOL0     H31853  12.678   2.647   2.010  0.1644 -1.4925  1.0175
  977MOL0     H31854  12.617   2.592   2.163  1.1128 -1.9973 -2.5658
  977MOL0     H31855  12.827   2.998   2.224 -1.3354 -0.6510  4.0911
  977MOL0     H31856  13.066   3.003   2.284 -0.7970  0.0925 -0.4702
  977MOL0     H31857  13.419   3.101   2.252 -0.8149 -2.0010 -1.0015
  977MOL0     H31858  13.674   3.179   2.302 -1.3931  0.1144  2.0206
  977MOL0     H31859  13.916   3.036   2.180  4.0039  1.4326 -1.6738
  977MOL0     H31860  13.922   3.177   2.271  3.5476  0.7732 -0.0378
  977MOL0     H31861  14.089   3.015   2.418 -0.0572  2.2687 -0.3193
  977MOL0     H31862  14.094   2.934   2.258  1.5270 -0.2050 -0.1768
  977MOL0     H31863  14.148   3.144   2.144 -1.2270 -1.3056  0.9278
  977MOL0     H31864  14.151   3.234   2.294  1.7945  1.1301  0.5901
  977MOL0     H31865  14.338   3.001   2.219  1.0344 -0.8477  2.0253
  977MOL0     H31866  14.342   3.095   2.375 -1.2872  0.5758  0.7839
  977MOL0     H31867  14.396   3.299   2.240 -2.0555  1.0599 -2.2811
  977MOL0     H31868  14.386   3.211   2.098  1.4798 -1.6851  0.1473
  977MOL0     H31869  14.600   3.163   2.307 -1.1708 -1.6837  0.1555
  977MOL0     H31870  14.555   3.045   2.194  2.3880 -0.1244  0.2543
  977MOL0     H31871  14.601   3.319   2.084  0.7582  0.2364 -1.4943
  977MOL0     H31872  14.613   3.168   1.991  3.4117 -1.5988  0.9888
  977MOL0     H31873  14.812   3.105   2.124 -1.3187  0.1414  2.2790
  977MOL0     H31874  14.834   3.235   2.002  0.4890  0.8519  0.0342
  977MOL0     H31875  13.725   2.789   2.471  1.7988  0.5257 -0.7668
  977MOL0     H31876  13.505   2.740   2.440  1.4288 -0.3182  2.0784
  977MOL0     H31877  13.087   2.568   2.248  0.1467  0.2540  1.1664
  977MOL0     H31878  12.841   2.561   2.203 -2.3901  1.2586 -1.5424
  977MOL0     H31879  11.122   2.183   2.381 -0.4111 -0.7455  5.0747
  977MOL0     H31880  10.951   2.008   2.345 -0.9017 -1.3829 -0.8262
  977MOL0     H31881  10.497   1.952   2.364  1.0558  0.9912 -1.9086
  977MOL0     H31882  10.332   1.796   2.379  1.9141 -0.5212  1.5758
  977MOL0     H31883  10.245   1.516   2.023 -1.8019 -2.4124  1.7190
  977MOL0     H31884  10.159   1.671   1.993 -2.1369 -0.5362  0.5729
  977MOL0     H31885  10.074   1.432   2.168 -1.3430 -1.1213 -0.1186
  977MOL0     H31886  10.030   1.467   1.996  0.7445 -1.1510  1.3695
  977MOL0     H31887   9.905   1.667   2.071  2.2672 -1.0053 -2.3614
  977MOL0     H31888   9.989   1.639   2.226  3.7952 -2.9734 -0.7418
  977MOL0     H31889   9.866   1.415   2.238  1.5172  1.0665  0.3266
  977MOL0     H31890   9.766   1.563   2.260 -1.3150 -2.7521  0.8387
  977MOL0     H31891   9.585   1.376   1.928  0.7489 -2.0111  0.5166
  977MOL0     H31892  10.426   1.665   1.977 -3.0035  0.5087 -1.3578
  977MOL0     H31893  10.592   1.780   1.851  2.0508  0.8777 -1.4477
  977MOL0     H31894  10.634   1.940   1.907 -1.2550 -0.8901  0.3211
  977MOL0     H31895  10.732   1.794   1.947 -0.6956 -1.5409  0.2574
  978MOL0     O31896   9.889  10.696   9.649 -0.5735  0.1124 -0.0534
  978MOL0     C31897   9.924  10.602   9.581 -0.9166  0.0379 -0.4535
  978MOL0     O31898   9.844  10.500   9.554  0.0111 -0.1379  0.2824
  978MOL0     C31899   9.732  10.488   9.617 -0.6147 -0.2101  0.7856
  978MOL0     C31900   9.625  10.572   9.574  0.6821  0.0253 -0.5915
  978MOL0     C31901   9.503  10.562   9.649  0.3548 -0.0018  0.1819
  978MOL0     C31902   9.484  10.463   9.756 -0.6526 -0.3165  0.4347
  978MOL0     O31903   9.363  10.459   9.825 -0.9236 -0.8383 -0.5571
  978MOL0     C31904   9.287  10.339   9.794 -0.4303 -0.3381  0.3603
  978MOL0     C31905   9.164  10.309   9.881 -0.2984 -0.3838  0.3161
  978MOL0     C31906   9.101  10.176   9.848 -0.0788  0.4610 -0.6050
  978MOL0     C31907   8.967  10.152   9.930  0.5245  0.0539  0.4109
  978MOL0     C31908   9.015  10.152  10.079  0.0280  0.7198 -1.2726
  978MOL0     C31909   8.908  10.117  10.187  0.2257 -0.5353  0.0061
  978MOL0     C31910   8.867   9.968  10.191  0.2425 -0.5282 -0.5679
  978MOL0     C31911   8.761   9.939  10.299  0.4671 -0.6749  0.5716
  978MOL0     N31912   8.803   9.982  10.435  0.5565  0.2285  0.3081
  978MOL0     C31913   8.907   9.923  10.510  0.8111  0.2214 -0.0939
  978MOL0     C31914   8.899   9.993  10.627 -0.3562 -0.5730 -0.5658
  978MOL0     C31915   8.975   9.961  10.756  0.8386  0.9411  1.2430
  978MOL0     C31916   8.899  10.024  10.871 -0.6177  0.4163 -0.5966
  978MOL0     C31917   8.978   9.996  11.008  0.8541 -0.3131 -0.7580
  978MOL0     C31918   9.125  10.047  11.015 -0.6656 -0.6649  0.0723
  978MOL0     O31919   9.186  10.031  11.139  0.0121  0.6634 -0.6982
  978MOL0     C31920   9.325  10.043  11.154  0.5910  0.2249 -0.5127
  978MOL0     C31921   9.391  10.019  11.275 -0.7183 -0.3403 -0.2019
  978MOL0     C31922   9.529  10.040  11.293  0.0913  0.5873 -0.1774
  978MOL0     C31923   9.619  10.067  11.189  0.6785 -0.4832 -0.0919
  978MOL0     C31924   9.766  10.064  11.206  0.2125 -0.0390  1.5460
  978MOL0     O31925   9.816  10.051  11.331  0.3443  0.4198  0.3068
  978MOL0     C31926   9.946  10.080  11.357 -0.7303 -0.4164  0.5668
  978MOL0     C31927  10.000  10.204  11.315  0.4285  0.2027 -0.5527
  978MOL0     C31928  10.127  10.241  11.342  0.6639  0.0523 -0.0801
  978MOL0     C31929  10.209  10.148  11.415  0.1160 -0.4444  0.2180
  978MOL0     O31930  10.339  10.180  11.427 -0.3366 -0.8933 -0.1633
  978MOL0     C31931  10.431  10.072  11.417 -0.5684 -0.3266  0.2798
  978MOL0     C31932  10.579  10.127  11.413 -0.1873 -0.3465  0.1008
  978MOL0     C31933  10.604  10.197  11.554  0.4658  0.1474 -0.3740
  978MOL0     C31934  10.751  10.230  11.563  0.3126 -0.1387  0.3826
  978MOL0     C31935  10.787  10.311  11.690  0.1448  0.0646 -0.3249
  978MOL0     C31936  10.728  10.235  11.815 -0.2252 -0.0250 -0.2238
  978MOL0     C31937  10.771  10.319  11.935  0.1774 -0.3135 -0.0301
  978MOL0     C31938  10.723  10.272  12.071  1.4560 -0.5226 -0.3472
  978MOL0    Cl31939  10.793  10.114  12.102  0.4280 -0.0554 -0.0007
  978MOL0     C31940  10.153  10.036  11.466  0.3768 -0.4158  0.7057
  978MOL0     C31941  10.015  10.003  11.449  0.2887  0.3243  1.4050
  978MOL0     O31942   9.828  10.059  11.100  0.3595  0.2859  0.3341
  978MOL0     C31943   9.550  10.086  11.065 -0.1146 -1.0457 -1.0351
  978MOL0     C31944   9.411  10.078  11.052 -0.1038 -0.3209  0.6257
  978MOL0     N31945   8.793  10.075  10.620  0.2980  0.1575  0.3685
  978MOL0     N31946   8.731  10.068  10.508 -0.2798 -0.1982 -0.0662
  978MOL0     C31947   9.594  10.386   9.784  0.2979  0.9990 -0.3254
  978MOL0     C31948   9.719  10.401   9.723 -0.4036  0.3996  0.0004
  978MOL0     C31949  10.056  10.606   9.514  0.1213  0.0412  0.0929
  978MOL0     C31950  10.061  10.561   9.382 -0.4353  0.0998  0.3135
  978MOL0     C31951  10.178  10.553   9.302  0.0112 -0.8741 -0.3022
  978MOL0     C31952  10.302  10.594   9.364 -0.5570  0.3341  0.8840
  978MOL0     O31953  10.421  10.591   9.295  0.5961  0.2724 -0.0628
  978MOL0     C31954  10.541  10.607   9.364 -0.1579  0.4172 -0.5313
  978MOL0     C31955  10.647  10.515   9.299  0.2311  0.8983 -0.1137
  978MOL0     C31956  10.595  10.361   9.291  0.5798 -0.1883 -0.1655
  978MOL0     C31957  10.700  10.257   9.303  0.2422  0.1334 -0.3985
  978MOL0     C31958  10.779  10.252   9.183  0.8805  0.1049 -0.8597
  978MOL0     C31959  10.861  10.254   9.097 -0.0037 -0.0504  0.9291
  978MOL0     C31960  10.297  10.650   9.487  0.0846 -0.7232 -0.6883
  978MOL0     C31961  10.175  10.663   9.566  0.9614 -0.0629 -0.0016
  978MOL0     C31962  10.184  10.743   9.696  0.5897  0.6443 -0.5068
  978MOL0     H31963   9.621  10.657   9.506 -0.6214  2.2056  2.0133
  978MOL0     H31964   9.422  10.629   9.626 -1.9469 -3.1713 -1.7165
  978MOL0     H31965   9.259  10.360   9.691 -0.1068 -0.7599  0.1865
  978MOL0     H31966   9.351  10.250   9.797 -0.3542 -0.3716 -1.5139
  978MOL0     H31967   9.098  10.395   9.866 -0.2616 -0.5368 -0.8032
  978MOL0     H31968   9.203  10.303   9.983  1.7447 -0.5489 -0.4348
  978MOL0     H31969   9.175  10.097   9.866  0.1523  0.7306 -0.3680
  978MOL0     H31970   9.068  10.176   9.744 -0.6196  1.5129 -0.4390
  978MOL0     H31971   8.897  10.235   9.919  1.3886  0.6171 -1.2353
  978MOL0     H31972   8.909  10.066   9.898 -1.1782  2.1128 -2.5345
  978MOL0     H31973   9.100  10.084  10.092 -0.1506  0.9532  1.8778
  978MOL0     H31974   9.038  10.256  10.102  0.2605  0.8675 -2.1462
  978MOL0     H31975   8.942  10.148  10.286  4.2446 -0.0129 -1.3891
  978MOL0     H31976   8.821  10.174  10.153 -1.7784 -2.5377  1.4410
  978MOL0     H31977   8.959   9.918  10.223 -1.2623  0.1399  6.4430
  978MOL0     H31978   8.825   9.932  10.097  0.5717  2.2638 -1.8891
  978MOL0     H31979   8.673  10.000  10.274  1.2631 -0.4130 -1.8279
  978MOL0     H31980   8.739   9.832  10.294 -0.1580 -0.4909 -3.3317
  978MOL0     H31981   8.976   9.843  10.485 -1.1675 -2.0937  1.4709
  978MOL0     H31982   8.968   9.852  10.755 -1.9868  0.7918 -4.5607
  978MOL0     H31983   9.077   9.999  10.746  1.3349 -0.2861  1.5570
  978MOL0     H31984   8.900  10.132  10.856 -1.5230  0.9532  2.5507
  978MOL0     H31985   8.794   9.999  10.883 -0.4455  0.9583  3.3399
  978MOL0     H31986   8.977   9.888  11.027  1.7587  0.0388  1.5717
  978MOL0     H31987   8.915  10.042  11.084 -0.5813  0.5836 -2.4229
  978MOL0     H31988   9.117  10.155  10.997 -2.6574 -0.6411  0.8491
  978MOL0     H31989   9.178  10.000  10.932 -0.2179 -1.7590  0.9523
  978MOL0     H31990   9.331   9.998  11.364  1.8059  2.2960  2.3378
  978MOL0     H31991   9.573  10.041  11.392 -0.5283  0.0878  0.1075
  978MOL0     H31992   9.928  10.267  11.263 -0.2681  1.4571  1.7668
  978MOL0     H31993  10.166  10.335  11.303  2.9620 -0.6912  0.2971
  978MOL0     H31994  10.422  10.022  11.514 -0.8789  1.6143  1.2987
  978MOL0     H31995  10.418   9.997  11.338  2.1031 -1.5184  0.8540
  978MOL0     H31996  10.652  10.047  11.403 -2.3572 -2.3040 -1.0812
  978MOL0     H31997  10.585  10.200  11.332  0.4078  0.1570  0.5906
  978MOL0     H31998  10.540  10.285  11.564  0.4626  0.0132  0.9463
  978MOL0     H31999  10.580  10.129  11.636  1.9071  0.1907  0.1093
  978MOL0     H32000  10.787  10.281  11.473 -0.1739 -0.2293  0.1349
  978MOL0     H32001  10.795  10.129  11.558 -1.4259 -0.9045 -2.6952
  978MOL0     H32002  10.741  10.411  11.688 -0.4236 -0.1895 -2.0326
  978MOL0     H32003  10.895  10.324  11.681  0.0751 -0.3998 -6.4280
  978MOL0     H32004  10.620  10.217  11.822 -0.5556  1.6981 -0.6589
  978MOL0     H32005  10.777  10.138  11.831  0.0999  0.4521  1.9737
  978MOL0     H32006  10.724  10.417  11.919 -1.8405 -1.0704  0.9475
  978MOL0     H32007  10.879  10.333  11.930  0.1264  0.1087 -0.0069
  978MOL0     H32008  10.756  10.343  12.147  0.1360 -0.9917  0.7070
  978MOL0     H32009  10.617  10.247  12.080  1.9651 -3.2669 -0.8764
  978MOL0     H32010  10.212   9.961  11.518  1.9793  0.6081  0.4697
  978MOL0     H32011   9.980   9.911  11.495  2.5701 -0.4384  1.7615
  978MOL0     H32012   9.616  10.108  10.982 -0.4656 -1.6888 -1.4883
  978MOL0     H32013   9.364  10.103  10.957 -1.5992 -1.3800  1.0457
  978MOL0     H32014   9.586  10.308   9.860  2.3228  2.4863  1.5548
  978MOL0     H32015   9.807  10.347   9.756 -0.1065  2.7002  3.4869
  978MOL0     H32016   9.967  10.522   9.345 -0.1009 -0.4049 -0.0058
  978MOL0     H32017  10.167  10.520   9.199 -0.1901 -1.8674  0.0235
  978MOL0     H32018  10.535  10.565   9.465 -1.0602 -2.8154 -1.7992
  978MOL0     H32019  10.579  10.709   9.362 -0.4497  0.6950 -5.6395
  978MOL0     H32020  10.739  10.513   9.358 -2.9085 -3.0933  5.7177
  978MOL0     H32021  10.671  10.554   9.199  0.4612 -0.2143 -0.5136
  978MOL0     H32022  10.529  10.357   9.205 -0.0794  2.0658  0.1636
  978MOL0     H32023  10.528  10.345   9.376  1.7047  0.2995  0.8602
  978MOL0     H32024  10.757  10.263   9.396  0.4196 -0.1114 -0.4886
  978MOL0     H32025  10.653  10.159   9.292 -1.6804  1.0750 -0.9072
  978MOL0     H32026  10.932  10.270   9.018 -0.4191 -0.7285  0.3978
  978MOL0     H32027  10.382  10.700   9.531  0.1192 -0.7489 -0.7253
  978MOL0     H32028  10.123  10.683   9.765 -2.1212  2.6434 -1.0192
  978MOL0     H32029  10.285  10.751   9.739  0.0033  1.0247  0.8529
  978MOL0     H32030  10.142  10.841   9.676  0.2154  0.2101 -1.9215
  979MOL0     O32031   0.198   7.967   1.806 -0.2330 -0.4879 -0.7195
  979MOL0     C32032   0.174   7.855   1.759  0.2013 -1.0040  0.7293
  979MOL0     O32033   0.250   7.801   1.664 -0.1747  0.2074  0.2330
  979MOL0     C32034   0.371   7.857   1.636  0.5306 -0.3362 -0.2756
  979MOL0     C32035   0.387   7.986   1.574  0.1183 -0.3693 -0.3173
  979MOL0     C32036   0.514   8.031   1.541 -0.9065 -0.0173  0.1887
  979MOL0     C32037   0.628   7.960   1.586  0.3067 -0.4510  0.1831
  979MOL0     O32038   0.762   8.002   1.575  0.1218  0.6803 -0.4325
  979MOL0     C32039   0.779   8.148   1.588 -0.5472  0.4429 -0.0158
  979MOL0     C32040   0.888   8.187   1.698 -0.0417 -0.1635  0.3828
  979MOL0     C32041   0.848   8.143   1.840 -0.0518  0.9111  0.2740
  979MOL0     C32042   0.933   8.209   1.951  0.4716  0.4528 -0.3999
  979MOL0     C32043   0.921   8.145   2.083  0.2880 -0.1428  0.3845
  979MOL0     C32044   0.779   8.160   2.135 -0.7072 -0.1307  0.1684
  979MOL0     C32045   0.787   8.169   2.291  0.4376  0.3739  0.1127
  979MOL0     C32046   0.832   8.032   2.358 -0.1684 -0.4387 -0.0363
  979MOL0     N32047   0.879   8.047   2.499  0.0312 -0.5769 -0.2680
  979MOL0     C32048   0.810   8.084   2.612  0.9521 -0.0633 -0.1809
  979MOL0     C32049   0.898   8.074   2.709  0.0041 -0.7277 -0.7601
  979MOL0     C32050   0.870   8.122   2.851  0.1034  0.7065 -1.2928
  979MOL0     C32051   0.990   8.087   2.943 -0.9184 -0.5275  0.0658
  979MOL0     C32052   0.962   8.135   3.090 -0.2575  0.5162 -0.3854
  979MOL0     C32053   1.075   8.120   3.193  0.5544  0.5677  0.0171
  979MOL0     O32054   1.186   8.196   3.143 -0.2018 -0.3123  0.8639
  979MOL0     C32055   1.286   8.228   3.238  0.2860 -0.4022  0.3204
  979MOL0     C32056   1.269   8.251   3.379 -0.1007  0.5518 -0.6348
  979MOL0     C32057   1.377   8.296   3.464 -0.6308  0.1050  0.6013
  979MOL0     C32058   1.502   8.307   3.415 -0.2725  0.0772 -0.3884
  979MOL0     C32059   1.622   8.324   3.511 -0.6432 -1.0548 -0.0703
  979MOL0     O32060   1.742   8.368   3.459 -0.0491  0.5128 -0.2393
  979MOL0     C32061   1.851   8.380   3.544 -0.3620 -0.1422 -0.4950
  979MOL0     C32062   1.837   8.464   3.662 -1.1573 -0.0448  1.1326
  979MOL0     C32063   1.945   8.480   3.750  0.7285  0.5710  0.1084
  979MOL0     C32064   2.071   8.416   3.729  0.4684  0.8136 -0.8794
  979MOL0     O32065   2.175   8.425   3.821  1.0761 -0.8785 -0.0513
  979MOL0     C32066   2.232   8.306   3.875  0.0624 -1.1651  0.0054
  979MOL0     C32067   2.336   8.337   3.980 -0.2065  0.1287 -0.7835
  979MOL0     C32068   2.457   8.406   3.919  0.2124 -0.0628 -0.0699
  979MOL0     C32069   2.517   8.355   3.782  0.3292  0.8093 -0.5190
  979MOL0     C32070   2.654   8.410   3.762 -0.1755  1.2458 -0.2808
  979MOL0     C32071   2.752   8.337   3.856  0.1612  0.1171 -0.9827
  979MOL0     C32072   2.898   8.373   3.832  1.1772  1.0439  0.1539
  979MOL0     C32073   2.983   8.347   3.965 -0.0445  0.1530  0.0856
  979MOL0    Cl32074   3.009   8.182   4.002  0.1385 -0.2834 -0.0811
  979MOL0     C32075   2.068   8.317   3.620 -0.9044 -1.2159 -0.1612
  979MOL0     C32076   1.974   8.311   3.524  0.2089 -0.3501 -0.3250
  979MOL0     O32077   1.596   8.299   3.624 -0.5061 -0.3719 -0.1451
  979MOL0     C32078   1.522   8.283   3.277  0.1897 -0.4105 -0.8702
  979MOL0     C32079   1.417   8.253   3.186  0.1387 -0.0338  0.5132
  979MOL0     N32080   1.024   8.046   2.656 -0.8118  0.1864  0.4820
  979MOL0     N32081   1.007   8.029   2.527 -0.3773  0.0163 -0.0708
  979MOL0     C32082   0.607   7.838   1.651 -0.3051  0.2014  0.4722
  979MOL0     C32083   0.480   7.792   1.685 -0.6015  1.1656  0.3412
  979MOL0     C32084   0.067   7.765   1.806 -0.0243 -0.0675 -0.1532
  979MOL0     C32085   0.054   7.638   1.752 -0.0188  0.4597 -0.4833
  979MOL0     C32086  -0.031   7.539   1.810 -0.7378 -0.2802 -0.4982
  979MOL0     C32087  -0.115   7.574   1.909  0.4632  0.5935  0.0708
  979MOL0     O32088  -0.211   7.476   1.945 -0.4338  0.6232  0.2530
  979MOL0     C32089  -0.337   7.506   2.006 -0.3366 -0.4563  1.1767
  979MOL0     C32090  -0.441   7.568   1.907 -1.3736  0.2454  0.7793
  979MOL0     C32091  -0.586   7.546   1.955 -0.0007  0.9651 -0.0050
  979MOL0     C32092  -0.619   7.639   2.064  0.4532  0.1370  0.9805
  979MOL0     C32093  -0.764   7.624   2.093  0.2872  0.9265  0.6034
  979MOL0     C32094  -0.880   7.615   2.130 -0.0741  0.9587 -0.8487
  979MOL0     C32095  -0.123   7.705   1.961 -0.1872 -0.1759 -0.2173
  979MOL0     C32096  -0.025   7.799   1.915  0.4017 -0.1535  1.1556
  979MOL0     C32097  -0.025   7.933   1.978 -0.4793 -0.4466 -0.2186
  979MOL0     H32098   0.302   8.054   1.567 -1.2028 -1.7085  1.6628
  979MOL0     H32099   0.529   8.132   1.503  1.2842 -0.5185 -0.4342
  979MOL0     H32100   0.814   8.197   1.497 -1.5579  1.4450  0.1166
  979MOL0     H32101   0.692   8.205   1.620 -0.1278  2.5100 -2.2092
  979MOL0     H32102   0.909   8.295   1.699  2.3686 -0.5117 -2.2099
  979MOL0     H32103   0.984   8.139   1.680 -0.2131 -0.3841  0.0422
  979MOL0     H32104   0.858   8.034   1.844  3.9274  1.1016 -0.4140
  979MOL0     H32105   0.741   8.163   1.851 -0.0082  1.5503 -0.3484
  979MOL0     H32106   1.037   8.203   1.918  0.5862  2.5261 -0.5271
  979MOL0     H32107   0.908   8.315   1.963 -0.3694  0.2225  0.0038
  979MOL0     H32108   0.933   8.037   2.067 -2.4836 -0.6410  1.0206
  979MOL0     H32109   0.997   8.188   2.147  0.2749 -0.6938  0.7799
  979MOL0     H32110   0.733   8.250   2.093 -2.3103 -0.4673  1.1363
  979MOL0     H32111   0.717   8.074   2.107 -0.3454 -0.3311 -0.0288
  979MOL0     H32112   0.689   8.202   2.326  0.3621  0.8082 -0.4865
  979MOL0     H32113   0.854   8.246   2.330 -0.2003  1.6402 -1.1903
  979MOL0     H32114   0.753   7.958   2.346 -0.0041 -0.4542 -1.2015
  979MOL0     H32115   0.912   7.987   2.299  0.4654 -2.7159  2.3761
  979MOL0     H32116   0.705   8.100   2.636  1.4642  0.3945  1.9990
  979MOL0     H32117   0.855   8.230   2.850  2.3891  1.1315  0.3578
  979MOL0     H32118   0.782   8.065   2.880  1.2080 -0.3437  0.1634
  979MOL0     H32119   0.991   7.978   2.944 -1.8963 -0.6008 -1.8352
  979MOL0     H32120   1.084   8.129   2.906 -1.2946 -0.1175 -0.4333
  979MOL0     H32121   0.886   8.067   3.127  1.1245 -1.3551 -0.8312
  979MOL0     H32122   0.917   8.235   3.095 -3.4155 -0.8585  1.3274
  979MOL0     H32123   1.098   8.013   3.199  1.8676  0.9218  2.4502
  979MOL0     H32124   1.038   8.159   3.288  3.0000  3.1977  0.0326
  979MOL0     H32125   1.170   8.233   3.419  0.6566 -4.9044 -0.4400
  979MOL0     H32126   1.361   8.315   3.570  0.3544  1.7543  0.4907
  979MOL0     H32127   1.745   8.518   3.677 -0.4316  1.1651  1.3661
  979MOL0     H32128   1.922   8.552   3.827  1.3131 -0.4917  1.3161
  979MOL0     H32129   2.149   8.253   3.922 -0.7275 -0.0267 -0.0488
  979MOL0     H32130   2.287   8.248   3.801  0.9167  0.9285 -1.0914
  979MOL0     H32131   2.292   8.403   4.055  0.0924 -2.1614  1.5253
  979MOL0     H32132   2.376   8.254   4.038 -0.4595 -0.4326 -1.3901
  979MOL0     H32133   2.435   8.512   3.904  1.0907  0.1768  0.2509
  979MOL0     H32134   2.535   8.414   3.996 -1.7596  3.2744  1.8037
  979MOL0     H32135   2.451   8.391   3.702  0.7724  1.1537 -0.7361
  979MOL0     H32136   2.517   8.246   3.781 -1.7911  0.7652  0.2285
  979MOL0     H32137   2.664   8.518   3.777 -0.2037  1.0372  1.4039
  979MOL0     H32138   2.691   8.390   3.661  1.3046  1.9460  0.1034
  979MOL0     H32139   2.724   8.356   3.960 -1.1652  0.1020 -1.3280
  979MOL0     H32140   2.747   8.230   3.835 -1.1965  0.0430 -0.3642
  979MOL0     H32141   2.888   8.477   3.802 -0.3513  0.2394 -2.5511
  979MOL0     H32142   2.940   8.318   3.747  0.3981  1.5341 -0.5614
  979MOL0     H32143   3.077   8.401   3.949 -0.8976  1.5660 -0.3792
  979MOL0     H32144   2.933   8.397   4.049  1.8801  1.5412  0.4794
  979MOL0     H32145   2.160   8.264   3.597 -1.1309 -0.4627 -3.1221
  979MOL0     H32146   1.995   8.250   3.436 -0.3973  0.1781 -0.8501
  979MOL0     H32147   1.622   8.290   3.234 -0.7578 -0.4258 -3.2104
  979MOL0     H32148   1.443   8.234   3.082 -0.4198 -3.5656  0.8652
  979MOL0     H32149   0.694   7.785   1.689 -1.0000 -0.6593  0.9013
  979MOL0     H32150   0.483   7.703   1.747 -2.9188  1.3600  0.8194
  979MOL0     H32151   0.105   7.600   1.665 -1.0665 -2.1422 -0.0582
  979MOL0     H32152  -0.045   7.438   1.774 -1.8726 -0.1908 -0.3354
  979MOL0     H32153  -0.318   7.575   2.089  3.3667  0.1038  0.0492
  979MOL0     H32154  -0.383   7.411   2.034  0.1905 -0.9344  0.4588
  979MOL0     H32155  -0.428   7.519   1.810  2.3429  0.9624  0.7639
  979MOL0     H32156  -0.418   7.670   1.875 -0.6622 -0.0481  0.3224
  979MOL0     H32157  -0.598   7.441   1.981 -1.3240  1.2848  0.7817
  979MOL0     H32158  -0.648   7.555   1.866 -0.9763 -1.4975  0.3485
  979MOL0     H32159  -0.565   7.611   2.155  1.1839 -3.1284 -0.3287
  979MOL0     H32160  -0.596   7.743   2.039  1.8558  0.3551  2.9419
  979MOL0     H32161  -0.982   7.609   2.161 -0.2220 -2.8473 -1.4956
  979MOL0     H32162  -0.196   7.738   2.034  1.1027  1.9126  0.2055
  979MOL0     H32163  -0.121   7.943   2.031 -1.3305  0.0668 -1.7923
  979MOL0     H32164   0.063   7.949   2.041 -1.1290  3.7077 -0.0364
  979MOL0     H32165  -0.025   8.015   1.905  0.7772  0.2382  0.5198
  980MOL0     O32166   6.707   7.179   7.905 -0.2590 -0.0077  0.4295
  980MOL0     C32167   6.663   7.155   7.791 -0.6904  0.2238 -0.0081
  980MOL0     O32168   6.712   7.063   7.705 -0.7367  0.4300 -0.2358
  980MOL0     C32169   6.814   6.973   7.740  0.0885 -0.8908 -0.4160
  980MOL0     C32170   6.936   7.012   7.799 -0.5062  0.7052 -0.5153
  980MOL0     C32171   7.030   6.917   7.835  0.8414 -0.0180 -0.5926
  980MOL0     C32172   7.000   6.784   7.826  0.3935  0.3213  0.9058
  980MOL0     O32173   7.105   6.701   7.872  0.0520 -0.2921 -0.2533
  980MOL0     C32174   7.097   6.562   7.852  0.6239  0.1930  0.0848
  980MOL0     C32175   7.011   6.488   7.957 -0.0956 -0.5362 -0.0540
  980MOL0     C32176   7.078   6.504   8.094 -0.4892  0.3035 -0.3044
  980MOL0     C32177   7.198   6.405   8.092 -1.1905 -0.5522  0.4972
  980MOL0     C32178   7.275   6.384   8.222  0.4600  0.0037 -0.2857
  980MOL0     C32179   7.387   6.286   8.213 -0.3166 -0.0606 -0.5233
  980MOL0     C32180   7.453   6.279   8.350  0.0110 -0.6423  0.2728
  980MOL0     C32181   7.559   6.182   8.368 -1.0473 -0.3279 -0.0572
  980MOL0     N32182   7.674   6.197   8.280 -0.5053 -0.1760  0.1788
  980MOL0     C32183   7.723   6.089   8.213  1.1952  1.0249  0.7326
  980MOL0     C32184   7.852   6.125   8.189  0.1962 -1.1792  0.0702
  980MOL0     C32185   7.969   6.050   8.140  0.5232 -0.1440  0.7898
  980MOL0     C32186   8.049   6.117   8.025  0.5048  0.2279  0.8239
  980MOL0     C32187   8.166   6.198   8.083 -0.8986  0.2714 -0.2252
  980MOL0     C32188   8.285   6.103   8.112  0.5512  0.0680 -0.1617
  980MOL0     O32189   8.361   6.064   7.991 -0.8092 -0.0558 -0.4338
  980MOL0     C32190   8.497   6.049   7.999 -0.8043  0.2544  0.5959
  980MOL0     C32191   8.576   6.068   7.885 -0.6567  0.4416  0.6012
  980MOL0     C32192   8.717   6.075   7.897  0.1991  0.4573  0.4524
  980MOL0     C32193   8.784   6.055   8.012  0.0776  0.0888 -0.4503
  980MOL0     C32194   8.935   6.081   8.017  0.5561  0.2775  0.5706
  980MOL0     O32195   8.981   6.155   8.115 -0.0031  0.4932  1.3525
  980MOL0     C32196   9.121   6.144   8.141  0.0218 -1.4710 -0.3794
  980MOL0     C32197   9.191   6.251   8.193 -0.1280  0.0902 -0.5930
  980MOL0     C32198   9.328   6.249   8.237  0.6307 -0.0891 -0.0035
  980MOL0     C32199   9.403   6.132   8.221 -0.3539 -0.3121 -0.4697
  980MOL0     O32200   9.529   6.111   8.269 -0.8742  0.4980 -0.4919
  980MOL0     C32201   9.590   6.204   8.349 -0.3941  0.7057 -0.1011
  980MOL0     C32202   9.699   6.137   8.434 -0.0187 -0.3817 -0.6356
  980MOL0     C32203   9.763   6.235   8.527  0.0402 -0.1055  0.8175
  980MOL0     C32204   9.825   6.351   8.449  0.0676 -0.1604 -0.4956
  980MOL0     C32205   9.897   6.443   8.543  0.1092 -0.5954  0.4918
  980MOL0     C32206   9.999   6.548   8.477  0.3374 -0.6911 -0.2196
  980MOL0     C32207   9.941   6.652   8.373  0.1528  0.1313  0.6710
  980MOL0     C32208   9.976   6.607   8.232  0.5042  0.5287 -0.4346
  980MOL0    Cl32209   9.918   6.717   8.111 -0.0139  0.2249 -0.3391
  980MOL0     C32210   9.340   6.023   8.168 -0.7766  0.4713  1.5012
  980MOL0     C32211   9.203   6.027   8.131 -0.8174  0.0179 -0.1311
  980MOL0     O32212   8.997   6.016   7.936 -1.1283 -0.0931  0.1762
  980MOL0     C32213   8.706   6.030   8.130  1.0966 -0.9871  0.2649
  980MOL0     C32214   8.564   6.022   8.120  0.2706  0.9709 -0.0630
  980MOL0     N32215   7.878   6.250   8.256 -0.2391  0.4233  0.2063
  980MOL0     N32216   7.771   6.290   8.309  1.1480  0.7741  0.2861
  980MOL0     C32217   6.880   6.744   7.777 -0.1071  0.3953 -0.6054
  980MOL0     C32218   6.782   6.832   7.737 -0.1336 -0.8839 -0.1247
  980MOL0     C32219   6.541   7.226   7.738  0.0998  0.4557  0.3622
  980MOL0     C32220   6.530   7.241   7.596  0.2484  1.2042 -0.0404
  980MOL0     C32221   6.414   7.304   7.546  0.4708 -0.0625  0.0012
  980MOL0     C32222   6.311   7.353   7.632  0.1654 -0.3809  0.4225
  980MOL0     O32223   6.198   7.418   7.587  0.1026  0.1508  0.5430
  980MOL0     C32224   6.172   7.453   7.454 -0.2303  0.0148 -0.4658
  980MOL0     C32225   6.023   7.511   7.433  0.1834  0.5456  0.2053
  980MOL0     C32226   5.994   7.644   7.492 -0.1838 -0.0127 -0.1860
  980MOL0     C32227   5.844   7.679   7.502 -1.3931 -0.2728  0.1339
  980MOL0     C32228   5.778   7.667   7.372 -0.1429 -0.2946  0.3774
  980MOL0     C32229   5.737   7.665   7.259  0.6073  0.6047 -0.2117
  980MOL0     C32230   6.319   7.327   7.763  0.0240 -0.2522 -0.5676
  980MOL0     C32231   6.430   7.263   7.821 -0.7841 -0.0451 -0.5267
  980MOL0     C32232   6.424   7.225   7.973 -0.1873 -0.2957 -0.0353
  980MOL0     H32233   6.957   7.117   7.821  2.5378 -0.2388  1.9087
  980MOL0     H32234   7.119   6.948   7.889  0.4135 -1.3560  0.9730
  980MOL0     H32235   7.051   6.543   7.754  1.7997 -2.1986 -0.0710
  980MOL0     H32236   7.194   6.515   7.835  0.7784  0.9324 -1.1560
  980MOL0     H32237   6.999   6.383   7.931  2.1601 -0.4436 -1.8207
  980MOL0     H32238   6.910   6.531   7.962 -0.3819 -1.0039 -1.5505
  980MOL0     H32239   7.011   6.472   8.174 -1.3254  0.6700 -0.8517
  980MOL0     H32240   7.116   6.604   8.119  2.4124 -0.4065 -1.4196
  980MOL0     H32241   7.154   6.310   8.059  1.1289 -1.1071 -1.3502
  980MOL0     H32242   7.275   6.433   8.019 -0.8875  0.5022  1.2071
  980MOL0     H32243   7.310   6.486   8.240 -1.0839  0.7055 -0.9948
  980MOL0     H32244   7.200   6.358   8.297  1.7128 -0.0596  0.9855
  980MOL0     H32245   7.349   6.189   8.181  1.3615 -0.7749 -0.4492
  980MOL0     H32246   7.467   6.314   8.145 -0.0944  0.4218 -0.0702
  980MOL0     H32247   7.372   6.253   8.420 -1.7677 -0.0902 -1.5086
  980MOL0     H32248   7.487   6.380   8.371  1.7173 -0.6460 -2.1687
  980MOL0     H32249   7.596   6.192   8.471 -1.7106 -2.3085  0.4250
  980MOL0     H32250   7.517   6.082   8.356 -2.3169  0.0559  0.9617
  980MOL0     H32251   7.666   5.997   8.203  1.4315  0.8844  0.6705
  980MOL0     H32252   8.037   6.045   8.226  2.8335 -2.7346 -0.9983
  980MOL0     H32253   7.938   5.945   8.132 -1.5611  0.5564 -1.2396
  980MOL0     H32254   8.075   6.043   7.949 -0.5204  0.8511 -0.1798
  980MOL0     H32255   7.983   6.188   7.973  3.2801  1.7048 -0.8809
  980MOL0     H32256   8.146   6.257   8.172  2.8479 -2.2632  2.5972
  980MOL0     H32257   8.209   6.276   8.019  3.5314 -0.5325  1.4139
  980MOL0     H32258   8.258   6.015   8.172  1.9921  0.2389  0.7694
  980MOL0     H32259   8.357   6.163   8.168  0.0853 -0.0951  0.6137
  980MOL0     H32260   8.524   6.070   7.790  2.9627 -1.2616 -1.6301
  980MOL0     H32261   8.780   6.097   7.811  1.2255  3.0169  1.7555
  980MOL0     H32262   9.134   6.341   8.214 -0.9921 -0.7244  0.7092
  980MOL0     H32263   9.381   6.329   8.287 -1.2073  2.1132 -1.4140
  980MOL0     H32264   9.636   6.275   8.280 -0.3289  1.9473  1.1697
  980MOL0     H32265   9.524   6.253   8.421  1.1793  0.1129  1.8353
  980MOL0     H32266   9.644   6.057   8.486 -0.3779 -0.3143 -0.9026
  980MOL0     H32267   9.780   6.094   8.374  0.1344 -1.8979  0.5854
  980MOL0     H32268   9.686   6.274   8.594  1.9030  2.4779  1.6416
  980MOL0     H32269   9.837   6.175   8.580 -0.2831 -2.0023 -0.7856
  980MOL0     H32270   9.750   6.416   8.403  0.4915  0.5718 -0.1719
  980MOL0     H32271   9.887   6.322   8.364 -0.7191  1.7965 -1.8171
  980MOL0     H32272   9.953   6.371   8.603 -0.4848 -2.9086 -1.5866
  980MOL0     H32273   9.817   6.490   8.602 -1.6113 -1.1776 -1.2745
  980MOL0     H32274  10.047   6.613   8.552 -1.1154  2.5131 -1.8666
  980MOL0     H32275  10.084   6.495   8.433  0.1725 -1.7970  0.7458
  980MOL0     H32276   9.984   6.751   8.390  3.1951 -0.7205 -1.1896
  980MOL0     H32277   9.833   6.660   8.387 -0.2202 -3.0881  0.3109
  980MOL0     H32278  10.084   6.592   8.220  1.2755  3.8863  1.2967
  980MOL0     H32279   9.920   6.513   8.223  0.6707  0.2414  1.3288
  980MOL0     H32280   9.403   5.936   8.149  0.4958  1.7777 -0.6709
  980MOL0     H32281   9.166   5.939   8.080  2.1521 -1.6578  0.3560
  980MOL0     H32282   8.756   6.003   8.222  0.0352 -0.7973  0.9186
  980MOL0     H32283   8.502   5.997   8.205  0.5648 -1.9382 -0.6010
  980MOL0     H32284   6.860   6.642   7.747  0.3003  1.3750 -4.9752
  980MOL0     H32285   6.689   6.808   7.686 -0.8926 -1.0716  1.2964
  980MOL0     H32286   6.607   7.212   7.524 -0.5475  2.0932 -1.2981
  980MOL0     H32287   6.404   7.319   7.439 -1.3977 -0.1721  0.1280
  980MOL0     H32288   6.180   7.363   7.392 -1.5947 -1.4912  1.4197
  980MOL0     H32289   6.243   7.523   7.409  2.3019 -1.7981  0.5096
  980MOL0     H32290   5.956   7.435   7.474  1.0647  0.4694  1.5926
  980MOL0     H32291   6.012   7.519   7.325  1.4773  1.6522  0.1178
  980MOL0     H32292   6.055   7.718   7.438  3.0394 -3.3218 -1.5015
  980MOL0     H32293   6.027   7.651   7.596 -2.8970  0.1165  0.7338
  980MOL0     H32294   5.798   7.600   7.562 -1.3068 -2.5043 -2.5121
  980MOL0     H32295   5.820   7.781   7.536  1.3052  0.8678 -1.0856
  980MOL0     H32296   5.705   7.662   7.157  0.9141  1.3413 -0.3408
  980MOL0     H32297   6.234   7.347   7.827  0.3791 -1.7111  0.3979
  980MOL0     H32298   6.318   7.245   7.992 -0.2438  0.1487 -0.7937
  980MOL0     H32299   6.450   7.122   7.997  0.0773 -0.6691 -1.7942
  980MOL0     H32300   6.493   7.294   8.024  0.6738 -0.2295 -1.2639
  981MOL0     O32301   6.287   1.675   8.167 -0.4680  0.2311  0.4562
  981MOL0     C32302   6.182   1.739   8.149  0.4545  0.4078 -0.9588
  981MOL0     O32303   6.178   1.871   8.114  0.4411 -0.6494 -0.3727
  981MOL0     C32304   6.291   1.940   8.117 -0.0272 -0.1277  0.2064
  981MOL0     C32305   6.337   2.008   8.003 -0.2560 -0.8079  0.5597
  981MOL0     C32306   6.444   2.101   8.018  0.2626  0.6050  0.8227
  981MOL0     C32307   6.513   2.116   8.136 -0.2032  0.2719 -0.1956
  981MOL0     O32308   6.610   2.208   8.145  0.2948  0.4251 -0.6008
  981MOL0     C32309   6.593   2.327   8.222  0.1361 -0.2427 -0.6284
  981MOL0     C32310   6.718   2.404   8.255  0.4890 -0.5437  0.0331
  981MOL0     C32311   6.848   2.323   8.281 -0.0783  0.1824  0.3846
  981MOL0     C32312   6.968   2.401   8.336  0.6683  0.1631  0.8647
  981MOL0     C32313   6.945   2.422   8.491 -0.6112 -0.0411  0.3360
  981MOL0     C32314   7.040   2.523   8.559 -0.0246  0.1298 -0.2374
  981MOL0     C32315   7.193   2.506   8.522  0.7724  0.0159  0.1023
  981MOL0     C32316   7.283   2.606   8.592  0.5243  0.2640  0.5268
  981MOL0     N32317   7.424   2.568   8.577 -0.2107 -0.3403 -0.1260
  981MOL0     C32318   7.487   2.551   8.456 -0.0315 -0.0504 -0.3814
  981MOL0     C32319   7.606   2.495   8.483 -0.2178 -0.5250 -0.1792
  981MOL0     C32320   7.713   2.461   8.379  0.4344  0.4594  0.2990
  981MOL0     C32321   7.844   2.545   8.400  0.4893 -0.9881 -0.3713
  981MOL0     C32322   7.945   2.531   8.288  0.4237 -0.5387 -0.1889
  981MOL0     C32323   8.060   2.630   8.285  0.0203  0.1097 -0.1898
  981MOL0     O32324   8.141   2.589   8.391  0.2597  0.4855 -0.7608
  981MOL0     C32325   8.280   2.596   8.366 -0.1794  0.7879 -0.3928
  981MOL0     C32326   8.350   2.501   8.427  0.1443 -0.5957  0.2195
  981MOL0     C32327   8.490   2.511   8.425  0.2004 -0.3735 -0.1584
  981MOL0     C32328   8.556   2.625   8.368  0.1221 -0.2505  0.1083
  981MOL0     C32329   8.701   2.643   8.349 -0.4995  0.2193  0.1847
  981MOL0     O32330   8.743   2.760   8.291  0.2792  0.2994  0.1658
  981MOL0     C32331   8.876   2.786   8.269  0.0712  0.0900  0.6847
  981MOL0     C32332   8.966   2.689   8.209 -0.3027  0.2173  0.2924
  981MOL0     C32333   9.107   2.725   8.189  0.2806  0.0689 -0.6084
  981MOL0     C32334   9.160   2.849   8.236 -0.2503 -0.8787  0.5640
  981MOL0     O32335   9.292   2.888   8.207 -0.5497 -0.9324  0.1274
  981MOL0     C32336   9.403   2.793   8.200 -0.1020  0.4649  0.6428
  981MOL0     C32337   9.437   2.750   8.055 -0.4772  0.0137  1.2596
  981MOL0     C32338   9.560   2.831   8.011  0.4166  0.0716  0.1954
  981MOL0     C32339   9.699   2.780   8.051  0.0284 -0.7253 -0.1303
  981MOL0     C32340   9.824   2.837   7.976 -0.9818 -0.2161 -0.0342
  981MOL0     C32341   9.839   2.985   8.007 -0.1056 -0.2313 -0.2728
  981MOL0     C32342   9.966   3.040   7.945 -1.2354 -0.3371 -0.1919
  981MOL0     C32343  10.078   3.013   8.035  0.3025 -0.1573 -0.3615
  981MOL0    Cl32344  10.229   3.067   7.986 -0.2138  0.4003 -0.0197
  981MOL0     C32345   9.069   2.945   8.288 -0.1913  0.2875 -0.2957
  981MOL0     C32346   8.931   2.907   8.304 -0.2580 -0.2108 -0.7017
  981MOL0     O32347   8.764   2.547   8.385  0.1554 -0.4034 -0.3776
  981MOL0     C32348   8.481   2.712   8.297 -0.0766 -0.1932  0.3210
  981MOL0     C32349   8.342   2.708   8.302  0.3197 -0.4140  0.1110
  981MOL0     N32350   7.611   2.472   8.623 -0.6216  0.8022  0.4567
  981MOL0     N32351   7.503   2.520   8.678  0.1945  0.2175  0.1158
  981MOL0     C32352   6.469   2.049   8.251 -0.2991  0.1398  1.0839
  981MOL0     C32353   6.360   1.958   8.238  0.1957 -0.1682  0.2195
  981MOL0     C32354   6.050   1.662   8.177  0.7954 -0.5389  0.0820
  981MOL0     C32355   6.039   1.528   8.211  0.1041  0.1125 -0.0724
  981MOL0     C32356   5.921   1.466   8.244  0.1638  0.6896  0.1005
  981MOL0     C32357   5.800   1.525   8.239 -0.0710 -0.4291  0.3195
  981MOL0     O32358   5.690   1.453   8.263 -0.3580  0.1197  0.0134
  981MOL0     C32359   5.566   1.507   8.227 -0.1641 -0.4588 -0.0177
  981MOL0     C32360   5.468   1.391   8.205  0.0170  0.6792  0.0076
  981MOL0     C32361   5.492   1.334   8.068 -0.0638  0.1600 -1.2066
  981MOL0     C32362   5.422   1.200   8.056 -0.2705  0.9291 -0.6196
  981MOL0     C32363   5.276   1.220   8.045 -0.1402 -0.5655 -0.1713
  981MOL0     C32364   5.160   1.254   8.033  0.3744 -0.2290  0.7179
  981MOL0     C32365   5.807   1.666   8.206  0.2488  0.3914  0.4491
  981MOL0     C32366   5.924   1.737   8.167 -0.1574 -0.0605 -0.0935
  981MOL0     C32367   5.903   1.882   8.132  0.8156  0.5864 -0.2773
  981MOL0     H32368   6.293   1.974   7.909  0.9032 -0.9887  0.0588
  981MOL0     H32369   6.452   2.155   7.924 -0.5296  0.8684  0.8958
  981MOL0     H32370   6.520   2.387   8.166  1.0740  0.0962 -1.5127
  981MOL0     H32371   6.551   2.305   8.321  1.0506 -3.1340 -0.8039
  981MOL0     H32372   6.686   2.457   8.346 -1.6366  1.0523 -1.5525
  981MOL0     H32373   6.731   2.473   8.172 -1.1517 -2.7970 -2.2360
  981MOL0     H32374   6.879   2.285   8.184  2.3571  1.6836  0.4933
  981MOL0     H32375   6.824   2.238   8.346 -2.3907  0.4977  0.0086
  981MOL0     H32376   7.063   2.349   8.320  0.8830  1.0407 -1.0051
  981MOL0     H32377   6.967   2.499   8.287 -2.7406  0.4119  1.1944
  981MOL0     H32378   6.844   2.463   8.500 -0.0560  1.8573 -1.4594
  981MOL0     H32379   6.942   2.333   8.555  0.9981 -1.2605 -1.2039
  981MOL0     H32380   7.013   2.626   8.531  0.6592  1.2144  2.6978
  981MOL0     H32381   7.037   2.522   8.668  1.8374 -0.5361 -0.1442
  981MOL0     H32382   7.205   2.504   8.413  0.3691  1.3682  0.0132
  981MOL0     H32383   7.221   2.409   8.563 -1.1838 -0.1714  1.1315
  981MOL0     H32384   7.272   2.711   8.565  1.4679  0.6663  1.6062
  981MOL0     H32385   7.265   2.607   8.700 -1.8383  1.4225  0.1762
  981MOL0     H32386   7.446   2.573   8.358 -0.4998 -0.0087 -0.1807
  981MOL0     H32387   7.734   2.354   8.388  3.7977  0.8046 -1.5644
  981MOL0     H32388   7.679   2.474   8.276  1.0251  0.5703  0.1158
  981MOL0     H32389   7.815   2.650   8.404 -0.6274 -1.3001  0.0498
  981MOL0     H32390   7.886   2.518   8.498 -1.7150 -2.1590  0.3179
  981MOL0     H32391   7.891   2.555   8.196 -1.8642  0.3380  1.2953
  981MOL0     H32392   7.985   2.429   8.290  1.9648  0.0055 -1.2659
  981MOL0     H32393   8.024   2.732   8.303 -1.6183 -0.3856 -0.4381
  981MOL0     H32394   8.120   2.622   8.194 -0.3637 -1.7627 -0.3348
  981MOL0     H32395   8.310   2.412   8.476  1.5952 -0.5590  1.5385
  981MOL0     H32396   8.554   2.436   8.472  1.1101 -0.0930 -0.9232
  981MOL0     H32397   8.919   2.600   8.168  1.2934  0.7656 -2.9805
  981MOL0     H32398   9.182   2.665   8.138  0.3572 -0.3137 -0.0457
  981MOL0     H32399   9.497   2.835   8.237  1.3256 -1.0967 -0.9901
  981MOL0     H32400   9.390   2.704   8.262  1.1462  0.4053  0.8583
  981MOL0     H32401   9.472   2.646   8.054 -0.0711  0.1514  0.7976
  981MOL0     H32402   9.355   2.753   7.983  1.4013  1.3786 -0.9669
  981MOL0     H32403   9.562   2.817   7.903 -0.5040 -0.3530  0.2272
  981MOL0     H32404   9.546   2.937   8.038 -2.2664 -0.2579  0.3719
  981MOL0     H32405   9.694   2.672   8.034  0.5488 -0.5391 -1.6145
  981MOL0     H32406   9.720   2.803   8.156  0.4643  3.6188 -0.9896
  981MOL0     H32407   9.796   2.840   7.870 -0.7727  3.1652 -0.1033
  981MOL0     H32408   9.916   2.785   8.002 -0.2573  1.8739  1.8452
  981MOL0     H32409   9.753   3.041   7.968 -0.1781  0.0632  0.2985
  981MOL0     H32410   9.846   3.014   8.112 -0.0468 -0.9668 -0.0668
  981MOL0     H32411   9.974   3.148   7.928  1.9479  0.0434  2.5541
  981MOL0     H32412   9.979   2.987   7.850  1.9780 -1.1319  0.5635
  981MOL0     H32413  10.065   3.052   8.137  1.0205 -2.2618  0.5991
  981MOL0     H32414  10.082   2.904   8.043  0.6922 -0.2181 -1.2750
  981MOL0     H32415   9.098   3.045   8.315 -0.2259 -0.1231  1.3601
  981MOL0     H32416   8.873   2.989   8.346  1.3689  0.5600  0.1492
  981MOL0     H32417   8.528   2.795   8.245  1.6845 -1.4107 -0.1036
  981MOL0     H32418   8.296   2.798   8.262 -1.4035 -1.1795  0.2462
  981MOL0     H32419   6.532   2.058   8.339 -0.4699 -0.3569  1.2602
  981MOL0     H32420   6.339   1.897   8.325  1.8404 -0.6368  0.3238
  981MOL0     H32421   6.130   1.468   8.205 -1.2732 -2.3769  1.7453
  981MOL0     H32422   5.926   1.363   8.279 -1.7686  0.7128  0.5793
  981MOL0     H32423   5.576   1.569   8.138 -0.3817 -0.3463  0.0358
  981MOL0     H32424   5.513   1.564   8.305 -3.6940 -3.0272 -0.3038
  981MOL0     H32425   5.364   1.423   8.214  0.0021  0.6825 -0.1737
  981MOL0     H32426   5.493   1.319   8.284  0.3571  3.1396  2.2695
  981MOL0     H32427   5.596   1.302   8.054 -0.1704  0.3726 -2.6955
  981MOL0     H32428   5.470   1.404   7.987 -1.4847  0.7402 -0.3646
  981MOL0     H32429   5.448   1.153   7.961 -4.2064 -2.1201 -0.4351
  981MOL0     H32430   5.452   1.133   8.137 -5.6255 -1.6037 -0.3087
  981MOL0     H32431   5.054   1.270   8.031  0.6251  1.8943  1.5305
  981MOL0     H32432   5.717   1.726   8.209  0.4209  0.7248 -0.5789
  981MOL0     H32433   5.801   1.923   8.137  1.0081  0.9856  0.7224
  981MOL0     H32434   5.956   1.935   8.212 -4.6916  2.9459  2.3559
  981MOL0     H32435   5.943   1.900   8.032  0.8767 -3.2492 -1.1004
  982MOL0     O32436   6.981   5.830   3.562 -0.6568  0.3780 -0.9715
  982MOL0     C32437   6.934   5.811   3.679 -0.4113 -1.0495 -0.0951
  982MOL0     O32438   7.014   5.787   3.793  0.1018  0.2867  0.5551
  982MOL0     C32439   7.154   5.812   3.786  0.2208  1.3468  0.3800
  982MOL0     C32440   7.210   5.926   3.720 -0.1667 -0.0054  0.1817
  982MOL0     C32441   7.349   5.932   3.699  0.6564  0.1038  0.3287
  982MOL0     C32442   7.436   5.841   3.760 -0.3557  0.1756  0.3054
  982MOL0     O32443   7.569   5.828   3.735  0.4677  0.3117  0.4419
  982MOL0     C32444   7.608   5.867   3.603  0.3640  1.0408  0.0432
  982MOL0     C32445   7.763   5.852   3.590 -0.4264 -0.2902 -0.3370
  982MOL0     C32446   7.846   5.936   3.688 -0.1770 -0.3145  1.3407
  982MOL0     C32447   7.997   5.949   3.662 -0.5613  0.0925  0.6514
  982MOL0     C32448   8.058   6.049   3.759  0.7994  0.6977 -0.4515
  982MOL0     C32449   8.206   6.045   3.748  0.1982  1.0652 -0.1450
  982MOL0     C32450   8.280   6.122   3.854 -0.1858  0.0064  0.1448
  982MOL0     C32451   8.433   6.117   3.852  0.4764  0.4598 -0.0401
  982MOL0     N32452   8.497   6.160   3.972  0.5520  0.6226  1.4376
  982MOL0     C32453   8.619   6.215   3.987  0.1956 -0.1595  0.4064
  982MOL0     C32454   8.661   6.193   4.113 -0.1066 -0.6496  0.1101
  982MOL0     C32455   8.778   6.265   4.176  0.0887  0.1844 -0.5924
  982MOL0     C32456   8.917   6.239   4.106  0.4612  0.5743 -0.1069
  982MOL0     C32457   9.021   6.296   4.197 -0.9116  0.3328 -0.6677
  982MOL0     C32458   9.152   6.313   4.132  0.4480  0.3494 -0.7942
  982MOL0     O32459   9.238   6.375   4.225 -0.0244  1.0491  0.1826
  982MOL0     C32460   9.366   6.387   4.198  0.6767  0.7875 -0.9596
  982MOL0     C32461   9.428   6.359   4.082 -0.2806 -0.4559 -0.3865
  982MOL0     C32462   9.559   6.371   4.050 -0.5260  0.0827  0.1075
  982MOL0     C32463   9.638   6.424   4.151 -0.9439 -0.4725 -0.7175
  982MOL0     C32464   9.779   6.457   4.137  0.0528  0.7560  0.1466
  982MOL0     O32465   9.835   6.445   4.019 -0.0162  0.2869  0.4925
  982MOL0     C32466   9.974   6.482   4.010  0.9105  0.1861 -0.7815
  982MOL0     C32467  10.056   6.409   3.915  1.4307  0.4081 -0.9796
  982MOL0     C32468  10.190   6.423   3.907 -0.7579  0.3427  0.5127
  982MOL0     C32469  10.247   6.524   3.977  0.2336 -0.3489  0.4672
  982MOL0     O32470  10.382   6.558   3.970  0.2904  0.4317  0.1391
  982MOL0     C32471  10.465   6.491   3.881  0.0255  0.5934  0.0221
  982MOL0     C32472  10.610   6.559   3.873  0.6993  0.3382 -0.2395
  982MOL0     C32473  10.698   6.575   4.001  0.7888 -0.1525  0.1024
  982MOL0     C32474  10.802   6.694   4.001 -0.3271 -0.1900  0.1013
  982MOL0     C32475  10.866   6.723   4.143 -0.5176  0.3022 -0.0151
  982MOL0     C32476  10.958   6.612   4.188 -0.9186 -0.4499  0.3539
  982MOL0     C32477  11.059   6.642   4.291 -0.6419  0.0683 -0.3380
  982MOL0     C32478  11.002   6.704   4.420 -0.7496  0.1034 -0.2773
  982MOL0    Cl32479  10.939   6.877   4.401  0.1268  0.1124  0.2297
  982MOL0     C32480  10.176   6.616   4.057  0.2292 -0.7459 -0.3443
  982MOL0     C32481  10.035   6.596   4.076  0.2512  0.2653  1.5871
  982MOL0     O32482   9.839   6.475   4.239  0.2683  0.1095  0.1371
  982MOL0     C32483   9.581   6.459   4.279 -0.1010 -0.1368 -0.2575
  982MOL0     C32484   9.444   6.442   4.291 -1.6315 -0.2110  0.2012
  982MOL0     N32485   8.569   6.110   4.163 -0.2627  0.0251  0.1958
  982MOL0     N32486   8.475   6.085   4.080  0.1310  0.5598  0.3684
  982MOL0     C32487   7.376   5.745   3.847  0.3815 -0.5175  0.3571
  982MOL0     C32488   7.239   5.740   3.869  0.6957  0.9522  1.0564
  982MOL0     C32489   6.785   5.824   3.699 -0.3101 -0.2144  0.8443
  982MOL0     C32490   6.733   5.849   3.829  0.2364  0.0263  0.4566
  982MOL0     C32491   6.600   5.864   3.861  0.0096 -0.3980 -0.0216
  982MOL0     C32492   6.504   5.861   3.756  0.4273  0.7776 -0.5635
  982MOL0     O32493   6.377   5.905   3.783  0.3552 -0.1582  0.0003
  982MOL0     C32494   6.276   5.859   3.698  0.7218  0.9522 -0.2706
  982MOL0     C32495   6.153   5.849   3.793  0.7449 -0.2071  0.2248
  982MOL0     C32496   6.032   5.802   3.706  0.4669 -0.5099  0.9508
  982MOL0     C32497   5.896   5.783   3.785  0.0587  0.6295  0.4728
  982MOL0     C32498   5.827   5.901   3.840 -0.3000 -0.0792  0.2652
  982MOL0     C32499   5.768   5.990   3.889 -0.1333 -0.3563  0.4087
  982MOL0     C32500   6.547   5.838   3.627  0.6490  0.3768 -0.1087
  982MOL0     C32501   6.687   5.814   3.598  0.8241 -1.0170 -0.2326
  982MOL0     C32502   6.719   5.780   3.456 -0.3934 -0.0187 -0.1137
  982MOL0     H32503   7.146   6.003   3.677 -0.0617 -0.8315 -1.5425
  982MOL0     H32504   7.390   6.026   3.664 -1.5692  2.6943  3.9465
  982MOL0     H32505   7.559   5.798   3.533  1.4201  0.5718 -0.2490
  982MOL0     H32506   7.570   5.967   3.580 -1.6733  0.1237 -0.9053
  982MOL0     H32507   7.795   5.875   3.488 -0.5958 -2.3533 -0.9065
  982MOL0     H32508   7.796   5.748   3.585  2.4662  0.5825 -1.7159
  982MOL0     H32509   7.838   5.891   3.788  2.1892 -1.5824  1.0251
  982MOL0     H32510   7.794   6.032   3.689  0.6899  0.3387 -2.3922
  982MOL0     H32511   8.042   5.850   3.672  1.2313  0.9612  1.6486
  982MOL0     H32512   8.029   5.980   3.563 -0.0126 -2.6971 -0.1351
  982MOL0     H32513   8.012   6.147   3.742 -0.4252  0.3152  0.4994
  982MOL0     H32514   8.037   6.022   3.863 -1.4376  1.6081 -0.6171
  982MOL0     H32515   8.241   5.941   3.758  0.3280  1.2086  1.0867
  982MOL0     H32516   8.224   6.087   3.649 -1.9794  4.0643  0.5970
  982MOL0     H32517   8.240   6.081   3.948 -1.3217 -1.3700 -0.9034
  982MOL0     H32518   8.241   6.224   3.854 -1.5442 -0.3767 -3.5603
  982MOL0     H32519   8.472   6.016   3.832 -0.2864  0.4094 -1.3983
  982MOL0     H32520   8.463   6.178   3.766 -0.6920  3.1410  1.3677
  982MOL0     H32521   8.662   6.281   3.912  0.9087 -1.2594 -0.1982
  982MOL0     H32522   8.765   6.374   4.176  0.4992  0.2391 -0.0310
  982MOL0     H32523   8.796   6.236   4.280  2.1544 -1.4534 -1.3280
  982MOL0     H32524   8.934   6.132   4.092 -0.9552  0.3336 -0.0857
  982MOL0     H32525   8.929   6.287   4.008  1.0625 -1.0208 -0.8417
  982MOL0     H32526   9.050   6.238   4.285 -0.1159  1.7707  0.0548
  982MOL0     H32527   8.999   6.397   4.232 -1.4391 -0.0735  0.2112
  982MOL0     H32528   9.145   6.373   4.041 -0.1837  1.5145 -0.0015
  982MOL0     H32529   9.191   6.212   4.113 -2.7477 -0.8032 -1.8252
  982MOL0     H32530   9.379   6.304   4.001 -2.4997 -0.7130  1.0509
  982MOL0     H32531   9.598   6.348   3.952  0.6927 -1.7537  0.9547
  982MOL0     H32532  10.000   6.338   3.855 -1.5513  0.2214  1.7458
  982MOL0     H32533  10.249   6.348   3.854 -0.3785  2.8317 -2.9829
  982MOL0     H32534  10.490   6.391   3.917  0.2472  0.6619  0.0594
  982MOL0     H32535  10.412   6.465   3.789 -0.2860 -1.9727  0.8502
  982MOL0     H32536  10.666   6.485   3.814  2.0121 -0.2905  1.6996
  982MOL0     H32537  10.612   6.650   3.812 -2.0311  2.1109  2.0663
  982MOL0     H32538  10.626   6.592   4.082 -0.0122 -2.0347 -0.1591
  982MOL0     H32539  10.750   6.480   4.018  0.9710  0.1645  1.4174
  982MOL0     H32540  10.744   6.780   3.967 -1.2871 -0.9381 -0.1895
  982MOL0     H32541  10.883   6.674   3.931  0.0401 -1.9105  0.9494
  982MOL0     H32542  10.791   6.742   4.221  0.0228 -3.5123  1.6254
  982MOL0     H32543  10.921   6.816   4.123  0.8137 -1.0772 -3.4305
  982MOL0     H32544  10.900   6.523   4.214  4.0082 -4.1642  0.2701
  982MOL0     H32545  11.015   6.580   4.100 -1.9695 -0.8802 -0.1834
  982MOL0     H32546  11.127   6.712   4.241  0.6037 -0.4432  0.5640
  982MOL0     H32547  11.117   6.552   4.317 -2.0996 -1.6556 -2.6363
  982MOL0     H32548  10.917   6.644   4.454 -3.3465  1.6169 -3.5401
  982MOL0     H32549  11.087   6.712   4.488  1.2119  0.4812 -2.6513
  982MOL0     H32550  10.242   6.684   4.112 -0.4467  1.2069 -1.8425
  982MOL0     H32551   9.978   6.668   4.134 -2.1139  0.9241 -1.3439
  982MOL0     H32552   9.632   6.516   4.355 -1.5796  2.6619 -1.2250
  982MOL0     H32553   9.420   6.477   4.391 -1.0764  1.1411 -0.1119
  982MOL0     H32554   7.442   5.680   3.902  1.2544  0.1563  0.1264
  982MOL0     H32555   7.183   5.666   3.925 -1.0174 -0.0014 -1.6682
  982MOL0     H32556   6.804   5.860   3.911  2.0502  0.8306 -1.1208
  982MOL0     H32557   6.560   5.875   3.961 -2.5731  1.6485 -1.1589
  982MOL0     H32558   6.304   5.757   3.670 -0.8432  0.0024  1.3619
  982MOL0     H32559   6.256   5.931   3.619 -1.9835  0.8387  0.1984
  982MOL0     H32560   6.138   5.950   3.834 -0.3853 -0.2002 -0.1907
  982MOL0     H32561   6.164   5.781   3.878  1.8532 -2.6953 -1.7642
  982MOL0     H32562   6.063   5.712   3.651 -2.9519 -0.2012 -1.9300
  982MOL0     H32563   6.006   5.881   3.634 -0.5178 -1.2654  0.4364
  982MOL0     H32564   5.844   5.734   3.702 -1.1940  0.8394  1.1077
  982MOL0     H32565   5.908   5.714   3.870 -1.9676  0.6504  0.8385
  982MOL0     H32566   5.741   6.083   3.934  3.1175  0.8898  0.0020
  982MOL0     H32567   6.466   5.828   3.556 -0.4529  1.6346  0.9141
  982MOL0     H32568   6.758   5.869   3.407  0.5160 -0.6024 -0.4776
  982MOL0     H32569   6.795   5.702   3.449  1.4153  1.7807 -1.5851
  982MOL0     H32570   6.621   5.756   3.414 -0.8348  1.3848  0.0460
  983MOL0     O32571   2.642  10.801  11.182 -0.3982 -0.1766  0.1209
  983MOL0     C32572   2.613  10.872  11.084  0.0948 -0.2966 -0.2025
  983MOL0     O32573   2.697  10.940  10.999  0.6637  0.3579 -0.1105
  983MOL0     C32574   2.828  10.924  11.026 -0.3199 -0.1999  0.2838
  983MOL0     C32575   2.916  10.841  10.949  0.2083 -0.2758  0.4030
  983MOL0     C32576   3.051  10.823  10.971  0.0227  0.6823  0.5033
  983MOL0     C32577   3.106  10.903  11.069 -0.5664 -0.3391 -0.2096
  983MOL0     O32578   3.239  10.920  11.097  0.2612  0.1918  0.3259
  983MOL0     C32579   3.317  11.012  11.009  0.3395  0.0942 -0.8546
  983MOL0     C32580   3.454  11.016  11.065  0.1834 -0.3277  1.4416
  983MOL0     C32581   3.545  11.109  10.983 -0.2824 -0.6448  0.2279
  983MOL0     C32582   3.681  11.110  11.026 -1.1500  0.2126 -0.0802
  983MOL0     C32583   3.780  11.174  10.925 -0.7527 -0.4973 -0.3164
  983MOL0     C32584   3.913  11.113  10.930  0.4087 -0.8777 -0.8715
  983MOL0     C32585   3.986  11.160  10.795  0.1493 -0.5711  1.1387
  983MOL0     C32586   4.135  11.157  10.814 -0.6864 -0.0190  0.1215
  983MOL0     N32587   4.212  11.153  10.693  0.4270  0.2992  0.4487
  983MOL0     C32588   4.325  11.076  10.671 -0.4591  0.1234 -0.0845
  983MOL0     C32589   4.368  11.119  10.548 -0.0506  0.5351  0.8710
  983MOL0     C32590   4.483  11.052  10.475  0.1248  0.5210 -0.2256
  983MOL0     C32591   4.596  11.146  10.426 -0.2625 -0.5176 -0.5206
  983MOL0     C32592   4.681  11.094  10.314 -0.3177  0.2899 -0.3824
  983MOL0     C32593   4.744  10.957  10.336  0.7766 -0.3151  0.1151
  983MOL0     O32594   4.850  10.939  10.236 -0.1591  0.3451  0.2347
  983MOL0     C32595   4.956  11.027  10.246 -0.0313  0.6155  1.2773
  983MOL0     C32596   5.042  11.016  10.359  0.3476  0.0235 -0.2012
  983MOL0     C32597   5.166  11.075  10.357  0.3754 -0.2034 -0.0240
  983MOL0     C32598   5.200  11.160  10.247 -0.4224  0.0783  0.0049
  983MOL0     C32599   5.332  11.216  10.242 -0.0211 -0.3508  0.8072
  983MOL0     O32600   5.425  11.189  10.344 -0.2331  0.3650  0.1222
  983MOL0     C32601   5.538  11.257  10.324 -0.8222  0.0857 -0.7795
  983MOL0     C32602   5.644  11.215  10.240  0.1877 -0.2712 -0.1595
  983MOL0     C32603   5.755  11.296  10.222 -0.1623 -0.3354 -0.1923
  983MOL0     C32604   5.777  11.410  10.302 -0.0759  1.3379 -0.6039
  983MOL0     O32605   5.896  11.480  10.286  0.0244  0.5469  0.0225
  983MOL0     C32606   5.978  11.487  10.403  0.3368  0.5611  1.1806
  983MOL0     C32607   6.030  11.634  10.397 -0.9908  0.3778 -0.8495
  983MOL0     C32608   6.103  11.677  10.271 -0.5086 -0.0321 -0.3848
  983MOL0     C32609   6.155  11.821  10.297  0.4277 -0.3584 -0.2258
  983MOL0     C32610   6.240  11.871  10.179  0.3248  0.4164  0.6964
  983MOL0     C32611   6.291  12.021  10.182  0.3963 -0.4451 -0.5713
  983MOL0     C32612   6.358  12.072  10.058  0.8144 -0.3170  0.1877
  983MOL0     C32613   6.471  11.990  10.016 -0.2965  0.1894  1.0105
  983MOL0    Cl32614   6.595  11.952  10.153 -0.3124 -0.1801  0.6433
  983MOL0     C32615   5.678  11.444  10.394  0.2852  0.0945  0.7279
  983MOL0     C32616   5.561  11.366  10.405  0.4632 -0.5751 -0.3193
  983MOL0     O32617   5.352  11.294  10.148  0.0694 -0.5879 -0.3400
  983MOL0     C32618   5.114  11.185  10.142 -0.3242  0.4678 -0.1514
  983MOL0     C32619   4.990  11.121  10.146  0.0793  0.2579  0.0523
  983MOL0     N32620   4.287  11.222  10.499  0.0382 -0.2580 -0.6449
  983MOL0     N32621   4.196  11.231  10.588  0.5264 -0.2986 -0.4961
  983MOL0     C32622   3.022  10.984  11.157 -0.0043  0.2579 -0.3338
  983MOL0     C32623   2.884  10.999  11.129 -0.6737 -0.1069  0.6816
  983MOL0     C32624   2.467  10.892  11.049  0.0961  0.0837 -0.3442
  983MOL0     C32625   2.428  10.917  10.914 -0.0265  0.0834 -0.1827
  983MOL0     C32626   2.295  10.910  10.877  0.1968 -0.6112 -0.4187
  983MOL0     C32627   2.194  10.888  10.971  0.5796 -0.9197 -0.2285
  983MOL0     O32628   2.063  10.874  10.935  0.1206 -0.1328  0.7483
  983MOL0     C32629   1.979  10.778  10.998  0.1585  0.6732  0.3402
  983MOL0     C32630   1.886  10.704  10.895 -0.6962 -1.0850  0.2585
  983MOL0     C32631   1.790  10.605  10.968 -0.0434 -1.1071  0.2324
  983MOL0     C32632   1.682  10.562  10.874  0.3863 -0.2334 -0.3581
  983MOL0     C32633   1.734  10.467  10.778 -0.0909  0.4602 -0.0281
  983MOL0     C32634   1.785  10.394  10.696  0.2147  0.0384 -0.3665
  983MOL0     C32635   2.226  10.887  11.104 -0.2900  0.1836 -0.2695
  983MOL0     C32636   2.362  10.879  11.147  0.0855  0.3495 -0.1419
  983MOL0     C32637   2.386  10.852  11.294 -0.2838 -0.4484 -0.0622
  983MOL0     H32638   2.869  10.781  10.872 -0.3038 -1.7970  1.8464
  983MOL0     H32639   3.122  10.763  10.914  0.3775  0.7324  0.8916
  983MOL0     H32640   3.323  10.970  10.908  1.9137 -2.1355  0.1024
  983MOL0     H32641   3.280  11.115  11.001 -0.0088  0.0615  0.2446
  983MOL0     H32642   3.500  10.916  11.070 -2.6977 -1.7506  1.3755
  983MOL0     H32643   3.456  11.042  11.171 -0.0019  0.2064  1.3164
  983MOL0     H32644   3.507  11.211  10.989 -0.3188 -0.6118 -0.5742
  983MOL0     H32645   3.530  11.094  10.876 -3.9722  0.6956  0.4368
  983MOL0     H32646   3.685  11.143  11.130 -0.7886  0.4356 -0.1598
  983MOL0     H32647   3.716  11.007  11.038  3.1139  1.6577  2.2670
  983MOL0     H32648   3.737  11.158  10.826 -2.8767  2.1741  0.0628
  983MOL0     H32649   3.784  11.280  10.949 -1.0655 -0.9756  2.0694
  983MOL0     H32650   3.961  11.154  11.019 -1.8445  0.4952 -0.2146
  983MOL0     H32651   3.911  11.004  10.943 -1.8935 -0.6888  1.0765
  983MOL0     H32652   3.952  11.259  10.767  0.9951 -0.9918 -1.6138
  983MOL0     H32653   3.959  11.095  10.712  1.9960  0.3657 -0.2568
  983MOL0     H32654   4.145  11.261  10.849 -1.2292  0.1111 -0.1021
  983MOL0     H32655   4.165  11.084  10.889  0.1812 -1.2199 -1.3457
  983MOL0     H32656   4.369  11.005  10.739  0.8776  0.4747 -0.5399
  983MOL0     H32657   4.516  10.972  10.542 -1.5640 -1.4638 -1.6350
  983MOL0     H32658   4.434  11.005  10.389 -1.4435  2.2782 -0.3516
  983MOL0     H32659   4.541  11.231  10.384 -1.3543 -0.3284  1.1787
  983MOL0     H32660   4.659  11.180  10.509 -1.4465  0.7778 -0.1071
  983MOL0     H32661   4.762  11.162  10.289 -2.7711  2.3041 -3.7546
  983MOL0     H32662   4.630  11.068  10.221  1.3370 -4.3418 -0.2718
  983MOL0     H32663   4.664  10.884  10.323 -1.2623  1.7288  0.6395
  983MOL0     H32664   4.785  10.954  10.437 -0.1786  3.5257  0.7898
  983MOL0     H32665   5.007  10.949  10.437  1.1482  0.8041  0.8617
  983MOL0     H32666   5.235  11.059  10.439 -1.5331 -0.2279  1.6529
  983MOL0     H32667   5.627  11.123  10.185  2.9416 -0.3877 -0.9293
  983MOL0     H32668   5.837  11.264  10.158  0.5209  1.4301 -0.2638
  983MOL0     H32669   5.914  11.470  10.490 -0.9343 -3.4752 -0.3036
  983MOL0     H32670   6.054  11.409  10.399 -0.2852 -0.0139 -1.3117
  983MOL0     H32671   5.941  11.698  10.406 -0.8527  0.4377  0.2534
  983MOL0     H32672   6.102  11.645  10.479 -0.7234 -1.1470 -0.8594
  983MOL0     H32673   6.174  11.599  10.245 -1.5208 -1.2192  0.2856
  983MOL0     H32674   6.031  11.668  10.189 -4.4317 -2.1827  2.8592
  983MOL0     H32675   6.211  11.819  10.391 -1.5846 -0.4809  1.0249
  983MOL0     H32676   6.071  11.889  10.311 -0.4665 -1.0737 -1.8717
  983MOL0     H32677   6.198  11.847  10.081  3.5978  0.1835 -0.7933
  983MOL0     H32678   6.330  11.809  10.188  1.8456  2.2184 -0.9922
  983MOL0     H32679   6.220  12.094  10.222  1.6619  0.8203 -0.5575
  983MOL0     H32680   6.364  12.026  10.263 -2.2102 -0.0270  1.9279
  983MOL0     H32681   6.390  12.175  10.079 -4.1711  1.3441  0.8181
  983MOL0     H32682   6.283  12.079   9.979 -1.5613 -0.3917  2.3240
  983MOL0     H32683   6.446  11.895   9.967  1.9931  0.0715 -0.0584
  983MOL0     H32684   6.530  12.031   9.933  2.2319 -3.7393  0.6224
  983MOL0     H32685   5.686  11.545  10.433 -4.9958  1.9763 -2.0779
  983MOL0     H32686   5.485  11.398  10.475  3.1823  2.2855  1.5785
  983MOL0     H32687   5.134  11.248  10.055 -0.2859  0.6740  0.0044
  983MOL0     H32688   4.913  11.129  10.069 -0.9266  1.1131  1.1143
  983MOL0     H32689   3.073  11.024  11.244  2.5409  0.3327 -1.7806
  983MOL0     H32690   2.823  11.071  11.182 -0.0883  2.0807 -1.4183
  983MOL0     H32691   2.509  10.920  10.842  1.0603 -0.6073  0.9743
  983MOL0     H32692   2.272  10.913  10.771  0.1789  3.0493 -0.4643
  983MOL0     H32693   1.926  10.824  11.082  0.1390 -1.1402  1.3578
  983MOL0     H32694   2.044  10.702  11.041  0.7695  1.8765  1.5976
  983MOL0     H32695   1.941  10.661  10.811  0.3882  0.1785  0.2937
  983MOL0     H32696   1.819  10.783  10.860 -0.2624 -1.1243 -0.6920
  983MOL0     H32697   1.742  10.643  11.059  0.6848  0.7588 -0.1136
  983MOL0     H32698   1.850  10.520  11.003  2.3208  0.9114  1.4472
  983MOL0     H32699   1.607  10.510  10.934  0.9392  1.0796  1.5432
  983MOL0     H32700   1.626  10.644  10.828 -0.3646  0.4449  1.6695
  983MOL0     H32701   1.829  10.330  10.622  1.1490 -0.4576  0.5811
  983MOL0     H32702   2.141  10.880  11.171 -0.1155  3.5783  0.4632
  983MOL0     H32703   2.392  10.746  11.319  1.5891  0.0546  1.9419
  983MOL0     H32704   2.479  10.902  11.323  1.1106 -1.8797 -1.7611
  983MOL0     H32705   2.304  10.887  11.357 -1.6614 -1.6129 -1.1351
  984MOL0     O32706   7.444   1.941   4.782  0.3254  0.1163 -0.6589
  984MOL0     C32707   7.458   2.062   4.775 -0.1592  0.2010  0.6740
  984MOL0     O32708   7.576   2.126   4.753  0.0059 -0.4082  0.3125
  984MOL0     C32709   7.698   2.063   4.742  1.4326  0.3192  0.3761
  984MOL0     C32710   7.720   1.970   4.645 -0.2634 -0.2441 -0.5601
  984MOL0     C32711   7.847   1.912   4.632  0.1430 -0.1808  0.7806
  984MOL0     C32712   7.948   1.944   4.721 -0.7106  0.2613  0.4045
  984MOL0     O32713   8.076   1.900   4.701  0.3652  0.3603 -0.1465
  984MOL0     C32714   8.142   1.927   4.578 -0.1831  0.4507 -0.4672
  984MOL0     C32715   8.287   1.932   4.599  0.0989  0.7068 -0.8326
  984MOL0     C32716   8.352   1.950   4.465 -0.2587 -0.1841 -0.8497
  984MOL0     C32717   8.504   1.957   4.467  0.6541 -1.1405 -0.6244
  984MOL0     C32718   8.541   1.985   4.327  0.7971  0.0811  0.4366
  984MOL0     C32719   8.684   1.944   4.286 -0.1484  0.3630 -0.4382
  984MOL0     C32720   8.719   1.987   4.144 -0.4961  0.6209 -0.0321
  984MOL0     C32721   8.865   1.968   4.113 -0.6843  0.1430  0.5707
  984MOL0     N32722   8.959   2.042   4.202  0.1831  0.2513 -0.3516
  984MOL0     C32723   8.992   2.172   4.204 -0.0566  0.0269  0.2705
  984MOL0     C32724   9.064   2.193   4.318 -0.6262 -0.6322  0.0149
  984MOL0     C32725   9.102   2.337   4.351  0.4649  0.4873 -1.1144
  984MOL0     C32726   9.244   2.372   4.305  0.5892  0.0323 -1.0176
  984MOL0     C32727   9.341   2.309   4.400 -0.5011  0.6044  0.1271
  984MOL0     C32728   9.495   2.324   4.371  0.4455  0.8882  0.6400
  984MOL0     O32729   9.554   2.216   4.440  0.4570 -0.1620 -0.5970
  984MOL0     C32730   9.633   2.252   4.542 -0.7889  0.0416 -0.6207
  984MOL0     C32731   9.597   2.326   4.657 -0.3247 -0.5772  0.2397
  984MOL0     C32732   9.683   2.357   4.745 -0.0963 -0.8398  0.2741
  984MOL0     C32733   9.824   2.319   4.729  1.1213 -0.0353 -0.0449
  984MOL0     C32734   9.931   2.377   4.820  0.9216  0.1654 -0.5251
  984MOL0     O32735  10.053   2.322   4.816  0.3068 -0.3027 -0.0896
  984MOL0     C32736  10.143   2.360   4.918 -0.0383 -0.0937  0.6588
  984MOL0     C32737  10.099   2.361   5.052  0.1876  0.3034 -0.3007
  984MOL0     C32738  10.196   2.377   5.152 -0.3951 -0.0908 -0.3414
  984MOL0     C32739  10.336   2.391   5.121 -0.2356  0.1271 -0.3532
  984MOL0     O32740  10.421   2.395   5.230 -0.7008  0.4934  0.1896
  984MOL0     C32741  10.552   2.432   5.212 -0.0288 -0.8155 -0.5430
  984MOL0     C32742  10.625   2.381   5.335  0.0278 -0.2216 -0.1961
  984MOL0     C32743  10.767   2.438   5.350  0.6164  0.4396  0.3875
  984MOL0     C32744  10.880   2.352   5.272  0.5413  0.3209  0.1442
  984MOL0     C32745  10.869   2.362   5.120  0.0740  0.3821 -1.2702
  984MOL0     C32746  10.995   2.302   5.070  0.4729 -0.0859  0.7653
  984MOL0     C32747  10.988   2.299   4.913 -0.2152  0.0991 -0.0899
  984MOL0     C32748  11.089   2.210   4.841  0.1329  0.9249 -0.1419
  984MOL0    Cl32749  11.000   2.076   4.767 -0.1559  0.0342 -0.2568
  984MOL0     C32750  10.375   2.401   4.984 -0.2103 -0.2108  0.3948
  984MOL0     C32751  10.279   2.378   4.881  0.0379 -0.1801  0.0670
  984MOL0     O32752   9.889   2.471   4.890  0.0186  0.1239 -0.0235
  984MOL0     C32753   9.859   2.238   4.623  0.5664  0.1765  1.0630
  984MOL0     C32754   9.768   2.213   4.519 -0.5483 -0.4052 -0.2574
  984MOL0     N32755   9.096   2.078   4.383 -0.4682  0.0011  0.7538
  984MOL0     N32756   9.030   1.983   4.303 -0.5823 -0.5047 -0.3476
  984MOL0     C32757   7.922   2.040   4.821  0.0136 -0.4840  0.5143
  984MOL0     C32758   7.799   2.102   4.824  0.5050  0.1439  0.2221
  984MOL0     C32759   7.340   2.145   4.812 -0.9347  0.2031  0.0045
  984MOL0     C32760   7.354   2.281   4.860  0.0695 -0.1400 -0.1151
  984MOL0     C32761   7.240   2.358   4.871  0.3505  0.2944  0.2768
  984MOL0     C32762   7.113   2.314   4.846 -0.3245  0.5094 -0.0139
  984MOL0     O32763   7.004   2.392   4.853 -0.0974  0.2984 -0.0733
  984MOL0     C32764   6.994   2.469   4.740 -0.7790 -1.0034 -0.8030
  984MOL0     C32765   6.890   2.409   4.643  0.4146  0.3334  0.0835
  984MOL0     C32766   6.734   2.395   4.683 -0.1237 -0.4351  1.3502
  984MOL0     C32767   6.648   2.524   4.678 -0.7036 -0.3549 -0.1466
  984MOL0     C32768   6.511   2.505   4.717 -0.5397  0.1713  0.0976
  984MOL0     C32769   6.408   2.463   4.763  0.3025 -0.9116 -0.3019
  984MOL0     C32770   7.101   2.182   4.819  0.4467 -0.2018  0.6421
  984MOL0     C32771   7.209   2.092   4.801  0.1007 -0.5319 -0.3364
  984MOL0     C32772   7.174   1.958   4.754 -0.5011 -0.1709  0.6951
  984MOL0     H32773   7.637   1.926   4.592  0.7450 -1.7025 -0.9725
  984MOL0     H32774   7.861   1.840   4.551 -1.9848 -1.9076  1.8665
  984MOL0     H32775   8.116   1.848   4.507  1.3972  0.4650 -1.0894
  984MOL0     H32776   8.113   2.024   4.538  0.2765  1.2761  1.1157
  984MOL0     H32777   8.311   1.830   4.633 -2.5351  0.5249  0.8164
  984MOL0     H32778   8.306   2.009   4.674  0.6877  0.5926 -0.8590
  984MOL0     H32779   8.318   2.048   4.431  0.0729  0.1663 -0.1748
  984MOL0     H32780   8.325   1.872   4.393  1.4321  1.2371 -3.1629
  984MOL0     H32781   8.534   2.037   4.535 -1.7941 -2.4141  2.1957
  984MOL0     H32782   8.538   1.859   4.502  1.2014 -0.7416 -0.0213
  984MOL0     H32783   8.478   1.919   4.267 -2.4424  1.0693  2.4717
  984MOL0     H32784   8.515   2.085   4.294  0.3260 -0.4594 -0.8800
  984MOL0     H32785   8.746   1.996   4.360 -0.2255 -0.2850  0.1039
  984MOL0     H32786   8.700   1.838   4.309 -0.5486  0.3572 -0.1802
  984MOL0     H32787   8.688   2.090   4.127  0.2493  1.2215  2.0148
  984MOL0     H32788   8.661   1.927   4.073  0.6947  0.0464 -0.5620
  984MOL0     H32789   8.897   1.864   4.124 -1.0674  0.1375  1.7225
  984MOL0     H32790   8.886   1.995   4.009 -2.7879 -1.6443 -0.4263
  984MOL0     H32791   8.963   2.254   4.139  1.1068  2.3617  2.4864
  984MOL0     H32792   9.038   2.407   4.295 -2.9081 -1.8382 -0.3976
  984MOL0     H32793   9.095   2.361   4.457 -0.7309  3.1317 -1.6865
  984MOL0     H32794   9.260   2.340   4.202  1.4499 -2.8820 -0.0977
  984MOL0     H32795   9.244   2.481   4.312 -1.0091  0.0334 -0.6516
  984MOL0     H32796   9.320   2.202   4.395  0.2850  0.4867 -1.0165
  984MOL0     H32797   9.318   2.353   4.498 -0.1908  2.3522 -0.5649
  984MOL0     H32798   9.545   2.420   4.390  0.7183  1.2038 -1.3749
  984MOL0     H32799   9.506   2.304   4.264 -0.0497  1.0970  0.5478
  984MOL0     H32800   9.491   2.347   4.664 -0.8176 -1.0103 -3.6312
  984MOL0     H32801   9.660   2.428   4.824  1.2027 -1.2720  1.0811
  984MOL0     H32802   9.993   2.352   5.072  0.1269 -1.5694 -1.2517
  984MOL0     H32803  10.162   2.384   5.255  0.7135  3.0587 -0.0812
  984MOL0     H32804  10.594   2.391   5.120  1.9926 -0.7301  0.2800
  984MOL0     H32805  10.565   2.540   5.201 -0.1409 -0.7150  0.2599
  984MOL0     H32806  10.578   2.419   5.426  1.0204  0.1440  0.1839
  984MOL0     H32807  10.628   2.272   5.329  2.3340 -0.2209  0.1298
  984MOL0     H32808  10.762   2.544   5.326 -2.0545  1.0386  2.8944
  984MOL0     H32809  10.785   2.429   5.458 -0.7466 -0.9913  0.5371
  984MOL0     H32810  10.885   2.250   5.311  1.5065  0.9759  1.8298
  984MOL0     H32811  10.974   2.398   5.303  0.1463 -0.0225  1.9564
  984MOL0     H32812  10.856   2.469   5.102 -1.5049  0.5488  0.6027
  984MOL0     H32813  10.781   2.306   5.087 -0.7323  1.7696 -1.5965
  984MOL0     H32814  11.083   2.355   5.107 -0.9760  1.2980  2.4113
  984MOL0     H32815  11.006   2.201   5.110  4.5080  0.9655  2.8767
  984MOL0     H32816  11.006   2.400   4.873 -1.5174 -0.0397 -1.0833
  984MOL0     H32817  10.887   2.271   4.884  0.3632 -1.5254 -0.6559
  984MOL0     H32818  11.144   2.268   4.766  2.4326  0.9961  1.4805
  984MOL0     H32819  11.156   2.172   4.920 -0.4421  1.3988  0.5786
  984MOL0     H32820  10.476   2.410   4.945 -1.3743  0.8982 -2.6171
  984MOL0     H32821  10.307   2.368   4.777 -1.6184 -0.6009 -0.3713
  984MOL0     H32822   9.955   2.192   4.601  0.7536  0.9525  0.2236
  984MOL0     H32823   9.789   2.155   4.430  1.6921 -0.2008  0.0863
  984MOL0     H32824   8.004   2.067   4.887 -0.8579  3.8524  0.0701
  984MOL0     H32825   7.768   2.180   4.893 -3.5901 -1.4180  0.4414
  984MOL0     H32826   7.454   2.321   4.875  0.8881 -1.6747 -1.2514
  984MOL0     H32827   7.244   2.459   4.909  4.1600  1.4049 -2.5780
  984MOL0     H32828   7.093   2.483   4.696  0.5057 -1.0898  1.8401
  984MOL0     H32829   6.951   2.562   4.778 -0.0855 -0.9845 -0.0355
  984MOL0     H32830   6.931   2.312   4.613  0.7708  0.3116  0.6367
  984MOL0     H32831   6.882   2.474   4.555 -0.7239  2.1455  1.4627
  984MOL0     H32832   6.720   2.354   4.783 -2.0371  2.1107  2.2198
  984MOL0     H32833   6.686   2.325   4.614  2.7618 -2.0034  0.7413
  984MOL0     H32834   6.698   2.609   4.726 -2.4040  1.5559 -1.6000
  984MOL0     H32835   6.644   2.547   4.571  1.0645 -1.9228 -0.6133
  984MOL0     H32836   6.317   2.443   4.816  0.1420  0.6177  0.0612
  984MOL0     H32837   7.000   2.146   4.800  1.0118 -0.2037 -3.2713
  984MOL0     H32838   7.194   1.883   4.832 -2.6873  0.1290  1.6216
  984MOL0     H32839   7.067   1.948   4.734 -0.2984  0.7418 -0.9773
  984MOL0     H32840   7.229   1.930   4.664 -1.2983 -0.6145  0.3309
  985MOL0     O32841   4.749  10.557   5.826  0.4831 -0.5355 -0.2259
  985MOL0     C32842   4.672  10.534   5.918 -0.3240  0.2717  0.3720
  985MOL0     O32843   4.712  10.492   6.044  0.0369  0.0042  0.0652
  985MOL0     C32844   4.845  10.467   6.046  0.2130 -0.3776  0.8074
  985MOL0     C32845   4.899  10.341   6.054 -1.2971  0.1625 -0.4820
  985MOL0     C32846   5.039  10.315   6.062 -0.4293 -0.1449  0.4676
  985MOL0     C32847   5.131  10.421   6.071  0.3465  0.6003  0.6991
  985MOL0     O32848   5.264  10.402   6.097 -0.3651 -0.2442 -0.3051
  985MOL0     C32849   5.333  10.279   6.104  0.1491 -0.3219  0.7198
  985MOL0     C32850   5.479  10.286   6.131  0.6395  0.4403  0.5411
  985MOL0     C32851   5.505  10.302   6.284 -0.4318 -0.8608 -0.7379
  985MOL0     C32852   5.577  10.187   6.344 -1.2913 -0.1204  0.2869
  985MOL0     C32853   5.583  10.193   6.497 -0.2324 -0.9115  0.1352
  985MOL0     C32854   5.624  10.332   6.561 -0.3394  0.8576 -0.4189
  985MOL0     C32855   5.764  10.386   6.504  0.7983  0.5768 -0.1473
  985MOL0     C32856   5.819  10.507   6.579  0.1810  0.1146 -0.2089
  985MOL0     N32857   5.929  10.577   6.521  0.0596 -0.3395  0.3644
  985MOL0     C32858   6.044  10.523   6.481 -1.4855 -0.2686  0.2129
  985MOL0     C32859   6.128  10.631   6.461 -1.0464  0.2709  0.6531
  985MOL0     C32860   6.273  10.635   6.417  0.2877 -0.0115 -0.1379
  985MOL0     C32861   6.363  10.617   6.537 -0.3882  0.6622 -0.4376
  985MOL0     C32862   6.501  10.599   6.480  0.2536  0.4642 -0.5391
  985MOL0     C32863   6.619  10.567   6.576  0.2024  0.1360  0.3957
  985MOL0     O32864   6.727  10.511   6.506  0.0596 -0.3449  0.1168
  985MOL0     C32865   6.831  10.584   6.447  0.4619 -0.0240  0.0285
  985MOL0     C32866   6.846  10.725   6.438  0.4063 -0.3502  0.1281
  985MOL0     C32867   6.962  10.776   6.385  0.8577 -0.6269 -1.3615
  985MOL0     C32868   7.059  10.697   6.328  0.1326 -0.6333  0.3761
  985MOL0     C32869   7.168  10.761   6.259 -0.8680  0.5440 -1.2212
  985MOL0     O32870   7.242  10.681   6.176 -0.9604  0.0152 -0.6780
  985MOL0     C32871   7.357  10.750   6.141  0.1807 -0.2016  0.3618
  985MOL0     C32872   7.371  10.776   6.002  0.4582 -0.1903  0.5924
  985MOL0     C32873   7.482  10.846   5.955 -0.1931 -0.2772 -0.7068
  985MOL0     C32874   7.585  10.881   6.046 -0.0749 -0.3860 -0.6482
  985MOL0     O32875   7.704  10.946   6.015 -0.2036  0.7211 -0.0492
  985MOL0     C32876   7.744  10.929   5.876 -0.5104 -0.4044  0.2171
  985MOL0     C32877   7.695  11.046   5.783 -0.6203  0.2240  0.4997
  985MOL0     C32878   7.791  11.056   5.663  0.5560 -0.0159  0.9949
  985MOL0     C32879   7.887  11.175   5.669 -1.0172 -0.2575 -0.6023
  985MOL0     C32880   7.940  11.201   5.534 -0.0714  0.8222  0.8776
  985MOL0     C32881   8.057  11.124   5.492 -0.2704 -0.4800  0.0392
  985MOL0     C32882   8.192  11.177   5.549  0.8849  0.4821 -0.3217
  985MOL0     C32883   8.318  11.112   5.480 -0.1070  0.1285 -0.5414
  985MOL0    Cl32884   8.462  11.126   5.587  0.1345 -0.6394  0.4310
  985MOL0     C32885   7.573  10.850   6.181  0.4335  1.1821 -0.4486
  985MOL0     C32886   7.463  10.782   6.234  0.6884  0.0132  0.0909
  985MOL0     O32887   7.201  10.875   6.302 -0.9803  0.8004 -0.0136
  985MOL0     C32888   7.040  10.558   6.327 -0.2903  0.4152 -1.3029
  985MOL0     C32889   6.934  10.505   6.395 -0.3441  0.2338  0.2504
  985MOL0     N32890   6.060  10.748   6.482 -0.2987 -0.2479  0.4438
  985MOL0     N32891   5.940  10.714   6.519 -0.0221 -0.3081  0.0316
  985MOL0     C32892   5.079  10.546   6.075 -0.0502 -0.4258 -0.2823
  985MOL0     C32893   4.942  10.569   6.063  0.2037 -0.3366  0.0640
  985MOL0     C32894   4.528  10.558   5.898  1.1859  0.0729  0.3033
  985MOL0     C32895   4.459  10.649   5.980  0.4264  0.7394 -0.2865
  985MOL0     C32896   4.322  10.685   5.957  0.7295  0.7793  0.1381
  985MOL0     C32897   4.238  10.614   5.866 -0.0510  0.3221  0.5661
  985MOL0     O32898   4.101  10.634   5.862 -0.4749 -0.0514 -0.2190
  985MOL0     C32899   4.050  10.689   5.744 -0.6000 -0.7015 -0.1097
  985MOL0     C32900   3.914  10.737   5.755 -0.6312 -0.6312  0.1007
  985MOL0     C32901   3.883  10.835   5.639  0.1089  0.2688 -0.5015
  985MOL0     C32902   3.783  10.944   5.684  0.0985 -0.5082  0.3699
  985MOL0     C32903   3.726  11.029   5.573 -0.0243  0.2784 -0.1236
  985MOL0     C32904   3.661  11.075   5.481 -0.2729  0.3732  0.2161
  985MOL0     C32905   4.304  10.514   5.789 -0.3346  0.7793 -0.7040
  985MOL0     C32906   4.444  10.493   5.800  0.2592 -0.3420 -0.1570
  985MOL0     C32907   4.509  10.389   5.712  0.4507 -0.0184 -0.2243
  985MOL0     H32908   4.834  10.254   6.054 -0.7192 -0.3705  2.2127
  985MOL0     H32909   5.079  10.215   6.050  1.7962  0.7986 -0.5398
  985MOL0     H32910   5.283  10.215   6.176  1.4806  0.1478  2.1001
  985MOL0     H32911   5.321  10.235   6.004  1.8019 -0.2519  0.4578
  985MOL0     H32912   5.527  10.369   6.078  1.0690  0.4136  0.8769
  985MOL0     H32913   5.513  10.192   6.085 -0.6207 -0.0479  0.5827
  985MOL0     H32914   5.417  10.323   6.344  0.7900 -1.8864  1.5436
  985MOL0     H32915   5.574  10.385   6.300 -0.1106 -1.5268  1.7370
  985MOL0     H32916   5.534  10.088   6.325 -1.1815 -0.6391  2.5133
  985MOL0     H32917   5.680  10.193   6.308 -0.6328 -1.6972  1.7533
  985MOL0     H32918   5.490  10.166   6.548  0.0044 -1.4222  0.3006
  985MOL0     H32919   5.650  10.113   6.530 -3.0892 -2.9218  1.4610
  985MOL0     H32920   5.553  10.411   6.532  0.2387  2.1459  1.4705
  985MOL0     H32921   5.611  10.321   6.669  0.0750 -2.8204 -0.6418
  985MOL0     H32922   5.752  10.397   6.396 -1.5992 -0.9861 -0.0968
  985MOL0     H32923   5.833  10.305   6.527  1.9222  1.5783  0.1337
  985MOL0     H32924   5.747  10.590   6.571  1.8718  1.5780 -0.9630
  985MOL0     H32925   5.843  10.501   6.685  2.6042  1.7489 -0.5935
  985MOL0     H32926   6.066  10.418   6.466 -1.3596 -0.5971  2.3622
  985MOL0     H32927   6.291  10.562   6.337 -1.0686  1.8917 -2.3328
  985MOL0     H32928   6.290  10.730   6.365 -1.8626  0.0018 -0.9292
  985MOL0     H32929   6.369  10.710   6.595  0.5137  0.5241 -0.2940
  985MOL0     H32930   6.324  10.531   6.591 -2.1924 -0.0488 -2.7096
  985MOL0     H32931   6.524  10.683   6.415  0.0338 -0.2071 -1.5104
  985MOL0     H32932   6.491  10.515   6.410 -2.1335  2.3489 -2.6337
  985MOL0     H32933   6.592  10.504   6.662  0.3212  0.9397  1.0345
  985MOL0     H32934   6.647  10.656   6.632  1.0502  1.1714 -1.5871
  985MOL0     H32935   6.767  10.786   6.480 -0.1512  1.3675 -3.1120
  985MOL0     H32936   6.966  10.883   6.403  0.0312  0.0096 -4.3367
  985MOL0     H32937   7.295  10.735   5.936 -0.6474  0.1618  1.6009
  985MOL0     H32938   7.485  10.865   5.848 -0.8875  1.5652 -0.4458
  985MOL0     H32939   7.853  10.933   5.878 -0.4991 -0.8433  0.6483
  985MOL0     H32940   7.718  10.832   5.833 -1.5469 -0.1181  0.1632
  985MOL0     H32941   7.592  11.020   5.759 -0.2114 -1.4969  0.4654
  985MOL0     H32942   7.694  11.137   5.843 -2.4063  0.4699  0.1636
  985MOL0     H32943   7.837  10.960   5.638  0.0013 -0.5460  1.9539
  985MOL0     H32944   7.723  11.064   5.578  0.9139 -1.8712  0.4880
  985MOL0     H32945   7.968  11.147   5.736 -0.3854  1.2512 -0.6958
  985MOL0     H32946   7.837  11.268   5.701 -0.0751 -0.0036  0.1539
  985MOL0     H32947   7.966  11.307   5.522  0.8401  0.3802 -1.6725
  985MOL0     H32948   7.854  11.179   5.470 -0.9043 -0.3506  2.3293
  985MOL0     H32949   8.053  11.016   5.509 -1.0932 -0.4662 -0.0217
  985MOL0     H32950   8.072  11.134   5.384 -0.7628  0.7341  0.0649
  985MOL0     H32951   8.207  11.143   5.652  0.7930 -0.9955 -0.7683
  985MOL0     H32952   8.195  11.286   5.545 -0.6791  0.5749  0.3068
  985MOL0     H32953   8.281  11.009   5.470  0.4371 -0.1591  0.3174
  985MOL0     H32954   8.339  11.165   5.387  0.3334 -1.2917 -1.2803
  985MOL0     H32955   7.650  10.879   6.251  0.6318 -0.0851 -0.1168
  985MOL0     H32956   7.470  10.761   6.340  0.3374 -0.0071  0.1124
  985MOL0     H32957   7.122  10.500   6.286  1.0600  1.0304  0.3725
  985MOL0     H32958   6.921  10.399   6.415 -3.5675  0.7216  1.3122
  985MOL0     H32959   5.141  10.635   6.082 -1.8068  0.7649  1.6287
  985MOL0     H32960   4.904  10.669   6.082 -0.0378 -0.6200  1.1175
  985MOL0     H32961   4.505  10.695   6.067  2.0697 -0.3155 -0.5504
  985MOL0     H32962   4.267  10.751   6.023 -2.0730 -2.8236  1.7630
  985MOL0     H32963   4.061  10.615   5.663  0.1754  0.2473 -0.9042
  985MOL0     H32964   4.123  10.767   5.720 -0.9963 -0.4257 -0.4334
  985MOL0     H32965   3.905  10.796   5.847 -0.4252  0.1143 -0.3524
  985MOL0     H32966   3.838  10.658   5.760  0.0914 -1.3082  1.0957
  985MOL0     H32967   3.842  10.765   5.566 -0.4058 -0.6041  0.5951
  985MOL0     H32968   3.968  10.884   5.591  1.4013 -1.0905  0.3311
  985MOL0     H32969   3.699  10.905   5.742 -0.2976  1.3903  1.1426
  985MOL0     H32970   3.840  11.016   5.743 -0.7116  2.0355 -1.7673
  985MOL0     H32971   3.618  11.127   5.398  1.0300  1.4074  0.1666
  985MOL0     H32972   4.243  10.446   5.729 -0.0666 -1.3113  1.2280
  985MOL0     H32973   4.593  10.441   5.665  0.1895  0.0345 -0.6333
  985MOL0     H32974   4.531  10.308   5.783  0.8230  1.7889  1.8349
  985MOL0     H32975   4.443  10.348   5.635 -2.1151  1.7180  0.9437
  986MOL0     O32976   1.865   2.992   6.953 -0.4294 -0.0784 -0.1334
  986MOL0     C32977   1.830   2.931   6.852  0.6180  0.4548  1.1370
  986MOL0     O32978   1.903   2.902   6.751  0.1532  0.7433  0.1817
  986MOL0     C32979   2.041   2.935   6.747  0.1422 -0.3254 -0.2061
  986MOL0     C32980   2.089   3.067   6.754 -1.2495 -0.7326 -0.1216
  986MOL0     C32981   2.230   3.090   6.763  0.1608 -0.3111 -0.5090
  986MOL0     C32982   2.323   2.984   6.751  0.5313 -0.5706 -0.4729
  986MOL0     O32983   2.463   2.999   6.742  0.1063  0.1314 -0.2144
  986MOL0     C32984   2.524   3.131   6.716 -0.3995 -0.0500 -0.3707
  986MOL0     C32985   2.550   3.146   6.558  0.7707 -0.6627 -0.6283
  986MOL0     C32986   2.695   3.156   6.519  0.0212  0.0498 -0.4095
  986MOL0     C32987   2.761   3.287   6.574 -0.2747  0.0293 -0.5334
  986MOL0     C32988   2.905   3.304   6.516 -0.8864  0.4308  0.3143
  986MOL0     C32989   2.989   3.406   6.589 -0.3364  0.0039 -0.1562
  986MOL0     C32990   3.129   3.419   6.532 -0.2145 -0.3439 -0.5107
  986MOL0     C32991   3.127   3.480   6.391  0.9141  0.3170  0.7431
  986MOL0     N32992   3.260   3.521   6.346 -0.0763 -0.7148  0.4525
  986MOL0     C32993   3.348   3.606   6.421  0.3683 -0.1104  0.3031
  986MOL0     C32994   3.471   3.601   6.365 -0.0173 -0.4672 -0.4765
  986MOL0     C32995   3.580   3.691   6.404  0.2906 -0.2082  0.7195
  986MOL0     C32996   3.706   3.606   6.430 -0.3042  0.2780 -0.0924
  986MOL0     C32997   3.820   3.701   6.472 -0.1593 -0.0827 -0.1662
  986MOL0     C32998   3.947   3.625   6.509  0.6825 -0.0782 -0.4272
  986MOL0     O32999   4.016   3.707   6.604  0.1274  0.1931 -0.1859
  986MOL0     C33000   4.130   3.761   6.567 -0.3499 -0.2047  0.2059
  986MOL0     C33001   4.154   3.817   6.440  0.0971 -1.1041 -0.0498
  986MOL0     C33002   4.282   3.864   6.410 -0.7640 -0.6306  0.4890
  986MOL0     C33003   4.388   3.846   6.508  0.3906 -0.2726 -0.1492
  986MOL0     C33004   4.527   3.887   6.483  0.3789  0.3752 -0.3265
  986MOL0     O33005   4.555   3.918   6.347 -0.1203 -0.3245 -0.5981
  986MOL0     C33006   4.679   3.969   6.329  0.4377 -0.4062  0.3334
  986MOL0     C33007   4.733   4.079   6.392 -0.5815  0.1709 -0.3728
  986MOL0     C33008   4.859   4.131   6.367  0.2423  0.0874 -0.1139
  986MOL0     C33009   4.924   4.079   6.256  0.3569  0.0006 -0.2985
  986MOL0     O33010   5.035   4.134   6.202 -0.1895 -0.4639 -0.4766
  986MOL0     C33011   5.014   4.265   6.151 -0.6005  0.3148 -0.1295
  986MOL0     C33012   5.127   4.298   6.050 -0.0724  0.0947 -0.2939
  986MOL0     C33013   5.154   4.182   5.960 -0.2160  0.3391 -0.1093
  986MOL0     C33014   5.276   4.201   5.872 -0.4547  0.9102  0.7388
  986MOL0     C33015   5.341   4.072   5.817 -0.8309  0.9488 -0.2557
  986MOL0     C33016   5.230   3.990   5.748 -0.0492 -0.3508 -0.2448
  986MOL0     C33017   5.152   4.068   5.651  1.1221  0.1949  0.7866
  986MOL0     C33018   5.116   3.983   5.526 -0.6903 -0.2442  0.6393
  986MOL0    Cl33019   5.273   3.948   5.442  0.5219 -0.1624 -0.0233
  986MOL0     C33020   4.871   3.970   6.186  0.3043 -0.0466  0.5079
  986MOL0     C33021   4.746   3.915   6.222 -0.6288 -0.0242  0.5623
  986MOL0     O33022   4.607   3.888   6.574 -0.1975 -0.4649 -0.5726
  986MOL0     C33023   4.354   3.796   6.639  0.9506 -1.0058  0.0068
  986MOL0     C33024   4.227   3.763   6.670  0.7085 -0.3658 -0.0139
  986MOL0     N33025   3.453   3.511   6.264  0.4225 -0.5943 -0.2161
  986MOL0     N33026   3.329   3.469   6.242 -0.2708  0.7860 -1.1365
  986MOL0     C33027   2.282   2.855   6.729  0.0952  0.3696 -0.9320
  986MOL0     C33028   2.140   2.825   6.732  0.3597 -0.3058  0.1996
  986MOL0     C33029   1.689   2.900   6.833 -0.5335 -0.0584 -0.2050
  986MOL0     C33030   1.659   2.778   6.770  0.0771  0.0863 -0.1121
  986MOL0     C33031   1.533   2.725   6.748  0.3951  0.0653 -0.8022
  986MOL0     C33032   1.428   2.796   6.799  0.4489 -0.4675  0.6346
  986MOL0     O33033   1.296   2.756   6.784 -0.0610  0.5661 -0.7372
  986MOL0     C33034   1.247   2.618   6.798  0.3373  0.4602 -0.8658
  986MOL0     C33035   1.092   2.619   6.783  0.1507  1.2642 -0.7561
  986MOL0     C33036   1.034   2.674   6.655  0.2129  0.2606 -0.0155
  986MOL0     C33037   0.880   2.668   6.656  0.7257  0.0192 -0.0206
  986MOL0     C33038   0.839   2.530   6.675  0.5688  0.4002 -0.3153
  986MOL0     C33039   0.800   2.414   6.699 -0.5890 -0.2596  0.2808
  986MOL0     C33040   1.447   2.911   6.871  0.3667  0.1655  0.9458
  986MOL0     C33041   1.577   2.968   6.890 -0.3908 -0.0484 -0.1451
  986MOL0     C33042   1.581   3.100   6.967 -1.8343  0.2905  0.2072
  986MOL0     H33043   2.031   3.158   6.759  1.3589  1.1250 -1.3397
  986MOL0     H33044   2.274   3.188   6.779  0.4403 -0.6633  1.1154
  986MOL0     H33045   2.466   3.215   6.754 -0.3732  0.4659 -1.4259
  986MOL0     H33046   2.620   3.124   6.767 -0.9683 -1.4034  0.5649
  986MOL0     H33047   2.495   3.237   6.533  0.2637 -0.2914  1.6588
  986MOL0     H33048   2.492   3.066   6.509  0.1423 -0.4992 -0.1674
  986MOL0     H33049   2.703   3.172   6.411  1.1768  0.1075 -0.3295
  986MOL0     H33050   2.753   3.071   6.557  1.9760  2.4790  2.5037
  986MOL0     H33051   2.700   3.378   6.569 -0.2160  0.0421 -1.1197
  986MOL0     H33052   2.784   3.270   6.680  1.5541 -1.6452 -1.1411
  986MOL0     H33053   2.961   3.210   6.517 -0.0408  0.9184  1.9301
  986MOL0     H33054   2.888   3.334   6.412 -1.4121 -0.1296  0.2321
  986MOL0     H33055   2.932   3.499   6.583  0.7119  0.5812 -2.6402
  986MOL0     H33056   2.990   3.377   6.694 -1.6624  1.0310  0.1719
  986MOL0     H33057   3.181   3.324   6.546  0.9310  0.6421  2.7231
  986MOL0     H33058   3.198   3.475   6.595  2.4781 -3.7124 -0.1698
  986MOL0     H33059   3.094   3.392   6.335 -2.2862 -1.7949  5.3095
  986MOL0     H33060   3.060   3.566   6.383 -0.4350 -0.8871 -3.7207
  986MOL0     H33061   3.313   3.664   6.505 -1.5955  0.0627 -0.5756
  986MOL0     H33062   3.580   3.768   6.327  1.2257  1.4844  2.3514
  986MOL0     H33063   3.560   3.746   6.496  3.8240  1.0020  0.9249
  986MOL0     H33064   3.684   3.524   6.500 -0.0929 -2.0859 -2.6371
  986MOL0     H33065   3.733   3.552   6.339 -3.2744 -0.6582 -0.5347
  986MOL0     H33066   3.793   3.755   6.563  0.5240  1.5948 -0.9169
  986MOL0     H33067   3.842   3.777   6.396  1.0293  0.7018  0.9403
  986MOL0     H33068   3.992   3.593   6.414 -0.2461 -2.8174 -0.0469
  986MOL0     H33069   3.920   3.538   6.570 -1.0469  0.1963 -0.7358
  986MOL0     H33070   4.074   3.808   6.367 -0.4888 -2.8292  0.7457
  986MOL0     H33071   4.298   3.912   6.314 -2.5814 -1.0517 -0.0646
  986MOL0     H33072   4.675   4.127   6.470  0.0881 -0.8430  0.7836
  986MOL0     H33073   4.899   4.215   6.424 -0.1740  0.3601 -0.2167
  986MOL0     H33074   4.923   4.269   6.091  0.6631  1.1080 -2.0791
  986MOL0     H33075   5.011   4.338   6.232 -0.4586 -0.1186  0.2694
  986MOL0     H33076   5.094   4.384   5.992 -1.1425  0.2065  0.4447
  986MOL0     H33077   5.226   4.322   6.090  0.1784 -0.9622 -0.2393
  986MOL0     H33078   5.180   4.101   6.029 -1.0132 -1.1801 -1.4978
  986MOL0     H33079   5.063   4.159   5.903 -0.7667 -0.9648  1.2357
  986MOL0     H33080   5.355   4.243   5.935  1.8411 -0.9753 -0.7024
  986MOL0     H33081   5.258   4.280   5.798  1.8182 -1.5483 -2.7702
  986MOL0     H33082   5.391   4.014   5.894 -0.5204  0.9016 -0.4894
  986MOL0     H33083   5.421   4.084   5.743  0.0589  1.7538  0.7947
  986MOL0     H33084   5.285   3.916   5.691 -0.3356  0.5158 -1.6862
  986MOL0     H33085   5.163   3.943   5.821 -1.4903  2.4081  0.3790
  986MOL0     H33086   5.195   4.164   5.620  2.2005  0.2170  2.2455
  986MOL0     H33087   5.056   4.076   5.703 -0.8581 -0.5801 -2.4545
  986MOL0     H33088   5.057   3.893   5.546 -1.1747 -1.6040 -5.0623
  986MOL0     H33089   5.055   4.044   5.459  1.6658  1.1161 -0.4059
  986MOL0     H33090   4.921   3.924   6.101 -0.9844 -0.7267  0.0869
  986MOL0     H33091   4.717   3.828   6.165  2.5303 -0.7424 -0.1625
  986MOL0     H33092   4.429   3.793   6.717 -0.0569 -1.2180  0.9889
  986MOL0     H33093   4.193   3.737   6.770 -1.1336  0.3809 -0.3937
  986MOL0     H33094   2.351   2.771   6.729 -2.7014 -2.1113 -2.1395
  986MOL0     H33095   2.102   2.723   6.728 -1.9982  0.5011  0.5226
  986MOL0     H33096   1.741   2.731   6.716  0.3442  0.6857 -0.2426
  986MOL0     H33097   1.515   2.628   6.703  0.2163  0.4731 -1.6086
  986MOL0     H33098   1.279   2.576   6.893  1.0887  0.7294 -0.9986
  986MOL0     H33099   1.294   2.566   6.715  0.8826 -1.0363  0.3413
  986MOL0     H33100   1.054   2.681   6.865  0.5534  2.0545 -1.1608
  986MOL0     H33101   1.064   2.513   6.785  0.0324  1.2813 -1.4300
  986MOL0     H33102   1.079   2.619   6.572 -0.4108  0.1145 -0.2583
  986MOL0     H33103   1.065   2.779   6.652 -0.4708  0.5809  2.1089
  986MOL0     H33104   0.828   2.720   6.737 -0.9637 -1.8539  0.1692
  986MOL0     H33105   0.836   2.702   6.561 -1.6026  1.1847  1.3848
  986MOL0     H33106   0.763   2.314   6.701 -3.0821  0.4741 -1.9671
  986MOL0     H33107   1.358   2.965   6.902  0.1777 -0.6640  1.9254
  986MOL0     H33108   1.547   3.184   6.906 -1.5855  0.0586 -0.2476
  986MOL0     H33109   1.523   3.085   7.059 -1.6867 -1.3777  0.0502
  986MOL0     H33110   1.684   3.123   6.997 -2.5087 -0.3939  3.5156
  987MOL0     O33111   3.464   0.250  11.258 -0.4722 -0.0179  0.3770
  987MOL0     C33112   3.369   0.325  11.226  0.0027  0.7027  0.2547
  987MOL0     O33113   3.316   0.416  11.307 -0.0445  0.4711 -0.2334
  987MOL0     C33114   3.364   0.451  11.424  0.0874  0.3811 -0.4058
  987MOL0     C33115   3.374   0.365  11.531 -0.6196  0.3069  0.4152
  987MOL0     C33116   3.434   0.410  11.653  0.1302 -0.6250 -0.5456
  987MOL0     C33117   3.468   0.550  11.665 -0.5839  0.8474  1.2413
  987MOL0     O33118   3.509   0.588  11.792 -0.4474  1.0982  1.0129
  987MOL0     C33119   3.503   0.728  11.827 -0.7851  0.4727 -0.7057
  987MOL0     C33120   3.632   0.767  11.911 -0.0164 -0.3500 -0.2792
  987MOL0     C33121   3.745   0.787  11.808 -0.3756 -0.2676  0.4913
  987MOL0     C33122   3.886   0.777  11.874  0.5279 -0.7070  0.1942
  987MOL0     C33123   3.981   0.883  11.802 -0.0975  0.3872 -0.6073
  987MOL0     C33124   4.022   0.805  11.673  0.2809 -0.3292 -0.7144
  987MOL0     C33125   4.103   0.885  11.580 -0.6008  0.1422  0.9217
  987MOL0     C33126   4.166   0.798  11.470  0.5273 -0.1620 -0.5581
  987MOL0     N33127   4.255   0.694  11.531 -1.0179 -0.2187 -0.3344
  987MOL0     C33128   4.388   0.717  11.552  0.0907  0.8116 -0.0406
  987MOL0     C33129   4.436   0.601  11.600 -0.1440 -0.0926  0.0379
  987MOL0     C33130   4.576   0.575  11.658 -0.1606  0.1458  0.0386
  987MOL0     C33131   4.675   0.615  11.552 -0.1286  0.6054 -0.0974
  987MOL0     C33132   4.807   0.557  11.592 -0.0874  0.1069 -0.2688
  987MOL0     C33133   4.906   0.604  11.487  0.3045 -0.2415 -0.1359
  987MOL0     O33134   5.029   0.550  11.525  0.3224 -0.0038  0.8957
  987MOL0     C33135   5.143   0.574  11.450 -0.1804  0.4609 -0.0615
  987MOL0     C33136   5.141   0.597  11.312 -0.5096  0.2886 -0.5583
  987MOL0     C33137   5.261   0.638  11.249  0.3685 -0.0115 -0.1259
  987MOL0     C33138   5.384   0.637  11.317  0.2865 -0.2067 -0.3771
  987MOL0     C33139   5.519   0.679  11.257  0.0077 -0.0841  0.0384
  987MOL0     O33140   5.635   0.642  11.327 -0.7037  0.0938  0.1888
  987MOL0     C33141   5.759   0.701  11.288 -1.4467 -0.8243  0.0649
  987MOL0     C33142   5.771   0.834  11.250  0.0597 -0.3766 -0.6967
  987MOL0     C33143   5.892   0.886  11.204 -0.6091  0.2190  0.2872
  987MOL0     C33144   6.012   0.808  11.225  0.0069 -0.6675  0.1361
  987MOL0     O33145   6.137   0.842  11.185  1.3722 -0.2803  0.1706
  987MOL0     C33146   6.160   0.961  11.119 -0.3808 -0.4542  0.2131
  987MOL0     C33147   6.301   1.001  11.067 -0.5461 -0.3199  0.8951
  987MOL0     C33148   6.411   0.979  11.162 -0.3831  0.9174 -0.2229
  987MOL0     C33149   6.433   1.075  11.280 -0.0432 -0.3008  0.0564
  987MOL0     C33150   6.519   1.010  11.395  0.4916  0.0797 -0.5722
  987MOL0     C33151   6.634   1.113  11.440  0.4058  0.8028 -0.2298
  987MOL0     C33152   6.557   1.226  11.508 -0.0901  0.5129 -0.5660
  987MOL0     C33153   6.653   1.352  11.516 -0.0347 -0.2098 -0.0898
  987MOL0    Cl33154   6.629   1.444  11.366 -0.3079 -0.1419 -0.0592
  987MOL0     C33155   5.998   0.679  11.264 -0.0255  0.0341 -0.7462
  987MOL0     C33156   5.872   0.628  11.293  0.3778  0.5476  0.0045
  987MOL0     O33157   5.514   0.746  11.153  0.1906 -0.3475  0.3042
  987MOL0     C33158   5.381   0.590  11.455  0.0895 -0.8097 -0.1419
  987MOL0     C33159   5.263   0.568  11.523  0.1831  0.5611  0.3008
  987MOL0     N33160   4.331   0.505  11.604 -0.1635  0.1154 -0.1890
  987MOL0     N33161   4.223   0.566  11.572  0.4426  0.5297 -0.2370
  987MOL0     C33162   3.468   0.630  11.555  0.2194  0.0453  0.3728
  987MOL0     C33163   3.405   0.581  11.443 -0.5017 -0.9756  0.1971
  987MOL0     C33164   3.300   0.315  11.096  0.1775 -0.3966  0.6054
  987MOL0     C33165   3.170   0.377  11.074  0.0225  0.4885  0.0330
  987MOL0     C33166   3.110   0.377  10.950 -0.2285 -0.4443 -0.2275
  987MOL0     C33167   3.176   0.324  10.834 -0.4069 -0.4832  0.7579
  987MOL0     O33168   3.117   0.327  10.705  0.0874 -0.0343 -0.2771
  987MOL0     C33169   2.985   0.371  10.693 -0.2918  0.4975 -0.8426
  987MOL0     C33170   2.946   0.353  10.546  0.8245 -0.6254 -0.0966
  987MOL0     C33171   3.027   0.431  10.444 -0.0619  0.2821 -0.4038
  987MOL0     C33172   2.951   0.441  10.310 -0.0620 -1.1328 -0.0337
  987MOL0     C33173   2.832   0.533  10.322 -0.6128 -0.7436 -0.3497
  987MOL0     C33174   2.734   0.607  10.322 -0.4116 -0.2559  0.3477
  987MOL0     C33175   3.295   0.258  10.853  0.0858 -0.1603 -0.0580
  987MOL0     C33176   3.354   0.251  10.981 -0.7936 -0.6157 -0.7665
  987MOL0     C33177   3.495   0.191  10.980  0.3117  1.0289  0.2122
  987MOL0     H33178   3.332   0.267  11.513  0.5978 -0.0553 -0.5632
  987MOL0     H33179   3.433   0.343  11.739 -2.3626  1.2795  1.0608
  987MOL0     H33180   3.505   0.796  11.741 -1.9687  2.5901  0.8651
  987MOL0     H33181   3.413   0.740  11.888 -1.4483 -0.7066 -1.4088
  987MOL0     H33182   3.655   0.694  11.988 -2.2974  1.4098  2.2627
  987MOL0     H33183   3.614   0.860  11.965  1.7344 -1.3589  2.1843
  987MOL0     H33184   3.736   0.875  11.744 -0.9820 -0.3257  0.4937
  987MOL0     H33185   3.740   0.706  11.735 -2.0713  1.8354 -1.8898
  987MOL0     H33186   3.882   0.816  11.976  1.7329 -0.3762  0.1328
  987MOL0     H33187   3.930   0.677  11.884  0.7993 -0.6325 -0.2389
  987MOL0     H33188   3.925   0.976  11.789 -0.7286 -0.0528 -1.1303
  987MOL0     H33189   4.073   0.896  11.859 -1.1297  0.8595  1.0264
  987MOL0     H33190   4.070   0.713  11.708  0.5344  1.2584  3.7322
  987MOL0     H33191   3.931   0.775  11.619 -0.9096  1.4068  0.2215
  987MOL0     H33192   4.190   0.935  11.623  1.0005 -0.9166 -0.9579
  987MOL0     H33193   4.032   0.955  11.535 -0.6596  0.7377  1.9074
  987MOL0     H33194   4.081   0.755  11.416  0.2215 -0.0043 -0.2037
  987MOL0     H33195   4.206   0.864  11.392 -1.6206 -0.8823 -2.3911
  987MOL0     H33196   4.450   0.789  11.500  0.3976 -0.8039 -2.0248
  987MOL0     H33197   4.590   0.630  11.752 -4.5070  3.4573 -0.9301
  987MOL0     H33198   4.596   0.470  11.680  3.9575  0.6590 -0.4825
  987MOL0     H33199   4.641   0.571  11.458  0.4685  2.7820 -1.3831
  987MOL0     H33200   4.686   0.723  11.543  0.1554  0.4770 -1.5241
  987MOL0     H33201   4.810   0.448  11.596 -0.3031 -0.0390 -2.5668
  987MOL0     H33202   4.838   0.594  11.690 -2.0302 -3.8997  2.1217
  987MOL0     H33203   4.909   0.714  11.485  0.3722 -0.2485 -1.3406
  987MOL0     H33204   4.874   0.573  11.387 -1.9877  0.1398  0.4164
  987MOL0     H33205   5.049   0.604  11.256  0.6486  2.4178 -2.3498
  987MOL0     H33206   5.260   0.677  11.147 -1.2314  2.0189  0.5910
  987MOL0     H33207   5.689   0.904  11.238  1.4908  1.7736  1.2059
  987MOL0     H33208   5.895   0.983  11.156  0.6635 -0.5140 -1.2322
  987MOL0     H33209   6.094   0.955  11.032 -1.8796  0.3481  1.2514
  987MOL0     H33210   6.123   1.048  11.175 -0.9222  0.3430 -1.3223
  987MOL0     H33211   6.319   0.940  10.979  1.6692 -0.5027  1.4272
  987MOL0     H33212   6.314   1.102  11.028  0.7703 -0.6320  0.4947
  987MOL0     H33213   6.372   0.895  11.220  0.0341  2.8817  3.1318
  987MOL0     H33214   6.502   0.960  11.104 -0.1062 -0.3191  0.6007
  987MOL0     H33215   6.341   1.115  11.323 -0.6802  0.4353 -1.8565
  987MOL0     H33216   6.482   1.164  11.238  0.1952  0.3888  1.7029
  987MOL0     H33217   6.579   0.929  11.351 -0.8007  0.3585 -3.0490
  987MOL0     H33218   6.452   0.982  11.476 -2.0191  2.7232 -1.5554
  987MOL0     H33219   6.702   1.061  11.508 -0.0674 -1.1859 -1.2127
  987MOL0     H33220   6.701   1.145  11.360  2.2091  1.7707  1.5738
  987MOL0     H33221   6.536   1.192  11.610 -2.1418  1.9120 -0.4630
  987MOL0     H33222   6.458   1.250  11.469 -0.5004  0.1474  0.2249
  987MOL0     H33223   6.627   1.403  11.610 -0.7028 -0.1842 -0.2789
  987MOL0     H33224   6.756   1.320  11.529 -0.0981 -0.7093 -0.7472
  987MOL0     H33225   6.092   0.625  11.268 -0.5320 -0.8184  1.3978
  987MOL0     H33226   5.859   0.524  11.319 -1.0754  0.1330 -2.1022
  987MOL0     H33227   5.467   0.599  11.522 -0.3645 -2.5098  0.7491
  987MOL0     H33228   5.256   0.544  11.628 -0.8590  0.4240  0.2124
  987MOL0     H33229   3.508   0.730  11.540 -1.0908  0.6635  0.9177
  987MOL0     H33230   3.399   0.650  11.360  4.6476 -1.7635 -1.1948
  987MOL0     H33231   3.105   0.432  11.141 -1.5462  0.3956 -1.3438
  987MOL0     H33232   3.015   0.429  10.944  1.1105  2.1692 -0.1661
  987MOL0     H33233   2.974   0.477  10.715 -2.5558  0.4500 -1.5295
  987MOL0     H33234   2.923   0.316  10.764  0.8755  0.6144  0.3053
  987MOL0     H33235   2.841   0.382  10.537  0.5308 -2.1486 -2.3866
  987MOL0     H33236   2.947   0.247  10.518 -1.0448 -0.8083  0.3482
  987MOL0     H33237   3.125   0.385  10.428 -0.1880 -0.3277  0.4791
  987MOL0     H33238   3.043   0.533  10.479  3.5616  0.7639 -2.9604
  987MOL0     H33239   3.025   0.472  10.235  0.8253  1.8198  1.8918
  987MOL0     H33240   2.926   0.344  10.267  2.9227 -1.1287 -2.1087
  987MOL0     H33241   2.635   0.648  10.310  0.1523  0.4942 -2.2145
  987MOL0     H33242   3.339   0.221  10.761  3.5994  4.0659 -0.4003
  987MOL0     H33243   3.520   0.151  10.882  2.2133 -1.8697  1.7233
  987MOL0     H33244   3.565   0.271  11.007 -0.3937  2.0230 -0.8372
  987MOL0     H33245   3.515   0.114  11.055  1.4210  0.8457 -0.2540
  988MOL0     O33246   7.559   6.325   1.520 -0.6137  0.4722  0.1794
  988MOL0     C33247   7.509   6.328   1.404  0.2502 -0.6234 -0.9645
  988MOL0     O33248   7.590   6.345   1.297  0.1405  0.6158 -0.0001
  988MOL0     C33249   7.722   6.361   1.313 -0.3253  0.0225  0.2603
  988MOL0     C33250   7.800   6.277   1.399  0.3358  0.4638 -0.4353
  988MOL0     C33251   7.935   6.296   1.406  0.1464  0.3305  0.6133
  988MOL0     C33252   7.994   6.400   1.335  0.5296 -0.7533  0.3942
  988MOL0     O33253   8.135   6.412   1.355  0.2885  0.5558 -0.1314
  988MOL0     C33254   8.211   6.477   1.257  0.9147  0.1137 -0.4249
  988MOL0     C33255   8.361   6.445   1.278  0.1709 -0.4035  1.2648
  988MOL0     C33256   8.452   6.535   1.193  0.9356  0.7081 -0.2241
  988MOL0     C33257   8.445   6.500   1.041  0.7695 -0.4146 -0.0515
  988MOL0     C33258   8.531   6.589   0.949 -0.1929  0.3293 -0.6093
  988MOL0     C33259   8.689   6.558   0.958 -0.7147  0.0707  0.5758
  988MOL0     C33260   8.762   6.667   0.888 -0.9073 -0.1718 -0.4877
  988MOL0     C33261   8.914   6.637   0.889  0.0784  0.2570 -0.6198
  988MOL0     N33262   8.996   6.749   0.838  0.1978  0.2332  0.4611
  988MOL0     C33263   9.062   6.743   0.720  0.1819 -1.3276  0.1880
  988MOL0     C33264   9.129   6.856   0.705 -0.5309 -1.3248 -0.1746
  988MOL0     C33265   9.220   6.868   0.589  0.7470 -0.6352  0.3907
  988MOL0     C33266   9.258   7.010   0.554 -0.4475 -0.2493 -0.1606
  988MOL0     C33267   9.378   7.046   0.648 -0.1421  0.5657  0.0225
  988MOL0     C33268   9.394   7.202   0.665  0.2542  0.1323  0.2341
  988MOL0     O33269   9.436   7.253   0.537  0.3203 -0.4055  0.6513
  988MOL0     C33270   9.554   7.326   0.527 -0.1271 -0.6630 -0.5233
  988MOL0     C33271   9.591   7.394   0.410  0.0824 -0.3797  0.2229
  988MOL0     C33272   9.705   7.465   0.395  0.3009 -0.3125 -0.4009
  988MOL0     C33273   9.795   7.499   0.500  0.6684 -0.5641  0.1938
  988MOL0     C33274   9.922   7.572   0.485  0.8086  0.6128 -0.3160
  988MOL0     O33275  10.007   7.565   0.593 -0.1434 -0.4694  0.2920
  988MOL0     C33276  10.120   7.643   0.583  0.0508 -0.3564  0.6244
  988MOL0     C33277  10.116   7.780   0.595 -0.5124 -0.3764  0.4766
  988MOL0     C33278  10.233   7.852   0.589  0.0633 -0.9710 -0.5429
  988MOL0     C33279  10.355   7.798   0.552 -0.3966  0.2172  0.5189
  988MOL0     O33280  10.463   7.878   0.523 -0.2489 -0.0401  0.5173
  988MOL0     C33281  10.589   7.852   0.571 -1.1243 -0.3035 -0.1906
  988MOL0     C33282  10.689   7.940   0.495 -0.0690  0.3008  0.7002
  988MOL0     C33283  10.692   8.083   0.533 -0.1630  0.4816 -0.1839
  988MOL0     C33284  10.821   8.151   0.480  0.6464  0.0448  0.2592
  988MOL0     C33285  10.836   8.297   0.534  0.3117  0.5559 -0.0457
  988MOL0     C33286  10.974   8.353   0.501  0.6451 -0.3812 -0.1669
  988MOL0     C33287  10.992   8.483   0.561 -0.2782 -0.2236 -0.1863
  988MOL0     C33288  11.131   8.533   0.510  0.3429 -0.1370 -0.2409
  988MOL0    Cl33289  11.273   8.423   0.527  0.1584 -0.4160 -0.3485
  988MOL0     C33290  10.359   7.659   0.541  0.3062 -0.9273  0.1941
  988MOL0     C33291  10.243   7.583   0.554  0.3954 -0.2582 -0.2383
  988MOL0     O33292   9.938   7.638   0.385 -0.1328  0.7017  0.1309
  988MOL0     C33293   9.763   7.427   0.624 -0.1086 -0.4984  0.2186
  988MOL0     C33294   9.642   7.351   0.635 -0.2289 -0.1381  0.0400
  988MOL0     N33295   9.112   6.923   0.826 -0.3258  0.3212 -0.2062
  988MOL0     N33296   9.030   6.862   0.904 -0.3084 -0.4518 -0.2335
  988MOL0     C33297   7.921   6.487   1.252  0.1417  0.7744  0.0348
  988MOL0     C33298   7.779   6.465   1.237 -0.2117 -0.1774  0.4933
  988MOL0     C33299   7.360   6.327   1.376 -0.5126  0.5846  0.0549
  988MOL0     C33300   7.309   6.375   1.255 -0.1271  0.3257  0.7503
  988MOL0     C33301   7.176   6.384   1.217  0.0108 -1.1716 -0.1100
  988MOL0     C33302   7.078   6.354   1.318  0.3916 -0.3767  0.3750
  988MOL0     O33303   6.943   6.371   1.297 -0.4439 -0.5353 -0.4102
  988MOL0     C33304   6.896   6.425   1.170 -0.1239 -0.0011 -0.5838
  988MOL0     C33305   6.742   6.426   1.156  0.6140 -0.3433  0.0098
  988MOL0     C33306   6.689   6.464   1.015 -0.3018  0.3579  0.2748
  988MOL0     C33307   6.668   6.619   1.010  0.4315  0.3396 -0.0035
  988MOL0     C33308   6.545   6.666   1.089  0.1412 -0.6916  0.6887
  988MOL0     C33309   6.435   6.701   1.121  0.7995 -0.5251  0.1376
  988MOL0     C33310   7.118   6.308   1.445 -0.0089  0.5066 -0.0023
  988MOL0     C33311   7.257   6.293   1.479  0.4901 -1.0970  0.4163
  988MOL0     C33312   7.291   6.255   1.627 -0.3743 -0.2630  0.0853
  988MOL0     H33313   7.756   6.195   1.454  2.6937 -0.7382 -0.2552
  988MOL0     H33314   7.987   6.224   1.469 -0.7966 -1.3270 -0.4383
  988MOL0     H33315   8.181   6.440   1.158 -1.3578  0.3887  0.1072
  988MOL0     H33316   8.190   6.585   1.262 -1.3099 -0.3152  1.1376
  988MOL0     H33317   8.388   6.340   1.268 -0.1577 -0.3585 -0.5994
  988MOL0     H33318   8.382   6.452   1.385  0.3264 -2.0479  1.3718
  988MOL0     H33319   8.555   6.525   1.227  1.5741 -2.6230 -2.6004
  988MOL0     H33320   8.432   6.642   1.203  1.6135  0.8000  0.2017
  988MOL0     H33321   8.470   6.395   1.020  1.2004 -0.3336  0.0422
  988MOL0     H33322   8.343   6.512   1.004  1.0257  0.2076 -0.5702
  988MOL0     H33323   8.504   6.585   0.843  2.8481  0.2888 -1.4813
  988MOL0     H33324   8.513   6.695   0.968 -2.8184  0.3170 -2.5508
  988MOL0     H33325   8.726   6.573   1.059 -0.2497 -0.1848  0.4448
  988MOL0     H33326   8.695   6.458   0.915 -0.5119  0.7632 -1.1160
  988MOL0     H33327   8.749   6.758   0.947 -0.2508 -0.7080  0.5269
  988MOL0     H33328   8.731   6.678   0.784  1.5617 -3.0156 -1.6879
  988MOL0     H33329   8.944   6.609   0.991  1.7169 -0.2434 -1.2140
  988MOL0     H33330   8.931   6.551   0.825 -1.5327 -0.6177  0.0624
  988MOL0     H33331   9.048   6.663   0.647 -1.0294 -0.9337 -0.0406
  988MOL0     H33332   9.309   6.806   0.601  2.7106  2.0047  0.3444
  988MOL0     H33333   9.167   6.825   0.503  1.0659  0.0680 -0.1793
  988MOL0     H33334   9.280   7.006   0.447 -1.8102 -0.2859 -0.4555
  988MOL0     H33335   9.181   7.086   0.572 -0.6887  0.2125 -2.7770
  988MOL0     H33336   9.470   7.008   0.602  0.7962  1.7158  0.9184
  988MOL0     H33337   9.371   7.002   0.748  0.8669  0.3625  0.0147
  988MOL0     H33338   9.475   7.219   0.736  0.4008  0.9986 -0.1328
  988MOL0     H33339   9.307   7.247   0.714 -1.1283 -0.8246 -1.2327
  988MOL0     H33340   9.517   7.379   0.331 -0.6457 -1.7215  1.1201
  988MOL0     H33341   9.717   7.507   0.296  1.9965 -0.6847 -0.3855
  988MOL0     H33342  10.015   7.816   0.616  0.0996  2.0005 -0.3861
  988MOL0     H33343  10.239   7.959   0.604  0.5238 -1.1722  0.8598
  988MOL0     H33344  10.599   7.864   0.679  2.9435 -0.2063 -0.4042
  988MOL0     H33345  10.622   7.750   0.553  1.3772  0.7902 -2.5325
  988MOL0     H33346  10.792   7.905   0.506  0.4202  1.4960  0.1432
  988MOL0     H33347  10.661   7.933   0.389 -0.4412 -2.2252  0.9181
  988MOL0     H33348  10.597   8.128   0.502 -0.5569  1.4360  2.1757
  988MOL0     H33349  10.702   8.092   0.642  0.3852 -1.1233 -0.0705
  988MOL0     H33350  10.817   8.153   0.371  2.0854  4.2020  0.1333
  988MOL0     H33351  10.910   8.095   0.509 -0.6335 -3.1806 -1.4564
  988MOL0     H33352  10.835   8.286   0.643  0.5827 -0.6457 -0.1516
  988MOL0     H33353  10.756   8.360   0.495  0.8086  0.9330 -0.4838
  988MOL0     H33354  11.045   8.276   0.530  0.5147 -0.8693 -1.1005
  988MOL0     H33355  10.987   8.366   0.393  1.5472  0.7099  0.0578
  988MOL0     H33356  10.987   8.478   0.670 -1.1393 -0.6457 -0.2352
  988MOL0     H33357  10.919   8.562   0.540  1.6100  1.6879  0.0363
  988MOL0     H33358  11.119   8.561   0.405 -1.2370  0.4225  0.0731
  988MOL0     H33359  11.153   8.628   0.558  2.5320 -1.6449  2.0037
  988MOL0     H33360  10.454   7.608   0.532  0.9732  0.0795  1.2863
  988MOL0     H33361  10.246   7.475   0.547 -1.9961 -0.3106 -1.4211
  988MOL0     H33362   9.813   7.434   0.720  0.2474 -1.3830  0.1045
  988MOL0     H33363   9.652   7.290   0.724 -1.7001 -0.5147 -0.0235
  988MOL0     H33364   7.966   6.563   1.189  1.8134 -0.5421 -0.4327
  988MOL0     H33365   7.713   6.512   1.165  0.6243  0.9720  0.4572
  988MOL0     H33366   7.383   6.412   1.184  0.2027 -0.8440  0.4639
  988MOL0     H33367   7.159   6.403   1.112 -0.4069  2.3595  0.4877
  988MOL0     H33368   6.947   6.368   1.093 -0.7661 -1.8718  0.3274
  988MOL0     H33369   6.937   6.527   1.169 -0.7236  0.2404 -1.1089
  988MOL0     H33370   6.703   6.499   1.229  1.3176  1.5917 -1.4539
  988MOL0     H33371   6.702   6.330   1.189  0.9571  0.5072  3.2616
  988MOL0     H33372   6.589   6.421   1.003 -0.7421  1.3056  0.4858
  988MOL0     H33373   6.754   6.432   0.932 -0.5294 -0.4374  0.3907
  988MOL0     H33374   6.763   6.666   1.036  1.4463 -0.3173 -2.2309
  988MOL0     H33375   6.654   6.639   0.903  2.4349 -0.0872 -0.3858
  988MOL0     H33376   6.337   6.718   1.160 -0.1729 -1.3707 -1.8139
  988MOL0     H33377   7.049   6.297   1.528 -0.0249  0.5031 -0.0160
  988MOL0     H33378   7.291   6.344   1.690 -0.0594  0.2905 -0.6713
  988MOL0     H33379   7.213   6.184   1.654 -0.3226  0.5214  2.5163
  988MOL0     H33380   7.391   6.213   1.638  0.9426  2.2790 -1.2448
  989MOL0     O33381   8.318  11.253   1.304  0.4602  0.0969  0.0743
  989MOL0     C33382   8.303  11.364   1.354  0.8999  0.0513  0.2730
  989MOL0     O33383   8.402  11.450   1.384 -0.3609  0.2326 -1.2157
  989MOL0     C33384   8.533  11.411   1.366 -0.2225  1.1544  0.2835
  989MOL0     C33385   8.584  11.366   1.241  0.0088 -0.1608 -0.6679
  989MOL0     C33386   8.720  11.343   1.236 -0.1282  0.0467  0.1783
  989MOL0     C33387   8.802  11.353   1.345  0.3658 -0.8537 -0.5267
  989MOL0     O33388   8.938  11.316   1.334  0.3044  0.4959 -0.3303
  989MOL0     C33389   9.047  11.381   1.408 -0.0275 -1.1239 -0.0219
  989MOL0     C33390   9.053  11.532   1.379 -0.6659 -0.4291 -0.0570
  989MOL0     C33391   9.042  11.557   1.226 -0.3777 -0.3444  0.5731
  989MOL0     C33392   9.032  11.702   1.190 -0.3546  0.0002  0.2683
  989MOL0     C33393   9.026  11.712   1.042 -0.2125 -0.3086  0.5124
  989MOL0     C33394   8.979  11.853   1.013  0.0746  0.0498 -0.1111
  989MOL0     C33395   8.997  11.891   0.870 -0.0503  0.1426  0.2758
  989MOL0     C33396   9.135  11.906   0.811  0.0753 -0.1640  0.5800
  989MOL0     N33397   9.232  11.984   0.890  0.0066 -0.5861 -0.2684
  989MOL0     C33398   9.342  11.937   0.961 -0.9514  0.5069  0.6070
  989MOL0     C33399   9.377  12.035   1.043 -0.8390 -0.0636 -0.3801
  989MOL0     C33400   9.501  12.042   1.136  0.8689  0.1080  0.5151
  989MOL0     C33401   9.624  12.066   1.055 -0.2903  0.9467  0.1176
  989MOL0     C33402   9.629  12.206   1.006  0.1079 -0.0630  0.6165
  989MOL0     C33403   9.759  12.261   0.956  0.4417  0.9796  0.4476
  989MOL0     O33404   9.861  12.251   1.065  0.3748  0.1633  0.0265
  989MOL0     C33405   9.987  12.292   1.047  0.7697  0.1139  0.4373
  989MOL0     C33406  10.028  12.370   0.938  0.6151 -0.3641 -0.4143
  989MOL0     C33407  10.158  12.403   0.925 -0.0260 -0.3904 -0.2717
  989MOL0     C33408  10.248  12.375   1.032 -0.9382 -0.3812 -0.1641
  989MOL0     C33409  10.385  12.424   1.013  0.0627 -0.5135 -0.8496
  989MOL0     O33410  10.411  12.490   0.892 -0.5449 -0.3039  0.2231
  989MOL0     C33411  10.529  12.573   0.882  0.2223  0.2798  0.1842
  989MOL0     C33412  10.580  12.648   0.982  0.2701  0.8772 -0.6491
  989MOL0     C33413  10.673  12.742   0.950 -0.9846  0.3452 -0.0936
  989MOL0     C33414  10.735  12.743   0.820 -0.3355 -0.7071  0.3254
  989MOL0     O33415  10.823  12.844   0.781  0.1036  0.1357  0.5118
  989MOL0     C33416  10.925  12.808   0.688  0.1825 -0.3341  0.3299
  989MOL0     C33417  11.052  12.874   0.733  0.1039 -0.1589  0.1529
  989MOL0     C33418  11.088  12.858   0.882 -0.0493  0.2307 -0.1776
  989MOL0     C33419  11.198  12.946   0.916 -1.3221 -0.4238  0.5886
  989MOL0     C33420  11.178  13.095   0.905  0.2770 -0.0298  0.0943
  989MOL0     C33421  11.288  13.181   0.962  0.4528 -0.9380  0.0903
  989MOL0     C33422  11.243  13.329   0.958 -0.3927  0.1709  0.3103
  989MOL0     C33423  11.343  13.415   1.033 -0.9951 -0.3677 -0.6439
  989MOL0    Cl33424  11.497  13.424   0.948  0.0529 -0.2448 -0.9125
  989MOL0     C33425  10.693  12.651   0.725  0.2669  0.1227 -0.3271
  989MOL0     C33426  10.586  12.580   0.758 -1.3535  1.1973 -0.5513
  989MOL0     O33427  10.472  12.390   1.094  0.4485  0.8779  0.6779
  989MOL0     C33428  10.206  12.306   1.150  1.0102  0.1997  0.6744
  989MOL0     C33429  10.072  12.266   1.156  0.6544 -0.4433  0.0165
  989MOL0     N33430   9.295  12.143   1.023 -0.5491 -0.3367  0.2808
  989MOL0     N33431   9.205  12.114   0.937  0.0150  0.2850  0.7656
  989MOL0     C33432   8.743  11.380   1.468 -0.5689  0.9705  1.1443
  989MOL0     C33433   8.612  11.410   1.477  0.4141 -0.0795 -0.2084
  989MOL0     C33434   8.167  11.403   1.390 -0.1412 -0.0200  1.2633
  989MOL0     C33435   8.149  11.540   1.441 -0.2362  0.2016 -0.3018
  989MOL0     C33436   8.019  11.588   1.474 -0.5152 -0.0814 -0.3760
  989MOL0     C33437   7.912  11.507   1.463 -0.1620 -0.4526  1.2275
  989MOL0     O33438   7.791  11.553   1.484  0.5547 -0.1514  0.1693
  989MOL0     C33439   7.749  11.685   1.441  0.4750  0.6325 -0.2359
  989MOL0     C33440   7.605  11.699   1.489  0.5212 -0.4098  0.2082
  989MOL0     C33441   7.513  11.611   1.413  1.2487  0.0318  0.5056
  989MOL0     C33442   7.479  11.666   1.272  0.9049 -0.3945 -0.0996
  989MOL0     C33443   7.409  11.803   1.274 -0.6623  0.2667  0.0548
  989MOL0     C33444   7.356  11.918   1.276  0.4051  0.2273 -0.0134
  989MOL0     C33445   7.924  11.373   1.419  0.5621 -0.6563 -0.1196
  989MOL0     C33446   8.049  11.323   1.375 -0.2770 -0.3401 -0.1633
  989MOL0     C33447   8.045  11.195   1.299  0.2268  0.1088  0.5262
  989MOL0     H33448   8.510  11.349   1.164 -1.0077 -1.2926  0.5146
  989MOL0     H33449   8.755  11.300   1.143  0.0325  0.5946 -0.0155
  989MOL0     H33450   9.040  11.366   1.516 -0.5086  0.7119  0.2384
  989MOL0     H33451   9.138  11.326   1.383  0.5092 -0.0578 -0.4504
  989MOL0     H33452   9.140  11.578   1.427 -0.7924 -0.0211 -0.2118
  989MOL0     H33453   8.968  11.582   1.426 -0.2569  0.8368 -0.6103
  989MOL0     H33454   8.962  11.505   1.172 -0.5175 -0.0383  0.4822
  989MOL0     H33455   9.139  11.523   1.187 -0.5513 -0.3739  0.1567
  989MOL0     H33456   8.939  11.735   1.239 -0.1887  0.3643  0.3427
  989MOL0     H33457   9.118  11.756   1.231 -0.5404  1.0209 -0.6361
  989MOL0     H33458   9.127  11.690   1.006 -1.0969 -2.6577 -0.7184
  989MOL0     H33459   8.948  11.647   1.001 -0.3460  0.0929  0.1288
  989MOL0     H33460   8.873  11.858   1.038  0.5261 -0.7414  2.2301
  989MOL0     H33461   9.035  11.926   1.073 -0.3551  1.0932 -0.9477
  989MOL0     H33462   8.955  11.991   0.855 -1.9855 -0.9061 -1.9307
  989MOL0     H33463   8.940  11.823   0.806 -1.5987 -2.7428  4.2678
  989MOL0     H33464   9.183  11.811   0.784  0.0244 -0.1736  0.5220
  989MOL0     H33465   9.125  11.964   0.719  1.2973 -1.7439 -0.6306
  989MOL0     H33466   9.396  11.847   0.932 -1.2620  1.5464 -3.9433
  989MOL0     H33467   9.476  12.114   1.214 -1.4793  0.9580 -0.9338
  989MOL0     H33468   9.504  11.946   1.187 -3.7876 -1.3050 -1.3425
  989MOL0     H33469   9.723  12.043   1.095  0.6319  0.2919 -2.3743
  989MOL0     H33470   9.613  12.000   0.969 -0.1827  0.1038  0.7354
  989MOL0     H33471   9.591  12.269   1.086  1.0525 -0.2388  1.2207
  989MOL0     H33472   9.566  12.206   0.917 -0.7330 -0.5905  1.1920
  989MOL0     H33473   9.737  12.368   0.942  0.1101  0.8384 -0.1296
  989MOL0     H33474   9.783  12.215   0.860 -3.1116 -2.0588  0.8051
  989MOL0     H33475   9.954  12.404   0.866 -1.6996 -1.0390  1.5204
  989MOL0     H33476  10.178  12.462   0.836 -0.4513  1.1294  0.5976
  989MOL0     H33477  10.546  12.647   1.085  1.2876  2.1089 -0.2701
  989MOL0     H33478  10.708  12.818   1.019 -0.1516  0.4952 -0.6586
  989MOL0     H33479  10.936  12.699   0.678 -1.3185 -0.3092 -2.7268
  989MOL0     H33480  10.904  12.854   0.591  0.2514 -0.9630  0.0100
  989MOL0     H33481  11.133  12.826   0.677 -1.5296 -1.0080 -1.6417
  989MOL0     H33482  11.051  12.976   0.693 -1.1170 -0.2689 -0.1500
  989MOL0     H33483  11.008  12.879   0.954  1.0729 -0.8036  1.4509
  989MOL0     H33484  11.117  12.755   0.906 -0.4144  0.2777  0.4980
  989MOL0     H33485  11.285  12.928   0.852 -1.6683  0.8801 -0.2830
  989MOL0     H33486  11.221  12.925   1.021 -1.7162 -1.9050  0.3958
  989MOL0     H33487  11.093  13.117   0.970  0.0938  0.6007 -0.3499
  989MOL0     H33488  11.149  13.129   0.805 -0.3407  0.3872  0.4060
  989MOL0     H33489  11.311  13.157   1.066  0.8719  0.5182  0.3548
  989MOL0     H33490  11.372  13.153   0.897 -1.2751 -1.3525 -2.0598
  989MOL0     H33491  11.141  13.324   0.998 -0.7208 -2.4577 -0.6146
  989MOL0     H33492  11.247  13.358   0.852 -3.1066 -2.2803 -0.6063
  989MOL0     H33493  11.317  13.520   1.054 -0.4847  0.1027 -2.1924
  989MOL0     H33494  11.362  13.367   1.129 -0.2760  0.6245 -0.2766
  989MOL0     H33495  10.731  12.640   0.625  0.7325 -1.3322 -0.0045
  989MOL0     H33496  10.553  12.509   0.683 -0.5728  0.8021 -0.5294
  989MOL0     H33497  10.264  12.294   1.241  1.0994 -0.4349  0.5326
  989MOL0     H33498  10.030  12.218   1.243 -1.7950  1.0555 -0.2302
  989MOL0     H33499   8.803  11.368   1.558  1.8096 -4.8258 -0.7051
  989MOL0     H33500   8.559  11.446   1.565 -2.2693  1.6574 -2.3573
  989MOL0     H33501   8.243  11.593   1.457  1.0072 -2.2636  1.2739
  989MOL0     H33502   8.001  11.689   1.509 -1.5245 -0.8443  1.4401
  989MOL0     H33503   7.757  11.713   1.336 -0.7653  0.4261 -0.3994
  989MOL0     H33504   7.807  11.760   1.496 -0.0679  0.9704 -0.1105
  989MOL0     H33505   7.575  11.804   1.493  1.2794 -0.2239  2.0951
  989MOL0     H33506   7.600  11.668   1.594 -0.5477 -1.2368 -0.0741
  989MOL0     H33507   7.422  11.596   1.471  1.8518 -0.3055  1.3735
  989MOL0     H33508   7.554  11.511   1.395  1.5217  0.5450 -2.1591
  989MOL0     H33509   7.568  11.679   1.211  1.7173  0.6655  1.2476
  989MOL0     H33510   7.407  11.602   1.220  0.5205  0.6920 -0.9335
  989MOL0     H33511   7.315  12.017   1.277  0.6285  0.3390 -0.9371
  989MOL0     H33512   7.839  11.306   1.413  1.0274 -1.2586 -0.0813
  989MOL0     H33513   7.945  11.153   1.281  1.8656 -3.0065 -2.3060
  989MOL0     H33514   8.095  11.198   1.202 -1.3532 -0.2549 -0.3338
  989MOL0     H33515   8.090  11.121   1.366 -0.1287 -0.0752  0.5676
  990MOL0     O33516   7.486   5.682   1.592  0.2688 -1.0173  0.1798
  990MOL0     C33517   7.434   5.784   1.635  0.5288 -0.0969  0.3867
  990MOL0     O33518   7.477   5.915   1.606  0.8242 -0.0303 -0.9544
  990MOL0     C33519   7.616   5.925   1.583  0.6597 -0.3706 -0.0341
  990MOL0     C33520   7.689   5.859   1.487 -0.2939  0.4155 -0.3580
  990MOL0     C33521   7.832   5.871   1.489  0.0181  0.2485  0.3002
  990MOL0     C33522   7.899   5.961   1.577 -0.9150 -1.0561  0.2530
  990MOL0     O33523   8.034   5.995   1.568  0.2157 -0.9564  0.2616
  990MOL0     C33524   8.127   5.916   1.498 -0.6255 -0.1605 -0.1013
  990MOL0     C33525   8.266   5.943   1.549  0.4330  0.2782 -0.4827
  990MOL0     C33526   8.286   6.094   1.528 -0.2768  0.5236  0.5377
  990MOL0     C33527   8.426   6.142   1.543  0.9488 -0.5615  1.0004
  990MOL0     C33528   8.521   6.089   1.435  0.4145 -0.0943  0.2546
  990MOL0     C33529   8.654   6.156   1.399  0.3974  0.8810 -0.3088
  990MOL0     C33530   8.728   6.203   1.530  0.2070  0.7464  0.4452
  990MOL0     C33531   8.873   6.243   1.514  0.1438  0.1188 -0.3106
  990MOL0     N33532   8.881   6.365   1.424 -0.9524 -0.5743  0.2967
  990MOL0     C33533   8.821   6.489   1.443  0.2112 -0.3102  0.0492
  990MOL0     C33534   8.851   6.567   1.337  0.7280 -0.0544 -0.0775
  990MOL0     C33535   8.795   6.705   1.321 -0.0874  0.5773  0.2237
  990MOL0     C33536   8.906   6.812   1.313  0.0005  0.4506 -0.1983
  990MOL0     C33537   8.830   6.947   1.283 -0.2259 -0.1906  0.4068
  990MOL0     C33538   8.914   7.052   1.211  0.1078  0.6777 -0.4674
  990MOL0     O33539   9.041   7.062   1.273 -0.2709  0.6770  0.9967
  990MOL0     C33540   9.133   7.146   1.218 -0.1666  0.0024  0.9163
  990MOL0     C33541   9.100   7.267   1.150  0.5225  0.9368 -0.8644
  990MOL0     C33542   9.200   7.347   1.092  0.2782  0.7529  0.9929
  990MOL0     C33543   9.327   7.296   1.082  0.5341  0.7868 -0.3186
  990MOL0     C33544   9.425   7.375   1.014  0.2245 -0.6863 -0.0694
  990MOL0     O33545   9.400   7.507   1.009  0.0526  0.6397 -0.2696
  990MOL0     C33546   9.507   7.578   0.975 -0.3050 -0.7066  0.3279
  990MOL0     C33547   9.569   7.661   1.072  0.3190 -1.2165 -0.3453
  990MOL0     C33548   9.681   7.739   1.023  0.1157 -0.2670  1.4060
  990MOL0     C33549   9.722   7.737   0.888  0.1421 -0.1049  0.0778
  990MOL0     O33550   9.827   7.815   0.848 -0.2716  0.3882  0.3788
  990MOL0     C33551   9.881   7.916   0.937  0.3415  0.2817 -0.4535
  990MOL0     C33552   9.996   7.987   0.861 -0.2147  0.2546  0.5875
  990MOL0     C33553  10.044   8.116   0.929  0.4105  0.1038 -0.5221
  990MOL0     C33554  10.173   8.098   1.005 -0.4327  0.3444  0.0775
  990MOL0     C33555  10.221   8.226   1.076 -0.6197  0.6867 -0.5237
  990MOL0     C33556  10.374   8.213   1.115  0.3744 -0.4192  0.3295
  990MOL0     C33557  10.433   8.336   1.185  0.0780 -0.5788  0.9782
  990MOL0     C33558  10.417   8.342   1.339 -0.2747 -0.7614  0.2818
  990MOL0    Cl33559  10.451   8.192   1.432 -0.0888 -0.3148 -0.1560
  990MOL0     C33560   9.644   7.666   0.795  0.7575  0.1569  0.0452
  990MOL0     C33561   9.533   7.593   0.834 -1.3366  0.0593 -1.1829
  990MOL0     O33562   9.531   7.322   0.984  0.1176 -0.6437 -0.1714
  990MOL0     C33563   9.362   7.178   1.153 -0.1050  0.5618  0.3052
  990MOL0     C33564   9.261   7.096   1.206  0.2802  0.7321  0.3359
  990MOL0     N33565   8.933   6.496   1.250  0.2031  0.0570 -0.8574
  990MOL0     N33566   8.955   6.375   1.306  0.0046  0.3433  0.3717
  990MOL0     C33567   7.820   6.020   1.672  0.0699  0.8473 -0.4047
  990MOL0     C33568   7.685   6.001   1.676 -0.2167 -0.3496  0.1210
  990MOL0     C33569   7.302   5.771   1.720  0.4665 -0.9061 -0.3914
  990MOL0     C33570   7.263   5.892   1.773  0.7089 -0.3312 -0.4045
  990MOL0     C33571   7.164   5.895   1.868  0.6586  0.5730  0.2463
  990MOL0     C33572   7.097   5.785   1.911 -0.1453 -0.5615  0.4244
  990MOL0     O33573   6.990   5.767   1.998  0.2281  0.7519  0.0331
  990MOL0     C33574   6.912   5.891   2.013  0.5210 -0.3162 -0.1415
  990MOL0     C33575   6.813   5.878   2.118  0.4302  0.4608 -0.3328
  990MOL0     C33576   6.725   6.006   2.118  0.6103  0.7412 -0.6397
  990MOL0     C33577   6.655   6.024   2.257 -0.4343 -0.6434 -0.4804
  990MOL0     C33578   6.565   6.150   2.260  0.1741 -0.1154  0.9282
  990MOL0     C33579   6.489   6.247   2.271  0.2339 -0.2782 -0.7841
  990MOL0     C33580   7.139   5.664   1.853 -0.0032  0.3604  0.4415
  990MOL0     C33581   7.240   5.652   1.763 -0.1996  0.5913  0.8264
  990MOL0     C33582   7.274   5.513   1.719 -0.0612 -0.0526  0.6322
  990MOL0     H33583   7.639   5.798   1.413 -1.8034 -1.1385  1.8009
  990MOL0     H33584   7.876   5.827   1.400 -1.7911  0.9367 -1.0015
  990MOL0     H33585   8.106   5.810   1.517 -0.8475 -0.1682 -0.3935
  990MOL0     H33586   8.130   5.943   1.393 -0.9492  1.1651  0.2160
  990MOL0     H33587   8.333   5.873   1.500 -0.9621 -0.6652 -1.0958
  990MOL0     H33588   8.272   5.922   1.656 -1.0774 -0.5074 -0.5186
  990MOL0     H33589   8.220   6.155   1.590 -1.2601  0.6909 -0.6366
  990MOL0     H33590   8.242   6.125   1.432 -0.1562 -0.0254  0.3013
  990MOL0     H33591   8.425   6.252   1.543 -2.1090 -0.4587 -0.8994
  990MOL0     H33592   8.476   6.111   1.635 -0.1414 -0.4481  1.6456
  990MOL0     H33593   8.543   5.984   1.457  3.3808  0.7780  1.9934
  990MOL0     H33594   8.468   6.077   1.340  0.8850  0.7419 -0.1296
  990MOL0     H33595   8.709   6.082   1.340 -0.0008 -0.6168  1.1114
  990MOL0     H33596   8.622   6.244   1.343 -2.8101  0.5763  0.7875
  990MOL0     H33597   8.720   6.118   1.599 -0.8350  0.2671 -0.2328
  990MOL0     H33598   8.673   6.286   1.575 -0.1307 -0.9947  3.5378
  990MOL0     H33599   8.913   6.255   1.615  1.6770 -2.1180 -0.5615
  990MOL0     H33600   8.931   6.158   1.477 -0.6214  0.8458 -3.4251
  990MOL0     H33601   8.759   6.508   1.530  0.0887  1.8133 -0.4322
  990MOL0     H33602   8.732   6.707   1.232  1.2867 -1.5516 -0.8811
  990MOL0     H33603   8.728   6.723   1.405  0.1861  1.2538  0.3035
  990MOL0     H33604   8.965   6.810   1.404  0.4073 -2.8289 -0.4151
  990MOL0     H33605   8.984   6.783   1.242  2.3807  2.3154  1.5050
  990MOL0     H33606   8.811   6.995   1.380 -0.2387  0.4988  0.0664
  990MOL0     H33607   8.737   6.928   1.230 -0.3660 -1.4066  1.0503
  990MOL0     H33608   8.862   7.148   1.219 -2.6695 -0.7382 -0.2914
  990MOL0     H33609   8.934   7.029   1.106  1.3905 -2.1344  0.2988
  990MOL0     H33610   8.993   7.284   1.147  0.1405  0.2290  3.0937
  990MOL0     H33611   9.164   7.437   1.042  0.0488  1.4215  2.3215
  990MOL0     H33612   9.542   7.664   1.177  1.2585  1.4838 -0.1175
  990MOL0     H33613   9.738   7.798   1.095  1.5215  0.2703 -0.0655
  990MOL0     H33614   9.808   7.994   0.960  0.5839  0.0535  1.2107
  990MOL0     H33615   9.922   7.867   1.026  1.9261 -1.0105 -1.8179
  990MOL0     H33616  10.079   7.916   0.852 -0.7492 -0.2190 -1.0437
  990MOL0     H33617   9.965   8.006   0.757  3.0367  1.6665 -0.2375
  990MOL0     H33618  10.046   8.182   0.842 -1.2246 -1.1006 -1.5306
  990MOL0     H33619   9.968   8.157   0.996 -0.2033  2.3968 -2.4864
  990MOL0     H33620  10.250   8.070   0.932 -1.9296 -0.1940 -1.3571
  990MOL0     H33621  10.168   8.019   1.080 -1.8678  0.7682  0.4605
  990MOL0     H33622  10.156   8.247   1.162 -2.5108 -0.5169 -1.5811
  990MOL0     H33623  10.211   8.303   0.999 -1.0677 -0.2226 -1.4048
  990MOL0     H33624  10.389   8.118   1.168 -1.9527 -0.7076  0.5364
  990MOL0     H33625  10.415   8.220   1.014  0.7986  1.3694  0.5885
  990MOL0     H33626  10.381   8.419   1.136 -4.4708 -2.8523  1.4745
  990MOL0     H33627  10.536   8.347   1.149 -0.6388  1.3882 -0.6813
  990MOL0     H33628  10.480   8.418   1.386  0.6870  0.0098 -2.0865
  990MOL0     H33629  10.316   8.377   1.359 -0.4662  1.6501 -3.7014
  990MOL0     H33630   9.676   7.670   0.691  3.1256  0.0762  0.7098
  990MOL0     H33631   9.469   7.550   0.758  1.3597  0.0567 -3.6117
  990MOL0     H33632   9.468   7.157   1.156 -0.3189 -2.0045 -3.0236
  990MOL0     H33633   9.270   7.001   1.258 -0.8574  0.6935  0.4722
  990MOL0     H33634   7.869   6.084   1.746 -1.5909  2.2311 -0.4396
  990MOL0     H33635   7.616   6.047   1.747 -2.1625  0.5220 -2.2006
  990MOL0     H33636   7.313   5.987   1.758  0.0678 -0.0889 -1.0810
  990MOL0     H33637   7.139   5.992   1.910  1.1070 -0.3156  2.7143
  990MOL0     H33638   6.862   5.914   1.918  1.8931  2.7350 -0.2520
  990MOL0     H33639   6.983   5.967   2.046 -0.6200 -0.5343  3.1525
  990MOL0     H33640   6.877   5.854   2.203  1.8433 -0.4562 -1.6025
  990MOL0     H33641   6.747   5.791   2.108  0.2776  0.5867 -0.4343
  990MOL0     H33642   6.653   6.004   2.035 -0.2355  2.4259  0.0037
  990MOL0     H33643   6.799   6.083   2.095 -0.0170  1.7746  0.6776
  990MOL0     H33644   6.597   5.936   2.284 -1.5560  0.6474  1.5594
  990MOL0     H33645   6.734   6.021   2.333  0.4983  0.8566 -1.3341
  990MOL0     H33646   6.441   6.340   2.293  1.2392 -0.3370  2.0978
  990MOL0     H33647   7.104   5.566   1.883  1.1577 -0.8342 -1.8013
  990MOL0     H33648   7.278   5.517   1.610 -3.1635  0.3041  0.4252
  990MOL0     H33649   7.372   5.486   1.758 -0.3570 -2.4959 -0.0935
  990MOL0     H33650   7.198   5.440   1.751 -0.8698  0.5988  0.2397
  991MOL0     O33651   5.003   4.277   7.374  1.0414  0.6058 -0.7770
  991MOL0     C33652   4.922   4.250   7.287  0.5092  0.0733 -0.5950
  991MOL0     O33653   4.956   4.231   7.159 -0.0494 -0.2411 -0.1562
  991MOL0     C33654   5.070   4.275   7.102  0.4450  0.9364 -0.0520
  991MOL0     C33655   5.157   4.197   7.030 -0.7166  0.2671 -0.2673
  991MOL0     C33656   5.284   4.250   6.987  0.0495  0.3008  0.1543
  991MOL0     C33657   5.313   4.388   6.996 -0.0066 -0.7385  0.7091
  991MOL0     O33658   5.426   4.456   6.946  0.6713  0.3104  0.0400
  991MOL0     C33659   5.502   4.401   6.843 -0.0778  0.5308 -0.6785
  991MOL0     C33660   5.587   4.515   6.784  0.3696  0.4714 -0.4506
  991MOL0     C33661   5.704   4.454   6.711 -0.0787  0.1211 -0.3309
  991MOL0     C33662   5.674   4.410   6.571 -0.3325 -0.6205  0.1757
  991MOL0     C33663   5.802   4.355   6.500 -0.0819 -0.0253 -0.1216
  991MOL0     C33664   5.896   4.466   6.445 -0.4920  0.5482  0.0806
  991MOL0     C33665   6.039   4.426   6.488  0.5947 -0.2154  0.3489
  991MOL0     C33666   6.137   4.527   6.423  0.3514  1.0077 -0.5660
  991MOL0     N33667   6.272   4.483   6.455  0.3266  0.1007  0.6337
  991MOL0     C33668   6.354   4.543   6.550  0.5421  0.1351 -0.9446
  991MOL0     C33669   6.459   4.467   6.547  0.0312  0.6291  0.1071
  991MOL0     C33670   6.586   4.487   6.622  0.1712 -0.7887  0.3837
  991MOL0     C33671   6.698   4.538   6.532 -0.0475 -0.0199 -0.4704
  991MOL0     C33672   6.769   4.412   6.475 -0.5928  1.1590  0.4508
  991MOL0     C33673   6.872   4.463   6.373 -0.4601 -0.2950  1.0182
  991MOL0     O33674   6.997   4.529   6.430 -0.0536  0.5733 -0.2217
  991MOL0     C33675   7.108   4.450   6.443 -0.5540 -0.1290  0.2416
  991MOL0     C33676   7.118   4.311   6.476 -0.2558  0.3352 -0.1680
  991MOL0     C33677   7.241   4.238   6.477  0.3237 -0.0926  0.9194
  991MOL0     C33678   7.362   4.317   6.476 -0.6751  0.2710 -0.1377
  991MOL0     C33679   7.494   4.256   6.486 -0.2027  0.2268 -1.1065
  991MOL0     O33680   7.487   4.121   6.528  0.7052  0.2976 -0.0319
  991MOL0     C33681   7.595   4.045   6.520  0.0855 -0.1397 -0.4396
  991MOL0     C33682   7.604   3.944   6.424  0.4061  0.4547 -0.4736
  991MOL0     C33683   7.717   3.868   6.416 -0.4408  0.6522 -0.1160
  991MOL0     C33684   7.816   3.879   6.514  0.3759  0.0694  0.7603
  991MOL0     O33685   7.923   3.799   6.508 -0.4266 -0.1140  0.0674
  991MOL0     C33686   8.048   3.860   6.521 -0.4956  0.3906  0.2531
  991MOL0     C33687   8.144   3.753   6.457  0.0282 -1.4148  0.5111
  991MOL0     C33688   8.213   3.666   6.555 -0.0819 -0.3203 -0.0922
  991MOL0     C33689   8.307   3.563   6.486 -0.8241 -0.6242 -0.2803
  991MOL0     C33690   8.383   3.483   6.588 -0.1726  0.1426 -0.0973
  991MOL0     C33691   8.293   3.374   6.665  0.0080  0.1750  0.0301
  991MOL0     C33692   8.385   3.302   6.764  1.4764 -0.5009  0.4781
  991MOL0     C33693   8.512   3.243   6.692  0.3570  0.0686 -0.0024
  991MOL0    Cl33694   8.566   3.104   6.793  0.3087 -0.6258  0.0263
  991MOL0     C33695   7.808   3.979   6.611  0.4842 -0.0529 -0.4816
  991MOL0     C33696   7.700   4.067   6.614  0.3610 -0.1721  1.0803
  991MOL0     O33697   7.588   4.321   6.454  0.1748 -0.4569  1.1733
  991MOL0     C33698   7.353   4.452   6.457 -0.3309 -0.3831 -1.0752
  991MOL0     C33699   7.229   4.523   6.433 -0.0905  0.2877  0.5836
  991MOL0     N33700   6.448   4.369   6.449  0.1425  0.4523 -0.5766
  991MOL0     N33701   6.334   4.374   6.400  0.8567  0.1871 -0.0682
  991MOL0     C33702   5.219   4.467   7.067  0.1412 -0.9752 -0.5848
  991MOL0     C33703   5.102   4.409   7.120 -0.1532 -0.0009 -0.4467
  991MOL0     C33704   4.788   4.221   7.323  0.9292 -1.3822  0.3678
  991MOL0     C33705   4.754   4.175   7.453 -0.1232 -0.7600  0.1666
  991MOL0     C33706   4.637   4.134   7.494  0.0644  0.0603 -0.5020
  991MOL0     C33707   4.527   4.152   7.415  0.3032 -0.4261  0.4834
  991MOL0     O33708   4.407   4.143   7.482 -0.0932  0.3832 -0.1790
  991MOL0     C33709   4.290   4.113   7.390 -0.2227 -0.2828 -1.0360
  991MOL0     C33710   4.169   4.113   7.479 -0.0916 -0.2023  0.1271
  991MOL0     C33711   4.058   4.069   7.383  0.2891  0.6463 -0.9033
  991MOL0     C33712   3.919   4.073   7.453  0.2559  0.2846  0.3345
  991MOL0     C33713   3.883   4.211   7.476  0.5311  0.6214 -0.7315
  991MOL0     C33714   3.863   4.328   7.501  0.3200 -0.2112 -0.5141
  991MOL0     C33715   4.552   4.203   7.283  0.1296  0.5223  0.5553
  991MOL0     C33716   4.676   4.255   7.245 -0.3535  0.4445 -0.1654
  991MOL0     C33717   4.698   4.329   7.116  0.3993 -1.4529 -0.3849
  991MOL0     H33718   5.135   4.093   7.008  0.4717 -0.6795  2.5312
  991MOL0     H33719   5.353   4.180   6.940  1.4675 -1.1904  4.0944
  991MOL0     H33720   5.557   4.314   6.880 -1.7539 -1.2211 -2.0971
  991MOL0     H33721   5.446   4.375   6.753  0.3142 -0.0085 -0.7721
  991MOL0     H33722   5.634   4.567   6.868  1.1860 -1.3537  0.2726
  991MOL0     H33723   5.527   4.578   6.717  1.1240  1.8607  0.1297
  991MOL0     H33724   5.738   4.372   6.774 -0.2809  0.7397  0.6159
  991MOL0     H33725   5.785   4.527   6.700  0.4088 -0.5843 -1.6145
  991MOL0     H33726   5.601   4.328   6.571 -0.5989 -0.3846 -0.1233
  991MOL0     H33727   5.630   4.489   6.509 -3.1702 -1.2709  1.2085
  991MOL0     H33728   5.862   4.301   6.574  0.1669  0.9438  0.4075
  991MOL0     H33729   5.781   4.279   6.425 -0.0418 -0.4462  0.2870
  991MOL0     H33730   5.888   4.457   6.336  0.2666 -2.0812  0.1924
  991MOL0     H33731   5.875   4.567   6.482 -1.2282  0.3406  0.2441
  991MOL0     H33732   6.062   4.323   6.458 -0.6261 -0.5783  0.5860
  991MOL0     H33733   6.034   4.426   6.597 -2.2109 -3.6797  0.4163
  991MOL0     H33734   6.115   4.518   6.316  0.2365 -1.0412 -0.4093
  991MOL0     H33735   6.127   4.630   6.457  0.4402  0.6653  0.5506
  991MOL0     H33736   6.335   4.626   6.617 -3.2455 -0.7383 -0.6552
  991MOL0     H33737   6.564   4.547   6.711 -1.1324 -2.8477  1.5345
  991MOL0     H33738   6.604   4.386   6.661  0.6639 -0.1714  1.8255
  991MOL0     H33739   6.656   4.593   6.448  1.2325  2.2008  0.2710
  991MOL0     H33740   6.777   4.589   6.588 -0.4591  0.4472 -0.3069
  991MOL0     H33741   6.705   4.342   6.421  1.4054  0.2353 -0.8685
  991MOL0     H33742   6.837   4.363   6.546  0.4200 -1.5455 -2.1641
  991MOL0     H33743   6.822   4.528   6.301  2.0380 -0.9566 -1.5126
  991MOL0     H33744   6.912   4.385   6.307 -0.0308  0.0873  0.8196
  991MOL0     H33745   7.029   4.251   6.492 -1.1111  1.5846 -0.1411
  991MOL0     H33746   7.252   4.131   6.473 -0.1481 -0.1816  1.8598
  991MOL0     H33747   7.524   3.943   6.350  1.8541  2.0721 -2.1716
  991MOL0     H33748   7.727   3.782   6.350  0.7909  2.7141 -2.8058
  991MOL0     H33749   8.057   3.950   6.460 -2.8379  0.5893  0.1111
  991MOL0     H33750   8.068   3.881   6.626  1.7840  0.4635 -0.1577
  991MOL0     H33751   8.087   3.687   6.391  2.2944 -0.8028 -2.2523
  991MOL0     H33752   8.213   3.811   6.395  0.5888 -0.6417  1.8104
  991MOL0     H33753   8.271   3.727   6.624 -2.5972  2.3833 -0.1632
  991MOL0     H33754   8.131   3.615   6.606 -0.4488  3.3090  3.5300
  991MOL0     H33755   8.390   3.614   6.437 -0.5878  0.2678  0.9954
  991MOL0     H33756   8.243   3.500   6.424 -3.6782 -1.5383  3.2366
  991MOL0     H33757   8.420   3.545   6.670 -3.4386 -0.1794  1.7966
  991MOL0     H33758   8.471   3.448   6.534 -0.5475  0.1132 -0.7062
  991MOL0     H33759   8.220   3.428   6.724  0.3468  2.0098 -1.1375
  991MOL0     H33760   8.245   3.302   6.598  1.1128 -0.7778  0.2314
  991MOL0     H33761   8.334   3.213   6.802 -0.4763 -0.1764 -1.2292
  991MOL0     H33762   8.409   3.373   6.843  0.3777 -0.3217  0.6573
  991MOL0     H33763   8.489   3.215   6.589 -1.9267  1.6747 -0.0202
  991MOL0     H33764   8.579   3.329   6.697 -0.3857  0.6135  1.2135
  991MOL0     H33765   7.881   3.993   6.690 -0.3976 -0.5303  0.4392
  991MOL0     H33766   7.709   4.153   6.680  0.1446 -0.8947  2.0655
  991MOL0     H33767   7.446   4.506   6.445 -0.6615  0.7956  1.1852
  991MOL0     H33768   7.212   4.623   6.393 -1.4280 -0.8759 -2.0053
  991MOL0     H33769   5.236   4.574   7.063  0.5834 -0.9743  0.9111
  991MOL0     H33770   5.022   4.467   7.165 -1.1440 -1.0020 -0.8712
  991MOL0     H33771   4.838   4.155   7.520 -0.4752 -1.4172  0.4233
  991MOL0     H33772   4.626   4.086   7.591 -0.7263 -0.1740 -0.7022
  991MOL0     H33773   4.295   4.015   7.342 -1.3726 -0.8128 -0.1338
  991MOL0     H33774   4.268   4.196   7.322 -0.8420 -2.5713 -3.8732
  991MOL0     H33775   4.145   4.213   7.516 -1.4977 -0.8375  1.0626
  991MOL0     H33776   4.175   4.047   7.567 -0.7467  0.5359  0.7437
  991MOL0     H33777   4.068   3.964   7.354  1.2696  0.3974  0.2637
  991MOL0     H33778   4.076   4.142   7.303  1.1356 -0.9696 -2.2445
  991MOL0     H33779   3.845   4.027   7.387 -0.5312  1.4930  0.3374
  991MOL0     H33780   3.914   4.012   7.543 -0.0107  1.3444  1.0583
  991MOL0     H33781   3.856   4.435   7.506 -2.2606 -0.3075 -0.4276
  991MOL0     H33782   4.471   4.216   7.211 -0.2449  0.8857  1.0399
  991MOL0     H33783   4.745   4.265   7.041 -0.1232 -0.9211 -1.1737
  991MOL0     H33784   4.605   4.375   7.081  0.2399 -1.2807  0.2504
  991MOL0     H33785   4.755   4.421   7.135 -1.5175 -0.4138  0.6528
  992MOL0     O33786   7.002   2.778   5.841 -0.1760 -0.0105 -0.5179
  992MOL0     C33787   7.037   2.719   5.940 -0.9999  0.1078 -1.3123
  992MOL0     O33788   7.169   2.690   5.973  0.1602  0.5320  0.6854
  992MOL0     C33789   7.270   2.719   5.884 -0.1759 -0.1799  0.1326
  992MOL0     C33790   7.293   2.836   5.826 -0.2566 -0.7044 -0.7333
  992MOL0     C33791   7.413   2.864   5.752 -0.0126 -0.3350  0.1450
  992MOL0     C33792   7.511   2.760   5.743  0.9304 -0.0014 -1.1974
  992MOL0     O33793   7.619   2.789   5.664  1.4326 -0.1526  0.1928
  992MOL0     C33794   7.704   2.683   5.622  0.4008 -0.4572 -0.8255
  992MOL0     C33795   7.808   2.736   5.527 -0.2515 -1.0611  0.1824
  992MOL0     C33796   7.927   2.638   5.502 -0.0526 -0.5025  0.3995
  992MOL0     C33797   8.051   2.716   5.442  0.6672 -0.8900  0.4307
  992MOL0     C33798   8.159   2.625   5.402 -0.1789  0.2015  0.2224
  992MOL0     C33799   8.309   2.675   5.424 -0.0825 -0.6413 -0.6894
  992MOL0     C33800   8.408   2.578   5.358  0.3551 -0.0807  1.3259
  992MOL0     C33801   8.546   2.643   5.359  0.9159  0.6421  0.5594
  992MOL0     N33802   8.657   2.563   5.321  1.0662 -0.3476 -0.3439
  992MOL0     C33803   8.785   2.552   5.387  1.0799 -0.8826 -0.3826
  992MOL0     C33804   8.854   2.470   5.317 -0.7047  1.1050  0.8806
  992MOL0     C33805   9.005   2.448   5.328  0.7913 -0.2057 -0.2483
  992MOL0     C33806   9.097   2.570   5.315  0.5173 -0.3493  0.0540
  992MOL0     C33807   9.243   2.529   5.336  0.4402  0.0242 -0.6158
  992MOL0     C33808   9.299   2.458   5.222  0.2482  0.9121 -1.1158
  992MOL0     O33809   9.345   2.555   5.132  0.0522  0.5629 -0.5912
  992MOL0     C33810   9.478   2.604   5.135 -0.4566 -0.7412 -0.0697
  992MOL0     C33811   9.504   2.742   5.115  0.0121 -0.8239  0.2284
  992MOL0     C33812   9.630   2.794   5.108 -0.2722  0.1136  0.2826
  992MOL0     C33813   9.741   2.713   5.153 -0.1420 -0.4384 -0.1111
  992MOL0     C33814   9.878   2.768   5.145 -0.5831 -0.5148 -0.2701
  992MOL0     O33815   9.973   2.687   5.204 -0.3230  0.1919 -0.5307
  992MOL0     C33816  10.102   2.734   5.196  0.6815 -0.5887  1.1890
  992MOL0     C33817  10.172   2.794   5.295  0.1654 -0.5725  0.1289
  992MOL0     C33818  10.291   2.845   5.276  0.1845  0.0658 -0.5342
  992MOL0     C33819  10.353   2.847   5.153 -0.5523 -0.7816  0.6291
  992MOL0     O33820  10.475   2.909   5.155 -0.0908  0.1854 -0.4214
  992MOL0     C33821  10.525   2.975   5.042 -0.0220 -0.6266  0.1496
  992MOL0     C33822  10.646   2.894   5.000  0.3175 -0.3948  0.6033
  992MOL0     C33823  10.772   2.916   5.080 -0.2959 -0.2916 -0.5411
  992MOL0     C33824  10.895   2.859   5.017 -0.3505 -0.9170 -0.6873
  992MOL0     C33825  10.998   2.843   5.137 -0.0264  0.6325 -0.3574
  992MOL0     C33826  11.134   2.790   5.098 -0.1909 -0.2722 -0.2047
  992MOL0     C33827  11.148   2.638   5.081 -0.6517 -0.0764 -0.1337
  992MOL0     C33828  11.291   2.612   5.011  0.6108 -0.2786  0.5658
  992MOL0    Cl33829  11.312   2.434   5.004 -0.3777 -0.1389  0.3427
  992MOL0     C33830  10.296   2.784   5.043  0.4454  0.4636  0.1477
  992MOL0     C33831  10.166   2.724   5.070 -0.1050  1.1847 -0.2961
  992MOL0     O33832   9.897   2.880   5.110 -0.1527 -0.4468 -0.1576
  992MOL0     C33833   9.718   2.574   5.166  0.4133  0.6005 -0.2581
  992MOL0     C33834   9.588   2.520   5.173 -0.6849 -0.2838 -0.5901
  992MOL0     N33835   8.777   2.412   5.220  0.1446  0.0396  0.1097
  992MOL0     N33836   8.662   2.463   5.227  0.7123  0.1791 -0.0736
  992MOL0     C33837   7.492   2.634   5.808  0.3831 -0.2046 -0.0074
  992MOL0     C33838   7.362   2.617   5.870 -0.7457  0.3117 -0.3624
  992MOL0     C33839   6.936   2.708   6.040 -0.4357  0.5130  0.0101
  992MOL0     C33840   6.821   2.798   6.036  0.3342  0.7673 -0.2257
  992MOL0     C33841   6.721   2.788   6.131 -0.4250  0.1457 -0.0406
  992MOL0     C33842   6.726   2.702   6.232 -0.2643  0.0950  0.0483
  992MOL0     O33843   6.630   2.703   6.327 -0.0954  0.4983  0.3162
  992MOL0     C33844   6.548   2.587   6.336  1.4226  0.1015  0.9498
  992MOL0     C33845   6.479   2.527   6.205 -1.0721  0.6172  0.3975
  992MOL0     C33846   6.378   2.419   6.233  0.1880 -0.2050  0.8969
  992MOL0     C33847   6.316   2.374   6.101  0.2653 -0.4703 -0.3721
  992MOL0     C33848   6.202   2.281   6.128  0.6639 -0.4266  0.2067
  992MOL0     C33849   6.105   2.208   6.136  0.5285 -0.4938  0.4246
  992MOL0     C33850   6.826   2.602   6.228 -0.4813  0.4290 -0.7628
  992MOL0     C33851   6.931   2.605   6.138  0.4555 -0.6111  0.3862
  992MOL0     C33852   7.024   2.486   6.138  0.6306 -0.0592 -0.5671
  992MOL0     H33853   7.210   2.906   5.829  0.7950  0.6236 -1.4304
  992MOL0     H33854   7.426   2.961   5.706  1.6105 -0.4849  0.2339
  992MOL0     H33855   7.751   2.638   5.710 -1.0410 -1.3385 -0.4764
  992MOL0     H33856   7.641   2.608   5.573  1.2520 -0.7240 -1.5436
  992MOL0     H33857   7.847   2.830   5.568  0.4633 -0.5311 -1.5982
  992MOL0     H33858   7.761   2.754   5.430  0.5355  0.9958  0.1264
  992MOL0     H33859   7.896   2.560   5.431  0.8217  2.5263 -3.6490
  992MOL0     H33860   7.956   2.599   5.600 -0.3667  0.5500  0.9193
  992MOL0     H33861   8.030   2.781   5.357 -1.7564 -0.0328  1.6052
  992MOL0     H33862   8.097   2.775   5.522  3.1515 -0.2658 -1.3473
  992MOL0     H33863   8.137   2.532   5.456  0.4825 -0.8130 -1.2082
  992MOL0     H33864   8.150   2.598   5.297  1.3162 -4.3882  1.0515
  992MOL0     H33865   8.317   2.776   5.380 -0.2822  0.2516  1.2371
  992MOL0     H33866   8.324   2.683   5.532 -0.1365  0.2434 -0.7400
  992MOL0     H33867   8.365   2.564   5.259 -0.9153 -0.1063  1.8682
  992MOL0     H33868   8.399   2.482   5.409 -2.1481 -0.9460 -0.5768
  992MOL0     H33869   8.540   2.729   5.290 -0.4715  0.8282  0.8794
  992MOL0     H33870   8.565   2.672   5.462 -2.3633 -0.5094  1.6122
  992MOL0     H33871   8.813   2.606   5.477 -1.6808 -1.4789  0.9471
  992MOL0     H33872   9.022   2.389   5.419 -0.4782 -0.1911  0.0256
  992MOL0     H33873   9.033   2.373   5.254  0.7308  0.0558 -0.5378
  992MOL0     H33874   9.091   2.611   5.214 -1.6896 -1.8748 -0.5134
  992MOL0     H33875   9.070   2.646   5.389  0.7737  0.3900 -0.6043
  992MOL0     H33876   9.241   2.469   5.427 -1.1769 -0.1345 -0.7246
  992MOL0     H33877   9.299   2.621   5.352 -2.4888  1.5959  1.6280
  992MOL0     H33878   9.231   2.387   5.175  1.8211 -0.2658 -1.6902
  992MOL0     H33879   9.388   2.398   5.245 -0.2496  1.0630  1.5031
  992MOL0     H33880   9.415   2.804   5.103 -0.7962 -1.6167  1.7926
  992MOL0     H33881   9.654   2.895   5.079  1.9046 -0.7666 -1.1989
  992MOL0     H33882  10.126   2.790   5.393 -0.2531  0.0211 -0.0398
  992MOL0     H33883  10.345   2.906   5.348  0.4386 -0.7940  0.0301
  992MOL0     H33884  10.461   2.981   4.954  3.5948  0.7691 -2.6557
  992MOL0     H33885  10.547   3.081   5.058 -2.0776  0.4604 -3.2163
  992MOL0     H33886  10.615   2.789   4.998  0.3013 -0.3835 -0.3221
  992MOL0     H33887  10.661   2.919   4.895 -4.8059  1.3215 -0.0067
  992MOL0     H33888  10.788   3.023   5.094 -1.4292 -0.3852  2.1325
  992MOL0     H33889  10.750   2.873   5.178 -1.9038  3.0891  0.7473
  992MOL0     H33890  10.940   2.934   4.950  0.5148  2.1098  2.9341
  992MOL0     H33891  10.870   2.759   4.981 -0.9104 -1.8398  2.0747
  992MOL0     H33892  10.962   2.763   5.203 -0.1498 -0.1769 -1.3854
  992MOL0     H33893  10.996   2.941   5.185 -2.3432  0.5700 -0.2079
  992MOL0     H33894  11.176   2.836   5.008 -0.4022 -1.1362 -0.7500
  992MOL0     H33895  11.190   2.820   5.187 -1.6991  3.6146 -0.3545
  992MOL0     H33896  11.070   2.591   5.020  0.3617 -0.3211 -1.2764
  992MOL0     H33897  11.138   2.599   5.183  2.1000  0.7019  0.4993
  992MOL0     H33898  11.295   2.666   4.916  0.1824  1.1899  1.3440
  992MOL0     H33899  11.376   2.657   5.063 -0.0572  0.5068  1.0211
  992MOL0     H33900  10.340   2.786   4.944 -1.5124 -1.8702 -0.8775
  992MOL0     H33901  10.110   2.674   4.992 -0.3808  1.3430 -0.2022
  992MOL0     H33902   9.811   2.519   5.167  1.7000  2.6643 -0.8170
  992MOL0     H33903   9.585   2.416   5.202  2.3669 -0.3277 -0.1812
  992MOL0     H33904   7.558   2.549   5.818  1.0901  0.4407  1.0998
  992MOL0     H33905   7.341   2.527   5.926  3.2475 -1.4732 -1.3927
  992MOL0     H33906   6.810   2.872   5.957  1.3633  1.2694  0.0910
  992MOL0     H33907   6.635   2.855   6.131  0.6752  1.7637  3.1051
  992MOL0     H33908   6.459   2.607   6.396  1.6371 -3.2687  2.6562
  992MOL0     H33909   6.604   2.506   6.384  0.6072 -1.4685 -0.6567
  992MOL0     H33910   6.560   2.491   6.141 -1.4417  0.1178  0.2005
  992MOL0     H33911   6.426   2.614   6.163 -0.1040  1.2368  0.4386
  992MOL0     H33912   6.297   2.462   6.292 -0.2440 -0.0525  0.2017
  992MOL0     H33913   6.430   2.347   6.297  0.5567 -0.7515 -0.0017
  992MOL0     H33914   6.290   2.454   6.032  0.3957  0.8510  1.0633
  992MOL0     H33915   6.387   2.320   6.037 -0.5117 -0.2190 -1.4686
  992MOL0     H33916   6.014   2.155   6.156 -0.2349  0.7910  0.4818
  992MOL0     H33917   6.809   2.510   6.283  2.0241 -0.7819 -1.8879
  992MOL0     H33918   7.120   2.510   6.184  0.4987 -0.2479 -0.1910
  992MOL0     H33919   6.985   2.407   6.202  0.1786 -1.2219 -2.2091
  992MOL0     H33920   7.047   2.437   6.043 -1.2362  1.6805 -2.0018
  993MOL0     O33921   7.035   2.595   0.368 -0.2355 -0.0555 -0.2959
  993MOL0     C33922   7.016   2.612   0.250 -0.4593  0.3831 -0.0290
  993MOL0     O33923   7.117   2.599   0.153 -0.5661  0.3735 -0.4665
  993MOL0     C33924   7.239   2.562   0.204  0.2101 -0.3313  0.1641
  993MOL0     C33925   7.318   2.673   0.241 -0.7437  0.3124  0.3325
  993MOL0     C33926   7.453   2.646   0.278 -0.1741 -0.7361 -0.2827
  993MOL0     C33927   7.494   2.511   0.291  0.6166 -0.1579  0.7040
  993MOL0     O33928   7.621   2.496   0.337  0.2925  0.5313 -0.1874
  993MOL0     C33929   7.654   2.361   0.378  0.3212  0.1769 -0.4537
  993MOL0     C33930   7.771   2.372   0.476  0.7213  0.1932  0.0921
  993MOL0     C33931   7.910   2.376   0.417 -0.0068 -0.8316 -0.1874
  993MOL0     C33932   8.015   2.425   0.517  0.7615 -0.3683 -0.0768
  993MOL0     C33933   8.149   2.421   0.451  0.3522 -0.1126 -0.3025
  993MOL0     C33934   8.264   2.467   0.546 -0.8223  0.0442 -0.4623
  993MOL0     C33935   8.245   2.608   0.598  0.1904  0.4525 -0.3052
  993MOL0     C33936   8.322   2.640   0.725  0.3799  0.2102 -0.7489
  993MOL0     N33937   8.460   2.655   0.716 -0.4727 -0.2120  0.4665
  993MOL0     C33938   8.542   2.544   0.721 -0.4663 -0.1674  0.3229
  993MOL0     C33939   8.664   2.595   0.733  0.1752  0.1062  0.5380
  993MOL0     C33940   8.785   2.513   0.741  0.2745 -0.1069  0.1053
  993MOL0     C33941   8.891   2.561   0.657 -0.1977 -0.5868  0.4892
  993MOL0     C33942   8.965   2.679   0.722 -0.7520 -0.8514 -0.0919
  993MOL0     C33943   9.113   2.677   0.694  0.0191  0.4996  0.9015
  993MOL0     O33944   9.180   2.605   0.795 -0.5121 -0.0445 -0.2221
  993MOL0     C33945   9.317   2.613   0.797  0.0427 -0.7077 -0.2273
  993MOL0     C33946   9.401   2.658   0.690  0.3414 -0.0508  0.2788
  993MOL0     C33947   9.544   2.655   0.711  0.0599  0.4181 -0.0057
  993MOL0     C33948   9.595   2.609   0.839 -0.0161 -0.3397 -0.5940
  993MOL0     C33949   9.739   2.606   0.872  0.5886 -0.3696 -0.2707
  993MOL0     O33950   9.778   2.592   1.006 -0.2024  0.6984 -0.0794
  993MOL0     C33951   9.912   2.612   1.032  0.5046 -0.2393  0.7921
  993MOL0     C33952  10.007   2.530   0.982 -0.9110  0.1058  0.7112
  993MOL0     C33953  10.141   2.549   1.010 -0.5769  0.3141  0.3249
  993MOL0     C33954  10.186   2.651   1.102  0.6651  1.0884 -0.1280
  993MOL0     O33955  10.318   2.656   1.138  0.6411 -0.1272  0.5324
  993MOL0     C33956  10.375   2.766   1.205 -0.4851  0.2794 -0.1369
  993MOL0     C33957  10.525   2.750   1.195  0.0753 -0.8295  0.3151
  993MOL0     C33958  10.560   2.603   1.243  0.5051  0.5383 -0.4554
  993MOL0     C33959  10.709   2.579   1.262  0.4121  1.8376 -0.4072
  993MOL0     C33960  10.737   2.433   1.289 -0.3746  0.0177  0.0781
  993MOL0     C33961  10.875   2.400   1.348 -0.5403  0.0588  0.5042
  993MOL0     C33962  10.980   2.389   1.236  0.5995 -0.1086 -0.7397
  993MOL0     C33963  11.116   2.321   1.282 -0.6197 -0.4372 -0.1401
  993MOL0    Cl33964  11.194   2.413   1.410  0.1500  0.1556 -0.1341
  993MOL0     C33965  10.087   2.731   1.156  0.3173 -0.3746 -0.2259
  993MOL0     C33966   9.952   2.715   1.122 -0.0487  0.0906 -0.7182
  993MOL0     O33967   9.815   2.637   0.779 -0.4086  0.8857  0.5979
  993MOL0     C33968   9.506   2.575   0.937 -0.3995  0.7596  0.1477
  993MOL0     C33969   9.371   2.570   0.915  0.1086 -0.4532 -0.5526
  993MOL0     N33970   8.657   2.731   0.752 -1.1014  0.0928 -0.3347
  993MOL0     N33971   8.534   2.771   0.731  0.8777  0.3542 -0.2538
  993MOL0     C33972   7.408   2.411   0.254 -1.0389  0.6564  0.6769
  993MOL0     C33973   7.281   2.433   0.211 -1.2393 -0.6223  0.1647
  993MOL0     C33974   6.884   2.655   0.204  1.0362  0.3840 -0.6030
  993MOL0     C33975   6.876   2.759   0.115 -0.0738  0.4618 -0.4262
  993MOL0     C33976   6.754   2.821   0.082  0.4998 -0.1986  0.0591
  993MOL0     C33977   6.638   2.769   0.132 -0.0934 -0.2611  0.2073
  993MOL0     O33978   6.519   2.848   0.117 -0.3563  0.1420  0.0840
  993MOL0     C33979   6.399   2.787   0.170 -1.2677 -0.4917 -0.2628
  993MOL0     C33980   6.284   2.882   0.133  0.0586  0.2495 -1.0612
  993MOL0     C33981   6.143   2.824   0.168 -0.5083 -0.4173  0.3584
  993MOL0     C33982   6.132   2.812   0.322 -0.6253 -0.1926 -0.5601
  993MOL0     C33983   6.001   2.766   0.359  0.0750  0.4278  0.2454
  993MOL0     C33984   5.899   2.711   0.404  1.0430 -0.5922  0.2044
  993MOL0     C33985   6.643   2.652   0.217 -0.9335 -0.5871  0.9538
  993MOL0     C33986   6.765   2.600   0.251 -1.1958  0.2718  0.3900
  993MOL0     C33987   6.764   2.488   0.349 -0.1650  0.1041 -0.0808
  993MOL0     H33988   7.275   2.772   0.236 -2.4658 -0.2823  2.0002
  993MOL0     H33989   7.513   2.733   0.302 -0.9689 -0.9615  2.8472
  993MOL0     H33990   7.570   2.320   0.435 -1.9331  4.5132 -0.2444
  993MOL0     H33991   7.686   2.291   0.300  1.9705 -1.1773  1.3389
  993MOL0     H33992   7.762   2.289   0.547 -0.4359  0.5025  0.3332
  993MOL0     H33993   7.745   2.459   0.537 -1.4520 -0.4202  0.1524
  993MOL0     H33994   7.903   2.447   0.334  1.6914  2.5369  2.3455
  993MOL0     H33995   7.938   2.274   0.387 -1.9622 -1.4527 -0.0234
  993MOL0     H33996   7.971   2.522   0.541 -1.0540 -1.8933  3.5083
  993MOL0     H33997   8.020   2.376   0.615  0.0283  2.6387  1.5988
  993MOL0     H33998   8.174   2.320   0.418  2.1097  0.0988  0.3260
  993MOL0     H33999   8.152   2.487   0.364  1.4273  2.7909  1.7704
  993MOL0     H34000   8.257   2.397   0.629  1.0774  0.1421 -0.1765
  993MOL0     H34001   8.362   2.449   0.502 -0.2801  2.0987 -0.1887
  993MOL0     H34002   8.140   2.631   0.616 -1.0455 -1.0087 -4.4248
  993MOL0     H34003   8.271   2.680   0.520 -0.8711 -0.8409 -1.9321
  993MOL0     H34004   8.283   2.739   0.753  0.6846 -0.0571  0.6766
  993MOL0     H34005   8.303   2.567   0.804  2.2525  1.1050  0.6036
  993MOL0     H34006   8.517   2.439   0.710  0.6756 -0.3114 -1.1441
  993MOL0     H34007   8.804   2.495   0.847 -0.7202  0.8470  0.4715
  993MOL0     H34008   8.760   2.413   0.705  0.8266 -0.2352  0.0717
  993MOL0     H34009   8.963   2.479   0.645  1.6645  0.8908  1.0296
  993MOL0     H34010   8.852   2.587   0.558  1.2452  0.0689  0.0597
  993MOL0     H34011   8.952   2.679   0.831  0.3089 -1.5405  0.0431
  993MOL0     H34012   8.926   2.774   0.684 -0.3066  0.0898  1.6875
  993MOL0     H34013   9.156   2.778   0.688 -0.1107  0.7109  2.8963
  993MOL0     H34014   9.127   2.627   0.598  0.4354 -0.2619  1.3488
  993MOL0     H34015   9.371   2.701   0.594  0.5808  1.1374  0.7105
  993MOL0     H34016   9.614   2.695   0.638 -0.6470 -1.6986 -1.9682
  993MOL0     H34017   9.979   2.457   0.907 -0.9655 -2.2002  2.8648
  993MOL0     H34018  10.215   2.496   0.952  0.0778  1.8248 -0.2645
  993MOL0     H34019  10.349   2.865   1.167  1.4642  0.9274  0.1069
  993MOL0     H34020  10.353   2.762   1.312  0.8181 -0.4670  0.1137
  993MOL0     H34021  10.576   2.765   1.099 -0.9796  0.7144 -0.0434
  993MOL0     H34022  10.572   2.819   1.267  2.0150  1.4916 -2.8922
  993MOL0     H34023  10.512   2.581   1.338  1.7157 -0.7674 -0.1301
  993MOL0     H34024  10.530   2.534   1.164  3.5062 -1.1072 -0.2703
  993MOL0     H34025  10.741   2.641   1.346  2.1731  1.4126 -0.7259
  993MOL0     H34026  10.766   2.598   1.171 -0.0084 -3.0806 -1.9742
  993MOL0     H34027  10.723   2.370   1.201 -4.4046 -1.7248  1.7220
  993MOL0     H34028  10.660   2.406   1.362  0.0265 -0.4759  0.3303
  993MOL0     H34029  10.902   2.469   1.428 -1.2947 -0.1323  0.9365
  993MOL0     H34030  10.871   2.307   1.406  0.3405 -0.5609 -0.4016
  993MOL0     H34031  10.997   2.491   1.200 -0.9644  0.7798  0.8553
  993MOL0     H34032  10.936   2.331   1.154  2.4701 -3.6541  0.5585
  993MOL0     H34033  11.103   2.218   1.316 -1.4139 -0.9432 -1.8797
  993MOL0     H34034  11.168   2.325   1.186 -2.1796  0.1804 -1.0184
  993MOL0     H34035  10.113   2.817   1.216 -0.6059  0.1459 -0.5481
  993MOL0     H34036   9.889   2.772   1.190  3.1790  2.9306  0.1897
  993MOL0     H34037   9.546   2.544   1.033  2.2539 -0.3476 -1.2191
  993MOL0     H34038   9.311   2.532   0.997  1.3371  1.3216  1.2856
  993MOL0     H34039   7.432   2.305   0.259 -1.4400  0.5938  1.5395
  993MOL0     H34040   7.221   2.348   0.180  0.8244 -1.2443 -2.5284
  993MOL0     H34041   6.966   2.812   0.087 -0.1755  0.2401 -1.1889
  993MOL0     H34042   6.752   2.903   0.011  0.7429 -0.8506 -0.7187
  993MOL0     H34043   6.404   2.782   0.279 -2.8326  0.0604 -0.1412
  993MOL0     H34044   6.389   2.687   0.127 -0.2686  0.1442 -2.0618
  993MOL0     H34045   6.297   2.919   0.030  0.5278 -1.1846 -1.5323
  993MOL0     H34046   6.306   2.963   0.204  0.6222 -2.4656  2.0694
  993MOL0     H34047   6.114   2.726   0.129 -1.1627 -1.2331  2.7392
  993MOL0     H34048   6.065   2.895   0.137 -0.1906 -0.3329 -0.2566
  993MOL0     H34049   6.210   2.754   0.373 -1.5317 -0.9403  0.0275
  993MOL0     H34050   6.141   2.912   0.364 -4.8985 -0.4272  1.4105
  993MOL0     H34051   5.817   2.658   0.449  0.9173  0.8784  1.8180
  993MOL0     H34052   6.552   2.607   0.254 -0.4095 -1.5055  1.1695
  993MOL0     H34053   6.850   2.423   0.336  0.4070  1.2446 -2.4936
  993MOL0     H34054   6.762   2.525   0.452 -0.2437 -2.5218  0.9453
  993MOL0     H34055   6.674   2.425   0.344 -1.1248  0.9360  3.4087
  994MOL0     O34056   0.143  10.902   8.889 -0.1287  0.1995  0.3036
  994MOL0     C34057   0.047  10.944   8.825 -0.0706  0.0653  0.3593
  994MOL0     O34058   0.057  11.004   8.700  0.1905  0.3694 -0.0549
  994MOL0     C34059   0.172  10.991   8.630 -0.0792 -0.5079  0.3997
  994MOL0     C34060   0.230  11.105   8.579  0.3182 -0.1846  0.4037
  994MOL0     C34061   0.362  11.098   8.526 -0.2634  0.2054 -0.4011
  994MOL0     C34062   0.431  10.972   8.518 -0.2858 -0.2407  0.0564
  994MOL0     O34063   0.555  10.968   8.456  1.4285 -0.4414  0.0064
  994MOL0     C34064   0.653  11.066   8.489 -0.2819 -0.2321  0.6277
  994MOL0     C34065   0.795  10.996   8.501  0.5250 -0.3903  0.3479
  994MOL0     C34066   0.908  11.096   8.533  0.4926  0.3335  0.2449
  994MOL0     C34067   1.045  11.020   8.538 -0.2326 -0.4369 -0.3296
  994MOL0     C34068   1.168  11.112   8.562  0.6769  0.3475  0.1577
  994MOL0     C34069   1.285  11.020   8.601  0.7990 -0.5502  0.7376
  994MOL0     C34070   1.397  11.097   8.656 -0.2137  0.0419  0.9587
  994MOL0     C34071   1.453  11.198   8.549 -0.3083 -0.0676 -1.0516
  994MOL0     N34072   1.583  11.258   8.604  0.3312  0.3731 -0.3230
  994MOL0     C34073   1.669  11.336   8.540  0.3368  0.4188  0.7151
  994MOL0     C34074   1.783  11.348   8.617  0.3363  0.5118 -0.2612
  994MOL0     C34075   1.918  11.419   8.589  0.4132 -0.1815  0.4005
  994MOL0     C34076   2.017  11.311   8.534  0.0014 -0.3373  0.3077
  994MOL0     C34077   2.158  11.371   8.518 -0.4322 -1.0379  0.3053
  994MOL0     C34078   2.260  11.282   8.456 -0.2525 -0.7106  0.2436
  994MOL0     O34079   2.362  11.368   8.415  0.5119  0.7930  0.0223
  994MOL0     C34080   2.476  11.309   8.368 -0.1204  0.1094 -0.8598
  994MOL0     C34081   2.569  11.400   8.318 -0.1765 -0.0524 -0.5199
  994MOL0     C34082   2.694  11.350   8.274 -0.7562 -1.0262 -0.4288
  994MOL0     C34083   2.726  11.213   8.270  0.2635  0.2386 -0.1303
  994MOL0     C34084   2.846  11.168   8.200  0.5096  0.1294  0.2294
  994MOL0     O34085   2.934  11.268   8.167  0.3459  0.4540  0.2591
  994MOL0     C34086   3.025  11.266   8.072 -0.4901  0.1582 -0.6948
  994MOL0     C34087   3.085  11.387   8.050 -0.7068 -0.0854 -0.7804
  994MOL0     C34088   3.194  11.398   7.966 -0.0538 -0.5188 -0.6492
  994MOL0     C34089   3.240  11.284   7.894 -0.5045 -0.2439  0.6785
  994MOL0     O34090   3.353  11.277   7.810 -0.1893 -0.3361 -0.0517
  994MOL0     C34091   3.410  11.404   7.770  1.2386 -0.7684  0.0378
  994MOL0     C34092   3.524  11.393   7.677  0.6262 -0.0023  0.4174
  994MOL0     C34093   3.640  11.348   7.752 -1.2950  0.7717  0.6718
  994MOL0     C34094   3.767  11.345   7.660 -0.2039 -0.5729  0.5402
  994MOL0     C34095   3.888  11.290   7.735 -0.5607  0.3542 -0.6392
  994MOL0     C34096   4.007  11.253   7.637  0.2444  0.5152  0.1935
  994MOL0     C34097   4.131  11.223   7.720  0.0262 -0.0220  0.8846
  994MOL0     C34098   4.260  11.245   7.651 -0.1701  0.4572  0.3690
  994MOL0    Cl34099   4.397  11.196   7.766 -0.2622  0.1774 -0.1099
  994MOL0     C34100   3.181  11.164   7.922  0.1400 -0.4090 -0.2212
  994MOL0     C34101   3.069  11.149   8.006 -0.6849 -0.8811  0.3869
  994MOL0     O34102   2.850  11.052   8.162 -0.1985  0.5609 -0.3481
  994MOL0     C34103   2.630  11.123   8.318  0.4266 -0.3569  0.0650
  994MOL0     C34104   2.506  11.171   8.373 -1.2154 -0.4737  0.7378
  994MOL0     N34105   1.749  11.289   8.736  0.4122  0.0963 -0.0758
  994MOL0     N34106   1.631  11.239   8.734 -0.2955 -0.5537  0.2175
  994MOL0     C34107   0.370  10.860   8.559  1.0270  0.5200  0.2614
  994MOL0     C34108   0.241  10.868   8.617  1.2352  1.0138  0.7604
  994MOL0     C34109  -0.088  10.930   8.882 -0.1366  0.6623  0.1049
  994MOL0     C34110  -0.199  10.941   8.795 -0.1882  0.0457 -0.9339
  994MOL0     C34111  -0.330  10.929   8.840  0.1464 -0.1807  0.1996
  994MOL0     C34112  -0.357  10.926   8.981 -0.4316 -0.4846  0.6483
  994MOL0     O34113  -0.480  10.913   9.036  0.2745 -0.2635 -0.1673
  994MOL0     C34114  -0.603  10.870   8.960 -0.6556  0.1027 -0.2700
  994MOL0     C34115  -0.716  10.900   9.053 -0.0186 -0.7089  0.4033
  994MOL0     C34116  -0.866  10.898   9.003 -0.4170 -0.0820  0.8816
  994MOL0     C34117  -0.964  10.871   9.112 -0.4212  0.0764  0.0538
  994MOL0     C34118  -1.100  10.913   9.072  0.9597 -0.5921 -0.5412
  994MOL0     C34119  -1.203  10.952   9.035 -0.0966  0.6594  0.5328
  994MOL0     C34120  -0.243  10.930   9.063 -0.3465 -0.4562  0.6013
  994MOL0     C34121  -0.112  10.927   9.014 -0.3961 -0.2479  0.6400
  994MOL0     C34122  -0.007  10.944   9.126 -0.1881 -0.3407 -0.4440
  994MOL0     H34123   0.179  11.201   8.587 -0.6923 -0.8639  2.5840
  994MOL0     H34124   0.410  11.188   8.488 -0.4823  0.9639  1.0537
  994MOL0     H34125   0.660  11.136   8.405  0.6283 -1.8943 -0.7317
  994MOL0     H34126   0.634  11.122   8.582 -0.2138 -2.1676  1.8556
  994MOL0     H34127   0.825  10.964   8.400 -0.4791  1.8052 -0.7270
  994MOL0     H34128   0.789  10.912   8.570  0.6143 -0.5801  0.1249
  994MOL0     H34129   0.900  11.146   8.630  1.2978 -2.0945  1.6267
  994MOL0     H34130   0.910  11.181   8.464  1.6870 -0.6594 -0.9813
  994MOL0     H34131   1.028  10.965   8.631  1.2744 -0.6242 -0.1485
  994MOL0     H34132   1.060  10.956   8.451 -4.3732 -0.7911 -0.9939
  994MOL0     H34133   1.177  11.183   8.480 -3.4092  1.4899  0.5026
  994MOL0     H34134   1.135  11.173   8.646 -1.3881 -1.3155  0.6477
  994MOL0     H34135   1.251  10.946   8.673  0.1767  0.0576  1.0828
  994MOL0     H34136   1.307  10.971   8.506 -2.0431 -0.3292 -0.1346
  994MOL0     H34137   1.468  11.022   8.689 -0.1049 -1.6325 -2.5866
  994MOL0     H34138   1.361  11.156   8.741 -0.9493  3.3941 -1.4604
  994MOL0     H34139   1.478  11.148   8.455  0.6521 -0.2422 -0.7178
  994MOL0     H34140   1.378  11.276   8.528  0.9377  0.9109 -2.0458
  994MOL0     H34141   1.657  11.363   8.436 -0.4653  1.3091  1.0315
  994MOL0     H34142   1.909  11.496   8.511  3.0360  1.9144  2.0004
  994MOL0     H34143   1.953  11.468   8.680  0.4208 -1.5955  1.1856
  994MOL0     H34144   2.024  11.229   8.606  2.8379  0.2477  0.8080
  994MOL0     H34145   1.979  11.261   8.444 -2.8747  3.2026 -0.7123
  994MOL0     H34146   2.194  11.401   8.617 -0.5702 -3.2044  1.0850
  994MOL0     H34147   2.159  11.467   8.468 -2.5793  1.8523  5.0561
  994MOL0     H34148   2.226  11.230   8.365 -2.0113 -0.3118  0.6312
  994MOL0     H34149   2.302  11.208   8.525  2.3739 -0.3130 -0.7923
  994MOL0     H34150   2.539  11.503   8.303  1.8288  0.0878 -5.5600
  994MOL0     H34151   2.756  11.426   8.228  0.8144 -3.1133 -1.9395
  994MOL0     H34152   3.043  11.467   8.109  2.3724  2.2016 -1.4215
  994MOL0     H34153   3.247  11.492   7.962  2.4668 -1.7369  0.9575
  994MOL0     H34154   3.334  11.458   7.714  2.0155  0.3383  0.0153
  994MOL0     H34155   3.439  11.470   7.853 -0.2454  0.9617 -0.7675
  994MOL0     H34156   3.500  11.339   7.585  2.1599 -0.8767  0.5025
  994MOL0     H34157   3.550  11.492   7.638  2.1155 -1.2387 -1.9599
  994MOL0     H34158   3.655  11.412   7.839 -0.5760  0.5296  0.7272
  994MOL0     H34159   3.617  11.249   7.791  2.0934 -0.1196  0.7221
  994MOL0     H34160   3.795  11.443   7.623 -1.4179  0.2312  1.6338
  994MOL0     H34161   3.753  11.276   7.576 -0.9037  0.5191 -0.2681
  994MOL0     H34162   3.868  11.209   7.806 -0.9820  2.5801  1.9226
  994MOL0     H34163   3.927  11.369   7.800  0.3364 -0.4080 -0.2147
  994MOL0     H34164   3.977  11.168   7.575  1.0104 -0.8417  1.6328
  994MOL0     H34165   4.022  11.343   7.576  0.7168 -0.6866 -1.5579
  994MOL0     H34166   4.118  11.118   7.749 -0.4255 -1.0538 -2.5678
  994MOL0     H34167   4.141  11.285   7.809  3.0780  1.5050 -0.3853
  994MOL0     H34168   4.251  11.185   7.560  0.5697 -0.0203  0.6033
  994MOL0     H34169   4.271  11.350   7.622 -1.7207  1.0117  1.6274
  994MOL0     H34170   3.225  11.074   7.880 -0.2643 -0.2957 -0.8970
  994MOL0     H34171   3.031  11.050   8.031  1.2938 -0.6607  5.2906
  994MOL0     H34172   2.650  11.017   8.320 -2.6003 -1.0247 -0.2126
  994MOL0     H34173   2.437  11.100   8.417 -0.1431 -1.1950  1.3040
  994MOL0     H34174   0.406  10.757   8.550  3.1177  0.8677  3.2516
  994MOL0     H34175   0.197  10.781   8.664 -1.7065  2.4878  0.9425
  994MOL0     H34176  -0.184  10.949   8.688 -0.6087  0.7194 -0.9469
  994MOL0     H34177  -0.416  10.934   8.774 -0.7989  3.3996  1.4512
  994MOL0     H34178  -0.598  10.763   8.938  2.6128  0.0067  0.5259
  994MOL0     H34179  -0.617  10.934   8.873  0.7146  0.8618  0.0407
  994MOL0     H34180  -0.698  10.998   9.098  0.6959 -0.6849  0.0693
  994MOL0     H34181  -0.707  10.825   9.133  0.4726 -0.2634  0.7719
  994MOL0     H34182  -0.872  10.814   8.934  1.3502 -1.3666  2.2144
  994MOL0     H34183  -0.870  10.993   8.947 -0.5944  1.4229  3.3183
  994MOL0     H34184  -0.962  10.769   9.151 -1.5249  0.1433  0.3180
  994MOL0     H34185  -0.930  10.941   9.189  0.9524  0.0429 -0.4921
  994MOL0     H34186  -1.293  10.993   8.994 -0.6697  1.1884  2.2350
  994MOL0     H34187  -0.259  10.929   9.171 -0.8934  0.1213  0.5316
  994MOL0     H34188  -0.048  10.935   9.228 -0.8241 -0.9072 -0.7397
  994MOL0     H34189   0.068  10.864   9.122  1.3046  0.9862  0.2395
  994MOL0     H34190   0.033  11.045   9.124 -0.3615 -0.2552  0.1749
  995MOL0     O34191   3.234   7.147  10.705  0.1355  0.1837  0.2381
  995MOL0     C34192   3.197   7.161  10.820  0.0492 -0.7692  0.5959
  995MOL0     O34193   3.274   7.119  10.926 -0.4548  0.5099  0.2382
  995MOL0     C34194   3.404   7.080  10.897 -0.1190  0.2411  0.4570
  995MOL0     C34195   3.458   6.972  10.964  0.2287 -1.0276  0.2038
  995MOL0     C34196   3.587   6.925  10.946 -0.1227 -0.1445  0.9127
  995MOL0     C34197   3.673   6.990  10.863 -0.8120  0.4511 -0.2888
  995MOL0     O34198   3.795   6.935  10.856  0.2496 -0.2028 -0.7385
  995MOL0     C34199   3.874   6.986  10.743 -0.0682  0.7127 -0.1995
  995MOL0     C34200   4.008   6.915  10.731 -1.0408 -0.8365 -0.0140
  995MOL0     C34201   4.088   6.899  10.856  0.0930  0.5396  0.1577
  995MOL0     C34202   4.217   6.818  10.837  0.6216 -0.6273  0.5096
  995MOL0     C34203   4.283   6.774  10.973 -0.1581  0.0784 -1.3224
  995MOL0     C34204   4.296   6.626  10.999 -0.2397  0.0743  0.7169
  995MOL0     C34205   4.364   6.590  11.134 -0.1975 -0.2577  0.9131
  995MOL0     C34206   4.515   6.631  11.144  0.2528  0.1457 -0.3788
  995MOL0     N34207   4.568   6.573  11.273  0.1003 -0.7525  0.0334
  995MOL0     C34208   4.528   6.599  11.402 -0.0101  1.5956 -0.0246
  995MOL0     C34209   4.624   6.549  11.482  0.4811  0.0228  0.3510
  995MOL0     C34210   4.640   6.576  11.629 -0.5042  0.6274  0.3656
  995MOL0     C34211   4.674   6.714  11.668  0.2783 -0.7678  0.1833
  995MOL0     C34212   4.804   6.771  11.611  0.5505  0.0216  0.6409
  995MOL0     C34213   4.930   6.708  11.664  0.3037 -0.0671 -0.9695
  995MOL0     O34214   5.036   6.714  11.569  0.2738  0.5643 -0.0998
  995MOL0     C34215   5.165   6.704  11.620 -0.3008 -0.1126 -0.7827
  995MOL0     C34216   5.206   6.646  11.744  0.5029  0.6146  0.1464
  995MOL0     C34217   5.342   6.640  11.781 -0.3304 -0.3670 -0.4856
  995MOL0     C34218   5.441   6.703  11.696  1.0894 -0.3535  0.3263
  995MOL0     C34219   5.590   6.691  11.722  0.8683 -0.3818  0.8255
  995MOL0     O34220   5.635   6.627  11.832 -0.2962  0.2624  0.0718
  995MOL0     C34221   5.765   6.613  11.869  0.3513 -0.0821  1.1341
  995MOL0     C34222   5.789   6.594  12.005  0.3072  0.6514  0.3314
  995MOL0     C34223   5.916   6.571  12.057 -0.3776  0.8148  0.1825
  995MOL0     C34224   6.027   6.574  11.971  0.4464  0.2228  0.0883
  995MOL0     O34225   6.151   6.560  12.013 -0.1825  0.1101 -0.0623
  995MOL0     C34226   6.171   6.515  12.149  0.3933 -0.2145 -0.3961
  995MOL0     C34227   6.315   6.466  12.154  0.1763  0.6691 -0.0598
  995MOL0     C34228   6.347   6.348  12.064 -0.4065 -0.0183 -0.5985
  995MOL0     C34229   6.460   6.377  11.964 -0.7302 -0.6470  0.5726
  995MOL0     C34230   6.488   6.264  11.864  0.0907 -0.3900  0.3595
  995MOL0     C34231   6.640   6.271  11.821 -0.2453 -0.3646  0.0350
  995MOL0     C34232   6.682   6.160  11.735  0.3849  0.1188 -0.0939
  995MOL0     C34233   6.641   6.179  11.589 -0.6827  0.0969  0.2227
  995MOL0    Cl34234   6.771   6.107  11.493  0.3072 -0.0862  0.0226
  995MOL0     C34235   6.005   6.611  11.840 -0.0064  0.3844 -0.1757
  995MOL0     C34236   5.879   6.631  11.797  0.9952 -0.1271  0.4462
  995MOL0     O34237   5.654   6.743  11.630  0.0699  0.6120 -0.2293
  995MOL0     C34238   5.393   6.766  11.581 -0.9380  0.2220 -0.6287
  995MOL0     C34239   5.261   6.765  11.536 -0.1865 -0.8345  0.4723
  995MOL0     N34240   4.717   6.480  11.404  0.3315  0.1706  0.6507
  995MOL0     N34241   4.682   6.498  11.279 -0.1163 -0.3131  0.1042
  995MOL0     C34242   3.626   7.104  10.801  0.6584 -0.5409 -0.3142
  995MOL0     C34243   3.497   7.149  10.820  0.3788  0.1796 -0.2572
  995MOL0     C34244   3.078   7.249  10.850 -0.2544 -1.0465  0.3197
  995MOL0     C34245   3.073   7.321  10.971 -0.6711  0.0019  0.0320
  995MOL0     C34246   2.972   7.402  11.004  0.3262  0.5724  0.2187
  995MOL0     C34247   2.868   7.426  10.920 -0.1752 -0.0537 -0.3414
  995MOL0     O34248   2.767   7.512  10.952 -0.6661 -0.0615 -1.2885
  995MOL0     C34249   2.726   7.511  11.085  0.0337  0.3665 -0.3521
  995MOL0     C34250   2.567   7.530  11.099 -0.3073  0.4162 -0.7077
  995MOL0     C34251   2.483   7.447  10.995 -0.1821 -0.0236 -0.1272
  995MOL0     C34252   2.329   7.481  11.010  0.1144  0.0216 -0.1621
  995MOL0     C34253   2.276   7.409  11.125 -0.4421  0.3942  0.1699
  995MOL0     C34254   2.236   7.346  11.215 -0.2087 -0.1011 -0.7572
  995MOL0     C34255   2.877   7.377  10.795  0.0517 -0.4339  0.2192
  995MOL0     C34256   2.971   7.276  10.755 -0.7630  0.1986  0.0727
  995MOL0     C34257   2.967   7.211  10.618 -0.2822 -0.5995 -1.3310
  995MOL0     H34258   3.394   6.906  11.022 -1.5866  0.4062 -0.0587
  995MOL0     H34259   3.633   6.853  11.011  2.9825 -0.5595 -1.5139
  995MOL0     H34260   3.822   6.985  10.647 -1.9861 -0.7658  0.7875
  995MOL0     H34261   3.901   7.090  10.759  0.2127  0.6553 -0.2819
  995MOL0     H34262   4.076   6.953  10.654 -1.2336 -2.4955 -1.0523
  995MOL0     H34263   3.979   6.818  10.690 -2.0453  0.4303 -2.5577
  995MOL0     H34264   4.021   6.857  10.931  0.3888 -4.5776 -1.9810
  995MOL0     H34265   4.115   7.002  10.880 -2.7824  0.8183  2.8540
  995MOL0     H34266   4.186   6.730  10.780  0.0143  1.0776 -1.9322
  995MOL0     H34267   4.293   6.874  10.781 -0.4951  1.1833  0.7333
  995MOL0     H34268   4.384   6.816  10.972  0.6438 -1.6528  0.5695
  995MOL0     H34269   4.237   6.818  11.061 -0.2805 -0.6003 -1.0400
  995MOL0     H34270   4.202   6.574  10.979 -0.5539  0.9206 -0.0441
  995MOL0     H34271   4.361   6.582  10.922 -1.6165  1.4461 -1.3254
  995MOL0     H34272   4.357   6.481  11.147 -3.9134  0.0585  3.0458
  995MOL0     H34273   4.316   6.644  11.216  0.6508 -0.6974  1.7133
  995MOL0     H34274   4.575   6.594  11.060  1.8548  1.4505  0.1099
  995MOL0     H34275   4.512   6.740  11.138 -0.3268  0.0494 -2.2288
  995MOL0     H34276   4.449   6.662  11.440 -1.7132 -0.8003  0.6498
  995MOL0     H34277   4.547   6.544  11.678  1.9338 -2.1383  3.7133
  995MOL0     H34278   4.712   6.510  11.676 -1.6639  0.7512  2.4416
  995MOL0     H34279   4.596   6.774  11.622  1.0269 -0.0313 -0.1642
  995MOL0     H34280   4.669   6.744  11.773  0.6253 -0.6722  0.1744
  995MOL0     H34281   4.814   6.880  11.606 -1.1795  0.1373 -2.4635
  995MOL0     H34282   4.801   6.735  11.508  2.9771  2.8157 -0.5349
  995MOL0     H34283   4.915   6.605  11.695 -0.7563  1.0727  2.8713
  995MOL0     H34284   4.965   6.757  11.756  0.6491  2.4825 -2.3713
  995MOL0     H34285   5.139   6.612  11.822  0.6542 -0.1413 -0.0414
  995MOL0     H34286   5.374   6.606  11.879 -2.2921  0.7896  0.6217
  995MOL0     H34287   5.699   6.578  12.064  0.9398 -0.9872  0.9042
  995MOL0     H34288   5.920   6.536  12.160 -0.7909 -1.7661 -0.5978
  995MOL0     H34289   6.165   6.599  12.219  0.1716  0.3215 -1.0377
  995MOL0     H34290   6.106   6.432  12.176 -2.2132  0.7874 -3.0046
  995MOL0     H34291   6.380   6.550  12.128  0.1530  0.5933 -0.3728
  995MOL0     H34292   6.323   6.451  12.262  1.7485  2.0003  0.0424
  995MOL0     H34293   6.375   6.261  12.125 -1.9406 -0.3391 -0.2944
  995MOL0     H34294   6.258   6.314  12.010  0.1426 -2.2879 -0.1868
  995MOL0     H34295   6.546   6.388  12.032 -0.9848  1.5613  0.6102
  995MOL0     H34296   6.438   6.467  11.905 -1.3726 -0.1967  1.4664
  995MOL0     H34297   6.428   6.291  11.777 -0.0643  2.0530  1.1367
  995MOL0     H34298   6.465   6.164  11.901 -1.6920  0.2904  1.2219
  995MOL0     H34299   6.656   6.371  11.780 -1.8093 -0.1805 -0.1869
  995MOL0     H34300   6.705   6.258  11.907  1.1181  2.0626 -0.5502
  995MOL0     H34301   6.635   6.074  11.784  0.3309 -1.0754 -2.1629
  995MOL0     H34302   6.790   6.148  11.743  0.5773  0.2432 -2.1169
  995MOL0     H34303   6.551   6.123  11.561 -0.0835 -1.7114  1.6470
  995MOL0     H34304   6.632   6.286  11.571  4.3540  0.7237  0.2444
  995MOL0     H34305   6.084   6.606  11.766  0.3497  0.1109  0.2191
  995MOL0     H34306   5.865   6.667  11.695 -2.1690  2.4583  1.6042
  995MOL0     H34307   5.459   6.824  11.517 -0.1361 -2.5676 -2.5476
  995MOL0     H34308   5.231   6.807  11.440  3.0453  0.9676  0.1162
  995MOL0     H34309   3.680   7.166  10.730 -2.0240 -0.4717 -2.4824
  995MOL0     H34310   3.467   7.241  10.772 -1.3770  0.0195  0.4556
  995MOL0     H34311   3.149   7.302  11.047 -2.0430 -1.6215  1.0747
  995MOL0     H34312   2.980   7.455  11.098  0.7085  0.3151  0.3319
  995MOL0     H34313   2.773   7.595  11.137 -2.3642  1.0357  0.8918
  995MOL0     H34314   2.749   7.419  11.139 -0.3518 -0.0977 -0.9758
  995MOL0     H34315   2.549   7.638  11.094  1.1266  0.7565  0.8576
  995MOL0     H34316   2.536   7.498  11.199  1.4037  1.0896  0.0736
  995MOL0     H34317   2.494   7.341  11.017  2.2545 -0.2271 -1.8962
  995MOL0     H34318   2.514   7.480  10.895 -0.3067  0.5238  0.0071
  995MOL0     H34319   2.316   7.588  11.028  0.7830 -0.0929  1.1237
  995MOL0     H34320   2.261   7.452  10.930 -0.3023  0.5484 -0.0073
  995MOL0     H34321   2.196   7.283  11.292  0.1637 -0.3914 -0.7946
  995MOL0     H34322   2.799   7.414  10.730  0.7803  0.8774  0.0564
  995MOL0     H34323   2.867   7.226  10.577 -1.6268 -0.9894  1.6189
  995MOL0     H34324   3.037   7.267  10.554 -0.5502  0.7784 -0.4745
  995MOL0     H34325   2.994   7.105  10.612  0.7321 -0.3855 -0.8536
  996MOL0     O34326   0.193   8.323   9.009 -0.4731 -0.7131 -0.4370
  996MOL0     C34327   0.123   8.394   8.935  0.8778 -0.0993 -0.7236
  996MOL0     O34328   0.163   8.445   8.819 -0.4071  0.1953  0.2652
  996MOL0     C34329   0.295   8.409   8.798  0.4648 -0.3596 -0.3549
  996MOL0     C34330   0.401   8.491   8.832  0.1915  0.4194  0.5093
  996MOL0     C34331   0.536   8.454   8.804  0.0133 -0.0404  0.5186
  996MOL0     C34332   0.560   8.329   8.734  1.1979  0.0421 -0.1662
  996MOL0     O34333   0.688   8.281   8.706  0.4433  0.4454  0.0615
  996MOL0     C34334   0.797   8.366   8.743  0.1338  0.1708  1.3871
  996MOL0     C34335   0.906   8.319   8.640  0.0511  0.5552  0.3097
  996MOL0     C34336   1.036   8.373   8.684 -0.3149 -0.1444  0.0127
  996MOL0     C34337   1.155   8.335   8.594  0.3850 -0.0828  0.3013
  996MOL0     C34338   1.291   8.325   8.670  0.3378 -0.0109 -0.7522
  996MOL0     C34339   1.402   8.282   8.571 -0.6481 -0.4105  0.6093
  996MOL0     C34340   1.544   8.288   8.627 -0.1435  1.2011 -1.1524
  996MOL0     C34341   1.558   8.190   8.744  0.9724 -0.1630 -0.3210
  996MOL0     N34342   1.697   8.196   8.778 -0.2008 -0.0160  0.2677
  996MOL0     C34343   1.743   8.290   8.870  1.0588 -0.1822  0.5481
  996MOL0     C34344   1.871   8.260   8.894 -0.5843 -0.0630 -0.3123
  996MOL0     C34345   1.954   8.321   9.006  0.1331  0.3096 -0.7359
  996MOL0     C34346   2.046   8.230   9.085  0.2503 -0.7378  0.4492
  996MOL0     C34347   1.957   8.130   9.161 -0.3661 -0.9433 -0.1903
  996MOL0     C34348   2.052   8.030   9.235 -0.4722 -0.2308  0.3657
  996MOL0     O34349   2.133   8.103   9.333 -0.1694 -0.0150 -0.4499
  996MOL0     C34350   2.243   8.038   9.377 -0.2376  0.2866 -0.6150
  996MOL0     C34351   2.247   7.974   9.507 -0.2477  0.3997  0.1637
  996MOL0     C34352   2.359   7.904   9.552 -0.0783  0.0813 -0.6850
  996MOL0     C34353   2.461   7.889   9.463  1.1131 -0.3657 -0.0900
  996MOL0     C34354   2.581   7.805   9.511  0.4584 -0.5206  0.2455
  996MOL0     O34355   2.688   7.802   9.417  0.4974 -1.2659  0.1391
  996MOL0     C34356   2.802   7.726   9.439  0.5609  0.5490  0.1918
  996MOL0     C34357   2.877   7.717   9.561  0.0403  0.0741  0.3648
  996MOL0     C34358   2.994   7.632   9.562  0.0737  0.0710  0.1535
  996MOL0     C34359   3.036   7.555   9.457  0.4525 -0.4889  0.7140
  996MOL0     O34360   3.154   7.483   9.463 -0.0141 -0.4102  0.3957
  996MOL0     C34361   3.218   7.438   9.346 -0.0213  0.1985 -0.4925
  996MOL0     C34362   3.340   7.348   9.372 -0.5643  0.4480  0.1463
  996MOL0     C34363   3.302   7.220   9.443 -0.1815  0.1818  0.3671
  996MOL0     C34364   3.416   7.116   9.456 -0.3365 -0.1766 -0.3928
  996MOL0     C34365   3.367   6.981   9.507 -0.5096 -0.3224 -0.7209
  996MOL0     C34366   3.481   6.881   9.530 -0.5311 -0.0136  0.3936
  996MOL0     C34367   3.556   6.839   9.395  0.5174 -0.3731  0.3589
  996MOL0     C34368   3.646   6.718   9.420  0.2547 -0.0625  0.3178
  996MOL0    Cl34369   3.765   6.772   9.530 -0.1355  0.2084  0.1169
  996MOL0     C34370   2.961   7.566   9.336  0.5363  0.5114 -0.9032
  996MOL0     C34371   2.847   7.645   9.328 -0.3244 -0.0065 -0.8085
  996MOL0     O34372   2.576   7.750   9.622 -0.2278 -0.0796  0.1217
  996MOL0     C34373   2.465   7.943   9.335  0.5324 -0.0977  0.3729
  996MOL0     C34374   2.355   8.023   9.300  0.0066 -1.3177 -0.3843
  996MOL0     N34375   1.896   8.136   8.832  0.0661  0.1704 -0.2924
  996MOL0     N34376   1.790   8.098   8.763 -0.3085 -0.4013 -0.9859
  996MOL0     C34377   0.454   8.246   8.705  0.4131  0.6701 -0.3476
  996MOL0     C34378   0.323   8.285   8.734 -0.0456 -0.5269 -1.1527
  996MOL0     C34379  -0.013   8.440   8.975  0.2299  0.3935  0.4599
  996MOL0     C34380  -0.076   8.526   8.886  0.7417 -0.4600 -0.3540
  996MOL0     C34381  -0.205   8.579   8.916 -0.3859  0.0817 -0.3608
  996MOL0     C34382  -0.261   8.555   9.044  0.0806  0.2786 -0.5238
  996MOL0     O34383  -0.380   8.624   9.050  0.1386 -0.2289  0.2358
  996MOL0     C34384  -0.475   8.598   9.162  0.1665  0.5690 -0.0218
  996MOL0     C34385  -0.510   8.731   9.229  0.5682  0.3203  0.1242
  996MOL0     C34386  -0.389   8.805   9.288 -0.3830 -1.2090  0.2671
  996MOL0     C34387  -0.426   8.940   9.350 -0.6912  0.2364 -1.0039
  996MOL0     C34388  -0.456   8.926   9.491  0.1521 -0.7957 -0.8598
  996MOL0     C34389  -0.464   8.916   9.613 -0.6295  0.2074  1.0659
  996MOL0     C34390  -0.193   8.474   9.135 -0.6183  0.3301  0.0086
  996MOL0     C34391  -0.074   8.408   9.103 -0.2341 -0.5926 -0.0585
  996MOL0     C34392  -0.014   8.311   9.208 -0.0604  0.5205 -0.4979
  996MOL0     H34393   0.382   8.586   8.882  2.2118  2.7053 -2.7124
  996MOL0     H34394   0.613   8.526   8.834  0.1958 -0.5123  1.2117
  996MOL0     H34395   0.775   8.471   8.721  0.7938  0.2089  0.8680
  996MOL0     H34396   0.839   8.357   8.844  2.2491  1.6087  0.6965
  996MOL0     H34397   0.886   8.360   8.541  0.6794  1.2723  0.4654
  996MOL0     H34398   0.891   8.212   8.626  0.5723  0.6105 -0.7744
  996MOL0     H34399   1.057   8.329   8.781 -0.4922  0.7038  0.4416
  996MOL0     H34400   1.027   8.481   8.696 -1.0729 -0.4116  2.1776
  996MOL0     H34401   1.130   8.244   8.539 -1.0372 -0.7113  1.9175
  996MOL0     H34402   1.172   8.413   8.518  1.1239 -0.1947  0.3403
  996MOL0     H34403   1.314   8.419   8.721  0.0476 -0.9860  1.2951
  996MOL0     H34404   1.287   8.243   8.742 -0.7370 -0.2155 -1.0155
  996MOL0     H34405   1.371   8.188   8.526 -0.8630 -0.3039  0.5309
  996MOL0     H34406   1.404   8.357   8.492  0.4223 -0.2812  0.7540
  996MOL0     H34407   1.560   8.393   8.653 -1.7340  0.8387  1.5607
  996MOL0     H34408   1.607   8.247   8.547 -1.8564 -0.3386 -1.7734
  996MOL0     H34409   1.496   8.210   8.832  0.7481  0.6470 -0.6616
  996MOL0     H34410   1.537   8.091   8.702  1.6693  0.2577 -1.7222
  996MOL0     H34411   1.693   8.375   8.916 -0.9655 -0.0310 -1.7225
  996MOL0     H34412   2.019   8.403   8.973  1.0732  1.1954  2.8780
  996MOL0     H34413   1.892   8.362   9.085  0.0931 -1.6604  0.3149
  996MOL0     H34414   2.119   8.182   9.019 -1.7577 -0.4116 -2.1706
  996MOL0     H34415   2.103   8.298   9.150  1.5365 -0.1609 -1.2319
  996MOL0     H34416   1.902   8.071   9.087 -1.3797 -0.9398  0.5450
  996MOL0     H34417   1.893   8.186   9.229  1.2703  2.1317 -0.9861
  996MOL0     H34418   2.118   7.979   9.165  1.9394 -0.0063  2.3489
  996MOL0     H34419   1.998   7.946   9.281  0.4445  0.8061  3.5567
  996MOL0     H34420   2.159   7.978   9.570  0.9839 -0.9830  2.0950
  996MOL0     H34421   2.356   7.859   9.651 -0.2092  1.1248 -0.2032
  996MOL0     H34422   2.842   7.773   9.647 -0.8122 -0.8849  0.6708
  996MOL0     H34423   3.057   7.627   9.650  1.5100 -2.9497 -0.9314
  996MOL0     H34424   3.149   7.375   9.289  1.8353 -0.9107 -1.6322
  996MOL0     H34425   3.247   7.517   9.276  0.5305  0.5551  0.1195
  996MOL0     H34426   3.383   7.311   9.279 -3.5019 -1.3820 -0.6544
  996MOL0     H34427   3.406   7.411   9.432  1.4621 -1.0782 -0.3795
  996MOL0     H34428   3.259   7.223   9.543 -0.8211 -1.5916  0.1883
  996MOL0     H34429   3.227   7.174   9.377  1.4817 -1.9596 -0.1688
  996MOL0     H34430   3.491   7.159   9.523 -1.6408  1.1028  0.3057
  996MOL0     H34431   3.462   7.101   9.358  2.2384 -0.1541  0.7431
  996MOL0     H34432   3.296   6.945   9.431 -3.5794  0.8977  1.3486
  996MOL0     H34433   3.314   7.000   9.601  0.8129  0.0253 -0.0356
  996MOL0     H34434   3.541   6.930   9.607 -1.1954  0.4333  0.6356
  996MOL0     H34435   3.431   6.794   9.574  0.0362 -0.6816 -0.2545
  996MOL0     H34436   3.619   6.920   9.356 -3.0689  1.3009 -2.5231
  996MOL0     H34437   3.488   6.812   9.315  0.3192 -1.3304  0.8336
  996MOL0     H34438   3.593   6.634   9.466  2.5975 -3.8377 -3.1804
  996MOL0     H34439   3.683   6.678   9.325 -2.9579 -2.0774 -0.2764
  996MOL0     H34440   2.991   7.518   9.243 -1.5223  1.1614 -1.9702
  996MOL0     H34441   2.788   7.625   9.240 -0.8496 -2.6137  0.0528
  996MOL0     H34442   2.538   7.925   9.256 -0.6190  0.6014 -0.9033
  996MOL0     H34443   2.358   8.084   9.210  1.0150  3.0361  2.3302
  996MOL0     H34444   0.475   8.152   8.656 -2.3314 -0.7795  1.0470
  996MOL0     H34445   0.243   8.218   8.703 -0.1155 -0.2636 -1.5448
  996MOL0     H34446  -0.029   8.575   8.801 -0.7826  0.9795 -0.4111
  996MOL0     H34447  -0.248   8.654   8.851  3.6337  2.9076 -0.1468
  996MOL0     H34448  -0.436   8.534   9.241 -0.6279 -0.8846 -0.7574
  996MOL0     H34449  -0.556   8.545   9.110 -0.2181  1.2699 -0.1609
  996MOL0     H34450  -0.585   8.713   9.307  0.2221  1.0687 -0.0274
  996MOL0     H34451  -0.559   8.786   9.148  1.5914 -0.5820 -1.1499
  996MOL0     H34452  -0.330   8.828   9.199 -0.3933  1.3029  0.8448
  996MOL0     H34453  -0.340   8.742   9.363  2.0702  0.6386  0.3404
  996MOL0     H34454  -0.346   9.014   9.338 -0.3867  0.4177  1.5956
  996MOL0     H34455  -0.515   8.975   9.295 -0.8792  0.6071 -0.4678
  996MOL0     H34456  -0.462   8.928   9.720 -3.1021  2.9574  0.9558
  996MOL0     H34457  -0.239   8.454   9.231  0.2825 -0.9679  0.1857
  996MOL0     H34458  -0.043   8.208   9.187  0.0325  0.3867  0.0231
  996MOL0     H34459   0.091   8.328   9.234  0.1152 -0.3781 -0.5678
  996MOL0     H34460  -0.068   8.329   9.301  1.5227  3.2624 -0.0017
  997MOL0     O34461   3.124   2.357   8.070  0.7014 -0.2091  0.1427
  997MOL0     C34462   3.034   2.435   8.097  0.1375 -0.0898 -0.0697
  997MOL0     O34463   3.033   2.565   8.059 -0.3601 -0.3391  0.0535
  997MOL0     C34464   3.111   2.610   7.959  0.2573 -0.0576 -0.1916
  997MOL0     C34465   3.126   2.538   7.840  0.2584 -0.2152 -0.0142
  997MOL0     C34466   3.234   2.571   7.758  0.6699  0.1083 -0.2925
  997MOL0     C34467   3.324   2.678   7.785  0.9661 -0.1193 -1.3856
  997MOL0     O34468   3.424   2.693   7.697  0.2396 -0.0963  0.0712
  997MOL0     C34469   3.522   2.791   7.741  0.4712 -0.4840 -0.0966
  997MOL0     C34470   3.649   2.782   7.657  0.9491 -0.7547 -0.5491
  997MOL0     C34471   3.724   2.649   7.694  0.1545 -0.7405 -1.5169
  997MOL0     C34472   3.852   2.624   7.613 -0.3349 -0.0411  0.0255
  997MOL0     C34473   3.819   2.650   7.465 -0.4916  0.1133 -0.5973
  997MOL0     C34474   3.932   2.589   7.370 -0.5832  0.4600 -0.4386
  997MOL0     C34475   3.893   2.576   7.226 -0.0534 -1.0611  0.5601
  997MOL0     C34476   4.013   2.535   7.132 -0.2108  0.0059 -0.7296
  997MOL0     N34477   4.114   2.643   7.146 -0.7455 -0.0254 -0.6014
  997MOL0     C34478   4.122   2.762   7.080 -0.2505  0.1694  0.6218
  997MOL0     C34479   4.240   2.823   7.128  0.1259 -0.3106 -0.4696
  997MOL0     C34480   4.279   2.968   7.100  0.1854  0.1851  0.0174
  997MOL0     C34481   4.410   3.013   7.180  0.5030  0.9853 -0.2007
  997MOL0     C34482   4.545   2.982   7.111 -0.0139  0.6734 -0.7150
  997MOL0     C34483   4.641   3.055   7.201  0.0223  0.4157  0.4875
  997MOL0     O34484   4.637   3.200   7.185 -1.1416  0.3339  0.0837
  997MOL0     C34485   4.736   3.286   7.218  0.0405  0.1237  0.3198
  997MOL0     C34486   4.719   3.404   7.158 -0.3515 -0.9982  0.2191
  997MOL0     C34487   4.821   3.500   7.176  0.2757 -0.1223  0.1060
  997MOL0     C34488   4.934   3.476   7.248 -0.3421  0.1449  0.5623
  997MOL0     C34489   5.047   3.571   7.259 -0.2602  0.3875  0.1198
  997MOL0     O34490   5.050   3.681   7.175  0.3286  0.3093  0.1263
  997MOL0     C34491   5.145   3.774   7.193  0.3328 -0.2342  0.9357
  997MOL0     C34492   5.118   3.895   7.264 -0.2768 -0.3052 -1.0279
  997MOL0     C34493   5.216   3.995   7.279  0.3991  0.3275  0.4081
  997MOL0     C34494   5.342   3.978   7.217  0.9343 -0.1687 -0.5513
  997MOL0     O34495   5.442   4.075   7.229  0.0540 -0.1104 -0.1460
  997MOL0     C34496   5.442   4.184   7.316 -0.3042 -0.3093 -0.9320
  997MOL0     C34497   5.582   4.231   7.346  0.8496  0.1925  0.4677
  997MOL0     C34498   5.659   4.275   7.215  0.2775  0.2302 -0.3210
  997MOL0     C34499   5.774   4.376   7.230  1.5578 -0.1108  0.2230
  997MOL0     C34500   5.843   4.416   7.092 -0.2234 -0.1110 -0.8620
  997MOL0     C34501   5.902   4.286   7.017  0.3344 -0.5313  0.2927
  997MOL0     C34502   6.009   4.214   7.101  0.4716 -0.2824 -0.4839
  997MOL0     C34503   6.081   4.102   7.019  0.3085 -0.4304 -0.1194
  997MOL0    Cl34504   5.974   3.961   6.976  0.0535 -0.0887 -0.8115
  997MOL0     C34505   5.372   3.860   7.145  0.4185  0.3237 -0.4378
  997MOL0     C34506   5.273   3.760   7.128  0.6025 -0.9058 -0.1530
  997MOL0     O34507   5.137   3.545   7.338 -0.3569 -0.1456  0.4769
  997MOL0     C34508   4.945   3.358   7.316 -0.1700 -0.1211  0.9027
  997MOL0     C34509   4.840   3.260   7.304  0.7398  0.5145  0.2578
  997MOL0     N34510   4.294   2.740   7.226 -0.0933  0.4330  0.7357
  997MOL0     N34511   4.221   2.633   7.225  0.1901  0.4424  0.2145
  997MOL0     C34512   3.295   2.750   7.905 -0.3067  0.0313 -0.3264
  997MOL0     C34513   3.188   2.719   7.989  0.0244  0.7790  0.2831
  997MOL0     C34514   2.925   2.379   8.179 -0.3496 -0.0122 -0.0488
  997MOL0     C34515   2.947   2.272   8.257 -0.6248  0.0083  0.0550
  997MOL0     C34516   2.852   2.212   8.340  0.1418  0.2244 -0.0293
  997MOL0     C34517   2.727   2.274   8.334  0.4241 -0.2714 -1.4498
  997MOL0     O34518   2.627   2.221   8.411  0.3978 -0.8588  0.9676
  997MOL0     C34519   2.489   2.246   8.373 -0.2782 -0.3177 -0.1331
  997MOL0     C34520   2.402   2.154   8.450 -0.2780 -1.0548  0.3453
  997MOL0     C34521   2.251   2.185   8.431 -1.2265  0.2027  0.2264
  997MOL0     C34522   2.159   2.065   8.470  0.6587 -0.2670 -0.2308
  997MOL0     C34523   2.128   2.070   8.614  1.3427  0.1241 -0.1548
  997MOL0     C34524   2.063   2.071   8.718  0.1845  0.3970  0.2423
  997MOL0     C34525   2.702   2.388   8.261 -0.1984 -0.8719 -0.5582
  997MOL0     C34526   2.797   2.447   8.177 -0.5176  0.1204 -0.7201
  997MOL0     C34527   2.763   2.575   8.110 -0.3124  0.6586  0.3289
  997MOL0     H34528   3.077   2.444   7.816  2.0295 -1.0828 -0.4036
  997MOL0     H34529   3.256   2.526   7.662 -0.4528 -1.4545  0.1454
  997MOL0     H34530   3.487   2.894   7.733  2.3423  0.1993 -0.0892
  997MOL0     H34531   3.552   2.779   7.846 -0.0961  0.4266  0.1843
  997MOL0     H34532   3.715   2.868   7.673  0.9697 -0.7067 -0.8733
  997MOL0     H34533   3.617   2.775   7.552 -1.6013  0.1732  0.0951
  997MOL0     H34534   3.652   2.568   7.674  0.9087 -2.9174  3.2065
  997MOL0     H34535   3.744   2.645   7.802 -1.7765 -0.4758 -1.1058
  997MOL0     H34536   3.938   2.684   7.644  1.4648 -1.8451 -1.1737
  997MOL0     H34537   3.885   2.520   7.620  0.0870  0.2137  2.7037
  997MOL0     H34538   3.722   2.606   7.440 -0.7213  1.4125 -2.1007
  997MOL0     H34539   3.807   2.757   7.445  1.7082  0.8682  1.5495
  997MOL0     H34540   4.021   2.651   7.383  0.4043 -1.3755  2.7282
  997MOL0     H34541   3.954   2.490   7.412 -2.1770  0.7592  1.2622
  997MOL0     H34542   3.868   2.680   7.205  0.3433 -0.9341  0.7073
  997MOL0     H34543   3.810   2.506   7.210 -0.3600 -0.5001 -0.3620
  997MOL0     H34544   4.056   2.445   7.176 -1.6835  0.4959  1.8951
  997MOL0     H34545   3.991   2.519   7.026  1.5485  0.4244 -1.1838
  997MOL0     H34546   4.047   2.802   7.012 -0.4124  0.0041  0.7062
  997MOL0     H34547   4.284   2.978   6.992 -0.3081 -1.0245 -0.1427
  997MOL0     H34548   4.197   3.028   7.140 -1.1874 -0.9726 -0.9443
  997MOL0     H34549   4.403   3.121   7.194 -0.4746  0.9329 -0.1937
  997MOL0     H34550   4.405   2.977   7.283 -3.5656 -0.5625 -0.7295
  997MOL0     H34551   4.544   3.024   7.010 -1.1931  0.1857 -0.9273
  997MOL0     H34552   4.566   2.875   7.110 -0.7299  0.4283  1.9615
  997MOL0     H34553   4.741   3.022   7.173  0.4263  2.2970 -0.3808
  997MOL0     H34554   4.618   3.024   7.304 -3.2329  2.9252  0.6711
  997MOL0     H34555   4.628   3.426   7.103 -1.5939 -1.2021  2.1026
  997MOL0     H34556   4.806   3.590   7.117 -1.3406 -0.6576 -0.3539
  997MOL0     H34557   5.022   3.920   7.308  0.8175  0.6179  0.9533
  997MOL0     H34558   5.197   4.083   7.339  1.1626 -0.4940  1.9328
  997MOL0     H34559   5.374   4.258   7.273  0.0657  0.2740 -0.5085
  997MOL0     H34560   5.387   4.158   7.407  0.6599  0.0611 -0.2353
  997MOL0     H34561   5.569   4.303   7.428 -0.6583  0.8880 -0.3389
  997MOL0     H34562   5.636   4.147   7.391 -0.6554 -1.0818 -0.0368
  997MOL0     H34563   5.706   4.185   7.175  1.0647  0.1901  0.6663
  997MOL0     H34564   5.588   4.321   7.147  0.2184  2.0413  0.8891
  997MOL0     H34565   5.845   4.326   7.297 -0.6701 -2.6620  0.8720
  997MOL0     H34566   5.734   4.470   7.269  0.4877  0.9190 -3.0361
  997MOL0     H34567   5.932   4.477   7.108 -1.7618  1.9761  0.2165
  997MOL0     H34568   5.773   4.458   7.020  0.5166 -0.0477 -1.5627
  997MOL0     H34569   5.835   4.200   7.011 -0.5498 -0.1783  3.4134
  997MOL0     H34570   5.948   4.315   6.922  0.1726 -3.0055 -0.6147
  997MOL0     H34571   5.963   4.162   7.186  1.3741 -0.4211 -0.0679
  997MOL0     H34572   6.080   4.288   7.140  0.2128 -1.2597  1.9895
  997MOL0     H34573   6.136   4.134   6.930  2.0682 -1.0761  0.7013
  997MOL0     H34574   6.160   4.061   7.082 -0.0096 -0.0723  0.5207
  997MOL0     H34575   5.475   3.841   7.117  0.3319 -1.1949  0.1920
  997MOL0     H34576   5.292   3.666   7.076 -0.9132 -1.0659 -0.4945
  997MOL0     H34577   5.030   3.344   7.382  0.5680 -1.4289 -0.2618
  997MOL0     H34578   4.855   3.164   7.352 -1.0440 -0.0839 -0.2841
  997MOL0     H34579   3.356   2.832   7.941 -0.8084  0.4727 -0.4682
  997MOL0     H34580   3.159   2.774   8.078 -3.4653 -3.1073  1.8823
  997MOL0     H34581   3.049   2.235   8.262 -0.4714  0.5300  3.5625
  997MOL0     H34582   2.873   2.120   8.392 -2.1900 -0.0338  0.5697
  997MOL0     H34583   2.470   2.241   8.265 -2.3000 -1.0853  0.2193
  997MOL0     H34584   2.463   2.348   8.402 -1.3468 -0.4216 -0.6947
  997MOL0     H34585   2.426   2.159   8.557 -3.4710 -2.0394  1.2105
  997MOL0     H34586   2.429   2.053   8.418  0.9226 -0.0502 -2.1284
  997MOL0     H34587   2.241   2.195   8.323  1.6198  0.6137 -0.0640
  997MOL0     H34588   2.219   2.276   8.483 -0.5584  2.4326 -2.9704
  997MOL0     H34589   2.063   2.069   8.418  0.3016  0.5633  0.4674
  997MOL0     H34590   2.218   1.976   8.447 -0.3728 -0.4868 -2.2750
  997MOL0     H34591   2.008   2.070   8.810  1.5181 -1.9932  1.1066
  997MOL0     H34592   2.621   2.456   8.285 -0.0925 -0.8966 -0.1221
  997MOL0     H34593   2.801   2.657   8.171  0.6239 -1.2560  2.4952
  997MOL0     H34594   2.798   2.570   8.006 -1.2276 -1.4003  0.0636
  997MOL0     H34595   2.655   2.581   8.097 -0.5534 -0.6486  1.4456
  998MOL0     O34596   6.577   7.182   6.269  0.0626 -1.0447  0.5189
  998MOL0     C34597   6.468   7.138   6.309 -0.1358  0.5066 -0.0996
  998MOL0     O34598   6.451   7.070   6.428 -0.8290 -0.1996 -0.2354
  998MOL0     C34599   6.562   7.032   6.497 -0.2095  0.1253  0.5470
  998MOL0     C34600   6.595   7.094   6.616  0.6117 -0.4267  0.6040
  998MOL0     C34601   6.702   7.058   6.694  0.6252  0.0984 -0.3710
  998MOL0     C34602   6.777   6.945   6.656  0.0147 -0.8814 -1.2546
  998MOL0     O34603   6.880   6.894   6.735 -0.2598  0.0039  0.6435
  998MOL0     C34604   6.929   6.961   6.852  0.4398  0.8642 -0.3034
  998MOL0     C34605   7.068   6.891   6.883 -1.0232 -0.4986  0.0057
  998MOL0     C34606   7.127   6.953   7.014 -0.1193 -0.2731 -0.5819
  998MOL0     C34607   7.280   6.919   7.026  0.2776  0.0033 -0.7410
  998MOL0     C34608   7.341   6.930   7.173  0.1058  0.4132 -0.2068
  998MOL0     C34609   7.491   6.912   7.146 -0.2319 -0.1795 -0.0376
  998MOL0     C34610   7.576   6.867   7.266 -0.3322  0.0042 -0.0317
  998MOL0     C34611   7.727   6.842   7.243  0.3235 -0.1307 -0.3061
  998MOL0     N34612   7.800   6.969   7.234  0.4510 -0.5469  0.1799
  998MOL0     C34613   7.936   6.985   7.249 -0.1876  0.5490 -0.7347
  998MOL0     C34614   7.958   7.107   7.210  0.1438  0.5795  0.3412
  998MOL0     C34615   8.111   7.139   7.190  0.0412  0.2387  1.2035
  998MOL0     C34616   8.123   7.247   7.082  0.8167  0.1654 -0.0990
  998MOL0     C34617   8.274   7.252   7.032  0.1155  0.0313 -0.7765
  998MOL0     C34618   8.358   7.338   7.120 -1.1004 -0.3199 -0.0962
  998MOL0     O34619   8.484   7.371   7.058  0.5471  0.3075 -0.1252
  998MOL0     C34620   8.588   7.434   7.130  0.2240 -0.3130  0.2967
  998MOL0     C34621   8.560   7.481   7.257 -0.4494 -0.0144  0.2897
  998MOL0     C34622   8.658   7.550   7.323 -0.5367 -0.0452 -0.7645
  998MOL0     C34623   8.785   7.579   7.269  1.0089  0.6324  0.7055
  998MOL0     C34624   8.890   7.643   7.349  0.2009  0.4132 -0.4006
  998MOL0     O34625   9.010   7.648   7.286 -0.5767  0.4694  0.5774
  998MOL0     C34626   9.113   7.717   7.349 -0.3019  0.6857 -0.2704
  998MOL0     C34627   9.105   7.826   7.431  0.0197 -0.0327  0.7837
  998MOL0     C34628   9.213   7.873   7.506 -0.6340 -0.3342 -0.0363
  998MOL0     C34629   9.335   7.819   7.494  0.8026  0.5941 -0.0965
  998MOL0     O34630   9.449   7.871   7.549  0.3569 -0.1019 -0.2780
  998MOL0     C34631   9.467   8.016   7.576 -0.0986 -0.0093 -0.4032
  998MOL0     C34632   9.441   8.103   7.445  0.9026  0.5676 -1.2954
  998MOL0     C34633   9.539   8.222   7.423  0.9773  0.5690 -0.2999
  998MOL0     C34634   9.479   8.361   7.436 -0.1119 -1.1070 -0.1581
  998MOL0     C34635   9.481   8.413   7.583 -0.2628  0.7701 -0.3445
  998MOL0     C34636   9.403   8.538   7.611  0.3771  0.0036  0.1807
  998MOL0     C34637   9.392   8.577   7.765  0.5059 -0.3292 -0.2767
  998MOL0     C34638   9.324   8.711   7.786  0.1985  0.6928  0.0777
  998MOL0    Cl34639   9.154   8.692   7.760 -0.0598 -0.1113 -0.5304
  998MOL0     C34640   9.354   7.709   7.403  0.3322  0.3932  0.8539
  998MOL0     C34641   9.245   7.656   7.333  0.6945 -0.2408 -0.1681
  998MOL0     O34642   8.869   7.657   7.468 -0.2835 -0.1539 -0.2655
  998MOL0     C34643   8.813   7.516   7.145 -0.0821  0.5032 -0.9729
  998MOL0     C34644   8.712   7.450   7.076  0.2154 -0.1391  0.2542
  998MOL0     N34645   7.851   7.178   7.190  0.3022  0.8989  0.2303
  998MOL0     N34646   7.751   7.096   7.211 -0.8664 -0.2247 -0.2265
  998MOL0     C34647   6.752   6.875   6.539  0.0479  0.5227 -0.5150
  998MOL0     C34648   6.645   6.924   6.451  0.2331  0.6106  0.3427
  998MOL0     C34649   6.342   7.144   6.229 -0.7247  0.3007 -0.3834
  998MOL0     C34650   6.230   7.060   6.257 -0.1137  0.7065  0.2274
  998MOL0     C34651   6.106   7.065   6.186  0.5634  0.7388  0.0267
  998MOL0     C34652   6.093   7.155   6.088  0.0609  0.9583  0.5260
  998MOL0     O34653   5.979   7.186   6.011  0.4785  0.1014  0.0365
  998MOL0     C34654   5.849   7.115   6.035 -0.7916 -0.9164 -0.7049
  998MOL0     C34655   5.753   7.180   5.943 -0.0202  0.8131 -0.1842
  998MOL0     C34656   5.618   7.107   5.969  0.1227  0.0671 -0.2305
  998MOL0     C34657   5.516   7.129   5.857 -0.1017  0.4149 -0.3594
  998MOL0     C34658   5.392   7.058   5.882  0.3581  0.2437 -0.2777
  998MOL0     C34659   5.290   6.995   5.908  0.7589 -0.0961  0.9503
  998MOL0     C34660   6.198   7.239   6.062 -0.0979  0.1004 -0.4417
  998MOL0     C34661   6.323   7.236   6.124  0.2747  0.0398 -0.4795
  998MOL0     C34662   6.424   7.328   6.066 -0.3183 -0.7036  0.2008
  998MOL0     H34663   6.526   7.174   6.642  0.2671 -0.6477  0.3723
  998MOL0     H34664   6.732   7.111   6.783  3.2959 -1.2081 -0.3852
  998MOL0     H34665   6.944   7.066   6.824 -0.6568  0.7599 -1.3703
  998MOL0     H34666   6.857   6.951   6.934 -1.8659  0.7364 -2.2565
  998MOL0     H34667   7.138   6.899   6.800 -0.3191  1.2059  0.7136
  998MOL0     H34668   7.056   6.785   6.906  1.2148 -0.5901  1.0149
  998MOL0     H34669   7.073   6.914   7.100 -2.2910  1.0924 -1.2435
  998MOL0     H34670   7.125   7.062   7.005 -0.5895 -0.3101 -0.9395
  998MOL0     H34671   7.292   6.816   6.991 -1.0031 -0.1903 -0.6590
  998MOL0     H34672   7.334   6.983   6.955  0.8947  0.0579 -0.2285
  998MOL0     H34673   7.326   7.029   7.217  1.0582 -0.1571  1.4823
  998MOL0     H34674   7.299   6.853   7.237  0.9749 -1.6726 -1.9890
  998MOL0     H34675   7.494   6.831   7.072  0.7519 -0.6649  0.5241
  998MOL0     H34676   7.526   7.006   7.103 -2.7413  1.2631  0.8923
  998MOL0     H34677   7.532   6.772   7.299 -0.1403  0.1880  0.7830
  998MOL0     H34678   7.559   6.942   7.344  1.8035 -1.0227  1.5285
  998MOL0     H34679   7.761   6.783   7.329 -1.2825  0.0842  0.5161
  998MOL0     H34680   7.753   6.772   7.163 -0.8130 -0.7890 -0.1207
  998MOL0     H34681   8.012   6.908   7.258 -0.6783  0.1680  0.2944
  998MOL0     H34682   8.137   7.188   7.285 -0.3916 -0.0696  1.4883
  998MOL0     H34683   8.170   7.048   7.176 -0.1724  0.0272  1.6491
  998MOL0     H34684   8.064   7.204   7.001 -0.3805  0.3961  0.6201
  998MOL0     H34685   8.090   7.346   7.114 -1.0830 -1.1032  2.1958
  998MOL0     H34686   8.289   7.295   6.932  1.4374  1.3091 -0.0560
  998MOL0     H34687   8.326   7.155   7.027  1.8771  0.8375  0.6370
  998MOL0     H34688   8.361   7.299   7.222  2.7318 -0.0416  0.0457
  998MOL0     H34689   8.304   7.434   7.122  1.8857  1.4747  0.6039
  998MOL0     H34690   8.462   7.468   7.302 -1.5674 -0.2338 -2.0527
  998MOL0     H34691   8.635   7.597   7.418  1.4720  1.4458 -0.9393
  998MOL0     H34692   9.002   7.860   7.444 -0.0187 -0.1704  0.8445
  998MOL0     H34693   9.203   7.957   7.574  0.0237  1.3065 -1.8785
  998MOL0     H34694   9.398   8.057   7.651  0.8425 -1.3032  1.2205
  998MOL0     H34695   9.573   8.027   7.600 -0.6351  0.4165  2.0368
  998MOL0     H34696   9.448   8.035   7.360  0.2358  0.3973 -1.2217
  998MOL0     H34697   9.340   8.145   7.450  0.5559 -0.1049 -2.3128
  998MOL0     H34698   9.621   8.229   7.496 -0.7506 -0.9241  1.9475
  998MOL0     H34699   9.571   8.213   7.319 -0.4997  1.5129 -0.8766
  998MOL0     H34700   9.379   8.377   7.395  0.1859 -0.1323 -0.5467
  998MOL0     H34701   9.547   8.430   7.384 -0.3764  0.1385  1.0794
  998MOL0     H34702   9.584   8.437   7.609 -0.8983  1.4912  1.6523
  998MOL0     H34703   9.450   8.339   7.657  1.9377 -0.9229 -0.9829
  998MOL0     H34704   9.454   8.615   7.552 -1.5824  0.2172 -1.3331
  998MOL0     H34705   9.300   8.528   7.578  0.5088 -3.3578  0.4573
  998MOL0     H34706   9.491   8.577   7.811  0.6521 -1.6912 -0.5501
  998MOL0     H34707   9.346   8.490   7.813  3.5512 -0.9224  1.8664
  998MOL0     H34708   9.326   8.734   7.892  1.3439  0.9981  0.0026
  998MOL0     H34709   9.363   8.802   7.739  0.4959  1.1103  1.1219
  998MOL0     H34710   9.453   7.670   7.384 -0.1058  0.2353 -1.3237
  998MOL0     H34711   9.264   7.573   7.266  3.4649 -0.5872  0.9101
  998MOL0     H34712   8.910   7.527   7.097  0.9453  1.7110  1.2162
  998MOL0     H34713   8.738   7.422   6.974 -0.2489  0.8009 -0.1303
  998MOL0     H34714   6.806   6.782   6.536 -0.0445  0.3349  1.7691
  998MOL0     H34715   6.628   6.864   6.362  1.1297 -2.0612  1.8754
  998MOL0     H34716   6.247   6.983   6.331 -0.7865 -0.0923 -0.4348
  998MOL0     H34717   6.030   6.993   6.215  1.0972  0.6473  1.2963
  998MOL0     H34718   5.823   7.133   6.140  0.5640 -0.9146 -0.3392
  998MOL0     H34719   5.858   7.009   6.011  1.1696 -0.0028 -4.8714
  998MOL0     H34720   5.788   7.165   5.841 -1.0548  0.4719 -0.5063
  998MOL0     H34721   5.748   7.289   5.952  0.3390  1.0360 -2.2567
  998MOL0     H34722   5.586   7.141   6.068 -0.7656 -0.4060 -0.3433
  998MOL0     H34723   5.640   7.001   5.959  4.0044  0.8949 -2.1832
  998MOL0     H34724   5.496   7.236   5.848 -0.3487  0.6000  1.8652
  998MOL0     H34725   5.563   7.088   5.767  1.9604  1.2870  0.2793
  998MOL0     H34726   5.211   6.930   5.937  0.2641  0.6211  1.2446
  998MOL0     H34727   6.171   7.324   6.000 -3.1958  0.8473  1.7300
  998MOL0     H34728   6.521   7.286   6.036  1.0509  2.5511 -0.3452
  998MOL0     H34729   6.385   7.373   5.974  2.7408  0.4649 -0.6513
  998MOL0     H34730   6.433   7.416   6.130 -1.5558 -2.3555  2.8015
  999MOL0     O34731   6.742   0.178   7.233 -0.2234 -0.0987  0.5992
  999MOL0     C34732   6.675   0.084   7.194 -0.9371 -0.1919 -0.1927
  999MOL0     O34733   6.737  -0.013   7.116  0.6719 -0.7009 -0.1432
  999MOL0     C34734   6.876  -0.013   7.111  0.0406  0.8075  0.5704
  999MOL0     C34735   6.935  -0.102   7.208  0.3586 -0.0238 -0.8307
  999MOL0     C34736   7.073  -0.136   7.192  0.8034  1.3987 -0.1639
  999MOL0     C34737   7.148  -0.079   7.085 -0.4330  0.9197 -0.7916
  999MOL0     O34738   7.281  -0.119   7.074  0.5107  0.5439  0.6338
  999MOL0     C34739   7.384  -0.015   7.041  0.5072 -0.4180 -0.0330
  999MOL0     C34740   7.408   0.071   7.164 -0.9465  0.1173 -0.8837
  999MOL0     C34741   7.509   0.189   7.127 -0.5308  0.6209  0.5751
  999MOL0     C34742   7.551   0.260   7.249 -0.4555  0.7068  0.9887
  999MOL0     C34743   7.690   0.322   7.234  0.1190  0.5125 -0.8725
  999MOL0     C34744   7.691   0.466   7.174  0.3787 -0.2767 -0.1257
  999MOL0     C34745   7.835   0.501   7.133 -0.1890  0.5157 -0.9992
  999MOL0     C34746   7.850   0.631   7.050  0.5269  0.3704 -0.0760
  999MOL0     N34747   7.988   0.660   7.025  0.3791  0.1838  0.4522
  999MOL0     C34748   8.051   0.647   6.900  0.3236 -0.1883 -1.2800
  999MOL0     C34749   8.184   0.654   6.922  0.4928  0.6760 -1.1542
  999MOL0     C34750   8.296   0.652   6.808  0.3843 -0.4512  0.3847
  999MOL0     C34751   8.418   0.756   6.826  0.3732  0.0177  0.1163
  999MOL0     C34752   8.524   0.733   6.717  0.1354  0.4124 -0.3093
  999MOL0     C34753   8.658   0.811   6.740 -0.2284  0.2320  1.7651
  999MOL0     O34754   8.634   0.952   6.736 -0.4155  0.9792  0.4585
  999MOL0     C34755   8.754   1.019   6.744  0.3406 -0.2869 -0.6004
  999MOL0     C34756   8.806   1.090   6.853  0.4166 -0.3277  0.0117
  999MOL0     C34757   8.910   1.174   6.844  0.1371 -0.2586 -0.2561
  999MOL0     C34758   8.978   1.191   6.723 -0.2830  0.1271  0.3576
  999MOL0     C34759   9.090   1.283   6.715 -0.7111  0.4871 -0.7485
  999MOL0     O34760   9.139   1.317   6.588  0.3728  0.4748 -0.1845
  999MOL0     C34761   9.254   1.394   6.580  0.3514  0.8630  0.2303
  999MOL0     C34762   9.233   1.527   6.553 -0.3283  0.3298  1.1081
  999MOL0     C34763   9.350   1.602   6.537 -1.1446  0.3829  0.3326
  999MOL0     C34764   9.474   1.554   6.555 -0.7014 -0.7433  0.9928
  999MOL0     O34765   9.582   1.636   6.554 -0.4358 -0.1544  0.3148
  999MOL0     C34766   9.702   1.579   6.489 -0.7791  0.4816  0.0762
  999MOL0     C34767   9.812   1.684   6.457 -0.8898 -0.8796  0.0859
  999MOL0     C34768   9.771   1.762   6.331 -0.4635 -0.1839 -0.5531
  999MOL0     C34769   9.846   1.894   6.320 -0.2366  0.5384  0.1089
  999MOL0     C34770   9.812   1.974   6.191  0.1898 -0.0787  0.2318
  999MOL0     C34771   9.896   1.918   6.075 -0.9899 -0.2621  0.1248
  999MOL0     C34772   9.881   2.011   5.948 -0.4059  0.9583 -0.0883
  999MOL0     C34773   9.734   2.022   5.914  0.2162 -0.0443 -0.1803
  999MOL0    Cl34774   9.736   2.134   5.779 -0.0564  0.1352 -0.1210
  999MOL0     C34775   9.487   1.420   6.580 -0.5909 -0.4574  0.1816
  999MOL0     C34776   9.380   1.333   6.596  0.2984 -0.0223 -0.2816
  999MOL0     O34777   9.130   1.331   6.819  0.2353  0.5006  0.3792
  999MOL0     C34778   8.931   1.117   6.616 -0.5991  0.2592  0.4017
  999MOL0     C34779   8.817   1.037   6.623  0.2152  0.6499 -0.0410
  999MOL0     N34780   8.196   0.670   7.064  0.1440 -0.5235  0.4999
  999MOL0     N34781   8.081   0.670   7.117 -0.6932 -0.1112 -0.3506
  999MOL0     C34782   7.091   0.016   6.995 -0.6077 -0.2140 -0.5869
  999MOL0     C34783   6.953   0.044   7.011 -0.6973  0.3087  0.0848
  999MOL0     C34784   6.528   0.072   7.228  1.2096 -0.3092 -0.0026
  999MOL0     C34785   6.462  -0.046   7.194 -0.8470 -1.0607 -0.0390
  999MOL0     C34786   6.334  -0.076   7.225  0.4732 -0.4285  0.3701
  999MOL0     C34787   6.255   0.011   7.304  0.1851  0.5454  0.1371
  999MOL0     O34788   6.123  -0.023   7.328 -1.2425 -0.1223  0.8541
  999MOL0     C34789   6.044   0.080   7.389 -0.1526  0.6341 -0.5226
  999MOL0     C34790   5.902   0.039   7.414 -0.0263  0.3199 -0.8941
  999MOL0     C34791   5.880  -0.065   7.532 -0.2370  0.8541  0.9956
  999MOL0     C34792   5.750  -0.061   7.593 -0.3747 -0.1044 -0.1463
  999MOL0     C34793   5.660  -0.156   7.534 -0.2879 -0.5519  0.3938
  999MOL0     C34794   5.584  -0.239   7.473 -0.4135 -0.4337  0.0393
  999MOL0     C34795   6.327   0.117   7.360  0.3409  0.2584 -0.0947
  999MOL0     C34796   6.459   0.148   7.324 -0.1730  0.2334 -0.5500
  999MOL0     C34797   6.524   0.264   7.398 -0.1133  0.8990  0.2412
  999MOL0     H34798   6.877  -0.156   7.282  0.8100 -0.5183 -0.8295
  999MOL0     H34799   7.108  -0.207   7.267 -0.7829  1.0378  0.2700
  999MOL0     H34800   7.476  -0.066   7.011  0.5520 -0.4770  0.2077
  999MOL0     H34801   7.351   0.043   6.953  2.3477  0.8156  0.0331
  999MOL0     H34802   7.453  -0.001   7.233 -0.2095  0.3215 -1.1443
  999MOL0     H34803   7.318   0.095   7.222  0.7979 -2.1081  3.1656
  999MOL0     H34804   7.459   0.271   7.074  0.3997  1.3097  0.7305
  999MOL0     H34805   7.594   0.146   7.074  1.8624  0.1485  4.4221
  999MOL0     H34806   7.481   0.340   7.276  0.6655  1.9602  0.3149
  999MOL0     H34807   7.568   0.192   7.333 -0.3223  2.2843  2.2912
  999MOL0     H34808   7.721   0.322   7.339  0.1313 -0.9059 -0.8573
  999MOL0     H34809   7.754   0.256   7.175 -0.3813 -0.8007  0.0135
  999MOL0     H34810   7.612   0.464   7.099 -1.5153 -2.3299  1.7321
  999MOL0     H34811   7.662   0.527   7.260  1.3798 -0.4129  0.3162
  999MOL0     H34812   7.875   0.418   7.074  0.2233  0.8330 -1.1680
  999MOL0     H34813   7.904   0.511   7.216  0.1830 -0.2899 -1.2033
  999MOL0     H34814   7.804   0.611   6.953  0.8035 -1.1799  0.0797
  999MOL0     H34815   7.808   0.721   7.095  1.2913  0.3214  0.7500
  999MOL0     H34816   8.009   0.640   6.800 -1.7237  0.7014 -0.5462
  999MOL0     H34817   8.335   0.550   6.800 -0.0072 -0.6383  0.7796
  999MOL0     H34818   8.241   0.691   6.722  2.9969 -0.1855 -1.2489
  999MOL0     H34819   8.377   0.856   6.810 -0.1828 -0.1962  0.1630
  999MOL0     H34820   8.454   0.755   6.929 -0.6391  1.8049  0.5340
  999MOL0     H34821   8.478   0.767   6.623 -2.2303 -3.0909 -0.6358
  999MOL0     H34822   8.541   0.626   6.698  0.6357  0.7359 -1.8465
  999MOL0     H34823   8.729   0.773   6.666  0.9380  1.3546  2.2801
  999MOL0     H34824   8.687   0.784   6.842 -0.4609  0.0438  1.7822
  999MOL0     H34825   8.765   1.071   6.952 -0.0535 -1.7670 -0.4338
  999MOL0     H34826   8.944   1.220   6.936  0.6622  0.5541 -0.8436
  999MOL0     H34827   9.133   1.569   6.555  0.0585  1.2613  1.3891
  999MOL0     H34828   9.334   1.709   6.522 -1.5610  0.4269  1.0460
  999MOL0     H34829   9.752   1.505   6.551 -0.0520  0.1692 -0.8503
  999MOL0     H34830   9.677   1.527   6.395 -1.1537  1.6298 -0.4768
  999MOL0     H34831   9.828   1.756   6.538 -0.5682 -0.3906 -0.4006
  999MOL0     H34832   9.902   1.628   6.431  1.7686  3.1183 -0.3253
  999MOL0     H34833   9.781   1.708   6.236 -0.4100  0.7428 -1.0886
  999MOL0     H34834   9.667   1.791   6.349 -0.3307  0.5984 -1.0227
  999MOL0     H34835   9.953   1.871   6.330 -0.0812  0.4778 -1.4338
  999MOL0     H34836   9.824   1.955   6.408  0.3601 -0.0183  0.6548
  999MOL0     H34837   9.832   2.081   6.197 -2.6771  0.6397 -1.1850
  999MOL0     H34838   9.705   1.968   6.167  0.1692  0.3021  0.2247
  999MOL0     H34839  10.000   1.915   6.109 -0.6807 -1.2716 -0.8677
  999MOL0     H34840   9.877   1.814   6.049 -0.4692  0.0348 -1.5503
  999MOL0     H34841   9.947   1.980   5.866 -1.3845 -2.1513  0.1842
  999MOL0     H34842   9.923   2.108   5.978  2.2894 -0.0345 -0.3657
  999MOL0     H34843   9.701   1.921   5.888  0.8299 -0.0518 -0.9292
  999MOL0     H34844   9.659   2.067   5.981  1.0979  0.3214  0.5850
  999MOL0     H34845   9.579   1.364   6.566 -0.5402 -0.1954 -0.5911
  999MOL0     H34846   9.387   1.230   6.627  1.1516  0.3075  0.6500
  999MOL0     H34847   8.979   1.135   6.520 -2.3614  1.8446 -0.2302
  999MOL0     H34848   8.769   1.000   6.533  1.9485  1.1356 -1.2235
  999MOL0     H34849   7.149   0.055   6.912 -0.0226 -1.7895 -0.9657
  999MOL0     H34850   6.905   0.108   6.938  3.3135  0.6909 -2.5384
  999MOL0     H34851   6.517  -0.113   7.129 -1.7787 -2.2096  0.3123
  999MOL0     H34852   6.280  -0.162   7.188  0.5488 -0.2470 -0.1717
  999MOL0     H34853   6.051   0.171   7.329 -1.2395 -0.9234 -3.2139
  999MOL0     H34854   6.079   0.107   7.489  0.9110 -0.6982 -0.5018
  999MOL0     H34855   5.855  -0.000   7.324 -0.6007  2.0310 -1.3694
  999MOL0     H34856   5.840   0.124   7.445  1.4671  1.5303 -1.1099
  999MOL0     H34857   5.953  -0.040   7.610  0.2608 -1.0083  1.1801
  999MOL0     H34858   5.899  -0.169   7.501 -1.7299  0.4756  1.3142
  999MOL0     H34859   5.759  -0.096   7.696 -0.2175  1.0897  0.2593
  999MOL0     H34860   5.713   0.042   7.602 -0.2157 -0.1453  1.1259
  999MOL0     H34861   5.523  -0.315   7.430  0.1563 -0.0911 -1.4295
  999MOL0     H34862   6.291   0.172   7.446 -1.1587  2.5614 -2.0759
  999MOL0     H34863   6.454   0.302   7.473 -1.9226 -2.6018  0.5159
  999MOL0     H34864   6.615   0.221   7.440 -0.1652  1.0306  0.4911
  999MOL0     H34865   6.548   0.346   7.330 -1.6968  2.7209  1.7613
 1000MOL0     O34866   0.230   8.803   7.462  0.0753  0.1089  0.1310
 1000MOL0     C34867   0.160   8.900   7.489  0.2316 -0.1684 -0.1231
 1000MOL0     O34868   0.208   9.019   7.531 -0.0732 -0.3108  0.1539
 1000MOL0     C34869   0.344   9.032   7.552 -0.0131  0.0608  0.5471
 1000MOL0     C34870   0.388   9.063   7.679 -0.0700 -0.4785  0.0821
 1000MOL0     C34871   0.519   9.077   7.706 -0.1370  0.4638 -0.2266
 1000MOL0     C34872   0.616   9.051   7.607  1.2832 -0.2285 -0.5268
 1000MOL0     O34873   0.748   9.061   7.656 -0.3543  0.1622  0.8486
 1000MOL0     C34874   0.859   9.012   7.575  0.0869  0.4718 -0.1207
 1000MOL0     C34875   0.966   9.120   7.590 -0.0921  0.0453 -0.2982
 1000MOL0     C34876   1.117   9.088   7.557 -0.7555  0.0283 -0.7992
 1000MOL0     C34877   1.216   9.199   7.599 -0.3144  0.0086 -0.3886
 1000MOL0     C34878   1.358   9.151   7.605 -0.4594 -0.4959 -0.1054
 1000MOL0     C34879   1.417   9.114   7.468  0.5480  0.0312  0.1859
 1000MOL0     C34880   1.569   9.120   7.481 -1.1152 -0.6839 -0.2714
 1000MOL0     C34881   1.644   9.011   7.563  0.2590 -0.0145  0.0627
 1000MOL0     N34882   1.791   9.037   7.591  0.9873  0.3007 -0.2290
 1000MOL0     C34883   1.894   9.006   7.508  0.2041  0.0375 -0.3139
 1000MOL0     C34884   2.009   9.041   7.571  0.1189 -0.2453  0.6002
 1000MOL0     C34885   2.146   9.030   7.519  0.1244 -0.1007 -0.1866
 1000MOL0     C34886   2.249   8.990   7.618 -0.6522  0.4243 -0.2873
 1000MOL0     C34887   2.378   8.963   7.538 -0.1485 -0.2199 -0.0890
 1000MOL0     C34888   2.493   8.971   7.638 -0.5714 -0.5780  0.0639
 1000MOL0     O34889   2.481   8.872   7.739  0.0942  0.5088 -0.3149
 1000MOL0     C34890   2.595   8.843   7.813 -0.2008 -0.0547  0.0538
 1000MOL0     C34891   2.717   8.915   7.811 -0.5115 -0.4887 -0.3286
 1000MOL0     C34892   2.830   8.882   7.893  0.6294  0.1108 -0.4582
 1000MOL0     C34893   2.820   8.766   7.979 -0.1690  0.1891  0.3467
 1000MOL0     C34894   2.937   8.729   8.057 -0.2819  0.5089 -0.1848
 1000MOL0     O34895   3.046   8.809   8.057 -0.5539 -1.0473  0.0165
 1000MOL0     C34896   3.149   8.773   8.140  1.1640  0.0939  0.2715
 1000MOL0     C34897   3.243   8.674   8.103  0.0320 -0.8775  0.2261
 1000MOL0     C34898   3.330   8.617   8.191  0.3820  0.2267 -0.7498
 1000MOL0     C34899   3.345   8.659   8.323  0.0202  0.9277  0.3572
 1000MOL0     O34900   3.446   8.595   8.399 -0.2859 -0.0098  0.5418
 1000MOL0     C34901   3.462   8.634   8.533 -0.4378  0.3802  0.2955
 1000MOL0     C34902   3.579   8.555   8.603 -0.6410 -0.4871  0.3075
 1000MOL0     C34903   3.522   8.432   8.661 -0.0708 -0.0381 -0.9044
 1000MOL0     C34904   3.636   8.349   8.719 -0.1717 -0.3241 -0.5374
 1000MOL0     C34905   3.748   8.301   8.617 -0.4035 -0.0995  0.4363
 1000MOL0     C34906   3.837   8.191   8.677  0.1388  0.0213  0.3927
 1000MOL0     C34907   3.932   8.255   8.780  0.9080  0.2085 -0.2049
 1000MOL0     C34908   4.031   8.153   8.823 -1.0911  0.6667 -0.2173
 1000MOL0    Cl34909   4.138   8.220   8.947  0.2464  0.0567  0.4457
 1000MOL0     C34910   3.251   8.754   8.369 -0.4444  0.6959  0.5811
 1000MOL0     C34911   3.159   8.815   8.271 -0.2835 -0.7304 -0.2613
 1000MOL0     O34912   2.916   8.630   8.132 -0.6695  0.2858  0.6835
 1000MOL0     C34913   2.698   8.705   7.996  0.4177 -0.1860  0.2956
 1000MOL0     C34914   2.585   8.741   7.903  0.2832 -0.8715 -0.2999
 1000MOL0     N34915   1.973   9.093   7.694  0.5420 -0.3685  0.5125
 1000MOL0     N34916   1.842   9.099   7.706  0.0955 -0.0311 -0.6391
 1000MOL0     C34917   0.573   9.019   7.472 -0.6915 -0.4393  0.1581
 1000MOL0     C34918   0.440   9.008   7.446  0.6507 -0.0253 -0.2488
 1000MOL0     C34919   0.008   8.891   7.519 -0.3048  0.2790  0.2179
 1000MOL0     C34920  -0.055   8.982   7.609  1.3259  0.0087  0.2140
 1000MOL0     C34921  -0.194   8.973   7.636 -1.1825  0.3894 -0.1166
 1000MOL0     C34922  -0.276   8.885   7.573 -0.0240 -0.4242 -0.0296
 1000MOL0     O34923  -0.410   8.872   7.586 -0.0577 -0.0986 -0.0519
 1000MOL0     C34924  -0.474   8.949   7.687  0.1776 -1.0139  0.4605
 1000MOL0     C34925  -0.619   8.965   7.655  0.2413  0.2228  0.1837
 1000MOL0     C34926  -0.703   9.035   7.766  0.1931 -0.7882  0.1099
 1000MOL0     C34927  -0.837   9.072   7.713  0.2363  0.2608  0.3197
 1000MOL0     C34928  -0.921   9.121   7.821 -0.0675 -0.6947  1.0285
 1000MOL0     C34929  -0.998   9.171   7.911  0.7540  0.3919 -0.6522
 1000MOL0     C34930  -0.217   8.790   7.490 -0.5082 -0.0926 -0.4684
 1000MOL0     C34931  -0.075   8.792   7.462  0.4972  0.2134 -0.4270
 1000MOL0     C34932  -0.033   8.680   7.384  0.3243 -0.2742 -0.2177
 1000MOL0     H34933   0.327   9.078   7.768  2.1855 -0.2712  1.6807
 1000MOL0     H34934   0.538   9.101   7.810 -1.1385 -0.9024  0.3004
 1000MOL0     H34935   0.893   8.922   7.627  0.1232  0.8516  0.5159
 1000MOL0     H34936   0.833   8.987   7.471 -1.0351  0.2820  0.1935
 1000MOL0     H34937   0.966   9.157   7.692 -1.0328  3.9281 -1.5496
 1000MOL0     H34938   0.933   9.209   7.535 -1.2649  0.8315  1.5988
 1000MOL0     H34939   1.127   9.054   7.453 -0.3332 -0.1129 -0.7119
 1000MOL0     H34940   1.139   9.004   7.623  0.1888  0.9681  0.1152
 1000MOL0     H34941   1.217   9.282   7.527  0.1532 -0.1432 -0.5579
 1000MOL0     H34942   1.183   9.232   7.698  1.4284 -2.7766  1.2329
 1000MOL0     H34943   1.411   9.241   7.636 -1.8855  0.0362  0.8564
 1000MOL0     H34944   1.363   9.069   7.677  3.7550 -1.6305 -1.3738
 1000MOL0     H34945   1.386   9.011   7.445  0.0228  0.0580  0.7728
 1000MOL0     H34946   1.376   9.170   7.383 -0.9231 -2.9873 -1.2550
 1000MOL0     H34947   1.606   9.218   7.513  0.6025 -2.1252  2.5888
 1000MOL0     H34948   1.608   9.119   7.379  1.1766  0.5170  0.5174
 1000MOL0     H34949   1.601   9.000   7.663  0.5922 -0.0913  0.2009
 1000MOL0     H34950   1.645   8.916   7.509  1.4124  1.6769 -3.1282
 1000MOL0     H34951   1.876   8.965   7.409  0.7222  2.0781 -1.2955
 1000MOL0     H34952   2.149   8.954   7.440  2.1395  1.2982 -1.5837
 1000MOL0     H34953   2.170   9.129   7.480  1.2113  0.3333  1.4737
 1000MOL0     H34954   2.252   9.071   7.691 -3.6047  1.7496 -1.4622
 1000MOL0     H34955   2.221   8.894   7.662 -0.7875  0.8708  0.6119
 1000MOL0     H34956   2.395   9.044   7.467  1.4699  1.0262  1.6337
 1000MOL0     H34957   2.388   8.870   7.481 -2.7222 -1.2943  1.0410
 1000MOL0     H34958   2.492   9.075   7.673 -0.5019  0.7939 -3.5666
 1000MOL0     H34959   2.589   8.963   7.585  1.2041  1.0047  2.7951
 1000MOL0     H34960   2.715   9.003   7.747 -2.1052 -0.0702  0.2364
 1000MOL0     H34961   2.923   8.933   7.869 -0.6247  2.9827  0.4324
 1000MOL0     H34962   3.247   8.622   8.008  0.6280 -1.4852  0.5765
 1000MOL0     H34963   3.394   8.541   8.147 -0.6152  0.1073 -2.0663
 1000MOL0     H34964   3.493   8.737   8.549 -1.5196  0.8634 -0.6085
 1000MOL0     H34965   3.372   8.624   8.594  0.7132 -2.1016  1.7697
 1000MOL0     H34966   3.647   8.538   8.519 -0.4331  1.0161  0.1362
 1000MOL0     H34967   3.628   8.625   8.671  3.2357  0.1939 -2.8003
 1000MOL0     H34968   3.450   8.457   8.740 -0.6385 -0.6026 -1.2356
 1000MOL0     H34969   3.468   8.378   8.583  0.5466 -1.2882 -0.4938
 1000MOL0     H34970   3.593   8.252   8.745 -2.3726  0.0814 -2.2904
 1000MOL0     H34971   3.686   8.398   8.803 -1.8577  0.0496  0.2842
 1000MOL0     H34972   3.820   8.376   8.583  1.7603 -0.4509  3.8173
 1000MOL0     H34973   3.698   8.254   8.531 -0.2281 -0.3798  0.4860
 1000MOL0     H34974   3.775   8.114   8.722  0.2737 -0.3980 -0.1264
 1000MOL0     H34975   3.902   8.140   8.604 -0.5720 -0.1816 -0.1091
 1000MOL0     H34976   3.873   8.279   8.869  0.3616 -2.2786  0.1677
 1000MOL0     H34977   3.984   8.339   8.733  2.3568  0.3379  1.5339
 1000MOL0     H34978   3.962   8.076   8.860 -1.2785 -0.4063 -2.6381
 1000MOL0     H34979   4.083   8.110   8.737  1.0408 -0.7880  1.6893
 1000MOL0     H34980   3.228   8.766   8.474  2.2677 -0.9889  1.4877
 1000MOL0     H34981   3.080   8.883   8.300  0.5027 -0.3950  1.2368
 1000MOL0     H34982   2.685   8.616   8.057 -1.7786 -1.0207 -1.2247
 1000MOL0     H34983   2.493   8.685   7.907  0.6674 -1.4571  2.2107
 1000MOL0     H34984   0.648   9.010   7.394 -0.0774 -1.0192  0.8003
 1000MOL0     H34985   0.406   8.983   7.346 -2.5291  0.6017  0.5617
 1000MOL0     H34986   0.007   9.056   7.658  2.0124 -0.1141 -0.4476
 1000MOL0     H34987  -0.234   9.049   7.701 -0.1603 -1.6674  3.1911
 1000MOL0     H34988  -0.435   9.051   7.675  0.0813 -1.1701 -1.6772
 1000MOL0     H34989  -0.457   8.902   7.784  2.6247  1.2621  1.2630
 1000MOL0     H34990  -0.670   8.869   7.641  2.8061 -0.8279 -3.6964
 1000MOL0     H34991  -0.629   9.014   7.557 -1.9983  1.2222  0.8360
 1000MOL0     H34992  -0.650   9.130   7.785  1.9287 -1.5160 -0.8510
 1000MOL0     H34993  -0.712   8.976   7.858 -0.4761 -2.3941 -0.9587
 1000MOL0     H34994  -0.822   9.147   7.635  1.5754 -1.1473 -0.8526
 1000MOL0     H34995  -0.886   8.988   7.661  0.0402  0.2828  0.4687
 1000MOL0     H34996  -1.059   9.199   7.994  0.5078  4.1336 -1.9251
 1000MOL0     H34997  -0.278   8.723   7.432  2.1402  0.3279 -4.0867
 1000MOL0     H34998  -0.104   8.633   7.315 -0.0333  1.9525 -1.4635
 1000MOL0     H34999   0.044   8.718   7.317  0.2093  0.4496  0.0455
 1000MOL0     H35000   0.023   8.599   7.432  0.5112 -1.4295 -2.2745
 1001MOL0     O35001   5.799  10.078   3.509  0.0112 -0.5508  0.2765
 1001MOL0     C35002   5.752  10.109   3.396  0.4685  0.1090 -0.6589
 1001MOL0     O35003   5.836  10.137   3.284 -0.0006  0.0222  0.4842
 1001MOL0     C35004   5.973  10.142   3.306 -0.0869  0.3321  0.0400
 1001MOL0     C35005   6.045  10.041   3.367  0.5249  0.4469 -0.4257
 1001MOL0     C35006   6.179  10.043   3.388  0.5120 -1.4247 -0.0832
 1001MOL0     C35007   6.259  10.157   3.354  0.1099 -0.6557 -0.1256
 1001MOL0     O35008   6.399  10.178   3.365  0.3564  0.2858 -0.7527
 1001MOL0     C35009   6.458  10.080   3.452  0.4664 -0.2986 -0.0728
 1001MOL0     C35010   6.600  10.135   3.461 -0.3511  0.3778  0.8583
 1001MOL0     C35011   6.683  10.044   3.560 -0.5010 -0.0803  0.2382
 1001MOL0     C35012   6.830  10.072   3.571 -0.8003 -1.0919  0.2385
 1001MOL0     C35013   6.914   9.956   3.608  0.3568 -0.6460  0.3481
 1001MOL0     C35014   7.059   9.983   3.599  1.2124 -0.2916  0.5510
 1001MOL0     C35015   7.137   9.861   3.653  0.5317 -0.8957  0.5228
 1001MOL0     C35016   7.287   9.897   3.650 -1.0508 -0.0346 -0.0512
 1001MOL0     N35017   7.335   9.911   3.508  0.0116 -0.4991  0.1015
 1001MOL0     C35018   7.362   9.813   3.420  0.9390  0.1410  0.6822
 1001MOL0     C35019   7.398   9.882   3.305  0.9317  1.0005 -0.6747
 1001MOL0     C35020   7.455   9.816   3.187  0.0336 -0.2955  0.1502
 1001MOL0     C35021   7.607   9.798   3.207  0.0228 -0.3051 -0.1738
 1001MOL0     C35022   7.685   9.934   3.195 -0.0073 -0.2977  0.4255
 1001MOL0     C35023   7.836   9.916   3.159  0.6248  0.1680 -0.2280
 1001MOL0     O35024   7.847   9.884   3.020 -0.0327 -0.1571 -0.2865
 1001MOL0     C35025   7.971   9.860   2.964  0.2761 -0.2143 -0.6689
 1001MOL0     C35026   8.095   9.887   3.025 -0.1235  0.4234 -0.6880
 1001MOL0     C35027   8.213   9.862   2.970  0.2980 -0.7021  0.3211
 1001MOL0     C35028   8.220   9.790   2.845  1.2865 -0.2562 -0.1777
 1001MOL0     C35029   8.344   9.764   2.776 -0.2715 -0.0918  0.1893
 1001MOL0     O35030   8.459   9.825   2.819  0.6753 -0.1251 -0.1211
 1001MOL0     C35031   8.578   9.802   2.753  0.3434 -0.0591  0.3854
 1001MOL0     C35032   8.594   9.776   2.608  0.2545 -0.0171  0.2249
 1001MOL0     C35033   8.721   9.749   2.559 -0.1930  0.3040 -0.0125
 1001MOL0     C35034   8.832   9.748   2.644  0.8270 -0.5218 -0.1315
 1001MOL0     O35035   8.958   9.723   2.615 -0.3828  0.4546 -0.2448
 1001MOL0     C35036   8.993   9.631   2.505 -0.9712  0.6290 -0.8217
 1001MOL0     C35037   9.104   9.533   2.553  0.3230 -0.0029  0.4750
 1001MOL0     C35038   9.036   9.420   2.627  0.4650 -0.2578 -0.3919
 1001MOL0     C35039   9.141   9.326   2.702 -0.1362  0.0460  0.2090
 1001MOL0     C35040   9.060   9.195   2.731  0.3155 -0.2085 -0.2224
 1001MOL0     C35041   8.962   9.214   2.842 -0.6375 -0.1803 -0.3621
 1001MOL0     C35042   8.901   9.078   2.895 -0.7507  0.2034 -0.4980
 1001MOL0     C35043   8.774   9.096   2.983  0.3402  0.8169 -0.4245
 1001MOL0    Cl35044   8.696   8.944   3.041  0.0620  0.0967 -0.1276
 1001MOL0     C35045   8.812   9.760   2.788  0.0730  0.4406  0.3636
 1001MOL0     C35046   8.688   9.789   2.839  0.2564  0.6215 -0.3810
 1001MOL0     O35047   8.341   9.684   2.685  0.4622 -0.0537 -0.3033
 1001MOL0     C35048   8.094   9.752   2.785  0.0737 -0.5421  0.4533
 1001MOL0     C35049   7.971   9.801   2.841 -1.2084  0.8321 -0.2344
 1001MOL0     N35050   7.395  10.012   3.336 -1.1588  0.4134  0.4713
 1001MOL0     N35051   7.347  10.032   3.451  0.2018  0.2431  1.2010
 1001MOL0     C35052   6.187  10.250   3.279 -0.0654  0.4676 -0.0445
 1001MOL0     C35053   6.048  10.250   3.256  0.4519  0.6974  0.4770
 1001MOL0     C35054   5.603  10.118   3.375 -0.2538 -0.2512  0.0682
 1001MOL0     C35055   5.552  10.104   3.246 -0.3356  1.2968 -0.0890
 1001MOL0     C35056   5.418  10.094   3.212  0.7291 -0.2535 -0.0485
 1001MOL0     C35057   5.320  10.091   3.319 -0.3942  0.0414  0.0487
 1001MOL0     O35058   5.184  10.081   3.284  1.0917 -0.0889 -0.3497
 1001MOL0     C35059   5.140  10.103   3.148  1.2997 -0.0928 -0.3719
 1001MOL0     C35060   4.985  10.149   3.136 -0.4044 -0.3473  0.9008
 1001MOL0     C35061   4.893  10.029   3.169  0.0227 -0.2983  0.4518
 1001MOL0     C35062   4.747  10.069   3.171 -0.3148 -0.4975 -0.1543
 1001MOL0     C35063   4.653   9.969   3.220  0.2417  0.2875 -0.6534
 1001MOL0     C35064   4.577   9.878   3.253 -0.4515 -0.1067  0.4495
 1001MOL0     C35065   5.370  10.104   3.442  0.0237 -0.7353  0.3421
 1001MOL0     C35066   5.502  10.127   3.473 -0.9515 -0.6371  0.0686
 1001MOL0     C35067   5.533  10.152   3.618 -0.0900 -0.5957  0.8435
 1001MOL0     H35068   5.981   9.956   3.391  0.9804  0.0246 -0.7046
 1001MOL0     H35069   6.228   9.953   3.424 -1.4164 -1.3638  3.0690
 1001MOL0     H35070   6.405  10.069   3.547  0.2206 -2.5097 -0.4038
 1001MOL0     H35071   6.450   9.980   3.407  0.7864 -1.6336  2.6476
 1001MOL0     H35072   6.589  10.235   3.504  0.9134 -0.2717  2.8479
 1001MOL0     H35073   6.648  10.143   3.363  3.2760 -0.7222  2.3596
 1001MOL0     H35074   6.677   9.942   3.521  0.4174 -0.0864  0.0954
 1001MOL0     H35075   6.637  10.046   3.660  0.4236  3.0233  0.6963
 1001MOL0     H35076   6.866  10.104   3.473 -1.4693 -1.7281 -0.2151
 1001MOL0     H35077   6.833  10.152   3.646 -3.8956 -0.2529 -0.4097
 1001MOL0     H35078   6.876   9.918   3.704 -0.2731 -0.2577  0.2574
 1001MOL0     H35079   6.895   9.879   3.534  2.2209  1.6785 -2.7884
 1001MOL0     H35080   7.078  10.004   3.494 -0.5144  1.5440  0.5608
 1001MOL0     H35081   7.081  10.078   3.648 -0.9531  0.8103 -0.4696
 1001MOL0     H35082   7.108   9.774   3.592 -0.0428 -0.0995 -0.3624
 1001MOL0     H35083   7.106   9.845   3.757 -1.7675 -0.8936 -0.1136
 1001MOL0     H35084   7.300   9.990   3.707  3.7129  0.4937 -1.5720
 1001MOL0     H35085   7.357   9.830   3.700  1.2208  1.8523 -0.5408
 1001MOL0     H35086   7.350   9.706   3.435 -1.8349  0.0382 -1.4464
 1001MOL0     H35087   7.403   9.721   3.178 -2.4999  0.9442  0.8759
 1001MOL0     H35088   7.433   9.871   3.095 -0.9604  0.0557  0.5876
 1001MOL0     H35089   7.629   9.752   3.304 -0.2057  1.0860  0.5612
 1001MOL0     H35090   7.630   9.732   3.123  1.0347 -0.6066  0.3226
 1001MOL0     H35091   7.669   9.999   3.282  2.2560  1.8154 -0.6267
 1001MOL0     H35092   7.648   9.990   3.109  1.0857 -0.3217 -0.0805
 1001MOL0     H35093   7.880   9.841   3.225  1.7712 -2.1074 -3.3857
 1001MOL0     H35094   7.882  10.014   3.175 -0.6028  0.8507 -0.7154
 1001MOL0     H35095   8.092   9.921   3.128 -0.6183  1.3908 -1.0091
 1001MOL0     H35096   8.300   9.898   3.023  0.0255  1.0235 -0.3192
 1001MOL0     H35097   8.502   9.785   2.550 -0.1921  1.9940  1.1743
 1001MOL0     H35098   8.749   9.738   2.455  0.0224 -0.9636  0.1592
 1001MOL0     H35099   8.904   9.582   2.464 -1.9769  0.9484  0.8734
 1001MOL0     H35100   9.040   9.685   2.422  0.8880 -2.5773 -2.0353
 1001MOL0     H35101   9.143   9.493   2.459 -0.1104  1.2946 -0.2872
 1001MOL0     H35102   9.176   9.585   2.618 -2.4939  2.1804  2.1079
 1001MOL0     H35103   8.966   9.452   2.704  2.0113 -1.0462  1.4128
 1001MOL0     H35104   8.982   9.357   2.555 -0.7913  0.6524 -0.2778
 1001MOL0     H35105   9.181   9.381   2.788 -0.9538  2.6899 -1.0081
 1001MOL0     H35106   9.228   9.312   2.637 -0.6905  0.1925 -0.5693
 1001MOL0     H35107   9.131   9.122   2.772 -1.6525 -0.4839  3.0273
 1001MOL0     H35108   9.013   9.160   2.639  0.1262  1.9371 -0.9862
 1001MOL0     H35109   9.021   9.255   2.924  0.4376  1.0331 -1.7061
 1001MOL0     H35110   8.875   9.278   2.824 -0.0710  1.7029  2.8007
 1001MOL0     H35111   8.975   9.029   2.958  0.4471  2.8022  0.2466
 1001MOL0     H35112   8.883   9.018   2.806  0.2448  0.3616 -0.8110
 1001MOL0     H35113   8.792   9.160   3.070 -3.1441 -0.5486  1.4618
 1001MOL0     H35114   8.701   9.153   2.925 -0.5950  1.3893  1.2456
 1001MOL0     H35115   8.897   9.748   2.854 -1.0463 -1.1208  1.6059
 1001MOL0     H35116   8.688   9.809   2.945  0.7739 -0.1279 -0.2246
 1001MOL0     H35117   8.092   9.697   2.692  2.5783 -0.9826  0.5921
 1001MOL0     H35118   7.880   9.799   2.782 -1.3231  2.0608 -0.1325
 1001MOL0     H35119   6.246  10.332   3.239  0.6870  1.2788  2.5813
 1001MOL0     H35120   5.989  10.322   3.200  0.4378 -1.1823 -2.1138
 1001MOL0     H35121   5.627  10.098   3.168  0.0918  0.6093  0.3681
 1001MOL0     H35122   5.397  10.092   3.105  2.4692 -1.8369 -0.4233
 1001MOL0     H35123   5.148  10.010   3.091  3.1843 -0.5803  0.5913
 1001MOL0     H35124   5.199  10.181   3.100  0.3764  0.6733 -0.2882
 1001MOL0     H35125   4.966  10.170   3.030 -1.5306  0.0804  1.1729
 1001MOL0     H35126   4.958  10.236   3.196 -0.0443  0.3356  0.0890
 1001MOL0     H35127   4.926   9.984   3.263  1.4395 -0.7102 -0.2252
 1001MOL0     H35128   4.901   9.956   3.088  1.7910  1.5720 -1.1464
 1001MOL0     H35129   4.732  10.161   3.228  0.3278 -0.3866 -0.1566
 1001MOL0     H35130   4.723  10.098   3.068  2.9759 -1.0341 -1.1733
 1001MOL0     H35131   4.513   9.793   3.271 -1.9692  1.3303  2.3017
 1001MOL0     H35132   5.298  10.108   3.523 -0.5844  2.5865 -0.1936
 1001MOL0     H35133   5.625  10.209   3.638 -0.8878  1.7069 -1.5188
 1001MOL0     H35134   5.453  10.216   3.657 -0.2028  1.6745 -2.7050
 1001MOL0     H35135   5.542  10.060   3.677 -0.5193  1.2545  4.0598
 1002MOL0     O35136   4.611  10.988   7.380 -0.4496 -0.2531 -0.4108
 1002MOL0     C35137   4.547  11.076   7.318  0.0186 -0.6348 -0.4072
 1002MOL0     O35138   4.595  11.188   7.262 -0.0190  0.1448 -0.5522
 1002MOL0     C35139   4.732  11.189   7.237 -0.0653 -0.5331  0.9693
 1002MOL0     C35140   4.778  11.185   7.113  0.0942  0.6821  0.7197
 1002MOL0     C35141   4.914  11.193   7.085  0.2840  0.1046  0.7695
 1002MOL0     C35142   5.004  11.226   7.190 -0.3128  0.2539  0.8990
 1002MOL0     O35143   5.135  11.253   7.170 -0.1175  0.0787  0.0078
 1002MOL0     C35144   5.168  11.354   7.066  0.1306  0.1644  0.2403
 1002MOL0     C35145   5.317  11.380   7.063 -0.5759 -0.8868 -0.3987
 1002MOL0     C35146   5.399  11.258   7.035  0.0035  0.0810  0.2090
 1002MOL0     C35147   5.547  11.281   7.027  0.9326 -0.3954  0.1572
 1002MOL0     C35148   5.613  11.151   6.984  0.0616  0.0889 -0.0685
 1002MOL0     C35149   5.633  11.054   7.098 -0.6368 -0.0619  0.6058
 1002MOL0     C35150   5.599  10.913   7.056  0.5309 -0.1060  0.8685
 1002MOL0     C35151   5.587  10.819   7.176 -0.6914  0.6018  1.7835
 1002MOL0     N35152   5.602  10.678   7.129 -0.0347  0.5503 -0.6602
 1002MOL0     C35153   5.713  10.603   7.114  0.0780 -0.8510 -0.3906
 1002MOL0     C35154   5.677  10.473   7.115  0.9955  0.3580  0.3742
 1002MOL0     C35155   5.765  10.356   7.093 -0.4370  0.1593 -0.0628
 1002MOL0     C35156   5.760  10.263   7.221  0.0304  0.3257  0.5841
 1002MOL0     C35157   5.866  10.153   7.226 -0.3593  1.1064  0.6418
 1002MOL0     C35158   6.008  10.202   7.272  0.6510 -0.3516  0.5521
 1002MOL0     O35159   6.120  10.125   7.233  0.4228 -0.5000  0.2627
 1002MOL0     C35160   6.245  10.167   7.280 -0.5126 -0.4836 -0.6017
 1002MOL0     C35161   6.358  10.095   7.234 -0.3841  0.7091 -0.4361
 1002MOL0     C35162   6.492  10.130   7.277 -0.5111 -0.4497 -0.1023
 1002MOL0     C35163   6.511  10.240   7.366 -0.3494 -0.2347 -0.6693
 1002MOL0     C35164   6.642  10.256   7.434 -0.0609  0.0746  0.3761
 1002MOL0     O35165   6.749  10.174   7.395 -0.5348 -0.1468 -0.0821
 1002MOL0     C35166   6.869  10.206   7.443  0.1332  0.7784 -0.4218
 1002MOL0     C35167   6.940  10.304   7.376  0.2648 -0.7872 -0.0167
 1002MOL0     C35168   7.069  10.341   7.425  0.1458  0.5102  0.7951
 1002MOL0     C35169   7.128  10.276   7.540  0.0281  0.2762 -0.1625
 1002MOL0     O35170   7.248  10.296   7.604 -0.0343  0.4437  0.1340
 1002MOL0     C35171   7.323  10.419   7.579  0.1307 -0.3719  0.2556
 1002MOL0     C35172   7.467  10.383   7.549 -0.6000 -0.2784 -0.4721
 1002MOL0     C35173   7.560  10.493   7.505  0.2496 -0.4703  0.4958
 1002MOL0     C35174   7.692  10.431   7.441 -0.7881  0.1704 -0.0183
 1002MOL0     C35175   7.818  10.503   7.499  0.0184  0.0309 -0.0775
 1002MOL0     C35176   7.945  10.465   7.423 -0.1762  0.1851 -0.0440
 1002MOL0     C35177   8.065  10.530   7.497 -0.2680  0.1090 -0.4804
 1002MOL0     C35178   8.182  10.551   7.408 -0.0627 -0.0248 -0.2373
 1002MOL0    Cl35179   8.132  10.701   7.315 -0.3809  0.8229  0.1052
 1002MOL0     C35180   7.051  10.179   7.605  0.4405  0.2557 -0.1453
 1002MOL0     C35181   6.928  10.145   7.560  0.1045  0.5596 -0.1255
 1002MOL0     O35182   6.648  10.336   7.530  0.5043 -0.3295 -0.2985
 1002MOL0     C35183   6.396  10.314   7.407  0.0131 -0.7443  0.6521
 1002MOL0     C35184   6.269  10.279   7.360  0.3470 -0.3508 -0.0798
 1002MOL0     N35185   5.544  10.473   7.148  0.5771  0.1571 -0.0704
 1002MOL0     N35186   5.497  10.596   7.154 -0.8241 -0.0354 -0.2362
 1002MOL0     C35187   4.956  11.235   7.321  0.0856  0.4255  0.6885
 1002MOL0     C35188   4.819  11.234   7.342  0.7195  0.0378  0.5888
 1002MOL0     C35189   4.399  11.063   7.305 -0.1988  1.0594  0.6947
 1002MOL0     C35190   4.340  10.955   7.385 -0.3960 -1.0272 -0.9345
 1002MOL0     C35191   4.203  10.927   7.394  0.2846 -0.1286 -0.1847
 1002MOL0     C35192   4.107  11.011   7.325  0.7144  0.6474  0.2852
 1002MOL0     O35193   3.969  10.997   7.319 -0.8324 -0.6668 -0.7196
 1002MOL0     C35194   3.898  10.907   7.406  0.9102 -0.9714  0.4185
 1002MOL0     C35195   3.747  10.943   7.397 -0.1413  0.5503 -0.6849
 1002MOL0     C35196   3.676  10.826   7.479 -0.2523 -0.3656  0.2560
 1002MOL0     C35197   3.526  10.834   7.479 -0.1510 -0.0465 -0.1046
 1002MOL0     C35198   3.474  10.968   7.510  0.1247 -0.5653  0.4980
 1002MOL0     C35199   3.415  11.072   7.519 -0.0631 -0.5895 -0.6192
 1002MOL0     C35200   4.163  11.106   7.238  0.2252 -0.4323  0.5960
 1002MOL0     C35201   4.302  11.127   7.217 -0.0865 -0.5798 -0.7613
 1002MOL0     C35202   4.336  11.213   7.099 -0.3483  0.5533 -0.2201
 1002MOL0     H35203   4.713  11.162   7.029  0.2557  0.1731  0.7327
 1002MOL0     H35204   4.953  11.178   6.985 -2.9931 -2.4271 -0.3114
 1002MOL0     H35205   5.128  11.327   6.967  0.4185  2.7949 -0.6673
 1002MOL0     H35206   5.127  11.450   7.099  2.2076  2.3386 -2.9069
 1002MOL0     H35207   5.344  11.424   7.160  0.7617  2.3756 -2.1121
 1002MOL0     H35208   5.338  11.462   6.995 -0.7852 -0.8478 -0.4158
 1002MOL0     H35209   5.368  11.222   6.937 -0.6781 -0.1108  0.4956
 1002MOL0     H35210   5.382  11.187   7.116  0.8976  1.0957  1.3324
 1002MOL0     H35211   5.554  11.360   6.951  1.0585 -0.1278  0.4455
 1002MOL0     H35212   5.589  11.323   7.119 -0.6425  0.0131  0.7298
 1002MOL0     H35213   5.562  11.102   6.901 -0.3743  0.5884 -0.0949
 1002MOL0     H35214   5.709  11.185   6.945 -0.3765  2.4376  0.7638
 1002MOL0     H35215   5.736  11.064   7.136 -0.0966  1.9124 -1.1728
 1002MOL0     H35216   5.574  11.090   7.183  0.0060  3.5965 -0.3196
 1002MOL0     H35217   5.680  10.880   6.990 -0.2804  1.4570 -1.0075
 1002MOL0     H35218   5.507  10.910   6.998  1.1618  4.0210 -0.6384
 1002MOL0     H35219   5.667  10.840   7.248  2.3713 -1.6346 -0.6435
 1002MOL0     H35220   5.493  10.842   7.227 -0.2575  0.1622  2.8116
 1002MOL0     H35221   5.813  10.644   7.103 -0.7059  1.2320 -0.2245
 1002MOL0     H35222   5.751  10.309   6.996 -1.4676 -0.5148  0.3967
 1002MOL0     H35223   5.860  10.410   7.086 -0.1750 -0.2095  0.5329
 1002MOL0     H35224   5.770  10.317   7.316  2.3215 -1.6681  1.5890
 1002MOL0     H35225   5.670  10.202   7.231  1.4196 -1.7749  1.1556
 1002MOL0     H35226   5.868  10.101   7.130  0.9557  0.9578  0.7403
 1002MOL0     H35227   5.828  10.085   7.302  0.5942  1.1610  1.1737
 1002MOL0     H35228   6.008  10.197   7.381 -2.0708  2.7861  0.8670
 1002MOL0     H35229   6.017  10.307   7.241 -0.7718 -0.9219 -2.0535
 1002MOL0     H35230   6.343  10.021   7.156  0.0127  0.3285 -0.1548
 1002MOL0     H35231   6.576  10.070   7.242  0.0963  0.5165 -0.3607
 1002MOL0     H35232   6.889  10.354   7.294  0.4829  0.2190  0.4356
 1002MOL0     H35233   7.123  10.409   7.360 -0.3444  0.9722  0.8627
 1002MOL0     H35234   7.279  10.476   7.497 -1.1148  0.9087  1.7366
 1002MOL0     H35235   7.317  10.484   7.667 -1.2284  0.8022 -0.6688
 1002MOL0     H35236   7.506  10.342   7.643 -0.7813 -1.2664 -0.8163
 1002MOL0     H35237   7.463  10.301   7.477  0.4753 -0.8575  0.1038
 1002MOL0     H35238   7.501  10.562   7.444  1.3924 -0.6118 -0.8255
 1002MOL0     H35239   7.577  10.551   7.596  3.7255 -0.3720 -0.0972
 1002MOL0     H35240   7.675  10.449   7.335 -2.8918  0.5695  0.3371
 1002MOL0     H35241   7.694  10.323   7.458  1.4984  0.0846 -0.4879
 1002MOL0     H35242   7.826  10.466   7.601  2.3749 -2.3642 -1.0064
 1002MOL0     H35243   7.796  10.610   7.507 -1.2222 -0.3285  2.0631
 1002MOL0     H35244   7.972  10.359   7.425  2.0467  0.6948 -0.4204
 1002MOL0     H35245   7.928  10.506   7.323 -1.6107  2.6620  1.1243
 1002MOL0     H35246   8.087  10.467   7.584  0.0092  1.2120  0.2606
 1002MOL0     H35247   8.037  10.628   7.535  0.6177  0.2167 -0.0833
 1002MOL0     H35248   8.272  10.579   7.464 -0.6092  0.3237  0.4836
 1002MOL0     H35249   8.202  10.471   7.337  0.5464  1.3867 -1.7156
 1002MOL0     H35250   7.086  10.121   7.690  0.8042  0.9955  0.2139
 1002MOL0     H35251   6.872  10.062   7.604  0.2396  1.9206  2.8748
 1002MOL0     H35252   6.407  10.396   7.478  1.1246  0.9950 -1.4163
 1002MOL0     H35253   6.180  10.334   7.390 -0.8731 -0.5230 -3.0550
 1002MOL0     H35254   5.018  11.236   7.410 -1.4032  1.0208  1.7621
 1002MOL0     H35255   4.782  11.236   7.444  0.6209 -1.8779  0.6218
 1002MOL0     H35256   4.401  10.886   7.442  0.0451 -1.0274 -1.4032
 1002MOL0     H35257   4.174  10.844   7.458 -1.4951  1.7571  1.6290
 1002MOL0     H35258   3.929  10.916   7.511 -1.3713  1.5329  0.9773
 1002MOL0     H35259   3.915  10.807   7.364 -5.1367 -1.7868 -0.9652
 1002MOL0     H35260   3.712  10.938   7.293  1.3770 -3.5553 -1.1765
 1002MOL0     H35261   3.733  11.037   7.452  0.7876  0.5103 -0.3693
 1002MOL0     H35262   3.718  10.810   7.578 -0.9734  2.4874  1.0921
 1002MOL0     H35263   3.694  10.735   7.420 -2.2028 -0.1890 -0.6909
 1002MOL0     H35264   3.495  10.798   7.380 -1.5345 -1.7508  0.8913
 1002MOL0     H35265   3.488  10.756   7.547  0.6501 -0.1280  0.2654
 1002MOL0     H35266   3.356  11.161   7.518 -1.0380 -1.1654  1.0318
 1002MOL0     H35267   4.091  11.158   7.175  0.5287  2.7498  2.5814
 1002MOL0     H35268   4.315  11.318   7.124  3.5607  1.7524 -1.1200
 1002MOL0     H35269   4.445  11.212   7.087 -0.2317 -1.2774  0.7371
 1002MOL0     H35270   4.297  11.185   7.000  0.3552  2.2827 -1.0487
 1003MOL0     O35271   7.417   3.891  10.534 -0.3163 -0.7532 -0.0607
 1003MOL0     C35272   7.346   3.987  10.578  0.1130  0.6157  0.0535
 1003MOL0     O35273   7.392   4.089  10.646  0.1464 -0.1633 -0.0450
 1003MOL0     C35274   7.522   4.136  10.644  0.7730  0.3748  0.8516
 1003MOL0     C35275   7.598   4.132  10.524  0.1876 -0.2642  0.4352
 1003MOL0     C35276   7.729   4.175  10.525 -0.0132  0.4776  0.7692
 1003MOL0     C35277   7.780   4.238  10.634 -0.0999  0.3695 -0.2287
 1003MOL0     O35278   7.906   4.284  10.631  0.9111  0.3561  0.5104
 1003MOL0     C35279   7.943   4.385  10.727 -0.1350 -0.4444  0.1056
 1003MOL0     C35280   8.079   4.425  10.684 -0.2924 -0.6043 -0.5163
 1003MOL0     C35281   8.177   4.305  10.673  0.6188  0.0442  0.1983
 1003MOL0     C35282   8.325   4.354  10.645 -0.0038  0.6429  0.7061
 1003MOL0     C35283   8.432   4.257  10.706 -0.0401 -0.8602  0.3473
 1003MOL0     C35284   8.568   4.291  10.648  0.2728 -0.2912 -0.4858
 1003MOL0     C35285   8.671   4.196  10.709 -0.8717  0.2072 -0.2816
 1003MOL0     C35286   8.792   4.207  10.630  0.1011  0.3838 -0.8058
 1003MOL0     N35287   8.919   4.154  10.691  0.1045  0.6936 -0.5575
 1003MOL0     C35288   8.946   4.015  10.683  0.7136  0.1644 -0.2224
 1003MOL0     C35289   9.058   4.007  10.760 -0.3446 -0.0862  0.3315
 1003MOL0     C35290   9.130   3.875  10.791  1.2641  0.4790  0.3598
 1003MOL0     C35291   9.282   3.889  10.785  0.4191  0.1615  0.8932
 1003MOL0     C35292   9.349   3.763  10.812 -0.6137  0.6688  0.2521
 1003MOL0     C35293   9.504   3.790  10.815 -0.2280 -0.3916  0.5184
 1003MOL0     O35294   9.576   3.665  10.812  0.3190 -0.3339 -0.1538
 1003MOL0     C35295   9.711   3.656  10.824 -0.5618 -0.0180  0.5027
 1003MOL0     C35296   9.794   3.766  10.865 -0.2564 -0.2453  0.4659
 1003MOL0     C35297   9.931   3.749  10.882 -0.1120  0.3975 -0.1688
 1003MOL0     C35298   9.995   3.617  10.880 -0.2365  0.0510 -0.6592
 1003MOL0     C35299  10.142   3.592  10.895  0.8251  0.4515 -0.1635
 1003MOL0     O35300  10.188   3.466  10.864  0.1837 -0.3293  0.3820
 1003MOL0     C35301  10.282   3.450  10.773 -0.5815  0.7321  0.7011
 1003MOL0     C35302  10.376   3.350  10.801 -0.3064  0.7793  0.6688
 1003MOL0     C35303  10.489   3.334  10.714  0.3269  0.2701 -1.3917
 1003MOL0     C35304  10.511   3.415  10.604  0.2388 -0.0426 -0.3298
 1003MOL0     O35305  10.634   3.391  10.541  0.2732 -0.8340 -0.1095
 1003MOL0     C35306  10.694   3.511  10.497 -0.2548 -1.2046  0.2449
 1003MOL0     C35307  10.836   3.491  10.443  0.5819 -0.0483 -0.6946
 1003MOL0     C35308  10.937   3.431  10.548 -0.7902 -1.1962 -0.2876
 1003MOL0     C35309  10.993   3.534  10.644  0.4983 -0.7549 -0.0785
 1003MOL0     C35310  11.098   3.493  10.742 -0.0072 -0.2240  0.5242
 1003MOL0     C35311  11.206   3.406  10.683  0.5151 -0.5004  0.7977
 1003MOL0     C35312  11.312   3.378  10.785 -0.3986  0.1215  0.2953
 1003MOL0     C35313  11.437   3.336  10.710  0.0655  0.1713 -0.1182
 1003MOL0    Cl35314  11.510   3.464  10.625  0.2147  0.4164  0.0774
 1003MOL0     C35315  10.412   3.511  10.570 -0.5384  0.1794  0.1477
 1003MOL0     C35316  10.296   3.519  10.649  0.6772 -0.1939  0.2456
 1003MOL0     O35317  10.215   3.688  10.916 -0.9512 -0.2257 -0.0482
 1003MOL0     C35318   9.912   3.513  10.836  0.0381  0.7364  0.8214
 1003MOL0     C35319   9.777   3.532  10.813  1.0121  0.7215 -0.7972
 1003MOL0     N35320   9.092   4.133  10.808 -0.1609  0.1678 -0.0904
 1003MOL0     N35321   8.995   4.215  10.778  0.4976  0.2965 -0.0038
 1003MOL0     C35322   7.701   4.245  10.751  0.3144 -0.2391  0.7490
 1003MOL0     C35323   7.576   4.179  10.759 -0.2293 -0.1643 -0.3009
 1003MOL0     C35324   7.199   3.980  10.550  0.1630  0.4637 -1.1900
 1003MOL0     C35325   7.118   4.058  10.639  1.0948 -0.4250  0.1882
 1003MOL0     C35326   6.981   4.048  10.645  0.0074  0.4284 -0.3321
 1003MOL0     C35327   6.913   3.969  10.557  0.4800  0.4565 -0.3330
 1003MOL0     O35328   6.781   3.936  10.576 -1.0089  0.3244 -0.2496
 1003MOL0     C35329   6.702   4.020  10.668 -0.7068  0.1239 -0.2758
 1003MOL0     C35330   6.560   3.970  10.663  0.0598  0.1391 -0.1763
 1003MOL0     C35331   6.475   4.049  10.764  0.2253  1.1507  0.3210
 1003MOL0     C35332   6.326   4.016  10.743 -1.2243  0.4868  0.1737
 1003MOL0     C35333   6.289   4.061  10.610 -0.4230  0.8636 -0.8870
 1003MOL0     C35334   6.261   4.120  10.508 -0.0376 -0.3320  0.3710
 1003MOL0     C35335   6.991   3.891  10.465  0.0816 -0.5595 -0.1537
 1003MOL0     C35336   7.129   3.899  10.456  0.1617  0.2326  0.0655
 1003MOL0     C35337   7.210   3.803  10.368  0.8453 -0.0290  0.3754
 1003MOL0     H35338   7.563   4.096  10.428  1.7208 -1.5249  0.2947
 1003MOL0     H35339   7.782   4.180  10.430  1.0688 -0.1175  1.3252
 1003MOL0     H35340   7.882   4.475  10.714 -2.8752 -2.0897  0.8276
 1003MOL0     H35341   7.952   4.361  10.833 -1.2372 -0.6520  0.1601
 1003MOL0     H35342   8.126   4.487  10.761 -1.8197  0.2093 -0.1907
 1003MOL0     H35343   8.078   4.488  10.595  1.4385  1.4668  0.8288
 1003MOL0     H35344   8.154   4.235  10.593  1.8451 -0.8474  0.6033
 1003MOL0     H35345   8.169   4.241  10.761  0.3369  0.8811  0.8017
 1003MOL0     H35346   8.326   4.372  10.537 -0.7024  2.2271  0.9436
 1003MOL0     H35347   8.338   4.452  10.691 -0.0406 -0.0464  2.2760
 1003MOL0     H35348   8.434   4.270  10.814  0.5894  1.1343  0.1417
 1003MOL0     H35349   8.408   4.153  10.682 -1.6566 -0.2725 -0.7264
 1003MOL0     H35350   8.555   4.290  10.540  0.7219  0.5227 -0.5587
 1003MOL0     H35351   8.590   4.397  10.667 -0.5035 -0.5467  2.4233
 1003MOL0     H35352   8.645   4.089  10.711  1.4591 -0.4216  1.6018
 1003MOL0     H35353   8.699   4.227  10.810  0.0621 -0.4270 -0.3298
 1003MOL0     H35354   8.764   4.150  10.541 -0.3349  0.9057 -1.0054
 1003MOL0     H35355   8.804   4.314  10.608 -2.1854  0.8802  0.0544
 1003MOL0     H35356   8.892   3.931  10.642  1.9084 -0.5551 -0.3397
 1003MOL0     H35357   9.103   3.842  10.892 -1.5759 -0.6223 -0.6765
 1003MOL0     H35358   9.100   3.794  10.724  0.6377  2.1601 -1.5058
 1003MOL0     H35359   9.316   3.925  10.688  2.0788  0.1543  1.4386
 1003MOL0     H35360   9.315   3.967  10.855 -1.2177  1.2846  0.4830
 1003MOL0     H35361   9.333   3.675  10.748  1.6300 -0.5253  1.1951
 1003MOL0     H35362   9.327   3.730  10.914  2.2533  0.5937  0.9416
 1003MOL0     H35363   9.535   3.852  10.900  2.5683 -1.2147  0.2178
 1003MOL0     H35364   9.531   3.848  10.726  0.3047  0.4033  1.1849
 1003MOL0     H35365   9.756   3.867  10.864  1.1867  0.4292  3.2446
 1003MOL0     H35366   9.998   3.831  10.905  1.4345 -1.7403  4.1597
 1003MOL0     H35367  10.363   3.283  10.886  2.3553  0.9639  1.3159
 1003MOL0     H35368  10.559   3.253  10.731 -0.8160 -0.5194 -0.2827
 1003MOL0     H35369  10.640   3.556  10.412  0.1176  1.1334  1.1760
 1003MOL0     H35370  10.697   3.591  10.572  3.5751  0.6404 -1.5756
 1003MOL0     H35371  10.839   3.433  10.350 -2.3753  1.1260 -1.6503
 1003MOL0     H35372  10.869   3.591  10.415 -0.6665  0.2670 -1.1451
 1003MOL0     H35373  10.884   3.350  10.598  1.3018 -1.0996  2.3040
 1003MOL0     H35374  11.023   3.403  10.487  2.0556  2.2434  1.7688
 1003MOL0     H35375  10.902   3.564  10.697 -0.5903 -0.9000 -1.8036
 1003MOL0     H35376  11.027   3.628  10.599  0.3468 -0.6077  0.1118
 1003MOL0     H35377  11.054   3.446  10.831 -0.1357  0.5597  0.8801
 1003MOL0     H35378  11.141   3.586  10.781 -3.2936  0.5132  2.7463
 1003MOL0     H35379  11.154   3.318  10.643  0.6234 -0.2226  0.0302
 1003MOL0     H35380  11.256   3.456  10.599  2.8192 -1.5516  1.4640
 1003MOL0     H35381  11.280   3.297  10.851 -2.5527 -0.9325 -1.8784
 1003MOL0     H35382  11.337   3.462  10.851  3.1249 -2.3975  2.5436
 1003MOL0     H35383  11.506   3.303  10.788 -0.1805 -1.1299 -0.4251
 1003MOL0     H35384  11.431   3.257  10.634  3.9012  1.1802 -1.7185
 1003MOL0     H35385  10.431   3.592  10.500  0.9510 -1.3636 -1.3466
 1003MOL0     H35386  10.221   3.589  10.614  0.7779  0.9658  2.2143
 1003MOL0     H35387   9.959   3.415  10.827 -1.2819  0.1312  0.2185
 1003MOL0     H35388   9.714   3.448  10.786 -0.0918  1.7438 -1.4673
 1003MOL0     H35389   7.737   4.294  10.840  0.3731 -1.2796  1.3150
 1003MOL0     H35390   7.504   4.181  10.841 -1.0053 -1.3853 -0.9212
 1003MOL0     H35391   7.159   4.130  10.710 -0.8357  0.4573  0.4613
 1003MOL0     H35392   6.926   4.108  10.717 -1.0408 -0.9767  0.0984
 1003MOL0     H35393   6.707   4.127  10.643 -0.3529  0.5951  1.6450
 1003MOL0     H35394   6.748   3.995  10.764  2.5004  0.2305 -1.6413
 1003MOL0     H35395   6.560   3.868  10.702 -0.0192  0.2724  0.1721
 1003MOL0     H35396   6.518   3.961  10.563 -0.9210 -0.1410  0.2493
 1003MOL0     H35397   6.497   4.156  10.756 -0.9796  1.3665 -0.3244
 1003MOL0     H35398   6.506   4.019  10.865 -2.5824 -0.7034  0.7321
 1003MOL0     H35399   6.310   3.910  10.764  1.9998 -0.2351 -0.4406
 1003MOL0     H35400   6.273   4.069  10.822 -0.6076 -0.5363  1.3124
 1003MOL0     H35401   6.231   4.166  10.417  0.2515  1.9270  1.3589
 1003MOL0     H35402   6.937   3.833  10.391  0.7564  0.6039 -1.6428
 1003MOL0     H35403   7.269   3.732  10.427  2.4653 -1.0082 -2.2367
 1003MOL0     H35404   7.149   3.742  10.301 -0.4542 -1.1860  2.5142
 1003MOL0     H35405   7.283   3.861  10.311 -0.1454  0.6653 -0.2158
 1004MOL0     O35406   0.365   7.126  11.037  0.2898 -1.0765 -0.1479
 1004MOL0     C35407   0.473   7.118  10.976  0.9098 -0.0836 -0.0198
 1004MOL0     O35408   0.486   7.066  10.847  0.3583  0.2910  0.4605
 1004MOL0     C35409   0.373   7.038  10.775  0.0728 -0.9325 -0.2450
 1004MOL0     C35410   0.352   6.911  10.728  0.1397  0.1665 -0.0263
 1004MOL0     C35411   0.240   6.887  10.649  0.1181  0.0625 -0.5040
 1004MOL0     C35412   0.137   6.979  10.639  0.4887  0.3520  0.9058
 1004MOL0     O35413   0.034   6.937  10.557  0.2756 -0.0241 -0.0383
 1004MOL0     C35414  -0.065   7.038  10.499 -0.1441  0.3570 -0.0634
 1004MOL0     C35415  -0.182   6.959  10.426  0.4901 -0.3198 -1.1017
 1004MOL0     C35416  -0.298   6.905  10.520 -0.6482 -0.1318 -0.0947
 1004MOL0     C35417  -0.396   6.834  10.431 -0.5892  0.3774 -0.3311
 1004MOL0     C35418  -0.498   6.764  10.527  0.3751  0.1877  0.9168
 1004MOL0     C35419  -0.607   6.676  10.448  0.6372  0.1374  0.2960
 1004MOL0     C35420  -0.692   6.753  10.340 -0.9255  0.3578 -0.1384
 1004MOL0     C35421  -0.800   6.833  10.422  0.7061 -0.1798  0.3856
 1004MOL0     N35422  -0.879   6.927  10.337 -0.2535 -0.1055  0.4653
 1004MOL0     C35423  -0.926   7.055  10.369 -0.0916 -1.0789  0.4076
 1004MOL0     C35424  -1.002   7.103  10.266  0.6456  0.9067 -0.8213
 1004MOL0     C35425  -1.071   7.227  10.284 -0.3491 -0.9331  0.4984
 1004MOL0     C35426  -1.190   7.203  10.378  0.2129  0.0098 -0.3668
 1004MOL0     C35427  -1.291   7.315  10.389 -0.4100 -0.5664 -0.0618
 1004MOL0     C35428  -1.238   7.447  10.454 -0.3995 -0.3964 -0.0053
 1004MOL0     O35429  -1.146   7.521  10.368  0.6139  0.1900  0.8677
 1004MOL0     C35430  -1.114   7.648  10.393  0.5733  0.2946  0.4567
 1004MOL0     C35431  -1.146   7.709  10.511  0.6952  0.1272  0.1263
 1004MOL0     C35432  -1.118   7.845  10.529  0.1233  0.2416  0.4817
 1004MOL0     C35433  -1.074   7.927  10.419  0.3888 -0.2303  0.0485
 1004MOL0     C35434  -1.072   8.071  10.433 -0.0431  0.4103 -0.1306
 1004MOL0     O35435  -1.002   8.138  10.340 -0.5286 -0.5535  0.7389
 1004MOL0     C35436  -0.969   8.269  10.368 -0.1991  0.3886 -0.3788
 1004MOL0     C35437  -1.024   8.370  10.283  0.1079  0.4720 -0.5499
 1004MOL0     C35438  -0.993   8.508  10.313  0.1297 -0.5392  0.0987
 1004MOL0     C35439  -0.913   8.544  10.427  0.0357 -0.2081 -0.4405
 1004MOL0     O35440  -0.875   8.668  10.469 -0.1829  0.1543 -0.1650
 1004MOL0     C35441  -0.830   8.766  10.374  1.5364 -0.2252  0.3404
 1004MOL0     C35442  -0.796   8.899  10.443  0.8875  0.1428  0.0604
 1004MOL0     C35443  -0.667   8.874  10.530  0.3972 -0.3254  0.3895
 1004MOL0     C35444  -0.619   9.003  10.600 -0.6309  0.3276 -0.9744
 1004MOL0     C35445  -0.552   9.103  10.508 -0.8450  0.3687  0.2914
 1004MOL0     C35446  -0.431   9.064  10.419  0.1899  0.2403  0.1969
 1004MOL0     C35447  -0.311   9.029  10.498 -0.5089  0.2136  0.3834
 1004MOL0     C35448  -0.179   9.026  10.420 -0.5852  0.2625 -0.3298
 1004MOL0    Cl35449  -0.145   9.200  10.397 -0.0681 -0.6240  0.3084
 1004MOL0     C35450  -0.863   8.440  10.510  0.3572  0.4010  0.2741
 1004MOL0     C35451  -0.891   8.305  10.475 -0.8550 -0.0850  0.2930
 1004MOL0     O35452  -1.122   8.117  10.539  0.3053 -0.0449  0.5618
 1004MOL0     C35453  -1.039   7.862  10.300  0.4024 -1.1779 -0.1179
 1004MOL0     C35454  -1.054   7.720  10.290 -0.7425 -0.3807  0.4232
 1004MOL0     N35455  -1.004   7.006  10.174 -0.5626  0.0202  0.1139
 1004MOL0     N35456  -0.928   6.906  10.213  0.5142  0.5328  0.0475
 1004MOL0     C35457   0.157   7.110  10.688  0.1409  0.4256 -0.0082
 1004MOL0     C35458   0.276   7.139  10.759  0.4516  0.0136 -0.3889
 1004MOL0     C35459   0.600   7.172  11.037  0.7159 -0.4379 -0.3063
 1004MOL0     C35460   0.720   7.132  10.976 -0.6635 -0.1738  0.7861
 1004MOL0     C35461   0.845   7.169  11.024 -0.2216  0.1428  0.1792
 1004MOL0     C35462   0.846   7.253  11.133  0.3938  0.3831 -0.1897
 1004MOL0     O35463   0.967   7.273  11.187  0.4618 -0.0639  0.0014
 1004MOL0     C35464   0.991   7.381  11.276  0.1776 -0.1088 -0.5011
 1004MOL0     C35465   1.139   7.378  11.307  0.2573  0.4044  0.1302
 1004MOL0     C35466   1.180   7.491  11.412 -0.0619  0.5660 -0.3668
 1004MOL0     C35467   1.333   7.455  11.449  0.2646  0.4626 -0.0062
 1004MOL0     C35468   1.394   7.566  11.522  0.2680  0.2485 -0.6394
 1004MOL0     C35469   1.452   7.659  11.574 -0.4262  0.3604  0.3664
 1004MOL0     C35470   0.726   7.300  11.192  0.1929 -0.4074  0.3922
 1004MOL0     C35471   0.602   7.271  11.146  0.3910  0.4848 -0.0225
 1004MOL0     C35472   0.479   7.326  11.214 -0.1904  0.1194  0.2737
 1004MOL0     H35473   0.428   6.834  10.719 -2.1043 -2.0784 -1.7224
 1004MOL0     H35474   0.234   6.785  10.611  2.2094 -0.9489  1.5986
 1004MOL0     H35475  -0.105   7.112  10.570 -2.3349  1.8772 -2.7012
 1004MOL0     H35476   0.001   7.073  10.419  0.6458 -1.7528 -0.3914
 1004MOL0     H35477  -0.135   6.882  10.364  0.9835  1.4344 -3.0508
 1004MOL0     H35478  -0.233   7.036  10.367 -2.3527 -1.4636 -0.2820
 1004MOL0     H35479  -0.347   6.990  10.570 -0.7320  1.0889 -2.1226
 1004MOL0     H35480  -0.256   6.839  10.596 -0.1421 -1.5279 -1.5103
 1004MOL0     H35481  -0.442   6.910  10.366 -0.2031  0.6972 -0.2351
 1004MOL0     H35482  -0.346   6.756  10.374  0.1716 -0.0210  0.8646
 1004MOL0     H35483  -0.448   6.699  10.599 -1.5368 -0.5002  1.6934
 1004MOL0     H35484  -0.552   6.838  10.587 -1.5049 -1.1936  1.0614
 1004MOL0     H35485  -0.559   6.592  10.396 -1.4195 -1.0229  0.1492
 1004MOL0     H35486  -0.672   6.636  10.527  1.0850  0.9635  1.1072
 1004MOL0     H35487  -0.744   6.689  10.268  1.6599 -1.2192 -0.7035
 1004MOL0     H35488  -0.636   6.813  10.268 -1.4048 -0.5526 -1.3121
 1004MOL0     H35489  -0.866   6.760  10.469  0.9418 -1.5393 -1.2968
 1004MOL0     H35490  -0.745   6.894  10.495  0.8101 -1.6697  1.6113
 1004MOL0     H35491  -0.908   7.111  10.461 -0.9674  2.0261 -1.1823
 1004MOL0     H35492  -1.005   7.296  10.337  0.7936 -2.8364  1.6971
 1004MOL0     H35493  -1.115   7.258  10.189  0.7530 -0.6775  0.0635
 1004MOL0     H35494  -1.242   7.120  10.328  0.6920  0.2579 -1.3118
 1004MOL0     H35495  -1.161   7.170  10.478 -1.9235 -0.2558  0.2119
 1004MOL0     H35496  -1.374   7.281  10.451 -1.3042  0.9846 -0.3410
 1004MOL0     H35497  -1.329   7.343  10.290  2.2216  1.4916 -0.6354
 1004MOL0     H35498  -1.189   7.423  10.549  1.7250  0.4975 -0.8331
 1004MOL0     H35499  -1.324   7.512  10.474 -0.0148  0.5421 -1.2750
 1004MOL0     H35500  -1.201   7.652  10.585 -0.6384 -4.1255 -3.6930
 1004MOL0     H35501  -1.160   7.887  10.620 -2.7573  0.4602 -0.8392
 1004MOL0     H35502  -1.090   8.351  10.199 -1.2218 -1.4880  0.8423
 1004MOL0     H35503  -1.043   8.585  10.256  0.6529  0.1937  0.6180
 1004MOL0     H35504  -0.744   8.731  10.317 -0.5902 -2.5259 -1.7378
 1004MOL0     H35505  -0.913   8.778  10.304  2.2175  1.2776 -0.2411
 1004MOL0     H35506  -0.795   8.982  10.372 -0.5598  1.0325  1.0191
 1004MOL0     H35507  -0.877   8.905  10.516  1.1019 -0.6298  0.3681
 1004MOL0     H35508  -0.685   8.798  10.607 -0.3288 -0.9016 -0.3232
 1004MOL0     H35509  -0.586   8.825  10.475 -0.0395 -0.0407 -0.5328
 1004MOL0     H35510  -0.550   8.973  10.679  1.4775  1.7282 -2.1931
 1004MOL0     H35511  -0.709   9.042  10.648 -0.1364 -1.8212  1.9641
 1004MOL0     H35512  -0.509   9.180  10.573  0.9646 -1.4376  1.3195
 1004MOL0     H35513  -0.631   9.147  10.445  1.4373  1.6072 -1.8911
 1004MOL0     H35514  -0.460   8.986  10.348 -3.2416  0.1567  1.4704
 1004MOL0     H35515  -0.409   9.152  10.358 -0.3973 -1.2139 -2.2741
 1004MOL0     H35516  -0.333   8.934  10.548 -1.1842 -0.5892 -1.3707
 1004MOL0     H35517  -0.301   9.109  10.571 -1.5829  0.5044  0.2136
 1004MOL0     H35518  -0.101   8.983  10.483 -1.8365 -0.1265  1.0015
 1004MOL0     H35519  -0.179   8.970  10.326  3.2784  0.6713 -0.7387
 1004MOL0     H35520  -0.803   8.462  10.598  1.3338 -0.5995 -0.1257
 1004MOL0     H35521  -0.860   8.230  10.547 -1.5368 -1.8494 -1.1820
 1004MOL0     H35522  -1.015   7.928  10.218  1.7898  0.5126  1.5509
 1004MOL0     H35523  -1.028   7.651  10.211 -3.2497 -0.6497 -0.2468
 1004MOL0     H35524   0.085   7.191  10.684 -0.3713 -0.0080  0.2084
 1004MOL0     H35525   0.296   7.238  10.799  1.5293 -0.3232 -0.0481
 1004MOL0     H35526   0.716   7.077  10.883 -0.8266 -0.8933  1.2060
 1004MOL0     H35527   0.940   7.127  10.994  0.3404  0.8935  0.8823
 1004MOL0     H35528   0.939   7.358  11.370  1.4566 -0.6004  0.1060
 1004MOL0     H35529   0.956   7.474  11.229 -0.4824 -0.2760 -0.3584
 1004MOL0     H35530   1.192   7.395  11.213 -2.3297  1.2429 -1.2396
 1004MOL0     H35531   1.161   7.277  11.343  2.3820 -0.1567 -2.4260
 1004MOL0     H35532   1.117   7.492  11.502 -0.6346  1.0072 -0.7684
 1004MOL0     H35533   1.179   7.594  11.375  2.6749  1.5055  1.8205
 1004MOL0     H35534   1.331   7.359  11.502  2.0961 -0.0699 -0.8072
 1004MOL0     H35535   1.380   7.431  11.353 -2.4167 -0.2826 -1.2444
 1004MOL0     H35536   1.503   7.737  11.628  2.0406 -0.7639 -0.2286
 1004MOL0     H35537   0.728   7.366  11.278 -1.1872  1.2388 -0.7523
 1004MOL0     H35538   0.508   7.376  11.307 -0.4264 -1.0459  1.0088
 1004MOL0     H35539   0.429   7.391  11.142 -1.8362 -0.9319  0.4082
 1004MOL0     H35540   0.408   7.250  11.251  2.4406 -0.4816  4.8789
 1005MOL0     O35541   1.243   9.653   1.193  0.3109  0.9344 -0.3713
 1005MOL0     C35542   1.185   9.749   1.147 -0.3641 -0.0842 -0.3383
 1005MOL0     O35543   1.250   9.855   1.096 -0.6426  0.1336  0.4490
 1005MOL0     C35544   1.374   9.886   1.148 -0.1415  0.0208  0.0192
 1005MOL0     C35545   1.410   9.884   1.281  1.0760  1.8436  0.4890
 1005MOL0     C35546   1.544   9.883   1.324  0.5733  1.2667  1.6844
 1005MOL0     C35547   1.650   9.900   1.234 -0.9675  0.7219  0.0372
 1005MOL0     O35548   1.779   9.901   1.282 -0.7774 -0.0125  0.3548
 1005MOL0     C35549   1.877   9.980   1.212  0.3464  0.3279  0.1575
 1005MOL0     C35550   2.001   9.985   1.306  0.1500  0.5214  0.4077
 1005MOL0     C35551   2.101   9.865   1.302 -0.1104  0.1780 -0.1054
 1005MOL0     C35552   2.113   9.806   1.446  0.0193  0.4444  0.3645
 1005MOL0     C35553   2.219   9.699   1.448  0.4824 -0.4524 -0.2576
 1005MOL0     C35554   2.366   9.752   1.466 -0.7031  0.5214  0.4561
 1005MOL0     C35555   2.476   9.649   1.477 -0.2313 -1.0458 -0.2819
 1005MOL0     C35556   2.475   9.593   1.619  0.0749 -0.0847 -0.5043
 1005MOL0     N35557   2.594   9.507   1.636 -0.1413 -0.7709 -1.1575
 1005MOL0     C35558   2.619   9.376   1.605 -0.2615 -0.5650  0.2224
 1005MOL0     C35559   2.754   9.363   1.628  0.7554 -1.2590 -0.0274
 1005MOL0     C35560   2.821   9.233   1.621 -0.8839  0.3786 -0.3263
 1005MOL0     C35561   2.969   9.253   1.574 -0.7372 -0.3913 -0.0653
 1005MOL0     C35562   3.061   9.278   1.697 -0.4553  0.2852  0.1170
 1005MOL0     C35563   3.212   9.304   1.648 -0.0499  0.1791 -0.0836
 1005MOL0     O35564   3.275   9.191   1.591 -0.2876 -0.4948  0.1202
 1005MOL0     C35565   3.413   9.197   1.576 -0.2324 -0.5306 -0.2031
 1005MOL0     C35566   3.483   9.318   1.584  0.2250 -0.5805 -0.3040
 1005MOL0     C35567   3.620   9.310   1.568  0.7427 -1.0673 -0.6516
 1005MOL0     C35568   3.694   9.197   1.542 -0.3168 -0.5293 -0.5596
 1005MOL0     C35569   3.843   9.210   1.516  0.4856 -0.1220  0.8719
 1005MOL0     O35570   3.913   9.090   1.483  0.4233 -1.0348 -0.4113
 1005MOL0     C35571   4.048   9.087   1.463 -1.5920  0.8652  0.4378
 1005MOL0     C35572   4.149   9.190   1.477  0.7813  0.2644 -1.6605
 1005MOL0     C35573   4.282   9.172   1.453  0.8082  0.9816 -0.2494
 1005MOL0     C35574   4.337   9.052   1.418 -0.5077  0.2563  0.0007
 1005MOL0     O35575   4.474   9.045   1.399  0.5464 -0.1383 -0.1944
 1005MOL0     C35576   4.528   8.913   1.425  0.3326  0.0872 -0.7032
 1005MOL0     C35577   4.683   8.919   1.429  0.4822  0.1443  0.0815
 1005MOL0     C35578   4.736   8.784   1.475 -0.8638  0.1503  1.1450
 1005MOL0     C35579   4.896   8.787   1.465 -1.2030  0.4339 -0.7189
 1005MOL0     C35580   4.948   8.652   1.544  0.2382 -0.9870  0.5500
 1005MOL0     C35581   5.074   8.602   1.472 -0.5576 -0.0362 -0.2263
 1005MOL0     C35582   5.145   8.485   1.541 -0.2691  0.0936  0.2522
 1005MOL0     C35583   5.232   8.409   1.440 -0.1008  0.4677  0.4961
 1005MOL0    Cl35584   5.351   8.525   1.378  0.2733  0.2038  0.1196
 1005MOL0     C35585   4.246   8.943   1.398  0.5146 -0.3405  1.0614
 1005MOL0     C35586   4.110   8.956   1.420  0.2379  0.3008 -0.3105
 1005MOL0     O35587   3.897   9.322   1.533  0.0101 -0.3885  0.3826
 1005MOL0     C35588   3.628   9.073   1.538  0.0638  0.5929 -1.3152
 1005MOL0     C35589   3.491   9.079   1.559  0.1054 -0.4737 -0.5527
 1005MOL0     N35590   2.807   9.485   1.662 -0.0737  0.3304 -0.3652
 1005MOL0     N35591   2.710   9.568   1.679 -1.0493 -0.5491 -0.1894
 1005MOL0     C35592   1.614   9.922   1.102  0.0104  0.3029 -0.0900
 1005MOL0     C35593   1.479   9.911   1.055 -0.2401  0.3400 -0.9579
 1005MOL0     C35594   1.044   9.748   1.163  0.1484 -0.3828 -0.1744
 1005MOL0     C35595   0.983   9.859   1.104  0.1901 -0.3369 -0.4601
 1005MOL0     C35596   0.841   9.867   1.084 -0.6359 -0.3297 -0.3518
 1005MOL0     C35597   0.753   9.765   1.124  0.2246  0.1441 -0.6273
 1005MOL0     O35598   0.611   9.776   1.119 -0.2696  0.1478 -0.2119
 1005MOL0     C35599   0.555   9.901   1.066  0.6820  0.8988  0.2656
 1005MOL0     C35600   0.404   9.879   1.052 -0.4210  0.2636 -0.1915
 1005MOL0     C35601   0.329   9.804   1.167 -0.8078 -0.8838 -0.6515
 1005MOL0     C35602   0.183   9.847   1.170 -0.5775 -1.7340  0.2013
 1005MOL0     C35603   0.124   9.795   1.292  0.2778  1.3372 -0.5483
 1005MOL0     C35604   0.061   9.769   1.390 -0.3031  0.0972  0.3273
 1005MOL0     C35605   0.821   9.653   1.186 -0.2844  1.3159 -0.4142
 1005MOL0     C35606   0.962   9.642   1.210 -0.4527 -0.0408  0.1753
 1005MOL0     C35607   1.015   9.513   1.279  0.0434 -0.1832  0.1109
 1005MOL0     H35608   1.331   9.883   1.356  0.4385  3.2481 -0.1381
 1005MOL0     H35609   1.558   9.858   1.428  0.8593 -2.2063  0.9265
 1005MOL0     H35610   1.896   9.932   1.115 -0.0539 -0.8669  0.6518
 1005MOL0     H35611   1.845  10.084   1.198  1.8920  0.9208  0.8484
 1005MOL0     H35612   1.963   9.990   1.409  3.3747 -0.6412  1.8132
 1005MOL0     H35613   2.050  10.082   1.296 -0.1614  0.6688  0.3039
 1005MOL0     H35614   2.201   9.897   1.268  1.1892 -0.2148  2.9735
 1005MOL0     H35615   2.073   9.790   1.228  1.1818 -0.5060  0.0621
 1005MOL0     H35616   2.144   9.887   1.513  2.4205 -0.9962  1.1045
 1005MOL0     H35617   2.016   9.765   1.475  0.7138 -0.8814  0.9185
 1005MOL0     H35618   2.197   9.633   1.532  0.5646  0.4782  0.5191
 1005MOL0     H35619   2.215   9.643   1.355 -0.6534 -1.2124  0.2300
 1005MOL0     H35620   2.379   9.820   1.382 -2.0676 -1.0812 -1.1344
 1005MOL0     H35621   2.376   9.822   1.550  2.7390  0.2082  0.4586
 1005MOL0     H35622   2.563   9.715   1.471  0.1862 -1.6814 -1.4580
 1005MOL0     H35623   2.481   9.569   1.402 -1.4890 -0.5160 -0.9545
 1005MOL0     H35624   2.482   9.674   1.692  0.3168 -0.8505  0.3500
 1005MOL0     H35625   2.386   9.530   1.628  0.1388  0.1696  3.1306
 1005MOL0     H35626   2.544   9.310   1.564  0.4500 -1.6003  0.5251
 1005MOL0     H35627   2.818   9.191   1.722 -1.0740  1.9590  0.3555
 1005MOL0     H35628   2.770   9.160   1.556  0.9217 -1.6193  0.3876
 1005MOL0     H35629   3.004   9.162   1.525  0.7148 -0.0193  0.2218
 1005MOL0     H35630   2.980   9.337   1.504 -0.3547  0.7593  1.3082
 1005MOL0     H35631   3.066   9.193   1.766  1.3977  1.3501  1.4035
 1005MOL0     H35632   3.033   9.367   1.753  1.8587  1.7023 -0.8238
 1005MOL0     H35633   3.264   9.344   1.735  1.1297 -0.9411 -0.2411
 1005MOL0     H35634   3.208   9.379   1.568  0.5579 -2.0421 -2.3475
 1005MOL0     H35635   3.438   9.416   1.598  0.4534 -0.7927  2.3539
 1005MOL0     H35636   3.663   9.410   1.559 -0.3431 -0.5108  0.2114
 1005MOL0     H35637   4.121   9.294   1.491 -0.2893 -0.1491 -0.6095
 1005MOL0     H35638   4.356   9.251   1.454  2.7103 -0.5667 -3.6082
 1005MOL0     H35639   4.494   8.875   1.522 -3.2290  0.5763 -1.6106
 1005MOL0     H35640   4.490   8.848   1.345  0.2360 -1.4773  0.5500
 1005MOL0     H35641   4.733   8.943   1.334  1.6161 -1.6803  0.1808
 1005MOL0     H35642   4.697   8.994   1.507 -0.4570 -0.2704  0.6717
 1005MOL0     H35643   4.723   8.768   1.583  4.4002  0.8971  2.1289
 1005MOL0     H35644   4.697   8.702   1.415 -0.9761 -0.6442  2.2584
 1005MOL0     H35645   4.941   8.876   1.510 -2.0564  2.3677 -3.4256
 1005MOL0     H35646   4.928   8.783   1.361 -0.1347  0.4815 -0.4000
 1005MOL0     H35647   4.877   8.570   1.551  1.6696 -2.2523  0.8061
 1005MOL0     H35648   4.969   8.680   1.648  1.3656 -0.4812  0.2060
 1005MOL0     H35649   5.039   8.571   1.373 -3.5083  2.3097 -0.0827
 1005MOL0     H35650   5.144   8.686   1.463 -0.1835 -0.0999  1.7003
 1005MOL0     H35651   5.080   8.411   1.588 -0.0149  0.6683  1.5756
 1005MOL0     H35652   5.202   8.523   1.627 -0.5686 -1.5949  1.2411
 1005MOL0     H35653   5.298   8.335   1.488 -0.4162 -0.2297 -0.1319
 1005MOL0     H35654   5.169   8.350   1.373  0.4409 -0.3966  0.7172
 1005MOL0     H35655   4.271   8.846   1.357 -0.1426  0.4553 -1.3851
 1005MOL0     H35656   4.038   8.888   1.377  2.0006 -1.1418 -1.1011
 1005MOL0     H35657   3.688   8.985   1.514  0.9712  1.7890 -3.7229
 1005MOL0     H35658   3.443   8.981   1.555 -1.3549  0.2496 -1.7398
 1005MOL0     H35659   1.679   9.953   1.020 -1.3196  2.2288 -0.5040
 1005MOL0     H35660   1.456   9.936   0.952  1.2153  1.0245 -1.1457
 1005MOL0     H35661   1.047   9.941   1.074  1.0236 -0.0241  2.0053
 1005MOL0     H35662   0.806   9.958   1.036 -0.4780 -0.5279 -0.8483
 1005MOL0     H35663   0.595   9.920   0.966 -1.3110  1.2146 -0.5189
 1005MOL0     H35664   0.573   9.980   1.140  1.8032 -0.9259  2.0290
 1005MOL0     H35665   0.381   9.829   0.957 -0.7507  1.2696 -0.6548
 1005MOL0     H35666   0.369   9.981   1.040  0.9641  0.9221  1.0674
 1005MOL0     H35667   0.369   9.832   1.265 -0.9688 -1.4935 -0.4049
 1005MOL0     H35668   0.344   9.696   1.159  0.4468 -0.9310  1.5516
 1005MOL0     H35669   0.177   9.956   1.161  0.4541 -1.7150 -0.4264
 1005MOL0     H35670   0.134   9.803   1.083  0.1190 -2.9770  0.4076
 1005MOL0     H35671   0.019   9.739   1.485  0.3833  1.5978  1.1367
 1005MOL0     H35672   0.755   9.577   1.227 -1.4035  3.3293  1.7975
 1005MOL0     H35673   1.094   9.469   1.217  0.5637 -1.2459  1.4676
 1005MOL0     H35674   1.066   9.533   1.373 -2.8122 -1.2708  2.0063
 1005MOL0     H35675   0.932   9.444   1.294 -1.9783  1.4239 -2.6658
 1006MOL0     O35676   0.802   5.490   4.127  0.1964  0.0671 -0.0602
 1006MOL0     C35677   0.724   5.577   4.087 -0.2181 -0.0082  0.3775
 1006MOL0     O35678   0.760   5.709   4.076  0.5228 -0.5815  0.3091
 1006MOL0     C35679   0.878   5.758   4.136  0.0274  0.6752 -0.0097
 1006MOL0     C35680   0.882   5.892   4.188  0.8440 -0.9120  0.8543
 1006MOL0     C35681   0.992   5.949   4.237 -0.3926 -0.2568 -0.2727
 1006MOL0     C35682   1.122   5.885   4.234 -0.4308  0.4904  0.6500
 1006MOL0     O35683   1.234   5.952   4.280  0.4381 -0.4723 -0.7049
 1006MOL0     C35684   1.365   5.906   4.249 -0.7003  1.0218 -0.0792
 1006MOL0     C35685   1.401   5.965   4.112 -0.6584  0.5033  0.6706
 1006MOL0     C35686   1.543   5.922   4.070  0.1691  0.7505  0.2386
 1006MOL0     C35687   1.590   5.987   3.936  0.5264  0.2441  0.5141
 1006MOL0     C35688   1.749   5.976   3.918 -0.4138  0.2725 -0.5011
 1006MOL0     C35689   1.788   6.074   3.807 -0.0604  0.6507 -0.1992
 1006MOL0     C35690   1.941   6.067   3.773 -0.4610  0.2397  0.3035
 1006MOL0     C35691   1.997   6.194   3.699 -0.1226 -0.0365 -1.1296
 1006MOL0     N35692   2.135   6.183   3.647 -0.2340 -0.0454 -0.6970
 1006MOL0     C35693   2.188   6.096   3.549 -0.7020 -0.4533  0.1815
 1006MOL0     C35694   2.324   6.122   3.549  0.2966 -0.7027 -0.6449
 1006MOL0     C35695   2.419   6.034   3.472 -0.5470 -0.3910 -0.1474
 1006MOL0     C35696   2.537   6.130   3.448  0.2151  0.3180 -0.5049
 1006MOL0     C35697   2.646   6.138   3.558  0.2598  0.5724  0.0596
 1006MOL0     C35698   2.765   6.211   3.518  1.2239  1.1262 -0.2167
 1006MOL0     O35699   2.811   6.131   3.405  0.1821  0.4081 -0.4022
 1006MOL0     C35700   2.926   6.178   3.347 -0.5022  0.0129 -0.2119
 1006MOL0     C35701   2.998   6.095   3.254  0.5161 -0.1904 -0.5197
 1006MOL0     C35702   3.113   6.132   3.196 -0.1218 -0.4879  0.0969
 1006MOL0     C35703   3.167   6.262   3.218 -0.7823  0.5329  0.2476
 1006MOL0     C35704   3.297   6.295   3.151 -0.7886  0.5291  0.3130
 1006MOL0     O35705   3.370   6.403   3.190 -0.2725 -0.4023  0.7977
 1006MOL0     C35706   3.488   6.446   3.128 -0.1580 -0.0100  0.1103
 1006MOL0     C35707   3.541   6.551   3.191  0.3152 -0.4134  0.2055
 1006MOL0     C35708   3.659   6.616   3.143 -0.1305 -0.8828  0.3507
 1006MOL0     C35709   3.720   6.580   3.019 -0.4820  0.0006  0.4586
 1006MOL0     O35710   3.836   6.629   2.973  0.5271 -0.4187  0.6980
 1006MOL0     C35711   3.930   6.658   3.078  1.3849  0.6108 -0.5520
 1006MOL0     C35712   4.061   6.692   3.013 -0.2035  0.0270  1.1104
 1006MOL0     C35713   4.169   6.730   3.108 -0.2455 -0.8183 -0.2620
 1006MOL0     C35714   4.286   6.803   3.043 -0.3418 -0.3065 -1.1666
 1006MOL0     C35715   4.407   6.792   3.140 -0.2938 -0.6293 -0.6822
 1006MOL0     C35716   4.397   6.900   3.257  0.1865  0.0745 -0.1686
 1006MOL0     C35717   4.527   6.906   3.341 -0.1192 -0.9525  0.4383
 1006MOL0     C35718   4.528   7.034   3.425  0.4131  0.2668  0.0397
 1006MOL0    Cl35719   4.657   7.151   3.386 -0.0486 -0.1166 -0.0649
 1006MOL0     C35720   3.656   6.477   2.947  0.1719 -0.5493  0.4336
 1006MOL0     C35721   3.544   6.422   2.997 -0.2238 -0.4451 -0.9644
 1006MOL0     O35722   3.332   6.213   3.065  0.1359  0.2153  0.2247
 1006MOL0     C35723   3.099   6.353   3.298  0.2976  0.5611  0.4655
 1006MOL0     C35724   2.980   6.307   3.363 -0.9465  0.2802  0.3451
 1006MOL0     N35725   2.341   6.215   3.653 -0.1737  0.3852  0.8754
 1006MOL0     N35726   2.231   6.262   3.693  0.7924  0.5242 -0.5309
 1006MOL0     C35727   1.114   5.753   4.179  0.3408  1.0232 -0.1947
 1006MOL0     C35728   1.000   5.688   4.137 -0.5043 -0.2981 -0.2296
 1006MOL0     C35729   0.592   5.547   4.035  0.5721 -0.6093 -0.9455
 1006MOL0     C35730   0.543   5.612   3.925 -0.0149 -0.8735  0.4414
 1006MOL0     C35731   0.409   5.582   3.881 -0.1102  0.2828  0.2087
 1006MOL0     C35732   0.322   5.495   3.945 -0.1655  0.4373  0.2520
 1006MOL0     O35733   0.200   5.475   3.883  0.3080  0.2890  0.2603
 1006MOL0     C35734   0.084   5.424   3.951  0.2880 -0.1009 -0.5410
 1006MOL0     C35735  -0.037   5.441   3.854  0.4356  0.3135  0.3168
 1006MOL0     C35736  -0.174   5.386   3.903  0.6865 -0.4131 -0.4413
 1006MOL0     C35737  -0.167   5.233   3.891  0.7407 -0.1932 -0.4133
 1006MOL0     C35738  -0.297   5.174   3.887  0.2907  0.3444 -0.2915
 1006MOL0     C35739  -0.408   5.130   3.874  0.1236 -0.7291  0.9941
 1006MOL0     C35740   0.373   5.434   4.056  0.1634  0.0737 -0.1079
 1006MOL0     C35741   0.509   5.450   4.093 -0.0497 -0.4505  0.3999
 1006MOL0     C35742   0.539   5.377   4.216 -0.6075  0.7908 -0.6205
 1006MOL0     H35743   0.786   5.941   4.200  2.1207  1.8042  0.7186
 1006MOL0     H35744   0.991   6.045   4.286 -1.9402 -0.6013  0.4404
 1006MOL0     H35745   1.440   5.929   4.326  1.5252  0.6791 -2.0178
 1006MOL0     H35746   1.373   5.798   4.235 -0.0958  1.0070  0.3160
 1006MOL0     H35747   1.417   6.072   4.132  3.4165 -0.0038  0.9510
 1006MOL0     H35748   1.325   5.950   4.035 -0.5897  2.4751  0.1609
 1006MOL0     H35749   1.544   5.813   4.059 -3.7139  0.5542  0.6203
 1006MOL0     H35750   1.614   5.944   4.150 -2.0742 -0.2855  2.6488
 1006MOL0     H35751   1.541   5.949   3.846  1.7785 -0.1647 -0.0175
 1006MOL0     H35752   1.568   6.094   3.935  0.0669  0.1488 -0.0443
 1006MOL0     H35753   1.799   6.004   4.011 -0.3172 -1.7041  0.0889
 1006MOL0     H35754   1.785   5.875   3.897 -3.7593 -1.4908  1.4229
 1006MOL0     H35755   1.734   6.032   3.722  1.4455 -1.6591 -0.1169
 1006MOL0     H35756   1.749   6.175   3.824 -0.4890  0.3451  0.6875
 1006MOL0     H35757   1.966   5.986   3.703  3.2534  0.2459  1.3819
 1006MOL0     H35758   2.001   6.043   3.862 -0.1233 -2.1158 -0.4815
 1006MOL0     H35759   1.925   6.224   3.622 -1.7932  0.0789  0.4338
 1006MOL0     H35760   2.007   6.265   3.782  2.3709 -1.6937  0.1157
 1006MOL0     H35761   2.147   6.006   3.504 -1.0030 -0.9057  1.3335
 1006MOL0     H35762   2.430   5.947   3.537 -2.0332 -0.3052  0.2541
 1006MOL0     H35763   2.369   6.010   3.377 -1.8676  0.8870  0.1800
 1006MOL0     H35764   2.586   6.102   3.354  0.2383 -1.3613 -0.0251
 1006MOL0     H35765   2.505   6.231   3.423  0.7874  0.3454 -1.1484
 1006MOL0     H35766   2.669   6.035   3.588 -2.8491  0.4367  2.4215
 1006MOL0     H35767   2.605   6.193   3.643 -0.9968 -0.1712 -0.0358
 1006MOL0     H35768   2.834   6.221   3.603  2.2579  1.8116 -1.1013
 1006MOL0     H35769   2.740   6.314   3.491 -1.5053  0.0906 -2.1047
 1006MOL0     H35770   2.963   5.993   3.247 -0.6409  0.1820 -0.3431
 1006MOL0     H35771   3.156   6.049   3.140 -1.2859 -1.1953  0.2356
 1006MOL0     H35772   3.496   6.572   3.288 -1.4441 -3.9219  0.2972
 1006MOL0     H35773   3.699   6.699   3.201 -0.7511  1.2287 -2.0737
 1006MOL0     H35774   3.895   6.746   3.132  1.4513  1.4504 -1.8153
 1006MOL0     H35775   3.943   6.574   3.146 -3.2969  0.2699  0.2609
 1006MOL0     H35776   4.092   6.603   2.957  3.5510  1.1103  1.1558
 1006MOL0     H35777   4.043   6.771   2.940  2.3048 -0.4185 -0.0999
 1006MOL0     H35778   4.132   6.802   3.181 -2.1376 -3.0656  1.1488
 1006MOL0     H35779   4.204   6.644   3.167 -0.3833  0.2543  1.4686
 1006MOL0     H35780   4.265   6.910   3.031 -0.4535 -0.2623 -0.6026
 1006MOL0     H35781   4.312   6.768   2.943  2.3931  0.8925 -0.9740
 1006MOL0     H35782   4.501   6.785   3.085 -0.7314 -1.5093 -1.3497
 1006MOL0     H35783   4.411   6.690   3.180 -3.1477 -1.8708 -3.2298
 1006MOL0     H35784   4.380   6.996   3.208 -1.5681  1.2604  2.5247
 1006MOL0     H35785   4.317   6.879   3.329  0.8056  0.4041  0.6238
 1006MOL0     H35786   4.615   6.918   3.277 -0.7932 -0.3485 -0.3803
 1006MOL0     H35787   4.547   6.824   3.411  1.5971 -0.1319  0.9661
 1006MOL0     H35788   4.430   7.081   3.413 -0.8755 -1.7745  1.7905
 1006MOL0     H35789   4.546   6.998   3.527  1.6771 -3.3186 -1.2948
 1006MOL0     H35790   3.696   6.439   2.854 -0.2950 -1.5164  0.6228
 1006MOL0     H35791   3.500   6.341   2.941  1.6539  0.5100 -4.0231
 1006MOL0     H35792   3.150   6.449   3.307 -1.5503  1.5914  0.4329
 1006MOL0     H35793   2.948   6.373   3.442 -0.2217  2.0762 -0.8107
 1006MOL0     H35794   1.207   5.700   4.161 -1.4968 -2.9104  0.7393
 1006MOL0     H35795   1.007   5.588   4.097 -0.7215 -1.0429  1.4965
 1006MOL0     H35796   0.613   5.679   3.876 -0.7194 -1.4788 -1.4618
 1006MOL0     H35797   0.374   5.639   3.796  0.4415  2.2451  1.2143
 1006MOL0     H35798   0.063   5.482   4.041  1.1867  2.6235 -1.9515
 1006MOL0     H35799   0.100   5.319   3.974  0.2464 -0.1151 -0.5761
 1006MOL0     H35800  -0.019   5.392   3.758 -0.9272  0.9562 -0.3052
 1006MOL0     H35801  -0.054   5.547   3.831 -0.3499  0.2406  0.5325
 1006MOL0     H35802  -0.256   5.424   3.843  1.9328 -1.9124 -3.2538
 1006MOL0     H35803  -0.199   5.420   4.004 -0.8793  0.3273 -1.0541
 1006MOL0     H35804  -0.118   5.195   3.802 -0.8950  1.5307 -2.1473
 1006MOL0     H35805  -0.112   5.194   3.977  1.2752 -1.2830 -1.2241
 1006MOL0     H35806  -0.507   5.089   3.873 -1.0568  1.8630 -1.2511
 1006MOL0     H35807   0.305   5.367   4.108  1.0404 -1.0960 -0.4250
 1006MOL0     H35808   0.458   5.310   4.247 -0.9084  0.1789 -2.5283
 1006MOL0     H35809   0.622   5.313   4.181 -0.1943  0.6197  0.6377
 1006MOL0     H35810   0.578   5.448   4.289  0.6136  0.6759 -1.1197
 1007MOL0     O35811   7.313   5.044  10.477  1.2647 -0.1485 -0.5793
 1007MOL0     C35812   7.301   5.005  10.362 -0.3922  0.1859  0.7955
 1007MOL0     O35813   7.403   5.016  10.264  0.2099 -0.2528  0.0839
 1007MOL0     C35814   7.528   5.071  10.302  0.3735  0.0872  0.1267
 1007MOL0     C35815   7.638   5.000  10.258  0.0873 -0.1464 -0.5449
 1007MOL0     C35816   7.765   5.054  10.268  0.0454 -0.4385  0.0224
 1007MOL0     C35817   7.786   5.173  10.342  0.7129 -0.5253  0.4303
 1007MOL0     O35818   7.915   5.211  10.362  0.2077  0.5358  0.0202
 1007MOL0     C35819   7.951   5.307  10.468  0.1211  0.2314  0.2660
 1007MOL0     C35820   8.098   5.351  10.453 -0.1637  0.3105 -0.3472
 1007MOL0     C35821   8.191   5.234  10.425  0.1031  0.1083 -0.1265
 1007MOL0     C35822   8.333   5.271  10.450 -0.1467 -0.7295 -0.7633
 1007MOL0     C35823   8.431   5.151  10.462 -0.0580 -0.1156 -0.0586
 1007MOL0     C35824   8.578   5.193  10.493 -0.5420  0.6920 -0.2422
 1007MOL0     C35825   8.670   5.079  10.551 -0.3798 -0.3110  0.2594
 1007MOL0     C35826   8.706   4.960  10.469 -0.7580  0.1515 -0.5592
 1007MOL0     N35827   8.739   4.985  10.335  0.0932  0.1858 -0.3508
 1007MOL0     C35828   8.687   4.932  10.221 -0.5402  0.4222 -0.2762
 1007MOL0     C35829   8.764   4.983  10.124 -0.8955  0.0971 -0.2164
 1007MOL0     C35830   8.755   4.960   9.974  1.0661 -0.6289  0.0796
 1007MOL0     C35831   8.847   4.846   9.925  0.5309 -0.1987  0.6038
 1007MOL0     C35832   8.999   4.885   9.938  0.1117 -0.2130 -0.2341
 1007MOL0     C35833   9.089   4.802   9.856 -0.7005  0.2212  0.4346
 1007MOL0     O35834   9.081   4.675   9.910  0.1297  0.2009  0.5237
 1007MOL0     C35835   9.172   4.581   9.875 -0.2472  0.3758 -0.3842
 1007MOL0     C35836   9.161   4.462   9.942  0.0621 -0.2547 -0.6234
 1007MOL0     C35837   9.254   4.359   9.922 -0.1781 -0.4513 -0.4849
 1007MOL0     C35838   9.367   4.379   9.846 -0.1440 -0.1113  0.0855
 1007MOL0     C35839   9.484   4.283   9.830 -0.3620  0.5682 -0.3411
 1007MOL0     O35840   9.602   4.328   9.779  0.2876  0.2480  0.2334
 1007MOL0     C35841   9.718   4.261   9.818 -0.0944  0.4205  0.7531
 1007MOL0     C35842   9.779   4.268   9.944 -0.8037  0.5340 -0.3912
 1007MOL0     C35843   9.898   4.187   9.972  0.5237 -0.0208  0.5461
 1007MOL0     C35844   9.929   4.079   9.890 -0.0703  1.0336  0.4186
 1007MOL0     O35845  10.015   3.997   9.946 -0.4387 -0.0872 -0.4983
 1007MOL0     C35846  10.045   3.877   9.873  0.1869  0.1957  0.2689
 1007MOL0     C35847  10.135   3.903   9.751  0.5033 -0.2898 -0.4866
 1007MOL0     C35848  10.202   3.769   9.702  0.0506  0.0281  1.0951
 1007MOL0     C35849  10.256   3.780   9.558  0.3327 -0.6448 -0.4295
 1007MOL0     C35850  10.336   3.656   9.514 -0.5685  0.4717  0.0625
 1007MOL0     C35851  10.473   3.625   9.585 -0.3394  0.2819 -0.2732
 1007MOL0     C35852  10.561   3.529   9.503 -0.1467 -0.4127  0.0143
 1007MOL0     C35853  10.495   3.396   9.492  0.1268  0.5305 -0.5878
 1007MOL0    Cl35854  10.373   3.382   9.355 -0.0842 -0.3305  0.1538
 1007MOL0     C35855   9.856   4.063   9.771 -0.0178 -0.1680 -0.7372
 1007MOL0     C35856   9.755   4.149   9.740 -0.5147 -0.0997 -0.8425
 1007MOL0     O35857   9.464   4.167   9.870  0.6169  0.3715  0.0036
 1007MOL0     C35858   9.383   4.510   9.785  0.2137 -0.5654 -0.4316
 1007MOL0     C35859   9.291   4.608   9.798  0.2612  0.0870 -0.1433
 1007MOL0     N35860   8.866   5.062  10.171 -0.0509 -0.4684  0.5928
 1007MOL0     N35861   8.861   5.046  10.302 -0.2715 -0.1180  1.2523
 1007MOL0     C35862   7.674   5.239  10.399  0.5623  0.3039  0.1559
 1007MOL0     C35863   7.548   5.184  10.378  0.2205 -0.1735  0.0397
 1007MOL0     C35864   7.180   4.925  10.321 -0.0029 -0.0115  0.6976
 1007MOL0     C35865   7.143   4.927  10.184 -0.4412 -0.5221  0.0472
 1007MOL0     C35866   7.017   4.876  10.152 -1.1195  0.4386 -1.0470
 1007MOL0     C35867   6.944   4.798  10.238  0.9912 -0.0616 -0.2256
 1007MOL0     O35868   6.828   4.737  10.182  0.5550 -0.5892 -0.1099
 1007MOL0     C35869   6.730   4.668  10.256  0.8163 -0.2541 -0.6422
 1007MOL0     C35870   6.621   4.603  10.171  0.1145  0.8200 -0.4589
 1007MOL0     C35871   6.539   4.694  10.084 -0.1888 -0.0571  0.0741
 1007MOL0     C35872   6.450   4.626   9.978 -0.9378  0.4279 -0.1186
 1007MOL0     C35873   6.375   4.720   9.891  0.7199  0.3403  0.6046
 1007MOL0     C35874   6.319   4.801   9.826  1.0114  0.6110 -0.2321
 1007MOL0     C35875   6.975   4.799  10.376 -0.4143 -0.0128 -0.8331
 1007MOL0     C35876   7.094   4.864  10.417 -0.1138  1.2383 -0.3851
 1007MOL0     C35877   7.124   4.851  10.564  0.2393 -0.3280  0.8017
 1007MOL0     H35878   7.611   4.909  10.204 -0.7476  0.7274 -1.6570
 1007MOL0     H35879   7.849   4.992  10.242  0.2808  0.2719 -0.9802
 1007MOL0     H35880   7.891   5.399  10.467 -0.6921 -0.2471  1.8885
 1007MOL0     H35881   7.937   5.256  10.563 -3.9398 -0.4995 -0.5247
 1007MOL0     H35882   8.124   5.385  10.553 -0.0982 -0.5282 -0.0651
 1007MOL0     H35883   8.105   5.432  10.380  2.0074 -0.1310 -0.7121
 1007MOL0     H35884   8.177   5.189  10.326  1.5024 -0.7451  0.0299
 1007MOL0     H35885   8.164   5.158  10.499  0.3434 -0.0643 -0.2155
 1007MOL0     H35886   8.365   5.338  10.369  0.0031 -0.8225 -0.7832
 1007MOL0     H35887   8.333   5.331  10.541  2.9263 -0.6867 -0.6777
 1007MOL0     H35888   8.388   5.084  10.537 -3.8322  2.8330  0.7020
 1007MOL0     H35889   8.426   5.099  10.366 -1.2007  1.2011 -0.7424
 1007MOL0     H35890   8.621   5.245  10.407 -1.9947 -1.8562 -2.6432
 1007MOL0     H35891   8.565   5.271  10.569  0.1655 -0.4993  1.1688
 1007MOL0     H35892   8.623   5.029  10.637 -0.2344 -1.0257 -0.0693
 1007MOL0     H35893   8.759   5.131  10.588 -1.3107  0.5041  1.4662
 1007MOL0     H35894   8.789   4.905  10.513 -1.3938  0.3007  0.8752
 1007MOL0     H35895   8.621   4.892  10.474  0.0257 -0.8554 -0.8115
 1007MOL0     H35896   8.588   4.894  10.196 -0.6405  1.4368 -1.5505
 1007MOL0     H35897   8.651   4.932   9.955  1.4982 -0.4060 -3.0510
 1007MOL0     H35898   8.780   5.054   9.925  1.8105  0.1390  1.8542
 1007MOL0     H35899   8.825   4.752   9.978  0.9335 -2.7532 -3.3527
 1007MOL0     H35900   8.828   4.839   9.818  0.3215 -0.0869  0.6342
 1007MOL0     H35901   9.034   4.889  10.041  0.6961  1.1850 -0.4674
 1007MOL0     H35902   8.998   4.988   9.900 -2.4710  1.2347  3.1701
 1007MOL0     H35903   9.189   4.845   9.856  0.3449 -1.8103 -2.9980
 1007MOL0     H35904   9.060   4.807   9.751 -0.1785 -0.1849  0.2654
 1007MOL0     H35905   9.073   4.442  10.002  0.3059 -0.6192 -0.3810
 1007MOL0     H35906   9.238   4.263   9.969 -5.0188 -0.2678 -1.2016
 1007MOL0     H35907   9.760   4.332  10.030 -0.1917  0.0683  0.1083
 1007MOL0     H35908   9.943   4.197  10.071 -0.6049 -0.0418  1.0722
 1007MOL0     H35909  10.095   3.809   9.943 -0.3359 -1.5831 -0.9975
 1007MOL0     H35910   9.956   3.823   9.840  1.2854 -0.0021 -2.7217
 1007MOL0     H35911  10.084   3.950   9.667 -0.7481 -0.3416  0.2104
 1007MOL0     H35912  10.212   3.974   9.783  0.0766 -0.9262  2.2258
 1007MOL0     H35913  10.286   3.741   9.766  0.3908 -2.7141 -0.4174
 1007MOL0     H35914  10.130   3.687   9.706 -2.8272  2.1113 -2.2778
 1007MOL0     H35915  10.317   3.871   9.553  0.2237 -0.5879 -0.7540
 1007MOL0     H35916  10.161   3.789   9.505 -2.6096  1.1691  4.4328
 1007MOL0     H35917  10.361   3.661   9.408 -2.4933  3.1461 -0.3487
 1007MOL0     H35918  10.271   3.569   9.527 -1.3131  1.2053  1.6011
 1007MOL0     H35919  10.538   3.712   9.584 -0.0894  0.1118 -2.1068
 1007MOL0     H35920  10.460   3.602   9.691 -0.3663  2.0032  0.1187
 1007MOL0     H35921  10.648   3.507   9.565 -1.5549 -2.1874  1.4863
 1007MOL0     H35922  10.581   3.569   9.403 -0.1142  1.4577  0.7317
 1007MOL0     H35923  10.569   3.316   9.483 -0.2207  0.0663  0.5138
 1007MOL0     H35924  10.435   3.377   9.582 -0.7698  2.3740 -0.7509
 1007MOL0     H35925   9.874   3.978   9.706  0.9821 -0.3777 -0.1957
 1007MOL0     H35926   9.701   4.119   9.651  1.0128  3.7038 -3.3551
 1007MOL0     H35927   9.477   4.539   9.739  0.9744 -3.0515 -0.5569
 1007MOL0     H35928   9.300   4.699   9.740  0.7846 -0.0936 -0.3443
 1007MOL0     H35929   7.683   5.327  10.461  0.6257  3.3702 -3.8301
 1007MOL0     H35930   7.467   5.246  10.414  1.8890  1.9167  0.4297
 1007MOL0     H35931   7.194   4.983  10.107 -1.6127  1.1396  0.4228
 1007MOL0     H35932   6.982   4.870  10.049  0.9602 -4.6892 -1.7685
 1007MOL0     H35933   6.679   4.733  10.328 -0.3361  0.9757 -2.4586
 1007MOL0     H35934   6.776   4.584  10.308  3.1907  1.3726  0.0669
 1007MOL0     H35935   6.555   4.546  10.236  0.8910  0.4287  0.0061
 1007MOL0     H35936   6.665   4.528  10.104  0.4604 -0.5275  1.2177
 1007MOL0     H35937   6.608   4.757  10.028 -1.3642 -0.4493 -1.9225
 1007MOL0     H35938   6.478   4.762  10.144  3.2327  1.5251  2.0315
 1007MOL0     H35939   6.517   4.568   9.913 -1.9038 -0.7613 -0.0942
 1007MOL0     H35940   6.388   4.549  10.026 -0.0652  1.2606  2.4973
 1007MOL0     H35941   6.264   4.872   9.769  0.3141  0.6349  0.4607
 1007MOL0     H35942   6.903   4.756  10.446 -1.1175 -0.1333 -1.6145
 1007MOL0     H35943   7.228   4.821  10.579 -0.0762 -0.6490  2.5676
 1007MOL0     H35944   7.106   4.947  10.614 -0.8645  0.1318 -0.4272
 1007MOL0     H35945   7.058   4.779  10.612 -1.9802  1.3116  0.3491
 1008MOL0     O35946   8.553  10.356   9.399  0.7490 -0.1687  0.1024
 1008MOL0     C35947   8.589  10.302   9.505  0.8891 -0.0396 -0.0174
 1008MOL0     O35948   8.721  10.295   9.542 -0.3588  0.1923  0.2482
 1008MOL0     C35949   8.823  10.373   9.489 -0.1545  0.3023  0.4463
 1008MOL0     C35950   8.844  10.388   9.349  1.1448 -0.4872  0.0523
 1008MOL0     C35951   8.951  10.461   9.295 -0.0327  0.0614 -0.0568
 1008MOL0     C35952   9.051  10.515   9.381 -0.2025 -0.5871  0.1985
 1008MOL0     O35953   9.165  10.568   9.313  0.1089  0.4939 -0.0524
 1008MOL0     C35954   9.268  10.621   9.398 -0.3338  1.6438 -0.2049
 1008MOL0     C35955   9.366  10.696   9.308  0.0128 -0.3017  0.5952
 1008MOL0     C35956   9.446  10.609   9.226 -0.0570  1.0030  0.0084
 1008MOL0     C35957   9.565  10.671   9.150  1.0301 -0.5495  0.6502
 1008MOL0     C35958   9.616  10.579   9.038  0.2701  0.3279  0.3938
 1008MOL0     C35959   9.685  10.456   9.082 -0.6048  0.4021  0.7337
 1008MOL0     C35960   9.704  10.361   8.960  0.5357 -0.0632 -0.4845
 1008MOL0     C35961   9.804  10.254   8.998 -0.4399 -0.7852 -0.8290
 1008MOL0     N35962   9.941  10.302   9.003 -0.0890  0.2423  0.3556
 1008MOL0     C35963  10.004  10.368   8.898  0.2241 -0.0679 -0.5339
 1008MOL0     C35964  10.128  10.383   8.933 -0.0457 -0.7149 -0.5182
 1008MOL0     C35965  10.236  10.474   8.878  0.0600  0.2278  0.3325
 1008MOL0     C35966  10.378  10.423   8.925  0.1203  0.2107 -0.4150
 1008MOL0     C35967  10.467  10.466   8.809 -0.5208 -0.2174  0.2225
 1008MOL0     C35968  10.619  10.464   8.851 -0.0753  0.1188 -0.3075
 1008MOL0     O35969  10.697  10.510   8.739 -0.2983 -0.2488 -0.3722
 1008MOL0     C35970  10.831  10.523   8.746 -0.4180  0.6344  0.4686
 1008MOL0     C35971  10.905  10.505   8.866 -0.0045 -0.0388  0.4976
 1008MOL0     C35972  11.045  10.511   8.858 -0.6089  0.2963  0.0613
 1008MOL0     C35973  11.104  10.551   8.735 -0.2445 -0.7459  0.7799
 1008MOL0     C35974  11.253  10.560   8.725 -0.6270  0.3396 -0.3562
 1008MOL0     O35975  11.325  10.523   8.840 -0.3337  0.2490  0.1092
 1008MOL0     C35976  11.462  10.545   8.836 -0.7297  0.6694  0.6082
 1008MOL0     C35977  11.523  10.618   8.936  0.2827 -0.6031 -0.3348
 1008MOL0     C35978  11.669  10.644   8.930 -0.1356 -0.1424  0.0816
 1008MOL0     C35979  11.743  10.581   8.828 -0.0831 -0.8868 -0.5615
 1008MOL0     O35980  11.880  10.587   8.826 -0.4660 -0.5032 -0.1733
 1008MOL0     C35981  11.939  10.717   8.859  0.6129  0.2527  0.3219
 1008MOL0     C35982  12.073  10.725   8.777 -0.2988  0.5920 -0.3374
 1008MOL0     C35983  12.177  10.643   8.835  0.5301  0.2712  0.2343
 1008MOL0     C35984  12.319  10.669   8.769  0.4675 -0.0993 -0.2000
 1008MOL0     C35985  12.337  10.661   8.620  0.2476 -0.1004  0.1436
 1008MOL0     C35986  12.280  10.536   8.554 -0.0616  0.5692  0.7431
 1008MOL0     C35987  12.289  10.537   8.405  0.7132 -0.0850 -0.2098
 1008MOL0     C35988  12.209  10.419   8.352  0.0386  0.4194  0.2191
 1008MOL0    Cl35989  12.198  10.429   8.162 -0.1618  0.1792  0.3202
 1008MOL0     C35990  11.682  10.505   8.732  0.0794 -1.3887  0.1215
 1008MOL0     C35991  11.542  10.480   8.735  0.2772 -0.9600  0.6367
 1008MOL0     O35992  11.302  10.604   8.622  0.3531 -0.2341 -0.2331
 1008MOL0     C35993  11.032  10.582   8.618  0.5186 -0.3213 -0.3587
 1008MOL0     C35994  10.896  10.564   8.624  0.9674 -0.1483  0.0114
 1008MOL0     N35995  10.143  10.327   9.054 -0.3759 -0.2341 -0.3165
 1008MOL0     N35996  10.035  10.282   9.099 -0.3170 -0.2930  0.6746
 1008MOL0     C35997   9.031  10.498   9.516  0.3712  0.9743 -0.0911
 1008MOL0     C35998   8.919  10.430   9.564 -0.5884 -0.3824 -0.6163
 1008MOL0     C35999   8.484  10.262   9.598 -1.1448 -0.0015  0.1833
 1008MOL0     C36000   8.352  10.302   9.562  0.4648 -0.0956 -0.0978
 1008MOL0     C36001   8.241  10.254   9.627 -0.0838  0.5255 -1.0687
 1008MOL0     C36002   8.265  10.161   9.745  0.1436  0.5005  0.0565
 1008MOL0     O36003   8.150  10.120   9.810 -0.0618  0.0231 -0.2415
 1008MOL0     C36004   8.159  10.022   9.906 -0.3571 -0.2226  0.1572
 1008MOL0     C36005   8.017   9.982   9.941 -0.0150  0.7087  0.5440
 1008MOL0     C36006   8.008   9.855  10.032 -0.6758  0.3703  0.6593
 1008MOL0     C36007   7.990   9.900  10.178 -0.2339  0.7510 -0.7819
 1008MOL0     C36008   8.005   9.786  10.267 -0.3274  0.4536  0.1207
 1008MOL0     C36009   8.026   9.691  10.346  0.2804  0.0345 -0.5868
 1008MOL0     C36010   8.394  10.131   9.781 -0.4803 -0.4290  0.4304
 1008MOL0     C36011   8.509  10.188   9.718 -0.4108 -0.3108 -0.0874
 1008MOL0     C36012   8.649  10.147   9.765 -0.4985 -0.1518  0.7528
 1008MOL0     H36013   8.773  10.346   9.279  1.1286 -1.7218  0.7629
 1008MOL0     H36014   8.951  10.475   9.188 -0.1452  0.5586  0.0062
 1008MOL0     H36015   9.219  10.688   9.469 -0.1480  0.8449  0.7047
 1008MOL0     H36016   9.327  10.542   9.444 -1.3026  0.6554 -0.5983
 1008MOL0     H36017   9.427  10.754   9.378 -0.3776  0.7116  0.1204
 1008MOL0     H36018   9.312  10.767   9.245  1.0603  0.8310  0.9225
 1008MOL0     H36019   9.371  10.575   9.155  0.6277 -0.1068 -0.2017
 1008MOL0     H36020   9.472  10.515   9.276  0.9057  1.6069  0.6886
 1008MOL0     H36021   9.526  10.762   9.104 -0.0448 -2.0111 -1.4990
 1008MOL0     H36022   9.640  10.689   9.228  0.1191  0.0800  1.4068
 1008MOL0     H36023   9.528  10.554   8.977  1.4272 -3.2948  0.0122
 1008MOL0     H36024   9.686  10.631   8.971  0.4627  0.9801  1.0789
 1008MOL0     H36025   9.785  10.484   9.116 -1.8546  2.9330  2.5837
 1008MOL0     H36026   9.626  10.410   9.162 -0.6830  0.8513  0.9389
 1008MOL0     H36027   9.739  10.411   8.870 -1.7251  1.9187 -0.3596
 1008MOL0     H36028   9.605  10.320   8.938  0.0626  0.9744 -0.3533
 1008MOL0     H36029   9.776  10.210   9.094 -0.6598  1.0652  0.0062
 1008MOL0     H36030   9.796  10.175   8.922 -0.8900  0.4019 -2.0637
 1008MOL0     H36031   9.964  10.394   8.800  0.3911 -1.5841 -1.0414
 1008MOL0     H36032  10.220  10.474   8.770  1.0745  0.4237  0.1778
 1008MOL0     H36033  10.216  10.571   8.924  3.2067  0.2653  1.8819
 1008MOL0     H36034  10.401  10.468   9.022  1.8323  2.0538 -1.5979
 1008MOL0     H36035  10.389  10.315   8.932 -0.7591  0.0730 -0.9391
 1008MOL0     H36036  10.463  10.573   8.788  1.6825 -0.5490 -2.3817
 1008MOL0     H36037  10.447  10.403   8.722 -3.8418 -0.1590  0.7855
 1008MOL0     H36038  10.652  10.363   8.878 -0.2337  0.4772  1.3673
 1008MOL0     H36039  10.636  10.525   8.941 -2.4492  0.3620  0.0232
 1008MOL0     H36040  10.865  10.481   8.964 -2.3981  0.0827 -0.3863
 1008MOL0     H36041  11.108  10.499   8.946  0.1152 -1.0544 -0.6071
 1008MOL0     H36042  11.476  10.673   9.016  4.0328  1.8071  0.4495
 1008MOL0     H36043  11.713  10.714   9.001 -2.7139  2.0426 -0.3191
 1008MOL0     H36044  11.880  10.802   8.824 -2.3980  0.6547  5.3931
 1008MOL0     H36045  11.958  10.732   8.965 -0.3156  1.8056  0.2942
 1008MOL0     H36046  12.049  10.689   8.677 -1.8046 -2.1160  0.8892
 1008MOL0     H36047  12.098  10.831   8.761 -0.4667  0.7533  0.4053
 1008MOL0     H36048  12.188  10.642   8.943  1.2077 -1.6335  0.1823
 1008MOL0     H36049  12.149  10.540   8.816  3.5191 -0.6823  0.4774
 1008MOL0     H36050  12.382  10.589   8.809 -0.4961 -1.3974 -1.1828
 1008MOL0     H36051  12.354  10.769   8.797 -1.5736  0.4058  0.7183
 1008MOL0     H36052  12.445  10.653   8.607  0.6660  2.5469  1.2971
 1008MOL0     H36053  12.301  10.751   8.570  0.2367  1.7841  3.2644
 1008MOL0     H36054  12.333  10.450   8.598  0.3440  0.3249 -0.2094
 1008MOL0     H36055  12.173  10.522   8.570 -0.2931  2.0757  0.5979
 1008MOL0     H36056  12.393  10.540   8.371  0.2098  2.8094 -1.7985
 1008MOL0     H36057  12.232  10.625   8.373 -1.4022  0.3003  4.0459
 1008MOL0     H36058  12.264  10.328   8.379  2.2467  1.3692 -0.8129
 1008MOL0     H36059  12.109  10.422   8.396  0.2685 -1.6051  0.9745
 1008MOL0     H36060  11.741  10.457   8.654  2.1194 -0.0943  0.7945
 1008MOL0     H36061  11.495  10.403   8.676  0.7522 -0.6156 -0.2168
 1008MOL0     H36062  11.097  10.609   8.535  0.6169  1.6180  0.2767
 1008MOL0     H36063  10.852  10.596   8.530  0.5303  2.5801  1.0676
 1008MOL0     H36064   9.109  10.541   9.578 -0.5827  2.0183  0.4330
 1008MOL0     H36065   8.916  10.427   9.672  1.6227 -5.0196 -0.4390
 1008MOL0     H36066   8.331  10.370   9.480  0.0809 -1.8234 -1.4685
 1008MOL0     H36067   8.144  10.292   9.598 -1.8121 -1.0177  2.1625
 1008MOL0     H36068   8.204  10.053  10.001 -1.1445 -3.2217  1.6302
 1008MOL0     H36069   8.214   9.937   9.866  1.0291 -0.7263  2.9036
 1008MOL0     H36070   7.969   9.958   9.846  4.1768  2.3549 -2.3007
 1008MOL0     H36071   7.960  10.066   9.982  0.5372  0.9115  0.9050
 1008MOL0     H36072   8.106   9.806  10.022 -0.3538  1.4440 -2.8108
 1008MOL0     H36073   7.926   9.789  10.001 -2.1341  2.5988 -0.4995
 1008MOL0     H36074   8.080   9.949  10.215 -0.5561 -0.0671  1.2120
 1008MOL0     H36075   7.898   9.954  10.204 -0.3805 -0.4417  1.5427
 1008MOL0     H36076   8.043   9.598  10.396  0.6612 -0.3757 -1.4520
 1008MOL0     H36077   8.411  10.072   9.871 -1.6825 -0.3592  0.7226
 1008MOL0     H36078   8.646  10.099   9.863 -0.7903  0.9064  1.2767
 1008MOL0     H36079   8.689  10.075   9.693 -1.0202 -1.6236  1.8706
 1008MOL0     H36080   8.717  10.232   9.771 -0.1681 -0.4382  1.1423
 1009MOL0     O36081   5.181   4.355  10.469 -0.3460 -0.6605  0.8712
 1009MOL0     C36082   5.234   4.372  10.357 -0.2965  0.6239 -0.4232
 1009MOL0     O36083   5.170   4.386  10.234  0.2617 -0.1923 -0.1257
 1009MOL0     C36084   5.047   4.329  10.212  0.1404  0.2442  0.3208
 1009MOL0     C36085   4.984   4.225  10.281  0.1366  0.0990 -0.0806
 1009MOL0     C36086   4.847   4.192  10.245  0.2147  0.0432  0.3144
 1009MOL0     C36087   4.795   4.247  10.124  0.3064 -0.6636 -0.0151
 1009MOL0     O36088   4.665   4.219  10.088 -0.6679  0.0713 -0.2748
 1009MOL0     C36089   4.630   4.077  10.069 -1.2735 -0.6296  0.4913
 1009MOL0     C36090   4.690   4.037   9.932  0.0600  0.6797  0.6982
 1009MOL0     C36091   4.615   4.087   9.810  1.0988 -0.1966  0.7553
 1009MOL0     C36092   4.669   4.016   9.683 -0.5023  0.1399 -0.2372
 1009MOL0     C36093   4.596   4.060   9.562  0.2847 -0.4466 -0.7500
 1009MOL0     C36094   4.596   3.961   9.451 -0.1571 -0.1286  0.8680
 1009MOL0     C36095   4.515   4.000   9.324  0.1652 -0.9074 -0.7310
 1009MOL0     C36096   4.494   3.886   9.231  0.6843 -0.1101  0.4801
 1009MOL0     N36097   4.608   3.843   9.161 -0.3589 -0.3186 -0.3850
 1009MOL0     C36098   4.638   3.889   9.036 -0.3239 -0.9936 -0.1719
 1009MOL0     C36099   4.754   3.826   8.999  0.1661 -0.2656 -0.5003
 1009MOL0     C36100   4.828   3.846   8.869  0.1084  0.3146 -0.6642
 1009MOL0     C36101   4.978   3.862   8.886 -0.1551  0.4814 -1.3058
 1009MOL0     C36102   5.010   3.992   8.961  0.7059  1.1138 -0.0861
 1009MOL0     C36103   5.158   4.025   8.939  0.5809  0.4086  0.8271
 1009MOL0     O36104   5.189   4.127   9.027 -0.1257 -0.7596  0.1308
 1009MOL0     C36105   5.324   4.169   9.028  0.1581 -0.1067  0.1899
 1009MOL0     C36106   5.357   4.298   9.083 -0.0890 -1.0141  0.1925
 1009MOL0     C36107   5.492   4.354   9.073  0.3109 -0.1160  0.3740
 1009MOL0     C36108   5.592   4.273   9.025  0.0188  0.2986  0.0695
 1009MOL0     C36109   5.733   4.321   9.021  1.0418  0.6821 -0.3237
 1009MOL0     O36110   5.758   4.447   9.073  0.5369 -0.3502 -0.6645
 1009MOL0     C36111   5.885   4.500   9.091 -0.0222 -0.9168  0.2802
 1009MOL0     C36112   6.005   4.469   9.018 -0.5682 -0.0150 -0.5746
 1009MOL0     C36113   6.119   4.551   9.032  0.5654 -0.2475 -0.1585
 1009MOL0     C36114   6.121   4.665   9.112 -0.9018  0.4281 -0.2573
 1009MOL0     O36115   6.231   4.747   9.123 -0.2619 -0.2036 -0.0198
 1009MOL0     C36116   6.310   4.770   9.011  0.1596  0.3677 -0.3615
 1009MOL0     C36117   6.383   4.906   9.027  0.1927  0.1702 -0.2431
 1009MOL0     C36118   6.463   4.938   8.909  0.0771  0.9307  0.6541
 1009MOL0     C36119   6.544   5.067   8.923 -0.1643 -0.0229 -0.0809
 1009MOL0     C36120   6.581   5.107   8.781  0.6491  0.3185 -0.1448
 1009MOL0     C36121   6.691   5.208   8.768  0.0203  0.2065  1.1036
 1009MOL0     C36122   6.713   5.260   8.624 -0.2364  0.8527 -0.8262
 1009MOL0     C36123   6.824   5.348   8.597 -1.3394  0.2370 -0.7514
 1009MOL0    Cl36124   6.972   5.325   8.703  0.0673 -0.0223 -0.0302
 1009MOL0     C36125   6.014   4.684   9.194  0.1652  0.0364 -0.3100
 1009MOL0     C36126   5.895   4.605   9.176  0.0883  0.0692  0.8119
 1009MOL0     O36127   5.812   4.242   8.969 -0.5771  0.2123 -0.3009
 1009MOL0     C36128   5.552   4.155   8.957 -0.2422  0.7475  0.2028
 1009MOL0     C36129   5.420   4.105   8.954  0.3123  0.8612 -0.2962
 1009MOL0     N36130   4.786   3.740   9.100  1.1897  0.3895 -0.8361
 1009MOL0     N36131   4.698   3.746   9.197 -0.3399  0.9097  0.3645
 1009MOL0     C36132   4.866   4.353  10.058  1.1527  0.8186 -0.0336
 1009MOL0     C36133   4.988   4.390  10.105  0.3591  0.4095  0.4076
 1009MOL0     C36134   5.379   4.391  10.358 -0.6428 -0.5819 -0.0726
 1009MOL0     C36135   5.444   4.364  10.482  0.1567 -1.1553  0.0703
 1009MOL0     C36136   5.578   4.384  10.499  0.3165 -0.2888  0.2381
 1009MOL0     C36137   5.662   4.422  10.399 -0.0635 -0.5033 -1.1999
 1009MOL0     O36138   5.802   4.427  10.424 -0.4659  0.4920  0.2151
 1009MOL0     C36139   5.898   4.446  10.312 -0.7026 -1.1370 -0.2807
 1009MOL0     C36140   6.032   4.448  10.378  0.0449  0.2183 -0.0948
 1009MOL0     C36141   6.146   4.455  10.264 -0.3049 -0.1040 -0.2312
 1009MOL0     C36142   6.287   4.456  10.316  0.1567  0.5323  0.0301
 1009MOL0     C36143   6.323   4.567  10.402 -0.2339 -0.0144  0.2111
 1009MOL0     C36144   6.343   4.673  10.461  0.2846  0.3465 -0.6160
 1009MOL0     C36145   5.600   4.454  10.283 -0.3312 -0.4298  1.4870
 1009MOL0     C36146   5.458   4.437  10.256 -0.1352  0.1921 -0.2588
 1009MOL0     C36147   5.408   4.469  10.117 -0.3059  0.8102  0.1751
 1009MOL0     H36148   5.031   4.177  10.366 -0.1394 -0.5521 -0.2916
 1009MOL0     H36149   4.796   4.116  10.305 -0.3759 -0.4951 -0.8370
 1009MOL0     H36150   4.665   4.019  10.155 -0.5636  2.3881  2.4216
 1009MOL0     H36151   4.522   4.061  10.060 -1.4606  1.5101 -2.9913
 1009MOL0     H36152   4.694   3.928   9.924  0.0125  0.4744  2.9147
 1009MOL0     H36153   4.794   4.069   9.914 -0.3365  0.4672 -2.6957
 1009MOL0     H36154   4.630   4.194   9.792 -1.2252  0.2503  1.1802
 1009MOL0     H36155   4.507   4.073   9.818  1.2644 -3.3012 -1.0164
 1009MOL0     H36156   4.774   4.042   9.668  0.0003 -1.7568 -0.3348
 1009MOL0     H36157   4.653   3.909   9.699 -1.5483 -0.0855 -2.4000
 1009MOL0     H36158   4.488   4.065   9.581  0.6689  0.3552  1.5089
 1009MOL0     H36159   4.632   4.157   9.528  3.0334 -0.5023  1.6376
 1009MOL0     H36160   4.699   3.953   9.413  0.2818 -0.7131  2.1513
 1009MOL0     H36161   4.565   3.864   9.489 -0.8730  0.3593  1.5522
 1009MOL0     H36162   4.565   4.083   9.274  0.2272 -2.2023 -2.9707
 1009MOL0     H36163   4.420   4.039   9.360  1.1240 -0.4546  1.4207
 1009MOL0     H36164   4.446   3.806   9.288  2.5759  0.6531  3.3850
 1009MOL0     H36165   4.415   3.927   9.168  0.1411 -0.5767  0.8403
 1009MOL0     H36166   4.582   3.959   8.975 -1.2986  1.0493  2.8237
 1009MOL0     H36167   4.799   3.760   8.808 -1.0039  0.2090 -0.0083
 1009MOL0     H36168   4.788   3.927   8.808 -1.8586 -2.2818 -3.1041
 1009MOL0     H36169   5.005   3.776   8.947  2.5097  1.0441 -1.5923
 1009MOL0     H36170   5.032   3.850   8.792 -0.0971 -1.1193 -1.0859
 1009MOL0     H36171   4.991   3.968   9.066  2.0023  0.8730  0.1062
 1009MOL0     H36172   4.956   4.081   8.928 -0.4222  0.8951  1.0914
 1009MOL0     H36173   5.177   4.049   8.834 -1.3280 -1.1778  0.0514
 1009MOL0     H36174   5.209   3.930   8.956  2.6748  1.3294  0.0693
 1009MOL0     H36175   5.272   4.358   9.114  1.1687  1.7046 -1.3226
 1009MOL0     H36176   5.504   4.457   9.106 -2.0540 -0.0970  1.3238
 1009MOL0     H36177   6.007   4.386   8.948  0.2825  1.6785 -2.6590
 1009MOL0     H36178   6.202   4.518   8.969  0.0006  0.1584 -1.1253
 1009MOL0     H36179   6.384   4.693   8.992  0.2534  1.0410 -3.0990
 1009MOL0     H36180   6.249   4.765   8.920 -0.0580  0.4403 -0.2201
 1009MOL0     H36181   6.308   4.985   9.040  0.7557  0.5708  0.6571
 1009MOL0     H36182   6.442   4.915   9.118 -0.3270  1.3803 -0.0099
 1009MOL0     H36183   6.522   4.850   8.882 -0.3162  0.7188  0.4793
 1009MOL0     H36184   6.391   4.949   8.827  1.0529 -0.7008 -0.4816
 1009MOL0     H36185   6.640   5.050   8.973 -1.0764 -0.8612  1.5021
 1009MOL0     H36186   6.480   5.146   8.964 -1.5557 -0.3228 -1.5851
 1009MOL0     H36187   6.491   5.151   8.737  1.1739  1.2976 -0.2631
 1009MOL0     H36188   6.601   5.021   8.717  1.3705  1.6879 -1.8275
 1009MOL0     H36189   6.673   5.293   8.834 -0.7658  1.6106 -0.8423
 1009MOL0     H36190   6.784   5.157   8.793  1.3845  0.8490 -2.1404
 1009MOL0     H36191   6.627   5.311   8.581 -0.8267  0.8205  0.3053
 1009MOL0     H36192   6.742   5.176   8.560 -1.0188 -1.2011  1.3944
 1009MOL0     H36193   6.863   5.336   8.496 -1.6265  0.9702 -0.9497
 1009MOL0     H36194   6.799   5.453   8.609  2.4086  1.0224  2.8088
 1009MOL0     H36195   6.005   4.770   9.259 -0.1622 -1.0606  1.1581
 1009MOL0     H36196   5.806   4.648   9.220  0.2528  1.9019 -0.5154
 1009MOL0     H36197   5.631   4.100   8.908 -0.6393  1.3079 -1.1018
 1009MOL0     H36198   5.411   4.010   8.900  0.2229  0.9793 -0.4926
 1009MOL0     H36199   4.804   4.407   9.987  1.8458  1.5911 -0.0662
 1009MOL0     H36200   5.028   4.477  10.054 -1.1755  1.1905  0.4786
 1009MOL0     H36201   5.397   4.341  10.577  0.0135  0.0458  0.2960
 1009MOL0     H36202   5.615   4.362  10.598 -1.9628 -0.4288  1.1224
 1009MOL0     H36203   5.875   4.541  10.262 -2.9811 -0.7415  1.3480
 1009MOL0     H36204   5.890   4.362  10.243 -3.2025 -0.4266 -0.9766
 1009MOL0     H36205   6.036   4.352  10.430 -0.9057 -0.5220 -1.3234
 1009MOL0     H36206   6.037   4.527  10.453 -1.6703  0.8712 -0.6248
 1009MOL0     H36207   6.130   4.549  10.209 -2.6224  0.2016  0.8558
 1009MOL0     H36208   6.138   4.370  10.196 -2.4819  0.0130 -0.2069
 1009MOL0     H36209   6.302   4.369  10.380  3.2450  0.9382 -0.0183
 1009MOL0     H36210   6.355   4.448  10.230  2.4792  2.0454  1.6170
 1009MOL0     H36211   6.364   4.768  10.506  2.1535  0.1242 -0.9352
 1009MOL0     H36212   5.670   4.490  10.209 -0.9150 -0.0835  1.0975
 1009MOL0     H36213   5.319   4.531  10.105 -1.2478 -0.7728 -1.3162
 1009MOL0     H36214   5.481   4.525  10.056  3.3708 -1.3687  2.2034
 1009MOL0     H36215   5.391   4.370  10.075  0.3204  1.2624 -1.2145
 1010MOL0     O36216   5.456   7.890   0.951  0.5881  0.1314  0.2676
 1010MOL0     C36217   5.482   7.956   0.852  0.4226  0.1602  0.1488
 1010MOL0     O36218   5.610   7.990   0.821 -0.3399 -0.4085  0.4864
 1010MOL0     C36219   5.724   7.932   0.877  0.4744 -0.4170  0.0305
 1010MOL0     C36220   5.728   7.811   0.948  0.0259  0.1449  0.2920
 1010MOL0     C36221   5.849   7.773   1.006  0.8543 -0.0073  0.1384
 1010MOL0     C36222   5.965   7.845   0.996  0.4604 -0.8936  0.9585
 1010MOL0     O36223   6.084   7.812   1.060  0.2045 -0.0649  0.0221
 1010MOL0     C36224   6.089   7.681   1.122 -0.5040 -0.9096 -0.3110
 1010MOL0     C36225   6.229   7.655   1.163 -0.2113  0.3628 -0.7333
 1010MOL0     C36226   6.338   7.691   1.072  0.2807  1.9159  0.2757
 1010MOL0     C36227   6.481   7.638   1.106 -0.2754  0.1196 -0.4001
 1010MOL0     C36228   6.582   7.673   1.000 -0.0337 -0.2925  0.5925
 1010MOL0     C36229   6.712   7.602   1.031 -0.3932 -0.5093  0.8281
 1010MOL0     C36230   6.806   7.642   0.907  0.4602  0.2439 -0.7388
 1010MOL0     C36231   6.949   7.592   0.912  0.4424  1.2018 -0.1204
 1010MOL0     N36232   6.980   7.448   0.868 -0.4759 -0.3092 -0.4559
 1010MOL0     C36233   7.003   7.406   0.732  1.1585  1.0729 -0.8506
 1010MOL0     C36234   7.038   7.279   0.754  0.0470 -0.0159  0.2926
 1010MOL0     C36235   7.066   7.182   0.646 -0.9893 -0.1750 -0.7391
 1010MOL0     C36236   7.209   7.122   0.660 -0.3710  0.6036  0.0168
 1010MOL0     C36237   7.242   7.030   0.545 -0.7304 -0.2815  0.1972
 1010MOL0     C36238   7.384   6.985   0.549  0.1888 -1.2161 -0.5491
 1010MOL0     O36239   7.463   7.071   0.474  0.1495 -0.1777  0.0427
 1010MOL0     C36240   7.598   7.045   0.466 -0.8119  0.2501  0.5083
 1010MOL0     C36241   7.676   7.098   0.356  0.0236 -0.8966  0.0062
 1010MOL0     C36242   7.806   7.056   0.336 -0.3069  0.4701 -0.5076
 1010MOL0     C36243   7.863   6.959   0.417 -0.4637  0.2216 -0.5723
 1010MOL0     C36244   7.997   6.899   0.383  0.0557 -0.1412  0.9292
 1010MOL0     O36245   8.053   6.931   0.259 -0.2579  0.0408  0.0569
 1010MOL0     C36246   8.169   6.893   0.199 -0.3077 -0.0256 -0.1646
 1010MOL0     C36247   8.213   6.970   0.082 -0.0501 -0.1084 -0.0798
 1010MOL0     C36248   8.331   6.944   0.008  0.1606 -0.1811 -0.4387
 1010MOL0     C36249   8.409   6.836   0.034 -0.7916 -0.5276  0.1808
 1010MOL0     O36250   8.526   6.805  -0.043  0.4934 -0.1702 -0.3544
 1010MOL0     C36251   8.631   6.899  -0.035  0.1051 -0.4232 -0.2906
 1010MOL0     C36252   8.770   6.864  -0.083 -0.5144 -1.0520  1.2418
 1010MOL0     C36253   8.838   6.740  -0.016 -0.1364  0.0061  0.3658
 1010MOL0     C36254   8.990   6.760   0.005  0.5211 -0.4000 -0.0478
 1010MOL0     C36255   9.049   6.650   0.094  0.0676  0.0854  0.7883
 1010MOL0     C36256   9.208   6.656   0.106  0.0234  0.4330  0.3116
 1010MOL0     C36257   9.245   6.766   0.205  0.7875  0.5061 -0.0635
 1010MOL0     C36258   9.387   6.797   0.206 -0.3932  1.0055 -0.0411
 1010MOL0    Cl36259   9.482   6.655   0.279 -0.8318  0.0560  0.1930
 1010MOL0     C36260   8.367   6.756   0.135  1.0471  0.2879 -0.2492
 1010MOL0     C36261   8.255   6.789   0.221 -1.1234 -0.1428 -0.4615
 1010MOL0     O36262   8.034   6.813   0.456  0.0985 -0.3162  0.0915
 1010MOL0     C36263   7.796   6.923   0.537 -0.1519 -0.0009  0.6595
 1010MOL0     C36264   7.665   6.960   0.558 -0.4186  0.9796  0.4763
 1010MOL0     N36265   7.025   7.244   0.884  0.0318 -0.2464 -1.1570
 1010MOL0     N36266   6.998   7.344   0.950  0.1572  0.2433 -0.4194
 1010MOL0     C36267   5.966   7.958   0.912  0.3548 -0.3480  0.5476
 1010MOL0     C36268   5.847   8.000   0.852 -0.0141 -0.1299  0.0425
 1010MOL0     C36269   5.365   8.020   0.783 -0.0320  0.7411 -0.2747
 1010MOL0     C36270   5.238   7.953   0.800 -0.4118 -0.5384 -0.2587
 1010MOL0     C36271   5.121   8.005   0.741  0.0985 -0.0330  0.8372
 1010MOL0     C36272   5.133   8.120   0.660  0.6962  0.0704 -0.4109
 1010MOL0     O36273   5.033   8.163   0.582 -0.5358 -0.0003  0.4659
 1010MOL0     C36274   4.900   8.144   0.621  0.6390  0.1767 -0.3882
 1010MOL0     C36275   4.807   8.195   0.506  0.3861 -0.6775  0.0622
 1010MOL0     C36276   4.843   8.124   0.370  0.5792  0.1219 -0.7303
 1010MOL0     C36277   4.731   8.153   0.268  0.2137 -0.0506 -0.4753
 1010MOL0     C36278   4.775   8.108   0.132  0.9277  0.7717  0.4190
 1010MOL0     C36279   4.801   8.045   0.033  0.7312 -0.3941  0.0110
 1010MOL0     C36280   5.252   8.193   0.645  0.6699 -0.5437 -0.7525
 1010MOL0     C36281   5.371   8.141   0.704  0.1878 -0.4824 -0.1249
 1010MOL0     C36282   5.496   8.210   0.679 -0.1441  0.3664  0.0301
 1010MOL0     H36283   5.642   7.749   0.972  0.9407 -1.3030 -0.0197
 1010MOL0     H36284   5.830   7.687   1.069 -1.6941 -0.1910 -0.7523
 1010MOL0     H36285   6.028   7.679   1.212 -0.7395 -2.6583 -0.4739
 1010MOL0     H36286   6.062   7.597   1.058  0.7265 -0.6791 -1.1733
 1010MOL0     H36287   6.243   7.550   1.188 -0.6512  0.6631  0.8787
 1010MOL0     H36288   6.244   7.712   1.255 -2.9570 -1.3629  0.9097
 1010MOL0     H36289   6.353   7.799   1.074  1.9191  1.7424 -0.8575
 1010MOL0     H36290   6.316   7.652   0.972 -1.9030  1.0297  1.0251
 1010MOL0     H36291   6.515   7.675   1.203 -0.3531  0.5845 -0.5470
 1010MOL0     H36292   6.477   7.529   1.114 -0.2751  0.0701 -1.0796
 1010MOL0     H36293   6.550   7.644   0.899  0.4466  0.0001  0.3569
 1010MOL0     H36294   6.596   7.781   0.994  0.4326 -0.3791  0.0531
 1010MOL0     H36295   6.756   7.646   1.121  0.3598  1.4452 -0.4214
 1010MOL0     H36296   6.712   7.494   1.047  0.4542 -0.5614  0.5302
 1010MOL0     H36297   6.808   7.751   0.903  1.1432  0.2738  0.0243
 1010MOL0     H36298   6.766   7.609   0.811 -1.8216 -3.8997  1.3922
 1010MOL0     H36299   7.010   7.653   0.845  0.8434  0.1781 -0.7092
 1010MOL0     H36300   6.992   7.612   1.011  1.6405 -1.0658 -0.1409
 1010MOL0     H36301   6.981   7.466   0.645  1.1343  2.4863  0.0934
 1010MOL0     H36302   6.985   7.111   0.664 -1.4566  0.8430  1.6888
 1010MOL0     H36303   7.057   7.231   0.549  1.6375  1.7802 -0.1380
 1010MOL0     H36304   7.277   7.205   0.679 -1.9661  1.3840  3.1024
 1010MOL0     H36305   7.202   7.057   0.748  0.2433 -1.1423 -1.1689
 1010MOL0     H36306   7.229   7.089   0.454  0.0937  0.4791  0.5573
 1010MOL0     H36307   7.172   6.947   0.556  0.4827 -1.4005 -0.2410
 1010MOL0     H36308   7.400   6.880   0.524  3.8845 -1.5175  2.3542
 1010MOL0     H36309   7.414   6.991   0.654  0.1277  0.9614 -0.5937
 1010MOL0     H36310   7.628   7.165   0.285  2.0249 -0.5871 -1.1465
 1010MOL0     H36311   7.859   7.108   0.256  1.0963 -0.0774  0.0501
 1010MOL0     H36312   8.159   7.057   0.048 -1.7170  0.4622  3.6322
 1010MOL0     H36313   8.353   7.005  -0.079 -1.0987  1.7364  0.5218
 1010MOL0     H36314   8.603   6.989  -0.092 -1.6751 -0.9681 -0.3301
 1010MOL0     H36315   8.648   6.935   0.066  2.1427 -0.4270 -0.5893
 1010MOL0     H36316   8.766   6.854  -0.192  3.1951 -3.1158  1.1597
 1010MOL0     H36317   8.820   6.956  -0.050 -3.1269  0.7335  0.5432
 1010MOL0     H36318   8.796   6.738   0.085 -1.4545  1.6372 -0.1132
 1010MOL0     H36319   8.817   6.644  -0.064  0.0225  1.0997 -1.9804
 1010MOL0     H36320   9.009   6.858   0.048 -0.3532  0.5063 -1.6412
 1010MOL0     H36321   9.042   6.757  -0.091  0.8531 -0.3170  0.1267
 1010MOL0     H36322   9.032   6.552   0.047  0.8442 -0.1416  0.9604
 1010MOL0     H36323   9.003   6.645   0.193 -2.5629  0.6559 -0.3021
 1010MOL0     H36324   9.238   6.558   0.144 -0.4779  0.1970  0.1151
 1010MOL0     H36325   9.250   6.670   0.006 -4.5817  1.4297 -1.7746
 1010MOL0     H36326   9.226   6.722   0.303  0.0127  0.4476 -0.2380
 1010MOL0     H36327   9.184   6.856   0.191  3.3117  2.3477 -0.0521
 1010MOL0     H36328   9.417   6.821   0.104 -1.1300  1.4691 -0.1507
 1010MOL0     H36329   9.401   6.885   0.270 -0.9062  1.4297 -0.5021
 1010MOL0     H36330   8.425   6.666   0.153  1.0683  0.2893 -0.3127
 1010MOL0     H36331   8.229   6.733   0.310  2.8808  2.7905  2.9516
 1010MOL0     H36332   7.844   6.850   0.603 -1.7998 -4.4922 -2.5822
 1010MOL0     H36333   7.610   6.903   0.632 -1.9911 -0.7166 -1.8356
 1010MOL0     H36334   6.059   8.014   0.904  1.3700 -2.1742 -1.2767
 1010MOL0     H36335   5.852   8.088   0.790  0.0538 -2.3543 -3.3872
 1010MOL0     H36336   5.232   7.864   0.862  0.4543  0.6163  1.5763
 1010MOL0     H36337   5.027   7.950   0.743  0.3648 -0.7351 -1.6946
 1010MOL0     H36338   4.878   8.181   0.721  3.4011  0.3159  0.2534
 1010MOL0     H36339   4.871   8.038   0.625  0.0448  0.3663  3.7518
 1010MOL0     H36340   4.809   8.305   0.504 -0.9127 -0.6058  1.4618
 1010MOL0     H36341   4.704   8.176   0.536 -0.0616  0.0385 -0.9833
 1010MOL0     H36342   4.883   8.023   0.385  1.4017  0.7702  2.0260
 1010MOL0     H36343   4.934   8.179   0.342 -0.6445  2.8104  0.2478
 1010MOL0     H36344   4.642   8.099   0.302 -0.8721  2.3467  0.7061
 1010MOL0     H36345   4.697   8.257   0.263 -2.2706 -0.7780 -0.0827
 1010MOL0     H36346   4.809   7.982  -0.054  1.8427  1.2760 -1.1518
 1010MOL0     H36347   5.253   8.282   0.583  2.2531  0.2299  0.3068
 1010MOL0     H36348   5.567   8.138   0.637 -1.6665 -1.2131  0.0468
 1010MOL0     H36349   5.481   8.286   0.602 -0.3693  1.2794  0.9572
 1010MOL0     H36350   5.542   8.258   0.766  0.4644 -0.3917  0.1454
 1011MOL0     O36351  10.266   5.218   1.917 -0.0328 -1.1638  0.6923
 1011MOL0     C36352  10.242   5.104   1.960 -0.1290 -0.1553 -0.2809
 1011MOL0     O36353  10.341   5.010   1.996  0.6116  0.7772 -0.3679
 1011MOL0     C36354  10.466   5.062   1.998 -0.3958  0.0571  0.0363
 1011MOL0     C36355  10.546   5.042   1.886  0.8204  0.6197 -0.0811
 1011MOL0     C36356  10.673   5.091   1.886  0.0567  0.5093  0.3035
 1011MOL0     C36357  10.731   5.154   1.997 -0.3894  0.3556  0.2880
 1011MOL0     O36358  10.857   5.204   2.004 -0.1588  0.4602  0.3962
 1011MOL0     C36359  10.959   5.154   1.913 -0.0694 -0.1481  0.2996
 1011MOL0     C36360  10.965   5.213   1.776  0.6279 -0.5857 -0.2541
 1011MOL0     C36361  11.108   5.243   1.733  0.5464 -0.1754 -0.1179
 1011MOL0     C36362  11.109   5.284   1.591  0.3141 -0.2643  0.2510
 1011MOL0     C36363  11.252   5.336   1.577  0.4135 -0.1157  0.2482
 1011MOL0     C36364  11.274   5.390   1.434  0.5138 -0.1746 -0.0659
 1011MOL0     C36365  11.413   5.456   1.427 -0.7707 -0.5270  0.3006
 1011MOL0     C36366  11.451   5.514   1.288 -0.6075  0.6843 -0.2329
 1011MOL0     N36367  11.600   5.536   1.274  1.1102 -0.0901 -0.6633
 1011MOL0     C36368  11.665   5.659   1.290  0.2256  0.0339  0.3369
 1011MOL0     C36369  11.796   5.639   1.246 -0.4416  0.1058 -0.1150
 1011MOL0     C36370  11.904   5.743   1.233  0.0786 -0.1827  0.1064
 1011MOL0     C36371  12.040   5.696   1.293 -0.7486 -0.6817 -0.0999
 1011MOL0     C36372  12.019   5.673   1.445 -0.2729  0.0676 -0.3690
 1011MOL0     C36373  12.155   5.618   1.499  0.6777  0.8220 -0.3430
 1011MOL0     O36374  12.240   5.731   1.506 -0.6295  0.0356 -0.4633
 1011MOL0     C36375  12.366   5.716   1.555  0.9489 -0.8895  1.3023
 1011MOL0     C36376  12.422   5.839   1.591 -0.4502  0.5683 -0.3297
 1011MOL0     C36377  12.562   5.834   1.617 -0.2470 -0.2444  0.4358
 1011MOL0     C36378  12.639   5.720   1.608  0.1231  0.3096 -0.7155
 1011MOL0     C36379  12.786   5.706   1.639 -0.1907 -1.0130 -0.2177
 1011MOL0     O36380  12.848   5.828   1.636 -0.3626  0.5260  0.1202
 1011MOL0     C36381  12.985   5.836   1.604  0.1636  0.1600 -0.1070
 1011MOL0     C36382  13.038   5.757   1.503  0.6680  0.6380 -0.3478
 1011MOL0     C36383  13.170   5.758   1.477 -0.5323  0.6298  0.4654
 1011MOL0     C36384  13.254   5.846   1.545 -0.0234  0.7256 -0.2959
 1011MOL0     O36385  13.386   5.841   1.512  0.0714  0.1816  0.5362
 1011MOL0     C36386  13.476   5.848   1.622  0.1406 -0.0241 -0.8933
 1011MOL0     C36387  13.621   5.838   1.574  0.5653  0.3941  0.4118
 1011MOL0     C36388  13.720   5.869   1.689 -0.0210 -0.9613 -0.2609
 1011MOL0     C36389  13.862   5.857   1.641  0.0214  0.2936  0.6384
 1011MOL0     C36390  13.968   5.890   1.755 -0.3756  0.3274  0.0995
 1011MOL0     C36391  14.102   5.885   1.684 -0.5841 -0.1147 -0.9082
 1011MOL0     C36392  14.220   5.922   1.781 -0.1128 -0.5445  0.2064
 1011MOL0     C36393  14.352   5.872   1.735  0.7642 -0.3882  0.0913
 1011MOL0    Cl36394  14.363   5.690   1.742  0.1393 -0.0839  0.1445
 1011MOL0     C36395  13.198   5.934   1.640 -0.4740 -0.6448 -0.0781
 1011MOL0     C36396  13.060   5.930   1.672 -1.0320  0.1698  0.0387
 1011MOL0     O36397  12.833   5.597   1.670 -0.5724  0.9534 -0.1251
 1011MOL0     C36398  12.568   5.598   1.580 -1.0817 -0.2942  0.4096
 1011MOL0     C36399  12.431   5.595   1.558  0.0839  0.7900  1.0697
 1011MOL0     N36400  11.792   5.506   1.215  0.2528  0.6719  0.2025
 1011MOL0     N36401  11.685   5.447   1.236  0.3949 -0.0735  0.0947
 1011MOL0     C36402  10.648   5.176   2.108 -0.3521  0.2533  0.1397
 1011MOL0     C36403  10.516   5.134   2.108 -0.2091 -0.3791  0.0433
 1011MOL0     C36404  10.098   5.062   1.968  0.1407 -0.0281  0.5453
 1011MOL0     C36405  10.066   4.959   2.061  0.7799  0.4856  0.3920
 1011MOL0     C36406   9.936   4.913   2.076  0.2836  0.9396  0.0409
 1011MOL0     C36407   9.832   4.964   2.009  0.1838 -0.3436 -0.8945
 1011MOL0     O36408   9.711   4.901   2.034  0.2157 -0.6377  0.1913
 1011MOL0     C36409   9.604   4.950   1.947  0.7260  0.5140 -0.3337
 1011MOL0     C36410   9.481   4.860   1.974 -0.5864 -0.3944 -0.1649
 1011MOL0     C36411   9.354   4.917   1.916  0.3204 -0.1989 -0.8360
 1011MOL0     C36412   9.231   4.853   1.972  0.3581  0.7239 -0.3305
 1011MOL0     C36413   9.110   4.880   1.893  0.0214 -0.3909  0.1063
 1011MOL0     C36414   9.004   4.899   1.840 -0.0615 -0.3661 -0.0502
 1011MOL0     C36415   9.856   5.070   1.926  0.8215  0.2601 -0.2160
 1011MOL0     C36416   9.988   5.124   1.905 -0.5037  0.1467  0.1836
 1011MOL0     C36417   9.998   5.241   1.802 -0.1136  0.0577  0.2916
 1011MOL0     H36418  10.504   4.985   1.804 -0.0612 -1.2724  1.5949
 1011MOL0     H36419  10.723   5.087   1.790 -1.8138 -0.0094 -0.6903
 1011MOL0     H36420  11.056   5.155   1.965 -0.7218 -2.7146  1.7100
 1011MOL0     H36421  10.929   5.051   1.892 -3.2114  1.1106 -2.1984
 1011MOL0     H36422  10.910   5.307   1.771 -1.0835 -1.4757  0.8163
 1011MOL0     H36423  10.921   5.142   1.705  1.1012  0.3379 -1.4994
 1011MOL0     H36424  11.171   5.156   1.754  0.1726 -0.3872  0.1445
 1011MOL0     H36425  11.141   5.327   1.795 -3.9511  3.7539 -2.3984
 1011MOL0     H36426  11.096   5.204   1.519  2.5714  0.4084 -0.9988
 1011MOL0     H36427  11.034   5.360   1.569  1.3529  0.6187 -0.3338
 1011MOL0     H36428  11.261   5.420   1.647  0.1366 -1.0421  1.4253
 1011MOL0     H36429  11.327   5.260   1.600  0.5863 -1.1406 -3.1227
 1011MOL0     H36430  11.263   5.312   1.359 -0.8495 -0.1317  0.0714
 1011MOL0     H36431  11.206   5.474   1.415  2.4646  1.5852  0.3586
 1011MOL0     H36432  11.477   5.370   1.449 -2.4029 -2.1511 -0.8965
 1011MOL0     H36433  11.428   5.535   1.501  1.1822 -0.9247  0.3834
 1011MOL0     H36434  11.416   5.451   1.206  1.1881 -0.4024 -0.2244
 1011MOL0     H36435  11.403   5.611   1.270  2.5156  2.1805 -1.2793
 1011MOL0     H36436  11.620   5.756   1.307 -2.3125 -1.1012  0.5011
 1011MOL0     H36437  11.923   5.762   1.127  0.7629 -0.7766  0.1200
 1011MOL0     H36438  11.871   5.836   1.281 -1.4494 -0.2451 -0.7543
 1011MOL0     H36439  12.070   5.601   1.250 -0.1768 -0.6115  0.1347
 1011MOL0     H36440  12.127   5.759   1.274  1.0016 -2.3664  1.8387
 1011MOL0     H36441  11.934   5.608   1.469 -2.0753  2.6975  0.8491
 1011MOL0     H36442  11.993   5.767   1.495 -0.2490 -0.9905  1.7255
 1011MOL0     H36443  12.203   5.547   1.430  1.5184 -0.8036  1.8094
 1011MOL0     H36444  12.149   5.557   1.589  1.9316  0.9492 -0.1545
 1011MOL0     H36445  12.360   5.927   1.576 -1.6616 -0.1669  0.2468
 1011MOL0     H36446  12.606   5.930   1.641  1.3317 -0.7884 -0.1257
 1011MOL0     H36447  12.967   5.701   1.443 -1.3147  0.5382  1.9391
 1011MOL0     H36448  13.208   5.692   1.400 -1.2412  0.7726 -0.0154
 1011MOL0     H36449  13.478   5.947   1.667 -1.3598  0.4378 -1.7848
 1011MOL0     H36450  13.443   5.771   1.693  1.7973  0.1935  0.1654
 1011MOL0     H36451  13.642   5.741   1.528 -3.3776  0.4500 -1.9960
 1011MOL0     H36452  13.626   5.911   1.492 -1.8238 -1.2568 -1.3685
 1011MOL0     H36453  13.691   5.970   1.719 -0.7709 -1.6781  1.5877
 1011MOL0     H36454  13.708   5.801   1.774  2.6364 -0.7028  0.4253
 1011MOL0     H36455  13.883   5.917   1.552 -0.3905 -0.2302  0.1939
 1011MOL0     H36456  13.878   5.753   1.613  0.0860  0.9791 -2.1683
 1011MOL0     H36457  13.955   5.812   1.831 -2.0611 -0.9727 -1.4137
 1011MOL0     H36458  13.950   5.994   1.784 -1.6434  0.6782 -1.8157
 1011MOL0     H36459  14.118   5.778   1.662  0.9330 -0.5929  2.0768
 1011MOL0     H36460  14.099   5.941   1.590  0.5147  0.9922 -0.2973
 1011MOL0     H36461  14.187   5.905   1.883 -2.1381  1.8778  0.0666
 1011MOL0     H36462  14.244   6.029   1.781 -1.6143 -0.1576 -1.0719
 1011MOL0     H36463  14.381   5.896   1.633  1.1282  0.2862  0.3466
 1011MOL0     H36464  14.439   5.907   1.791 -0.4005  1.3889  0.8755
 1011MOL0     H36465  13.264   6.004   1.691  0.4031  0.2305 -2.3130
 1011MOL0     H36466  13.014   6.002   1.739  0.3036  1.5095 -0.4137
 1011MOL0     H36467  12.628   5.507   1.577  3.3995  2.2823  1.4420
 1011MOL0     H36468  12.382   5.505   1.524  1.3721 -0.6438  2.8640
 1011MOL0     H36469  10.687   5.240   2.187 -0.1447 -1.1093  1.1786
 1011MOL0     H36470  10.451   5.155   2.192 -0.0036  1.2761 -0.1827
 1011MOL0     H36471  10.148   4.905   2.107 -1.0337 -0.7400  2.4300
 1011MOL0     H36472   9.924   4.825   2.139  4.8428 -0.1533 -0.2944
 1011MOL0     H36473   9.627   4.949   1.840  0.3491  1.7208 -0.4441
 1011MOL0     H36474   9.584   5.054   1.977  0.8080  0.5261 -0.3222
 1011MOL0     H36475   9.474   4.857   2.083 -1.2090  2.6657 -0.0277
 1011MOL0     H36476   9.486   4.762   1.926  1.2714  0.5546 -2.0659
 1011MOL0     H36477   9.354   4.899   1.808  0.1564 -3.2528 -0.4059
 1011MOL0     H36478   9.348   5.022   1.947  0.8766 -0.5426  0.4942
 1011MOL0     H36479   9.250   4.746   1.961  0.4026  0.8132 -1.1994
 1011MOL0     H36480   9.210   4.879   2.076 -2.0804  0.2641 -0.6430
 1011MOL0     H36481   8.907   4.906   1.795  0.0432 -1.4399 -0.4546
 1011MOL0     H36482   9.776   5.111   1.864  0.3762 -1.0228 -0.5192
 1011MOL0     H36483   9.907   5.277   1.754  0.6488  2.4494  0.5093
 1011MOL0     H36484  10.035   5.330   1.853  2.7919 -0.8059 -0.1263
 1011MOL0     H36485  10.065   5.206   1.722 -0.0839  1.7089 -0.4635
 1012MOL0     O36486   2.311   0.699  10.963  0.2495 -0.2879 -0.0277
 1012MOL0     C36487   2.268   0.706  11.081  0.4041  0.7924  0.6047
 1012MOL0     O36488   2.346   0.717  11.192  0.3946  0.5924  0.3242
 1012MOL0     C36489   2.484   0.699  11.186 -0.4572  0.4266 -0.3979
 1012MOL0     C36490   2.567   0.777  11.273  0.0797  0.0762  0.6910
 1012MOL0     C36491   2.707   0.766  11.278  0.7517 -0.4023 -0.3690
 1012MOL0     C36492   2.763   0.672  11.192  0.1450 -0.3394 -0.9535
 1012MOL0     O36493   2.904   0.661  11.164 -0.2779 -0.1157 -0.3623
 1012MOL0     C36494   2.985   0.767  11.215 -0.5078 -0.2471 -0.5454
 1012MOL0     C36495   3.123   0.762  11.163 -0.4756  0.7696  0.0485
 1012MOL0     C36496   3.126   0.772  11.016  0.2433 -0.6491 -0.3106
 1012MOL0     C36497   3.264   0.765  10.962 -0.5980  0.0651  0.2472
 1012MOL0     C36498   3.264   0.726  10.808  0.1476 -0.7565 -0.3696
 1012MOL0     C36499   3.400   0.695  10.743 -0.6827  0.6249 -0.0428
 1012MOL0     C36500   3.480   0.581  10.820  0.0325  1.0531  0.2181
 1012MOL0     C36501   3.588   0.506  10.735  0.9527 -0.5133 -0.0112
 1012MOL0     N36502   3.706   0.578  10.712  0.0121  0.2718 -0.1077
 1012MOL0     C36503   3.712   0.682  10.629 -1.2290  0.0786 -0.0856
 1012MOL0     C36504   3.835   0.729  10.642 -0.4358 -0.0788  0.7225
 1012MOL0     C36505   3.878   0.844  10.554  0.5951  0.0198 -0.6105
 1012MOL0     C36506   4.029   0.848  10.538 -0.5220 -0.7370  0.4389
 1012MOL0     C36507   4.086   0.976  10.468 -0.4543  0.3967  0.1166
 1012MOL0     C36508   4.235   0.981  10.472 -0.0779  0.5017  0.8413
 1012MOL0     O36509   4.268   1.099  10.406  0.6972 -0.1426  0.0921
 1012MOL0     C36510   4.394   1.144  10.386 -0.1327  0.4772  0.2812
 1012MOL0     C36511   4.401   1.242  10.287 -0.0652 -0.1313 -0.0920
 1012MOL0     C36512   4.529   1.292  10.255 -0.2393  0.3028  0.6354
 1012MOL0     C36513   4.647   1.244  10.326 -1.0277  0.6242 -0.4780
 1012MOL0     C36514   4.779   1.275  10.281 -0.2620 -0.2822  0.3133
 1012MOL0     O36515   4.786   1.373  10.186 -0.0626 -0.1484  0.4054
 1012MOL0     C36516   4.911   1.415  10.168 -0.7287  0.3249  0.6509
 1012MOL0     C36517   4.979   1.410  10.043  0.5167 -0.2571 -0.1777
 1012MOL0     C36518   5.094   1.495  10.028  0.2995  0.0345  1.0204
 1012MOL0     C36519   5.142   1.571  10.131 -0.8699 -0.6253 -0.5710
 1012MOL0     O36520   5.243   1.660  10.102 -0.0315  0.1341 -0.2150
 1012MOL0     C36521   5.258   1.775  10.192 -0.1976  0.2796 -0.4262
 1012MOL0     C36522   5.375   1.858  10.155  0.4842  0.3083 -0.2078
 1012MOL0     C36523   5.502   1.764  10.150 -0.5153  0.6069 -0.2495
 1012MOL0     C36524   5.628   1.852  10.111 -0.3599  0.1829  1.1200
 1012MOL0     C36525   5.752   1.761  10.107  0.2234 -0.7434  0.0193
 1012MOL0     C36526   5.873   1.840  10.062  0.2816 -0.3963  0.2193
 1012MOL0     C36527   6.001   1.764  10.051 -0.4397 -0.2609 -0.7399
 1012MOL0     C36528   6.119   1.833   9.987 -0.8681 -0.5749 -0.7956
 1012MOL0    Cl36529   6.097   1.879   9.816  0.2185 -0.1437 -0.1619
 1012MOL0     C36530   5.080   1.557  10.264 -1.2691 -0.4872  0.1262
 1012MOL0     C36531   4.959   1.489  10.273 -0.2113 -0.3717  0.5646
 1012MOL0     O36532   4.873   1.212  10.333 -0.2809  0.1569  0.7958
 1012MOL0     C36533   4.632   1.149  10.439 -0.1829 -0.3492 -0.1856
 1012MOL0     C36534   4.504   1.103  10.463 -0.8796  0.0734  0.8758
 1012MOL0     N36535   3.910   0.655  10.725  0.6184 -0.3356  0.3960
 1012MOL0     N36536   3.828   0.555  10.768 -0.1448 -0.5809  0.1968
 1012MOL0     C36537   2.688   0.593  11.108 -0.4318  0.1372 -0.5756
 1012MOL0     C36538   2.549   0.600  11.104 -0.0090  0.2838 -0.7960
 1012MOL0     C36539   2.119   0.732  11.098  0.5205 -0.1692  0.0138
 1012MOL0     C36540   2.070   0.797  11.213  0.1967 -0.1359  0.8650
 1012MOL0     C36541   1.934   0.813  11.235  0.4795 -0.3983  1.5694
 1012MOL0     C36542   1.843   0.755  11.145  0.5369  0.0623  0.4038
 1012MOL0     O36543   1.708   0.772  11.168 -0.0387 -0.3671  0.0894
 1012MOL0     C36544   1.616   0.682  11.104 -0.9500  0.7244 -0.2153
 1012MOL0     C36545   1.509   0.623  11.200 -0.7016 -0.7055 -0.8656
 1012MOL0     C36546   1.394   0.726  11.210  0.2313 -0.5239 -0.0280
 1012MOL0     C36547   1.262   0.659  11.251  1.0338 -0.8226  0.0275
 1012MOL0     C36548   1.188   0.600  11.139 -0.4218 -0.2207  0.2472
 1012MOL0     C36549   1.136   0.545  11.047  0.2767 -0.3162  0.1023
 1012MOL0     C36550   1.891   0.691  11.034 -0.3113  0.1124  1.2183
 1012MOL0     C36551   2.026   0.677  11.004 -0.1734 -0.2853 -0.1918
 1012MOL0     C36552   2.064   0.596  10.885  0.6759  0.3206 -0.0753
 1012MOL0     H36553   2.506   0.849  11.326  1.1093  0.4480  1.4099
 1012MOL0     H36554   2.760   0.826  11.351 -1.4450 -0.2271  1.1844
 1012MOL0     H36555   2.936   0.862  11.193 -2.1575 -0.2844  2.3398
 1012MOL0     H36556   2.983   0.768  11.325  0.3962  1.1006 -0.5174
 1012MOL0     H36557   3.164   0.668  11.199  2.5392  2.0324  0.2343
 1012MOL0     H36558   3.182   0.847  11.200  0.1509  0.7632 -0.8829
 1012MOL0     H36559   3.068   0.859  10.985  2.0821  0.2015 -1.5168
 1012MOL0     H36560   3.060   0.691  10.983 -0.2538 -0.3168 -0.1431
 1012MOL0     H36561   3.316   0.858  10.988 -2.1041  1.1625 -0.5389
 1012MOL0     H36562   3.328   0.693  11.013 -1.5102 -0.9133  0.0258
 1012MOL0     H36563   3.201   0.638  10.796 -2.3712  0.3538  3.0277
 1012MOL0     H36564   3.209   0.798  10.747  0.6978  0.9216  1.0142
 1012MOL0     H36565   3.386   0.672  10.637 -1.9756  0.4873  0.1451
 1012MOL0     H36566   3.470   0.778  10.758  0.0353 -0.2660  1.8855
 1012MOL0     H36567   3.406   0.508  10.855 -0.1677  1.8447  1.5124
 1012MOL0     H36568   3.528   0.631  10.905  2.8878  0.9539 -1.2381
 1012MOL0     H36569   3.606   0.405  10.775 -0.3721 -1.5385 -1.8335
 1012MOL0     H36570   3.537   0.485  10.640 -2.2675 -3.0952  2.0620
 1012MOL0     H36571   3.633   0.709  10.559 -0.8415  2.4332  0.2969
 1012MOL0     H36572   3.837   0.827  10.454  1.0700  0.4197 -0.8821
 1012MOL0     H36573   3.829   0.930  10.602  2.0041  1.4742 -1.6702
 1012MOL0     H36574   4.081   0.843  10.635  0.8148  1.8759 -0.0515
 1012MOL0     H36575   4.066   0.765  10.478  0.2413  0.1842 -0.4030
 1012MOL0     H36576   4.054   1.067  10.521  1.1080  0.7472  0.5117
 1012MOL0     H36577   4.050   0.979  10.365 -0.0631  1.7672 -0.0017
 1012MOL0     H36578   4.274   0.895  10.417  0.8641  0.5265  1.4466
 1012MOL0     H36579   4.285   0.982  10.569  2.1612 -0.6199 -0.2243
 1012MOL0     H36580   4.310   1.271  10.236  0.3601 -0.2239 -0.9225
 1012MOL0     H36581   4.533   1.353  10.165 -2.8389 -0.6738 -0.2202
 1012MOL0     H36582   4.931   1.350   9.967  0.4956 -1.7227  0.9586
 1012MOL0     H36583   5.144   1.498   9.932 -2.1840  0.0976 -0.3281
 1012MOL0     H36584   5.172   1.843  10.193  0.5755  1.2826  0.8445
 1012MOL0     H36585   5.277   1.749  10.297  0.6880 -0.7906 -0.8386
 1012MOL0     H36586   5.367   1.911  10.059 -0.5189  2.4678  0.9714
 1012MOL0     H36587   5.379   1.940  10.227  0.2863 -0.5159  0.7622
 1012MOL0     H36588   5.520   1.710  10.243  1.0279  0.1033 -0.8016
 1012MOL0     H36589   5.478   1.685  10.078 -0.4025 -0.3385  0.7331
 1012MOL0     H36590   5.648   1.937  10.177  0.4260  0.8562  0.0423
 1012MOL0     H36591   5.617   1.883  10.007  3.1617 -1.6091  0.0776
 1012MOL0     H36592   5.722   1.668  10.058 -1.0425 -1.0770  1.3390
 1012MOL0     H36593   5.780   1.724  10.207  0.3104 -2.3481 -0.5681
 1012MOL0     H36594   5.843   1.881   9.965 -1.0362 -1.8491 -0.0281
 1012MOL0     H36595   5.884   1.930  10.124 -3.4663  1.5659 -1.6086
 1012MOL0     H36596   5.987   1.674   9.990  0.6410 -0.9959  0.0411
 1012MOL0     H36597   6.028   1.740  10.155  0.3863  1.2323 -0.5785
 1012MOL0     H36598   6.136   1.927  10.040 -1.0458  0.9067 -3.1741
 1012MOL0     H36599   6.214   1.780   9.981  0.3283  1.0685  1.9802
 1012MOL0     H36600   5.107   1.620  10.349 -0.1030  0.2823 -0.7884
 1012MOL0     H36601   4.902   1.482  10.365 -0.1135 -1.2230  0.5673
 1012MOL0     H36602   4.722   1.112  10.487  1.8651  2.9745 -1.1215
 1012MOL0     H36603   4.488   1.030  10.542  0.5999 -0.2381  0.9176
 1012MOL0     H36604   2.731   0.528  11.033 -1.7973 -1.7663  0.2031
 1012MOL0     H36605   2.488   0.539  11.038 -2.3973  1.2375  0.4331
 1012MOL0     H36606   2.125   0.826  11.303 -0.3886 -1.4411  1.6625
 1012MOL0     H36607   1.899   0.861  11.326 -0.9709 -1.3992  1.5772
 1012MOL0     H36608   1.665   0.598  11.054  0.0148 -1.1148  3.5228
 1012MOL0     H36609   1.554   0.722  11.023 -2.7235  0.0202  0.7415
 1012MOL0     H36610   1.563   0.605  11.293 -0.1221  0.2997 -0.9866
 1012MOL0     H36611   1.469   0.533  11.153 -2.2728 -0.1033 -0.7365
 1012MOL0     H36612   1.375   0.777  11.115 -0.9007 -1.5561 -0.3936
 1012MOL0     H36613   1.429   0.800  11.282  0.8411 -0.9251  0.0944
 1012MOL0     H36614   1.284   0.587  11.331  2.0525 -0.4568  0.1007
 1012MOL0     H36615   1.192   0.734  11.288  0.4059 -1.0610 -0.6770
 1012MOL0     H36616   1.088   0.508  10.958  0.7136  2.3707 -1.3524
 1012MOL0     H36617   1.822   0.666  10.954 -0.6676  2.5124  0.6987
 1012MOL0     H36618   1.973   0.558  10.838  1.5248 -2.5229  0.3517
 1012MOL0     H36619   2.123   0.662  10.821  0.4795 -0.1349 -0.7318
 1012MOL0     H36620   2.123   0.511  10.921 -0.6484  0.2570  2.1528
 1013MOL0     O36621   1.042   4.616   2.604  0.2872  0.1302  0.3258
 1013MOL0     C36622   0.932   4.673   2.621  0.2965  0.4585 -0.1243
 1013MOL0     O36623   0.920   4.800   2.659 -0.2619  0.0595 -0.0319
 1013MOL0     C36624   1.026   4.883   2.679  0.1898  0.0567  0.2116
 1013MOL0     C36625   1.120   4.850   2.777 -0.0475 -0.3179  0.4693
 1013MOL0     C36626   1.234   4.931   2.785  0.0109  0.2295  0.3608
 1013MOL0     C36627   1.258   5.042   2.705  0.3260  0.5948  0.0789
 1013MOL0     O36628   1.378   5.101   2.739 -0.3189 -0.3020  0.5084
 1013MOL0     C36629   1.464   5.103   2.625 -0.4109  1.3235 -0.3308
 1013MOL0     C36630   1.605   5.083   2.684 -0.1237 -0.2727 -0.3696
 1013MOL0     C36631   1.653   5.198   2.775 -0.0361 -0.0095 -0.0792
 1013MOL0     C36632   1.801   5.219   2.758 -0.2614 -0.9816 -0.0892
 1013MOL0     C36633   1.845   5.317   2.859 -0.8932  0.0065 -0.0667
 1013MOL0     C36634   1.996   5.346   2.850  0.8445  0.6579  0.2481
 1013MOL0     C36635   2.038   5.387   2.995 -0.3006  0.3312 -0.0702
 1013MOL0     C36636   2.169   5.466   2.980  0.7906  1.2827 -0.0076
 1013MOL0     N36637   2.282   5.387   2.929  0.3202  0.3132  0.1526
 1013MOL0     C36638   2.361   5.293   2.993 -0.4998  0.5324  1.1651
 1013MOL0     C36639   2.441   5.239   2.897  0.4893 -0.5047 -0.5084
 1013MOL0     C36640   2.561   5.161   2.936  0.3434  0.3774  0.3576
 1013MOL0     C36641   2.687   5.241   2.905 -0.0834 -0.0547  0.6293
 1013MOL0     C36642   2.677   5.376   2.980 -0.2831  1.3428  0.9453
 1013MOL0     C36643   2.799   5.459   2.982 -0.7836  0.1733  0.1867
 1013MOL0     O36644   2.887   5.416   3.083 -0.5590  0.8087  0.6702
 1013MOL0     C36645   3.016   5.463   3.087 -0.4863  0.6111  0.1179
 1013MOL0     C36646   3.050   5.585   3.035  0.5933 -0.4265  0.4687
 1013MOL0     C36647   3.171   5.646   3.050  0.0146  1.2070 -0.9098
 1013MOL0     C36648   3.264   5.568   3.124 -0.0526  0.1302 -0.4979
 1013MOL0     C36649   3.395   5.629   3.146 -0.6952 -0.1400  0.1832
 1013MOL0     O36650   3.486   5.557   3.223  0.3931 -0.6974 -0.5189
 1013MOL0     C36651   3.603   5.630   3.261  0.3715 -0.8400 -0.7898
 1013MOL0     C36652   3.723   5.615   3.195  0.0433  0.4424  0.0565
 1013MOL0     C36653   3.837   5.683   3.238  0.1047  0.4076  0.3487
 1013MOL0     C36654   3.829   5.788   3.330 -0.1345  0.1546 -0.5952
 1013MOL0     O36655   3.945   5.851   3.347 -0.2734 -0.0422 -0.5310
 1013MOL0     C36656   3.932   5.985   3.389 -0.4185 -0.0770  0.1828
 1013MOL0     C36657   4.070   6.056   3.420 -0.0929  0.0312  0.1809
 1013MOL0     C36658   4.064   6.214   3.427 -0.4352  0.5367 -0.2506
 1013MOL0     C36659   4.211   6.259   3.400 -0.0676 -0.3852  0.0374
 1013MOL0     C36660   4.214   6.407   3.373  0.2809  0.2284 -0.1749
 1013MOL0     C36661   4.209   6.500   3.498  0.0882  0.1869 -0.3205
 1013MOL0     C36662   4.203   6.653   3.469 -0.9953  0.1836  0.3856
 1013MOL0     C36663   4.245   6.738   3.589  0.2115  0.6668  0.5230
 1013MOL0    Cl36664   4.406   6.694   3.633 -0.1240  0.0455 -0.1381
 1013MOL0     C36665   3.706   5.807   3.392 -0.9335  0.0558 -0.3055
 1013MOL0     C36666   3.588   5.737   3.351  0.4408  0.4038  0.5440
 1013MOL0     O36667   3.407   5.749   3.117  0.9790 -0.2387 -0.0415
 1013MOL0     C36668   3.233   5.440   3.182 -0.4382  0.7135  0.2776
 1013MOL0     C36669   3.111   5.394   3.158  0.9989  0.2490 -0.6868
 1013MOL0     N36670   2.422   5.311   2.785 -0.1480 -0.8682 -0.0682
 1013MOL0     N36671   2.337   5.413   2.806  0.0455 -1.0910 -0.2384
 1013MOL0     C36672   1.171   5.071   2.606  0.2986 -0.6218  0.6235
 1013MOL0     C36673   1.054   4.985   2.586  0.6331  0.2739 -0.0495
 1013MOL0     C36674   0.815   4.589   2.589  0.4675  0.9672 -0.0308
 1013MOL0     C36675   0.693   4.639   2.633  0.0579  0.3330 -0.1093
 1013MOL0     C36676   0.567   4.574   2.622 -0.0640 -0.8945  0.0577
 1013MOL0     C36677   0.563   4.449   2.566  0.0907 -0.2877  0.1581
 1013MOL0     O36678   0.445   4.385   2.587 -0.2670 -0.3071 -0.3992
 1013MOL0     C36679   0.425   4.256   2.531 -0.2413 -0.1159 -0.4910
 1013MOL0     C36680   0.283   4.216   2.544 -0.0840  0.0359 -0.0339
 1013MOL0     C36681   0.187   4.310   2.469 -0.3065 -0.7264  0.4942
 1013MOL0     C36682   0.041   4.251   2.459  0.4563 -0.5589 -0.5201
 1013MOL0     C36683  -0.024   4.211   2.591 -1.1605 -0.2688  0.3770
 1013MOL0     C36684  -0.055   4.171   2.695 -0.2767  0.2540 -0.8982
 1013MOL0     C36685   0.684   4.397   2.503  0.5427  0.6696 -0.1056
 1013MOL0     C36686   0.800   4.467   2.517 -0.2866 -0.5251  0.5394
 1013MOL0     C36687   0.922   4.401   2.466 -0.8246 -0.4039 -0.1795
 1013MOL0     H36688   1.097   4.769   2.846 -2.9559  1.0842  1.3118
 1013MOL0     H36689   1.300   4.908   2.868 -0.3360 -2.0369  0.0775
 1013MOL0     H36690   1.445   5.013   2.566 -0.8128  0.5939  0.8875
 1013MOL0     H36691   1.441   5.198   2.575 -3.4252  1.3603  0.9205
 1013MOL0     H36692   1.675   5.075   2.600  2.6141 -0.5050  1.7996
 1013MOL0     H36693   1.610   4.990   2.742  2.0722 -1.1533 -1.8001
 1013MOL0     H36694   1.638   5.179   2.882  0.0524  0.9385  0.1112
 1013MOL0     H36695   1.605   5.290   2.740 -0.8689  0.1141  1.3332
 1013MOL0     H36696   1.860   5.127   2.766  0.7521 -0.3100  0.4837
 1013MOL0     H36697   1.824   5.268   2.663 -2.7135 -0.9541 -0.7177
 1013MOL0     H36698   1.797   5.414   2.843  0.0712  0.2258 -1.9779
 1013MOL0     H36699   1.820   5.288   2.961  0.0786 -0.4011  0.0595
 1013MOL0     H36700   2.052   5.259   2.814  1.2913  1.4259 -0.9745
 1013MOL0     H36701   2.018   5.419   2.772  0.0145  0.8807  0.2120
 1013MOL0     H36702   2.049   5.296   3.055  0.5322 -0.0241 -0.7448
 1013MOL0     H36703   1.963   5.451   3.042 -0.7953  1.1539 -1.8570
 1013MOL0     H36704   2.151   5.544   2.905 -0.0734  1.0825 -0.0278
 1013MOL0     H36705   2.194   5.512   3.076  2.7175  0.4320 -0.0591
 1013MOL0     H36706   2.358   5.262   3.097 -0.5327  0.0062  1.0059
 1013MOL0     H36707   2.559   5.144   3.044 -0.1078  1.9053  0.5994
 1013MOL0     H36708   2.559   5.073   2.870 -3.7394  1.1546 -0.7728
 1013MOL0     H36709   2.772   5.184   2.945  0.5698  2.1561  2.6563
 1013MOL0     H36710   2.692   5.262   2.798 -2.3177  0.2671  0.5549
 1013MOL0     H36711   2.652   5.358   3.085 -0.7674  0.4252  0.6862
 1013MOL0     H36712   2.607   5.449   2.936  0.5030  0.4056 -2.1399
 1013MOL0     H36713   2.770   5.564   2.993 -0.4725  0.5410 -1.9207
 1013MOL0     H36714   2.849   5.454   2.884 -0.5454 -0.3515  0.3322
 1013MOL0     H36715   2.979   5.646   2.981 -0.2256 -3.3896 -2.0848
 1013MOL0     H36716   3.186   5.744   3.006 -1.5805  2.4194  1.0528
 1013MOL0     H36717   3.731   5.533   3.125  1.9777  0.7121 -0.0884
 1013MOL0     H36718   3.933   5.651   3.199  0.9424  2.1282  0.8817
 1013MOL0     H36719   3.883   6.051   3.317  0.6057  3.6869  2.6074
 1013MOL0     H36720   3.864   5.981   3.476 -1.3123 -1.4777 -0.5534
 1013MOL0     H36721   4.116   6.014   3.509  0.1916  1.4310  0.7269
 1013MOL0     H36722   4.126   6.030   3.330 -1.9852 -0.1503 -0.9935
 1013MOL0     H36723   4.006   6.256   3.344 -3.0092  1.0811  1.7083
 1013MOL0     H36724   4.029   6.242   3.527  1.0927 -0.0708  0.4772
 1013MOL0     H36725   4.270   6.220   3.317 -0.9877  0.0774 -0.8484
 1013MOL0     H36726   4.269   6.238   3.490 -0.7606 -0.2614  0.5231
 1013MOL0     H36727   4.130   6.434   3.308  1.0274 -0.4141 -1.4499
 1013MOL0     H36728   4.300   6.431   3.309 -1.9293 -0.2088 -3.5481
 1013MOL0     H36729   4.134   6.467   3.570  1.9466  0.2273  1.7263
 1013MOL0     H36730   4.302   6.476   3.549  0.5753  0.4909 -1.0376
 1013MOL0     H36731   4.104   6.679   3.430 -0.9239 -1.5424 -1.0460
 1013MOL0     H36732   4.274   6.678   3.389 -0.2231 -3.0915 -0.0907
 1013MOL0     H36733   4.229   6.842   3.559 -0.1370  0.0603 -1.5333
 1013MOL0     H36734   4.174   6.721   3.671  0.5381  0.4202  0.7578
 1013MOL0     H36735   3.692   5.885   3.466 -1.8920 -0.4406  0.0652
 1013MOL0     H36736   3.487   5.758   3.384 -1.1138 -1.6712 -2.4778
 1013MOL0     H36737   3.308   5.392   3.243  0.3050  3.2432  1.4876
 1013MOL0     H36738   3.085   5.301   3.209 -0.3609 -0.3179 -2.2911
 1013MOL0     H36739   1.199   5.147   2.534  0.5436  0.9739  2.3457
 1013MOL0     H36740   0.986   4.993   2.502 -1.1884 -0.4813  1.3131
 1013MOL0     H36741   0.701   4.729   2.693  2.0085 -1.1462  2.0195
 1013MOL0     H36742   0.482   4.607   2.680  0.1706 -2.2362  1.2461
 1013MOL0     H36743   0.499   4.184   2.567 -0.8745 -0.1972  0.6773
 1013MOL0     H36744   0.468   4.260   2.430  0.8698  0.1074 -0.0306
 1013MOL0     H36745   0.251   4.208   2.649 -0.9757  3.0231  0.0007
 1013MOL0     H36746   0.271   4.118   2.498 -0.8661  0.0584  0.1172
 1013MOL0     H36747   0.224   4.315   2.367 -0.6791  1.2776  0.4130
 1013MOL0     H36748   0.188   4.413   2.506 -0.9065 -0.3186 -0.5693
 1013MOL0     H36749  -0.018   4.331   2.414 -1.8350 -0.7418  1.9502
 1013MOL0     H36750   0.042   4.169   2.386 -2.2474  0.4023 -1.7675
 1013MOL0     H36751  -0.084   4.158   2.797 -0.6668 -0.5715 -1.1083
 1013MOL0     H36752   0.675   4.296   2.463  0.5298 -0.3171  2.2010
 1013MOL0     H36753   0.896   4.301   2.431 -1.1021  0.0568 -1.3671
 1013MOL0     H36754   0.969   4.453   2.381 -1.3045 -0.4284 -0.4624
 1013MOL0     H36755   1.002   4.401   2.540 -0.6929  2.0037 -0.2303
 1014MOL0     O36756   9.119   9.540   7.939  0.0946 -0.7843  0.1900
 1014MOL0     C36757   9.047   9.458   7.989 -0.4639  0.3314 -0.5796
 1014MOL0     O36758   9.057   9.318   7.977 -0.7713 -0.5519 -1.0059
 1014MOL0     C36759   9.178   9.269   7.919 -0.3961  0.7509 -0.4534
 1014MOL0     C36760   9.309   9.324   7.929  0.7108  0.3264  0.0914
 1014MOL0     C36761   9.421   9.248   7.889  0.4225 -0.1701 -0.1538
 1014MOL0     C36762   9.403   9.120   7.825 -0.2276 -0.7368 -0.6721
 1014MOL0     O36763   9.508   9.045   7.784  0.5752  0.0750  0.3370
 1014MOL0     C36764   9.495   9.021   7.647 -0.6093 -0.2083 -0.5506
 1014MOL0     C36765   9.603   8.921   7.588 -0.3553 -0.0063 -0.0470
 1014MOL0     C36766   9.725   8.991   7.543  0.1371  0.1766 -0.0250
 1014MOL0     C36767   9.710   9.041   7.400  0.0069  0.0276 -0.1672
 1014MOL0     C36768   9.838   9.109   7.343  0.7572 -0.3215 -1.2319
 1014MOL0     C36769   9.959   9.006   7.317 -0.0668 -0.4985 -0.7646
 1014MOL0     C36770  10.080   9.100   7.297 -0.1975  0.1695 -0.0346
 1014MOL0     C36771  10.209   9.023   7.304  0.3131  0.7233  0.8528
 1014MOL0     N36772  10.334   9.106   7.274 -0.1020  0.0172 -0.5049
 1014MOL0     C36773  10.391   9.106   7.150  0.0146  0.4718 -0.2320
 1014MOL0     C36774  10.460   9.225   7.146 -0.4784  0.0217 -0.4199
 1014MOL0     C36775  10.522   9.299   7.027 -0.7117 -0.1780  0.3836
 1014MOL0     C36776  10.668   9.299   7.042 -0.3201  0.0157  0.0846
 1014MOL0     C36777  10.733   9.374   6.930  0.4296  0.8596  0.3314
 1014MOL0     C36778  10.881   9.360   6.931 -0.2977 -0.4580  0.3166
 1014MOL0     O36779  10.935   9.455   6.830 -0.0027  0.6613 -0.7623
 1014MOL0     C36780  11.069   9.442   6.801 -0.6876  0.3975  0.6551
 1014MOL0     C36781  11.114   9.525   6.696  0.7033  1.1051 -0.2536
 1014MOL0     C36782  11.253   9.539   6.681 -0.6073 -0.0531  0.1922
 1014MOL0     C36783  11.351   9.472   6.760  0.6613 -0.4012  0.4280
 1014MOL0     C36784  11.495   9.486   6.730  0.2381 -0.1650 -0.3435
 1014MOL0     O36785  11.521   9.568   6.620 -0.7291  0.6742 -0.2043
 1014MOL0     C36786  11.657   9.585   6.594  0.0196  0.9096  0.3391
 1014MOL0     C36787  11.727   9.468   6.544  0.9016 -0.6184  0.8037
 1014MOL0     C36788  11.861   9.487   6.499  0.0521 -0.1851  0.5275
 1014MOL0     C36789  11.925   9.608   6.517 -0.2966 -0.3321 -0.8364
 1014MOL0     O36790  12.056   9.630   6.480 -0.1330  0.4702 -0.5783
 1014MOL0     C36791  12.107   9.764   6.475  0.0893 -0.1055  0.4261
 1014MOL0     C36792  12.242   9.780   6.422 -0.8136  0.4983 -0.8637
 1014MOL0     C36793  12.348   9.698   6.499 -0.7990  0.5146  0.0419
 1014MOL0     C36794  12.490   9.711   6.440 -0.1034  0.3867  0.5801
 1014MOL0     C36795  12.568   9.596   6.498  0.5404 -0.0540 -0.8953
 1014MOL0     C36796  12.613   9.624   6.646  0.0994 -0.3213  0.0288
 1014MOL0     C36797  12.714   9.510   6.680 -0.4661  0.0324 -0.1046
 1014MOL0     C36798  12.779   9.545   6.819  0.0111  0.1001  0.8337
 1014MOL0    Cl36799  12.888   9.412   6.858 -0.0088  0.2190 -0.2602
 1014MOL0     C36800  11.851   9.715   6.570 -0.0186 -0.7673 -0.0738
 1014MOL0     C36801  11.723   9.704   6.610 -0.5251  0.3445  0.8073
 1014MOL0     O36802  11.576   9.421   6.789  0.3403  0.1105 -0.1074
 1014MOL0     C36803  11.304   9.391   6.857  0.1404 -0.1108 -0.2037
 1014MOL0     C36804  11.166   9.376   6.879  0.4137 -0.4185  0.7563
 1014MOL0     N36805  10.450   9.281   7.275  0.2168 -0.3286  0.1320
 1014MOL0     N36806  10.377   9.212   7.351  0.1489 -0.2507  0.1624
 1014MOL0     C36807   9.267   9.074   7.809  0.0877 -0.3448 -0.5108
 1014MOL0     C36808   9.161   9.143   7.860  0.0693  0.3657  0.1100
 1014MOL0     C36809   8.935   9.502   8.084  0.4980  0.1116 -0.4133
 1014MOL0     C36810   8.846   9.402   8.123 -0.5618  0.9036  0.2051
 1014MOL0     C36811   8.724   9.440   8.189 -0.5655 -0.7341  0.0754
 1014MOL0     C36812   8.702   9.572   8.227  0.5240  0.3408  0.4178
 1014MOL0     O36813   8.579   9.595   8.284  0.5512  1.2832 -0.2691
 1014MOL0     C36814   8.554   9.723   8.338  0.5495  0.2685 -0.1526
 1014MOL0     C36815   8.408   9.730   8.381  0.8699  0.7979  0.4265
 1014MOL0     C36816   8.313   9.659   8.283 -0.5718 -0.6076  0.0377
 1014MOL0     C36817   8.167   9.649   8.331  0.1619  0.4254 -0.1107
 1014MOL0     C36818   8.108   9.777   8.376 -0.4210 -0.0573  0.3662
 1014MOL0     C36819   8.040   9.870   8.404 -0.0155 -0.1031 -0.1478
 1014MOL0     C36820   8.801   9.668   8.199  0.2877  0.3846  0.2648
 1014MOL0     C36821   8.914   9.632   8.129 -0.1118 -0.3043  0.7699
 1014MOL0     C36822   9.001   9.755   8.090  0.4549 -0.7452  0.0621
 1014MOL0     H36823   9.332   9.417   7.979 -2.2129  0.5765  1.1578
 1014MOL0     H36824   9.525   9.273   7.905  0.3027  1.1309 -1.2356
 1014MOL0     H36825   9.398   8.987   7.608 -0.2851 -0.1158 -1.4586
 1014MOL0     H36826   9.517   9.117   7.599  1.0207 -0.3147 -0.0817
 1014MOL0     H36827   9.557   8.882   7.497  1.4464 -0.5020 -0.7936
 1014MOL0     H36828   9.632   8.833   7.647  2.3053  0.3298 -0.7243
 1014MOL0     H36829   9.821   8.939   7.547  1.6360  2.4815 -2.2900
 1014MOL0     H36830   9.750   9.067   7.618 -0.3648 -0.5593  0.9033
 1014MOL0     H36831   9.681   8.957   7.337  2.5869 -1.6185  0.7153
 1014MOL0     H36832   9.629   9.115   7.401  0.9835  1.1321 -0.3212
 1014MOL0     H36833   9.818   9.146   7.242 -1.1995 -1.5434 -1.3426
 1014MOL0     H36834   9.875   9.193   7.402 -0.1224  2.2965 -4.1208
 1014MOL0     H36835   9.981   8.940   7.402 -0.7374  0.6932  0.3657
 1014MOL0     H36836   9.939   8.942   7.230 -0.8374  0.1860 -1.1024
 1014MOL0     H36837  10.077   9.181   7.371 -0.4812 -0.0919  0.2424
 1014MOL0     H36838  10.071   9.155   7.203  2.9451  1.2859  0.1839
 1014MOL0     H36839  10.209   8.986   7.407 -1.2728  2.8540  1.6966
 1014MOL0     H36840  10.200   8.943   7.230 -1.6714  1.3968  0.3012
 1014MOL0     H36841  10.365   9.036   7.071 -3.2998  1.3709 -0.1199
 1014MOL0     H36842  10.505   9.251   6.930 -3.1497 -1.5128  1.3693
 1014MOL0     H36843  10.477   9.399   7.024  0.7237  0.4924  0.4788
 1014MOL0     H36844  10.687   9.347   7.139 -1.0331 -0.7161  0.5920
 1014MOL0     H36845  10.704   9.196   7.033  2.5179  0.7600  1.7549
 1014MOL0     H36846  10.706   9.479   6.939  2.1910  1.2155  2.2946
 1014MOL0     H36847  10.687   9.336   6.839  0.6983  1.9309 -0.2683
 1014MOL0     H36848  10.914   9.260   6.902  1.1724  0.4008 -1.1252
 1014MOL0     H36849  10.918   9.388   7.030 -0.1669 -0.4872  0.2773
 1014MOL0     H36850  11.044   9.588   6.643  0.6645  0.9347 -0.4034
 1014MOL0     H36851  11.282   9.619   6.613  1.4962 -0.3149  0.7175
 1014MOL0     H36852  11.674   9.376   6.522  2.2937 -0.7867 -2.4465
 1014MOL0     H36853  11.912   9.399   6.461  0.8241 -0.7783  2.7596
 1014MOL0     H36854  12.044   9.828   6.413  1.2604  2.1640  1.4751
 1014MOL0     H36855  12.109   9.799   6.579  0.2486 -1.7978  1.0363
 1014MOL0     H36856  12.251   9.758   6.315  2.7085  0.9364 -0.7649
 1014MOL0     H36857  12.268   9.886   6.430 -0.2367  0.3557 -0.7528
 1014MOL0     H36858  12.345   9.727   6.604  1.5753 -2.8682  1.2182
 1014MOL0     H36859  12.314   9.594   6.499 -3.9486  1.4083  2.3018
 1014MOL0     H36860  12.534   9.811   6.450 -2.7434  1.4944  2.0084
 1014MOL0     H36861  12.484   9.693   6.332 -0.6858 -0.0569  0.6864
 1014MOL0     H36862  12.655   9.571   6.436  0.1731  0.4311 -1.6210
 1014MOL0     H36863  12.505   9.507   6.507  0.1347  0.1313 -1.7717
 1014MOL0     H36864  12.664   9.719   6.666  0.4714 -0.4069 -0.5180
 1014MOL0     H36865  12.519   9.626   6.703 -0.6135  3.1629 -1.0212
 1014MOL0     H36866  12.803   9.521   6.618 -0.1822  2.4303  0.6183
 1014MOL0     H36867  12.676   9.408   6.672  1.6180 -0.7622 -0.5124
 1014MOL0     H36868  12.837   9.635   6.799  0.0966  0.1278  1.2155
 1014MOL0     H36869  12.699   9.571   6.888 -2.8105 -0.8514 -1.8472
 1014MOL0     H36870  11.896   9.814   6.569 -2.8295  0.6501 -3.4476
 1014MOL0     H36871  11.671   9.791   6.651  1.8675  1.1976  2.2174
 1014MOL0     H36872  11.379   9.342   6.918 -0.2517  1.5763  1.7603
 1014MOL0     H36873  11.131   9.321   6.966 -1.5121 -0.4112  0.0225
 1014MOL0     H36874   9.246   8.979   7.761  0.6625 -1.1806  0.8283
 1014MOL0     H36875   9.055   9.125   7.848  0.0363  0.1247  0.7332
 1014MOL0     H36876   8.853   9.305   8.075 -0.2899  0.7938  0.4701
 1014MOL0     H36877   8.646   9.368   8.208  0.9092 -1.5757  4.0374
 1014MOL0     H36878   8.564   9.796   8.257  1.2504 -0.5103 -0.7927
 1014MOL0     H36879   8.621   9.748   8.420  2.9871 -0.1386 -1.9157
 1014MOL0     H36880   8.383   9.836   8.386  1.7307  0.9774  1.1505
 1014MOL0     H36881   8.393   9.692   8.483  1.8682  0.1754  0.3588
 1014MOL0     H36882   8.337   9.553   8.283  0.9225 -0.2815  0.2699
 1014MOL0     H36883   8.321   9.716   8.190  4.4510  3.1307  2.2942
 1014MOL0     H36884   8.103   9.596   8.260  0.8403 -0.9722  0.2723
 1014MOL0     H36885   8.167   9.582   8.418  2.5023  3.4027  2.3992
 1014MOL0     H36886   7.982   9.953   8.438  2.3359  2.3443 -1.7160
 1014MOL0     H36887   8.771   9.771   8.215 -2.5830 -0.5425  1.4899
 1014MOL0     H36888   9.004   9.838   8.162  0.0507 -0.1136 -0.6342
 1014MOL0     H36889   9.107   9.729   8.091  0.9185  0.9174  1.4561
 1014MOL0     H36890   8.976   9.798   7.993 -0.7581 -4.5028 -1.4714
 1015MOL0     O36891   4.240   0.438   8.462  0.6909  0.2445  0.2360
 1015MOL0     C36892   4.171   0.432   8.563 -0.4193 -0.1113 -0.4035
 1015MOL0     O36893   4.193   0.518   8.674 -0.3664  0.0175 -0.6380
 1015MOL0     C36894   4.318   0.564   8.706 -0.9082  0.0334 -0.1437
 1015MOL0     C36895   4.438   0.490   8.683  0.4140 -0.0455 -0.5696
 1015MOL0     C36896   4.560   0.544   8.715 -0.1604  0.1380  0.3275
 1015MOL0     C36897   4.569   0.660   8.782 -0.0074  0.1316  0.2503
 1015MOL0     O36898   4.687   0.702   8.829 -0.1032  1.0191  0.0900
 1015MOL0     C36899   4.707   0.787   8.937  0.1842 -0.4105 -0.5684
 1015MOL0     C36900   4.848   0.785   8.982 -0.2361  0.0010 -0.6806
 1015MOL0     C36901   4.872   0.851   9.122 -1.1604 -0.0488  0.3447
 1015MOL0     C36902   5.027   0.873   9.122 -0.3589 -0.4770  0.0131
 1015MOL0     C36903   5.082   0.924   9.264  0.8408  0.4918  1.1309
 1015MOL0     C36904   5.074   1.079   9.287  0.0398  0.7322  0.7936
 1015MOL0     C36905   5.187   1.136   9.379  0.2654  0.4457  0.2897
 1015MOL0     C36906   5.187   1.284   9.386 -0.1832  0.4729 -0.1096
 1015MOL0     N36907   5.294   1.336   9.463  0.5621  0.5310 -0.1273
 1015MOL0     C36908   5.304   1.326   9.593  0.9332 -0.1774 -0.2680
 1015MOL0     C36909   5.426   1.392   9.617 -0.5242  0.6126  0.1970
 1015MOL0     C36910   5.481   1.413   9.753 -0.4121  1.0455  0.1621
 1015MOL0     C36911   5.546   1.272   9.790 -0.6282 -0.3082  0.4567
 1015MOL0     C36912   5.625   1.288   9.917 -0.5669  0.7570 -0.9881
 1015MOL0     C36913   5.757   1.350   9.892 -0.1840 -0.1202  0.4327
 1015MOL0     O36914   5.838   1.362  10.004 -0.3483 -0.4732 -0.1702
 1015MOL0     C36915   5.968   1.407   9.993  0.1445 -0.3044 -0.2190
 1015MOL0     C36916   6.041   1.393  10.109  0.2165  0.5220  0.2479
 1015MOL0     C36917   6.181   1.430  10.109  0.5183 -0.2314 -0.0467
 1015MOL0     C36918   6.247   1.479  10.000  0.0199  0.0191 -0.7446
 1015MOL0     C36919   6.392   1.524  10.008 -0.1024  0.6041  0.6788
 1015MOL0     O36920   6.463   1.489  10.103 -0.3061  0.4181 -0.0975
 1015MOL0     C36921   6.596   1.500  10.097 -0.1914 -0.7615 -0.5110
 1015MOL0     C36922   6.658   1.559  10.212  0.9494 -0.4366  0.0335
 1015MOL0     C36923   6.788   1.588  10.216 -0.4145 -0.7238  0.2125
 1015MOL0     C36924   6.877   1.546  10.108 -0.0043  0.4821 -0.4528
 1015MOL0     O36925   7.018   1.573  10.111  0.1806  0.4448  0.1262
 1015MOL0     C36926   7.070   1.603   9.981 -0.2457 -0.0625  0.2058
 1015MOL0     C36927   7.204   1.686   9.993 -0.6490 -0.2393  0.2884
 1015MOL0     C36928   7.319   1.619  10.080  0.4261 -0.0984  0.0988
 1015MOL0     C36929   7.453   1.695  10.074 -0.1892 -0.2566 -0.2590
 1015MOL0     C36930   7.525   1.684   9.934 -0.4018  0.1168  0.3408
 1015MOL0     C36931   7.657   1.761   9.923  0.2621  0.2851  0.3843
 1015MOL0     C36932   7.773   1.715   9.994 -0.0979 -0.2625 -0.5755
 1015MOL0     C36933   7.890   1.811  10.030  0.3619  0.2440 -0.4206
 1015MOL0    Cl36934   7.969   1.892   9.888 -0.1460  0.0103 -0.5140
 1015MOL0     C36935   6.824   1.467  10.004  0.0664  0.6681 -0.1000
 1015MOL0     C36936   6.681   1.445   9.996  0.5118 -0.2335 -0.5008
 1015MOL0     O36937   6.426   1.590   9.907  0.0549 -0.1678 -0.4726
 1015MOL0     C36938   6.182   1.474   9.878  0.9045  0.5893 -0.3729
 1015MOL0     C36939   6.041   1.447   9.882  0.0363  0.7119  0.6910
 1015MOL0     N36940   5.472   1.448   9.497 -0.5162  0.2130 -0.0787
 1015MOL0     N36941   5.394   1.405   9.407  0.7149 -0.2421 -0.6090
 1015MOL0     C36942   4.455   0.732   8.821  0.1223  0.2577  0.6122
 1015MOL0     C36943   4.328   0.681   8.788 -0.6374  0.0221  0.3364
 1015MOL0     C36944   4.065   0.337   8.568  0.6281  0.9667  0.4191
 1015MOL0     C36945   4.029   0.293   8.702 -0.0991  0.1474  0.6410
 1015MOL0     C36946   3.915   0.215   8.724  0.3755 -0.1076  0.2947
 1015MOL0     C36947   3.842   0.169   8.618  0.1671  0.1456 -0.5581
 1015MOL0     O36948   3.724   0.098   8.651 -0.2557  0.8679  0.0481
 1015MOL0     C36949   3.656   0.014   8.554  0.9694  0.0042  0.5196
 1015MOL0     C36950   3.522  -0.029   8.622  0.4414  0.1699 -0.0834
 1015MOL0     C36951   3.535  -0.063   8.772 -0.5055  0.4347  1.1029
 1015MOL0     C36952   3.410  -0.123   8.829  0.2903 -0.2482 -0.9655
 1015MOL0     C36953   3.293  -0.038   8.813 -0.0343 -0.5926 -0.1242
 1015MOL0     C36954   3.189   0.034   8.812 -0.1881  0.1487 -0.1424
 1015MOL0     C36955   3.880   0.193   8.489 -0.2429  0.2702  0.4153
 1015MOL0     C36956   3.984   0.287   8.465  0.4010 -0.7403  0.4308
 1015MOL0     C36957   4.009   0.338   8.322 -0.1513 -0.3669 -0.2450
 1015MOL0     H36958   4.437   0.396   8.628 -0.7264 -0.7640  0.6247
 1015MOL0     H36959   4.648   0.488   8.685 -1.4475 -1.4873 -0.5634
 1015MOL0     H36960   4.688   0.893   8.916  2.0623  0.6400  2.3847
 1015MOL0     H36961   4.641   0.759   9.019  0.1233  0.0530 -0.4542
 1015MOL0     H36962   4.913   0.836   8.910 -0.9406  0.8439 -0.7318
 1015MOL0     H36963   4.875   0.680   8.974 -2.8597 -0.8003  0.1981
 1015MOL0     H36964   4.836   0.780   9.196 -0.9317 -1.3554 -0.7415
 1015MOL0     H36965   4.826   0.950   9.128 -0.6175  0.1630  1.2094
 1015MOL0     H36966   5.066   0.772   9.104 -0.0527 -0.8032  2.2550
 1015MOL0     H36967   5.066   0.942   9.046  0.1998  0.4424  1.1180
 1015MOL0     H36968   5.042   0.876   9.353 -2.3074  2.2199  0.7763
 1015MOL0     H36969   5.190   0.905   9.257  0.6143 -0.2179 -1.4394
 1015MOL0     H36970   5.076   1.130   9.191  0.4178 -0.8129 -0.0550
 1015MOL0     H36971   4.975   1.107   9.324 -1.2490  0.4669 -2.1802
 1015MOL0     H36972   5.283   1.103   9.337 -0.6967  1.6334 -3.2536
 1015MOL0     H36973   5.172   1.096   9.479 -1.6125 -0.4926 -0.3174
 1015MOL0     H36974   5.202   1.327   9.287  1.1252 -0.3349 -0.2846
 1015MOL0     H36975   5.098   1.326   9.436  1.2535  2.4443  0.9500
 1015MOL0     H36976   5.232   1.284   9.662  1.5432  1.2489  1.3179
 1015MOL0     H36977   5.562   1.487   9.747  1.1959 -0.6283  0.0984
 1015MOL0     H36978   5.404   1.449   9.821 -0.1772  1.9795 -0.0615
 1015MOL0     H36979   5.479   1.188   9.809  1.2881 -2.3809 -1.3214
 1015MOL0     H36980   5.611   1.227   9.714 -2.7270 -0.0074 -1.6315
 1015MOL0     H36981   5.653   1.193   9.962 -0.3400  0.8606 -0.9109
 1015MOL0     H36982   5.563   1.349   9.984 -1.3766  0.8977 -1.8475
 1015MOL0     H36983   5.743   1.446   9.843  0.6704 -0.4051 -0.4140
 1015MOL0     H36984   5.812   1.291   9.818 -2.0740 -2.4440  0.7527
 1015MOL0     H36985   6.009   1.348  10.202  2.2853 -1.8967 -0.0955
 1015MOL0     H36986   6.237   1.422  10.202  3.3778 -1.7289 -1.7287
 1015MOL0     H36987   6.598   1.594  10.296  0.6001  1.3136 -0.8939
 1015MOL0     H36988   6.825   1.637  10.305 -1.0938 -0.7188  0.4943
 1015MOL0     H36989   7.092   1.511   9.926 -2.0042  0.5665 -1.6919
 1015MOL0     H36990   7.001   1.658   9.917 -0.1034 -0.4726 -0.3061
 1015MOL0     H36991   7.253   1.715   9.900  3.4272 -0.5191  2.0946
 1015MOL0     H36992   7.179   1.782  10.039  0.3838 -0.4704  1.3991
 1015MOL0     H36993   7.298   1.606  10.187 -0.8664  0.6757 -0.0318
 1015MOL0     H36994   7.348   1.523  10.038 -0.5549 -0.8414  1.0572
 1015MOL0     H36995   7.518   1.647  10.148 -1.3885  0.1177  1.0794
 1015MOL0     H36996   7.431   1.794  10.114 -2.1943  0.2223 -2.3490
 1015MOL0     H36997   7.456   1.712   9.854  0.9175 -0.1832 -0.9216
 1015MOL0     H36998   7.544   1.578   9.917 -0.8940 -0.0791  0.9832
 1015MOL0     H36999   7.680   1.766   9.816 -0.0795  0.4908  0.3204
 1015MOL0     H37000   7.638   1.866   9.944  0.7610  1.0951 -2.6233
 1015MOL0     H37001   7.820   1.632   9.940 -1.9714 -2.1942  0.6075
 1015MOL0     H37002   7.740   1.670  10.088 -1.5253  0.3639 -0.7504
 1015MOL0     H37003   7.849   1.886  10.098 -2.7524 -1.5192 -0.2012
 1015MOL0     H37004   7.970   1.761  10.085  0.7595  0.5396 -0.7160
 1015MOL0     H37005   6.890   1.427   9.928 -0.0524 -1.6940  0.9694
 1015MOL0     H37006   6.643   1.390   9.910  3.0863 -0.2540 -1.7162
 1015MOL0     H37007   6.231   1.515   9.791 -1.1261  1.5968 -1.1229
 1015MOL0     H37008   5.991   1.444   9.786  1.8754 -0.3084 -0.2976
 1015MOL0     H37009   4.459   0.821   8.884  0.7079  1.7161 -1.4098
 1015MOL0     H37010   4.241   0.740   8.814 -1.0192 -0.4657  0.1859
 1015MOL0     H37011   4.084   0.330   8.788  0.4089  0.1131  0.3340
 1015MOL0     H37012   3.872   0.187   8.820 -3.8047  2.0351 -0.7695
 1015MOL0     H37013   3.713  -0.076   8.529  2.1937  0.5183  1.3582
 1015MOL0     H37014   3.626   0.071   8.466 -1.8415 -1.8234  0.1644
 1015MOL0     H37015   3.477  -0.117   8.576  0.5911 -1.4362  2.6738
 1015MOL0     H37016   3.449   0.052   8.611 -3.8305 -3.4360 -0.8076
 1015MOL0     H37017   3.579   0.019   8.829  1.0959  0.7871 -0.5248
 1015MOL0     H37018   3.616  -0.136   8.779  0.4273  1.2958 -0.2346
 1015MOL0     H37019   3.398  -0.221   8.780  2.9474 -0.8536 -0.5409
 1015MOL0     H37020   3.431  -0.143   8.935  0.8372 -0.2065 -1.0653
 1015MOL0     H37021   3.103   0.098   8.813 -0.1029  0.2562  0.2971
 1015MOL0     H37022   3.831   0.144   8.406  2.5643 -2.6551  0.2925
 1015MOL0     H37023   3.924   0.310   8.259  0.3789 -2.6685 -0.0022
 1015MOL0     H37024   4.033   0.445   8.319  0.8338 -0.5792 -0.1969
 1015MOL0     H37025   4.093   0.283   8.279 -0.4860  0.0271 -1.4549
 1016MOL0     O37026   4.364   3.526   7.210 -0.2787  0.0716 -0.6925
 1016MOL0     C37027   4.344   3.624   7.273  0.4723 -0.1779 -0.1454
 1016MOL0     O37028   4.426   3.735   7.274 -0.0043  0.0152  0.0611
 1016MOL0     C37029   4.518   3.762   7.169 -0.6975  0.3462 -1.5327
 1016MOL0     C37030   4.515   3.716   7.036  0.0922  0.0600  0.2712
 1016MOL0     C37031   4.613   3.748   6.941  0.2546 -0.1540 -0.7910
 1016MOL0     C37032   4.705   3.842   6.973 -0.0547 -0.4853  0.4852
 1016MOL0     O37033   4.806   3.869   6.882 -0.7379  0.0988  0.3973
 1016MOL0     C37034   4.857   3.763   6.800  0.9306  0.0350  0.5726
 1016MOL0     C37035   4.972   3.822   6.724  1.0485 -0.3846  0.1252
 1016MOL0     C37036   5.085   3.867   6.812 -0.0268 -0.5329 -0.0259
 1016MOL0     C37037   5.224   3.852   6.740  0.0414 -0.2471 -0.0295
 1016MOL0     C37038   5.322   3.952   6.791  0.4859 -0.0965  0.3850
 1016MOL0     C37039   5.458   3.906   6.740 -0.0509  0.5199 -0.1854
 1016MOL0     C37040   5.557   4.022   6.741 -0.4179 -0.3982 -0.6280
 1016MOL0     C37041   5.694   3.977   6.712 -0.9976  0.6618  0.3222
 1016MOL0     N37042   5.705   3.908   6.582  0.0808 -0.2578  0.2207
 1016MOL0     C37043   5.810   3.828   6.540 -0.4703 -0.4509  0.1054
 1016MOL0     C37044   5.792   3.810   6.405  0.4927  0.4883  0.3232
 1016MOL0     C37045   5.887   3.739   6.319 -0.4463 -0.3386  0.3603
 1016MOL0     C37046   5.971   3.829   6.223 -0.3523 -0.2354  0.7515
 1016MOL0     C37047   6.029   3.950   6.293 -0.4783  0.1402  0.4869
 1016MOL0     C37048   6.154   4.008   6.221 -0.3501  0.4452 -0.1907
 1016MOL0     O37049   6.256   3.917   6.187  0.5623 -0.0742  0.3385
 1016MOL0     C37050   6.382   3.937   6.236 -0.0574 -0.2851  0.2965
 1016MOL0     C37051   6.429   4.028   6.336  0.7994 -0.5035 -0.4766
 1016MOL0     C37052   6.565   4.054   6.360  0.2845  0.2929 -0.1405
 1016MOL0     C37053   6.662   3.994   6.279  0.4572 -1.1252 -0.2492
 1016MOL0     C37054   6.809   4.010   6.293 -0.4908 -0.2265  0.4531
 1016MOL0     O37055   6.882   3.937   6.206  0.1678  0.8587 -0.0100
 1016MOL0     C37056   7.014   3.979   6.199  0.2609  0.4185 -0.5201
 1016MOL0     C37057   7.059   4.048   6.084 -0.3634  0.1708 -0.3272
 1016MOL0     C37058   7.196   4.053   6.052 -0.2495 -0.0852  0.3222
 1016MOL0     C37059   7.289   3.991   6.126 -0.2396 -0.3152 -0.1474
 1016MOL0     O37060   7.424   4.001   6.110 -0.9592  0.3281 -0.1416
 1016MOL0     C37061   7.469   4.128   6.148  0.7822 -0.3950 -0.7755
 1016MOL0     C37062   7.603   4.157   6.096  0.4158  0.6245  1.0286
 1016MOL0     C37063   7.596   4.186   5.935  0.0025  0.4686 -0.9403
 1016MOL0     C37064   7.734   4.215   5.876 -0.3165  0.6486 -0.7330
 1016MOL0     C37065   7.716   4.244   5.725  0.5851 -0.0621 -0.1250
 1016MOL0     C37066   7.823   4.342   5.669  0.5216 -0.1983 -0.2929
 1016MOL0     C37067   7.842   4.341   5.519  0.0336  0.2894  0.7360
 1016MOL0     C37068   7.906   4.218   5.468 -0.9033  0.5970 -0.4414
 1016MOL0    Cl37069   8.079   4.199   5.512 -0.0928  0.1007  0.0340
 1016MOL0     C37070   7.250   3.921   6.243  0.4805 -0.0548  0.1311
 1016MOL0     C37071   7.116   3.911   6.274 -0.3424  0.1441 -0.1017
 1016MOL0     O37072   6.854   4.091   6.375  0.1035  0.1565  0.6525
 1016MOL0     C37073   6.613   3.910   6.180 -1.0298  0.3147 -0.3875
 1016MOL0     C37074   6.476   3.878   6.154  0.3513 -1.9884  0.1578
 1016MOL0     N37075   5.682   3.878   6.360  0.1417  0.4925  0.1276
 1016MOL0     N37076   5.641   3.934   6.467 -0.0271 -0.2449 -0.1028
 1016MOL0     C37077   4.715   3.890   7.107 -0.2926 -0.3806  0.1159
 1016MOL0     C37078   4.621   3.852   7.203  0.6161  0.2484 -0.2405
 1016MOL0     C37079   4.222   3.619   7.358 -0.5825  0.0204 -0.0509
 1016MOL0     C37080   4.109   3.543   7.313  0.4043  0.6147  0.0098
 1016MOL0     C37081   3.992   3.537   7.381 -0.1827  0.2045  0.4635
 1016MOL0     C37082   3.968   3.620   7.490 -0.2743 -0.6050 -0.2418
 1016MOL0     O37083   3.845   3.609   7.555 -0.2909 -0.2213  0.2655
 1016MOL0     C37084   3.809   3.679   7.679 -0.2050 -0.2302  0.4674
 1016MOL0     C37085   3.675   3.638   7.728 -0.6545  0.0487 -0.5053
 1016MOL0     C37086   3.564   3.689   7.638  0.3257 -0.3133  0.2685
 1016MOL0     C37087   3.431   3.688   7.714 -0.1557  0.4202  0.3152
 1016MOL0     C37088   3.325   3.711   7.617  0.0174  0.6723 -0.1515
 1016MOL0     C37089   3.247   3.741   7.530  0.4511  0.6403  0.3469
 1016MOL0     C37090   4.076   3.707   7.526 -0.4677  0.4867 -0.3546
 1016MOL0     C37091   4.204   3.698   7.470  0.3551  0.0006  0.3818
 1016MOL0     C37092   4.315   3.774   7.536  0.3404 -0.3388  1.0920
 1016MOL0     H37093   4.431   3.657   7.000 -1.7658  0.2052  3.8765
 1016MOL0     H37094   4.614   3.703   6.842 -1.6767  0.5002 -1.1553
 1016MOL0     H37095   4.884   3.674   6.858  1.1594 -1.0282 -1.1012
 1016MOL0     H37096   4.782   3.721   6.732  2.0095 -0.6850 -0.1917
 1016MOL0     H37097   4.935   3.897   6.653 -1.2452 -0.9587  0.6343
 1016MOL0     H37098   4.997   3.740   6.657 -0.2834  0.9747 -2.1613
 1016MOL0     H37099   5.082   3.805   6.901  2.4276 -1.6092 -0.5919
 1016MOL0     H37100   5.077   3.975   6.830 -3.3147 -0.2911 -2.1053
 1016MOL0     H37101   5.262   3.749   6.747  0.9069  0.1533  1.7110
 1016MOL0     H37102   5.201   3.876   6.636 -0.1022 -1.0239 -0.1793
 1016MOL0     H37103   5.300   4.052   6.752 -1.4592 -1.0473 -1.1448
 1016MOL0     H37104   5.322   3.959   6.900 -1.4053 -0.0575  0.4133
 1016MOL0     H37105   5.503   3.822   6.794 -2.2058 -0.2953  0.4077
 1016MOL0     H37106   5.441   3.869   6.639  2.4172 -0.9909 -0.1378
 1016MOL0     H37107   5.560   4.079   6.835  1.5092 -2.4539  0.6463
 1016MOL0     H37108   5.522   4.098   6.670  1.4207  1.3101  0.1846
 1016MOL0     H37109   5.763   4.062   6.709  0.3840 -0.4266  0.4799
 1016MOL0     H37110   5.730   3.905   6.785 -2.6381  1.2105  1.7329
 1016MOL0     H37111   5.883   3.784   6.606 -1.3661 -0.6610  0.9892
 1016MOL0     H37112   5.942   3.673   6.387  0.3141  0.2025  0.2736
 1016MOL0     H37113   5.839   3.666   6.253  0.2363 -0.7744  0.3418
 1016MOL0     H37114   6.057   3.769   6.193 -0.8647 -0.3396 -0.5798
 1016MOL0     H37115   5.919   3.851   6.130  1.0739  0.4165  0.0799
 1016MOL0     H37116   6.059   3.926   6.395  1.8118  0.3055 -0.1091
 1016MOL0     H37117   5.946   4.021   6.288  0.3215  1.0233 -0.9785
 1016MOL0     H37118   6.194   4.089   6.283  0.1666 -0.7870  1.1499
 1016MOL0     H37119   6.125   4.061   6.130  0.0581  0.0375 -0.5621
 1016MOL0     H37120   6.358   4.082   6.398  2.6892  0.7164  0.7122
 1016MOL0     H37121   6.591   4.130   6.434 -0.0259  1.9077 -1.6225
 1016MOL0     H37122   6.987   4.089   6.014  0.1342  1.9405  0.1417
 1016MOL0     H37123   7.229   4.103   5.962  0.4214 -0.6919  0.2159
 1016MOL0     H37124   7.401   4.208   6.114  2.3884 -0.0744 -3.5224
 1016MOL0     H37125   7.471   4.126   6.258  1.0011 -0.0547 -0.7730
 1016MOL0     H37126   7.652   4.237   6.153  1.1654  0.5519  0.4984
 1016MOL0     H37127   7.664   4.070   6.120  1.3510  0.2584 -2.2057
 1016MOL0     H37128   7.542   4.104   5.887  0.8840 -0.3547 -0.5691
 1016MOL0     H37129   7.535   4.274   5.915  0.3583  0.8323 -0.4549
 1016MOL0     H37130   7.822   4.152   5.884  2.3587  4.1509 -0.2060
 1016MOL0     H37131   7.763   4.305   5.932  0.8942  1.6940 -2.8993
 1016MOL0     H37132   7.616   4.284   5.706  0.4446  0.6942  1.9818
 1016MOL0     H37133   7.724   4.147   5.675  1.1564 -1.1124  1.8873
 1016MOL0     H37134   7.788   4.440   5.703 -1.2881 -0.7819 -0.4117
 1016MOL0     H37135   7.919   4.320   5.718  1.6030  0.1721 -2.1781
 1016MOL0     H37136   7.906   4.426   5.493 -0.6024  0.6798  0.4176
 1016MOL0     H37137   7.747   4.344   5.463 -0.2260 -0.2504  1.1331
 1016MOL0     H37138   7.852   4.125   5.485 -1.4687  0.9771 -0.1223
 1016MOL0     H37139   7.916   4.230   5.359  0.4707 -0.8478 -0.5131
 1016MOL0     H37140   7.326   3.862   6.293 -0.6265 -1.3900  0.3205
 1016MOL0     H37141   7.083   3.855   6.362  0.4204  1.2160  0.9000
 1016MOL0     H37142   6.683   3.858   6.115 -4.0524 -1.9750 -2.1282
 1016MOL0     H37143   6.443   3.817   6.070 -1.0460  1.7334 -2.3061
 1016MOL0     H37144   4.796   3.958   7.129 -1.5725  0.9765  0.7576
 1016MOL0     H37145   4.629   3.880   7.307  0.5685 -3.7658  1.0120
 1016MOL0     H37146   4.107   3.488   7.219  0.0236  1.7358 -0.6527
 1016MOL0     H37147   3.915   3.473   7.339 -0.2040  0.1628  0.5654
 1016MOL0     H37148   3.804   3.787   7.659 -1.0843 -0.2310  0.6468
 1016MOL0     H37149   3.889   3.664   7.751 -0.6726  1.4306  1.3982
 1016MOL0     H37150   3.664   3.665   7.834 -4.2712  1.6169 -1.1357
 1016MOL0     H37151   3.693   3.530   7.733  3.3423  0.6298  0.8003
 1016MOL0     H37152   3.560   3.624   7.550 -3.1864  1.1048 -0.8114
 1016MOL0     H37153   3.590   3.791   7.607 -1.7276 -0.3750 -2.0572
 1016MOL0     H37154   3.416   3.589   7.757  0.6812  0.8086  1.5506
 1016MOL0     H37155   3.431   3.764   7.793  0.8911  1.9522 -1.0780
 1016MOL0     H37156   3.181   3.757   7.448 -1.6350 -0.8627  1.6337
 1016MOL0     H37157   4.060   3.782   7.603 -1.4144 -0.8805  0.8550
 1016MOL0     H37158   4.412   3.723   7.537  1.2998  1.4188  1.5642
 1016MOL0     H37159   4.328   3.871   7.489 -3.5749 -0.3205 -0.3155
 1016MOL0     H37160   4.288   3.798   7.640  0.2364 -0.8546  1.1866
 1017MOL0     O37161  10.590  11.212   2.631  1.4486  0.1249  0.3351
 1017MOL0     C37162  10.497  11.293   2.610  0.3890  0.7144  0.1201
 1017MOL0     O37163  10.481  11.360   2.493  0.0247 -0.0504  0.6200
 1017MOL0     C37164  10.569  11.319   2.393  0.5241  0.5896 -0.0588
 1017MOL0     C37165  10.693  11.379   2.374  0.2070  0.1643  0.3401
 1017MOL0     C37166  10.777  11.337   2.264  0.6445 -0.4534 -0.7074
 1017MOL0     C37167  10.733  11.228   2.184 -0.5847 -0.0642 -0.0785
 1017MOL0     O37168  10.802  11.184   2.072 -0.0875 -0.1469  0.0155
 1017MOL0     C37169  10.904  11.271   2.032 -0.1554  0.5628  0.5597
 1017MOL0     C37170  10.976  11.207   1.905 -0.5776 -0.0969  0.4476
 1017MOL0     C37171  11.095  11.286   1.862  0.4205  0.2552 -0.2691
 1017MOL0     C37172  11.166  11.226   1.740 -0.9517 -0.6233 -0.5224
 1017MOL0     C37173  11.291  11.298   1.711 -0.3455 -0.0632  0.2494
 1017MOL0     C37174  11.415  11.207   1.705 -0.4439  0.0656  0.8354
 1017MOL0     C37175  11.522  11.297   1.627 -0.4160  0.0723 -0.6034
 1017MOL0     C37176  11.658  11.226   1.621  0.2463 -0.5104  0.3093
 1017MOL0     N37177  11.760  11.311   1.558  0.8302 -0.5222  0.3835
 1017MOL0     C37178  11.752  11.403   1.456 -0.2785 -0.3824 -0.3102
 1017MOL0     C37179  11.863  11.476   1.471 -0.5899  0.0930 -0.2730
 1017MOL0     C37180  11.873  11.600   1.399 -0.4497  0.3184 -0.2513
 1017MOL0     C37181  12.010  11.614   1.336 -0.0695 -0.1020  0.3268
 1017MOL0     C37182  12.040  11.527   1.222 -0.6989  0.5566  0.5799
 1017MOL0     C37183  12.190  11.510   1.213  0.1878  0.9938 -0.2634
 1017MOL0     O37184  12.244  11.638   1.191 -0.0849  0.3798  0.2428
 1017MOL0     C37185  12.377  11.643   1.177  0.0292 -0.1262 -1.0488
 1017MOL0     C37186  12.433  11.770   1.174 -0.3853  0.0258 -0.0361
 1017MOL0     C37187  12.573  11.782   1.163  1.1589 -0.5501 -0.3085
 1017MOL0     C37188  12.653  11.671   1.166 -0.2931  0.1102  0.5031
 1017MOL0     C37189  12.798  11.676   1.171 -0.4671  0.1945 -0.3869
 1017MOL0     O37190  12.872  11.762   1.091  0.3839  0.2065  0.0875
 1017MOL0     C37191  13.003  11.732   1.089 -1.4748 -0.2512  0.4561
 1017MOL0     C37192  13.088  11.771   1.194  0.4809 -0.5178  0.0913
 1017MOL0     C37193  13.221  11.749   1.192 -0.0440  0.9975 -0.7084
 1017MOL0     C37194  13.279  11.670   1.087 -0.6303 -0.2990  0.5143
 1017MOL0     O37195  13.417  11.657   1.090 -0.3492 -0.2559  0.4623
 1017MOL0     C37196  13.497  11.588   0.995 -0.4193  0.3256  0.7176
 1017MOL0     C37197  13.519  11.677   0.874 -0.6742  0.3887 -0.3296
 1017MOL0     C37198  13.590  11.604   0.753 -0.0019 -0.2493 -0.7027
 1017MOL0     C37199  13.736  11.553   0.770  0.2548  0.0778  1.2718
 1017MOL0     C37200  13.757  11.404   0.725 -0.0429 -0.6776 -0.6779
 1017MOL0     C37201  13.693  11.299   0.820  0.4487 -0.2658 -0.2153
 1017MOL0     C37202  13.722  11.156   0.781 -1.0657  0.0904  0.8828
 1017MOL0     C37203  13.873  11.121   0.769 -0.0283  0.4880  0.7164
 1017MOL0    Cl37204  13.922  11.077   0.936 -0.0320  0.1753 -0.1830
 1017MOL0     C37205  13.195  11.626   0.978  0.1335 -0.7222 -0.3512
 1017MOL0     C37206  13.063  11.666   0.980  0.3452  0.4406  0.3146
 1017MOL0     O37207  12.848  11.591   1.244  0.2231 -0.2596  0.0106
 1017MOL0     C37208  12.592  11.544   1.160  0.1716  0.1246 -0.4388
 1017MOL0     C37209  12.462  11.528   1.166  1.0613 -0.0782  0.4047
 1017MOL0     N37210  11.945  11.421   1.569 -0.0560  0.5609 -0.8583
 1017MOL0     N37211  11.878  11.320   1.615  0.0096  0.5432  0.7304
 1017MOL0     C37212  10.602  11.174   2.199 -0.8078  0.1133  0.3593
 1017MOL0     C37213  10.526  11.216   2.311  1.0085 -0.0811  0.7733
 1017MOL0     C37214  10.412  11.342   2.724  0.1096 -0.0319 -0.7287
 1017MOL0     C37215  10.289  11.392   2.699  0.3166 -0.2785 -0.2701
 1017MOL0     C37216  10.200  11.449   2.800 -0.7823  1.2216  0.9238
 1017MOL0     C37217  10.232  11.435   2.935  0.3054  0.1946  0.6784
 1017MOL0     O37218  10.141  11.481   3.027 -0.7746  0.4557  0.3114
 1017MOL0     C37219  10.151  11.418   3.153 -0.0924  0.0225 -1.2823
 1017MOL0     C37220  10.024  11.450   3.239 -0.5175  0.2014 -0.4762
 1017MOL0     C37221   9.899  11.392   3.181  0.7625  0.8642  0.1794
 1017MOL0     C37222   9.773  11.413   3.281 -0.3440 -0.4162  0.2281
 1017MOL0     C37223   9.758  11.295   3.367  0.2533  0.1859 -0.3162
 1017MOL0     C37224   9.746  11.191   3.434 -0.5742 -1.0964  0.5504
 1017MOL0     C37225  10.357  11.376   2.963 -0.3905 -1.1430  0.4850
 1017MOL0     C37226  10.436  11.326   2.864 -0.0574  0.5931 -0.1936
 1017MOL0     C37227  10.565  11.272   2.925 -0.6399 -0.0637 -0.4226
 1017MOL0     H37228  10.717  11.469   2.430  1.8428 -0.8414  1.3631
 1017MOL0     H37229  10.869  11.389   2.241  2.1859 -2.2409  1.0933
 1017MOL0     H37230  10.874  11.372   2.004  1.2890  1.0467  0.6367
 1017MOL0     H37231  10.980  11.273   2.111  0.8913 -1.5483 -0.3131
 1017MOL0     H37232  10.900  11.197   1.826  0.4854  1.2186 -0.7855
 1017MOL0     H37233  11.008  11.109   1.942  0.7060  0.9477  2.2050
 1017MOL0     H37234  11.171  11.282   1.941 -1.0231 -0.0653  1.1591
 1017MOL0     H37235  11.069  11.390   1.842  2.0527  0.1811 -3.3043
 1017MOL0     H37236  11.178  11.119   1.759  2.1817 -0.3993 -0.7218
 1017MOL0     H37237  11.096  11.242   1.657  0.0422 -0.0460 -1.2812
 1017MOL0     H37238  11.273  11.351   1.617  0.5505  1.4146  0.8806
 1017MOL0     H37239  11.317  11.376   1.783  0.7492 -0.0488 -0.1388
 1017MOL0     H37240  11.446  11.168   1.802  1.6725 -1.0635 -0.2347
 1017MOL0     H37241  11.396  11.126   1.633 -0.6874  2.1449 -1.5777
 1017MOL0     H37242  11.528  11.395   1.674 -0.6368 -0.6921  1.0869
 1017MOL0     H37243  11.483  11.311   1.526 -0.8823 -0.2844 -0.4765
 1017MOL0     H37244  11.686  11.195   1.722 -0.1934 -1.3828  0.1714
 1017MOL0     H37245  11.654  11.134   1.562 -2.1998 -0.3725  0.1499
 1017MOL0     H37246  11.675  11.420   1.381 -1.4431  1.7763  1.2654
 1017MOL0     H37247  11.796  11.620   1.324 -0.3352 -1.3869 -0.8599
 1017MOL0     H37248  11.856  11.690   1.460  3.1034  1.5932 -0.8950
 1017MOL0     H37249  12.011  11.722   1.316 -3.4746  0.1160  0.7286
 1017MOL0     H37250  12.085  11.597   1.414 -1.3970 -2.8390  1.1236
 1017MOL0     H37251  12.005  11.568   1.127  1.4075 -2.5745 -1.7531
 1017MOL0     H37252  12.004  11.424   1.230  3.2468 -1.3326 -2.2186
 1017MOL0     H37253  12.211  11.443   1.129  0.2920 -0.0683  0.5816
 1017MOL0     H37254  12.226  11.458   1.303  0.7156  1.2089 -0.3434
 1017MOL0     H37255  12.370  11.857   1.191 -1.3576 -0.3983 -1.3135
 1017MOL0     H37256  12.612  11.882   1.156  1.4801 -0.6517  0.0331
 1017MOL0     H37257  13.045  11.828   1.276  1.0370  1.8943 -1.1751
 1017MOL0     H37258  13.277  11.793   1.273  0.7745 -0.2937 -0.5557
 1017MOL0     H37259  13.593  11.564   1.041 -0.4187  1.3387  1.2718
 1017MOL0     H37260  13.446  11.494   0.971 -0.9550  0.8495 -0.2818
 1017MOL0     H37261  13.427  11.727   0.840  0.0681  0.8195 -1.7805
 1017MOL0     H37262  13.591  11.751   0.909 -0.9120 -0.8130  3.0640
 1017MOL0     H37263  13.537  11.517   0.714  1.6319 -2.7530  2.2156
 1017MOL0     H37264  13.584  11.685   0.680 -0.9487  0.4266  0.0992
 1017MOL0     H37265  13.762  11.553   0.876  0.8289 -0.2903  1.1376
 1017MOL0     H37266  13.810  11.619   0.723  3.2235 -1.9531  2.8131
 1017MOL0     H37267  13.866  11.407   0.715  0.0383  1.0387  0.3035
 1017MOL0     H37268  13.717  11.382   0.625  0.6449 -1.8416 -0.7208
 1017MOL0     H37269  13.736  11.322   0.919  1.1615  2.1860 -1.0031
 1017MOL0     H37270  13.585  11.316   0.822  0.6892  1.7260 -0.9882
 1017MOL0     H37271  13.681  11.135   0.682  1.4698 -3.1490  0.3415
 1017MOL0     H37272  13.674  11.080   0.843 -1.7342  0.7017  1.1352
 1017MOL0     H37273  13.886  11.034   0.704 -1.3172 -0.0190  1.1138
 1017MOL0     H37274  13.926  11.206   0.724 -1.1230  1.3648  1.0541
 1017MOL0     H37275  13.229  11.561   0.899 -1.2416  1.2829 -2.7491
 1017MOL0     H37276  13.001  11.632   0.897  2.3603 -0.6515 -0.8125
 1017MOL0     H37277  12.641  11.448   1.170 -0.9699 -0.2409  2.7443
 1017MOL0     H37278  12.424  11.426   1.173  0.5569  0.0163 -0.7070
 1017MOL0     H37279  10.552  11.099   2.139  1.0945 -1.0087  0.1038
 1017MOL0     H37280  10.430  11.168   2.323 -0.3274  1.8813 -1.1900
 1017MOL0     H37281  10.244  11.397   2.601  2.8272 -1.4298 -1.5871
 1017MOL0     H37282  10.111  11.497   2.760 -0.3359 -0.4861 -2.5008
 1017MOL0     H37283  10.239  11.458   3.205 -1.0909  0.2314  0.3175
 1017MOL0     H37284  10.161  11.310   3.144 -1.7864 -0.1537 -1.2242
 1017MOL0     H37285  10.027  11.558   3.257  0.2335  0.4359 -1.8807
 1017MOL0     H37286  10.026  11.405   3.339 -2.1550  1.0608 -0.0166
 1017MOL0     H37287   9.921  11.285   3.175 -0.8896  0.4760  0.6518
 1017MOL0     H37288   9.893  11.438   3.082  0.9566 -0.6922 -0.5747
 1017MOL0     H37289   9.787  11.496   3.352  0.8349 -0.7041  0.3534
 1017MOL0     H37290   9.686  11.433   3.217 -0.6016  3.1078  1.4362
 1017MOL0     H37291   9.724  11.100   3.486 -0.4221 -1.5432 -0.1553
 1017MOL0     H37292  10.409  11.373   3.058  1.1233  1.0321 -0.1839
 1017MOL0     H37293  10.538  11.184   2.984  1.4155 -0.0251  0.6873
 1017MOL0     H37294  10.649  11.249   2.859 -0.8618 -0.7102 -0.4867
 1017MOL0     H37295  10.617  11.341   2.993  0.7375 -2.3842  1.0347
 1018MOL0     O37296   0.334   0.269   2.986  0.8915  0.6138  0.6017
 1018MOL0     C37297   0.266   0.318   2.893 -0.6696  0.2258  0.1730
 1018MOL0     O37298   0.309   0.344   2.762 -0.6054  0.6118 -0.4089
 1018MOL0     C37299   0.437   0.305   2.723 -0.6343  0.0896 -0.1595
 1018MOL0     C37300   0.451   0.248   2.594  0.2675 -0.4341  0.3355
 1018MOL0     C37301   0.582   0.214   2.551  0.0492 -0.7656 -0.1631
 1018MOL0     C37302   0.691   0.230   2.635 -0.2155 -0.2015 -0.0570
 1018MOL0     O37303   0.810   0.180   2.580  1.3964 -0.2700  0.4058
 1018MOL0     C37304   0.919   0.134   2.660 -0.2088 -0.1171 -0.0438
 1018MOL0     C37305   1.043   0.151   2.571 -0.0704  0.6782  0.3433
 1018MOL0     C37306   1.191   0.128   2.623 -0.7137 -0.0788  0.0765
 1018MOL0     C37307   1.226  -0.017   2.658  0.3214  0.4962 -0.2428
 1018MOL0     C37308   1.369  -0.032   2.689 -0.1951  0.1149  0.6768
 1018MOL0     C37309   1.406  -0.169   2.733  0.0387  0.9300 -0.4643
 1018MOL0     C37310   1.553  -0.173   2.757 -0.3948 -0.3408 -0.4293
 1018MOL0     C37311   1.606  -0.119   2.884 -0.1919 -0.0428 -0.1428
 1018MOL0     N37312   1.753  -0.137   2.880 -0.2128 -0.6633 -0.7497
 1018MOL0     C37313   1.837  -0.077   2.789  0.1344  0.2820  0.0317
 1018MOL0     C37314   1.950  -0.146   2.786 -0.2583  0.2161  0.9001
 1018MOL0     C37315   2.072  -0.105   2.707  0.2196 -0.8000  0.8822
 1018MOL0     C37316   2.199  -0.137   2.781 -1.0163 -0.1216  0.1081
 1018MOL0     C37317   2.310  -0.063   2.706 -0.5889  0.9732 -0.2556
 1018MOL0     C37318   2.449  -0.086   2.777  0.1238 -0.2097  0.7010
 1018MOL0     O37319   2.551  -0.042   2.686 -0.1887 -0.0377 -0.7145
 1018MOL0     C37320   2.679  -0.021   2.743  0.7917  0.2859  0.9640
 1018MOL0     C37321   2.762   0.034   2.651  0.0034 -0.0458 -0.5476
 1018MOL0     C37322   2.892   0.058   2.688 -0.1350 -0.0473  0.4048
 1018MOL0     C37323   2.940   0.022   2.822 -0.7960 -0.1441 -0.3705
 1018MOL0     C37324   3.086   0.052   2.856  0.4435 -0.4311  0.8388
 1018MOL0     O37325   3.123   0.016   2.978  0.1794 -0.8105 -0.1186
 1018MOL0     C37326   3.257   0.021   3.005  0.0991  0.0650  0.2237
 1018MOL0     C37327   3.333   0.130   3.063  0.0387 -0.1688  0.1829
 1018MOL0     C37328   3.470   0.137   3.072  0.6113  0.0529  0.2407
 1018MOL0     C37329   3.536   0.026   3.014  0.0436 -0.6744 -0.2194
 1018MOL0     O37330   3.672   0.032   3.010  0.6213 -0.1629  0.5741
 1018MOL0     C37331   3.712   0.077   2.878 -0.4222 -0.1819 -0.3717
 1018MOL0     C37332   3.867   0.068   2.858 -0.8178  0.0289  0.0029
 1018MOL0     C37333   3.947   0.147   2.969 -0.0790  0.7723  0.7428
 1018MOL0     C37334   4.092   0.147   2.922  0.0379  0.5512  0.3587
 1018MOL0     C37335   4.160   0.278   2.951 -0.1181  0.2092 -0.4336
 1018MOL0     C37336   4.303   0.281   2.892 -0.9086  1.0074 -0.4894
 1018MOL0     C37337   4.384   0.409   2.934 -0.2362 -0.1101 -0.2575
 1018MOL0     C37338   4.531   0.399   2.894  0.1749 -0.6918  0.2491
 1018MOL0    Cl37339   4.599   0.247   2.960  0.4498  0.1906 -0.1593
 1018MOL0     C37340   3.469  -0.086   2.957 -0.6941  0.1598  0.4664
 1018MOL0     C37341   3.333  -0.085   2.954  0.5066 -0.3230 -0.0860
 1018MOL0     O37342   3.163   0.085   2.769  0.0970 -0.6892 -0.2326
 1018MOL0     C37343   2.852  -0.044   2.912 -0.7850  0.3623 -0.3001
 1018MOL0     C37344   2.719  -0.066   2.866 -0.1012  0.0119 -0.4090
 1018MOL0     N37345   1.934  -0.251   2.875 -1.0732  0.0952  0.1315
 1018MOL0     N37346   1.813  -0.251   2.922  0.5380  0.2431 -0.2693
 1018MOL0     C37347   0.676   0.287   2.764  0.2253 -0.0983 -0.2511
 1018MOL0     C37348   0.545   0.329   2.806 -0.6794 -0.6999 -0.3528
 1018MOL0     C37349   0.126   0.341   2.924 -0.3207 -0.7356  1.1763
 1018MOL0     C37350   0.091   0.367   3.059  0.3162  0.5895  0.2724
 1018MOL0     C37351  -0.047   0.399   3.087  0.7728  0.6403  0.6564
 1018MOL0     C37352  -0.140   0.405   2.996 -0.2986 -0.1959  0.4985
 1018MOL0     O37353  -0.268   0.439   3.021  0.1468  0.3875  0.4041
 1018MOL0     C37354  -0.322   0.562   2.974 -0.0095  0.5602 -0.0769
 1018MOL0     C37355  -0.254   0.681   3.032 -1.2154 -0.6816  0.3789
 1018MOL0     C37356  -0.318   0.821   3.022  0.6039  0.2912  0.6250
 1018MOL0     C37357  -0.247   0.925   3.112  0.6418 -0.3264  0.6545
 1018MOL0     C37358  -0.097   0.918   3.084  0.4864  0.2799 -0.8380
 1018MOL0     C37359   0.022   0.911   3.059  0.3082 -0.5366  0.5584
 1018MOL0     C37360  -0.105   0.390   2.864 -0.8524  0.0087  0.5498
 1018MOL0     C37361   0.024   0.354   2.828 -0.7488 -0.2873  0.0044
 1018MOL0     C37362   0.042   0.344   2.680  0.0260  0.4497 -0.1432
 1018MOL0     H37363   0.359   0.232   2.540  0.3207 -1.1729  0.4455
 1018MOL0     H37364   0.584   0.180   2.449  1.4120  1.2975 -0.8896
 1018MOL0     H37365   0.942   0.202   2.743  2.0484  0.2335 -0.8853
 1018MOL0     H37366   0.907   0.028   2.682  1.3191 -0.5435 -1.1556
 1018MOL0     H37367   1.041   0.249   2.523  1.4894  0.9401  0.7419
 1018MOL0     H37368   1.024   0.082   2.489  1.3115  0.2175  0.3791
 1018MOL0     H37369   1.198   0.189   2.714  1.1742  1.0865 -0.8032
 1018MOL0     H37370   1.277   0.164   2.566  0.4589  3.2811  3.5053
 1018MOL0     H37371   1.155  -0.060   2.729 -0.8557 -1.9320 -2.7233
 1018MOL0     H37372   1.209  -0.066   2.562  1.4963  0.5589 -0.5050
 1018MOL0     H37373   1.421  -0.013   2.595 -1.8794 -3.0138 -1.0296
 1018MOL0     H37374   1.397   0.044   2.763 -1.0635  0.7782  0.3360
 1018MOL0     H37375   1.346  -0.204   2.818  0.2695  0.1729 -0.6043
 1018MOL0     H37376   1.390  -0.241   2.652 -1.3202  0.0716  0.5201
 1018MOL0     H37377   1.599  -0.121   2.673 -3.1222  1.1571 -1.1226
 1018MOL0     H37378   1.578  -0.278   2.741  1.4976  0.2161 -1.3821
 1018MOL0     H37379   1.566  -0.018   2.900 -1.1111 -0.4728  0.3672
 1018MOL0     H37380   1.568  -0.178   2.967 -3.6068  0.4531 -1.1919
 1018MOL0     H37381   1.824   0.017   2.738  3.0479  0.5629 -0.3823
 1018MOL0     H37382   2.073  -0.162   2.614  0.1158 -2.3064  1.7761
 1018MOL0     H37383   2.075   0.001   2.681  0.9437 -1.2523 -1.0624
 1018MOL0     H37384   2.203  -0.101   2.884  0.4959  0.5295 -0.1541
 1018MOL0     H37385   2.204  -0.246   2.772  0.5127 -0.1784  1.3467
 1018MOL0     H37386   2.291   0.045   2.704  2.4625  1.6125 -1.3574
 1018MOL0     H37387   2.315  -0.088   2.599 -0.7909 -0.4260  0.0483
 1018MOL0     H37388   2.462  -0.193   2.795  1.4789 -0.2063 -0.0596
 1018MOL0     H37389   2.450  -0.020   2.864  1.1995  0.1879  0.4026
 1018MOL0     H37390   2.727   0.069   2.554 -1.3777 -1.0993 -0.4618
 1018MOL0     H37391   2.956   0.108   2.616 -0.8380 -0.6926 -0.6944
 1018MOL0     H37392   3.279   0.212   3.109  3.8835  1.3738  2.4066
 1018MOL0     H37393   3.531   0.219   3.109  0.7619 -0.4490  1.1573
 1018MOL0     H37394   3.668   0.014   2.801 -0.9160  0.9130 -0.9995
 1018MOL0     H37395   3.678   0.179   2.858 -2.1950 -0.7063 -0.1704
 1018MOL0     H37396   3.891  -0.038   2.873  3.0871  0.8928  0.9491
 1018MOL0     H37397   3.886   0.111   2.759  0.6236  2.0616  1.0716
 1018MOL0     H37398   3.913   0.251   2.977 -0.5815  0.5412  1.8760
 1018MOL0     H37399   3.938   0.112   3.072 -1.5429  0.1504  0.4337
 1018MOL0     H37400   4.092   0.119   2.816  0.0498 -1.9971  0.9613
 1018MOL0     H37401   4.148   0.063   2.964 -1.5364 -1.2636 -0.9599
 1018MOL0     H37402   4.181   0.295   3.057  0.7478 -2.5556 -0.0671
 1018MOL0     H37403   4.104   0.362   2.909 -1.4506 -1.4647 -2.1639
 1018MOL0     H37404   4.350   0.191   2.932 -1.8874  1.3104  1.4911
 1018MOL0     H37405   4.313   0.268   2.784  2.8937 -1.3622 -0.0317
 1018MOL0     H37406   4.374   0.429   3.041 -2.6822  2.0826 -0.7806
 1018MOL0     H37407   4.338   0.500   2.894 -3.0071 -1.3035 -0.0273
 1018MOL0     H37408   4.535   0.395   2.785 -1.0061  1.2139  0.0851
 1018MOL0     H37409   4.590   0.482   2.935  0.0716 -1.4711  2.0714
 1018MOL0     H37410   3.540  -0.165   2.933  0.3039  0.7160  1.4598
 1018MOL0     H37411   3.275  -0.169   2.918 -0.4732  0.9602 -1.6426
 1018MOL0     H37412   2.882  -0.074   3.012 -3.8526  0.0044  0.6228
 1018MOL0     H37413   2.645  -0.095   2.940 -0.7678  2.1034 -0.1893
 1018MOL0     H37414   0.765   0.302   2.825  1.3138  1.6783 -2.1344
 1018MOL0     H37415   0.542   0.383   2.900  1.7343  1.0051 -1.1769
 1018MOL0     H37416   0.157   0.353   3.144 -0.2543 -2.5872  0.3366
 1018MOL0     H37417  -0.080   0.417   3.189  1.3117 -3.3991  1.7558
 1018MOL0     H37418  -0.423   0.553   3.016  0.6608  0.2662  1.5457
 1018MOL0     H37419  -0.340   0.559   2.866  2.4119 -0.3179 -0.5276
 1018MOL0     H37420  -0.160   0.682   2.975 -1.1513 -1.0040  0.4784
 1018MOL0     H37421  -0.226   0.668   3.137  3.1535  1.4126 -0.2593
 1018MOL0     H37422  -0.426   0.823   3.042 -0.2692  2.0416 -3.3302
 1018MOL0     H37423  -0.305   0.864   2.923  1.5212 -0.4314  0.4193
 1018MOL0     H37424  -0.291   1.023   3.092 -3.1708 -2.2483 -1.6060
 1018MOL0     H37425  -0.257   0.907   3.219 -0.7113  2.4167  1.0745
 1018MOL0     H37426   0.127   0.913   3.041  0.5466  1.1285  1.8530
 1018MOL0     H37427  -0.181   0.405   2.788 -1.9221 -2.1695  1.1184
 1018MOL0     H37428   0.113   0.262   2.668 -0.2291  0.2339 -0.2005
 1018MOL0     H37429  -0.049   0.305   2.633  0.7406 -0.7212 -0.5796
 1018MOL0     H37430   0.068   0.442   2.640  0.1293  0.9742  1.1517
 1019MOL0     O37431   3.077  10.513   4.716  0.1161 -0.5629 -0.3676
 1019MOL0     C37432   3.013  10.571   4.806  0.6024 -0.0749  0.5392
 1019MOL0     O37433   3.059  10.608   4.936 -0.4380  0.2001 -0.6414
 1019MOL0     C37434   3.175  10.535   4.966  0.2720 -0.1287 -0.1562
 1019MOL0     C37435   3.161  10.398   4.987  0.5607  0.6769  0.2569
 1019MOL0     C37436   3.278  10.330   5.022  0.0861  0.1750  0.1947
 1019MOL0     C37437   3.402  10.395   5.035  0.3478  0.5541  0.7464
 1019MOL0     O37438   3.513  10.318   5.052  0.3167 -0.2635 -0.4253
 1019MOL0     C37439   3.646  10.357   5.009  0.2135  0.2534  0.3334
 1019MOL0     C37440   3.749  10.244   5.045  0.3976  0.1568 -0.2741
 1019MOL0     C37441   3.898  10.281   5.024  0.3396 -0.3717 -0.0189
 1019MOL0     C37442   3.982  10.152   5.040 -0.0241 -0.2813 -0.4702
 1019MOL0     C37443   4.120  10.207   5.036  0.4688  0.0885 -0.1730
 1019MOL0     C37444   4.223  10.107   4.999 -0.1514  0.3794  0.3503
 1019MOL0     C37445   4.368  10.161   5.006  0.1065  0.1907 -0.7619
 1019MOL0     C37446   4.417  10.248   4.894  0.2162 -1.2761 -0.3423
 1019MOL0     N37447   4.560  10.288   4.912  0.3458 -0.9645 -0.1731
 1019MOL0     C37448   4.668  10.209   4.886 -0.0117 -0.1898  0.8369
 1019MOL0     C37449   4.784  10.262   4.923 -0.2890 -0.2536  0.5567
 1019MOL0     C37450   4.926  10.207   4.884 -0.3110 -0.1756  1.1189
 1019MOL0     C37451   5.003  10.294   4.792 -0.9027  0.3118 -0.2851
 1019MOL0     C37452   5.091  10.391   4.857 -0.4489  0.0753 -1.3509
 1019MOL0     C37453   5.235  10.339   4.880 -0.2716 -1.2944  0.4712
 1019MOL0     O37454   5.290  10.296   4.759  0.4604 -0.1436  0.1307
 1019MOL0     C37455   5.428  10.294   4.758  0.2720 -0.3093  0.3402
 1019MOL0     C37456   5.498  10.237   4.864  0.5787 -0.6429  0.2515
 1019MOL0     C37457   5.638  10.229   4.841  0.1927 -1.4040  0.1333
 1019MOL0     C37458   5.708  10.298   4.740 -0.0083 -0.2327  0.1450
 1019MOL0     C37459   5.849  10.299   4.730 -0.3837 -0.6821  0.4486
 1019MOL0     O37460   5.917  10.277   4.842  0.1614  0.0374 -0.8561
 1019MOL0     C37461   6.054  10.267   4.838  0.2997 -0.0978  0.0859
 1019MOL0     C37462   6.111  10.386   4.876 -0.6362 -0.1664  0.2128
 1019MOL0     C37463   6.250  10.406   4.853  0.1664  0.5818  0.2136
 1019MOL0     C37464   6.329  10.305   4.820 -0.9492  1.5048  0.0465
 1019MOL0     O37465   6.468  10.327   4.822 -0.5163  0.2812 -0.1856
 1019MOL0     C37466   6.551  10.228   4.756 -0.2649  0.3695  0.7111
 1019MOL0     C37467   6.697  10.237   4.804 -0.1656 -0.6158 -0.4553
 1019MOL0     C37468   6.795  10.138   4.744 -0.2946  0.9593  0.4712
 1019MOL0     C37469   6.936  10.173   4.777  0.6391 -0.2524  0.1670
 1019MOL0     C37470   7.036  10.071   4.729  0.7146 -1.3820 -0.3875
 1019MOL0     C37471   7.178  10.132   4.756  0.2876  0.3593 -0.4361
 1019MOL0     C37472   7.289  10.035   4.704  0.3204  0.1069  0.5110
 1019MOL0     C37473   7.430  10.082   4.746  0.8802  0.4706 -0.1432
 1019MOL0    Cl37474   7.491  10.213   4.653 -0.0357 -0.0591 -0.1829
 1019MOL0     C37475   6.270  10.179   4.780  0.3430  0.0465 -0.0720
 1019MOL0     C37476   6.127  10.160   4.794  0.2069  0.1488  0.1042
 1019MOL0     O37477   5.897  10.326   4.622 -0.1935 -0.6133  0.3052
 1019MOL0     C37478   5.633  10.356   4.634 -0.0894 -0.7062 -0.0017
 1019MOL0     C37479   5.492  10.339   4.641  0.0428  0.1609  0.9049
 1019MOL0     N37480   4.756  10.394   4.970  0.5368 -0.5576  0.4051
 1019MOL0     N37481   4.622  10.403   4.961 -0.4142  0.3540 -0.3504
 1019MOL0     C37482   3.415  10.534   5.016 -0.3076 -0.1655 -0.4127
 1019MOL0     C37483   3.302  10.602   4.981 -0.4714 -0.2103  0.0900
 1019MOL0     C37484   2.872  10.615   4.784  0.2663  0.6121  0.1299
 1019MOL0     C37485   2.794  10.651   4.898  0.5716  0.6253 -0.4091
 1019MOL0     C37486   2.656  10.680   4.881 -0.3335  0.5304 -0.8960
 1019MOL0     C37487   2.598  10.691   4.748  0.1262  0.9486 -0.1401
 1019MOL0     O37488   2.467  10.721   4.731 -0.2942 -0.2768 -0.4064
 1019MOL0     C37489   2.393  10.599   4.734 -0.1087 -0.3303 -0.1100
 1019MOL0     C37490   2.247  10.617   4.783  0.0722  0.2414 -0.1275
 1019MOL0     C37491   2.238  10.642   4.932  0.4524  0.0256  0.8268
 1019MOL0     C37492   2.123  10.583   5.006 -0.0349  0.6776 -0.5981
 1019MOL0     C37493   1.985  10.608   4.943  0.7772 -0.0345 -0.1114
 1019MOL0     C37494   1.885  10.655   4.887 -0.0107 -0.5487  0.4418
 1019MOL0     C37495   2.674  10.667   4.643 -0.3120  0.4168 -0.3743
 1019MOL0     C37496   2.810  10.626   4.656  0.1977 -0.6544  0.1004
 1019MOL0     C37497   2.896  10.615   4.528  0.5063  0.5854 -0.4429
 1019MOL0     H37498   3.061  10.359   4.972 -1.5076  5.4307 -0.2060
 1019MOL0     H37499   3.271  10.222   5.031 -0.1133  0.3417  2.7253
 1019MOL0     H37500   3.642  10.358   4.899 -0.0736 -0.0996  0.3385
 1019MOL0     H37501   3.675  10.457   5.043 -1.2912 -0.0592  2.7598
 1019MOL0     H37502   3.721  10.155   4.988 -0.2400 -1.0875  1.8770
 1019MOL0     H37503   3.728  10.224   5.150  1.5394  3.7731  0.7985
 1019MOL0     H37504   3.925  10.363   5.091  2.9067 -1.5350  0.4759
 1019MOL0     H37505   3.926  10.324   4.927  1.1280  0.5155  0.5764
 1019MOL0     H37506   3.980  10.099   5.136 -0.5969 -0.1209 -0.3927
 1019MOL0     H37507   3.949  10.075   4.970 -4.1947 -0.0600  1.0030
 1019MOL0     H37508   4.136  10.293   4.971 -1.4342 -0.2096 -1.1089
 1019MOL0     H37509   4.140  10.241   5.138 -1.6309 -1.8751  1.0020
 1019MOL0     H37510   4.207  10.030   5.076 -0.6442  1.1015  0.9961
 1019MOL0     H37511   4.202  10.059   4.904 -2.4909 -0.4982  1.2310
 1019MOL0     H37512   4.431  10.073   5.028 -2.5232 -1.3889  1.0392
 1019MOL0     H37513   4.378  10.219   5.098  0.6176 -1.0602  0.0077
 1019MOL0     H37514   4.409  10.194   4.799 -0.2060 -0.6036 -0.6972
 1019MOL0     H37515   4.350  10.333   4.877 -0.0544 -1.2752  0.6699
 1019MOL0     H37516   4.648  10.116   4.834 -1.7062  0.6299 -0.0475
 1019MOL0     H37517   4.986  10.189   4.974 -1.0307  0.7015  1.7966
 1019MOL0     H37518   4.918  10.109   4.838  0.4729 -1.5711  3.7352
 1019MOL0     H37519   5.057  10.234   4.718  0.7921  0.2599  0.9409
 1019MOL0     H37520   4.934  10.362   4.741 -0.8480 -0.4999 -1.4801
 1019MOL0     H37521   5.066  10.408   4.962 -0.9733 -3.6785 -0.7152
 1019MOL0     H37522   5.092  10.486   4.802  1.0615  0.2775 -1.0289
 1019MOL0     H37523   5.241  10.261   4.956 -1.5572 -1.0259  0.8625
 1019MOL0     H37524   5.303  10.416   4.917  2.2161 -3.7067  1.2375
 1019MOL0     H37525   5.456  10.190   4.952  1.3514 -1.7010  0.0671
 1019MOL0     H37526   5.695  10.185   4.922  0.3672 -0.3995  0.5750
 1019MOL0     H37527   6.061  10.475   4.913  1.9967  1.8312 -0.6976
 1019MOL0     H37528   6.306  10.492   4.889  2.3492 -1.5627  2.3199
 1019MOL0     H37529   6.526  10.125   4.780  2.3005 -0.5582 -0.2368
 1019MOL0     H37530   6.543  10.247   4.649  3.0983 -0.0354  0.2742
 1019MOL0     H37531   6.733  10.334   4.766 -1.2610  0.2519  0.6548
 1019MOL0     H37532   6.704  10.235   4.913 -3.0049 -0.0408 -0.1925
 1019MOL0     H37533   6.765  10.041   4.785 -0.4684 -0.4297 -2.6557
 1019MOL0     H37534   6.780  10.125   4.636 -2.7236 -3.4410  1.1106
 1019MOL0     H37535   6.945  10.193   4.884 -3.5281  0.3215  0.5898
 1019MOL0     H37536   6.953  10.270   4.730  3.0372 -0.8289 -0.3065
 1019MOL0     H37537   7.022  10.062   4.621  0.7735 -0.1671 -0.5064
 1019MOL0     H37538   7.019   9.973   4.774 -1.0227 -0.0579  2.0775
 1019MOL0     H37539   7.181  10.225   4.699  0.4199 -0.8263 -2.4497
 1019MOL0     H37540   7.191  10.143   4.864 -3.6450  1.2304  0.1173
 1019MOL0     H37541   7.295  10.044   4.595 -0.8069  0.7496  0.4850
 1019MOL0     H37542   7.268   9.933   4.738  0.7817 -0.1865 -0.0651
 1019MOL0     H37543   7.425  10.113   4.851  0.8667  0.9584 -0.2884
 1019MOL0     H37544   7.489   9.989   4.742 -1.3465 -0.9635 -3.1460
 1019MOL0     H37545   6.323  10.096   4.734  1.9136  1.7646 -1.5336
 1019MOL0     H37546   6.069  10.070   4.780  1.2529 -0.7034  1.0282
 1019MOL0     H37547   5.671  10.392   4.539  1.6680 -2.0609  0.1538
 1019MOL0     H37548   5.432  10.390   4.566  3.4103  0.4793 -1.8444
 1019MOL0     H37549   3.509  10.587   5.016  0.5390 -1.5792 -1.8146
 1019MOL0     H37550   3.300  10.710   4.978  0.0816 -0.1406  1.4898
 1019MOL0     H37551   2.825  10.642   5.001  2.4626 -2.9797 -1.1013
 1019MOL0     H37552   2.590  10.697   4.966  0.2780  1.9251 -0.6711
 1019MOL0     H37553   2.437  10.524   4.800 -3.3467 -3.2168 -0.9089
 1019MOL0     H37554   2.394  10.550   4.637 -0.8193  0.2412 -0.4188
 1019MOL0     H37555   2.183  10.533   4.754 -0.2530  0.2032  0.6808
 1019MOL0     H37556   2.191  10.701   4.740 -1.9306  1.1136  3.7754
 1019MOL0     H37557   2.230  10.749   4.953  0.2322 -0.3038  2.6030
 1019MOL0     H37558   2.336  10.621   4.977  1.1686  0.9199 -0.2543
 1019MOL0     H37559   2.135  10.475   5.013  0.0985  0.7104 -0.3005
 1019MOL0     H37560   2.126  10.627   5.106 -1.6550  3.1688 -1.5491
 1019MOL0     H37561   1.804  10.690   4.826  0.4200 -1.0279 -0.4159
 1019MOL0     H37562   2.629  10.683   4.545 -0.1923  4.0681  0.0009
 1019MOL0     H37563   2.835  10.642   4.441  0.4456  2.2714  0.0846
 1019MOL0     H37564   2.979  10.686   4.525  1.1008 -0.1306 -1.5204
 1019MOL0     H37565   2.937  10.514   4.519  0.9353  0.7685 -0.5858
 1020MOL0     O37566   1.209   1.410   9.244 -0.2221 -0.7804  0.0866
 1020MOL0     C37567   1.257   1.526   9.251  0.1727 -0.3033  0.1372
 1020MOL0     O37568   1.370   1.556   9.306 -0.2562 -0.1373 -0.6427
 1020MOL0     C37569   1.453   1.462   9.346  1.2358 -0.0013 -1.1396
 1020MOL0     C37570   1.435   1.406   9.471 -1.0404 -1.0803  0.5030
 1020MOL0     C37571   1.526   1.311   9.517 -0.4776  0.4761  0.4239
 1020MOL0     C37572   1.646   1.282   9.438 -0.3005 -0.5669  0.8026
 1020MOL0     O37573   1.735   1.194   9.499  0.2696 -0.0679  0.2623
 1020MOL0     C37574   1.863   1.199   9.437 -0.4091  0.4680 -0.0136
 1020MOL0     C37575   1.959   1.110   9.508 -1.2403 -0.8093 -0.1155
 1020MOL0     C37576   2.105   1.157   9.491  0.4184 -0.1523 -1.1389
 1020MOL0     C37577   2.177   1.157   9.355  0.0892  0.6640 -0.8461
 1020MOL0     C37578   2.328   1.180   9.385  0.0618  0.1498 -0.5689
 1020MOL0     C37579   2.396   1.177   9.245 -0.6042  0.9125  0.3806
 1020MOL0     C37580   2.552   1.173   9.251  0.0483  0.8032 -0.2710
 1020MOL0     C37581   2.615   1.046   9.322 -0.2311 -0.6083 -0.0631
 1020MOL0     N37582   2.761   1.048   9.325 -0.0628 -0.2996 -0.7688
 1020MOL0     C37583   2.840   1.052   9.217 -0.1182 -0.4894 -0.5177
 1020MOL0     C37584   2.961   0.988   9.251  0.5618  0.0586  0.8072
 1020MOL0     C37585   3.062   0.940   9.152  0.0249 -0.0519  0.7576
 1020MOL0     C37586   3.205   0.933   9.206  0.1049 -0.3432 -0.5157
 1020MOL0     C37587   3.296   0.875   9.095  0.4710 -0.0777  0.5090
 1020MOL0     C37588   3.299   0.722   9.100 -0.0788  0.0708 -0.2907
 1020MOL0     O37589   3.345   0.673   9.225  0.4811  0.8540  0.5941
 1020MOL0     C37590   3.469   0.633   9.251 -1.2879  0.4761 -0.3073
 1020MOL0     C37591   3.582   0.655   9.170 -0.2327  0.2823  0.1435
 1020MOL0     C37592   3.711   0.591   9.190  0.6553 -0.2781  0.2485
 1020MOL0     C37593   3.729   0.505   9.297  0.4811  0.2472  1.6276
 1020MOL0     C37594   3.866   0.453   9.307 -0.2812 -0.0170 -0.5826
 1020MOL0     O37595   3.945   0.481   9.206 -1.0171  0.5923  0.3944
 1020MOL0     C37596   4.075   0.443   9.202  0.6057 -0.6917 -0.8759
 1020MOL0     C37597   4.130   0.423   9.077 -0.4711  0.7267  0.0224
 1020MOL0     C37598   4.269   0.401   9.062  0.3376  0.9769  0.8345
 1020MOL0     C37599   4.358   0.396   9.171  0.3159 -0.0806  0.1120
 1020MOL0     O37600   4.490   0.381   9.165 -0.4953  0.0025  0.4345
 1020MOL0     C37601   4.564   0.342   9.040  0.1849 -0.1417 -0.4071
 1020MOL0     C37602   4.706   0.388   9.055 -0.3900 -0.3148  0.5171
 1020MOL0     C37603   4.806   0.337   8.953 -0.2790  0.4491  0.6754
 1020MOL0     C37604   4.944   0.373   9.011 -0.2396  0.4508  0.3532
 1020MOL0     C37605   5.037   0.411   8.900  0.4322  0.5419  0.5032
 1020MOL0     C37606   5.179   0.450   8.944  0.0898 -0.1526  0.4192
 1020MOL0     C37607   5.273   0.484   8.824  0.2126 -0.1801  0.6064
 1020MOL0     C37608   5.230   0.608   8.740 -0.7017 -0.2664  0.1288
 1020MOL0    Cl37609   5.167   0.746   8.841 -0.2129 -0.2536 -0.0951
 1020MOL0     C37610   4.303   0.408   9.295  0.0028 -0.2840  0.3028
 1020MOL0     C37611   4.167   0.439   9.316  0.2359 -0.0865  0.5409
 1020MOL0     O37612   3.884   0.392   9.416 -0.8357 -0.3956  0.0377
 1020MOL0     C37613   3.618   0.488   9.387  0.2381 -0.2666 -0.0221
 1020MOL0     C37614   3.497   0.555   9.367  0.1112  0.0663 -0.1271
 1020MOL0     N37615   2.949   0.951   9.379  0.4307  0.2078 -0.3949
 1020MOL0     N37616   2.832   0.984   9.425  0.0993  0.0822 -0.3440
 1020MOL0     C37617   1.662   1.361   9.324 -0.9274  0.4756 -0.3724
 1020MOL0     C37618   1.565   1.449   9.277  0.8032 -0.6444 -0.6164
 1020MOL0     C37619   1.158   1.637   9.231  0.6842  0.0677  0.2978
 1020MOL0     C37620   1.213   1.767   9.206 -0.4496 -0.0360  0.0120
 1020MOL0     C37621   1.128   1.875   9.175  0.2994 -0.1113  0.1904
 1020MOL0     C37622   0.989   1.859   9.161  0.1753  0.2435 -0.6660
 1020MOL0     O37623   0.906   1.965   9.123 -0.4744 -0.0203  0.1811
 1020MOL0     C37624   0.894   2.072   9.212 -0.3426 -0.1538  1.1345
 1020MOL0     C37625   0.975   2.187   9.154  0.1026 -0.1891  0.3735
 1020MOL0     C37626   0.971   2.313   9.245 -0.2830  0.2338  0.4536
 1020MOL0     C37627   1.085   2.406   9.238 -0.2665 -0.6270 -0.1605
 1020MOL0     C37628   1.102   2.442   9.098  0.0963  0.0951  0.3814
 1020MOL0     C37629   1.113   2.487   8.986  0.2395  0.6742 -0.1200
 1020MOL0     C37630   0.936   1.733   9.186  0.8926  0.3997 -0.8446
 1020MOL0     C37631   1.017   1.624   9.229  0.7285  0.1428  0.2650
 1020MOL0     C37632   0.943   1.488   9.250 -0.0939 -0.1088  0.6669
 1020MOL0     H37633   1.351   1.448   9.525  0.3406  1.1926  1.0189
 1020MOL0     H37634   1.503   1.258   9.609 -0.3642 -1.0276 -0.3764
 1020MOL0     H37635   1.856   1.171   9.332 -1.8848 -0.5267  0.3330
 1020MOL0     H37636   1.902   1.302   9.443  0.3999  0.1712  0.0402
 1020MOL0     H37637   1.954   1.008   9.469 -1.5690 -0.5196 -0.8616
 1020MOL0     H37638   1.939   1.109   9.616 -0.7490 -2.6780 -0.0084
 1020MOL0     H37639   2.157   1.090   9.560 -0.8662  1.9130  2.0601
 1020MOL0     H37640   2.117   1.262   9.520 -0.1629  0.3409 -2.5864
 1020MOL0     H37641   2.147   1.064   9.305  0.7614  0.6342 -1.2060
 1020MOL0     H37642   2.142   1.236   9.287 -0.2247  0.5632 -0.8017
 1020MOL0     H37643   2.346   1.274   9.438  0.9994 -1.3085  1.8848
 1020MOL0     H37644   2.364   1.098   9.447 -2.0476  0.2721  0.9128
 1020MOL0     H37645   2.367   1.083   9.198  1.1953 -0.6487  2.1619
 1020MOL0     H37646   2.365   1.260   9.181 -0.8426  0.2809 -0.3379
 1020MOL0     H37647   2.583   1.257   9.314 -2.9096  1.9646 -0.2237
 1020MOL0     H37648   2.587   1.178   9.148 -1.7432  0.2513 -0.9484
 1020MOL0     H37649   2.570   1.037   9.421  1.6611 -0.2696  0.8585
 1020MOL0     H37650   2.595   0.955   9.263  0.0057 -0.5750 -0.1976
 1020MOL0     H37651   2.809   1.085   9.119 -1.3406 -1.6296 -0.5352
 1020MOL0     H37652   3.042   0.836   9.124 -1.9741 -0.0948  2.1754
 1020MOL0     H37653   3.056   1.011   9.069  0.0843  1.5013  2.0494
 1020MOL0     H37654   3.233   1.033   9.240  0.8535 -1.1034  1.1741
 1020MOL0     H37655   3.212   0.859   9.286 -1.7489  0.1695  0.1886
 1020MOL0     H37656   3.393   0.924   9.105 -1.2002  3.8290 -0.6448
 1020MOL0     H37657   3.266   0.905   8.995 -0.1645 -0.6774  0.5078
 1020MOL0     H37658   3.357   0.691   9.012  1.0523  0.8398  0.1639
 1020MOL0     H37659   3.195   0.689   9.088  0.0702 -0.2096 -0.8914
 1020MOL0     H37660   3.569   0.724   9.087  0.4184  1.1836  0.7633
 1020MOL0     H37661   3.787   0.616   9.116  3.0635 -3.6980  1.3478
 1020MOL0     H37662   4.073   0.444   8.988  4.7203  2.7986 -3.3132
 1020MOL0     H37663   4.313   0.387   8.964  1.0284 -0.7038  1.3584
 1020MOL0     H37664   4.572   0.232   9.039  2.3442 -0.0440 -1.5939
 1020MOL0     H37665   4.519   0.380   8.948  1.7715  2.6396 -0.1501
 1020MOL0     H37666   4.701   0.497   9.043  1.4891  0.1366  3.0161
 1020MOL0     H37667   4.741   0.366   9.156  1.2542  2.0226  0.5506
 1020MOL0     H37668   4.790   0.230   8.935  1.4461  0.3771 -0.6680
 1020MOL0     H37669   4.781   0.391   8.861  2.7614 -0.5655 -0.9090
 1020MOL0     H37670   4.987   0.295   9.074 -0.9014 -1.0369 -0.9814
 1020MOL0     H37671   4.930   0.458   9.078 -1.0153 -0.5955  1.5505
 1020MOL0     H37672   4.990   0.495   8.848 -1.5168  0.2949  1.7845
 1020MOL0     H37673   5.047   0.323   8.835  1.1098 -1.1516  2.7825
 1020MOL0     H37674   5.167   0.538   9.009 -2.5660  0.5749 -0.9113
 1020MOL0     H37675   5.228   0.373   9.004  3.8668  1.8616  0.2197
 1020MOL0     H37676   5.268   0.399   8.755 -1.4061 -1.3567  2.0888
 1020MOL0     H37677   5.374   0.499   8.863  0.8958  0.2313 -1.2355
 1020MOL0     H37678   5.311   0.642   8.674  0.2893 -1.8995  0.4279
 1020MOL0     H37679   5.152   0.577   8.670  0.2203 -2.4922 -0.0136
 1020MOL0     H37680   4.369   0.392   9.380  2.5611 -0.4174 -1.5862
 1020MOL0     H37681   4.128   0.440   9.418 -1.1251  1.0992  0.0384
 1020MOL0     H37682   3.639   0.432   9.477 -1.7302 -0.9901  0.0380
 1020MOL0     H37683   3.425   0.536   9.446  0.0052  1.7724  0.2139
 1020MOL0     H37684   1.757   1.351   9.271 -1.6574 -0.2720 -1.5854
 1020MOL0     H37685   1.571   1.494   9.179 -0.9478 -2.6634 -1.7160
 1020MOL0     H37686   1.316   1.787   9.181 -1.2676  0.8408 -3.1539
 1020MOL0     H37687   1.182   1.967   9.156  1.5353 -0.3261  2.3921
 1020MOL0     H37688   0.940   2.052   9.309  0.3641  1.3066  1.1187
 1020MOL0     H37689   0.790   2.102   9.229 -0.2776  3.3102 -3.0297
 1020MOL0     H37690   0.927   2.214   9.059  1.4483  1.9029  0.2290
 1020MOL0     H37691   1.078   2.159   9.131  0.9860  4.7334 -3.3305
 1020MOL0     H37692   0.948   2.277   9.346 -2.3971  2.1521  0.7541
 1020MOL0     H37693   0.876   2.363   9.223 -0.0818  1.6876  2.5495
 1020MOL0     H37694   1.064   2.492   9.302 -1.7476 -2.7968  2.5298
 1020MOL0     H37695   1.170   2.357   9.287 -0.0222 -1.4780 -1.3859
 1020MOL0     H37696   1.120   2.521   8.884  0.4286 -0.5210 -0.5269
 1020MOL0     H37697   0.828   1.731   9.193  0.8370  2.0181 -0.8480
 1020MOL0     H37698   0.975   1.464   9.352  1.2104  0.2818  0.3683
 1020MOL0     H37699   0.835   1.504   9.244  0.1096  0.6822 -2.3335
 1020MOL0     H37700   0.970   1.407   9.182  0.6958  0.7371 -0.0663
 1021MOL0     O37701   4.946  11.093   2.723  0.1530 -0.1341  0.2700
 1021MOL0     C37702   4.951  11.047   2.608  0.3629  0.1970  0.2507
 1021MOL0     O37703   4.851  10.978   2.540  0.5703 -0.3700 -1.0462
 1021MOL0     C37704   4.743  10.935   2.615 -0.0634  0.3380 -0.2431
 1021MOL0     C37705   4.616  11.009   2.617 -0.1111 -0.5519 -0.8898
 1021MOL0     C37706   4.511  10.953   2.690  0.1353 -0.3388  0.6613
 1021MOL0     C37707   4.519  10.822   2.740  0.3032 -0.4307 -0.1752
 1021MOL0     O37708   4.405  10.767   2.801 -0.2078 -0.6233  0.9698
 1021MOL0     C37709   4.341  10.853   2.898  0.1537  0.1334  0.2187
 1021MOL0     C37710   4.281  10.782   3.015  0.0314  1.0336 -0.2027
 1021MOL0     C37711   4.145  10.725   2.979 -0.5323  0.9886 -0.1870
 1021MOL0     C37712   4.099  10.648   3.103 -0.4721 -0.4766 -0.0103
 1021MOL0     C37713   3.970  10.570   3.085  0.3572  0.6306  0.3130
 1021MOL0     C37714   3.975  10.473   2.967  0.3649  0.6187  0.0306
 1021MOL0     C37715   4.086  10.366   2.961 -0.1794  0.4664  0.6867
 1021MOL0     C37716   4.084  10.283   3.092 -0.3915  0.6381 -0.4319
 1021MOL0     N37717   4.207  10.190   3.078  0.3031 -0.1286 -0.3570
 1021MOL0     C37718   4.215  10.084   2.995  0.3355  0.5918 -1.0171
 1021MOL0     C37719   4.349  10.045   3.002  1.1759 -0.7183  0.3360
 1021MOL0     C37720   4.395   9.933   2.910  0.0259 -0.6235 -0.8501
 1021MOL0     C37721   4.339   9.793   2.948 -0.0380  0.8163 -0.3035
 1021MOL0     C37722   4.363   9.689   2.837  0.7907 -0.3376 -0.2323
 1021MOL0     C37723   4.506   9.646   2.810 -1.3554 -0.0795  0.3086
 1021MOL0     O37724   4.584   9.631   2.929  0.2279  0.4410  0.2863
 1021MOL0     C37725   4.720   9.596   2.936  0.9066  0.6005  0.9728
 1021MOL0     C37726   4.783   9.580   3.060 -0.2016  0.5816 -0.4050
 1021MOL0     C37727   4.918   9.551   3.070 -0.2167 -0.4604  0.2276
 1021MOL0     C37728   4.993   9.533   2.955 -0.2479  0.6589 -0.1260
 1021MOL0     C37729   5.124   9.481   2.972 -0.4840 -0.0842 -0.5035
 1021MOL0     O37730   5.159   9.444   3.098  0.6017  0.2295  0.1957
 1021MOL0     C37731   5.277   9.370   3.111  0.4819 -0.6639  0.3360
 1021MOL0     C37732   5.312   9.264   3.026 -0.2885  0.5021  0.1025
 1021MOL0     C37733   5.438   9.208   3.040  0.2931  0.3347  0.2257
 1021MOL0     C37734   5.537   9.248   3.136 -0.7029  0.1004 -0.6876
 1021MOL0     O37735   5.666   9.190   3.153  0.6508 -0.0960 -0.6975
 1021MOL0     C37736   5.748   9.217   3.276 -0.5283 -0.0891 -0.5135
 1021MOL0     C37737   5.879   9.152   3.247  0.4444 -0.4704  0.1839
 1021MOL0     C37738   5.991   9.140   3.348  0.2704 -0.0680  0.3951
 1021MOL0     C37739   6.117   9.065   3.291  0.2744 -0.3391  0.1444
 1021MOL0     C37740   6.150   8.938   3.372  0.3470 -0.0026  0.3216
 1021MOL0     C37741   6.272   8.883   3.322 -0.3223  0.3731  0.1580
 1021MOL0     C37742   6.345   8.821   3.442  0.1736 -0.4474  0.0330
 1021MOL0     C37743   6.472   8.747   3.390  1.2904 -0.0129  0.3132
 1021MOL0    Cl37744   6.557   8.858   3.280 -0.0016 -0.1736 -0.0876
 1021MOL0     C37745   5.492   9.354   3.219 -0.1421 -0.4933  0.7178
 1021MOL0     C37746   5.370   9.413   3.202 -0.0654 -0.8038 -0.2327
 1021MOL0     O37747   5.193   9.460   2.867 -0.0421  0.4286  0.1858
 1021MOL0     C37748   4.935   9.548   2.826 -0.3540 -0.2654 -0.9313
 1021MOL0     C37749   4.799   9.588   2.816 -0.8818  0.5757 -0.1664
 1021MOL0     N37750   4.409  10.134   3.084 -0.7785  0.3603 -0.0765
 1021MOL0     N37751   4.325  10.215   3.131 -0.2743 -0.0999  0.8788
 1021MOL0     C37752   4.645  10.758   2.742  0.0165  1.6936  0.3611
 1021MOL0     C37753   4.752  10.812   2.677 -0.2377  0.1678  0.2356
 1021MOL0     C37754   5.083  11.056   2.537 -0.3953  0.2955  0.3142
 1021MOL0     C37755   5.098  10.975   2.416  0.7054  0.1094 -0.3034
 1021MOL0     C37756   5.222  10.964   2.357  0.7891  0.3227  0.7009
 1021MOL0     C37757   5.335  11.022   2.410  0.2131 -1.1054  0.7307
 1021MOL0     O37758   5.451  11.011   2.333 -0.5066  0.4319  0.7514
 1021MOL0     C37759   5.580  11.068   2.376  1.0799  0.1125  0.8149
 1021MOL0     C37760   5.694  11.011   2.291  0.5278 -0.0510 -0.0369
 1021MOL0     C37761   5.828  11.086   2.322  0.6767 -0.6919 -0.2068
 1021MOL0     C37762   5.961  11.048   2.257  0.5533 -0.2001 -0.2598
 1021MOL0     C37763   6.060  11.158   2.239 -0.8338  0.6178  0.2331
 1021MOL0     C37764   6.132  11.256   2.215 -0.0746  0.2940  0.4576
 1021MOL0     C37765   5.321  11.104   2.518  0.9218  0.3018 -0.9694
 1021MOL0     C37766   5.196  11.130   2.578  0.0749  0.4248 -0.8945
 1021MOL0     C37767   5.185  11.237   2.684 -0.1660  1.6160 -0.0086
 1021MOL0     H37768   4.610  11.105   2.567 -0.8018  2.6063  4.4864
 1021MOL0     H37769   4.421  11.012   2.684 -0.0629 -0.6416  0.6073
 1021MOL0     H37770   4.421  10.909   2.947 -0.3737  3.9932 -2.8088
 1021MOL0     H37771   4.282  10.932   2.852 -2.3909 -2.5713 -1.5392
 1021MOL0     H37772   4.266  10.860   3.090  1.5884  1.8298 -0.6735
 1021MOL0     H37773   4.354  10.709   3.051 -1.1706 -0.3419 -0.4552
 1021MOL0     H37774   4.164  10.664   2.891 -0.0501  2.0490 -0.8282
 1021MOL0     H37775   4.080  10.807   2.947 -1.8310 -0.6478 -1.9991
 1021MOL0     H37776   4.184  10.582   3.121  1.4678  2.4846  2.8818
 1021MOL0     H37777   4.088  10.722   3.183 -1.0436 -1.9574  1.3276
 1021MOL0     H37778   3.930  10.519   3.173 -1.4312  0.6033 -0.4618
 1021MOL0     H37779   3.894  10.639   3.046  0.1314 -0.7236 -1.8306
 1021MOL0     H37780   3.880  10.420   2.963 -0.4082  1.9800 -0.3644
 1021MOL0     H37781   3.969  10.527   2.872  0.0078 -0.3160 -0.4951
 1021MOL0     H37782   4.180  10.421   2.953 -0.7020  1.2530 -0.3145
 1021MOL0     H37783   4.070  10.299   2.876 -2.2929  2.3568 -0.5303
 1021MOL0     H37784   4.099  10.349   3.178  0.1187  0.7669 -0.6215
 1021MOL0     H37785   3.988  10.233   3.111 -0.5202  1.6999  2.1777
 1021MOL0     H37786   4.134  10.039   2.940  0.3879  0.6994 -1.1820
 1021MOL0     H37787   4.371   9.951   2.805  3.3717 -1.5154 -1.8875
 1021MOL0     H37788   4.504   9.943   2.907  0.4731 -1.8501  3.4365
 1021MOL0     H37789   4.401   9.761   3.031  2.4530  1.6527 -1.7421
 1021MOL0     H37790   4.233   9.799   2.976  0.3341 -0.5880  1.6060
 1021MOL0     H37791   4.313   9.723   2.746 -0.4268  0.2700  0.6337
 1021MOL0     H37792   4.303   9.602   2.867 -0.2324 -0.7007 -3.0141
 1021MOL0     H37793   4.555   9.708   2.734 -1.2820 -2.2775 -1.5421
 1021MOL0     H37794   4.501   9.547   2.764  0.5484 -0.2532  0.3888
 1021MOL0     H37795   4.717   9.596   3.144 -0.6804  1.0183 -0.8490
 1021MOL0     H37796   4.954   9.536   3.172 -2.6130 -1.2622  1.0249
 1021MOL0     H37797   5.243   9.216   2.958 -2.5268  1.8158  1.3302
 1021MOL0     H37798   5.467   9.121   2.981 -3.1881 -0.7680 -0.0365
 1021MOL0     H37799   5.768   9.320   3.305  0.0821 -0.8711  2.1557
 1021MOL0     H37800   5.706   9.170   3.366  0.4355 -1.3252 -0.6684
 1021MOL0     H37801   5.859   9.054   3.203  2.5140 -0.3330 -1.2180
 1021MOL0     H37802   5.911   9.216   3.164  0.5977 -0.2210  0.4332
 1021MOL0     H37803   6.027   9.239   3.376  3.6851 -1.3919  1.2365
 1021MOL0     H37804   5.961   9.094   3.443  1.5051 -0.6876  0.5040
 1021MOL0     H37805   6.202   9.134   3.301 -1.6610  1.9799  2.0278
 1021MOL0     H37806   6.112   9.055   3.183  2.2790  0.1298 -0.0324
 1021MOL0     H37807   6.067   8.867   3.368 -0.8040  1.1725  2.0690
 1021MOL0     H37808   6.161   8.960   3.479  0.7976 -2.4746  0.8428
 1021MOL0     H37809   6.243   8.811   3.245 -2.8091  1.2828  0.1153
 1021MOL0     H37810   6.324   8.973   3.287 -1.7539  1.4484  0.6492
 1021MOL0     H37811   6.275   8.757   3.497 -1.6239  1.7002  0.3782
 1021MOL0     H37812   6.376   8.893   3.518 -0.7486  0.8239 -0.7554
 1021MOL0     H37813   6.529   8.723   3.480 -0.7360 -2.0577  1.1632
 1021MOL0     H37814   6.441   8.656   3.337 -1.9188  0.7837  0.6108
 1021MOL0     H37815   5.551   9.400   3.297  1.1136 -0.2484 -0.3495
 1021MOL0     H37816   5.338   9.486   3.275  4.2824 -0.8474  2.0775
 1021MOL0     H37817   4.991   9.527   2.736  0.9827 -1.8320  0.2215
 1021MOL0     H37818   4.764   9.602   2.714 -1.2833 -2.5857 -0.5617
 1021MOL0     H37819   4.648  10.658   2.785 -1.3241 -0.2746 -3.5737
 1021MOL0     H37820   4.847  10.759   2.666 -0.0498  0.2815  1.1885
 1021MOL0     H37821   5.009  10.929   2.376  0.3730  1.9730 -1.8905
 1021MOL0     H37822   5.231  10.901   2.269  0.2152  0.3016  0.6519
 1021MOL0     H37823   5.611  11.053   2.479  2.5200  3.0807  0.9254
 1021MOL0     H37824   5.568  11.176   2.367 -0.5638 -0.1354 -0.5767
 1021MOL0     H37825   5.663  11.026   2.187 -2.2225 -1.1648  0.5160
 1021MOL0     H37826   5.707  10.903   2.302  2.1753  0.1938  0.6714
 1021MOL0     H37827   5.848  11.073   2.429 -1.5641 -1.4470  0.1583
 1021MOL0     H37828   5.801  11.190   2.304  0.5091 -0.6076  0.5002
 1021MOL0     H37829   6.008  10.968   2.315 -1.1464 -0.7898  0.3572
 1021MOL0     H37830   5.936  11.020   2.154 -0.4207  1.5192 -0.5281
 1021MOL0     H37831   6.209  11.326   2.189  0.5555 -1.2640 -2.3147
 1021MOL0     H37832   5.405  11.158   2.560 -0.1105  1.8535 -0.8195
 1021MOL0     H37833   5.154  11.193   2.779  0.0028 -2.3731 -1.5957
 1021MOL0     H37834   5.276  11.295   2.698  0.3314  0.5817  1.1525
 1021MOL0     H37835   5.108  11.307   2.650 -1.7982  0.2968  0.8118
 1022MOL0     O37836   9.267   1.673   4.447 -0.3290 -0.2254 -0.3718
 1022MOL0     C37837   9.286   1.667   4.326  0.4111  0.3489 -0.5275
 1022MOL0     O37838   9.411   1.683   4.267 -0.0802 -0.1731  0.4445
 1022MOL0     C37839   9.519   1.743   4.333  0.4547  0.3237 -0.9743
 1022MOL0     C37840   9.515   1.834   4.442  0.0436  0.9095  0.6966
 1022MOL0     C37841   9.631   1.890   4.488 -0.6472 -0.2294  0.3254
 1022MOL0     C37842   9.755   1.847   4.448  0.0945 -0.6916 -0.1585
 1022MOL0     O37843   9.863   1.910   4.505 -0.7441  0.8488  0.0368
 1022MOL0     C37844   9.989   1.843   4.499 -0.0818  0.1574 -0.2498
 1022MOL0     C37845  10.087   1.911   4.586  0.0512 -0.6381 -0.2200
 1022MOL0     C37846  10.035   1.923   4.733 -1.1623 -0.5737 -0.0693
 1022MOL0     C37847  10.147   1.950   4.825 -0.8046  0.0650  1.2296
 1022MOL0     C37848  10.120   1.993   4.972  0.2851  0.5197 -0.1234
 1022MOL0     C37849  10.247   2.011   5.059 -0.4648  0.2129  0.8572
 1022MOL0     C37850  10.229   1.943   5.196 -0.1078 -0.3522 -0.6490
 1022MOL0     C37851  10.355   1.987   5.273  0.0215  0.5491  0.4698
 1022MOL0     N37852  10.338   1.947   5.412  0.0460  0.1127 -0.5779
 1022MOL0     C37853  10.314   2.044   5.505  0.7444  0.6536  0.3664
 1022MOL0     C37854  10.321   1.971   5.610  0.1008  0.6791 -0.0765
 1022MOL0     C37855  10.294   2.023   5.753  0.2142 -0.4018  0.8322
 1022MOL0     C37856  10.436   2.052   5.814 -0.1013  0.2321  0.0137
 1022MOL0     C37857  10.494   2.186   5.760 -0.3397 -0.0491  0.6585
 1022MOL0     C37858  10.641   2.224   5.785  0.0416  0.8095  0.2908
 1022MOL0     O37859  10.668   2.206   5.920 -0.1045  0.7065  0.4203
 1022MOL0     C37860  10.803   2.174   5.957  0.6574  0.3430  0.2521
 1022MOL0     C37861  10.823   2.087   6.068 -0.3789 -0.6249  0.0309
 1022MOL0     C37862  10.948   2.045   6.106  0.4758 -0.4027  0.4962
 1022MOL0     C37863  11.063   2.095   6.036  0.5086  0.9565 -0.2084
 1022MOL0     C37864  11.198   2.062   6.088  0.1782  0.1645  0.5723
 1022MOL0     O37865  11.293   2.056   5.992 -0.0026  0.3337 -0.4301
 1022MOL0     C37866  11.422   2.024   6.030 -0.3198 -0.6616 -0.4594
 1022MOL0     C37867  11.516   2.089   5.957  0.3324  0.3674  0.3969
 1022MOL0     C37868  11.655   2.075   5.973  0.5614 -0.1224 -0.0591
 1022MOL0     C37869  11.705   1.978   6.059  0.2400 -0.0911  0.4446
 1022MOL0     O37870  11.836   1.971   6.069 -0.5906  0.1590  0.1035
 1022MOL0     C37871  11.902   1.873   6.147 -0.0332  0.7630  0.6304
 1022MOL0     C37872  12.047   1.902   6.107  0.2900  0.1120 -0.9363
 1022MOL0     C37873  12.147   1.877   6.226 -0.6497 -0.4812  0.0059
 1022MOL0     C37874  12.293   1.897   6.180 -0.5084  0.3052 -0.6277
 1022MOL0     C37875  12.392   1.885   6.300  0.7290 -0.9167 -0.0039
 1022MOL0     C37876  12.386   1.747   6.373  0.6885 -0.5190 -0.2627
 1022MOL0     C37877  12.507   1.734   6.465  1.1121  0.0198 -0.8381
 1022MOL0     C37878  12.474   1.811   6.596 -0.8228  0.0737 -0.3307
 1022MOL0    Cl37879  12.394   1.706   6.712 -0.1594 -0.0563 -0.0069
 1022MOL0     C37880  11.615   1.897   6.123  0.3311  0.4524 -0.2122
 1022MOL0     C37881  11.472   1.917   6.114 -0.3813 -0.0291  0.0043
 1022MOL0     O37882  11.205   2.018   6.203 -0.1911 -0.1222  0.5919
 1022MOL0     C37883  11.048   2.172   5.922 -0.4894  0.0668  0.3433
 1022MOL0     C37884  10.916   2.214   5.889 -0.1260  0.1537 -1.3335
 1022MOL0     N37885  10.345   1.841   5.589 -0.2327 -0.2259 -0.8653
 1022MOL0     N37886  10.343   1.825   5.465 -0.1058  0.2902  0.3993
 1022MOL0     C37887   9.764   1.741   4.354  1.2837 -0.4489  0.5566
 1022MOL0     C37888   9.648   1.699   4.293 -0.3402 -0.3093  0.1982
 1022MOL0     C37889   9.182   1.594   4.247 -0.8607  0.5474  0.5802
 1022MOL0     C37890   9.046   1.623   4.276 -0.2469  0.1365  0.0803
 1022MOL0     C37891   8.941   1.571   4.197 -0.2673 -0.2475  0.0298
 1022MOL0     C37892   8.977   1.478   4.098  0.1585 -0.7859  0.0293
 1022MOL0     O37893   8.881   1.414   4.024 -0.7551  0.2465 -0.0587
 1022MOL0     C37894   8.842   1.279   4.066 -0.0143  0.2774 -0.8036
 1022MOL0     C37895   8.720   1.294   4.158  0.0908  0.9193 -0.0412
 1022MOL0     C37896   8.683   1.143   4.180  0.4517  0.1316  0.4558
 1022MOL0     C37897   8.571   1.139   4.291 -0.0473 -0.0359  0.5137
 1022MOL0     C37898   8.437   1.189   4.235 -0.2406  1.1204  0.1634
 1022MOL0     C37899   8.325   1.234   4.209  0.3922 -0.0548 -0.8147
 1022MOL0     C37900   9.104   1.461   4.061  0.8386 -0.0333 -0.1727
 1022MOL0     C37901   9.210   1.509   4.136  0.1869  0.2497  0.7042
 1022MOL0     C37902   9.348   1.450   4.108 -0.0379  0.7370 -0.6863
 1022MOL0     H37903   9.418   1.864   4.480 -1.6285  0.1861 -2.5802
 1022MOL0     H37904   9.616   1.971   4.558  1.4915 -0.2430  0.8601
 1022MOL0     H37905   9.976   1.740   4.533  2.7347 -0.7813 -1.6952
 1022MOL0     H37906  10.031   1.847   4.398  1.8798  2.5743  0.5597
 1022MOL0     H37907  10.120   2.006   4.542  0.6405 -0.1888  1.1264
 1022MOL0     H37908  10.177   1.848   4.588  2.9680  2.8859 -3.4376
 1022MOL0     H37909   9.990   1.827   4.759  0.4559 -1.2378  0.4030
 1022MOL0     H37910   9.970   2.008   4.757 -1.4239 -1.1669  1.4487
 1022MOL0     H37911  10.202   1.855   4.823 -0.8201 -0.0493 -2.9969
 1022MOL0     H37912  10.221   2.017   4.781  0.3724 -1.4668  0.8208
 1022MOL0     H37913  10.048   2.075   4.985 -0.5567 -0.3195  0.6886
 1022MOL0     H37914  10.058   1.908   5.003  0.0485 -0.3140 -2.5797
 1022MOL0     H37915  10.333   1.960   5.015 -0.1863 -0.4562  2.1038
 1022MOL0     H37916  10.273   2.117   5.058  1.1497 -0.1600  0.8019
 1022MOL0     H37917  10.231   1.834   5.187 -2.2637 -0.4539 -0.4059
 1022MOL0     H37918  10.136   1.973   5.246  0.2317 -0.5523  0.1199
 1022MOL0     H37919  10.440   1.945   5.219  0.2226  1.1193  0.3433
 1022MOL0     H37920  10.360   2.096   5.270 -0.6946  0.5848  0.4106
 1022MOL0     H37921  10.287   2.149   5.502  2.5591  1.5359  5.3504
 1022MOL0     H37922  10.215   2.098   5.745 -0.5750 -1.1806  1.1665
 1022MOL0     H37923  10.269   1.939   5.819  1.3039  0.2064  2.0580
 1022MOL0     H37924  10.404   2.071   5.917 -2.5550  2.8846 -1.1179
 1022MOL0     H37925  10.502   1.967   5.793 -0.8341 -0.1944 -0.5836
 1022MOL0     H37926  10.439   2.279   5.779 -0.0824  0.6052 -1.4715
 1022MOL0     H37927  10.492   2.180   5.651  1.6541 -2.5145  0.6828
 1022MOL0     H37928  10.679   2.320   5.749  0.4793  1.2306  1.8057
 1022MOL0     H37929  10.697   2.144   5.736 -0.5044  1.2131 -1.0309
 1022MOL0     H37930  10.737   2.040   6.115 -0.4434  1.8241  2.6158
 1022MOL0     H37931  10.949   1.968   6.183  0.1243 -0.1856  0.7181
 1022MOL0     H37932  11.475   2.170   5.897  2.1391  1.8641  1.0895
 1022MOL0     H37933  11.726   2.130   5.912 -0.3951 -0.8242 -1.9019
 1022MOL0     H37934  11.896   1.873   6.257  2.3913  0.9568  0.8275
 1022MOL0     H37935  11.871   1.770   6.126  1.7205  0.1881  0.6315
 1022MOL0     H37936  12.082   1.851   6.016  0.7453  0.7857 -1.1520
 1022MOL0     H37937  12.052   2.008   6.083  0.7613 -0.1265 -1.9677
 1022MOL0     H37938  12.120   1.956   6.296 -1.4355  1.3702 -2.2851
 1022MOL0     H37939  12.120   1.780   6.269 -3.2803  1.2866  2.7261
 1022MOL0     H37940  12.309   1.995   6.134  0.4919 -0.6794 -2.5019
 1022MOL0     H37941  12.322   1.813   6.116 -0.0486  0.7955 -1.0789
 1022MOL0     H37942  12.367   1.958   6.377  0.6259 -0.0525 -0.8365
 1022MOL0     H37943  12.494   1.905   6.266  1.6506  0.5554  3.2910
 1022MOL0     H37944  12.294   1.733   6.430  1.4685 -2.3710  0.6476
 1022MOL0     H37945  12.393   1.670   6.296  0.9934  0.6128 -1.3976
 1022MOL0     H37946  12.592   1.786   6.420  2.1729 -1.9055 -1.1426
 1022MOL0     H37947  12.529   1.630   6.488 -0.1792 -0.3917 -1.3751
 1022MOL0     H37948  12.566   1.837   6.650 -0.7255  1.6039 -1.1666
 1022MOL0     H37949  12.436   1.910   6.569  2.1053  1.0326 -1.4447
 1022MOL0     H37950  11.651   1.813   6.181  2.3845  1.7015  0.4055
 1022MOL0     H37951  11.404   1.840   6.148 -0.2034 -0.1712  0.0410
 1022MOL0     H37952  11.129   2.219   5.866 -3.2310  2.8255 -1.6098
 1022MOL0     H37953  10.905   2.293   5.815  3.5458 -0.7791 -3.0877
 1022MOL0     H37954   9.860   1.695   4.330  2.4576  1.4368  1.4528
 1022MOL0     H37955   9.659   1.628   4.212 -3.0139  1.2420 -1.6791
 1022MOL0     H37956   9.026   1.700   4.350 -0.0071  1.5270 -1.2637
 1022MOL0     H37957   8.837   1.600   4.201 -1.0096 -2.8395  1.7821
 1022MOL0     H37958   8.930   1.231   4.111  0.0305  1.3216  0.3009
 1022MOL0     H37959   8.817   1.226   3.974 -1.9858 -0.5834  0.1765
 1022MOL0     H37960   8.630   1.346   4.123 -1.7706 -0.6339  2.0674
 1022MOL0     H37961   8.743   1.341   4.254 -0.6936  0.0992  0.5710
 1022MOL0     H37962   8.766   1.089   4.227 -0.8805 -3.4622 -0.9867
 1022MOL0     H37963   8.643   1.090   4.094 -1.3301  0.5377  0.9821
 1022MOL0     H37964   8.568   1.038   4.332 -1.9777  0.3183  1.3800
 1022MOL0     H37965   8.595   1.194   4.383  1.1305  0.7368 -0.2350
 1022MOL0     H37966   8.230   1.276   4.183 -1.6192 -1.2600  3.6173
 1022MOL0     H37967   9.111   1.383   3.986 -1.3942 -0.4323 -0.0202
 1022MOL0     H37968   9.412   1.527   4.063  2.9533 -0.9895  0.3623
 1022MOL0     H37969   9.389   1.417   4.203 -0.1465  0.4076 -0.7524
 1022MOL0     H37970   9.341   1.365   4.039 -4.2618  0.3642 -0.0849
 1023MOL0     O37971   2.150   3.872   1.646  0.0583  0.4992 -0.0205
 1023MOL0     C37972   2.058   3.786   1.652  0.3431  0.2615  0.4120
 1023MOL0     O37973   2.067   3.656   1.611  0.0233 -0.0159 -0.3969
 1023MOL0     C37974   2.185   3.601   1.580  0.3293  0.7248  0.3622
 1023MOL0     C37975   2.254   3.512   1.669 -0.8436 -0.0567 -0.6403
 1023MOL0     C37976   2.353   3.422   1.624 -0.8725 -0.6122 -0.5578
 1023MOL0     C37977   2.396   3.431   1.492 -0.6201  0.8180  0.1899
 1023MOL0     O37978   2.499   3.357   1.430  0.2540  0.1664  0.1244
 1023MOL0     C37979   2.575   3.274   1.519 -0.5262  0.0314 -1.1525
 1023MOL0     C37980   2.682   3.215   1.428  0.4640  0.5066 -0.6872
 1023MOL0     C37981   2.798   3.157   1.519 -0.6641  0.1987  0.0478
 1023MOL0     C37982   2.913   3.096   1.432  0.4682 -1.0156  0.0453
 1023MOL0     C37983   3.015   3.017   1.503 -0.0197 -0.6884  0.1295
 1023MOL0     C37984   3.101   2.935   1.403  0.6885 -0.0354 -0.6165
 1023MOL0     C37985   3.216   2.875   1.487  0.4993  0.1276 -0.4131
 1023MOL0     C37986   3.317   2.812   1.402  0.1942 -0.4927 -0.3000
 1023MOL0     N37987   3.413   2.734   1.483 -0.2638 -0.4984  0.5041
 1023MOL0     C37988   3.540   2.769   1.525  0.3637 -0.4135  0.3963
 1023MOL0     C37989   3.581   2.660   1.587 -0.7327  0.3098 -0.2242
 1023MOL0     C37990   3.718   2.658   1.656 -0.0626 -0.0320  0.9236
 1023MOL0     C37991   3.837   2.659   1.557 -0.2227  0.6489 -0.7812
 1023MOL0     C37992   3.824   2.537   1.453  0.0040  0.7668  0.1432
 1023MOL0     C37993   3.802   2.407   1.522 -0.2130  0.3701 -0.5990
 1023MOL0     O37994   3.902   2.390   1.624 -0.0859  0.0850 -0.5319
 1023MOL0     C37995   4.032   2.362   1.586  0.1276  0.2658  0.3671
 1023MOL0     C37996   4.081   2.335   1.453  0.3473 -0.3942 -0.1471
 1023MOL0     C37997   4.212   2.305   1.431  0.5519  0.2775 -0.0236
 1023MOL0     C37998   4.310   2.305   1.532 -0.2995  0.1985  0.0503
 1023MOL0     C37999   4.450   2.271   1.518  0.7790  0.5625 -0.0175
 1023MOL0     O38000   4.509   2.200   1.631 -0.5258  0.3107  0.6841
 1023MOL0     C38001   4.628   2.123   1.617  0.3002 -0.1736  0.2266
 1023MOL0     C38002   4.700   2.092   1.503 -0.7448 -0.2726 -0.1769
 1023MOL0     C38003   4.820   2.011   1.513 -0.1636 -0.0592 -0.1159
 1023MOL0     C38004   4.858   1.959   1.639  0.4974 -0.1724  0.4413
 1023MOL0     O38005   4.976   1.893   1.661  0.3595 -0.2162  0.6846
 1023MOL0     C38006   5.037   1.845   1.540 -0.8602 -0.4610  0.0016
 1023MOL0     C38007   5.144   1.744   1.583 -0.1361 -0.0212  0.3413
 1023MOL0     C38008   5.225   1.703   1.459 -0.7212 -0.3081  0.8870
 1023MOL0     C38009   5.323   1.589   1.492  0.2239 -0.6393 -0.3219
 1023MOL0     C38010   5.436   1.624   1.593  0.3720  0.0421 -0.4537
 1023MOL0     C38011   5.550   1.699   1.513  1.3888  0.3893 -0.0653
 1023MOL0     C38012   5.665   1.742   1.600  0.8263  0.5917  0.2146
 1023MOL0     C38013   5.804   1.781   1.543  0.7635 -0.5737  0.4686
 1023MOL0    Cl38014   5.896   1.638   1.482  0.2850 -0.5827  0.0356
 1023MOL0     C38015   4.781   2.002   1.748 -0.2059  0.2120 -0.0414
 1023MOL0     C38016   4.669   2.082   1.738  0.8223 -0.3180  0.5452
 1023MOL0     O38017   4.499   2.283   1.400  0.0297 -0.0865 -0.1876
 1023MOL0     C38018   4.260   2.333   1.668  0.0603  0.2349  0.0253
 1023MOL0     C38019   4.124   2.355   1.687 -1.3766  0.6475 -0.5515
 1023MOL0     N38020   3.486   2.561   1.580 -0.2125  0.1784  0.4293
 1023MOL0     N38021   3.390   2.603   1.500 -0.1858 -0.4379 -0.6328
 1023MOL0     C38022   2.338   3.531   1.416  0.0154  0.0273  0.0378
 1023MOL0     C38023   2.234   3.620   1.452  0.5030  0.2726  0.3800
 1023MOL0     C38024   1.923   3.817   1.704  0.0488 -0.4366  0.5380
 1023MOL0     C38025   1.852   3.715   1.764 -0.8206 -1.1211 -0.3790
 1023MOL0     C38026   1.720   3.723   1.799 -0.4258  0.2861 -0.1801
 1023MOL0     C38027   1.650   3.842   1.779 -0.3388  0.0943  0.5964
 1023MOL0     O38028   1.529   3.844   1.833  0.5235 -0.4715  0.1051
 1023MOL0     C38029   1.456   3.967   1.833 -0.6386 -0.1466  0.2709
 1023MOL0     C38030   1.321   3.951   1.900  0.3328  0.0184 -0.1197
 1023MOL0     C38031   1.228   3.872   1.813 -0.2843 -0.2145  0.1234
 1023MOL0     C38032   1.169   3.964   1.703 -0.8330 -0.2088  0.5511
 1023MOL0     C38033   1.098   3.895   1.600  0.2256  0.5678  0.0326
 1023MOL0     C38034   1.043   3.820   1.517  0.1638 -0.0498  0.6714
 1023MOL0     C38035   1.718   3.948   1.726  0.8842 -0.9447  0.2545
 1023MOL0     C38036   1.849   3.944   1.688  0.0202  0.2265  0.3224
 1023MOL0     C38037   1.900   4.064   1.616  0.1926  0.2523  0.5556
 1023MOL0     H38038   2.214   3.507   1.770 -3.1314  0.0041 -1.4914
 1023MOL0     H38039   2.392   3.348   1.694 -1.5769 -0.6357 -0.1804
 1023MOL0     H38040   2.616   3.335   1.600 -1.0318 -1.4853  0.3162
 1023MOL0     H38041   2.511   3.202   1.571  0.9259 -0.8546 -0.5273
 1023MOL0     H38042   2.725   3.288   1.359  2.2835  0.5403  0.4136
 1023MOL0     H38043   2.631   3.133   1.378 -0.8571  0.8416  0.0685
 1023MOL0     H38044   2.756   3.079   1.583  1.7869 -1.0167  0.2701
 1023MOL0     H38045   2.843   3.230   1.587 -0.8394 -1.9614  2.6762
 1023MOL0     H38046   2.877   3.044   1.343  1.0296  1.5729 -1.8147
 1023MOL0     H38047   2.956   3.186   1.388 -0.8482  0.2421  1.2209
 1023MOL0     H38048   3.073   3.084   1.567 -2.0780  1.8407 -0.4585
 1023MOL0     H38049   2.971   2.950   1.577  0.5985 -2.2040 -0.8172
 1023MOL0     H38050   3.030   2.862   1.362  0.6075  0.4274 -1.3134
 1023MOL0     H38051   3.135   2.993   1.317  3.3173  1.2580  1.1631
 1023MOL0     H38052   3.170   2.810   1.563 -0.9220 -2.4948 -3.3088
 1023MOL0     H38053   3.262   2.960   1.538 -3.6076  1.9743  0.6490
 1023MOL0     H38054   3.267   2.750   1.327 -0.4491  2.1593 -2.2309
 1023MOL0     H38055   3.368   2.897   1.356  0.2048  1.2912  2.7648
 1023MOL0     H38056   3.591   2.861   1.498  0.6269 -0.9660 -1.1296
 1023MOL0     H38057   3.732   2.757   1.701  1.5488  0.0407  0.2913
 1023MOL0     H38058   3.731   2.580   1.732 -1.0141 -0.9868  0.1338
 1023MOL0     H38059   3.837   2.753   1.501 -1.1003  0.2524 -1.4847
 1023MOL0     H38060   3.924   2.663   1.622 -0.8195  2.9146 -0.0405
 1023MOL0     H38061   3.909   2.533   1.385  1.6198  1.1934  2.0348
 1023MOL0     H38062   3.734   2.544   1.392 -0.7365 -2.8773  0.5691
 1023MOL0     H38063   3.808   2.319   1.458 -0.6007  0.5409 -0.8706
 1023MOL0     H38064   3.702   2.417   1.566  0.2934 -0.5402  0.8149
 1023MOL0     H38065   4.013   2.326   1.370 -1.8759 -1.2914  1.6567
 1023MOL0     H38066   4.240   2.275   1.330  0.1367 -1.0653  0.2355
 1023MOL0     H38067   4.684   2.144   1.410 -0.5195 -0.5322 -0.3594
 1023MOL0     H38068   4.873   1.996   1.419  2.2602  1.1228  0.9847
 1023MOL0     H38069   4.968   1.795   1.472 -0.4201 -0.3961 -0.4974
 1023MOL0     H38070   5.093   1.924   1.489  0.1994  0.0625  1.8551
 1023MOL0     H38071   5.215   1.781   1.658  0.0238  0.3438  0.0143
 1023MOL0     H38072   5.098   1.656   1.628  0.5638 -1.1651 -1.0894
 1023MOL0     H38073   5.155   1.672   1.380  0.0331  1.8139 -0.7139
 1023MOL0     H38074   5.283   1.783   1.412  2.3040 -1.3613  2.5459
 1023MOL0     H38075   5.356   1.556   1.394 -1.2906 -0.3919 -0.9453
 1023MOL0     H38076   5.266   1.504   1.532 -0.6900  0.0656 -0.0714
 1023MOL0     H38077   5.479   1.528   1.623  1.7839 -0.1129 -2.7403
 1023MOL0     H38078   5.397   1.689   1.672  0.3850 -0.3179 -0.1520
 1023MOL0     H38079   5.591   1.630   1.438  0.3072  0.1530 -0.4529
 1023MOL0     H38080   5.511   1.785   1.458 -0.0401 -0.9563 -1.2760
 1023MOL0     H38081   5.680   1.668   1.679 -4.7246 -2.3081 -0.9173
 1023MOL0     H38082   5.637   1.831   1.657  0.1125 -0.1710  1.0756
 1023MOL0     H38083   5.789   1.850   1.460 -0.6241 -1.0910  0.2628
 1023MOL0     H38084   5.860   1.820   1.629  0.6354 -1.4125  0.9445
 1023MOL0     H38085   4.814   1.972   1.847  0.4729  2.6486  0.5522
 1023MOL0     H38086   4.616   2.106   1.830  0.0153  1.1853 -0.2640
 1023MOL0     H38087   4.332   2.351   1.748  0.2276  2.1989 -0.5147
 1023MOL0     H38088   4.095   2.376   1.789 -2.2172 -2.5879 -0.0211
 1023MOL0     H38089   2.376   3.549   1.316 -1.0484 -2.2933 -0.8526
 1023MOL0     H38090   2.188   3.691   1.383 -0.5987  1.4262  2.2151
 1023MOL0     H38091   1.895   3.616   1.775 -0.9524 -1.2649 -1.1099
 1023MOL0     H38092   1.668   3.642   1.849 -1.0611  1.2135  0.6946
 1023MOL0     H38093   1.437   3.987   1.727 -2.6147 -1.3068  0.3498
 1023MOL0     H38094   1.519   4.044   1.880 -2.2049  1.4947 -0.2274
 1023MOL0     H38095   1.282   4.053   1.912 -0.3594 -0.3736  1.2583
 1023MOL0     H38096   1.328   3.909   2.001  2.7183 -1.4383 -0.8142
 1023MOL0     H38097   1.141   3.834   1.867 -0.0968 -0.0791  0.5238
 1023MOL0     H38098   1.278   3.788   1.763  1.5956  0.9465 -0.0345
 1023MOL0     H38099   1.088   4.015   1.756 -4.2666 -3.4417 -1.0956
 1023MOL0     H38100   1.233   4.042   1.662 -1.8637  0.3024 -0.1361
 1023MOL0     H38101   0.988   3.756   1.451 -1.1474  0.9929  0.7164
 1023MOL0     H38102   1.672   4.046   1.724  0.0321 -1.3012 -3.4710
 1023MOL0     H38103   1.824   4.093   1.543  1.2948  0.4772 -0.5554
 1023MOL0     H38104   1.930   4.130   1.697  1.8819  0.4842 -0.1996
 1023MOL0     H38105   1.994   4.049   1.561  0.4756  1.9821  0.5162
 1024MOL0     O38106   0.307   5.767  11.237 -0.7847 -0.0709 -0.4174
 1024MOL0     C38107   0.217   5.767  11.319  0.5908 -0.2470 -0.1936
 1024MOL0     O38108   0.181   5.872  11.404  0.1457  0.2075  0.5910
 1024MOL0     C38109   0.262   5.980  11.388  0.9123  0.3247 -0.8531
 1024MOL0     C38110   0.351   6.019  11.486 -0.4594 -0.3468  0.2494
 1024MOL0     C38111   0.429   6.134  11.473  0.6566 -0.4614 -0.1208
 1024MOL0     C38112   0.448   6.199  11.355 -1.5647 -0.6956 -0.6722
 1024MOL0     O38113   0.538   6.307  11.351  0.1025  0.0483  0.0339
 1024MOL0     C38114   0.674   6.273  11.326  0.9464  0.3611  0.3861
 1024MOL0     C38115   0.737   6.404  11.273  0.2007  0.6885 -0.9816
 1024MOL0     C38116   0.706   6.419  11.119  0.0704  0.9781  0.1843
 1024MOL0     C38117   0.816   6.355  11.032  0.7643 -0.5741 -0.5552
 1024MOL0     C38118   0.778   6.355  10.888 -0.3046 -0.4702 -0.2346
 1024MOL0     C38119   0.887   6.275  10.815  0.2753  0.1718  0.2482
 1024MOL0     C38120   0.925   6.328  10.675 -0.3304  0.5445  0.3906
 1024MOL0     C38121   0.823   6.307  10.568 -0.8427  0.6255  0.0217
 1024MOL0     N38122   0.710   6.398  10.587  0.0340  0.1423  0.2932
 1024MOL0     C38123   0.585   6.361  10.639 -0.1403 -0.9210  0.9725
 1024MOL0     C38124   0.525   6.482  10.642  0.8492 -0.1882 -0.0956
 1024MOL0     C38125   0.394   6.499  10.715  0.7365 -0.5105 -0.2332
 1024MOL0     C38126   0.412   6.471  10.862 -0.7968 -0.1587  0.4420
 1024MOL0     C38127   0.291   6.424  10.938 -0.1834 -0.3260  0.9887
 1024MOL0     C38128   0.225   6.291  10.891  0.4071 -0.0253 -0.5626
 1024MOL0     O38129   0.309   6.179  10.860 -0.0410 -0.0803 -0.0332
 1024MOL0     C38130   0.237   6.059  10.855  0.5346  0.0095  0.0195
 1024MOL0     C38131   0.316   5.943  10.882 -0.8393 -0.8149 -0.4851
 1024MOL0     C38132   0.252   5.822  10.879 -0.2356  0.0666 -0.0118
 1024MOL0     C38133   0.118   5.809  10.844  0.2267 -0.0799 -1.1947
 1024MOL0     C38134   0.055   5.675  10.838 -1.4707 -0.2649 -0.0010
 1024MOL0     O38135  -0.078   5.670  10.840  0.6480  0.1462  0.7036
 1024MOL0     C38136  -0.140   5.549  10.824  0.5248 -0.4947 -0.2354
 1024MOL0     C38137  -0.102   5.427  10.882 -0.6345 -0.0455 -0.1627
 1024MOL0     C38138  -0.172   5.305  10.864  0.0298 -0.3977 -0.2424
 1024MOL0     C38139  -0.282   5.300  10.782 -0.3888 -0.2135  0.5673
 1024MOL0     O38140  -0.355   5.184  10.750 -0.3887 -0.5186 -0.0466
 1024MOL0     C38141  -0.341   5.073  10.835  0.2778 -0.3601 -0.4886
 1024MOL0     C38142  -0.423   4.954  10.781 -0.2602  0.0551 -0.1126
 1024MOL0     C38143  -0.401   4.822  10.851  0.7346  0.4025  0.4965
 1024MOL0     C38144  -0.285   4.728  10.801  0.5326 -0.5142 -0.0562
 1024MOL0     C38145  -0.258   4.589  10.865 -0.3697 -0.0183  0.0420
 1024MOL0     C38146  -0.138   4.525  10.806  0.1729  0.0782  0.1810
 1024MOL0     C38147  -0.124   4.387  10.866  0.0038 -0.4505  0.4341
 1024MOL0     C38148  -0.018   4.287  10.808 -0.7078 -0.7139  0.3772
 1024MOL0    Cl38149  -0.034   4.137  10.908  0.1795 -0.5258  0.2125
 1024MOL0     C38150  -0.322   5.423  10.725 -0.2444  0.2363 -0.1592
 1024MOL0     C38151  -0.257   5.548  10.737 -0.7404  0.3655  0.1953
 1024MOL0     O38152   0.135   5.576  10.842 -0.3002  0.5170 -0.3056
 1024MOL0     C38153   0.038   5.921  10.818 -0.3299  0.0853 -0.4450
 1024MOL0     C38154   0.098   6.046  10.820  0.2031 -0.4416 -0.4423
 1024MOL0     N38155   0.614   6.584  10.628 -0.6772  0.1881 -0.0608
 1024MOL0     N38156   0.726   6.530  10.590 -0.1567  0.4088  0.0715
 1024MOL0     C38157   0.375   6.147  11.250  0.4196 -0.6933  0.3672
 1024MOL0     C38158   0.273   6.050  11.270  0.1246  0.1466 -0.3595
 1024MOL0     C38159   0.129   5.649  11.331  0.0001  0.1502  0.0247
 1024MOL0     C38160   0.007   5.651  11.404  0.2496  0.3990  0.0407
 1024MOL0     C38161  -0.094   5.552  11.382 -0.5232 -0.9464  0.4024
 1024MOL0     C38162  -0.059   5.435  11.317  0.5841 -1.0919 -0.3479
 1024MOL0     O38163  -0.155   5.333  11.313 -0.1670 -0.4649 -0.4508
 1024MOL0     C38164  -0.124   5.198  11.308  0.0545  0.3147  0.2581
 1024MOL0     C38165  -0.263   5.130  11.278  0.4518  0.8282 -0.2475
 1024MOL0     C38166  -0.241   4.976  11.239 -1.1990 -0.1769  0.4055
 1024MOL0     C38167  -0.218   4.879  11.358  0.2894  0.1237  0.0432
 1024MOL0     C38168  -0.075   4.891  11.379  0.8066  0.0723  0.2392
 1024MOL0     C38169   0.038   4.907  11.417  0.9213  0.8642 -0.4813
 1024MOL0     C38170   0.062   5.427  11.250 -0.2937 -0.3285 -1.0427
 1024MOL0     C38171   0.161   5.528  11.255 -0.2327 -0.6710 -0.1149
 1024MOL0     C38172   0.291   5.505  11.175 -1.3445  0.1488  0.2515
 1024MOL0     H38173   0.352   5.972  11.584 -0.7431  1.7873  1.3345
 1024MOL0     H38174   0.489   6.173  11.554 -0.8341 -0.0308  0.8137
 1024MOL0     H38175   0.721   6.246  11.421 -1.4066 -1.5215  1.1384
 1024MOL0     H38176   0.675   6.186  11.260  1.3012  0.1652  0.6476
 1024MOL0     H38177   0.844   6.406  11.297  0.0834  0.1514 -0.4087
 1024MOL0     H38178   0.696   6.490  11.326 -1.3568 -1.0710  0.8114
 1024MOL0     H38179   0.698   6.523  11.086 -0.6829  1.3515  1.4635
 1024MOL0     H38180   0.618   6.357  11.099  1.1866 -0.7141  0.3509
 1024MOL0     H38181   0.913   6.400  11.054  0.7753 -1.1136  0.5267
 1024MOL0     H38182   0.823   6.249  11.057 -0.7759 -1.3835 -3.1518
 1024MOL0     H38183   0.687   6.297  10.874  1.1514 -2.4814 -1.8997
 1024MOL0     H38184   0.769   6.460  10.859 -0.1267 -0.1018  0.9917
 1024MOL0     H38185   0.972   6.256  10.881  0.2876  2.1965  0.8773
 1024MOL0     H38186   0.851   6.173  10.802  0.9690 -0.0232 -0.1630
 1024MOL0     H38187   1.014   6.272  10.642 -0.2604 -1.6018  3.7126
 1024MOL0     H38188   0.963   6.430  10.683  1.7782 -0.1140 -0.3506
 1024MOL0     H38189   0.873   6.319  10.471  0.7151  0.3630  0.7532
 1024MOL0     H38190   0.795   6.201  10.572  0.0813  0.1277 -3.3014
 1024MOL0     H38191   0.540   6.270  10.678 -2.4486 -0.7171 -0.9347
 1024MOL0     H38192   0.332   6.588  10.704 -2.5045 -2.2449  2.1274
 1024MOL0     H38193   0.323   6.426  10.676 -1.1027 -0.3274  2.4903
 1024MOL0     H38194   0.480   6.386  10.872 -3.4296 -2.6817 -1.5271
 1024MOL0     H38195   0.458   6.555  10.914  0.5669 -0.4201 -0.2951
 1024MOL0     H38196   0.215   6.501  10.955 -1.2426 -1.2175  0.4317
 1024MOL0     H38197   0.333   6.400  11.036  1.4931 -0.7150  0.2131
 1024MOL0     H38198   0.164   6.320  10.805  1.2519  0.1527 -1.1118
 1024MOL0     H38199   0.147   6.276  10.966 -0.3114  1.6863 -0.9131
 1024MOL0     H38200   0.415   5.948  10.928 -0.4691 -5.9976 -0.1274
 1024MOL0     H38201   0.303   5.731  10.910 -1.5045 -0.5630  0.2965
 1024MOL0     H38202  -0.023   5.425  10.957 -1.1358  0.2530  0.3838
 1024MOL0     H38203  -0.142   5.218  10.921 -2.8482 -1.0419  0.4717
 1024MOL0     H38204  -0.236   5.043  10.833  0.9727  1.7472  0.8859
 1024MOL0     H38205  -0.361   5.109  10.936  4.1648 -1.3429  0.8129
 1024MOL0     H38206  -0.530   4.975  10.792 -0.4760 -0.0854 -1.6422
 1024MOL0     H38207  -0.405   4.939  10.674 -1.0960 -1.2861 -0.0891
 1024MOL0     H38208  -0.388   4.848  10.956  0.7735 -2.0531  1.1554
 1024MOL0     H38209  -0.494   4.764  10.850 -0.3216  2.0496  0.2415
 1024MOL0     H38210  -0.194   4.789  10.799 -1.1055  2.0491 -0.7087
 1024MOL0     H38211  -0.304   4.713  10.695 -0.6277 -4.0924  0.5304
 1024MOL0     H38212  -0.344   4.521  10.859 -1.0302  0.7758  0.4100
 1024MOL0     H38213  -0.241   4.595  10.973  0.0476  0.5988 -0.0544
 1024MOL0     H38214  -0.142   4.514  10.697 -0.0330 -1.6959  0.3423
 1024MOL0     H38215  -0.044   4.574  10.834  1.4223 -2.7823  1.3708
 1024MOL0     H38216  -0.219   4.333  10.868  2.0935 -4.5258  2.1140
 1024MOL0     H38217  -0.096   4.402  10.971  1.8166 -1.2047  0.0982
 1024MOL0     H38218  -0.038   4.259  10.704 -0.8127  1.8687 -0.3745
 1024MOL0     H38219   0.083   4.330  10.812  0.5157 -3.1027 -1.6793
 1024MOL0     H38220  -0.412   5.411  10.666 -0.5267  1.9845 -0.1142
 1024MOL0     H38221  -0.289   5.632  10.678 -0.4631  0.9387  0.8455
 1024MOL0     H38222  -0.068   5.907  10.799 -1.0269 -1.3115  3.5523
 1024MOL0     H38223   0.048   6.136  10.789 -3.8007 -2.1836  0.3757
 1024MOL0     H38224   0.373   6.189  11.150 -2.2489 -0.9053  0.2444
 1024MOL0     H38225   0.213   6.028  11.182  0.3343 -1.1209 -0.1985
 1024MOL0     H38226  -0.008   5.740  11.465  2.5404  1.8892 -1.4300
 1024MOL0     H38227  -0.196   5.568  11.418 -0.8825  0.9192 -1.2853
 1024MOL0     H38228  -0.074   5.166  11.399 -0.1633 -0.3702  0.1451
 1024MOL0     H38229  -0.054   5.184  11.225 -2.5653 -0.3709 -2.0276
 1024MOL0     H38230  -0.319   5.171  11.194 -2.3785 -0.4804  0.8585
 1024MOL0     H38231  -0.328   5.131  11.366  0.2637 -0.4150 -0.3556
 1024MOL0     H38232  -0.163   4.966  11.163  0.7263  0.1905  2.2232
 1024MOL0     H38233  -0.336   4.940  11.198 -1.6686 -0.6440  1.8467
 1024MOL0     H38234  -0.278   4.902  11.446 -0.6164 -2.0591  0.0695
 1024MOL0     H38235  -0.239   4.776  11.328 -0.1779  0.8995 -2.5633
 1024MOL0     H38236   0.136   4.910  11.460  0.4212  2.5968  0.6538
 1024MOL0     H38237   0.092   5.341  11.191  5.3167 -0.5390  1.4992
 1024MOL0     H38238   0.377   5.525  11.238 -1.8611 -1.6318  1.5850
 1024MOL0     H38239   0.307   5.399  11.153  2.4101  0.6804 -0.2283
 1024MOL0     H38240   0.300   5.568  11.085  0.0975  1.6130  1.3665
  11.28889  11.28889  11.28889
